FOO
135168
    1MOL0     O    1   5.713   3.556   5.635  0.1339 -0.1524 -0.9320
    1MOL0     C    2   5.754   3.669   5.638  0.5014  0.0340 -0.3788
    1MOL0     O    3   5.676   3.776   5.609 -0.4378 -0.2300 -0.5373
    1MOL0     C    4   5.553   3.760   5.551  0.0340  0.9367  0.0006
    1MOL0     C    5   5.445   3.836   5.589  0.5086  0.3262 -0.5917
    1MOL0     C    6   5.339   3.852   5.496 -0.8032 -0.3537 -0.8994
    1MOL0     C    7   5.338   3.781   5.373 -0.9141 -0.3618 -0.4803
    1MOL0     O    8   5.234   3.775   5.282 -0.5016  0.3379 -0.1219
    1MOL0     C    9   5.098   3.770   5.328  0.0067  0.4541  0.5215
    1MOL0     C   10   5.023   3.727   5.205 -0.8996 -0.0084 -0.1139
    1MOL0     C   11   4.877   3.718   5.226  0.2636 -0.1818  0.4976
    1MOL0     C   12   4.834   3.616   5.332 -0.1778 -0.1618  0.4438
    1MOL0     C   13   4.678   3.617   5.307 -0.7318  0.2933 -0.6860
    1MOL0     C   14   4.604   3.704   5.405 -0.9441  0.2191 -0.0975
    1MOL0     C   15   4.457   3.675   5.397 -0.1668  0.2703 -0.2825
    1MOL0     C   16   4.391   3.760   5.506  0.0115  0.1308  0.2285
    1MOL0     N   17   4.246   3.730   5.502 -0.1521 -0.0220 -0.0361
    1MOL0     C   18   4.158   3.787   5.411 -0.2316  0.4361  0.2171
    1MOL0     C   19   4.044   3.716   5.437 -0.4936 -0.2277 -0.7999
    1MOL0     C   20   3.921   3.747   5.357 -0.4986 -0.5313  0.3392
    1MOL0     C   21   3.789   3.695   5.424 -0.6575  0.2978  0.3798
    1MOL0     C   22   3.669   3.751   5.356 -0.7904 -0.6756  0.2161
    1MOL0     C   23   3.546   3.658   5.391 -0.2165  1.1036 -0.1689
    1MOL0     O   24   3.527   3.662   5.535 -0.0211 -0.3484 -1.0952
    1MOL0     C   25   3.397   3.645   5.580 -0.1805 -0.4561 -0.1595
    1MOL0     C   26   3.369   3.708   5.703  0.2163  0.5992  0.7452
    1MOL0     C   27   3.249   3.706   5.763  0.3613 -0.4054  0.4618
    1MOL0     C   28   3.144   3.638   5.693  0.3256  0.0514  0.4292
    1MOL0     C   29   3.016   3.626   5.773  0.1534  0.1346 -0.4715
    1MOL0     O   30   2.988   3.724   5.869 -0.0605 -0.5188  1.0333
    1MOL0     C   31   2.877   3.710   5.942 -0.9351  0.4049 -0.5938
    1MOL0     C   32   2.753   3.775   5.907  0.1920 -0.0960 -0.8962
    1MOL0     C   33   2.644   3.756   5.990  0.4391 -0.1757  0.3380
    1MOL0     C   34   2.653   3.677   6.102 -0.6714  0.3321  0.8030
    1MOL0     O   35   2.535   3.659   6.163 -0.2823 -0.2263 -0.1234
    1MOL0     C   36   2.519   3.561   6.274 -1.0051 -0.5663  0.2284
    1MOL0     C   37   2.388   3.590   6.346  0.3882  0.1717 -0.0485
    1MOL0     C   38   2.270   3.534   6.253 -0.2113 -0.8681  0.6499
    1MOL0     C   39   2.135   3.567   6.321 -0.3912 -0.2660 -0.0728
    1MOL0     C   40   2.073   3.697   6.281 -0.0942 -0.6811  0.7207
    1MOL0     C   41   1.959   3.739   6.381  0.3990 -1.0048 -0.8331
    1MOL0     C   42   1.841   3.651   6.366  0.2570  0.4399 -0.1667
    1MOL0     C   43   1.741   3.664   6.482 -0.0236  0.5264 -0.3875
    1MOL0    Cl   44   1.591   3.589   6.446 -0.1450  0.0448  0.4863
    1MOL0     C   45   2.780   3.632   6.143 -0.2432  0.9011 -0.5835
    1MOL0     C   46   2.893   3.635   6.061 -0.3317 -0.1589 -0.0390
    1MOL0     O   47   2.957   3.516   5.764 -0.0905  0.0033 -0.0356
    1MOL0     C   48   3.170   3.567   5.571  0.0844 -0.3282  0.0609
    1MOL0     C   49   3.296   3.573   5.517  0.2504 -0.1626  1.1808
    1MOL0     N   50   4.059   3.630   5.544 -0.5390  0.7089  0.0121
    1MOL0     N   51   4.189   3.629   5.572 -0.0890 -0.8305 -0.6562
    1MOL0     C   52   5.444   3.700   5.345 -0.3328 -0.5994 -0.4514
    1MOL0     C   53   5.550   3.691   5.432  0.2803 -0.1764 -0.0498
    1MOL0     C   54   5.890   3.705   5.677 -0.0518 -0.6823 -0.4277
    1MOL0     C   55   5.976   3.612   5.737 -0.5623  0.3965  0.7366
    1MOL0     C   56   6.113   3.650   5.766 -0.7585  1.5253  0.4575
    1MOL0     C   57   6.163   3.779   5.732 -0.4485  0.1831 -0.0165
    1MOL0     O   58   6.291   3.821   5.762  0.6132 -0.3658 -0.1138
    1MOL0     C   59   6.364   3.741   5.860  0.4510  0.4025  0.1766
    1MOL0     C   60   6.500   3.806   5.873 -0.7465  0.6374 -0.4520
    1MOL0     C   61   6.503   3.921   5.966  0.1562 -0.8197  0.3275
    1MOL0     C   62   6.649   3.957   6.000  0.4447  0.2895 -0.0760
    1MOL0     C   63   6.656   4.093   6.047  0.1720 -0.0948 -0.6785
    1MOL0     C   64   6.669   4.200   6.107 -0.5336 -0.2124  0.1015
    1MOL0     C   65   6.076   3.873   5.672  0.5067 -0.5507 -0.4270
    1MOL0     C   66   5.943   3.836   5.641  0.4929  0.0995 -0.7139
    1MOL0     H   67   5.439   3.893   5.682  2.4972 -3.1178  1.8542
    1MOL0     H   68   5.264   3.926   5.521  0.0730  0.2148  0.1662
    1MOL0     H   69   5.064   3.869   5.359 -0.6799  1.1216 -2.1512
    1MOL0     H   70   5.083   3.697   5.409 -0.5715  0.4638  0.4253
    1MOL0     H   71   5.062   3.628   5.180  0.4479 -0.0061  1.7603
    1MOL0     H   72   5.034   3.795   5.120 -1.0567  1.9283  1.3235
    1MOL0     H   73   4.841   3.687   5.127 -0.2806 -1.8743  1.1842
    1MOL0     H   74   4.835   3.816   5.249 -0.2687 -0.5834  1.2767
    1MOL0     H   75   4.879   3.517   5.320  0.9769 -0.2100  4.0150
    1MOL0     H   76   4.868   3.650   5.430  1.3501  0.3009 -0.2170
    1MOL0     H   77   4.644   3.513   5.313  2.5344 -0.8035  1.9790
    1MOL0     H   78   4.651   3.653   5.207 -0.6884  2.4489  0.0305
    1MOL0     H   79   4.628   3.805   5.369 -1.7235  1.5181  2.7413
    1MOL0     H   80   4.654   3.691   5.502 -0.2782  0.6651 -0.3722
    1MOL0     H   81   4.422   3.707   5.299 -1.4644  0.9792  0.3816
    1MOL0     H   82   4.425   3.571   5.411 -1.4206  0.9072  2.3353
    1MOL0     H   83   4.415   3.865   5.488  3.0940 -0.6876 -1.0511
    1MOL0     H   84   4.425   3.727   5.604 -0.8885 -1.5791  0.0096
    1MOL0     H   85   4.168   3.869   5.341  0.7666 -0.0013 -0.1822
    1MOL0     H   86   3.936   3.712   5.254  2.4248  0.1457  0.4485
    1MOL0     H   87   3.915   3.857   5.353  1.8295 -0.3427  0.7197
    1MOL0     H   88   3.789   3.712   5.532  1.4863 -1.4992  0.7225
    1MOL0     H   89   3.782   3.589   5.398  0.0243  0.7505 -1.8848
    1MOL0     H   90   3.642   3.852   5.387  0.2633 -0.4549  0.4309
    1MOL0     H   91   3.690   3.754   5.248  0.0008  2.2609  0.3765
    1MOL0     H   92   3.570   3.553   5.368 -2.1008 -1.1474  6.0188
    1MOL0     H   93   3.464   3.696   5.330  0.6660  2.2421 -0.6708
    1MOL0     H   94   3.452   3.758   5.752 -0.5435  3.3135 -0.5372
    1MOL0     H   95   3.240   3.759   5.857  2.6273  1.0791 -0.0864
    1MOL0     H   96   2.741   3.834   5.817  2.6728 -0.3166 -1.4348
    1MOL0     H   97   2.561   3.807   5.942  1.9312  2.8898  0.7846
    1MOL0     H   98   2.603   3.565   6.344  1.8140  0.0416 -2.9057
    1MOL0     H   99   2.509   3.462   6.228 -4.2491 -0.0974 -0.3242
    1MOL0     H  100   2.386   3.698   6.364  0.8501 -0.1900  2.6126
    1MOL0     H  101   2.392   3.542   6.444  0.2433  0.8185  0.2772
    1MOL0     H  102   2.288   3.427   6.241  0.3374 -0.5742 -1.5067
    1MOL0     H  103   2.276   3.580   6.154  2.1528  2.0152  2.0020
    1MOL0     H  104   2.077   3.479   6.292  0.0654 -1.6261  2.7466
    1MOL0     H  105   2.147   3.561   6.429  1.1547 -1.6755 -0.2699
    1MOL0     H  106   2.024   3.686   6.184 -2.2674  1.1919  1.5133
    1MOL0     H  107   2.149   3.776   6.284 -1.3532  0.7583 -1.9551
    1MOL0     H  108   1.934   3.842   6.354  5.2484  0.3382 -1.0042
    1MOL0     H  109   2.002   3.744   6.481 -0.0585  1.2456 -0.7139
    1MOL0     H  110   1.795   3.669   6.268  0.9352  1.9245 -0.2352
    1MOL0     H  111   1.872   3.547   6.367 -0.4937  0.2073  1.0466
    1MOL0     H  112   1.733   3.772   6.495 -1.7672  0.2203  1.6004
    1MOL0     H  113   1.779   3.620   6.575 -0.0827 -0.8219 -0.9783
    1MOL0     H  114   2.797   3.567   6.227  2.3982 -2.7177 -3.5918
    1MOL0     H  115   2.985   3.590   6.098 -0.3398  0.0994  0.2982
    1MOL0     H  116   3.092   3.514   5.517 -2.7953  2.2412  1.3847
    1MOL0     H  117   3.318   3.533   5.418  0.7937  2.1733  0.2852
    1MOL0     H  118   5.440   3.649   5.249 -0.2443 -1.5819  0.0510
    1MOL0     H  119   5.625   3.627   5.386  0.4036  0.5172 -0.8245
    1MOL0     H  120   5.935   3.514   5.760 -1.9221  0.7684  0.0310
    1MOL0     H  121   6.182   3.574   5.799 -0.0783  1.3392 -1.3062
    1MOL0     H  122   6.377   3.639   5.823 -0.7973  0.8669 -1.6753
    1MOL0     H  123   6.304   3.746   5.951 -0.3161  1.1066 -0.3501
    1MOL0     H  124   6.575   3.734   5.907  0.6940  1.8326 -1.0114
    1MOL0     H  125   6.534   3.843   5.776  1.8214  0.4585  0.3104
    1MOL0     H  126   6.444   3.906   6.057  0.7978  1.3945  1.1806
    1MOL0     H  127   6.460   4.005   5.910 -0.4093 -2.7031 -2.2559
    1MOL0     H  128   6.687   3.894   6.081  3.2651  0.1206 -1.4101
    1MOL0     H  129   6.715   3.953   5.913 -1.0040  0.3187 -1.2162
    1MOL0     H  130   6.672   4.287   6.169  1.8188  1.9351 -2.7841
    1MOL0     H  131   6.115   3.970   5.646 -1.4008  0.4525  0.2247
    1MOL0     H  132   5.867   3.899   5.595 -1.7052  0.0565  2.5342
    2MOL0     O  133   7.504   8.915   9.671  0.6374  0.2652  0.9105
    2MOL0     C  134   7.549   8.916   9.558 -0.0525 -0.0161  0.0206
    2MOL0     O  135   7.473   8.893   9.445  0.3220 -0.0155 -0.0941
    2MOL0     C  136   7.337   8.898   9.433 -0.0890  0.0765 -0.9851
    2MOL0     C  137   7.291   8.904   9.303 -0.9234 -1.0186 -0.6930
    2MOL0     C  138   7.157   8.902   9.269  0.7238  0.0654 -1.2109
    2MOL0     C  139   7.060   8.895   9.369 -0.5323 -0.4391  0.0055
    2MOL0     O  140   6.926   8.867   9.350 -0.2878 -1.3608  0.2176
    2MOL0     C  141   6.829   8.870   9.458  0.8210  0.0531  0.4494
    2MOL0     C  142   6.798   9.016   9.498  0.4400  0.2156  0.8883
    2MOL0     C  143   6.737   9.103   9.385  0.0903  0.0019 -0.0213
    2MOL0     C  144   6.610   9.045   9.332 -0.1656 -0.8484  1.3416
    2MOL0     C  145   6.533   9.143   9.235  0.0030 -0.4802  0.0390
    2MOL0     C  146   6.414   9.076   9.159  0.2346 -0.9107 -0.0717
    2MOL0     C  147   6.295   9.055   9.254  0.2069 -0.9962  0.5469
    2MOL0     C  148   6.225   9.188   9.277 -0.2279 -0.5902  0.0691
    2MOL0     N  149   6.081   9.165   9.299 -0.2047 -0.0006  0.1488
    2MOL0     C  150   6.014   9.116   9.409  0.2862  0.6216 -0.7162
    2MOL0     C  151   5.884   9.146   9.390 -0.2861  0.8988  0.4003
    2MOL0     C  152   5.775   9.117   9.486 -1.1709 -0.5965 -0.4309
    2MOL0     C  153   5.700   9.239   9.541  0.1641  0.2853  0.7205
    2MOL0     C  154   5.571   9.178   9.595 -0.4121  0.3323 -0.2702
    2MOL0     C  155   5.500   9.295   9.671  0.0493  0.0934  0.3905
    2MOL0     O  156   5.412   9.230   9.771 -0.1482 -0.7014  0.1194
    2MOL0     C  157   5.268   9.238   9.768  0.0116 -0.5177  0.2484
    2MOL0     C  158   5.194   9.342   9.708  0.9683 -0.1871  0.3652
    2MOL0     C  159   5.056   9.347   9.691  0.4478 -0.9717 -0.3416
    2MOL0     C  160   4.984   9.248   9.753 -0.1147 -1.3640  0.4119
    2MOL0     C  161   4.833   9.242   9.748 -0.1240 -0.2867  0.6737
    2MOL0     O  162   4.779   9.333   9.670 -0.2435 -0.6952  1.2662
    2MOL0     C  163   4.649   9.347   9.642 -0.3340 -0.9305  0.6268
    2MOL0     C  164   4.548   9.299   9.725 -0.0187  0.6535  0.5685
    2MOL0     C  165   4.412   9.300   9.678 -0.1696  0.3996  0.3265
    2MOL0     C  166   4.379   9.376   9.565 -0.1082  0.4987  0.2150
    2MOL0     O  167   4.251   9.414   9.545  0.1738  0.1018 -0.3079
    2MOL0     C  168   4.140   9.341   9.592  0.6257  0.4706  0.1135
    2MOL0     C  169   4.005   9.408   9.561 -0.3175  0.1724  0.0377
    2MOL0     C  170   3.891   9.348   9.653 -0.3544  0.2164 -0.6159
    2MOL0     C  171   3.752   9.423   9.637 -0.7144 -0.0769 -0.9575
    2MOL0     C  172   3.669   9.388   9.516 -0.4177  0.3051  1.0036
    2MOL0     C  173   3.608   9.244   9.508 -0.2675 -0.8630  0.6117
    2MOL0     C  174   3.545   9.211   9.365  0.1892 -0.1472 -1.2777
    2MOL0     C  175   3.651   9.161   9.254  0.8976 -0.3689 -0.6467
    2MOL0    Cl  176   3.706   8.997   9.302 -0.5121 -0.1068  0.0529
    2MOL0     C  177   4.482   9.443   9.495 -0.0077  0.2610  0.1654
    2MOL0     C  178   4.616   9.429   9.534  1.1115  0.0210 -0.1527
    2MOL0     O  179   4.777   9.147   9.807  0.1786 -0.2419  0.0555
    2MOL0     C  180   5.062   9.140   9.821 -0.5853 -0.6370  0.0443
    2MOL0     C  181   5.198   9.139   9.831  0.1121 -0.2228 -0.5511
    2MOL0     N  182   5.877   9.209   9.265  0.2743 -0.1395  0.0309
    2MOL0     N  183   5.993   9.225   9.218 -0.3227  0.5895  0.2069
    2MOL0     C  184   7.105   8.903   9.499 -0.4083  0.0420  0.1207
    2MOL0     C  185   7.236   8.914   9.532 -0.0572  0.5613  0.0845
    2MOL0     C  186   7.694   8.939   9.542 -0.4452 -0.6209  0.3254
    2MOL0     C  187   7.741   8.968   9.412 -0.9416  0.1624  0.5616
    2MOL0     C  188   7.882   8.979   9.397 -0.2327  0.2587 -0.6005
    2MOL0     C  189   7.971   8.972   9.508 -0.2145 -0.2449  1.1482
    2MOL0     O  190   8.112   8.986   9.501  0.2006  0.2148 -0.3211
    2MOL0     C  191   8.173   9.028   9.383  0.3056  0.8583 -0.1410
    2MOL0     C  192   8.319   9.009   9.399  0.6866  0.3771 -0.8460
    2MOL0     C  193   8.354   8.866   9.447 -0.7008  0.8660 -1.0089
    2MOL0     C  194   8.362   8.764   9.328  0.2768  0.2562  0.9402
    2MOL0     C  195   8.236   8.695   9.305  0.4296  0.7143 -0.3459
    2MOL0     C  196   8.129   8.647   9.291  0.4561  0.4402 -0.2662
    2MOL0     C  197   7.925   8.943   9.634  0.9448  0.0026 -0.7826
    2MOL0     C  198   7.786   8.925   9.651 -0.0104 -0.4966 -0.3377
    2MOL0     H  199   7.361   8.910   9.220  0.4836  1.2391  0.5403
    2MOL0     H  200   7.120   8.915   9.168 -0.1394 -1.5139 -1.1246
    2MOL0     H  201   6.859   8.811   9.544 -0.5889 -0.3941  0.6548
    2MOL0     H  202   6.735   8.823   9.430 -0.2353  1.6173  1.1980
    2MOL0     H  203   6.893   9.062   9.529  1.9903 -0.2248 -2.6985
    2MOL0     H  204   6.731   9.023   9.584 -0.6673  0.5207  0.0217
    2MOL0     H  205   6.809   9.109   9.302  1.7576  2.4915  1.4828
    2MOL0     H  206   6.719   9.205   9.417  0.4047 -0.3995  1.5068
    2MOL0     H  207   6.643   8.956   9.278 -2.5216 -0.4823 -0.8820
    2MOL0     H  208   6.546   9.006   9.412 -1.0710  0.2638  1.1954
    2MOL0     H  209   6.608   9.170   9.161  0.8097  0.9125  1.3033
    2MOL0     H  210   6.507   9.232   9.295 -1.2982  0.0444 -1.2412
    2MOL0     H  211   6.448   8.979   9.123 -2.4962 -1.4034 -1.5399
    2MOL0     H  212   6.383   9.144   9.080  0.3029  0.2845  0.8998
    2MOL0     H  213   6.232   8.972   9.221  1.8895 -2.2699  0.3643
    2MOL0     H  214   6.334   9.028   9.353 -1.2895 -2.8433  0.7019
    2MOL0     H  215   6.245   9.255   9.194  1.1868  0.6800  1.3746
    2MOL0     H  216   6.268   9.243   9.362 -0.9217  1.1029 -0.6396
    2MOL0     H  217   6.060   9.066   9.494 -2.7044  0.9215  1.2251
    2MOL0     H  218   5.817   9.061   9.570  1.0994  3.6379  1.6268
    2MOL0     H  219   5.697   9.067   9.429 -1.7498  1.3551 -1.4323
    2MOL0     H  220   5.689   9.311   9.460  3.0909 -0.0719 -0.1312
    2MOL0     H  221   5.755   9.281   9.626  1.8265 -0.6776  0.1756
    2MOL0     H  222   5.509   9.132   9.517  0.4407  2.6915 -2.4577
    2MOL0     H  223   5.597   9.098   9.666 -1.4057 -0.3700 -0.6658
    2MOL0     H  224   5.439   9.353   9.601  0.0042  0.5845  0.8291
    2MOL0     H  225   5.567   9.364   9.723  1.9374  0.3460 -2.1982
    2MOL0     H  226   5.234   9.427   9.654 -0.2233  1.1611  1.5018
    2MOL0     H  227   5.002   9.427   9.642  0.7561 -0.6843 -0.2079
    2MOL0     H  228   4.558   9.255   9.824 -0.6245 -1.0260 -0.0667
    2MOL0     H  229   4.338   9.251   9.741 -0.0319 -0.4206 -0.1334
    2MOL0     H  230   4.148   9.330   9.701 -0.8246 -1.6921  0.0588
    2MOL0     H  231   4.154   9.246   9.540  3.5849  0.6721  0.3464
    2MOL0     H  232   3.983   9.389   9.456  0.8234 -2.5532  0.2000
    2MOL0     H  233   4.004   9.517   9.565  1.6096  0.2122  0.3187
    2MOL0     H  234   3.930   9.335   9.754  2.2004  0.0884 -1.5267
    2MOL0     H  235   3.873   9.247   9.615 -0.4926  0.0682 -0.1569
    2MOL0     H  236   3.692   9.391   9.723  1.6976 -1.3378  0.3908
    2MOL0     H  237   3.775   9.529   9.644  0.4824 -0.2940 -1.2841
    2MOL0     H  238   3.725   9.401   9.423  1.1204 -0.4148  1.7879
    2MOL0     H  239   3.578   9.447   9.507 -1.5718 -1.6909 -2.1139
    2MOL0     H  240   3.526   9.236   9.579 -1.3046 -1.5499 -0.6261
    2MOL0     H  241   3.684   9.174   9.544 -0.1200 -1.2730 -0.4659
    2MOL0     H  242   3.469   9.133   9.372 -0.3187  0.3642 -1.0962
    2MOL0     H  243   3.488   9.300   9.337  0.3329  0.9793  1.7106
    2MOL0     H  244   3.736   9.231   9.259 -1.2979  2.6379 -1.9311
    2MOL0     H  245   3.602   9.163   9.156 -1.1697 -2.6512  0.2585
    2MOL0     H  246   4.456   9.509   9.413  0.0075  1.3267  0.9832
    2MOL0     H  247   4.699   9.484   9.490  1.4766  0.7660  1.3956
    2MOL0     H  248   5.011   9.052   9.860  0.4503 -2.2853 -2.1120
    2MOL0     H  249   5.250   9.066   9.892  0.9438  1.2518  0.5503
    2MOL0     H  250   7.043   8.901   9.588 -0.9230 -0.8379 -0.2444
    2MOL0     H  251   7.255   8.891   9.636 -1.8739  1.1990  0.5852
    2MOL0     H  252   7.671   8.966   9.329  0.7568 -0.7409 -0.9320
    2MOL0     H  253   7.927   8.997   9.300  0.3152 -1.6127 -0.7304
    2MOL0     H  254   8.141   9.125   9.344 -0.5243  0.1456 -1.2891
    2MOL0     H  255   8.148   8.956   9.304 -1.5005 -2.0092  2.7897
    2MOL0     H  256   8.377   9.032   9.309  1.1853 -2.3645 -1.3193
    2MOL0     H  257   8.342   9.072   9.486 -1.4767  1.1448 -0.7659
    2MOL0     H  258   8.293   8.824   9.527  0.6492 -0.4213 -0.5968
    2MOL0     H  259   8.450   8.868   9.499 -2.4455 -0.2021  2.5172
    2MOL0     H  260   8.397   8.818   9.240 -2.6148 -0.8151 -0.9908
    2MOL0     H  261   8.428   8.678   9.346  1.7335  1.3734  1.1872
    2MOL0     H  262   8.029   8.609   9.288  0.6657 -0.0560 -1.4481
    2MOL0     H  263   7.993   8.931   9.718 -0.3646  0.7396  0.4249
    2MOL0     H  264   7.751   8.902   9.751  1.4960  0.3983  0.4372
    3MOL0     O  265   1.283   2.281   7.184  0.0562 -0.1572 -0.0349
    3MOL0     C  266   1.392   2.338   7.181  0.1681  0.9963  1.5147
    3MOL0     O  267   1.406   2.477   7.188  0.6563 -0.0209 -0.0856
    3MOL0     C  268   1.292   2.564   7.190  0.6089  0.6970  0.0477
    3MOL0     C  269   1.198   2.565   7.089  1.5110  0.0921 -0.5398
    3MOL0     C  270   1.082   2.647   7.106  0.1053  0.4054 -0.0931
    3MOL0     C  271   1.064   2.740   7.208  0.2986  0.6316  0.1457
    3MOL0     O  272   0.959   2.823   7.231  0.3009 -0.2527  0.1658
    3MOL0     C  273   0.847   2.821   7.139 -0.7884  0.6298 -0.1753
    3MOL0     C  274   0.756   2.925   7.190 -0.5836  0.2980 -0.1625
    3MOL0     C  275   0.641   2.948   7.089 -0.5558 -0.3198 -0.3021
    3MOL0     C  276   0.558   3.064   7.156 -0.5896  0.1737  0.3750
    3MOL0     C  277   0.438   3.108   7.079  0.5237  0.1107 -0.4481
    3MOL0     C  278   0.341   2.993   7.036  0.0880 -0.7905  0.3445
    3MOL0     C  279   0.243   3.067   6.954 -0.3018 -0.7351  0.1943
    3MOL0     C  280   0.134   2.994   6.879  0.0756 -0.1708 -0.2655
    3MOL0     N  281   0.035   2.935   6.966 -0.0642  0.0418 -0.3487
    3MOL0     C  282  -0.077   3.005   7.024 -0.7207  0.2634 -0.1951
    3MOL0     C  283  -0.153   2.903   7.077 -0.7518  0.5375 -0.4294
    3MOL0     C  284  -0.279   2.944   7.151 -0.4483  0.3495 -0.2840
    3MOL0     C  285  -0.404   2.923   7.077  0.1368 -0.6548  0.7820
    3MOL0     C  286  -0.439   2.775   7.051 -0.4304 -0.5902  1.0865
    3MOL0     C  287  -0.583   2.768   7.006 -0.6417 -0.4134 -0.3910
    3MOL0     O  288  -0.678   2.797   7.110  0.2054 -0.0266 -0.0935
    3MOL0     C  289  -0.810   2.818   7.079  0.0213 -0.3866  0.4023
    3MOL0     C  290  -0.889   2.867   7.181 -0.2352  0.2256  0.8639
    3MOL0     C  291  -1.020   2.886   7.157  0.2819  0.2245  0.2823
    3MOL0     C  292  -1.076   2.879   7.031  0.0530 -0.4028  0.1452
    3MOL0     C  293  -1.219   2.917   7.003 -0.8912  0.8495 -0.4022
    3MOL0     O  294  -1.291   2.859   6.900 -0.3015  1.0322  0.1872
    3MOL0     C  295  -1.429   2.884   6.888 -0.1631 -0.2716 -0.6078
    3MOL0     C  296  -1.481   2.948   6.777  0.0721 -0.7354 -1.1357
    3MOL0     C  297  -1.611   3.006   6.784 -0.3732  0.0409  0.1092
    3MOL0     C  298  -1.699   2.971   6.880 -0.1928 -0.1032  0.0282
    3MOL0     O  299  -1.828   3.019   6.860  0.0603  0.3835  1.2327
    3MOL0     C  300  -1.923   3.016   6.974  0.3284  0.3864  0.1892
    3MOL0     C  301  -2.076   3.059   6.940 -0.5560 -0.2506  0.2480
    3MOL0     C  302  -2.110   2.980   6.809  0.2889 -0.3636  0.2923
    3MOL0     C  303  -2.250   3.025   6.760 -0.5256 -0.6649 -0.1315
    3MOL0     C  304  -2.299   2.952   6.637  0.6120  0.5697  0.1412
    3MOL0     C  305  -2.439   3.001   6.594 -0.1315 -0.4403  0.8949
    3MOL0     C  306  -2.500   2.951   6.459  1.0060 -0.9028  0.0069
    3MOL0     C  307  -2.633   3.031   6.424 -0.4590  0.0034  0.2017
    3MOL0    Cl  308  -2.754   3.016   6.549 -0.3100  0.2525  0.2663
    3MOL0     C  309  -1.657   2.894   6.989  0.1534  0.4469  0.7056
    3MOL0     C  310  -1.516   2.860   6.995  0.5982 -0.2834 -1.1223
    3MOL0     O  311  -1.262   2.995   7.090  0.1087  0.2537 -0.3317
    3MOL0     C  312  -0.998   2.832   6.924  0.4933  0.3628 -0.1466
    3MOL0     C  313  -0.864   2.803   6.954  0.4605 -0.1214  0.2352
    3MOL0     N  314  -0.093   2.778   7.054  0.6757  0.6614 -0.1422
    3MOL0     N  315   0.017   2.798   6.986  0.4071 -1.2593  0.1042
    3MOL0     C  316   1.163   2.736   7.301 -0.1748  0.6378  0.0255
    3MOL0     C  317   1.274   2.650   7.301 -0.8782  0.3222  0.0715
    3MOL0     C  318   1.516   2.247   7.199 -0.8608  0.0054  0.4802
    3MOL0     C  319   1.651   2.297   7.193  0.4372  0.4053 -0.6877
    3MOL0     C  320   1.760   2.216   7.231 -0.0296 -0.5677 -0.2027
    3MOL0     C  321   1.738   2.088   7.282 -0.4678  0.1431 -0.2765
    3MOL0     O  322   1.830   2.010   7.343 -0.5080 -0.2876  0.1642
    3MOL0     C  323   1.966   2.065   7.367  0.0723 -0.0931 -0.5688
    3MOL0     C  324   2.047   1.991   7.477 -0.4542 -0.5421  0.9222
    3MOL0     C  325   2.023   1.842   7.453  0.1210 -0.2596 -0.3463
    3MOL0     C  326   2.104   1.746   7.529  0.0003  0.0135 -0.1651
    3MOL0     C  327   2.244   1.739   7.496 -0.2980  0.7718  0.5175
    3MOL0     C  328   2.360   1.723   7.457  0.3711  1.1549  0.7695
    3MOL0     C  329   1.608   2.045   7.279 -1.0325  0.8445 -1.2100
    3MOL0     C  330   1.501   2.114   7.236 -0.4884 -0.1161 -0.5517
    3MOL0     H  331   1.211   2.497   7.005 -4.2698 -0.1764 -1.5721
    3MOL0     H  332   1.018   2.639   7.019  0.9095 -2.8371 -0.4978
    3MOL0     H  333   0.794   2.726   7.142  1.8459 -0.9073  0.6148
    3MOL0     H  334   0.884   2.840   7.037  0.5439 -1.0775 -0.0487
    3MOL0     H  335   0.813   3.018   7.200 -0.2980  0.0447  0.6550
    3MOL0     H  336   0.721   2.907   7.292 -1.5031  0.9759 -0.3491
    3MOL0     H  337   0.589   2.854   7.069  0.9733 -1.0955 -0.7556
    3MOL0     H  338   0.670   2.981   6.989 -1.0063  0.3448 -0.2220
    3MOL0     H  339   0.532   3.029   7.257  0.8202 -1.4760  0.2264
    3MOL0     H  340   0.614   3.158   7.159 -0.1652  0.0393 -2.0316
    3MOL0     H  341   0.490   3.136   6.987  2.5482 -1.7433  0.0299
    3MOL0     H  342   0.392   3.199   7.119  2.2987  1.1780 -0.7214
    3MOL0     H  343   0.294   2.941   7.121  1.0495 -0.7629  0.9013
    3MOL0     H  344   0.389   2.912   6.981  0.9296  0.3929 -0.7065
    3MOL0     H  345   0.201   3.147   7.016  0.3172 -2.3194  2.8539
    3MOL0     H  346   0.298   3.119   6.876 -0.4852 -1.5636 -0.5061
    3MOL0     H  347   0.173   2.911   6.819 -0.0089 -1.1757  1.0323
    3MOL0     H  348   0.085   3.059   6.805  1.2736 -1.1299 -1.9729
    3MOL0     H  349  -0.087   3.112   7.041  1.8889  0.4442  0.7017
    3MOL0     H  350  -0.267   3.045   7.190  1.5728 -0.9250  2.8307
    3MOL0     H  351  -0.296   2.889   7.244 -2.4724 -0.1677 -0.9091
    3MOL0     H  352  -0.394   2.982   6.985  0.3183 -0.5554  0.8667
    3MOL0     H  353  -0.479   2.977   7.136 -0.5153  2.0907 -2.2040
    3MOL0     H  354  -0.381   2.737   6.967 -2.4906 -0.8384 -0.3022
    3MOL0     H  355  -0.418   2.714   7.139  2.9869 -0.8455  0.2038
    3MOL0     H  356  -0.592   2.667   6.964 -1.9789 -1.0289  1.2571
    3MOL0     H  357  -0.601   2.836   6.922 -0.7028 -0.1743 -0.1847
    3MOL0     H  358  -0.840   2.884   7.277  1.1450 -1.6676  0.5408
    3MOL0     H  359  -1.082   2.901   7.245 -1.6303  0.0964 -0.9849
    3MOL0     H  360  -1.414   2.976   6.697 -2.5764  3.4166 -2.2172
    3MOL0     H  361  -1.646   3.071   6.705  2.3856 -0.6780 -1.8580
    3MOL0     H  362  -1.892   3.084   7.053 -1.1441 -0.2833  1.3762
    3MOL0     H  363  -1.918   2.914   7.014  1.2519  1.1107  2.0260
    3MOL0     H  364  -2.084   3.166   6.919  1.1428  0.0125  0.8499
    3MOL0     H  365  -2.140   3.034   7.025 -0.4026 -2.1307 -0.1467
    3MOL0     H  366  -2.103   2.872   6.822 -1.8672 -0.6626 -0.6157
    3MOL0     H  367  -2.038   3.003   6.730  0.2478 -3.3955 -0.7350
    3MOL0     H  368  -2.319   3.010   6.843 -2.3671 -0.6283 -1.5980
    3MOL0     H  369  -2.243   3.131   6.733  0.9374 -0.8436 -0.5670
    3MOL0     H  370  -2.310   2.848   6.669  0.2355  0.4722 -0.3036
    3MOL0     H  371  -2.237   2.940   6.548 -0.4942  2.3403 -0.9368
    3MOL0     H  372  -2.434   3.110   6.583 -0.9434 -0.4702  0.0491
    3MOL0     H  373  -2.512   2.974   6.671 -0.7439 -0.5209  0.2959
    3MOL0     H  374  -2.427   2.942   6.378  0.0596  0.2239 -0.9965
    3MOL0     H  375  -2.537   2.848   6.468  0.8373 -0.6944  2.2617
    3MOL0     H  376  -2.685   2.982   6.341 -1.0347 -0.5269  0.8637
    3MOL0     H  377  -2.611   3.136   6.401 -0.8950  0.0962  0.2087
    3MOL0     H  378  -1.725   2.876   7.072 -0.9143 -0.8318 -0.4101
    3MOL0     H  379  -1.492   2.813   7.089  0.1901  2.2610  0.3452
    3MOL0     H  380  -1.038   2.812   6.824 -0.8838 -0.4461  0.5307
    3MOL0     H  381  -0.813   2.780   6.861 -3.4608  2.9490 -3.0632
    3MOL0     H  382   1.157   2.803   7.386 -2.1722 -1.3714  1.5813
    3MOL0     H  383   1.352   2.658   7.376 -0.0568 -0.8602 -0.6130
    3MOL0     H  384   1.665   2.404   7.180 -0.6181  0.9865  2.1607
    3MOL0     H  385   1.853   2.272   7.235 -0.7038  0.5296  0.9838
    3MOL0     H  386   1.956   2.167   7.405  1.5745 -0.7565  1.7980
    3MOL0     H  387   2.028   2.080   7.278  0.5213 -1.0942 -0.4356
    3MOL0     H  388   2.153   2.009   7.457 -0.1422 -1.8309  1.2975
    3MOL0     H  389   2.012   2.022   7.576 -0.9689  0.6864  0.3851
    3MOL0     H  390   2.050   1.831   7.348  2.0723  6.7020 -1.1263
    3MOL0     H  391   1.917   1.820   7.471  0.4936 -0.6898  1.6186
    3MOL0     H  392   2.100   1.774   7.635  1.8210  1.7663 -0.5003
    3MOL0     H  393   2.052   1.651   7.514 -3.3259  1.6678 -0.1022
    3MOL0     H  394   2.458   1.725   7.413  0.7336 -0.1841  1.4254
    3MOL0     H  395   1.600   1.944   7.320 -2.4062  0.8823 -1.3570
    3MOL0     H  396   1.404   2.066   7.240  0.2853 -1.7657 -0.3075
    4MOL0     O  397   5.584   4.819   2.465 -0.2982  0.2131 -0.5078
    4MOL0     C  398   5.629   4.891   2.558  0.2901  0.0103  0.7276
    4MOL0     O  399   5.607   4.872   2.691  0.7864  0.4618  0.4845
    4MOL0     C  400   5.519   4.768   2.713 -0.6512 -0.3576  0.5412
    4MOL0     C  401   5.380   4.790   2.739 -0.3549  0.0698 -0.9214
    4MOL0     C  402   5.296   4.686   2.762  0.3798  0.3106  0.4472
    4MOL0     C  403   5.331   4.553   2.759 -0.3470 -0.0305  0.3949
    4MOL0     O  404   5.240   4.460   2.803 -0.8521  0.0515 -0.0879
    4MOL0     C  405   5.277   4.325   2.796  0.1855 -0.0788 -0.9427
    4MOL0     C  406   5.157   4.244   2.854 -0.1960 -0.2707  0.0094
    4MOL0     C  407   5.035   4.243   2.759 -0.5584  0.0903 -0.5834
    4MOL0     C  408   4.911   4.203   2.846 -0.0248  0.0907  0.3600
    4MOL0     C  409   4.794   4.153   2.760 -0.5222  0.4757  0.2856
    4MOL0     C  410   4.664   4.173   2.829  0.2774  0.0284 -0.1015
    4MOL0     C  411   4.567   4.077   2.771 -0.4827 -0.1595  0.0653
    4MOL0     C  412   4.426   4.096   2.822  0.0145  0.3738 -0.8994
    4MOL0     N  413   4.385   4.238   2.824 -0.0720  0.4352  0.3058
    4MOL0     C  414   4.327   4.297   2.723 -0.4563  0.1642  0.0953
    4MOL0     C  415   4.275   4.411   2.780 -0.7419 -0.0961 -0.3610
    4MOL0     C  416   4.215   4.522   2.704 -0.2257 -0.5020  0.0933
    4MOL0     C  417   4.088   4.562   2.775 -0.0212 -0.8361  0.2841
    4MOL0     C  418   3.988   4.452   2.797  0.2986 -0.3160 -0.0120
    4MOL0     C  419   3.933   4.397   2.671  0.8163  0.2525  0.6711
    4MOL0     O  420   3.840   4.293   2.681  0.2821  0.6102  0.0482
    4MOL0     C  421   3.714   4.317   2.719  0.4914 -0.2742 -0.2323
    4MOL0     C  422   3.650   4.446   2.718 -0.0193  0.3387  0.2386
    4MOL0     C  423   3.519   4.448   2.764 -0.4418 -0.6120 -0.5582
    4MOL0     C  424   3.444   4.339   2.803 -0.3609  0.6237 -0.2032
    4MOL0     C  425   3.314   4.345   2.869 -0.2852 -0.0378  0.6837
    4MOL0     O  426   3.248   4.228   2.908 -0.1286  0.4665 -0.1124
    4MOL0     C  427   3.111   4.233   2.923 -0.6092 -0.6589 -0.8579
    4MOL0     C  428   3.024   4.203   2.818  0.0653 -0.7777  0.1887
    4MOL0     C  429   2.885   4.209   2.834 -0.6692  0.3162  0.1517
    4MOL0     C  430   2.832   4.253   2.955 -0.0116 -0.0488  0.3262
    4MOL0     O  431   2.694   4.263   2.962 -0.1538  0.0743 -0.0231
    4MOL0     C  432   2.649   4.336   3.076  0.1522  0.3268  0.2181
    4MOL0     C  433   2.497   4.328   3.086  0.3242  0.6390 -0.0373
    4MOL0     C  434   2.442   4.202   3.157  0.2047 -0.0920  0.4309
    4MOL0     C  435   2.284   4.213   3.169 -0.2599 -0.2055 -0.4022
    4MOL0     C  436   2.227   4.092   3.236 -0.1530  0.2024 -0.7621
    4MOL0     C  437   2.072   4.087   3.255 -0.2152 -0.1940  0.9719
    4MOL0     C  438   2.030   3.970   3.333  0.4348 -0.2331 -0.3726
    4MOL0     C  439   2.015   3.858   3.229 -0.0994  0.6379 -0.6941
    4MOL0    Cl  440   1.965   3.703   3.309  0.1092 -0.7860 -0.2153
    4MOL0     C  441   2.921   4.270   3.063  0.1040 -0.0669 -0.0251
    4MOL0     C  442   3.059   4.267   3.048  0.4568  0.7355 -1.1651
    4MOL0     O  443   3.266   4.457   2.877  0.3610  0.4582  0.7922
    4MOL0     C  444   3.515   4.214   2.797  0.9855  0.2506 -0.6085
    4MOL0     C  445   3.650   4.206   2.758  1.0840 -0.4504 -0.2458
    4MOL0     N  446   4.305   4.421   2.912  0.1237 -0.4580  0.5744
    4MOL0     N  447   4.377   4.313   2.941 -0.4182  0.3166 -0.2538
    4MOL0     C  448   5.473   4.530   2.741  0.0256  0.5993  0.1265
    4MOL0     C  449   5.567   4.638   2.716 -0.5234 -0.0594  0.5679
    4MOL0     C  450   5.719   5.010   2.533 -0.1894  0.7784 -0.7229
    4MOL0     C  451   5.781   5.026   2.408 -0.4092 -0.1223  0.2389
    4MOL0     C  452   5.884   5.113   2.392 -0.4725 -0.8572 -0.5569
    4MOL0     C  453   5.908   5.207   2.486 -0.0792  0.2771 -0.4695
    4MOL0     O  454   5.999   5.312   2.461  0.1768  0.5161  0.1092
    4MOL0     C  455   6.049   5.338   2.326  0.3147 -0.6828 -0.0145
    4MOL0     C  456   6.105   5.483   2.317 -0.8442  0.0582 -0.1320
    4MOL0     C  457   6.213   5.501   2.210 -0.3992  0.2227  0.6453
    4MOL0     C  458   6.270   5.645   2.207 -0.1604  0.1665 -0.0495
    4MOL0     C  459   6.326   5.677   2.079 -0.8393  0.0483  0.9661
    4MOL0     C  460   6.373   5.713   1.974  0.1639 -0.0610  0.4495
    4MOL0     C  461   5.841   5.208   2.605  0.2087  0.0991 -0.4106
    4MOL0     C  462   5.752   5.108   2.627  1.0769 -0.5255 -0.1533
    4MOL0     H  463   5.337   4.889   2.747 -2.0467 -0.7631  1.9536
    4MOL0     H  464   5.189   4.705   2.759 -0.3123 -3.0916 -1.2531
    4MOL0     H  465   5.366   4.299   2.853 -0.7810 -0.3954  0.4752
    4MOL0     H  466   5.287   4.299   2.690 -1.7067  1.0776 -1.4574
    4MOL0     H  467   5.139   4.283   2.955 -2.0147 -2.4870  0.5943
    4MOL0     H  468   5.193   4.142   2.866  1.4251  0.3767  1.0701
    4MOL0     H  469   5.033   4.164   2.683 -0.3474 -0.5437  0.0595
    4MOL0     H  470   5.023   4.330   2.693 -0.3741 -0.5535 -1.4921
    4MOL0     H  471   4.939   4.116   2.907 -0.6755 -0.3903 -0.0117
    4MOL0     H  472   4.888   4.293   2.903  2.0673  1.0395 -0.1876
    4MOL0     H  473   4.807   4.049   2.730 -0.3836  1.1359 -2.1376
    4MOL0     H  474   4.799   4.207   2.665 -2.2233  1.6772  0.8287
    4MOL0     H  475   4.622   4.273   2.812 -2.6069 -1.1868 -0.7120
    4MOL0     H  476   4.684   4.161   2.936  0.8372  0.9321 -0.0928
    4MOL0     H  477   4.567   4.079   2.661  1.3599 -2.0657 -0.0494
    4MOL0     H  478   4.600   3.977   2.802  0.5913  0.2652  0.3540
    4MOL0     H  479   4.429   4.063   2.926  3.8031  1.2127 -0.5848
    4MOL0     H  480   4.350   4.040   2.767 -1.0545  0.5554  0.3517
    4MOL0     H  481   4.303   4.283   2.618 -2.4180 -1.0943  0.6571
    4MOL0     H  482   4.198   4.495   2.600 -2.8484 -1.7848  0.7790
    4MOL0     H  483   4.287   4.604   2.696  0.5654 -1.3771 -3.7465
    4MOL0     H  484   4.040   4.643   2.719 -2.0837 -1.9341  0.3712
    4MOL0     H  485   4.098   4.601   2.877 -2.0767  0.9890 -0.1205
    4MOL0     H  486   4.033   4.373   2.858 -0.2597 -0.1111  0.6839
    4MOL0     H  487   3.903   4.498   2.848 -0.0268 -0.4307 -0.4450
    4MOL0     H  488   4.022   4.353   2.625  1.6290  2.0845  0.4079
    4MOL0     H  489   3.900   4.475   2.602  2.5634 -1.3324 -2.1425
    4MOL0     H  490   3.696   4.538   2.685  2.9218 -1.0332  0.2074
    4MOL0     H  491   3.490   4.551   2.777 -1.6599 -0.8943 -0.9666
    4MOL0     H  492   3.056   4.163   2.722 -0.3689 -2.8500  0.8721
    4MOL0     H  493   2.817   4.189   2.752 -1.3301 -0.7224  0.9214
    4MOL0     H  494   2.690   4.438   3.075  0.5064  0.1871  0.2152
    4MOL0     H  495   2.687   4.292   3.169  0.7225  0.6616  0.1519
    4MOL0     H  496   2.444   4.339   2.992 -3.2867 -1.1970  1.5974
    4MOL0     H  497   2.463   4.412   3.148  2.6550  1.7868 -0.1994
    4MOL0     H  498   2.488   4.202   3.256 -0.1415  1.6116  0.6237
    4MOL0     H  499   2.463   4.103   3.114 -1.2400 -1.2990  2.3397
    4MOL0     H  500   2.251   4.300   3.228  1.4361 -0.6864  1.3641
    4MOL0     H  501   2.257   4.229   3.065  3.8299  1.4751 -1.4005
    4MOL0     H  502   2.278   4.102   3.332  0.9055  0.4028 -1.3171
    4MOL0     H  503   2.262   3.998   3.194 -2.3107 -0.1179 -1.9625
    4MOL0     H  504   2.016   4.099   3.162  0.8129 -0.1153  0.3501
    4MOL0     H  505   2.049   4.172   3.320 -1.6613 -1.1969  1.8573
    4MOL0     H  506   2.104   3.939   3.407  2.0772  2.2192 -0.9029
    4MOL0     H  507   1.935   3.996   3.380  0.7789  2.5143 -1.0806
    4MOL0     H  508   2.117   3.835   3.196  0.0143  0.4926 -0.2532
    4MOL0     H  509   1.950   3.883   3.145  0.3913  2.9061 -0.4775
    4MOL0     H  510   2.894   4.282   3.168 -0.7364 -0.9475 -0.1255
    4MOL0     H  511   3.120   4.274   3.137 -0.7323  0.0329 -0.2599
    4MOL0     H  512   3.464   4.121   2.820  2.3683 -0.7863 -1.5288
    4MOL0     H  513   3.707   4.115   2.759  1.7471 -0.1145 -2.5555
    4MOL0     H  514   5.516   4.430   2.736  1.2658  1.1451 -0.5228
    4MOL0     H  515   5.664   4.605   2.680 -0.5891  0.2533  0.0983
    4MOL0     H  516   5.758   4.965   2.321 -0.0904  1.0238 -0.6688
    4MOL0     H  517   5.926   5.118   2.293  0.0685  0.4166 -0.2815
    4MOL0     H  518   5.974   5.329   2.247 -0.0656  1.1519  0.0985
    4MOL0     H  519   6.127   5.265   2.302  1.1239 -0.8301  2.7695
    4MOL0     H  520   6.024   5.554   2.298 -0.4804  0.7630  0.8249
    4MOL0     H  521   6.143   5.519   2.414 -2.1665  3.7984 -0.8343
    4MOL0     H  522   6.171   5.484   2.110 -0.0662 -1.6221  0.7933
    4MOL0     H  523   6.294   5.434   2.241  0.3517  0.5014 -0.6409
    4MOL0     H  524   6.189   5.717   2.221  1.0899  1.9171 -1.3499
    4MOL0     H  525   6.348   5.671   2.279  0.9993 -0.7769 -0.9214
    4MOL0     H  526   6.426   5.734   1.883  1.8144  0.0399  1.4007
    4MOL0     H  527   5.856   5.286   2.678  0.7859  1.0154 -1.4847
    4MOL0     H  528   5.703   5.099   2.723  0.4446  0.2233 -0.3947
    5MOL0     O  529   7.981   4.970   9.271  0.0852  0.0058 -0.3775
    5MOL0     C  530   8.022   5.087   9.246 -0.0443 -0.0140  0.0437
    5MOL0     O  531   8.157   5.115   9.234  0.1511  0.5164  0.9805
    5MOL0     C  532   8.261   5.034   9.280  1.2041 -0.5105 -0.2731
    5MOL0     C  533   8.273   4.904   9.331  0.3455  0.4286  0.3549
    5MOL0     C  534   8.395   4.850   9.374  0.4170  0.1605  0.0327
    5MOL0     C  535   8.511   4.924   9.370  0.0893 -0.3796  0.3555
    5MOL0     O  536   8.621   4.871   9.428 -0.1074  0.1796 -0.1008
    5MOL0     C  537   8.744   4.900   9.353  0.7990 -0.5041  0.2009
    5MOL0     C  538   8.861   4.798   9.384 -0.2640  0.6839 -0.2368
    5MOL0     C  539   8.961   4.815   9.265  0.7585 -0.5600  0.2169
    5MOL0     C  540   9.070   4.719   9.264  0.0525 -0.0467 -0.9769
    5MOL0     C  541   9.150   4.735   9.135 -0.0233 -0.6294 -0.4607
    5MOL0     C  542   9.273   4.643   9.145  0.5781  0.5217  0.0534
    5MOL0     C  543   9.357   4.670   9.018  0.2866 -0.0678 -0.1878
    5MOL0     C  544   9.503   4.610   9.028 -0.0759  0.6834 -0.0669
    5MOL0     N  545   9.509   4.465   9.068 -0.1605  0.1982  0.3730
    5MOL0     C  546   9.498   4.408   9.186  0.0960  0.4232 -0.2096
    5MOL0     C  547   9.489   4.272   9.167 -0.5884  0.0746  0.1806
    5MOL0     C  548   9.492   4.170   9.270  0.4874  0.4148 -0.6990
    5MOL0     C  549   9.505   4.035   9.193 -0.5181 -0.4096 -0.2699
    5MOL0     C  550   9.538   3.916   9.295  0.5553 -0.5179  0.8115
    5MOL0     C  551   9.565   3.776   9.230 -0.0924 -0.0876  0.0823
    5MOL0     O  552   9.478   3.758   9.119 -0.3751  0.8960 -0.2489
    5MOL0     C  553   9.345   3.730   9.142  0.3641 -0.4563 -0.4038
    5MOL0     C  554   9.281   3.715   9.265 -0.5918 -0.5814  0.3629
    5MOL0     C  555   9.145   3.692   9.281 -0.1404  0.9086 -0.0960
    5MOL0     C  556   9.065   3.694   9.163  0.1084  0.0666 -0.3503
    5MOL0     C  557   8.917   3.683   9.181  0.2209  0.0837 -0.1667
    5MOL0     O  558   8.872   3.715   9.304 -0.1438  0.0450 -0.6290
    5MOL0     C  559   8.739   3.709   9.345 -0.3780 -0.2059 -0.1544
    5MOL0     C  560   8.623   3.716   9.262 -0.5373  0.3748  0.2313
    5MOL0     C  561   8.492   3.736   9.315 -0.5110  1.8401  0.2446
    5MOL0     C  562   8.472   3.723   9.455  0.1081  0.5964 -0.1817
    5MOL0     O  563   8.351   3.733   9.515 -0.3658 -0.5277 -0.1990
    5MOL0     C  564   8.240   3.664   9.451  0.7965 -0.0655  0.5859
    5MOL0     C  565   8.113   3.680   9.528  0.1289 -0.8971 -0.1052
    5MOL0     C  566   7.995   3.601   9.464 -0.0521 -0.9522 -0.0539
    5MOL0     C  567   7.877   3.619   9.562  0.0618  0.6980  0.8754
    5MOL0     C  568   7.777   3.508   9.541 -0.0740  0.5421  0.4593
    5MOL0     C  569   7.642   3.538   9.615  0.5610  0.6394 -0.0378
    5MOL0     C  570   7.573   3.406   9.666 -0.5564  0.9722  0.3843
    5MOL0     C  571   7.430   3.401   9.633  0.6583  0.0363  0.6213
    5MOL0    Cl  572   7.348   3.253   9.677  0.2133 -0.3231  0.2255
    5MOL0     C  573   8.587   3.701   9.531 -0.1839  0.0276  0.0036
    5MOL0     C  574   8.721   3.699   9.486  0.3578  0.5224 -0.7361
    5MOL0     O  575   8.855   3.628   9.082  0.1288  0.1265 -0.0927
    5MOL0     C  576   9.127   3.703   9.043  0.2373  0.2028 -0.0952
    5MOL0     C  577   9.266   3.716   9.027  0.1771 -0.1143  0.2804
    5MOL0     N  578   9.469   4.251   9.031 -0.5352  0.5246 -0.1497
    5MOL0     N  579   9.493   4.369   8.973  0.8729 -0.1868  0.2983
    5MOL0     C  580   8.505   5.049   9.304  0.4215  0.0685 -0.1743
    5MOL0     C  581   8.377   5.106   9.264 -0.4396 -0.0110  0.4553
    5MOL0     C  582   7.920   5.195   9.230 -0.5209 -0.1617 -0.6221
    5MOL0     C  583   7.962   5.326   9.205  0.7406 -0.1835 -0.7253
    5MOL0     C  584   7.874   5.434   9.206 -0.2447 -0.7251 -0.8217
    5MOL0     C  585   7.738   5.410   9.241  0.4061  0.4805 -0.0504
    5MOL0     O  586   7.650   5.518   9.229 -0.8576  0.4900 -0.4748
    5MOL0     C  587   7.518   5.486   9.213 -0.1418 -0.2340  0.4334
    5MOL0     C  588   7.458   5.612   9.143 -0.0142  0.5422 -0.2100
    5MOL0     C  589   7.317   5.640   9.194  0.3120  0.5638 -0.1043
    5MOL0     C  590   7.251   5.772   9.150  0.0096  0.0203 -0.1771
    5MOL0     C  591   7.237   5.772   9.011 -0.0784  0.5364  0.4333
    5MOL0     C  592   7.225   5.789   8.886 -0.7464 -0.0106  0.4253
    5MOL0     C  593   7.694   5.280   9.260  1.0380 -0.0777  0.4544
    5MOL0     C  594   7.784   5.171   9.255  0.0890 -0.3328 -0.3386
    5MOL0     H  595   8.187   4.838   9.325 -1.5116  2.5542  1.6260
    5MOL0     H  596   8.408   4.752   9.420  1.2090  0.1023 -0.2903
    5MOL0     H  597   8.779   4.999   9.383 -1.0331  0.6353 -1.2054
    5MOL0     H  598   8.724   4.910   9.246  0.1585  0.4858  0.4057
    5MOL0     H  599   8.827   4.694   9.387  0.0803  0.5624 -0.5353
    5MOL0     H  600   8.906   4.825   9.480 -2.0733  0.2866  0.7574
    5MOL0     H  601   9.003   4.914   9.285  1.0840 -0.6364 -0.0773
    5MOL0     H  602   8.908   4.814   9.170  3.5668 -2.5297 -1.4705
    5MOL0     H  603   9.145   4.754   9.335  0.1540 -1.4860 -0.3352
    5MOL0     H  604   9.035   4.617   9.283 -3.2116  0.6286 -2.7495
    5MOL0     H  605   9.185   4.838   9.126 -0.6916 -0.3327  0.2230
    5MOL0     H  606   9.088   4.704   9.051 -2.5419 -0.5551  1.2534
    5MOL0     H  607   9.234   4.541   9.133 -2.9016  1.7885 -0.6364
    5MOL0     H  608   9.324   4.650   9.241 -1.0864 -2.5090  1.3208
    5MOL0     H  609   9.301   4.635   8.930 -1.0463 -0.3164  0.7331
    5MOL0     H  610   9.371   4.777   9.005 -1.1145 -0.0378 -1.8783
    5MOL0     H  611   9.567   4.666   9.097  0.1726  0.1065  0.1781
    5MOL0     H  612   9.535   4.620   8.924  0.6384 -3.7556 -0.4798
    5MOL0     H  613   9.508   4.460   9.281 -1.0194  3.7742 -1.7746
    5MOL0     H  614   9.401   4.173   9.331  1.7937 -0.2968  1.3702
    5MOL0     H  615   9.581   4.181   9.333  1.2873 -0.6193 -1.6005
    5MOL0     H  616   9.587   4.036   9.120 -1.7522 -1.9413 -1.7334
    5MOL0     H  617   9.414   4.012   9.137 -0.4149  2.3173 -1.7252
    5MOL0     H  618   9.626   3.944   9.354 -0.3129  2.6104  0.8112
    5MOL0     H  619   9.455   3.911   9.367  1.3167  2.4328  2.0473
    5MOL0     H  620   9.558   3.699   9.307  1.3017 -1.7552 -1.3509
    5MOL0     H  621   9.668   3.767   9.192 -1.1574 -1.9968 -2.6653
    5MOL0     H  622   9.344   3.713   9.354 -1.4720  0.2486  1.0262
    5MOL0     H  623   9.114   3.678   9.384  0.0738  0.8466 -0.0393
    5MOL0     H  624   8.628   3.752   9.160 -1.2766  3.3728  1.1639
    5MOL0     H  625   8.408   3.751   9.247 -0.0426  0.2300 -0.7321
    5MOL0     H  626   8.266   3.558   9.453 -2.1085 -0.8454  1.0274
    5MOL0     H  627   8.228   3.684   9.344  1.3305  0.6934  0.6615
    5MOL0     H  628   8.092   3.787   9.539  1.7059 -0.6324  0.7296
    5MOL0     H  629   8.129   3.654   9.633 -0.2672  0.1811  0.2357
    5MOL0     H  630   8.018   3.497   9.440  4.8234 -0.2670  0.6287
    5MOL0     H  631   7.994   3.656   9.369  0.1417  2.6739  1.8375
    5MOL0     H  632   7.916   3.622   9.664 -0.1928  2.1085  0.9531
    5MOL0     H  633   7.829   3.714   9.540 -2.2638 -0.7093 -0.5951
    5MOL0     H  634   7.814   3.410   9.573 -1.5034  0.8966  3.5252
    5MOL0     H  635   7.768   3.498   9.432  0.7568 -1.3149  0.5244
    5MOL0     H  636   7.567   3.580   9.546 -0.8265 -0.0670  0.9902
    5MOL0     H  637   7.650   3.611   9.695  1.0712  1.7036 -1.0276
    5MOL0     H  638   7.625   3.314   9.636  3.7242  3.2131  0.1030
    5MOL0     H  639   7.574   3.414   9.775  0.1156  0.4386  0.4280
    5MOL0     H  640   7.415   3.417   9.526 -0.9311  2.0486  1.0849
    5MOL0     H  641   7.375   3.470   9.698 -3.1296 -2.8838  0.9012
    5MOL0     H  642   8.567   3.699   9.638  0.6970 -1.0375  0.1596
    5MOL0     H  643   8.804   3.692   9.555 -0.2147  0.2217 -0.0670
    5MOL0     H  644   9.069   3.696   8.951 -0.8347  2.3488  0.3541
    5MOL0     H  645   9.315   3.724   8.931  1.8244  0.2003  1.0981
    5MOL0     H  646   8.594   5.108   9.286  0.2410 -0.7251 -5.1298
    5MOL0     H  647   8.366   5.208   9.229 -3.4215 -0.5162 -0.3260
    5MOL0     H  648   8.066   5.355   9.191  1.4414 -3.0812 -2.2667
    5MOL0     H  649   7.923   5.530   9.195  1.4254 -1.0202  2.6346
    5MOL0     H  650   7.475   5.462   9.311  2.3993 -0.6013  1.5270
    5MOL0     H  651   7.496   5.402   9.146  0.4893 -0.5343  0.5997
    5MOL0     H  652   7.529   5.694   9.163 -2.3533  3.1135 -1.8053
    5MOL0     H  653   7.460   5.593   9.035 -2.1826 -1.7912  0.0758
    5MOL0     H  654   7.324   5.652   9.303  0.6710 -1.4647  0.1418
    5MOL0     H  655   7.244   5.561   9.176  2.2931 -1.8451  1.5711
    5MOL0     H  656   7.151   5.782   9.192 -1.3594  1.8323 -3.4755
    5MOL0     H  657   7.308   5.859   9.184 -0.8358  0.6668 -0.3881
    5MOL0     H  658   7.236   5.812   8.782  0.3603  2.1674  0.9713
    5MOL0     H  659   7.588   5.263   9.271  0.8281  0.6329 -0.3517
    5MOL0     H  660   7.727   5.080   9.272 -1.7883  0.9859  0.7666
    6MOL0     O  661   5.550   4.504   3.856 -0.0430 -0.3392  0.8383
    6MOL0     C  662   5.526   4.530   3.972 -0.5729 -0.4681  0.3492
    6MOL0     O  663   5.396   4.575   4.013 -0.6624  0.1324  0.5636
    6MOL0     C  664   5.286   4.595   3.932  0.3259  0.0858  0.1165
    6MOL0     C  665   5.285   4.651   3.805  0.1355  0.0623 -0.1477
    6MOL0     C  666   5.159   4.662   3.740 -0.7706 -1.1612 -0.1697
    6MOL0     C  667   5.044   4.614   3.799  0.3497 -0.1587 -0.0058
    6MOL0     O  668   4.920   4.605   3.745 -0.3262 -0.4526  0.7712
    6MOL0     C  669   4.916   4.598   3.599  0.1861  0.4495 -0.2509
    6MOL0     C  670   4.776   4.561   3.561  0.9727 -0.2762  0.1752
    6MOL0     C  671   4.738   4.572   3.411  0.4534 -0.5339  0.2025
    6MOL0     C  672   4.845   4.501   3.326  0.6263  0.2656  0.2362
    6MOL0     C  673   4.802   4.476   3.178 -0.5644 -0.2682  0.0876
    6MOL0     C  674   4.813   4.598   3.084  0.3838  0.4706 -0.7448
    6MOL0     C  675   4.717   4.583   2.965  0.6140 -0.0809  0.7300
    6MOL0     C  676   4.563   4.591   2.987 -0.1175 -0.5112  0.2211
    6MOL0     N  677   4.529   4.709   3.068 -0.4036 -0.4173  0.2854
    6MOL0     C  678   4.450   4.703   3.182 -0.3998 -0.4920  0.3272
    6MOL0     C  679   4.432   4.835   3.205  0.4237  0.1934 -0.1590
    6MOL0     C  680   4.347   4.902   3.312 -0.1188 -0.3952  0.3307
    6MOL0     C  681   4.206   4.834   3.322 -0.4618  0.0835 -0.1252
    6MOL0     C  682   4.108   4.928   3.391  0.2042 -0.3588  0.8245
    6MOL0     C  683   3.962   4.893   3.364  0.6134  1.8009  0.6350
    6MOL0     O  684   3.885   4.928   3.475  0.6907 -0.1377 -0.0847
    6MOL0     C  685   3.748   4.908   3.461 -0.0837 -0.5630  0.1281
    6MOL0     C  686   3.663   4.943   3.572 -0.3246 -0.0680  0.0052
    6MOL0     C  687   3.526   4.920   3.576 -0.3860 -0.0187  0.5209
    6MOL0     C  688   3.465   4.857   3.464 -0.1386 -0.0119 -0.5259
    6MOL0     C  689   3.323   4.814   3.468  0.1206  0.3346  0.3422
    6MOL0     O  690   3.247   4.859   3.576  0.4173  0.2349  0.5616
    6MOL0     C  691   3.127   4.805   3.592 -0.2786  0.6944 -0.2807
    6MOL0     C  692   3.122   4.662   3.602 -0.0221 -0.5086  0.0224
    6MOL0     C  693   2.989   4.605   3.647 -0.0141  0.1689  0.8006
    6MOL0     C  694   2.874   4.680   3.661  0.1781  0.1101  0.6082
    6MOL0     O  695   2.742   4.640   3.686  0.2659  0.3821 -1.2317
    6MOL0     C  696   2.733   4.521   3.780 -0.2160 -0.4310  0.6100
    6MOL0     C  697   2.591   4.510   3.833  0.9044  0.2383  0.5217
    6MOL0     C  698   2.580   4.375   3.921 -0.6091 -0.1954 -0.2795
    6MOL0     C  699   2.442   4.370   3.979 -1.1605  0.5657  0.2507
    6MOL0     C  700   2.409   4.248   4.063  0.1805  0.2953 -0.2275
    6MOL0     C  701   2.257   4.211   4.090 -0.0672 -0.4013 -0.6190
    6MOL0     C  702   2.220   4.058   4.082 -0.2260  0.2125  0.1922
    6MOL0     C  703   2.083   4.039   4.140  0.1928  0.0231  0.5472
    6MOL0    Cl  704   2.097   4.071   4.322 -0.4722 -0.2015  0.3256
    6MOL0     C  705   2.887   4.820   3.640  0.6962 -0.6618  0.3713
    6MOL0     C  706   3.007   4.883   3.607 -0.5250 -0.1025  0.4268
    6MOL0     O  707   3.281   4.740   3.374  0.2931  0.1980 -0.1141
    6MOL0     C  708   3.550   4.822   3.356 -0.1392  1.1820 -0.4481
    6MOL0     C  709   3.684   4.855   3.350 -0.3704  0.2713  0.6901
    6MOL0     N  710   4.517   4.911   3.116  0.7351 -0.5569 -1.1305
    6MOL0     N  711   4.576   4.836   3.036  0.2117 -0.3167  0.3927
    6MOL0     C  712   5.044   4.560   3.928  0.3072  0.2854 -0.1692
    6MOL0     C  713   5.165   4.554   3.994 -0.0849  0.5347 -0.4550
    6MOL0     C  714   5.629   4.512   4.076  0.4066 -0.2822 -0.8051
    6MOL0     C  715   5.643   4.605   4.189 -0.9091  0.5625 -0.0287
    6MOL0     C  716   5.745   4.579   4.276 -0.1387  1.0468 -0.8307
    6MOL0     C  717   5.823   4.468   4.268  0.0313  0.3194  0.0407
    6MOL0     O  718   5.909   4.409   4.361  0.2383 -0.5554  0.2255
    6MOL0     C  719   5.930   4.475   4.492 -1.1888 -0.1063  0.3552
    6MOL0     C  720   6.030   4.387   4.576 -0.5058 -0.0512 -0.3023
    6MOL0     C  721   5.965   4.358   4.714 -0.7980  0.4500  0.4158
    6MOL0     C  722   6.052   4.291   4.819  0.4245 -0.5216 -0.0838
    6MOL0     C  723   6.034   4.148   4.813 -0.1988 -1.4995  0.2473
    6MOL0     C  724   6.005   4.030   4.814  0.5342 -0.0301 -0.0414
    6MOL0     C  725   5.804   4.380   4.161  0.7539  0.4916  0.5111
    6MOL0     C  726   5.716   4.404   4.059  0.2715 -0.3830 -0.6464
    6MOL0     H  727   5.373   4.689   3.755  0.0943  0.5470  0.1417
    6MOL0     H  728   5.165   4.706   3.641 -1.8057  3.6116  1.5887
    6MOL0     H  729   4.982   4.516   3.568 -0.7426 -0.2441 -0.4489
    6MOL0     H  730   4.948   4.690   3.549  2.3747 -0.7314 -1.1840
    6MOL0     H  731   4.707   4.630   3.609  0.7924  0.9726 -1.7714
    6MOL0     H  732   4.752   4.463   3.605  2.5500 -1.5269 -1.5752
    6MOL0     H  733   4.742   4.674   3.372 -1.9116 -0.6640 -0.5323
    6MOL0     H  734   4.637   4.531   3.397  0.8475 -1.0713 -1.1990
    6MOL0     H  735   4.940   4.555   3.329 -0.1764  1.7155  0.4523
    6MOL0     H  736   4.857   4.400   3.368 -0.4714 -1.3839 -3.0363
    6MOL0     H  737   4.696   4.448   3.179 -0.7691  0.3327 -1.5881
    6MOL0     H  738   4.859   4.390   3.143  3.4134  2.3210 -0.4352
    6MOL0     H  739   4.915   4.621   3.052 -0.7243  0.2155 -5.0479
    6MOL0     H  740   4.778   4.690   3.132 -2.5946  1.2318 -3.9500
    6MOL0     H  741   4.734   4.676   2.910 -1.4111 -0.4240 -0.5933
    6MOL0     H  742   4.741   4.497   2.903 -0.2281 -0.2472  0.6226
    6MOL0     H  743   4.528   4.498   3.032 -1.6774 -0.0150  0.0643
    6MOL0     H  744   4.514   4.591   2.889 -0.6743 -0.2152  0.4932
    6MOL0     H  745   4.410   4.611   3.223  1.8744 -1.8921 -0.4280
    6MOL0     H  746   4.336   5.005   3.275 -2.7738 -0.9110 -0.5925
    6MOL0     H  747   4.391   4.911   3.411 -2.0509  0.1014  1.2052
    6MOL0     H  748   4.222   4.752   3.393  1.3581  0.8411  0.3822
    6MOL0     H  749   4.171   4.804   3.222  1.6450  0.1642 -0.9447
    6MOL0     H  750   4.131   4.936   3.498 -1.2485 -0.4170  1.1603
    6MOL0     H  751   4.126   5.030   3.354  0.7755 -0.4890  0.7340
    6MOL0     H  752   3.955   4.786   3.341 -0.2943  1.7227  1.2136
    6MOL0     H  753   3.927   4.948   3.277  1.8591 -0.3644 -1.3342
    6MOL0     H  754   3.709   4.986   3.661 -3.7308  2.5370  0.7047
    6MOL0     H  755   3.480   4.940   3.672 -1.3835 -1.1744  0.3041
    6MOL0     H  756   3.208   4.595   3.597  1.3899  1.1774  0.4553
    6MOL0     H  757   2.987   4.498   3.663  0.5619  0.0819  0.3169
    6MOL0     H  758   2.804   4.534   3.862 -0.5990 -0.2780  0.9228
    6MOL0     H  759   2.759   4.425   3.734 -0.6701 -0.6469  0.7918
    6MOL0     H  760   2.521   4.499   3.750 -0.8111  3.4110  1.3798
    6MOL0     H  761   2.561   4.594   3.897 -0.2479 -2.0842  3.2748
    6MOL0     H  762   2.652   4.382   4.003 -0.7348  0.3135 -0.2039
    6MOL0     H  763   2.608   4.280   3.875  0.7382  0.6853 -1.3515
    6MOL0     H  764   2.421   4.456   4.043 -2.4439 -0.9752  2.0211
    6MOL0     H  765   2.383   4.374   3.887  1.4435  2.0951 -1.4729
    6MOL0     H  766   2.479   4.260   4.146  3.2894  0.5091 -2.6804
    6MOL0     H  767   2.449   4.155   4.021 -1.0156 -1.2457  1.8469
    6MOL0     H  768   2.192   4.256   4.014 -1.0544  1.7357  1.3996
    6MOL0     H  769   2.242   4.250   4.191  1.4495 -3.9921  1.1847
    6MOL0     H  770   2.221   4.026   3.978 -0.6527  0.6798  0.0387
    6MOL0     H  771   2.285   3.989   4.137 -0.3896 -1.0969 -1.1952
    6MOL0     H  772   2.053   3.934   4.126 -2.2397  0.7607 -0.1342
    6MOL0     H  773   2.008   4.104   4.095 -1.6303 -1.0738  1.8408
    6MOL0     H  774   2.794   4.876   3.650  1.9393  1.7546 -0.8376
    6MOL0     H  775   3.029   4.989   3.598  1.3564 -0.3356  1.7886
    6MOL0     H  776   3.502   4.766   3.277  0.2815 -3.0472  2.0304
    6MOL0     H  777   3.741   4.832   3.261 -1.0939 -0.8836  0.4969
    6MOL0     H  778   4.952   4.527   3.975 -0.9906  3.4802 -0.2769
    6MOL0     H  779   5.172   4.524   4.098  2.3931  0.0708 -0.6901
    6MOL0     H  780   5.575   4.689   4.202 -2.4442 -0.9453  2.2074
    6MOL0     H  781   5.768   4.647   4.357  0.3434 -1.7731  1.6033
    6MOL0     H  782   5.833   4.484   4.542 -0.6888  2.1279  0.9994
    6MOL0     H  783   5.974   4.575   4.489 -1.2399 -0.0467  1.3776
    6MOL0     H  784   6.062   4.296   4.525  0.5806 -0.0726  0.3841
    6MOL0     H  785   6.125   4.438   4.598  0.6393 -1.1896 -2.3232
    6MOL0     H  786   5.868   4.313   4.694 -1.7497  2.5358  0.0898
    6MOL0     H  787   5.944   4.454   4.762  3.9723  1.0602  1.8117
    6MOL0     H  788   6.155   4.328   4.813 -0.4958  2.0449 -1.1929
    6MOL0     H  789   6.023   4.318   4.921 -0.7737 -1.8964 -0.0332
    6MOL0     H  790   5.962   3.933   4.803  0.2477  0.0321  0.4905
    6MOL0     H  791   5.869   4.293   4.171 -0.8491 -0.8099  0.1208
    6MOL0     H  792   5.714   4.340   3.971 -0.1457 -1.0426 -0.1680
    7MOL0     O  793   6.368   3.923   8.250 -0.1288 -0.0781 -0.3081
    7MOL0     C  794   6.335   4.042   8.244  0.1952 -0.8872  0.2789
    7MOL0     O  795   6.421   4.147   8.234 -0.1896  0.5280  0.1241
    7MOL0     C  796   6.550   4.116   8.220  0.0589  0.4916  0.6560
    7MOL0     C  797   6.625   4.045   8.317  0.3389  0.0195 -0.0567
    7MOL0     C  798   6.759   4.013   8.291  0.6251  0.5629 -0.7497
    7MOL0     C  799   6.821   4.048   8.179  0.0778  0.2716 -0.3624
    7MOL0     O  800   6.950   4.013   8.147  0.8092 -0.3505 -0.1561
    7MOL0     C  801   7.026   3.935   8.235 -0.7487  0.2672  0.3609
    7MOL0     C  802   7.165   3.920   8.168  0.2469  0.7198 -0.4599
    7MOL0     C  803   7.146   3.821   8.052  0.2438  0.8814  0.3524
    7MOL0     C  804   7.270   3.812   7.969  0.1865 -0.5366  0.5264
    7MOL0     C  805   7.260   3.711   7.858  1.1997  0.6187  0.1448
    7MOL0     C  806   7.167   3.759   7.746 -0.6937 -0.5514  0.4187
    7MOL0     C  807   7.186   3.669   7.618  0.1844  0.0304 -0.4882
    7MOL0     C  808   7.121   3.531   7.640 -0.8847  0.3219  0.1648
    7MOL0     N  809   6.974   3.549   7.655 -0.4173 -0.4498  0.4181
    7MOL0     C  810   6.905   3.568   7.768 -0.5479 -1.3667 -0.6175
    7MOL0     C  811   6.783   3.598   7.730 -0.5991 -0.5104 -0.9610
    7MOL0     C  812   6.662   3.636   7.813 -0.1250  0.6682  0.5105
    7MOL0     C  813   6.601   3.514   7.883  0.2103  0.3594 -0.7372
    7MOL0     C  814   6.521   3.423   7.790  0.2518 -0.0010 -0.5578
    7MOL0     C  815   6.474   3.292   7.859  0.4917  0.6374 -0.3666
    7MOL0     O  816   6.351   3.309   7.925 -0.3601 -0.9613  0.3458
    7MOL0     C  817   6.278   3.205   7.974  0.2527  1.1898  0.0714
    7MOL0     C  818   6.303   3.065   7.958 -0.6047 -0.7506 -0.2080
    7MOL0     C  819   6.216   2.977   8.007 -0.1517  0.0358  0.4010
    7MOL0     C  820   6.094   3.018   8.068  0.3184  0.1516  1.0392
    7MOL0     C  821   5.992   2.916   8.109  0.5154  0.2904 -0.8314
    7MOL0     O  822   5.875   2.967   8.140  0.0032 -0.2407 -0.2021
    7MOL0     C  823   5.767   2.885   8.176 -1.0023  0.1637  0.4487
    7MOL0     C  824   5.643   2.906   8.115 -0.2413  0.0833 -0.4342
    7MOL0     C  825   5.528   2.846   8.162  0.4549 -0.0852 -0.2089
    7MOL0     C  826   5.531   2.763   8.273 -0.1876  1.0988  0.4328
    7MOL0     O  827   5.421   2.695   8.320 -0.2257  0.4233 -0.0954
    7MOL0     C  828   5.295   2.704   8.258 -0.0316  0.4063  0.3951
    7MOL0     C  829   5.192   2.638   8.336 -0.4831  0.1761  0.1271
    7MOL0     C  830   5.075   2.628   8.247  0.8596 -0.6926 -0.4771
    7MOL0     C  831   4.955   2.553   8.304  0.0698 -0.0320 -0.6926
    7MOL0     C  832   4.843   2.564   8.201 -0.0049 -0.6180  0.3327
    7MOL0     C  833   4.711   2.505   8.257 -0.4983  0.2213 -0.5469
    7MOL0     C  834   4.712   2.358   8.301  0.6615  0.3111  0.4831
    7MOL0     C  835   4.572   2.302   8.324  0.3874  0.4496  0.0418
    7MOL0    Cl  836   4.507   2.382   8.475  0.5659 -0.1570  0.1023
    7MOL0     C  837   5.653   2.733   8.336  0.7011  0.6585  0.0253
    7MOL0     C  838   5.767   2.792   8.282 -1.0624  0.7050  0.1703
    7MOL0     O  839   6.018   2.800   8.117 -0.5233 -0.0338  0.2502
    7MOL0     C  840   6.076   3.153   8.094 -0.1232  0.6255  0.2833
    7MOL0     C  841   6.170   3.242   8.051 -0.1305 -0.0680 -0.3728
    7MOL0     N  842   6.779   3.602   7.590  0.3976 -0.4853 -0.1286
    7MOL0     N  843   6.890   3.552   7.547  0.2338  0.0441  0.1543
    7MOL0     C  844   6.749   4.127   8.088  0.0426 -0.5651 -0.7761
    7MOL0     C  845   6.616   4.156   8.104  0.1432  0.6020 -0.1972
    7MOL0     C  846   6.197   4.093   8.286  0.9276 -0.0577 -0.3413
    7MOL0     C  847   6.153   4.231   8.298 -0.8535 -0.2660  0.4527
    7MOL0     C  848   6.024   4.270   8.343  0.1649 -0.0552 -0.1829
    7MOL0     C  849   5.921   4.172   8.362 -0.7077 -0.4223  0.1418
    7MOL0     O  850   5.797   4.230   8.391 -0.1785  0.4090  0.9001
    7MOL0     C  851   5.702   4.122   8.430 -0.4010 -0.7176 -0.1380
    7MOL0     C  852   5.585   4.196   8.486  0.7275 -0.7130  0.0712
    7MOL0     C  853   5.516   4.274   8.379  0.4258 -0.0133  0.4670
    7MOL0     C  854   5.396   4.363   8.421 -0.6793  0.3218  0.1704
    7MOL0     C  855   5.311   4.416   8.319  0.1973  0.2363  0.1012
    7MOL0     C  856   5.243   4.466   8.228 -0.0823  0.1532  1.1488
    7MOL0     C  857   5.955   4.037   8.347 -0.5298  0.2144  0.3743
    7MOL0     C  858   6.089   4.005   8.317 -0.1235 -0.1036  0.9215
    7MOL0     H  859   6.580   4.020   8.412  1.3551 -0.0860  0.4064
    7MOL0     H  860   6.811   3.966   8.374 -2.5488  2.7252  2.8415
    7MOL0     H  861   6.984   3.842   8.274  1.1857 -0.0396  1.8589
    7MOL0     H  862   7.047   3.998   8.321 -1.0273 -4.2794  4.1620
    7MOL0     H  863   7.240   3.873   8.231  0.0042  0.4036 -0.4058
    7MOL0     H  864   7.210   4.015   8.139  1.9764  0.4032  1.0529
    7MOL0     H  865   7.066   3.843   7.980 -1.4809  1.3594  2.3111
    7MOL0     H  866   7.129   3.720   8.091 -0.8788  0.7075 -0.5126
    7MOL0     H  867   7.292   3.912   7.929 -2.0208  0.4911  1.6925
    7MOL0     H  868   7.360   3.790   8.027  1.0643  2.3106  0.4126
    7MOL0     H  869   7.226   3.614   7.894  2.0681  0.5162  0.7265
    7MOL0     H  870   7.353   3.699   7.800 -0.0196 -2.6177 -1.4140
    7MOL0     H  871   7.209   3.858   7.725  2.3505 -1.3177  2.1678
    7MOL0     H  872   7.065   3.768   7.782 -0.9911 -2.0264 -0.0012
    7MOL0     H  873   7.146   3.716   7.527 -1.3178 -2.0047 -0.9648
    7MOL0     H  874   7.291   3.645   7.604  0.8116 -0.0272  3.2479
    7MOL0     H  875   7.158   3.484   7.732 -2.3630  0.8938  1.0802
    7MOL0     H  876   7.145   3.468   7.553  1.0632  1.8169 -0.4588
    7MOL0     H  877   6.949   3.554   7.866  0.3008  1.6674 -0.4731
    7MOL0     H  878   6.588   3.688   7.752  0.6596 -0.0778 -1.1331
    7MOL0     H  879   6.688   3.708   7.891  1.4758  1.4423 -0.6610
    7MOL0     H  880   6.536   3.555   7.962  0.4158  2.2668 -1.4970
    7MOL0     H  881   6.679   3.458   7.934  1.0531  1.8902 -0.2829
    7MOL0     H  882   6.434   3.470   7.743 -1.9642 -3.0020  0.1891
    7MOL0     H  883   6.589   3.384   7.714  4.1242 -2.7835  3.8201
    7MOL0     H  884   6.548   3.261   7.934 -0.9498  2.4259  1.9477
    7MOL0     H  885   6.451   3.211   7.790 -1.2357 -0.5008  1.4134
    7MOL0     H  886   6.382   3.017   7.901 -1.2090 -1.0662 -0.8020
    7MOL0     H  887   6.234   2.871   7.988  1.7210  0.7943 -2.8138
    7MOL0     H  888   5.631   2.951   8.017 -0.6997  2.2939  0.5796
    7MOL0     H  889   5.429   2.856   8.116  0.0756 -1.4235  0.2715
    7MOL0     H  890   5.310   2.656   8.161 -1.9613  0.7360 -0.1055
    7MOL0     H  891   5.263   2.805   8.230  0.4512  0.4898  0.1448
    7MOL0     H  892   5.161   2.684   8.431  0.6452 -2.1808  1.7605
    7MOL0     H  893   5.220   2.535   8.360  2.8454  1.2084  1.2428
    7MOL0     H  894   5.096   2.573   8.154  0.6736 -1.7656  0.0915
    7MOL0     H  895   5.037   2.728   8.224 -1.4407 -1.5157 -0.5826
    7MOL0     H  896   4.979   2.447   8.323 -1.9133 -0.5207 -0.6792
    7MOL0     H  897   4.942   2.587   8.407  0.1993 -2.3051  0.1330
    7MOL0     H  898   4.866   2.521   8.103 -2.5696  0.5864 -0.8960
    7MOL0     H  899   4.826   2.670   8.179  1.1999 -0.8026 -1.8197
    7MOL0     H  900   4.625   2.527   8.194 -1.1211 -1.7093 -0.4239
    7MOL0     H  901   4.681   2.561   8.346  0.3682 -1.5384  0.9176
    7MOL0     H  902   4.745   2.288   8.223 -2.6694 -1.7676  0.7534
    7MOL0     H  903   4.774   2.343   8.390  1.4259 -0.8947 -0.2205
    7MOL0     H  904   4.564   2.196   8.350 -1.2938  0.8222  1.2002
    7MOL0     H  905   4.515   2.325   8.234 -1.3222  0.1969  1.0197
    7MOL0     H  906   5.663   2.663   8.419 -1.5707 -0.5687 -0.6384
    7MOL0     H  907   5.859   2.772   8.335 -0.9237 -1.5186 -0.8174
    7MOL0     H  908   5.983   3.183   8.142 -0.6292 -0.7885  0.2491
    7MOL0     H  909   6.136   3.341   8.078 -0.9816 -0.4944  0.1543
    7MOL0     H  910   6.790   4.163   7.994  0.7472  1.8295  0.3698
    7MOL0     H  911   6.552   4.194   8.025 -1.8132 -0.1015  1.0027
    7MOL0     H  912   6.219   4.317   8.288  1.0489 -0.6483  6.3471
    7MOL0     H  913   6.005   4.375   8.364 -0.6668 -0.1078 -0.6539
    7MOL0     H  914   5.739   4.068   8.518  1.4621  1.5646  0.5967
    7MOL0     H  915   5.681   4.059   8.344  2.5340  1.4007 -2.6285
    7MOL0     H  916   5.518   4.127   8.538 -0.5528  1.1855  1.0878
    7MOL0     H  917   5.628   4.271   8.553  2.8984  0.4658 -2.4682
    7MOL0     H  918   5.488   4.211   8.294 -1.1263  1.1062  0.0977
    7MOL0     H  919   5.589   4.346   8.342 -0.4526  1.1686  0.9703
    7MOL0     H  920   5.326   4.309   8.486  2.3588 -0.0934  3.4121
    7MOL0     H  921   5.440   4.448   8.474 -1.3693  1.1662 -0.5736
    7MOL0     H  922   5.170   4.501   8.158 -1.0539  0.3844  2.2359
    7MOL0     H  923   5.879   3.960   8.349  0.9665 -1.3140  3.0145
    7MOL0     H  924   6.110   3.899   8.305  1.8696  0.5262 -2.6185
    8MOL0     O  925   5.002  10.849   1.964  0.5559 -0.2310 -0.3897
    8MOL0     C  926   4.973  10.741   1.913 -0.7622  0.2939 -0.9709
    8MOL0     O  927   4.885  10.650   1.962 -0.1905 -0.9824  0.9056
    8MOL0     C  928   4.797  10.693   2.062  0.4084 -1.1043 -0.1383
    8MOL0     C  929   4.817  10.666   2.200 -0.2793 -0.5233  0.3096
    8MOL0     C  930   4.730  10.716   2.306 -0.1144 -0.5999  0.5561
    8MOL0     C  931   4.619  10.791   2.269 -0.7796 -0.1141 -0.2773
    8MOL0     O  932   4.529  10.844   2.362  0.0914  0.2165  0.3538
    8MOL0     C  933   4.580  10.854   2.496  0.5252  0.0355  0.0142
    8MOL0     C  934   4.517  10.975   2.574  0.0213  0.3500 -0.0824
    8MOL0     C  935   4.366  10.954   2.598 -0.3934 -0.7004  0.1383
    8MOL0     C  936   4.290  11.066   2.680 -0.3823 -0.1718 -0.2757
    8MOL0     C  937   4.137  11.046   2.687  0.0989 -0.4340 -0.6198
    8MOL0     C  938   4.082  11.174   2.752 -0.1055  0.3139  0.0324
    8MOL0     C  939   3.928  11.161   2.775 -0.2277 -0.2280 -0.4622
    8MOL0     C  940   3.885  11.301   2.832 -0.0043  0.5191  0.2545
    8MOL0     N  941   3.742  11.301   2.859  0.5350 -0.3445  0.5136
    8MOL0     C  942   3.648  11.405   2.824 -0.0597  0.0641 -0.9056
    8MOL0     C  943   3.529  11.353   2.863  0.1123  0.5053  0.5773
    8MOL0     C  944   3.401  11.428   2.831  0.2919  0.2485  0.9782
    8MOL0     C  945   3.344  11.410   2.687 -0.0900 -0.0352  0.8858
    8MOL0     C  946   3.199  11.465   2.697 -0.0906  0.2474  0.2618
    8MOL0     C  947   3.153  11.478   2.556  0.9269  0.4821  0.5549
    8MOL0     O  948   3.016  11.460   2.549  0.2108  0.1702  0.5042
    8MOL0     C  949   2.926  11.561   2.574 -0.2511  0.2607 -0.4993
    8MOL0     C  950   2.790  11.519   2.574 -0.6774 -0.0554  0.2198
    8MOL0     C  951   2.689  11.605   2.596  0.2686  0.9148 -0.7177
    8MOL0     C  952   2.712  11.734   2.643  0.2732  0.1699  0.5449
    8MOL0     C  953   2.597  11.825   2.678  0.6016  0.2096  0.2198
    8MOL0     O  954   2.505  11.773   2.758  0.5785  0.1258 -0.1086
    8MOL0     C  955   2.373  11.825   2.758 -0.3055 -0.5379 -0.1173
    8MOL0     C  956   2.300  11.841   2.874 -0.8448  0.7840 -0.2150
    8MOL0     C  957   2.175  11.904   2.885  0.1341 -0.2694  0.4270
    8MOL0     C  958   2.114  11.949   2.764 -0.2155  0.6573 -1.6423
    8MOL0     O  959   1.994  12.015   2.753 -0.0257  0.1622 -0.1064
    8MOL0     C  960   1.953  12.085   2.876  0.4893  0.0546  0.2037
    8MOL0     C  961   1.817  12.152   2.866 -0.6069  0.0652  0.2887
    8MOL0     C  962   1.796  12.233   2.996 -0.6928  0.3051 -0.2810
    8MOL0     C  963   1.657  12.302   2.982 -0.1229 -0.0253  0.3074
    8MOL0     C  964   1.639  12.425   3.069 -0.1336 -0.6931 -0.9322
    8MOL0     C  965   1.496  12.485   3.052 -0.0860  0.0905  0.2131
    8MOL0     C  966   1.457  12.593   3.157  0.3002  0.2328 -0.0512
    8MOL0     C  967   1.337  12.674   3.104  0.1171  0.3718 -0.1444
    8MOL0    Cl  968   1.288  12.791   3.227 -0.2937  0.2123 -0.0905
    8MOL0     C  969   2.190  11.924   2.647  0.2503  0.1604  0.1235
    8MOL0     C  970   2.318  11.856   2.636 -0.3167  0.0074 -1.0320
    8MOL0     O  971   2.599  11.945   2.640 -0.4179  0.1720 -0.0608
    8MOL0     C  972   2.843  11.779   2.658 -0.3923  0.2587  0.1820
    8MOL0     C  973   2.951  11.692   2.622 -0.9120  0.9109  0.9245
    8MOL0     N  974   3.552  11.224   2.899 -0.6596 -0.1255  0.1953
    8MOL0     N  975   3.674  11.191   2.893 -0.3954  0.9427 -0.5020
    8MOL0     C  976   4.596  10.817   2.137  0.1645  0.2458 -0.4159
    8MOL0     C  977   4.682  10.767   2.035  0.1930 -0.0405  0.5423
    8MOL0     C  978   5.039  10.727   1.786  0.5342 -0.5657  0.1571
    8MOL0     C  979   4.988  10.624   1.701  0.6543 -0.2985  0.9768
    8MOL0     C  980   5.053  10.587   1.584 -0.5804  0.4839  0.8181
    8MOL0     C  981   5.170  10.653   1.553  0.5210 -0.6031 -0.9671
    8MOL0     O  982   5.254  10.596   1.465 -0.6069  0.5377  0.8800
    8MOL0     C  983   5.388  10.646   1.427  0.2004 -0.8721 -0.1464
    8MOL0     C  984   5.457  10.550   1.339  0.9447  0.1006  0.3635
    8MOL0     C  985   5.605  10.588   1.325  0.0798  0.0647  0.7344
    8MOL0     C  986   5.711  10.519   1.416 -1.2850 -0.2637  0.3211
    8MOL0     C  987   5.716  10.371   1.398  0.4421 -0.1494 -1.3159
    8MOL0     C  988   5.702  10.252   1.415 -1.0363 -0.5143 -0.1560
    8MOL0     C  989   5.198  10.774   1.624 -0.1383 -0.0586 -0.2989
    8MOL0     C  990   5.133  10.817   1.738  0.6491  0.1118 -0.5191
    8MOL0     H  991   4.907  10.612   2.227 -1.5190 -2.1134  1.4055
    8MOL0     H  992   4.755  10.698   2.410 -1.1273  1.0543  1.1235
    8MOL0     H  993   4.688  10.872   2.496  0.1912  2.6839  2.5365
    8MOL0     H  994   4.561  10.768   2.560  2.3387  1.2887  2.4129
    8MOL0     H  995   4.543  11.068   2.524  1.3761 -0.9061 -1.8356
    8MOL0     H  996   4.566  10.985   2.671 -2.6229 -0.4904  1.4599
    8MOL0     H  997   4.351  10.863   2.657 -1.5958 -0.4579  0.2326
    8MOL0     H  998   4.312  10.949   2.503 -0.1330  0.9438 -0.1232
    8MOL0     H  999   4.321  11.061   2.785  0.1665  0.5270 -0.4017
    8MOL0     H 1000   4.315  11.165   2.642 -0.1462  1.2040  3.0499
    8MOL0     H 1001   4.114  10.959   2.750 -1.0390  0.0051 -0.4105
    8MOL0     H 1002   4.082  11.045   2.592 -2.2346  0.6238  0.6196
    8MOL0     H 1003   4.117  11.260   2.695  3.9292 -1.2155 -0.1236
    8MOL0     H 1004   4.131  11.182   2.849  0.9275  0.8223 -0.5185
    8MOL0     H 1005   3.881  11.129   2.681 -1.7472  0.2562  0.0954
    8MOL0     H 1006   3.911  11.083   2.850  3.6759  0.6636  1.5932
    8MOL0     H 1007   3.923  11.379   2.766  3.0714 -0.3550  0.8099
    8MOL0     H 1008   3.937  11.314   2.927 -0.7611 -0.0089  0.7542
    8MOL0     H 1009   3.660  11.507   2.791 -1.7237  1.7151  2.9561
    8MOL0     H 1010   3.415  11.532   2.863 -1.0047  0.6643  0.2899
    8MOL0     H 1011   3.321  11.384   2.891 -3.0301  1.5681 -2.0716
    8MOL0     H 1012   3.342  11.308   2.648  1.0601  0.2968 -0.0730
    8MOL0     H 1013   3.403  11.465   2.614 -3.3788  1.0316 -1.1437
    8MOL0     H 1014   3.141  11.390   2.751 -0.7168 -0.9154 -1.9199
    8MOL0     H 1015   3.202  11.563   2.745  0.8318  0.8767 -0.9997
    8MOL0     H 1016   3.203  11.412   2.485  0.5159  0.7770 -0.0180
    8MOL0     H 1017   3.177  11.583   2.532  1.1847  0.0346 -1.2875
    8MOL0     H 1018   2.779  11.415   2.546  1.5827  0.3611 -2.7279
    8MOL0     H 1019   2.588  11.576   2.568 -0.5532 -0.3362  2.9996
    8MOL0     H 1020   2.344  11.806   2.967 -1.5702  0.7167  0.1152
    8MOL0     H 1021   2.124  11.904   2.981  0.0940 -2.1970  0.4457
    8MOL0     H 1022   2.035  12.153   2.902 -0.2861  1.3562 -0.6003
    8MOL0     H 1023   1.940  12.013   2.957 -1.2916 -2.0330 -1.8118
    8MOL0     H 1024   1.745  12.074   2.838  2.2199 -2.9062  0.6527
    8MOL0     H 1025   1.825  12.224   2.784  0.3972 -0.4419 -0.0818
    8MOL0     H 1026   1.883  12.300   2.996 -0.4754  0.0611 -1.7657
    8MOL0     H 1027   1.786  12.176   3.089 -0.9711 -0.2406 -0.6375
    8MOL0     H 1028   1.640  12.337   2.880 -1.0364 -0.0788  0.4411
    8MOL0     H 1029   1.579  12.230   3.008  2.9478 -2.5709  3.7025
    8MOL0     H 1030   1.702  12.513   3.054  0.4640 -0.7994  0.8134
    8MOL0     H 1031   1.647  12.399   3.175  1.1189  1.9992 -0.2745
    8MOL0     H 1032   1.430  12.400   3.077  0.7220  0.0253  2.3760
    8MOL0     H 1033   1.475  12.515   2.949 -0.5701  0.3230  0.3803
    8MOL0     H 1034   1.445  12.551   3.257  1.1281 -1.6702 -0.6941
    8MOL0     H 1035   1.543  12.658   3.175 -0.7792  1.4616  0.8792
    8MOL0     H 1036   1.248  12.612   3.086 -0.6728  1.2114  0.7748
    8MOL0     H 1037   1.370  12.727   3.014 -1.2939 -0.5789 -1.2721
    8MOL0     H 1038   2.129  11.941   2.559 -2.2017 -2.5704  1.1193
    8MOL0     H 1039   2.363  11.833   2.539  0.5956 -2.0135 -0.1866
    8MOL0     H 1040   2.872  11.878   2.690  0.1306 -0.1325  0.9788
    8MOL0     H 1041   3.053  11.726   2.635 -0.7872  1.7969 -1.6649
    8MOL0     H 1042   4.505  10.866   2.101 -0.5263  0.1672  1.1676
    8MOL0     H 1043   4.657  10.782   1.930 -0.0995  0.5645  0.6922
    8MOL0     H 1044   4.903  10.564   1.732  0.4901 -0.5964  0.0114
    8MOL0     H 1045   5.027  10.491   1.540  3.0923 -0.7392  1.0300
    8MOL0     H 1046   5.442  10.641   1.522 -0.0298  0.6740  0.0908
    8MOL0     H 1047   5.374  10.740   1.373 -0.0303 -2.2234 -2.5703
    8MOL0     H 1048   5.447  10.450   1.383 -1.6397  0.9807  1.9813
    8MOL0     H 1049   5.397  10.546   1.247  1.5404  0.6928 -0.0525
    8MOL0     H 1050   5.618  10.696   1.330  2.3323 -0.1610  0.9321
    8MOL0     H 1051   5.637  10.557   1.225 -2.3455 -0.4362  0.0430
    8MOL0     H 1052   5.810  10.563   1.399 -1.2560 -0.2560  0.5092
    8MOL0     H 1053   5.690  10.535   1.522  0.1672 -2.4045  1.0132
    8MOL0     H 1054   5.688  10.146   1.424 -0.1523 -0.5696  0.7660
    8MOL0     H 1055   5.282  10.836   1.592  0.2568 -0.7208 -0.5748
    8MOL0     H 1056   5.162  10.908   1.789 -2.7172  0.7950  0.4067
    9MOL0     O 1057  10.199   5.605   9.491 -0.8934  0.0819 -0.8921
    9MOL0     C 1058  10.204   5.724   9.465 -0.2985 -0.6795  0.6723
    9MOL0     O 1059  10.109   5.791   9.394  0.5392  0.3680 -0.3297
    9MOL0     C 1060   9.984   5.726   9.374 -0.4116 -0.7931  0.2771
    9MOL0     C 1061   9.913   5.755   9.253  0.2596 -0.4837 -0.7491
    9MOL0     C 1062   9.782   5.714   9.223 -0.5812 -0.0572 -0.2246
    9MOL0     C 1063   9.715   5.649   9.323  0.2083  0.2037 -0.5454
    9MOL0     O 1064   9.586   5.593   9.304 -0.5511 -0.5146  0.1586
    9MOL0     C 1065   9.502   5.686   9.235 -0.0540  0.1609  0.0534
    9MOL0     C 1066   9.365   5.626   9.259  0.2636 -0.1839  0.2357
    9MOL0     C 1067   9.253   5.681   9.179  0.4096 -0.0812  0.0231
    9MOL0     C 1068   9.118   5.598   9.192 -0.2528 -0.5009  0.5605
    9MOL0     C 1069   9.003   5.678   9.132  0.5681  0.1832 -0.4547
    9MOL0     C 1070   8.874   5.606   9.140  0.4041 -0.1097 -0.3411
    9MOL0     C 1071   8.769   5.690   9.059 -0.2619 -0.4739 -0.2535
    9MOL0     C 1072   8.649   5.609   9.024  0.3869  0.3614  0.3114
    9MOL0     N 1073   8.581   5.556   9.141  1.0078 -0.0480 -0.6644
    9MOL0     C 1074   8.478   5.618   9.202 -0.6976  0.2480 -0.6123
    9MOL0     C 1075   8.444   5.542   9.309  0.5758  0.3324 -0.1996
    9MOL0     C 1076   8.351   5.571   9.428  0.7509 -0.1592 -0.3775
    9MOL0     C 1077   8.229   5.475   9.422  0.7567 -0.4697  0.2124
    9MOL0     C 1078   8.127   5.525   9.521  0.2395 -0.0815 -0.3803
    9MOL0     C 1079   8.018   5.619   9.457  0.1608  0.5328 -0.3745
    9MOL0     O 1080   8.068   5.725   9.370  0.3750 -0.7203  0.7235
    9MOL0     C 1081   7.981   5.823   9.328  0.1783  0.8139 -0.9150
    9MOL0     C 1082   8.031   5.935   9.274  0.0185 -0.2326  0.1245
    9MOL0     C 1083   7.947   6.030   9.214 -0.1637  0.1922 -0.2809
    9MOL0     C 1084   7.810   6.018   9.233 -0.3474  0.0961  0.2679
    9MOL0     C 1085   7.720   6.117   9.175  0.4585 -0.6812 -0.2289
    9MOL0     O 1086   7.603   6.066   9.140 -0.6363  0.8012 -0.4626
    9MOL0     C 1087   7.497   6.141   9.114 -0.2642  0.3021 -0.3596
    9MOL0     C 1088   7.464   6.250   9.197  0.0777  0.3655  0.4754
    9MOL0     C 1089   7.343   6.301   9.179  0.5257  0.1562 -0.6307
    9MOL0     C 1090   7.245   6.239   9.104 -0.2432  0.5546 -0.2160
    9MOL0     O 1091   7.116   6.281   9.098  0.0497 -0.3178  0.2831
    9MOL0     C 1092   7.062   6.394   9.171 -1.1613  0.2435  0.3365
    9MOL0     C 1093   6.942   6.472   9.105 -1.0418 -0.6218  0.4872
    9MOL0     C 1094   6.808   6.399   9.133  0.0284  0.3449  0.2131
    9MOL0     C 1095   6.686   6.465   9.065  0.1862 -0.0754 -0.2643
    9MOL0     C 1096   6.550   6.396   9.097  0.3601 -0.3021 -0.0332
    9MOL0     C 1097   6.437   6.493   9.035  0.0181 -0.1818  0.0499
    9MOL0     C 1098   6.299   6.465   9.091  0.3178  0.1635 -0.4872
    9MOL0     C 1099   6.181   6.538   9.034  0.3584 -0.2364 -0.4392
    9MOL0    Cl 1100   6.201   6.707   9.046 -0.1268 -0.6159 -0.4476
    9MOL0     C 1101   7.282   6.141   9.014  0.8442  0.3848  0.9472
    9MOL0     C 1102   7.406   6.096   9.017 -0.0630 -0.4974 -0.9908
    9MOL0     O 1103   7.757   6.234   9.158 -0.5531  0.2108 -0.1991
    9MOL0     C 1104   7.759   5.900   9.287  0.1666  0.4114 -0.4489
    9MOL0     C 1105   7.845   5.803   9.337  0.5807 -0.1602 -0.0792
    9MOL0     N 1106   8.534   5.430   9.307 -0.1493 -0.0725 -0.4317
    9MOL0     N 1107   8.617   5.443   9.207  1.3839 -0.1381 -0.2406
    9MOL0     C 1108   9.777   5.626   9.444 -0.2379 -0.3253 -0.5549
    9MOL0     C 1109   9.909   5.665   9.472  0.4624 -0.1801 -0.4854
    9MOL0     C 1110  10.333   5.787   9.476 -0.0720 -0.3882  0.4054
    9MOL0     C 1111  10.446   5.726   9.538 -0.4921  0.0565 -0.4904
    9MOL0     C 1112  10.563   5.807   9.565  0.1011 -0.3330 -0.3915
    9MOL0     C 1113  10.572   5.936   9.526  0.2260 -0.8585  0.0838
    9MOL0     O 1114  10.690   6.010   9.541  0.7681  0.6461 -1.5088
    9MOL0     C 1115  10.818   5.952   9.546  0.0838 -0.0012 -0.7653
    9MOL0     C 1116  10.907   6.073   9.571 -0.0552  0.2001  0.3263
    9MOL0     C 1117  11.047   6.033   9.562 -0.7717  0.7773  0.8511
    9MOL0     C 1118  11.150   6.156   9.561 -0.6539  0.0017  0.3866
    9MOL0     C 1119  11.285   6.106   9.582  0.0853 -0.2577  0.5032
    9MOL0     C 1120  11.405   6.081   9.597 -0.7867 -0.5328 -0.6008
    9MOL0     C 1121  10.466   6.003   9.462 -1.0757 -0.4499 -0.2266
    9MOL0     C 1122  10.350   5.930   9.436  0.1373  0.7323  1.4056
    9MOL0     H 1123   9.977   5.801   9.178 -0.3115  1.2197 -0.2305
    9MOL0     H 1124   9.730   5.725   9.128 -0.5493 -0.2526 -0.2641
    9MOL0     H 1125   9.523   5.692   9.128  0.4662 -4.5701 -0.3575
    9MOL0     H 1126   9.512   5.781   9.288  0.1181  1.6380 -2.4687
    9MOL0     H 1127   9.352   5.635   9.368  2.3867  2.1186  0.3902
    9MOL0     H 1128   9.368   5.521   9.228  1.1032 -0.2043  0.3619
    9MOL0     H 1129   9.288   5.693   9.076 -0.5758  0.7603 -0.2270
    9MOL0     H 1130   9.237   5.780   9.224  2.1113  0.2028  0.0723
    9MOL0     H 1131   9.136   5.506   9.135  2.2654  0.3071 -0.0735
    9MOL0     H 1132   9.099   5.573   9.296  0.6963 -2.3450  0.3318
    9MOL0     H 1133   9.031   5.701   9.029  0.9871 -0.9189 -0.5955
    9MOL0     H 1134   8.992   5.769   9.192 -2.7124 -1.2245  1.3225
    9MOL0     H 1135   8.832   5.596   9.240 -2.2296  2.6484 -1.0000
    9MOL0     H 1136   8.889   5.511   9.088 -1.3750  0.4707 -2.0458
    9MOL0     H 1137   8.746   5.780   9.116 -2.9098 -0.9861 -0.4044
    9MOL0     H 1138   8.808   5.730   8.964  1.1580  2.3287  1.3787
    9MOL0     H 1139   8.688   5.520   8.973  1.2535  0.7345  0.3098
    9MOL0     H 1140   8.582   5.668   8.962 -1.6356 -0.0107  2.0513
    9MOL0     H 1141   8.445   5.717   9.174 -0.6160  0.3351 -0.3985
    9MOL0     H 1142   8.322   5.676   9.425 -0.0051 -0.2755  1.4699
    9MOL0     H 1143   8.408   5.555   9.520  0.9205 -1.5860 -0.7107
    9MOL0     H 1144   8.260   5.373   9.446  0.4407 -0.0331  2.6743
    9MOL0     H 1145   8.196   5.479   9.318  0.6420  1.4223  0.2892
    9MOL0     H 1146   8.075   5.439   9.563 -0.5818  0.3576 -0.4931
    9MOL0     H 1147   8.174   5.583   9.601 -0.8784  1.2448 -0.6369
    9MOL0     H 1148   7.974   5.673   9.541  0.8675 -0.9878  1.0356
    9MOL0     H 1149   7.944   5.555   9.410  1.9361 -0.8075 -1.4663
    9MOL0     H 1150   8.138   5.946   9.259 -0.5209  3.4782 -2.2678
    9MOL0     H 1151   7.997   6.111   9.161  1.2092 -1.1763 -1.1586
    9MOL0     H 1152   7.530   6.296   9.270 -0.3005  1.5764  0.0794
    9MOL0     H 1153   7.317   6.376   9.253  1.6141  0.0375 -0.1108
    9MOL0     H 1154   7.146   6.464   9.178  0.0363 -1.2155  1.1849
    9MOL0     H 1155   7.031   6.359   9.270 -1.1808 -0.9589 -0.0895
    9MOL0     H 1156   6.961   6.485   8.998  1.5280  0.9681  1.0617
    9MOL0     H 1157   6.926   6.571   9.149 -3.7468 -0.3326 -0.8966
    9MOL0     H 1158   6.797   6.408   9.242  0.9772 -2.2695  0.5906
    9MOL0     H 1159   6.820   6.298   9.093  1.7782  0.4499  0.3836
    9MOL0     H 1160   6.689   6.569   9.097  0.2596 -0.3698  0.7143
    9MOL0     H 1161   6.694   6.460   8.956 -1.2188 -0.5594 -0.3691
    9MOL0     H 1162   6.538   6.380   9.205  2.1780  0.8659  0.3903
    9MOL0     H 1163   6.548   6.300   9.045 -0.0477 -3.4584  5.1147
    9MOL0     H 1164   6.429   6.456   8.932  0.9887 -0.1407 -0.0544
    9MOL0     H 1165   6.470   6.597   9.042  1.3211 -0.5958  0.4072
    9MOL0     H 1166   6.288   6.358   9.073 -0.0562  0.2135 -0.5565
    9MOL0     H 1167   6.302   6.477   9.199  0.7740 -1.0284 -0.3548
    9MOL0     H 1168   6.087   6.511   9.084 -1.0841  3.3246 -0.9873
    9MOL0     H 1169   6.175   6.511   8.928 -0.6132  0.7963 -0.6727
    9MOL0     H 1170   7.215   6.089   8.945  0.3557 -1.2912  2.5929
    9MOL0     H 1171   7.434   6.009   8.958  0.3621 -1.1863  0.1878
    9MOL0     H 1172   7.653   5.884   9.305  0.1379  2.4551  1.7175
    9MOL0     H 1173   7.806   5.716   9.390  3.5035 -0.4314  1.8984
    9MOL0     H 1174   9.729   5.573   9.526  0.2946 -3.2476 -1.9902
    9MOL0     H 1175   9.953   5.634   9.566  0.2428  0.5122 -0.1511
    9MOL0     H 1176  10.439   5.620   9.561  0.7905 -0.1453 -0.9447
    9MOL0     H 1177  10.650   5.766   9.617  0.0401 -1.8115 -1.3952
    9MOL0     H 1178  10.834   5.899   9.451 -1.0646  1.7483 -1.9972
    9MOL0     H 1179  10.824   5.885   9.632 -0.2175 -1.2368 -1.6798
    9MOL0     H 1180  10.871   6.136   9.488 -1.3718 -1.7768 -0.6875
    9MOL0     H 1181  10.891   6.106   9.674 -0.7817 -1.4372  0.7636
    9MOL0     H 1182  11.077   5.976   9.473  2.3602 -1.2765  3.0271
    9MOL0     H 1183  11.067   5.970   9.648 -1.7258 -1.7361 -0.6717
    9MOL0     H 1184  11.149   6.211   9.467  0.9135 -1.9336 -0.8676
    9MOL0     H 1185  11.126   6.212   9.652 -1.3865 -0.7120  0.6470
    9MOL0     H 1186  11.508   6.058   9.616  0.0859  3.6037  0.6364
    9MOL0     H 1187  10.486   6.104   9.428 -0.1983 -0.1047  1.2155
    9MOL0     H 1188  10.283   5.989   9.374  1.6933  1.7711  0.6471
   10MOL0     O 1189   8.067   1.083   7.468 -0.3112  0.3162 -0.4338
   10MOL0     C 1190   8.140   1.157   7.532  0.9045 -0.0551  0.0361
   10MOL0     O 1191   8.098   1.250   7.627 -0.4793  0.0141 -0.4613
   10MOL0     C 1192   7.969   1.252   7.672 -0.0586  0.1672  0.4006
   10MOL0     C 1193   7.892   1.145   7.712  0.6799  0.5875  0.2370
   10MOL0     C 1194   7.759   1.149   7.758 -0.3886  0.4796  0.0033
   10MOL0     C 1195   7.695   1.270   7.780  0.3041  0.1092 -0.5695
   10MOL0     O 1196   7.575   1.279   7.836 -0.5926  0.3452  0.1352
   10MOL0     C 1197   7.474   1.311   7.741 -0.1188  0.1724  0.6970
   10MOL0     C 1198   7.441   1.459   7.772  0.2548  1.2919 -0.3362
   10MOL0     C 1199   7.307   1.488   7.707  0.2246  0.3116 -0.1035
   10MOL0     C 1200   7.313   1.496   7.556  0.1661  0.5960  0.0951
   10MOL0     C 1201   7.190   1.556   7.488  0.2627  0.0704  0.3934
   10MOL0     C 1202   7.058   1.486   7.546  0.0406 -0.2474  0.1785
   10MOL0     C 1203   6.932   1.496   7.447  0.1193  0.8280 -0.3197
   10MOL0     C 1204   6.852   1.624   7.466  0.0771  0.2233  0.0483
   10MOL0     N 1205   6.827   1.669   7.600 -0.6754  0.3089 -0.1901
   10MOL0     C 1206   6.731   1.637   7.684  0.4223  0.1021 -0.0125
   10MOL0     C 1207   6.746   1.709   7.794 -0.1417 -0.4492 -0.5579
   10MOL0     C 1208   6.667   1.706   7.924  0.2558 -0.5102  0.0934
   10MOL0     C 1209   6.609   1.841   7.957 -0.0759  0.0737 -0.6285
   10MOL0     C 1210   6.545   1.851   8.090 -0.8365  0.2219  0.0072
   10MOL0     C 1211   6.394   1.796   8.088  0.1355  0.9028 -0.1823
   10MOL0     O 1212   6.327   1.784   8.211 -0.4045 -0.2537  0.1312
   10MOL0     C 1213   6.198   1.750   8.215  0.0986  0.0031 -0.2880
   10MOL0     C 1214   6.151   1.708   8.343 -0.3335  0.9332  0.5057
   10MOL0     C 1215   6.016   1.669   8.355 -1.0873  0.1011  0.1182
   10MOL0     C 1216   5.927   1.671   8.247 -0.3908  0.9339 -0.7546
   10MOL0     C 1217   5.777   1.635   8.277 -0.4127 -0.9113  0.1061
   10MOL0     O 1218   5.709   1.616   8.160  0.0926  0.1436  0.3872
   10MOL0     C 1219   5.604   1.524   8.145 -0.0705 -0.7215  0.3664
   10MOL0     C 1220   5.527   1.547   8.028 -0.4503 -1.0563  0.2202
   10MOL0     C 1221   5.427   1.461   7.994  0.8109 -0.8625  0.4756
   10MOL0     C 1222   5.382   1.358   8.085  0.4842  0.3417  0.5743
   10MOL0     O 1223   5.273   1.282   8.062  0.2641 -0.5033  0.4981
   10MOL0     C 1224   5.172   1.297   8.161  0.5500  0.2186  0.5235
   10MOL0     C 1225   5.056   1.204   8.124  0.5944  0.7939  0.3304
   10MOL0     C 1226   4.917   1.253   8.167 -0.2239  0.6305  1.0876
   10MOL0     C 1227   4.867   1.244   8.314 -0.4752  0.9249  0.2195
   10MOL0     C 1228   4.844   1.102   8.349 -0.4412 -0.4404 -0.4978
   10MOL0     C 1229   4.717   1.030   8.300  0.6945  0.3049  0.1338
   10MOL0     C 1230   4.718   0.881   8.317  0.8984  0.6514  1.1071
   10MOL0     C 1231   4.575   0.824   8.325 -0.9881 -0.1646  0.4605
   10MOL0    Cl 1232   4.568   0.651   8.361  0.1064 -0.2328 -0.6650
   10MOL0     C 1233   5.460   1.335   8.199  0.6162  0.0932  0.6516
   10MOL0     C 1234   5.563   1.420   8.228 -0.0220  0.1546  0.4903
   10MOL0     O 1235   5.740   1.605   8.395 -0.2731 -0.4339  0.7688
   10MOL0     C 1236   5.983   1.695   8.115  0.3506  0.9311  0.4943
   10MOL0     C 1237   6.109   1.741   8.109 -0.4523  0.2819  0.6306
   10MOL0     N 1238   6.864   1.788   7.776  0.2642  0.6725  0.1595
   10MOL0     N 1239   6.917   1.754   7.664 -0.5326  0.1625  0.2857
   10MOL0     C 1240   7.775   1.382   7.761  0.2098 -0.6229  0.3432
   10MOL0     C 1241   7.904   1.371   7.704  0.7536 -0.4682  0.9449
   10MOL0     C 1242   8.289   1.148   7.500 -0.2190  0.0749 -0.1177
   10MOL0     C 1243   8.340   1.115   7.376  0.3295  0.2213 -0.4519
   10MOL0     C 1244   8.477   1.098   7.358 -0.3398 -0.5944  0.4078
   10MOL0     C 1245   8.567   1.112   7.464 -0.2877 -0.0453  0.5586
   10MOL0     O 1246   8.703   1.092   7.440  0.5501  0.1163  0.0617
   10MOL0     C 1247   8.800   1.105   7.551  0.7668 -0.8283 -0.0588
   10MOL0     C 1248   8.942   1.100   7.503 -0.4803 -0.0103  1.0012
   10MOL0     C 1249   8.990   0.953   7.539  0.0155  0.7520 -0.8054
   10MOL0     C 1250   9.134   0.931   7.487  0.0884 -0.4299 -0.3645
   10MOL0     C 1251   9.235   1.014   7.552  1.3986  0.5190  0.6826
   10MOL0     C 1252   9.331   1.066   7.606  0.2915 -0.7259  0.9975
   10MOL0     C 1253   8.515   1.144   7.587  0.0957  0.4837 -0.1221
   10MOL0     C 1254   8.377   1.163   7.606  0.9339  0.3510  0.0217
   10MOL0     H 1255   7.943   1.050   7.713 -0.4315 -0.0712 -1.4236
   10MOL0     H 1256   7.704   1.058   7.778  0.1746  0.3506  1.0256
   10MOL0     H 1257   7.391   1.240   7.756  0.0454 -0.6627 -1.9593
   10MOL0     H 1258   7.509   1.292   7.640  1.1313 -2.3912  1.5251
   10MOL0     H 1259   7.516   1.525   7.728  2.3118  0.1722  1.3082
   10MOL0     H 1260   7.432   1.479   7.879 -3.1535 -1.6773  0.1392
   10MOL0     H 1261   7.284   1.587   7.749 -0.2840  0.0604  0.2303
   10MOL0     H 1262   7.226   1.421   7.738  2.7356 -1.8172  2.4093
   10MOL0     H 1263   7.401   1.553   7.527 -0.5168  1.2765 -0.7169
   10MOL0     H 1264   7.327   1.391   7.528 -0.0838 -0.2024  2.7170
   10MOL0     H 1265   7.194   1.542   7.379 -0.0052  1.8663  0.1105
   10MOL0     H 1266   7.189   1.663   7.511  1.4148 -0.4734  3.4294
   10MOL0     H 1267   7.037   1.510   7.651 -0.6036 -0.9892  0.2293
   10MOL0     H 1268   7.079   1.379   7.540 -1.3472 -0.5731  0.7485
   10MOL0     H 1269   6.965   1.487   7.343  3.1668  2.6542  0.3391
   10MOL0     H 1270   6.866   1.412   7.469 -1.3723  0.5791 -4.7440
   10MOL0     H 1271   6.755   1.617   7.416 -0.8083 -0.2018  1.7631
   10MOL0     H 1272   6.912   1.693   7.405  0.2404  0.3548  0.3539
   10MOL0     H 1273   6.659   1.560   7.657  1.3852 -0.3147 -1.5029
   10MOL0     H 1274   6.734   1.667   8.001  3.5819 -0.7856 -2.6694
   10MOL0     H 1275   6.585   1.635   7.913 -2.6463  2.8252 -1.5618
   10MOL0     H 1276   6.537   1.869   7.880 -0.4142 -3.1766 -1.6535
   10MOL0     H 1277   6.688   1.916   7.962  1.0240 -1.1128  2.7470
   10MOL0     H 1278   6.603   1.797   8.165  0.1118  0.8770 -0.2417
   10MOL0     H 1279   6.547   1.955   8.123 -0.8279  0.7592 -1.5887
   10MOL0     H 1280   6.391   1.698   8.040  2.0991  1.7836 -2.3496
   10MOL0     H 1281   6.337   1.851   8.012 -0.2431 -2.0227 -2.2064
   10MOL0     H 1282   6.220   1.707   8.427  0.5884 -1.0715 -0.2224
   10MOL0     H 1283   5.975   1.650   8.454  0.3751  0.8239  0.9036
   10MOL0     H 1284   5.551   1.636   7.971 -0.8552  0.3905  2.1793
   10MOL0     H 1285   5.364   1.482   7.908  1.2516 -0.6502  0.2045
   10MOL0     H 1286   5.142   1.401   8.170  0.2760  0.4547 -2.3137
   10MOL0     H 1287   5.215   1.266   8.257  1.2275  1.0329  0.4942
   10MOL0     H 1288   5.078   1.106   8.168 -1.6505  0.1366  0.0989
   10MOL0     H 1289   5.059   1.191   8.015 -1.1497  0.9743  0.2393
   10MOL0     H 1290   4.846   1.206   8.099  1.6601  0.9126 -1.2047
   10MOL0     H 1291   4.925   1.360   8.145 -0.2925  0.0966 -1.9490
   10MOL0     H 1292   4.949   1.280   8.376 -1.2072  2.4667  0.3228
   10MOL0     H 1293   4.780   1.308   8.330 -0.4788  1.1319 -0.5911
   10MOL0     H 1294   4.827   1.098   8.457 -2.5869  0.1199 -0.7739
   10MOL0     H 1295   4.938   1.050   8.327 -0.4739  0.4424 -3.1399
   10MOL0     H 1296   4.695   1.057   8.197 -1.1403 -0.9157  0.1560
   10MOL0     H 1297   4.635   1.071   8.361 -1.5037  2.8186 -4.0480
   10MOL0     H 1298   4.769   0.837   8.231  2.6014  0.1525  2.3239
   10MOL0     H 1299   4.788   0.851   8.396  2.6851  1.0701 -0.2415
   10MOL0     H 1300   4.518   0.837   8.232 -0.2870 -1.1763 -0.1374
   10MOL0     H 1301   4.526   0.877   8.407  0.5814  0.4400  1.0335
   10MOL0     H 1302   5.430   1.248   8.256  0.9503 -1.1611 -1.0097
   10MOL0     H 1303   5.624   1.408   8.317 -0.6226 -1.4838  0.7051
   10MOL0     H 1304   5.917   1.688   8.029  0.5157  0.8854  0.3711
   10MOL0     H 1305   6.145   1.754   8.008 -0.0382 -1.9381  0.4410
   10MOL0     H 1306   7.724   1.477   7.776 -0.5087 -1.0283  0.5024
   10MOL0     H 1307   7.954   1.467   7.694  0.0650 -0.3673 -2.4163
   10MOL0     H 1308   8.272   1.108   7.291  1.5655  3.1772 -1.8200
   10MOL0     H 1309   8.510   1.085   7.255  0.4642 -0.5608  0.6536
   10MOL0     H 1310   8.770   1.032   7.627  0.3662 -0.2434  0.3586
   10MOL0     H 1311   8.792   1.208   7.587  1.0431 -0.2917 -1.4697
   10MOL0     H 1312   8.937   1.103   7.394  3.5446  1.6023  0.6717
   10MOL0     H 1313   9.003   1.185   7.537 -0.6183  0.5606 -0.1620
   10MOL0     H 1314   8.921   0.876   7.504 -1.4203  0.5020  2.3247
   10MOL0     H 1315   8.992   0.949   7.648 -2.1200  3.0016 -0.6108
   10MOL0     H 1316   9.136   0.822   7.494 -1.0653 -0.4196  0.4512
   10MOL0     H 1317   9.136   0.941   7.378  0.7383  1.1700 -0.2235
   10MOL0     H 1318   9.418   1.123   7.633 -0.9901  2.1008 -0.4534
   10MOL0     H 1319   8.574   1.166   7.676 -1.5926  2.4587  0.5893
   10MOL0     H 1320   8.340   1.188   7.705 -1.6264  2.0297 -1.2335
   11MOL0     O 1321   0.904   2.740   1.984 -0.2940  0.5257 -0.0234
   11MOL0     C 1322   0.901   2.741   1.864  0.4183  0.4970  0.4745
   11MOL0     O 1323   0.788   2.771   1.791 -0.6312 -0.4155  0.2836
   11MOL0     C 1324   0.663   2.797   1.841  0.6270 -0.4804  0.3930
   11MOL0     C 1325   0.570   2.841   1.746 -0.7249  0.1929  0.2609
   11MOL0     C 1326   0.440   2.873   1.789  0.8366  0.1257 -0.5450
   11MOL0     C 1327   0.402   2.846   1.913 -0.6371 -1.1306  0.6988
   11MOL0     O 1328   0.269   2.863   1.952 -0.1450  0.2008  0.1345
   11MOL0     C 1329   0.174   2.777   1.893  0.0412  0.7445  0.3210
   11MOL0     C 1330   0.029   2.798   1.941  0.2340  0.4762 -0.0729
   11MOL0     C 1331   0.017   2.750   2.081  0.3551  0.6841  1.0949
   11MOL0     C 1332  -0.126   2.751   2.150  0.0193 -0.1636 -0.1036
   11MOL0     C 1333  -0.234   2.672   2.069 -0.0362 -0.0181  0.7884
   11MOL0     C 1334  -0.224   2.516   2.067  0.0043 -0.0801 -0.5077
   11MOL0     C 1335  -0.282   2.462   1.937 -0.4513 -1.7899  0.0395
   11MOL0     C 1336  -0.434   2.486   1.935 -1.3723 -0.8092 -0.0387
   11MOL0     N 1337  -0.499   2.409   1.825 -0.4371  0.4161  0.0979
   11MOL0     C 1338  -0.502   2.449   1.689 -0.2663  0.4023  0.3281
   11MOL0     C 1339  -0.574   2.355   1.629 -0.5997  0.9286 -0.1809
   11MOL0     C 1340  -0.604   2.324   1.487  0.6518  0.5307  0.4532
   11MOL0     C 1341  -0.737   2.381   1.437  0.8092 -0.5267  0.8638
   11MOL0     C 1342  -0.764   2.527   1.475 -0.1167 -0.5803  0.6827
   11MOL0     C 1343  -0.867   2.596   1.387  0.6451  0.3903  0.4045
   11MOL0     O 1344  -0.959   2.508   1.326  0.3213  0.3982  0.5787
   11MOL0     C 1345  -1.065   2.444   1.394 -0.5407  0.2563  0.6694
   11MOL0     C 1346  -1.091   2.479   1.531  0.9052 -0.6187  0.6910
   11MOL0     C 1347  -1.206   2.427   1.592 -0.6162 -0.1232  0.2817
   11MOL0     C 1348  -1.285   2.337   1.526 -0.6983 -0.2552 -1.0921
   11MOL0     C 1349  -1.392   2.266   1.597 -0.2118 -0.7844  0.3838
   11MOL0     O 1350  -1.456   2.176   1.518  0.1816  0.3536 -0.2490
   11MOL0     C 1351  -1.571   2.110   1.554 -0.4118 -0.1343  0.2259
   11MOL0     C 1352  -1.588   2.054   1.679  0.6543 -0.3975 -0.2112
   11MOL0     C 1353  -1.716   2.007   1.703 -0.0446  0.7488  0.8264
   11MOL0     C 1354  -1.821   2.009   1.606 -0.5321 -0.5359  0.0034
   11MOL0     O 1355  -1.947   1.968   1.630 -0.0362  0.0393  0.0375
   11MOL0     C 1356  -1.953   1.850   1.718 -0.0417 -0.2179 -0.4018
   11MOL0     C 1357  -2.078   1.769   1.692  0.3930 -0.0520 -1.1792
   11MOL0     C 1358  -2.086   1.731   1.543 -0.7555  0.4117 -0.7780
   11MOL0     C 1359  -2.214   1.663   1.508  0.5789 -0.5885  0.5343
   11MOL0     C 1360  -2.246   1.536   1.579  0.6182  0.2843 -0.0847
   11MOL0     C 1361  -2.175   1.415   1.518 -0.1177  0.2808 -0.3649
   11MOL0     C 1362  -2.244   1.290   1.570  0.1064 -0.6766 -0.1124
   11MOL0     C 1363  -2.182   1.163   1.519  0.6311 -0.3653  0.0054
   11MOL0    Cl 1364  -2.280   1.025   1.561  0.3389 -0.4961 -0.1099
   11MOL0     C 1365  -1.796   2.060   1.481  0.0472 -0.3350 -0.1335
   11MOL0     C 1366  -1.666   2.110   1.453  0.1093 -0.5083 -0.1303
   11MOL0     O 1367  -1.427   2.304   1.709  0.2547 -0.3040  0.0034
   11MOL0     C 1368  -1.258   2.303   1.393 -0.2276  0.5258  0.5342
   11MOL0     C 1369  -1.150   2.357   1.327  0.0426 -0.0905  0.3176
   11MOL0     N 1370  -0.596   2.255   1.730 -0.7499 -0.2078  0.6755
   11MOL0     N 1371  -0.555   2.291   1.847 -0.7680 -0.0795 -0.1550
   11MOL0     C 1372   0.488   2.794   2.012 -0.4862  0.2025  0.2004
   11MOL0     C 1373   0.617   2.769   1.972 -0.2944  0.0520  0.0357
   11MOL0     C 1374   1.023   2.694   1.791  0.3159 -0.5927  0.0277
   11MOL0     C 1375   1.034   2.742   1.654  0.7474 -0.0339 -0.0945
   11MOL0     C 1376   1.143   2.710   1.583 -0.4970  0.2127 -0.5493
   11MOL0     C 1377   1.246   2.630   1.631  0.5070 -0.1325 -0.1845
   11MOL0     O 1378   1.354   2.581   1.562 -0.0038 -0.0753 -0.0874
   11MOL0     C 1379   1.442   2.680   1.504  0.6116 -0.6128 -0.9564
   11MOL0     C 1380   1.520   2.762   1.617  0.1832 -0.0607  0.5973
   11MOL0     C 1381   1.672   2.730   1.595 -0.5451 -0.3008  0.3018
   11MOL0     C 1382   1.749   2.750   1.729 -0.4121  0.3516 -0.0338
   11MOL0     C 1383   1.888   2.722   1.713 -0.2037 -0.4129 -0.1375
   11MOL0     C 1384   2.004   2.702   1.694 -0.6223  0.3742  0.0226
   11MOL0     C 1385   1.231   2.578   1.758 -0.3805  0.4056 -0.4404
   11MOL0     C 1386   1.119   2.607   1.841 -0.3083 -0.2903 -0.4570
   11MOL0     H 1387   0.609   2.875   1.651 -2.9582  1.1088 -0.3926
   11MOL0     H 1388   0.351   2.894   1.730 -1.1468 -2.6536  1.2219
   11MOL0     H 1389   0.212   2.676   1.906 -0.8995  0.3442  0.0512
   11MOL0     H 1390   0.175   2.793   1.785 -0.3486  0.9622  0.3449
   11MOL0     H 1391  -0.031   2.747   1.866  1.6767  0.9815 -1.6486
   11MOL0     H 1392  -0.001   2.903   1.938  0.3144  0.5363  0.8803
   11MOL0     H 1393   0.073   2.816   2.148 -3.1189  3.5389  1.5205
   11MOL0     H 1394   0.050   2.646   2.096  0.0390  0.7223  2.1363
   11MOL0     H 1395  -0.110   2.706   2.248  2.2966  1.5206  0.3794
   11MOL0     H 1396  -0.156   2.856   2.157  3.0637  0.7565  0.5624
   11MOL0     H 1397  -0.228   2.705   1.965  0.6144 -2.0280  0.1429
   11MOL0     H 1398  -0.333   2.702   2.103  0.0208  2.7270 -1.1501
   11MOL0     H 1399  -0.259   2.479   2.164  1.8656  1.2688  0.7558
   11MOL0     H 1400  -0.119   2.486   2.070 -0.3831 -1.4754 -0.0682
   11MOL0     H 1401  -0.240   2.510   1.849 -0.2497 -1.7023  0.1819
   11MOL0     H 1402  -0.264   2.354   1.930 -2.2282 -1.9851 -2.9968
   11MOL0     H 1403  -0.460   2.593   1.931 -2.2037 -1.0173 -0.2547
   11MOL0     H 1404  -0.469   2.448   2.031 -0.7057  1.3656  1.1588
   11MOL0     H 1405  -0.467   2.537   1.635 -0.2178 -0.5579 -1.2799
   11MOL0     H 1406  -0.602   2.218   1.461 -2.2075  1.0108 -2.3137
   11MOL0     H 1407  -0.521   2.358   1.424  0.4015  0.7746  0.2494
   11MOL0     H 1408  -0.815   2.316   1.477  0.2605  0.3384  1.2331
   11MOL0     H 1409  -0.724   2.360   1.330 -2.1832 -0.5954  0.4175
   11MOL0     H 1410  -0.791   2.524   1.581 -2.5472 -0.4409  0.1163
   11MOL0     H 1411  -0.674   2.586   1.454 -1.3038  0.3761 -2.1491
   11MOL0     H 1412  -0.814   2.654   1.311  2.3966 -0.3753  0.9796
   11MOL0     H 1413  -0.921   2.667   1.450 -0.9770  0.5153 -1.0709
   11MOL0     H 1414  -1.029   2.541   1.594  0.4875  1.1608 -0.5926
   11MOL0     H 1415  -1.223   2.448   1.697 -1.5155 -1.9340  0.5351
   11MOL0     H 1416  -1.510   2.046   1.753 -0.3339 -2.0086  0.7094
   11MOL0     H 1417  -1.742   1.959   1.797 -0.1090 -3.0468 -0.9260
   11MOL0     H 1418  -1.974   1.892   1.817 -0.7233  1.7316 -1.3256
   11MOL0     H 1419  -1.862   1.789   1.714 -0.5311 -0.9933  0.0920
   11MOL0     H 1420  -2.166   1.829   1.717  0.2584 -0.2629 -1.1384
   11MOL0     H 1421  -2.077   1.684   1.762  0.2038  1.1271  0.3081
   11MOL0     H 1422  -2.011   1.658   1.511 -3.7136 -3.9609  1.3696
   11MOL0     H 1423  -2.082   1.819   1.478  0.0585  1.7365  0.9581
   11MOL0     H 1424  -2.291   1.741   1.516 -0.9282 -1.9959  0.2705
   11MOL0     H 1425  -2.206   1.632   1.404 -0.8593 -3.0746  1.0791
   11MOL0     H 1426  -2.353   1.521   1.566  1.0487 -2.9681 -0.6419
   11MOL0     H 1427  -2.246   1.543   1.688 -2.3690 -1.8587  0.1642
   11MOL0     H 1428  -2.071   1.425   1.553 -0.9943  3.0132  1.7492
   11MOL0     H 1429  -2.180   1.412   1.409 -0.1652 -0.2171 -0.3546
   11MOL0     H 1430  -2.247   1.293   1.679 -0.9008  2.1815 -0.1243
   11MOL0     H 1431  -2.348   1.284   1.536  0.0603 -0.3448 -0.0357
   11MOL0     H 1432  -2.077   1.163   1.547  0.5526  3.0275  0.7144
   11MOL0     H 1433  -2.180   1.167   1.409 -1.0477  0.7219 -0.0406
   11MOL0     H 1434  -1.872   2.049   1.404  1.1284 -2.1987 -1.0132
   11MOL0     H 1435  -1.638   2.152   1.357  0.8564 -0.5804  0.0490
   11MOL0     H 1436  -1.312   2.227   1.338  0.1412  0.1725  0.6595
   11MOL0     H 1437  -1.136   2.346   1.220 -1.4624 -0.5184  0.1309
   11MOL0     H 1438   0.452   2.791   2.114  0.2569 -0.4953  0.4585
   11MOL0     H 1439   0.688   2.736   2.047  2.4435 -1.0560 -2.8254
   11MOL0     H 1440   0.945   2.795   1.621  0.2889  0.3021  1.5702
   11MOL0     H 1441   1.154   2.733   1.477  0.2630  0.9876 -0.3138
   11MOL0     H 1442   1.382   2.747   1.442  0.9163 -1.7197 -2.5147
   11MOL0     H 1443   1.506   2.623   1.436  1.0513 -1.4824  0.1521
   11MOL0     H 1444   1.513   2.871   1.603 -2.9050 -0.4828 -3.1649
   11MOL0     H 1445   1.499   2.726   1.718  1.9267 -0.1181  0.9618
   11MOL0     H 1446   1.707   2.799   1.518 -0.2140  0.3734  1.0300
   11MOL0     H 1447   1.688   2.625   1.568  1.5381  0.2269 -0.7353
   11MOL0     H 1448   1.730   2.855   1.753  1.9500  0.8453 -0.0519
   11MOL0     H 1449   1.710   2.681   1.805  2.0657  1.7431  2.6986
   11MOL0     H 1450   2.109   2.691   1.678 -0.5495  0.1294  0.6543
   11MOL0     H 1451   1.299   2.500   1.792 -1.6418 -0.6097 -0.1740
   11MOL0     H 1452   1.110   2.566   1.941 -1.4676 -0.9010 -0.7948
   12MOL0     O 1453   3.303   4.344   5.411  0.2142  0.0666 -0.1220
   12MOL0     C 1454   3.337   4.442   5.346 -0.2788  0.1805  0.4787
   12MOL0     O 1455   3.262   4.559   5.347  0.2621 -0.4491 -0.9099
   12MOL0     C 1456   3.173   4.579   5.456 -0.1012 -0.0836  0.0648
   12MOL0     C 1457   3.032   4.597   5.415  0.4695 -0.0592  0.5525
   12MOL0     C 1458   2.938   4.607   5.511  0.5155  0.7328 -0.0346
   12MOL0     C 1459   2.968   4.599   5.647 -0.0619  0.0890  0.2329
   12MOL0     O 1460   2.871   4.602   5.740  0.6391  0.5145 -0.6374
   12MOL0     C 1461   2.732   4.610   5.708 -0.2293  0.3456  0.1663
   12MOL0     C 1462   2.647   4.590   5.831  0.1854  0.1970 -0.0815
   12MOL0     C 1463   2.503   4.578   5.789 -0.1082 -0.3529  0.7652
   12MOL0     C 1464   2.407   4.596   5.905  0.4175 -1.0232 -0.1424
   12MOL0     C 1465   2.257   4.590   5.853 -0.9778 -0.9191 -0.2096
   12MOL0     C 1466   2.166   4.633   5.967  0.0367  0.2222  0.6548
   12MOL0     C 1467   2.188   4.779   6.006 -0.2825  0.1168 -0.8769
   12MOL0     C 1468   2.056   4.846   6.059 -0.4080  0.1427  0.4620
   12MOL0     N 1469   1.987   4.770   6.162 -0.2028 -0.6004 -0.3347
   12MOL0     C 1470   1.996   4.804   6.301 -0.2597  1.1428  0.1236
   12MOL0     C 1471   1.881   4.754   6.362 -0.2420  0.5751 -0.0691
   12MOL0     C 1472   1.851   4.742   6.513  0.4539 -0.1934 -0.3126
   12MOL0     C 1473   1.770   4.608   6.536 -0.6538  0.3839 -1.0220
   12MOL0     C 1474   1.757   4.569   6.689  0.2320 -0.2286 -0.1159
   12MOL0     C 1475   1.669   4.455   6.718 -0.1435  0.0502 -0.6286
   12MOL0     O 1476   1.612   4.470   6.846  0.2176  0.1303 -0.1767
   12MOL0     C 1477   1.504   4.386   6.871  0.4674  0.3932 -1.5670
   12MOL0     C 1478   1.463   4.272   6.792  0.4015 -0.2214  0.0735
   12MOL0     C 1479   1.336   4.216   6.816  0.1775 -0.2718  0.0222
   12MOL0     C 1480   1.261   4.253   6.930 -0.2604  1.6071  0.2505
   12MOL0     C 1481   1.132   4.183   6.956  1.0532  0.2398 -0.2138
   12MOL0     O 1482   1.109   4.061   6.894 -0.4144  0.1740 -0.6068
   12MOL0     C 1483   0.999   3.975   6.919 -0.5103 -0.4224  0.5137
   12MOL0     C 1484   0.952   3.935   7.045 -0.1596  0.2898 -0.3471
   12MOL0     C 1485   0.844   3.841   7.053 -0.0592 -1.0370 -0.7527
   12MOL0     C 1486   0.765   3.802   6.937 -0.3224  0.4937 -0.1549
   12MOL0     O 1487   0.656   3.723   6.965  0.2448 -0.4719 -0.4743
   12MOL0     C 1488   0.557   3.715   6.868  0.9725 -0.3684 -1.2339
   12MOL0     C 1489   0.437   3.644   6.923  0.3670  0.3663  0.2026
   12MOL0     C 1490   0.333   3.639   6.812 -0.6739 -0.4637 -0.2599
   12MOL0     C 1491   0.211   3.569   6.850 -0.4169  0.6395  0.4342
   12MOL0     C 1492   0.111   3.583   6.740  0.6364  0.6736 -0.0868
   12MOL0     C 1493  -0.018   3.494   6.761  0.7189  0.2112  1.0619
   12MOL0     C 1494  -0.008   3.355   6.824 -0.0427  0.4689  0.1430
   12MOL0     C 1495  -0.136   3.275   6.795 -0.4500  0.0239 -0.8036
   12MOL0    Cl 1496  -0.264   3.343   6.899  0.3884  0.3346 -0.0823
   12MOL0     C 1497   0.811   3.847   6.810  0.5627  0.2523  0.1842
   12MOL0     C 1498   0.926   3.923   6.805 -0.3811  0.3574  0.1688
   12MOL0     O 1499   1.052   4.229   7.037  0.3387 -0.0284 -0.2313
   12MOL0     C 1500   1.301   4.366   7.007 -0.5259  0.1192  0.3940
   12MOL0     C 1501   1.423   4.424   6.974  0.4867  0.4974 -1.2776
   12MOL0     N 1502   1.814   4.695   6.258  1.0190 -0.1197 -0.4103
   12MOL0     N 1503   1.879   4.690   6.144 -0.0260  0.0648 -0.3340
   12MOL0     C 1504   3.104   4.579   5.684 -0.7538  0.9002 -0.0007
   12MOL0     C 1505   3.208   4.572   5.593 -0.0153 -0.2862  0.9587
   12MOL0     C 1506   3.477   4.430   5.287  1.3380 -0.2313  0.7448
   12MOL0     C 1507   3.541   4.548   5.259 -1.4294  0.1116  0.1054
   12MOL0     C 1508   3.669   4.535   5.196  0.0663 -0.3728  0.5277
   12MOL0     C 1509   3.722   4.409   5.149  0.4395  0.5559 -0.1594
   12MOL0     O 1510   3.835   4.425   5.074  0.0235 -0.6005 -0.4465
   12MOL0     C 1511   3.900   4.309   5.027  0.3765 -0.1689  0.1302
   12MOL0     C 1512   4.025   4.356   4.961 -0.4488 -0.4031 -0.3577
   12MOL0     C 1513   4.135   4.416   5.053 -0.3373 -1.2080 -0.1076
   12MOL0     C 1514   4.260   4.456   4.971 -0.2177 -0.2351  0.7078
   12MOL0     C 1515   4.383   4.418   5.032  0.6212 -0.2410 -0.2226
   12MOL0     C 1516   4.486   4.387   5.090 -0.1905 -0.6222  0.7874
   12MOL0     C 1517   3.649   4.293   5.182  0.8320  0.0852  0.2990
   12MOL0     C 1518   3.526   4.303   5.249 -0.4191 -0.4360  0.0261
   12MOL0     H 1519   3.005   4.602   5.310 -0.8729 -1.0438  0.8272
   12MOL0     H 1520   2.839   4.611   5.466 -0.5051  0.4170  2.0594
   12MOL0     H 1521   2.709   4.538   5.629 -0.1645  1.6254 -1.0758
   12MOL0     H 1522   2.710   4.704   5.657 -3.1544  0.1676  0.9669
   12MOL0     H 1523   2.663   4.681   5.890 -1.8167  2.6930 -3.0822
   12MOL0     H 1524   2.682   4.496   5.876 -0.0951 -1.5249 -3.1877
   12MOL0     H 1525   2.481   4.479   5.747 -0.9207 -0.6491  1.8461
   12MOL0     H 1526   2.488   4.649   5.708 -1.9242 -3.1857 -1.5593
   12MOL0     H 1527   2.421   4.514   5.976  2.3280 -1.5478 -1.0568
   12MOL0     H 1528   2.423   4.688   5.963 -3.9676 -1.3238  1.8997
   12MOL0     H 1529   2.231   4.491   5.817  1.8575 -1.1642 -1.8276
   12MOL0     H 1530   2.232   4.654   5.768 -0.1884 -2.2003 -1.4375
   12MOL0     H 1531   2.184   4.569   6.054  1.4366  0.7463  0.7870
   12MOL0     H 1532   2.065   4.624   5.927  0.2136  2.3920 -0.4335
   12MOL0     H 1533   2.256   4.778   6.092 -3.2034 -3.2961  1.6849
   12MOL0     H 1534   2.229   4.838   5.924  0.4538 -2.2170 -2.2623
   12MOL0     H 1535   1.983   4.871   5.981 -1.5226  0.5188  1.5903
   12MOL0     H 1536   2.080   4.942   6.106  1.5407  0.4202 -0.9980
   12MOL0     H 1537   2.066   4.866   6.355  1.1729 -1.0036  0.8813
   12MOL0     H 1538   1.796   4.828   6.552  1.1021  2.6572 -4.8919
   12MOL0     H 1539   1.947   4.730   6.563 -1.3039 -2.0876  2.8736
   12MOL0     H 1540   1.824   4.528   6.485  0.9532  1.5036 -1.1583
   12MOL0     H 1541   1.672   4.616   6.486 -0.5047  0.3820 -1.3194
   12MOL0     H 1542   1.855   4.559   6.736 -0.4462 -1.6376  1.0773
   12MOL0     H 1543   1.714   4.657   6.739  1.8110  0.5273 -0.0273
   12MOL0     H 1544   1.729   4.364   6.730  2.4375  1.8819  2.0001
   12MOL0     H 1545   1.591   4.442   6.644  0.8795  0.7528 -1.8786
   12MOL0     H 1546   1.527   4.232   6.714  0.5210 -1.9552  1.0236
   12MOL0     H 1547   1.290   4.144   6.749 -0.3324  3.0003 -3.5073
   12MOL0     H 1548   0.997   3.969   7.138  0.9296 -0.0192 -0.7486
   12MOL0     H 1549   0.825   3.804   7.154 -0.7754 -2.2586 -1.3075
   12MOL0     H 1550   0.585   3.665   6.775  0.3809 -2.1945 -0.4652
   12MOL0     H 1551   0.518   3.816   6.851 -1.8188 -0.8693  1.2285
   12MOL0     H 1552   0.394   3.689   7.013  3.6476  0.7236  1.7157
   12MOL0     H 1553   0.469   3.544   6.957  0.9261  0.7730  0.9119
   12MOL0     H 1554   0.372   3.591   6.722 -0.8479  1.2929 -1.3179
   12MOL0     H 1555   0.315   3.741   6.778  3.3223 -0.4317 -3.0215
   12MOL0     H 1556   0.244   3.466   6.864  1.8672  1.0473 -1.3743
   12MOL0     H 1557   0.174   3.604   6.947  1.4102  0.7436  1.1264
   12MOL0     H 1558   0.151   3.565   6.640  1.4277  4.5521 -0.6614
   12MOL0     H 1559   0.081   3.688   6.728 -0.5119  0.2206 -1.3371
   12MOL0     H 1560  -0.072   3.482   6.667  3.4025 -3.2447 -0.2625
   12MOL0     H 1561  -0.088   3.544   6.829 -1.4268 -1.6310  0.3077
   12MOL0     H 1562   0.074   3.301   6.777  0.4279  1.9918 -0.8674
   12MOL0     H 1563   0.008   3.372   6.931  2.5211 -1.6240  0.2125
   12MOL0     H 1564  -0.128   3.170   6.825  1.5780  0.6142  1.0292
   12MOL0     H 1565  -0.168   3.289   6.692  2.8711 -1.0997 -2.1443
   12MOL0     H 1566   0.742   3.819   6.731 -1.3740 -1.4642  2.3671
   12MOL0     H 1567   0.954   3.952   6.705 -0.1710  0.3641  0.2293
   12MOL0     H 1568   1.236   4.411   7.081 -3.2337 -0.6960 -1.3283
   12MOL0     H 1569   1.449   4.516   7.026  2.9029  0.6266 -2.5722
   12MOL0     H 1570   3.115   4.560   5.790  0.6804  1.0713 -0.0932
   12MOL0     H 1571   3.310   4.546   5.617 -0.1390  0.3670  2.2735
   12MOL0     H 1572   3.506   4.648   5.283 -1.0175  0.9626 -2.5033
   12MOL0     H 1573   3.741   4.614   5.175 -0.0568 -0.3082  0.3502
   12MOL0     H 1574   3.837   4.250   4.960 -0.2239 -3.1406  3.0812
   12MOL0     H 1575   3.929   4.240   5.107  1.5176 -2.4821 -2.1214
   12MOL0     H 1576   4.066   4.267   4.912  0.9292 -0.8057  1.4432
   12MOL0     H 1577   4.007   4.434   4.885  0.1684  0.0088 -0.0897
   12MOL0     H 1578   4.153   4.354   5.141 -0.5061 -1.3021 -0.1381
   12MOL0     H 1579   4.088   4.509   5.087  0.9435 -1.7207  3.5665
   12MOL0     H 1580   4.265   4.406   4.874 -0.9118  3.7543 -1.6414
   12MOL0     H 1581   4.267   4.565   4.966  2.6001 -0.3883 -0.7457
   12MOL0     H 1582   4.584   4.373   5.131  1.0518  4.6272  0.2145
   12MOL0     H 1583   3.686   4.197   5.148 -0.8628 -0.9169  1.1320
   12MOL0     H 1584   3.449   4.227   5.261  0.8102 -1.6768  0.3741
   13MOL0     O 1585   7.246   9.748   6.321 -0.0480  0.6448  0.0789
   13MOL0     C 1586   7.286   9.657   6.246 -0.0680  0.1251 -0.7268
   13MOL0     O 1587   7.198   9.592   6.163 -0.2130  0.1111  0.1997
   13MOL0     C 1588   7.059   9.616   6.164  0.0959  0.1755 -0.4968
   13MOL0     C 1589   6.979   9.505   6.184  0.2951 -0.2292 -0.0097
   13MOL0     C 1590   6.839   9.522   6.185  0.0752 -0.3939 -0.4526
   13MOL0     C 1591   6.782   9.651   6.159  0.1919  0.1341 -0.4221
   13MOL0     O 1592   6.652   9.678   6.158 -0.0810  0.2731 -0.2953
   13MOL0     C 1593   6.560   9.577   6.200 -0.2825  0.4477 -1.5966
   13MOL0     C 1594   6.426   9.650   6.191 -0.2496 -0.8278  0.2306
   13MOL0     C 1595   6.300   9.564   6.226 -0.6998 -0.0726 -0.0274
   13MOL0     C 1596   6.167   9.634   6.177  0.2728  0.3618  0.2611
   13MOL0     C 1597   6.052   9.574   6.261 -0.5975 -0.4071 -0.1610
   13MOL0     C 1598   5.921   9.639   6.214  0.3644  0.0784  0.2895
   13MOL0     C 1599   5.794   9.588   6.279  0.6854 -0.5709  0.6517
   13MOL0     C 1600   5.674   9.658   6.208  0.2931  0.2760  1.0915
   13MOL0     N 1601   5.544   9.583   6.225  0.7462 -0.9280  0.0521
   13MOL0     C 1602   5.471   9.561   6.339  0.3903 -0.8818  0.3691
   13MOL0     C 1603   5.387   9.462   6.305  0.8629  0.2306 -0.3077
   13MOL0     C 1604   5.289   9.397   6.399 -1.0746  0.9817  0.2067
   13MOL0     C 1605   5.180   9.494   6.448 -0.0556 -0.1246  0.1421
   13MOL0     C 1606   5.075   9.426   6.534 -0.6318  0.2368 -1.0054
   13MOL0     C 1607   4.954   9.521   6.550 -0.0142 -0.3854  0.4822
   13MOL0     O 1608   4.873   9.482   6.663 -0.0618 -0.2261 -0.6203
   13MOL0     C 1609   4.750   9.554   6.682 -0.7137  0.3191  0.1750
   13MOL0     C 1610   4.643   9.495   6.751 -0.5521 -0.3497 -0.0580
   13MOL0     C 1611   4.522   9.556   6.760  0.5998 -0.2381 -0.1726
   13MOL0     C 1612   4.502   9.690   6.718 -0.0372 -0.4222 -0.4553
   13MOL0     C 1613   4.383   9.775   6.734 -0.1291 -0.0795  0.5619
   13MOL0     O 1614   4.277   9.707   6.794 -0.0396 -0.5453  0.5128
   13MOL0     C 1615   4.168   9.780   6.812  1.2848 -0.2285  0.4274
   13MOL0     C 1616   4.106   9.867   6.726  0.1049 -0.2915  0.3274
   13MOL0     C 1617   3.993   9.948   6.761  0.7161 -0.4808 -0.5621
   13MOL0     C 1618   3.930   9.929   6.890 -0.4574  0.0540 -1.1034
   13MOL0     O 1619   3.815   9.982   6.939 -0.1671 -0.0127 -0.1638
   13MOL0     C 1620   3.741  10.073   6.857 -0.2372  0.0948  0.5649
   13MOL0     C 1621   3.627  10.135   6.937 -0.1840  0.1225 -0.2477
   13MOL0     C 1622   3.518  10.214   6.852  0.2396  0.4673  0.1755
   13MOL0     C 1623   3.409  10.270   6.950 -0.0423 -0.0675 -0.2765
   13MOL0     C 1624   3.287  10.338   6.882 -0.6068  0.0104 -0.3121
   13MOL0     C 1625   3.188  10.383   6.992 -0.6534  0.0612 -0.3020
   13MOL0     C 1626   3.084  10.466   6.929 -0.4240  0.1476  0.0870
   13MOL0     C 1627   2.968  10.494   7.026 -0.2121 -0.2873 -0.0736
   13MOL0    Cl 1628   3.030  10.583   7.171 -0.2060  0.2016 -0.1957
   13MOL0     C 1629   3.999   9.841   6.974 -0.9172  0.3160 -0.2876
   13MOL0     C 1630   4.118   9.769   6.940  0.1984 -1.0492 -0.3824
   13MOL0     O 1631   4.382   9.882   6.684  0.9293 -1.1546  0.1314
   13MOL0     C 1632   4.615   9.756   6.670 -0.1172  0.2173  0.4205
   13MOL0     C 1633   4.731   9.689   6.643  0.0068  0.2735 -0.5293
   13MOL0     N 1634   5.402   9.430   6.169  0.3606 -0.6151  0.6187
   13MOL0     N 1635   5.511   9.492   6.127  0.4895  0.1798 -0.0975
   13MOL0     C 1636   6.867   9.760   6.141 -0.1408 -0.0090 -0.0365
   13MOL0     C 1637   7.008   9.746   6.148  0.6513 -0.4913 -0.6079
   13MOL0     C 1638   7.432   9.623   6.235  0.0614 -0.3377 -0.6817
   13MOL0     C 1639   7.500   9.540   6.142 -0.0202 -0.6021 -1.2276
   13MOL0     C 1640   7.640   9.541   6.123 -0.3410 -0.1117 -0.4123
   13MOL0     C 1641   7.721   9.618   6.203  0.0422  0.1100  0.4554
   13MOL0     O 1642   7.857   9.621   6.182  0.5521 -0.3146  0.2074
   13MOL0     C 1643   7.944   9.656   6.286  0.3521  0.8855  0.5608
   13MOL0     C 1644   8.079   9.662   6.226 -0.0363 -0.1488  0.6258
   13MOL0     C 1645   8.182   9.728   6.314  0.1578 -0.0554 -0.2049
   13MOL0     C 1646   8.314   9.764   6.245 -0.3756  0.3534 -0.5946
   13MOL0     C 1647   8.415   9.828   6.329 -0.4127  0.4289  0.7584
   13MOL0     C 1648   8.491   9.877   6.410 -0.6856  0.6247 -0.1306
   13MOL0     C 1649   7.659   9.695   6.312  0.9396 -0.3022  0.0429
   13MOL0     C 1650   7.514   9.696   6.328  0.2091 -0.3507  0.7238
   13MOL0     H 1651   7.012   9.402   6.190  0.0047 -0.5410 -2.5614
   13MOL0     H 1652   6.783   9.433   6.213  0.9814 -0.1102  2.5549
   13MOL0     H 1653   6.587   9.561   6.305  0.5451  0.5006 -1.7933
   13MOL0     H 1654   6.558   9.484   6.143 -2.3049 -0.4038 -0.2355
   13MOL0     H 1655   6.408   9.680   6.087  0.8720  2.2313  0.7969
   13MOL0     H 1656   6.434   9.739   6.254  1.5108  0.9265 -2.2736
   13MOL0     H 1657   6.295   9.562   6.335 -1.1305  1.8302  0.0280
   13MOL0     H 1658   6.292   9.464   6.182 -4.1716 -0.8456  1.9105
   13MOL0     H 1659   6.165   9.742   6.192 -0.3786  0.2582  0.9818
   13MOL0     H 1660   6.146   9.622   6.070 -2.0462 -0.0985  0.7197
   13MOL0     H 1661   6.062   9.595   6.368 -2.0330  1.8028 -0.3850
   13MOL0     H 1662   6.051   9.470   6.230 -2.3588  0.3790 -3.0459
   13MOL0     H 1663   5.905   9.612   6.109  0.1110  0.6526  0.1792
   13MOL0     H 1664   5.928   9.748   6.214 -0.3122  0.1304  0.8808
   13MOL0     H 1665   5.782   9.480   6.278 -0.3985 -0.4567  0.6558
   13MOL0     H 1666   5.793   9.614   6.385 -4.0124  1.9197  0.2713
   13MOL0     H 1667   5.691   9.644   6.101 -0.7314 -2.8468  1.2510
   13MOL0     H 1668   5.665   9.763   6.237 -0.7257 -0.4947  3.9243
   13MOL0     H 1669   5.473   9.619   6.431  0.0921 -1.1641  0.5590
   13MOL0     H 1670   5.334   9.362   6.492  0.0963  2.5660  0.2678
   13MOL0     H 1671   5.238   9.312   6.353  1.9912  1.1713 -4.1585
   13MOL0     H 1672   5.126   9.534   6.362 -2.0742 -1.3423  0.7742
   13MOL0     H 1673   5.222   9.578   6.503 -0.1232  0.1469 -0.2117
   13MOL0     H 1674   5.050   9.329   6.490 -1.5062  1.0763 -2.4392
   13MOL0     H 1675   5.112   9.398   6.633 -1.8771  0.5365 -0.4346
   13MOL0     H 1676   4.898   9.528   6.456  0.8691  0.8252  0.0186
   13MOL0     H 1677   4.991   9.621   6.574  0.1545  0.1237 -1.6670
   13MOL0     H 1678   4.657   9.394   6.789 -2.4004 -0.1629  1.2956
   13MOL0     H 1679   4.440   9.502   6.806  1.6020 -1.7052 -0.0256
   13MOL0     H 1680   4.134   9.879   6.622  0.7633 -0.1299  0.5215
   13MOL0     H 1681   3.945  10.006   6.683  0.6659 -1.2093 -1.0785
   13MOL0     H 1682   3.699  10.017   6.773  1.6674  1.4624 -1.3927
   13MOL0     H 1683   3.813  10.143   6.815  0.8937 -0.8482  0.9041
   13MOL0     H 1684   3.675  10.194   7.015  0.9657 -1.0923  0.0140
   13MOL0     H 1685   3.569  10.059   6.990 -1.9852  0.0182 -2.2366
   13MOL0     H 1686   3.470  10.159   6.771 -0.2672  1.1296  0.0220
   13MOL0     H 1687   3.565  10.301   6.806  1.3146  0.8920  1.9613
   13MOL0     H 1688   3.386  10.186   7.016  5.0682 -1.1319  0.5418
   13MOL0     H 1689   3.448  10.347   7.017  1.7501 -0.2250 -1.0684
   13MOL0     H 1690   3.245  10.268   6.809 -0.5070 -0.0600 -0.3023
   13MOL0     H 1691   3.328  10.425   6.829 -0.5815  1.5047  2.0171
   13MOL0     H 1692   3.233  10.446   7.069  1.9115 -0.0702 -1.5746
   13MOL0     H 1693   3.148  10.292   7.037  1.5347 -1.2579 -0.8516
   13MOL0     H 1694   3.127  10.559   6.892 -0.8414  0.2396 -0.1717
   13MOL0     H 1695   3.055  10.416   6.836  0.6891 -0.3341 -0.0206
   13MOL0     H 1696   2.920  10.399   7.051 -0.1585  0.0949  1.5717
   13MOL0     H 1697   2.895  10.554   6.972 -0.7914  0.3297  1.3503
   13MOL0     H 1698   3.963   9.845   7.076  1.4744 -0.2098  0.6390
   13MOL0     H 1699   4.163   9.702   7.012  1.2371  0.2921  0.2526
   13MOL0     H 1700   4.625   9.862   6.650  5.1126  0.1108  1.0759
   13MOL0     H 1701   4.808   9.751   6.598 -0.7401  0.1972 -1.9560
   13MOL0     H 1702   6.837   9.861   6.118  0.9247  0.0365 -1.4228
   13MOL0     H 1703   7.081   9.825   6.138 -1.1464  1.3236 -0.1690
   13MOL0     H 1704   7.448   9.466   6.082  0.9123 -4.3189  2.0595
   13MOL0     H 1705   7.699   9.477   6.059  1.1006 -0.0618  0.8103
   13MOL0     H 1706   7.947   9.564   6.346  1.7417 -1.0903 -2.3157
   13MOL0     H 1707   7.930   9.753   6.336  2.5197  1.1006  0.8657
   13MOL0     H 1708   8.108   9.559   6.202 -3.5347 -1.1169 -0.0566
   13MOL0     H 1709   8.069   9.721   6.134  0.9142 -0.1007  0.5466
   13MOL0     H 1710   8.192   9.653   6.393  1.7566 -1.0356 -1.3040
   13MOL0     H 1711   8.137   9.818   6.358 -1.3346 -0.0775 -1.5981
   13MOL0     H 1712   8.353   9.667   6.214  2.6034  1.3187 -0.1601
   13MOL0     H 1713   8.300   9.835   6.163 -1.2163  1.1209  0.1871
   13MOL0     H 1714   8.567   9.912   6.478 -1.3294  0.8192  0.5050
   13MOL0     H 1715   7.726   9.742   6.383  1.4643 -1.1452  0.1122
   13MOL0     H 1716   7.468   9.762   6.401  0.8516 -0.8913  1.6428
   14MOL0     O 1717   7.411   0.426   0.581  0.3175  0.6083 -0.3384
   14MOL0     C 1718   7.486   0.512   0.534  0.1033  0.2240 -0.0948
   14MOL0     O 1719   7.441   0.616   0.459 -0.2283 -0.4252 -0.2461
   14MOL0     C 1720   7.313   0.619   0.419  0.9426  0.5566  0.5967
   14MOL0     C 1721   7.277   0.634   0.281 -0.3447 -0.0691 -0.3321
   14MOL0     C 1722   7.143   0.650   0.253  0.2119 -0.0604  0.2717
   14MOL0     C 1723   7.039   0.639   0.356  0.2248 -0.1786 -0.8539
   14MOL0     O 1724   6.911   0.658   0.312 -0.3481 -0.6577  0.6302
   14MOL0     C 1725   6.799   0.635   0.396 -0.2025  0.9385  0.5083
   14MOL0     C 1726   6.676   0.642   0.302  0.3475  0.6957 -0.7176
   14MOL0     C 1727   6.551   0.621   0.390 -0.7787 -0.2722  0.0287
   14MOL0     C 1728   6.425   0.637   0.308  0.4251  0.7774 -0.4074
   14MOL0     C 1729   6.288   0.625   0.383 -0.3830  0.1352  0.1284
   14MOL0     C 1730   6.168   0.651   0.295 -0.4935  0.3623  0.6177
   14MOL0     C 1731   6.036   0.623   0.358  0.5909  0.2799  0.2869
   14MOL0     C 1732   5.957   0.511   0.281 -1.2663  0.4007 -0.1001
   14MOL0     N 1733   5.815   0.516   0.318  0.9360 -0.7933 -0.1093
   14MOL0     C 1734   5.733   0.627   0.301  1.4914 -0.9751 -0.5210
   14MOL0     C 1735   5.606   0.585   0.335 -0.5162  0.2892 -0.7193
   14MOL0     C 1736   5.477   0.665   0.313  0.7668  0.2131 -0.4185
   14MOL0     C 1737   5.393   0.672   0.448  0.2092 -0.4768 -0.1031
   14MOL0     C 1738   5.277   0.774   0.434  0.2020 -0.7610  0.1726
   14MOL0     C 1739   5.185   0.782   0.548  0.0239  0.9213 -0.2984
   14MOL0     O 1740   5.083   0.675   0.539 -0.7465  0.1715 -0.6556
   14MOL0     C 1741   4.974   0.714   0.615 -0.6408  0.1661  0.6848
   14MOL0     C 1742   4.849   0.684   0.548  0.5309  0.0070  0.3328
   14MOL0     C 1743   4.730   0.697   0.616  0.8171 -0.0783 -0.0394
   14MOL0     C 1744   4.730   0.732   0.751  0.2506  0.2485 -0.5746
   14MOL0     C 1745   4.608   0.739   0.823  1.0623 -0.3429 -0.4595
   14MOL0     O 1746   4.493   0.782   0.756 -0.0112  0.8410  0.3543
   14MOL0     C 1747   4.375   0.813   0.826 -0.7733 -0.4188 -0.0996
   14MOL0     C 1748   4.253   0.793   0.759  0.1511  0.6363 -0.5508
   14MOL0     C 1749   4.127   0.811   0.829 -0.5811  0.3807 -0.2060
   14MOL0     C 1750   4.134   0.842   0.965 -0.7014  0.1713 -0.3098
   14MOL0     O 1751   4.028   0.861   1.043 -0.3043  1.1224 -0.7087
   14MOL0     C 1752   3.906   0.795   1.021 -0.4197  1.0753 -0.3757
   14MOL0     C 1753   3.813   0.807   1.140 -0.3013  0.8444 -0.2700
   14MOL0     C 1754   3.670   0.751   1.108 -0.0204 -0.2054  0.4461
   14MOL0     C 1755   3.582   0.769   1.233  0.3571  0.7408 -0.2574
   14MOL0     C 1756   3.450   0.704   1.231 -0.1577 -0.3906  0.0795
   14MOL0     C 1757   3.391   0.708   1.372 -0.6806  0.6200  0.3441
   14MOL0     C 1758   3.254   0.630   1.377  0.1408  0.6252 -0.6632
   14MOL0     C 1759   3.144   0.674   1.288  0.4959 -0.3036  0.3956
   14MOL0    Cl 1760   3.124   0.854   1.317  0.0284  0.1300 -0.0562
   14MOL0     C 1761   4.254   0.873   1.030  0.0086  0.9031  0.1419
   14MOL0     C 1762   4.375   0.861   0.960 -0.7029  0.4721  0.3902
   14MOL0     O 1763   4.612   0.711   0.944 -1.3983 -0.4084  0.1573
   14MOL0     C 1764   4.849   0.769   0.814 -0.3922 -0.5011  0.7145
   14MOL0     C 1765   4.978   0.761   0.739  0.7064  0.0088  0.0125
   14MOL0     N 1766   5.611   0.453   0.361  0.2323  0.3494 -0.3361
   14MOL0     N 1767   5.738   0.412   0.359 -0.3860  0.5418 -0.0235
   14MOL0     C 1768   7.069   0.616   0.491  0.2567  0.4788  0.0126
   14MOL0     C 1769   7.210   0.614   0.520 -0.2071  0.3690  0.3855
   14MOL0     C 1770   7.634   0.496   0.557  0.3554  0.8377 -0.4867
   14MOL0     C 1771   7.686   0.382   0.622 -0.5054 -0.4674 -0.3314
   14MOL0     C 1772   7.829   0.377   0.643  0.4303 -0.0618  0.1489
   14MOL0     C 1773   7.915   0.475   0.596  0.4761  0.4877 -0.5026
   14MOL0     O 1774   8.049   0.489   0.622  0.3880 -0.0290  0.0427
   14MOL0     C 1775   8.116   0.413   0.719 -0.6104 -0.7768  0.2194
   14MOL0     C 1776   8.246   0.486   0.770  0.4354 -0.8502 -1.3950
   14MOL0     C 1777   8.223   0.583   0.886  0.1854  0.9218 -0.1636
   14MOL0     C 1778   8.338   0.606   0.977  0.0672 -0.1879  0.0484
   14MOL0     C 1779   8.307   0.676   1.101  0.8056  0.3039 -0.1472
   14MOL0     C 1780   8.266   0.723   1.205  0.5382  0.0681 -0.6594
   14MOL0     C 1781   7.859   0.574   0.516 -0.8473 -0.1071  0.3392
   14MOL0     C 1782   7.724   0.596   0.502 -0.3648  0.1167 -0.8605
   14MOL0     H 1783   7.347   0.644   0.199  0.7207  2.9544  0.8154
   14MOL0     H 1784   7.105   0.660   0.152  1.1608  3.3517  0.1253
   14MOL0     H 1785   6.801   0.710   0.476  1.3743 -1.0818  2.5070
   14MOL0     H 1786   6.802   0.532   0.433 -0.5621  1.1038  0.9942
   14MOL0     H 1787   6.684   0.568   0.222 -2.3487 -2.9513  2.0160
   14MOL0     H 1788   6.680   0.742   0.257  1.3145  1.0625  0.1533
   14MOL0     H 1789   6.554   0.696   0.470  1.3403  0.4406 -0.6817
   14MOL0     H 1790   6.548   0.519   0.430  0.8125 -0.1791  0.4409
   14MOL0     H 1791   6.423   0.736   0.262 -0.9637  1.2019  0.5053
   14MOL0     H 1792   6.434   0.560   0.231  0.7837  1.3631 -0.9612
   14MOL0     H 1793   6.289   0.689   0.472 -2.1499 -0.6189  0.7234
   14MOL0     H 1794   6.294   0.524   0.425 -2.6789  0.3116  0.9819
   14MOL0     H 1795   6.173   0.584   0.209  1.7243 -0.0350  1.0210
   14MOL0     H 1796   6.174   0.758   0.271 -1.9951  0.5783  1.0603
   14MOL0     H 1797   6.050   0.593   0.462  1.4732  0.5384  0.2538
   14MOL0     H 1798   5.972   0.712   0.358  1.1753  0.7397  2.0737
   14MOL0     H 1799   5.997   0.411   0.301 -1.5356  0.4767  0.8527
   14MOL0     H 1800   5.961   0.530   0.173 -2.3514 -3.0797 -0.9000
   14MOL0     H 1801   5.764   0.723   0.262 -3.6622  1.2588  0.0805
   14MOL0     H 1802   5.417   0.615   0.236 -0.0314  0.3450  0.1012
   14MOL0     H 1803   5.495   0.766   0.276 -0.1234  0.7496  0.5616
   14MOL0     H 1804   5.465   0.704   0.524  1.1133 -1.6224 -0.4460
   14MOL0     H 1805   5.350   0.577   0.479  1.8428 -1.8193 -1.6891
   14MOL0     H 1806   5.332   0.867   0.414 -0.2776 -0.6934 -0.9294
   14MOL0     H 1807   5.230   0.743   0.340  1.3771 -1.4125 -0.2253
   14MOL0     H 1808   5.148   0.885   0.547  4.2176  2.6120 -2.0301
   14MOL0     H 1809   5.244   0.770   0.639  2.0702 -0.9320 -1.7815
   14MOL0     H 1810   4.846   0.637   0.450 -1.0183  2.3895 -0.8535
   14MOL0     H 1811   4.638   0.670   0.566 -0.0112  0.4095  1.1663
   14MOL0     H 1812   4.255   0.782   0.652  0.1031  1.3239 -0.6293
   14MOL0     H 1813   4.032   0.799   0.778 -0.3615  1.7152 -0.9720
   14MOL0     H 1814   3.931   0.689   1.010  4.0695  1.5806  2.3085
   14MOL0     H 1815   3.855   0.839   0.935  0.0212 -0.8095 -1.6706
   14MOL0     H 1816   3.817   0.910   1.176  1.2782  0.5518  0.4641
   14MOL0     H 1817   3.858   0.751   1.223 -1.1967 -0.2521 -0.4847
   14MOL0     H 1818   3.690   0.649   1.074  0.1511 -0.3644  1.0255
   14MOL0     H 1819   3.627   0.808   1.025 -0.2515 -1.2076 -0.1359
   14MOL0     H 1820   3.636   0.723   1.316 -0.0429  0.2691 -0.2494
   14MOL0     H 1821   3.573   0.873   1.262  3.0062  0.5882  1.4827
   14MOL0     H 1822   3.464   0.600   1.201  2.4781  0.1743 -0.8982
   14MOL0     H 1823   3.377   0.750   1.165 -0.2745 -0.6776  0.0089
   14MOL0     H 1824   3.386   0.812   1.405 -1.7685  0.1459  1.7698
   14MOL0     H 1825   3.454   0.654   1.443  1.2949 -0.0364 -1.7753
   14MOL0     H 1826   3.268   0.522   1.369 -1.5273  0.5177 -3.0896
   14MOL0     H 1827   3.216   0.642   1.479  2.2657 -2.3995  0.6362
   14MOL0     H 1828   3.060   0.611   1.319  0.2130 -0.9111 -1.4838
   14MOL0     H 1829   3.169   0.646   1.186 -1.7907  2.3423 -1.0255
   14MOL0     H 1830   4.246   0.897   1.136 -0.1363  1.4385  0.0100
   14MOL0     H 1831   4.472   0.883   1.004 -0.1539 -0.6495 -0.2220
   14MOL0     H 1832   4.856   0.789   0.920 -2.1607  2.3713  0.3712
   14MOL0     H 1833   5.073   0.771   0.790  0.9448 -1.5145 -0.0938
   14MOL0     H 1834   6.995   0.595   0.569 -1.2621  0.5049 -1.3626
   14MOL0     H 1835   7.257   0.603   0.617  3.3644 -0.7326 -1.3126
   14MOL0     H 1836   7.621   0.306   0.664 -0.3650 -0.5091 -0.1878
   14MOL0     H 1837   7.865   0.295   0.705  1.5429  0.2587 -0.0541
   14MOL0     H 1838   8.146   0.328   0.658 -1.6907  1.2917 -3.4753
   14MOL0     H 1839   8.059   0.381   0.807 -0.6271  2.8790  1.6945
   14MOL0     H 1840   8.325   0.417   0.798  1.8146  1.6170  1.2527
   14MOL0     H 1841   8.273   0.550   0.685  2.6923 -0.7081 -0.6172
   14MOL0     H 1842   8.145   0.544   0.952  3.1109  1.5627  4.1041
   14MOL0     H 1843   8.201   0.679   0.839  1.3416  0.8515 -0.8755
   14MOL0     H 1844   8.374   0.509   1.014  0.3804 -1.3607 -3.0072
   14MOL0     H 1845   8.422   0.654   0.926 -0.1564 -0.4177 -0.5522
   14MOL0     H 1846   8.241   0.779   1.293  2.3098  0.1652 -0.1816
   14MOL0     H 1847   7.935   0.646   0.485  0.1315 -1.0023  0.6110
   14MOL0     H 1848   7.690   0.685   0.450  2.7877  1.5868 -0.6181
   15MOL0     O 1849  10.585   7.832   3.580  0.0822  0.3400  0.2748
   15MOL0     C 1850  10.634   7.881   3.683 -0.3408  0.0538  0.2016
   15MOL0     O 1851  10.559   7.902   3.798 -0.1564  0.3003  0.4954
   15MOL0     C 1852  10.422   7.873   3.810 -0.5345  0.5457  0.1539
   15MOL0     C 1853  10.332   7.967   3.857  0.3264  0.3302 -0.1184
   15MOL0     C 1854  10.208   7.937   3.890 -0.3655 -0.2067  0.1976
   15MOL0     C 1855  10.149   7.808   3.860 -1.3078 -0.1133 -0.9032
   15MOL0     O 1856  10.020   7.791   3.890  0.5252 -0.3368 -0.3914
   15MOL0     C 1857   9.972   7.661   3.938 -0.9461 -0.0220  0.1386
   15MOL0     C 1858   9.827   7.651   3.962  0.0220  0.2398 -0.5624
   15MOL0     C 1859   9.736   7.668   3.833 -0.6824  0.0936  0.0829
   15MOL0     C 1860   9.779   7.581   3.709  0.2654  0.2236  0.6578
   15MOL0     C 1861   9.682   7.581   3.599 -0.5766 -1.0535  0.7715
   15MOL0     C 1862   9.713   7.465   3.496 -0.6063 -0.0424 -0.1033
   15MOL0     C 1863   9.617   7.344   3.508  0.2649 -0.6804  0.2260
   15MOL0     C 1864   9.649   7.229   3.416 -0.2137  0.0304  0.0816
   15MOL0     N 1865   9.555   7.114   3.426  0.4297 -0.2639 -0.1289
   15MOL0     C 1866   9.421   7.122   3.407  0.3930  0.4411 -0.5786
   15MOL0     C 1867   9.383   6.995   3.438  0.4334 -0.3605 -0.6457
   15MOL0     C 1868   9.241   6.949   3.432  0.1379  0.0879 -0.1829
   15MOL0     C 1869   9.150   7.037   3.523  0.2973  0.3355  0.0435
   15MOL0     C 1870   9.175   7.001   3.666 -0.5537 -0.0547 -0.2702
   15MOL0     C 1871   9.056   7.026   3.755  0.3328 -0.2206  0.2592
   15MOL0     O 1872   9.090   7.037   3.889  0.0393  0.1787 -0.5151
   15MOL0     C 1873   8.989   7.042   3.987  1.0451 -0.0044 -0.5543
   15MOL0     C 1874   8.850   7.035   3.949 -0.4309 -0.1331 -0.3666
   15MOL0     C 1875   8.746   7.046   4.042 -0.8258  0.0849  0.5706
   15MOL0     C 1876   8.784   7.068   4.180  0.0500 -0.2204  0.6451
   15MOL0     C 1877   8.683   7.080   4.280 -0.4368 -0.7975 -0.2733
   15MOL0     O 1878   8.718   7.160   4.380 -0.0362  0.8113  0.3421
   15MOL0     C 1879   8.629   7.184   4.483  0.7389  0.0882  0.2921
   15MOL0     C 1880   8.525   7.281   4.459 -0.3783  0.3255 -0.7323
   15MOL0     C 1881   8.427   7.316   4.553  0.1182  0.0389  0.6952
   15MOL0     C 1882   8.431   7.253   4.674 -0.0663 -0.2730 -0.0971
   15MOL0     O 1883   8.330   7.269   4.776  0.1633  0.8704 -0.0081
   15MOL0     C 1884   8.270   7.399   4.789  0.5110  0.5399 -0.4572
   15MOL0     C 1885   8.167   7.398   4.900  0.4720 -0.6800  0.0624
   15MOL0     C 1886   8.085   7.528   4.922 -0.4213  0.1598  0.5235
   15MOL0     C 1887   7.966   7.516   5.025 -0.8980  0.5351  0.5154
   15MOL0     C 1888   7.875   7.636   5.019  0.1407  0.9019  0.1106
   15MOL0     C 1889   7.773   7.624   5.131 -0.1457  0.1226 -0.0956
   15MOL0     C 1890   7.693   7.749   5.140  0.0621  0.1170  0.4874
   15MOL0     C 1891   7.597   7.744   5.265 -0.4284 -0.7350 -0.1586
   15MOL0    Cl 1892   7.545   7.910   5.291 -0.0881  0.2679 -0.3387
   15MOL0     C 1893   8.524   7.151   4.702 -0.3711 -0.6429 -0.3769
   15MOL0     C 1894   8.626   7.119   4.609 -0.5385  0.0408  0.9315
   15MOL0     O 1895   8.577   7.018   4.277 -0.4930 -0.0983  0.3485
   15MOL0     C 1896   8.917   7.062   4.214 -0.7350 -0.7147 -0.5773
   15MOL0     C 1897   9.018   7.047   4.120 -0.6023 -0.4331  0.0215
   15MOL0     N 1898   9.484   6.913   3.462 -0.4723 -0.4358 -0.6174
   15MOL0     N 1899   9.595   6.981   3.455 -0.2752 -0.7056  0.0370
   15MOL0     C 1900  10.238   7.712   3.805  0.0423 -0.7428  0.5879
   15MOL0     C 1901  10.376   7.742   3.786  0.8210  0.9936  0.2323
   15MOL0     C 1902  10.778   7.899   3.675  0.2745 -0.0884 -1.0834
   15MOL0     C 1903  10.840   7.918   3.547  0.3389  0.2557  0.0825
   15MOL0     C 1904  10.975   7.939   3.537  0.4253 -0.4085  0.5891
   15MOL0     C 1905  11.061   7.939   3.648  0.5074  0.2721  0.6443
   15MOL0     O 1906  11.200   7.953   3.652 -0.4094  0.4738  0.4373
   15MOL0     C 1907  11.270   7.929   3.531 -0.4410  0.6814 -0.3917
   15MOL0     C 1908  11.420   7.976   3.551  0.1984 -0.8284 -0.1442
   15MOL0     C 1909  11.505   8.004   3.420 -0.3124 -0.6605 -1.0844
   15MOL0     C 1910  11.522   7.872   3.350  0.3723 -1.0002 -0.3152
   15MOL0     C 1911  11.617   7.896   3.244  0.5998  0.3155  0.1542
   15MOL0     C 1912  11.707   7.906   3.167  0.3434 -0.3635  0.3150
   15MOL0     C 1913  10.999   7.923   3.773 -0.0990  0.1722 -0.2067
   15MOL0     C 1914  10.861   7.914   3.782  0.0732 -0.4804 -0.3494
   15MOL0     H 1915  10.383   8.052   3.902 -0.0378 -0.7293  2.5122
   15MOL0     H 1916  10.145   8.013   3.932 -2.1092 -1.8660  0.7139
   15MOL0     H 1917  10.014   7.645   4.038 -1.7574  1.3889  0.7439
   15MOL0     H 1918  10.003   7.582   3.869  1.1020  3.0616 -2.8046
   15MOL0     H 1919   9.796   7.727   4.034  0.6709 -1.9461  2.1818
   15MOL0     H 1920   9.814   7.554   4.011  2.3834 -1.0267 -2.2030
   15MOL0     H 1921   9.743   7.773   3.806  1.6897 -0.1673 -0.5572
   15MOL0     H 1922   9.635   7.642   3.865 -0.3807 -2.1981 -0.6226
   15MOL0     H 1923   9.878   7.604   3.669  0.0333 -0.6376 -0.4635
   15MOL0     H 1924   9.783   7.480   3.751 -2.6910  0.2870  1.3354
   15MOL0     H 1925   9.682   7.675   3.543 -0.4588 -2.3320 -1.5445
   15MOL0     H 1926   9.578   7.567   3.631 -1.3244  0.1529 -0.9598
   15MOL0     H 1927   9.820   7.448   3.505 -0.2990  2.3686  2.2837
   15MOL0     H 1928   9.705   7.507   3.395  2.6986  1.7983  0.2503
   15MOL0     H 1929   9.611   7.306   3.611 -2.4972  0.2387  0.4923
   15MOL0     H 1930   9.517   7.385   3.494  0.8116  1.0734  1.1641
   15MOL0     H 1931   9.753   7.195   3.423 -1.3239 -3.5350  1.2518
   15MOL0     H 1932   9.646   7.281   3.320  2.5081  1.2070  0.5544
   15MOL0     H 1933   9.356   7.208   3.396  0.3781  0.6023  0.7028
   15MOL0     H 1934   9.229   6.843   3.458 -1.2382 -0.4319 -2.5678
   15MOL0     H 1935   9.208   6.955   3.328  0.8795 -1.4828 -0.5478
   15MOL0     H 1936   9.047   7.007   3.504 -0.3181  1.5153  1.3887
   15MOL0     H 1937   9.160   7.143   3.500 -0.7009  0.3099 -0.5744
   15MOL0     H 1938   9.190   6.893   3.676 -0.0935 -0.0212 -0.5569
   15MOL0     H 1939   9.263   7.055   3.705 -1.5079  1.4347 -0.0965
   15MOL0     H 1940   8.990   6.940   3.745  0.0936 -0.7228  4.5740
   15MOL0     H 1941   9.006   7.121   3.734 -0.3856 -0.6594 -0.0546
   15MOL0     H 1942   8.818   7.028   3.846 -1.5394 -1.4739  0.0358
   15MOL0     H 1943   8.642   7.051   4.011 -0.7295  1.0622  0.3684
   15MOL0     H 1944   8.515   7.327   4.361  0.5923 -1.6587 -1.8148
   15MOL0     H 1945   8.346   7.381   4.523  2.2490  1.1717 -3.3458
   15MOL0     H 1946   8.212   7.423   4.699 -1.1189  0.3780  0.5105
   15MOL0     H 1947   8.341   7.479   4.811 -1.8118  1.8982  2.7924
   15MOL0     H 1948   8.201   7.376   5.002 -4.1013  0.3892  2.1050
   15MOL0     H 1949   8.101   7.316   4.872  2.0431 -2.8291  2.2283
   15MOL0     H 1950   8.050   7.561   4.824 -1.1684  1.0012  1.0654
   15MOL0     H 1951   8.148   7.615   4.943  1.2325 -1.1381  1.1452
   15MOL0     H 1952   7.906   7.430   4.993 -1.8822  2.1504 -2.2940
   15MOL0     H 1953   8.005   7.497   5.126 -2.0629 -0.2279  0.8395
   15MOL0     H 1954   7.822   7.649   4.924 -2.7125  0.9040  1.6255
   15MOL0     H 1955   7.929   7.727   5.044 -0.9984  1.8933 -0.9259
   15MOL0     H 1956   7.816   7.606   5.230  0.2641  0.6586 -0.1691
   15MOL0     H 1957   7.708   7.539   5.109  0.1930 -0.5912  1.5065
   15MOL0     H 1958   7.765   7.826   5.169  1.6181 -0.6577 -1.1618
   15MOL0     H 1959   7.651   7.781   5.044 -1.1994  1.7781  1.5400
   15MOL0     H 1960   7.642   7.698   5.354  0.1597 -0.9671 -0.5781
   15MOL0     H 1961   7.505   7.691   5.238  0.1481 -1.5054 -0.6414
   15MOL0     H 1962   8.527   7.082   4.786  0.4221 -2.4436 -1.7869
   15MOL0     H 1963   8.703   7.046   4.632 -0.1631  0.5307  1.2417
   15MOL0     H 1964   8.950   7.076   4.317  2.3367 -1.2934 -1.3743
   15MOL0     H 1965   9.123   7.051   4.149  0.0159  1.3100 -2.2123
   15MOL0     H 1966  10.197   7.614   3.781 -1.1058 -0.6168  1.8970
   15MOL0     H 1967  10.443   7.664   3.752  0.3368  1.5813 -2.1987
   15MOL0     H 1968  10.777   7.923   3.459  0.8940 -0.4647 -0.3647
   15MOL0     H 1969  11.018   7.946   3.437  0.3441  0.5209  0.6160
   15MOL0     H 1970  11.209   7.975   3.453 -1.2288  0.6712  0.2001
   15MOL0     H 1971  11.269   7.824   3.499 -2.8581  1.3787 -2.9830
   15MOL0     H 1972  11.418   8.072   3.604 -0.6009 -0.5352 -0.6693
   15MOL0     H 1973  11.468   7.906   3.619 -0.5391 -1.8799 -0.6728
   15MOL0     H 1974  11.604   8.035   3.455 -0.9167 -0.3680  0.4589
   15MOL0     H 1975  11.471   8.087   3.358 -4.2403  0.2806  1.9539
   15MOL0     H 1976  11.567   7.798   3.417  3.7942  0.4392 -0.7948
   15MOL0     H 1977  11.425   7.840   3.311  0.0354 -0.5027  0.1062
   15MOL0     H 1978  11.789   7.923   3.099 -0.9615 -1.2573 -1.5753
   15MOL0     H 1979  11.062   7.922   3.861  0.2472 -0.6071 -0.4466
   15MOL0     H 1980  10.809   7.912   3.878  0.2399 -0.0801 -0.2488
   16MOL0     O 1981   1.657  11.140   0.613  0.0287  0.5881  0.2871
   16MOL0     C 1982   1.638  11.240   0.544 -0.2446 -0.1168  0.0557
   16MOL0     O 1983   1.525  11.317   0.545  0.3723 -0.8289 -0.1787
   16MOL0     C 1984   1.434  11.290   0.644 -0.0312  0.1175 -0.7213
   16MOL0     C 1985   1.376  11.161   0.664 -0.0625  0.4733 -0.2391
   16MOL0     C 1986   1.263  11.149   0.745  0.3796 -0.2288 -0.7416
   16MOL0     C 1987   1.222  11.256   0.830 -0.0825  0.5031  0.5932
   16MOL0     O 1988   1.104  11.230   0.904 -0.4471 -0.3418 -0.4181
   16MOL0     C 1989   1.056  11.343   0.975  0.0226  0.2968 -0.8005
   16MOL0     C 1990   0.928  11.311   1.058 -0.4600 -0.4675  0.4826
   16MOL0     C 1991   0.806  11.260   0.977 -0.4308 -0.7325 -0.5203
   16MOL0     C 1992   0.678  11.260   1.068 -0.6437  0.0541 -0.0825
   16MOL0     C 1993   0.561  11.185   1.009  1.1147  0.5921 -0.4677
   16MOL0     C 1994   0.426  11.197   1.088 -0.5043  0.1555 -0.1999
   16MOL0     C 1995   0.437  11.146   1.228 -0.0153  0.0160 -0.4500
   16MOL0     C 1996   0.311  11.163   1.305 -0.7681  0.2252 -0.4862
   16MOL0     N 1997   0.211  11.061   1.262 -0.0835 -0.1895  0.1052
   16MOL0     C 1998   0.249  10.928   1.260 -0.0790  0.1900 -0.0621
   16MOL0     C 1999   0.156  10.873   1.180 -0.1725  0.0120  0.3150
   16MOL0     C 2000   0.144  10.737   1.131 -0.2083  0.8019  0.2585
   16MOL0     C 2001   0.275  10.657   1.089  0.0018  0.0538 -0.9880
   16MOL0     C 2002   0.337  10.709   0.959 -0.6750 -0.0777 -0.2912
   16MOL0     C 2003   0.462  10.644   0.902  0.5217  0.7583  0.7092
   16MOL0     O 2004   0.568  10.675   0.992 -0.3094 -0.0259 -0.0095
   16MOL0     C 2005   0.686  10.685   0.933 -0.1896  0.8325 -0.4943
   16MOL0     C 2006   0.760  10.565   0.937 -0.7986  0.4263 -1.0580
   16MOL0     C 2007   0.894  10.563   0.894 -0.5187  0.1694 -0.3991
   16MOL0     C 2008   0.941  10.674   0.824  0.4389 -0.4315  0.9641
   16MOL0     C 2009   1.072  10.672   0.768 -0.7414  0.2807 -0.2145
   16MOL0     O 2010   1.119  10.790   0.711  0.4208 -0.1816 -0.2020
   16MOL0     C 2011   1.248  10.786   0.666 -0.4147  0.5531  0.0451
   16MOL0     C 2012   1.299  10.746   0.542  0.4755  0.5323 -0.4722
   16MOL0     C 2013   1.439  10.721   0.525 -0.0328 -0.2916 -0.3933
   16MOL0     C 2014   1.533  10.743   0.628 -0.2843  0.8171  0.7359
   16MOL0     O 2015   1.663  10.716   0.611 -0.7286 -0.4153  0.0425
   16MOL0     C 2016   1.721  10.734   0.479 -0.1096 -0.4482  0.6213
   16MOL0     C 2017   1.870  10.718   0.490 -0.3913 -0.0452 -0.3143
   16MOL0     C 2018   1.947  10.829   0.563  0.4716  0.2038  0.8388
   16MOL0     C 2019   2.103  10.812   0.570  0.6281  1.2531 -0.3706
   16MOL0     C 2020   2.157  10.822   0.437  0.0881  0.1724  0.7381
   16MOL0     C 2021   2.311  10.800   0.427  0.3514 -1.5141 -0.4206
   16MOL0     C 2022   2.358  10.832   0.284  0.1079  0.7322  0.2621
   16MOL0     C 2023   2.506  10.857   0.280 -0.6063  0.9718  0.1288
   16MOL0    Cl 2024   2.568  10.958   0.409  0.5004 -0.2211  0.1009
   16MOL0     C 2025   1.488  10.776   0.753  0.4286  0.8678  0.5162
   16MOL0     C 2026   1.353  10.800   0.770  1.2575 -0.3584 -0.0854
   16MOL0     O 2027   1.146  10.575   0.793 -0.2989 -0.4403  0.2669
   16MOL0     C 2028   0.864  10.793   0.819 -0.5840 -0.2738  0.7146
   16MOL0     C 2029   0.744  10.800   0.886  0.7646 -0.5270 -0.3372
   16MOL0     N 2030   0.065  10.974   1.138  0.3399 -0.2271  0.0482
   16MOL0     N 2031   0.098  11.090   1.191  0.6087  0.5662 -0.4618
   16MOL0     C 2032   1.300  11.372   0.830 -0.2707  0.5170 -0.8829
   16MOL0     C 2033   1.399  11.394   0.736 -0.2568 -0.5923  0.1045
   16MOL0     C 2034   1.746  11.291   0.446  0.5367 -1.5071 -0.5746
   16MOL0     C 2035   1.722  11.398   0.357  0.5720 -1.3918  0.3126
   16MOL0     C 2036   1.822  11.453   0.275 -0.2714  0.8162  0.3711
   16MOL0     C 2037   1.953  11.394   0.279  0.2403 -0.2113  0.1973
   16MOL0     O 2038   2.042  11.442   0.185  0.7767  0.4810  0.9810
   16MOL0     C 2039   2.134  11.544   0.227  0.7880  0.4773  0.5250
   16MOL0     C 2040   2.240  11.468   0.297 -0.7273  0.2874  0.5680
   16MOL0     C 2041   2.318  11.370   0.206 -0.3680  0.2300  0.7526
   16MOL0     C 2042   2.428  11.297   0.285  0.5118  0.6531 -0.4744
   16MOL0     C 2043   2.527  11.240   0.192 -0.4365 -1.0707 -0.9473
   16MOL0     C 2044   2.629  11.197   0.132 -0.0310  0.3457 -0.3953
   16MOL0     C 2045   1.969  11.275   0.354 -0.3791 -0.6326  0.5941
   16MOL0     C 2046   1.871  11.228   0.440 -0.2304 -0.2056  0.3107
   16MOL0     H 2047   1.403  11.078   0.599 -1.2224  2.0747 -2.9404
   16MOL0     H 2048   1.196  11.064   0.753 -2.4255  1.7876 -1.0823
   16MOL0     H 2049   1.027  11.422   0.905  0.5034 -0.7199 -2.1902
   16MOL0     H 2050   1.128  11.370   1.052 -0.8601  0.8298 -0.1503
   16MOL0     H 2051   0.894  11.399   1.115  1.9609  0.5965  0.3927
   16MOL0     H 2052   0.951  11.230   1.128 -0.4296 -1.3175 -0.4919
   16MOL0     H 2053   0.815  11.155   0.948 -1.0805 -1.2105  0.9248
   16MOL0     H 2054   0.800  11.325   0.889  2.3828  1.6694  0.9006
   16MOL0     H 2055   0.702  11.219   1.166 -0.2550  1.8066  0.5911
   16MOL0     H 2056   0.642  11.362   1.084  5.0102  2.5014 -0.7530
   16MOL0     H 2057   0.586  11.080   0.996 -0.6344  0.3840 -2.7196
   16MOL0     H 2058   0.549  11.218   0.905  3.1764  2.0186 -0.3238
   16MOL0     H 2059   0.346  11.142   1.038 -0.6631 -2.7698  2.8926
   16MOL0     H 2060   0.394  11.302   1.094  1.4144  0.8272 -0.9339
   16MOL0     H 2061   0.470  11.042   1.224 -0.3411 -0.1839  1.3695
   16MOL0     H 2062   0.512  11.207   1.279  1.7893 -1.5720 -1.1001
   16MOL0     H 2063   0.278  11.268   1.303  3.5930  1.7884 -1.5582
   16MOL0     H 2064   0.338  11.145   1.410  0.3366  2.1042 -0.3985
   16MOL0     H 2065   0.334  10.882   1.309  0.1447  1.3736  0.6983
   16MOL0     H 2066   0.081  10.734   1.042  0.4519  0.0666 -0.1982
   16MOL0     H 2067   0.093  10.680   1.210 -0.5546  0.6520 -0.0718
   16MOL0     H 2068   0.238  10.555   1.080 -1.0007  0.4476 -1.4335
   16MOL0     H 2069   0.348  10.650   1.170 -0.1005 -0.8235 -0.9699
   16MOL0     H 2070   0.266  10.704   0.876  1.4929 -1.8334 -2.1841
   16MOL0     H 2071   0.347  10.818   0.968  2.8255 -0.4501  1.8859
   16MOL0     H 2072   0.477  10.663   0.795 -1.7043 -0.9798  0.0070
   16MOL0     H 2073   0.460  10.535   0.914  0.1492  0.9252  2.4132
   16MOL0     H 2074   0.722  10.479   0.992 -2.1695  1.6902  0.0297
   16MOL0     H 2075   0.961  10.478   0.904  0.9666  1.1335 -1.6943
   16MOL0     H 2076   1.235  10.732   0.456  1.2258 -0.2975 -0.9047
   16MOL0     H 2077   1.471  10.668   0.435 -4.4295 -0.3121 -2.2173
   16MOL0     H 2078   1.686  10.828   0.436 -1.2747 -0.1595  2.1091
   16MOL0     H 2079   1.690  10.652   0.412 -1.9890  0.0959  0.7676
   16MOL0     H 2080   1.903  10.714   0.386 -0.7707  1.3929 -0.5207
   16MOL0     H 2081   1.897  10.623   0.536 -1.3083 -0.8668 -1.4197
   16MOL0     H 2082   1.906  10.843   0.664 -2.7408 -3.0351  0.1823
   16MOL0     H 2083   1.924  10.915   0.499 -0.2266 -0.1777  0.5761
   16MOL0     H 2084   2.141  10.900   0.623  0.2656  4.9335 -5.5263
   16MOL0     H 2085   2.132  10.718   0.619  1.0540  1.6993  0.2457
   16MOL0     H 2086   2.119  10.904   0.374  1.8333  0.5864  0.1613
   16MOL0     H 2087   2.118  10.732   0.389  0.4217  0.7217 -0.6298
   16MOL0     H 2088   2.347  10.701   0.459  2.3325 -1.1639 -1.4327
   16MOL0     H 2089   2.357  10.857   0.508 -0.0835 -2.6683  0.6878
   16MOL0     H 2090   2.333  10.741   0.229 -0.2731  1.2075 -0.3637
   16MOL0     H 2091   2.303  10.911   0.232  1.2085  0.3913 -1.5052
   16MOL0     H 2092   2.527  10.889   0.177  1.3481 -2.0466 -0.5341
   16MOL0     H 2093   2.554  10.759   0.288 -1.1253  0.8691  3.1859
   16MOL0     H 2094   1.564  10.785   0.830 -0.5827  1.2231  1.4932
   16MOL0     H 2095   1.325  10.831   0.870 -2.0445 -2.3990 -0.2510
   16MOL0     H 2096   0.905  10.878   0.766 -0.9693 -0.8146 -0.4836
   16MOL0     H 2097   0.687  10.890   0.904  0.4414 -0.4055 -1.7830
   16MOL0     H 2098   1.276  11.436   0.915  3.8029 -0.5621  1.3627
   16MOL0     H 2099   1.451  11.488   0.725 -1.8563  0.1261 -1.8383
   16MOL0     H 2100   1.633  11.459   0.368  0.0521 -1.9309 -0.7514
   16MOL0     H 2101   1.795  11.532   0.205  1.6105 -0.8208 -2.4040
   16MOL0     H 2102   2.076  11.611   0.291  2.1886  0.8061  1.4921
   16MOL0     H 2103   2.177  11.604   0.146  0.0084 -0.2836 -0.4684
   16MOL0     H 2104   2.307  11.544   0.340 -0.6398  0.5202  0.0310
   16MOL0     H 2105   2.204  11.408   0.381 -0.0970 -0.2169  0.4799
   16MOL0     H 2106   2.371  11.419   0.124  1.8897 -0.9370  1.4230
   16MOL0     H 2107   2.241  11.299   0.175  2.4139 -1.2831 -3.5837
   16MOL0     H 2108   2.485  11.362   0.352 -1.4144  2.0022 -0.0622
   16MOL0     H 2109   2.386  11.222   0.353  0.2674  0.9013 -0.3493
   16MOL0     H 2110   2.725  11.195   0.085 -0.7900  3.8874 -2.5405
   16MOL0     H 2111   2.064  11.224   0.339 -1.4657 -2.2079 -1.4279
   16MOL0     H 2112   1.900  11.146   0.504  0.7364 -0.6339 -0.6653
   17MOL0     O 2113   5.462   6.477   7.916 -0.5978 -0.4296  0.5793
   17MOL0     C 2114   5.543   6.490   8.012  0.4873 -0.0504  0.6339
   17MOL0     O 2115   5.611   6.603   8.038 -0.2429  0.9708  0.6459
   17MOL0     C 2116   5.589   6.711   7.955  0.1456 -0.1006  0.2753
   17MOL0     C 2117   5.677   6.730   7.856  0.0688 -0.2196  0.5757
   17MOL0     C 2118   5.664   6.845   7.774 -0.2289  0.6763  0.4060
   17MOL0     C 2119   5.573   6.948   7.792  0.4861  0.2101 -0.3793
   17MOL0     O 2120   5.561   7.059   7.699 -0.5465  0.4869 -0.1039
   17MOL0     C 2121   5.454   7.147   7.712 -0.5206 -0.3632  0.1047
   17MOL0     C 2122   5.464   7.271   7.619 -0.6021 -0.2273 -0.0903
   17MOL0     C 2123   5.413   7.232   7.472 -0.5744 -0.0279  0.4103
   17MOL0     C 2124   5.459   7.332   7.373 -0.5293 -0.3228  0.2209
   17MOL0     C 2125   5.607   7.309   7.348  0.5556  0.3016  0.5098
   17MOL0     C 2126   5.671   7.425   7.262 -0.2447  1.0522  0.8826
   17MOL0     C 2127   5.653   7.568   7.328  1.0494 -0.4612  0.3593
   17MOL0     C 2128   5.745   7.683   7.282  0.3694 -0.1751  1.4452
   17MOL0     N 2129   5.885   7.677   7.318 -0.1655 -1.1474 -0.1864
   17MOL0     C 2130   5.988   7.637   7.241 -0.0109 -0.2132  0.2679
   17MOL0     C 2131   6.105   7.657   7.310  1.4215 -0.9078  0.1479
   17MOL0     C 2132   6.241   7.621   7.262  0.3011  0.4446 -0.6903
   17MOL0     C 2133   6.357   7.699   7.331 -0.5901  1.4738 -0.1417
   17MOL0     C 2134   6.480   7.625   7.294  1.0360  0.4176 -0.0584
   17MOL0     C 2135   6.597   7.673   7.379  0.0726 -1.0897 -0.9033
   17MOL0     O 2136   6.716   7.660   7.303  0.5363  0.3789  0.6741
   17MOL0     C 2137   6.833   7.697   7.347 -0.0469  0.6565  0.5142
   17MOL0     C 2138   6.849   7.762   7.472 -0.6672 -0.2958  0.3167
   17MOL0     C 2139   6.986   7.784   7.522 -0.2092 -0.1812 -0.0382
   17MOL0     C 2140   7.098   7.768   7.436 -0.6947  0.1018  0.1967
   17MOL0     C 2141   7.238   7.805   7.476 -0.5253  0.7314 -0.4263
   17MOL0     O 2142   7.261   7.806   7.612  0.0518 -0.3562  0.9718
   17MOL0     C 2143   7.381   7.877   7.650  0.4103 -0.9434 -0.0389
   17MOL0     C 2144   7.429   7.990   7.589 -0.2496 -0.3381  0.4970
   17MOL0     C 2145   7.554   8.046   7.632 -0.2022  0.3261  0.0308
   17MOL0     C 2146   7.625   7.999   7.740 -0.2846 -0.1790 -0.3441
   17MOL0     O 2147   7.738   8.056   7.794 -0.5319  0.6238  0.6759
   17MOL0     C 2148   7.807   8.168   7.736  0.3957  0.6007 -0.1578
   17MOL0     C 2149   7.931   8.186   7.828 -0.0595 -0.1757  0.2398
   17MOL0     C 2150   8.037   8.289   7.776 -0.0568  0.1929  0.4733
   17MOL0     C 2151   8.135   8.327   7.888  0.5709 -0.3082  1.2817
   17MOL0     C 2152   8.267   8.383   7.838  0.2661  0.4524  0.3446
   17MOL0     C 2153   8.366   8.402   7.952  0.4845  0.5751  0.0300
   17MOL0     C 2154   8.474   8.491   7.907 -0.4872  0.6185 -0.6019
   17MOL0     C 2155   8.569   8.522   8.023  0.6652  0.0243 -0.2033
   17MOL0    Cl 2156   8.735   8.576   7.970  0.3512  0.2009 -0.2606
   17MOL0     C 2157   7.571   7.882   7.800 -0.3048 -0.0278  0.1485
   17MOL0     C 2158   7.454   7.819   7.755 -0.7112  0.4650 -0.4004
   17MOL0     O 2159   7.325   7.825   7.389  0.3116  0.1771 -0.0306
   17MOL0     C 2160   7.069   7.710   7.312  0.1887  0.4453 -0.4248
   17MOL0     C 2161   6.939   7.672   7.267 -0.0665  0.7898 -0.2653
   17MOL0     N 2162   6.065   7.723   7.431 -0.2469 -0.1717  0.5584
   17MOL0     N 2163   5.934   7.728   7.434  0.8721  0.0338  0.1164
   17MOL0     C 2164   5.480   6.922   7.885 -0.3713 -0.3184 -0.0128
   17MOL0     C 2165   5.480   6.802   7.964 -0.0001  0.5150 -1.9065
   17MOL0     C 2166   5.584   6.369   8.084 -0.3870  0.8224 -0.3557
   17MOL0     C 2167   5.640   6.375   8.216 -0.6142 -0.1108  0.7184
   17MOL0     C 2168   5.691   6.264   8.282 -0.2558  0.8299  0.1287
   17MOL0     C 2169   5.677   6.138   8.212  0.2734 -0.3057 -0.4833
   17MOL0     O 2170   5.734   6.020   8.255 -0.3566  0.2668  0.2526
   17MOL0     C 2171   5.770   6.017   8.398  0.3190  0.1873  0.3757
   17MOL0     C 2172   5.834   5.878   8.433 -0.9787 -0.9365 -0.8530
   17MOL0     C 2173   5.729   5.768   8.432 -0.7595 -0.0376 -0.2620
   17MOL0     C 2174   5.784   5.640   8.504 -0.2277  0.6461 -0.4043
   17MOL0     C 2175   5.690   5.528   8.495  0.1897  0.2990  0.5108
   17MOL0     C 2176   5.611   5.434   8.492  1.2924 -0.0163 -0.2658
   17MOL0     C 2177   5.612   6.128   8.092  0.8915  0.4116 -0.2286
   17MOL0     C 2178   5.571   6.239   8.023 -0.0567 -0.8924 -0.0230
   17MOL0     H 2179   5.757   6.660   7.836 -0.0768 -0.1841 -0.1766
   17MOL0     H 2180   5.723   6.853   7.683 -1.9603 -1.6335 -1.0171
   17MOL0     H 2181   5.460   7.183   7.815 -0.1274  1.3934 -0.5029
   17MOL0     H 2182   5.361   7.094   7.690 -1.2463  0.8275  0.2331
   17MOL0     H 2183   5.563   7.317   7.621 -0.2344 -0.7462 -2.4849
   17MOL0     H 2184   5.405   7.354   7.659 -1.1702 -0.1691 -1.0075
   17MOL0     H 2185   5.304   7.231   7.460 -0.4022 -0.0871 -1.3747
   17MOL0     H 2186   5.446   7.131   7.446  1.4529  0.8932 -0.7917
   17MOL0     H 2187   5.408   7.327   7.277  3.0991  1.3184 -2.0378
   17MOL0     H 2188   5.438   7.432   7.413 -1.8336 -0.1573 -0.8422
   17MOL0     H 2189   5.608   7.210   7.301 -2.8954  1.6435 -2.8690
   17MOL0     H 2190   5.661   7.305   7.444  0.0312  1.7175  0.8922
   17MOL0     H 2191   5.628   7.427   7.162 -0.8440  2.0219  1.1375
   17MOL0     H 2192   5.776   7.402   7.245 -0.9616 -1.0517 -1.2804
   17MOL0     H 2193   5.548   7.594   7.310  0.8620 -2.3501 -1.6350
   17MOL0     H 2194   5.677   7.564   7.435 -2.1500  4.7770  1.6859
   17MOL0     H 2195   5.699   7.771   7.327 -3.8796 -0.3666 -1.8929
   17MOL0     H 2196   5.736   7.692   7.174  2.4831  2.4952  1.3903
   17MOL0     H 2197   5.978   7.587   7.145 -0.1590 -0.7919  0.5804
   17MOL0     H 2198   6.245   7.649   7.157 -0.7379  0.0575 -0.8466
   17MOL0     H 2199   6.248   7.515   7.288  2.2271  0.6998 -0.0215
   17MOL0     H 2200   6.349   7.705   7.440  0.5925 -0.4714  0.1039
   17MOL0     H 2201   6.358   7.804   7.300 -1.9601  3.0288  4.2855
   17MOL0     H 2202   6.479   7.517   7.316 -1.0867  0.9137  2.8152
   17MOL0     H 2203   6.485   7.635   7.185  0.6339  0.7092 -0.0521
   17MOL0     H 2204   6.605   7.624   7.477 -0.1365 -0.9909 -0.8352
   17MOL0     H 2205   6.585   7.779   7.403  2.5587 -1.3908  2.4129
   17MOL0     H 2206   6.769   7.775   7.543 -1.4894 -1.5085 -0.3679
   17MOL0     H 2207   7.004   7.812   7.625  0.9034 -0.1237 -0.2449
   17MOL0     H 2208   7.379   8.026   7.500  1.5174 -1.0178 -0.8323
   17MOL0     H 2209   7.587   8.140   7.591  1.2257 -0.2591 -0.2358
   17MOL0     H 2210   7.740   8.254   7.737 -0.0376  0.3077  2.6003
   17MOL0     H 2211   7.839   8.151   7.632 -1.9491  2.2157 -1.2388
   17MOL0     H 2212   7.976   8.087   7.838  2.6768  1.1103  1.5633
   17MOL0     H 2213   7.894   8.218   7.926  2.8349 -0.1165  1.4068
   17MOL0     H 2214   7.993   8.382   7.739 -2.2535 -0.9945 -0.1154
   17MOL0     H 2215   8.083   8.236   7.691 -0.8699 -1.2784  0.9167
   17MOL0     H 2216   8.089   8.397   7.960 -0.1437  0.5428  0.0394
   17MOL0     H 2217   8.163   8.234   7.938  0.6003 -1.3470 -0.6008
   17MOL0     H 2218   8.255   8.479   7.786  1.3332 -0.8140 -2.4444
   17MOL0     H 2219   8.314   8.325   7.758  0.9870  0.4432  0.7699
   17MOL0     H 2220   8.388   8.305   7.997  1.0350 -0.0992 -1.6137
   17MOL0     H 2221   8.319   8.456   8.034  0.5285 -0.0339  0.4620
   17MOL0     H 2222   8.526   8.438   7.827 -1.5081 -0.0007 -0.8752
   17MOL0     H 2223   8.438   8.584   7.862  2.3626  0.4900 -3.5744
   17MOL0     H 2224   8.580   8.424   8.071 -3.1721 -0.0799  0.8357
   17MOL0     H 2225   8.520   8.595   8.088  1.0938  1.3681 -1.3428
   17MOL0     H 2226   7.623   7.841   7.886  1.2206 -0.1287 -0.7717
   17MOL0     H 2227   7.407   7.737   7.808 -1.0807  0.3395 -0.9206
   17MOL0     H 2228   7.152   7.678   7.250  1.1112  0.1306  0.9193
   17MOL0     H 2229   6.929   7.635   7.166 -1.5257 -2.3784  0.8940
   17MOL0     H 2230   5.398   6.991   7.904  0.9641  1.3962 -0.1696
   17MOL0     H 2231   5.411   6.788   8.048  1.7529  1.4336 -0.2377
   17MOL0     H 2232   5.634   6.469   8.269 -2.2870  1.0808 -1.4396
   17MOL0     H 2233   5.730   6.284   8.381  0.8110  1.1912 -0.3528
   17MOL0     H 2234   5.680   6.037   8.457 -2.3548 -0.0282 -3.2801
   17MOL0     H 2235   5.843   6.097   8.411 -1.0215  1.3024  1.2597
   17MOL0     H 2236   5.919   5.858   8.367  0.3252  1.2944  0.0133
   17MOL0     H 2237   5.883   5.889   8.531 -0.2805  0.2483 -1.3059
   17MOL0     H 2238   5.708   5.747   8.327  0.7850  1.2173 -0.8513
   17MOL0     H 2239   5.636   5.796   8.483 -0.4744 -0.3534  0.4419
   17MOL0     H 2240   5.868   5.599   8.448 -0.7205 -0.3780 -0.4138
   17MOL0     H 2241   5.817   5.664   8.605 -1.7418  0.1215  0.2414
   17MOL0     H 2242   5.538   5.356   8.497  1.1033 -0.0694 -2.8007
   17MOL0     H 2243   5.584   6.025   8.074 -1.2142  0.5739  1.5658
   17MOL0     H 2244   5.516   6.217   7.932  1.5888 -2.0804 -0.7900
   18MOL0     O 2245   5.582   2.167   1.405 -0.1739  0.1166 -0.1927
   18MOL0     C 2246   5.599   2.279   1.359 -0.3440 -0.4783  0.1512
   18MOL0     O 2247   5.500   2.371   1.327 -0.2913 -0.5568 -0.8629
   18MOL0     C 2248   5.371   2.337   1.335 -0.1556  0.9166 -0.2748
   18MOL0     C 2249   5.316   2.220   1.274  0.1433 -0.2731 -0.2337
   18MOL0     C 2250   5.180   2.199   1.269  0.1121 -0.2781  0.0010
   18MOL0     C 2251   5.092   2.302   1.325 -0.5641  0.6966 -0.0968
   18MOL0     O 2252   4.953   2.290   1.321  0.2684 -0.1750 -0.0448
   18MOL0     C 2253   4.885   2.175   1.270  0.3482  0.2017  0.3439
   18MOL0     C 2254   4.737   2.203   1.264  0.8225 -0.3047 -0.4278
   18MOL0     C 2255   4.651   2.076   1.210  1.0443 -0.6706  0.8045
   18MOL0     C 2256   4.499   2.116   1.193  1.0783 -0.6933 -0.9881
   18MOL0     C 2257   4.479   2.201   1.068  0.6694  0.0001 -0.3581
   18MOL0     C 2258   4.327   2.223   1.042  0.3416 -0.1785  0.6873
   18MOL0     C 2259   4.254   2.306   1.152 -0.5333 -0.4011 -0.3470
   18MOL0     C 2260   4.116   2.346   1.122  0.3889 -0.6565  0.6166
   18MOL0     N 2261   4.022   2.225   1.121 -0.1285  0.5783  0.2894
   18MOL0     C 2262   4.011   2.132   1.223  0.1162 -0.4977  0.1327
   18MOL0     C 2263   3.927   2.038   1.166 -0.3080 -0.7003 -1.1854
   18MOL0     C 2264   3.891   1.921   1.246  0.4338  0.3799 -0.3055
   18MOL0     C 2265   3.759   1.940   1.322 -0.3806 -0.2068  0.1456
   18MOL0     C 2266   3.648   1.947   1.220  0.0993 -0.5267 -0.4895
   18MOL0     C 2267   3.509   1.938   1.281  0.1449 -0.2088  0.0419
   18MOL0     O 2268   3.412   1.959   1.177 -0.1109  0.3232  0.0395
   18MOL0     C 2269   3.294   2.003   1.225 -0.0199 -0.2968  0.4773
   18MOL0     C 2270   3.191   1.910   1.234 -0.7828 -0.5011  0.5231
   18MOL0     C 2271   3.063   1.960   1.277 -0.2303  1.1248 -0.0661
   18MOL0     C 2272   3.040   2.095   1.299  0.0498 -0.1228 -0.3460
   18MOL0     C 2273   2.908   2.145   1.338  0.7651  0.3527  0.2250
   18MOL0     O 2274   2.798   2.058   1.317  0.0231  0.1536  0.6607
   18MOL0     C 2275   2.673   2.070   1.371  0.0524  0.0621 -0.5746
   18MOL0     C 2276   2.569   2.017   1.292 -0.7126 -0.0646  0.6742
   18MOL0     C 2277   2.435   2.022   1.337 -0.5924 -0.2068  0.9516
   18MOL0     C 2278   2.406   2.087   1.454  0.0603 -0.1920  0.3416
   18MOL0     O 2279   2.271   2.092   1.487  0.0641 -0.0882 -0.2545
   18MOL0     C 2280   2.237   2.174   1.603 -0.0994  0.6673  0.2001
   18MOL0     C 2281   2.086   2.188   1.593  0.1007  0.5956 -0.5173
   18MOL0     C 2282   2.006   2.257   1.703  0.3502 -0.1302 -0.4716
   18MOL0     C 2283   1.859   2.281   1.659 -0.3216  0.0261  0.9426
   18MOL0     C 2284   1.777   2.318   1.774 -0.1194 -0.5837 -0.5834
   18MOL0     C 2285   1.631   2.316   1.735  0.7096 -0.4751  0.6559
   18MOL0     C 2286   1.529   2.308   1.851  0.4346  0.0847  0.0704
   18MOL0     C 2287   1.545   2.433   1.938 -0.2803 -0.1411 -0.1610
   18MOL0    Cl 2288   1.432   2.429   2.063  0.1905 -0.1665  0.0616
   18MOL0     C 2289   2.507   2.136   1.533 -0.4743  0.4579 -0.3753
   18MOL0     C 2290   2.640   2.135   1.494 -0.0822  0.2367 -0.3845
   18MOL0     O 2291   2.899   2.249   1.406  0.4477  0.0115 -0.0616
   18MOL0     C 2292   3.143   2.191   1.291 -0.6711  0.3862 -0.0594
   18MOL0     C 2293   3.269   2.145   1.246 -0.3156 -0.2531 -0.0961
   18MOL0     N 2294   3.885   2.075   1.038 -0.7865 -0.7820 -0.8227
   18MOL0     N 2295   3.953   2.186   1.007  0.2596 -0.0736  0.5136
   18MOL0     C 2296   5.143   2.415   1.386 -0.6917  0.1554 -0.8003
   18MOL0     C 2297   5.288   2.430   1.397  0.5323  0.2641 -1.2577
   18MOL0     C 2298   5.737   2.320   1.322 -0.8704 -0.5190  0.6168
   18MOL0     C 2299   5.840   2.236   1.361 -0.2004 -0.9771 -0.0874
   18MOL0     C 2300   5.977   2.274   1.333  0.7533  0.5285  0.4654
   18MOL0     C 2301   6.009   2.372   1.251 -0.1327 -0.6242  0.0207
   18MOL0     O 2302   6.136   2.387   1.224 -0.3022 -0.1288 -0.1051
   18MOL0     C 2303   6.164   2.404   1.089 -0.4886  1.2593 -0.1823
   18MOL0     C 2304   6.286   2.317   1.066 -0.3202  0.3621 -0.3575
   18MOL0     C 2305   6.336   2.334   0.917  0.1894  0.2014  0.1382
   18MOL0     C 2306   6.425   2.221   0.878 -0.2867 -0.7432 -0.3688
   18MOL0     C 2307   6.547   2.218   0.966  0.2501 -0.2106  0.0801
   18MOL0     C 2308   6.637   2.215   1.046  0.5798 -0.3773 -0.1858
   18MOL0     C 2309   5.907   2.464   1.217  0.0640  0.2088 -0.0675
   18MOL0     C 2310   5.773   2.442   1.258  0.8365  0.2598 -0.0590
   18MOL0     H 2311   5.384   2.147   1.232 -0.1399 -0.2838 -0.6696
   18MOL0     H 2312   5.138   2.103   1.239  2.6117 -2.0636  1.8116
   18MOL0     H 2313   4.918   2.091   1.331  0.8824  1.1345  1.3762
   18MOL0     H 2314   4.928   2.168   1.169  0.1735  0.2805  0.2629
   18MOL0     H 2315   4.716   2.286   1.195 -1.5282 -0.9820 -0.6119
   18MOL0     H 2316   4.703   2.236   1.362  1.2462  1.2769 -0.7749
   18MOL0     H 2317   4.663   1.994   1.281 -0.3715 -3.3548 -1.8171
   18MOL0     H 2318   4.698   2.041   1.117  3.3212  1.6874  0.9453
   18MOL0     H 2319   4.437   2.027   1.204 -0.1122  0.3708  1.9454
   18MOL0     H 2320   4.459   2.171   1.279 -0.2580 -1.1059 -1.3152
   18MOL0     H 2321   4.520   2.148   0.982 -0.5947 -2.1259  0.2861
   18MOL0     H 2322   4.521   2.301   1.085  1.6456 -0.3580 -0.6375
   18MOL0     H 2323   4.277   2.126   1.033  2.6003 -1.3905  0.6287
   18MOL0     H 2324   4.308   2.282   0.951 -2.3139 -0.8727  0.7087
   18MOL0     H 2325   4.250   2.245   1.243  1.4230  0.0545  0.0894
   18MOL0     H 2326   4.310   2.397   1.173 -0.5884 -0.5367  0.4282
   18MOL0     H 2327   4.100   2.389   1.023 -0.1306 -3.5651 -0.6624
   18MOL0     H 2328   4.080   2.419   1.195  0.5849  1.4500 -1.3067
   18MOL0     H 2329   4.044   2.133   1.326 -2.3395 -0.4499  0.9904
   18MOL0     H 2330   3.966   1.889   1.320  0.3429  0.9472  0.0323
   18MOL0     H 2331   3.880   1.838   1.175 -0.1105  1.3924 -1.4287
   18MOL0     H 2332   3.761   2.028   1.387 -0.7178 -0.0407 -0.0602
   18MOL0     H 2333   3.743   1.851   1.383 -0.0073  0.2799  0.9712
   18MOL0     H 2334   3.649   2.045   1.171  1.7656 -0.2370  0.0703
   18MOL0     H 2335   3.659   1.859   1.156  0.2670 -1.1530  0.3943
   18MOL0     H 2336   3.505   2.029   1.343 -0.7463  1.9592 -2.9656
   18MOL0     H 2337   3.487   1.850   1.342  1.0275 -0.6939 -0.3196
   18MOL0     H 2338   3.211   1.806   1.211  0.6305 -0.1246 -0.0542
   18MOL0     H 2339   2.987   1.884   1.289  1.0764 -0.5676 -1.7729
   18MOL0     H 2340   2.587   1.969   1.196  1.1384  1.5222  0.1622
   18MOL0     H 2341   2.357   1.982   1.272  1.0977  1.9749 -2.7208
   18MOL0     H 2342   2.273   2.277   1.613 -0.4189  0.6248  2.4061
   18MOL0     H 2343   2.258   2.115   1.693  0.0660 -0.2452 -0.4303
   18MOL0     H 2344   2.039   2.092   1.567  0.1299 -0.1239  1.8894
   18MOL0     H 2345   2.073   2.247   1.502 -1.3033 -2.4959 -2.5290
   18MOL0     H 2346   2.045   2.355   1.729 -0.9826  0.1575  0.5631
   18MOL0     H 2347   2.006   2.197   1.795 -1.8748 -0.4098 -0.5995
   18MOL0     H 2348   1.848   2.360   1.584  0.3850  1.9374  2.7518
   18MOL0     H 2349   1.812   2.184   1.639 -1.6316  0.2773  2.5980
   18MOL0     H 2350   1.808   2.417   1.807 -0.6630 -0.7083  0.3409
   18MOL0     H 2351   1.791   2.248   1.858 -0.2816  2.1355  1.8572
   18MOL0     H 2352   1.614   2.241   1.656 -0.2039  0.4615 -0.0662
   18MOL0     H 2353   1.607   2.407   1.679 -3.6024 -1.4651  0.5681
   18MOL0     H 2354   1.430   2.306   1.805  0.1906  2.1115  0.4006
   18MOL0     H 2355   1.543   2.214   1.906 -0.5910 -0.4180 -0.4994
   18MOL0     H 2356   1.531   2.516   1.868  4.8097 -0.5929 -2.1673
   18MOL0     H 2357   1.647   2.435   1.976  0.3046 -1.6399 -1.5189
   18MOL0     H 2358   2.480   2.182   1.628 -2.9907 -0.2919 -0.6550
   18MOL0     H 2359   2.721   2.162   1.561  0.5899  1.2988 -1.5848
   18MOL0     H 2360   3.131   2.296   1.315 -1.8164 -0.1266  1.8451
   18MOL0     H 2361   3.346   2.221   1.239  2.1801 -2.7098 -1.2695
   18MOL0     H 2362   5.085   2.497   1.427 -0.6788 -1.0693  1.8445
   18MOL0     H 2363   5.323   2.506   1.466 -1.2330 -0.1084  0.1265
   18MOL0     H 2364   5.832   2.142   1.415 -0.9311 -1.0492 -0.3172
   18MOL0     H 2365   6.062   2.211   1.359  3.0090  1.6392 -3.5012
   18MOL0     H 2366   6.186   2.509   1.069  0.7810  1.2632  1.0211
   18MOL0     H 2367   6.082   2.378   1.022 -0.6554  2.8635 -0.6426
   18MOL0     H 2368   6.369   2.328   1.137  0.6592  1.4130 -1.6186
   18MOL0     H 2369   6.269   2.210   1.082  0.9741  0.2778  0.6299
   18MOL0     H 2370   6.380   2.432   0.897  2.4013 -0.2322  2.4488
   18MOL0     H 2371   6.247   2.321   0.854  0.8082 -0.4026 -0.6328
   18MOL0     H 2372   6.373   2.127   0.898 -1.5348  0.3140  1.6533
   18MOL0     H 2373   6.450   2.232   0.772 -0.9209 -0.6914 -0.5124
   18MOL0     H 2374   6.724   2.203   1.109  1.9691 -0.1205 -1.9812
   18MOL0     H 2375   5.939   2.552   1.162 -1.8647  3.0074  2.9212
   18MOL0     H 2376   5.691   2.512   1.243  0.0078 -0.9215 -1.2913
   19MOL0     O 2377   9.728   8.644   8.234 -0.6195  0.5403  0.3515
   19MOL0     C 2378   9.657   8.662   8.132 -0.4920 -0.7521 -0.0568
   19MOL0     O 2379   9.522   8.675   8.128  0.6175  0.7250 -0.6410
   19MOL0     C 2380   9.436   8.652   8.239 -0.8083  0.0142 -0.3586
   19MOL0     C 2381   9.304   8.613   8.219  0.4010  0.7644 -0.2803
   19MOL0     C 2382   9.217   8.611   8.326 -1.2352 -0.0034  0.6267
   19MOL0     C 2383   9.247   8.653   8.454 -0.1361  0.8280 -0.4223
   19MOL0     O 2384   9.142   8.658   8.545 -0.5062  0.1321  0.0539
   19MOL0     C 2385   9.177   8.677   8.680 -0.7481 -0.4031 -0.1927
   19MOL0     C 2386   9.061   8.627   8.765 -0.0577 -0.8553  0.4206
   19MOL0     C 2387   9.098   8.535   8.880  0.1414  0.2726  0.3437
   19MOL0     C 2388   9.176   8.598   8.996 -0.3369  0.4267 -0.3934
   19MOL0     C 2389   9.237   8.501   9.095 -1.1171 -0.3534 -0.0711
   19MOL0     C 2390   9.155   8.372   9.120  0.5685  0.6563 -0.4557
   19MOL0     C 2391   9.211   8.280   9.222 -0.2403  0.4767  0.0522
   19MOL0     C 2392   9.099   8.230   9.320 -0.2319 -0.4130  0.0539
   19MOL0     N 2393   8.990   8.158   9.251 -0.8638  0.2699  0.1820
   19MOL0     C 2394   8.856   8.150   9.292 -0.8418 -0.1626  0.3975
   19MOL0     C 2395   8.794   8.088   9.190 -0.8085  0.6060 -0.7829
   19MOL0     C 2396   8.644   8.059   9.189 -0.3585 -0.6674 -0.0265
   19MOL0     C 2397   8.618   7.947   9.094 -0.0600 -0.2720  0.4253
   19MOL0     C 2398   8.474   7.893   9.111  0.5198  0.1783  0.6746
   19MOL0     C 2399   8.380   8.006   9.078 -0.7503  0.3880 -0.0712
   19MOL0     O 2400   8.261   7.928   9.091 -0.0626 -0.2105 -0.9282
   19MOL0     C 2401   8.139   7.991   9.084 -0.1002  0.5689  0.1760
   19MOL0     C 2402   8.113   8.129   9.072 -0.8312 -0.2907  0.3419
   19MOL0     C 2403   7.985   8.179   9.058  0.6892  0.1787  0.1585
   19MOL0     C 2404   7.875   8.101   9.059  0.2576 -0.1056 -0.2615
   19MOL0     C 2405   7.731   8.154   9.028  0.0504 -0.2957  0.0651
   19MOL0     O 2406   7.637   8.061   8.999 -0.6538  0.0682 -0.8281
   19MOL0     C 2407   7.506   8.089   8.990  0.2156 -0.1335  0.3476
   19MOL0     C 2408   7.431   8.127   9.093  0.1507  0.8052  0.2987
   19MOL0     C 2409   7.290   8.129   9.073 -1.1067 -0.9336  0.5388
   19MOL0     C 2410   7.232   8.118   8.945  0.2588 -0.3419 -0.5694
   19MOL0     O 2411   7.095   8.146   8.928 -0.0049  0.0563 -0.6336
   19MOL0     C 2412   7.035   8.118   8.801  0.1860 -0.3865 -0.1727
   19MOL0     C 2413   7.032   8.248   8.720  0.4298  0.2520 -1.0602
   19MOL0     C 2414   6.937   8.343   8.775  0.4579  0.3589 -0.5294
   19MOL0     C 2415   6.935   8.471   8.683  0.5308 -0.2420  0.2073
   19MOL0     C 2416   6.835   8.574   8.742 -1.1528 -0.4906  0.5368
   19MOL0     C 2417   6.876   8.638   8.876 -0.0278  0.5041  0.0090
   19MOL0     C 2418   6.805   8.773   8.890  0.2621  0.1165  0.4918
   19MOL0     C 2419   6.815   8.826   9.034 -0.6112  0.1052  0.1635
   19MOL0    Cl 2420   6.707   8.723   9.137 -0.4570  0.6284  0.3322
   19MOL0     C 2421   7.319   8.079   8.835  0.2024 -0.1681 -0.5973
   19MOL0     C 2422   7.457   8.066   8.862 -0.2384 -0.0255  0.9998
   19MOL0     O 2423   7.716   8.274   9.020  0.0024  0.3481  0.0211
   19MOL0     C 2424   7.890   7.967   9.076 -0.2670 -0.5070 -0.5180
   19MOL0     C 2425   8.020   7.912   9.083  0.7103 -0.7574 -1.1614
   19MOL0     N 2426   8.880   8.047   9.100  0.2951 -0.1532 -0.0221
   19MOL0     N 2427   9.000   8.097   9.130  0.2254  0.3903 -0.2509
   19MOL0     C 2428   9.380   8.690   8.481  0.4417  0.1505 -0.7177
   19MOL0     C 2429   9.467   8.698   8.374  0.3371  0.0522  1.0593
   19MOL0     C 2430   9.724   8.703   8.001  0.7344 -0.4490 -0.2022
   19MOL0     C 2431   9.852   8.678   7.977 -0.7219 -0.6068  0.1605
   19MOL0     C 2432   9.916   8.709   7.855 -0.5610 -0.1924  0.6938
   19MOL0     C 2433   9.847   8.764   7.747  0.2405 -0.5242 -0.2086
   19MOL0     O 2434   9.896   8.814   7.626 -0.6960 -0.1506  0.2839
   19MOL0     C 2435  10.040   8.797   7.592 -0.0764  0.2298  0.0476
   19MOL0     C 2436  10.106   8.934   7.583 -0.1770  0.0779 -0.4195
   19MOL0     C 2437  10.250   8.920   7.516 -1.0395  1.1641 -0.5706
   19MOL0     C 2438  10.354   8.827   7.574 -0.0719 -0.2317 -0.1786
   19MOL0     C 2439  10.477   8.834   7.496 -0.2223  0.0671  0.0199
   19MOL0     C 2440  10.582   8.851   7.434 -0.2944  0.2955  0.3870
   19MOL0     C 2441   9.706   8.777   7.767  0.8017  0.4427  0.5493
   19MOL0     C 2442   9.649   8.747   7.890 -0.3072 -0.1801 -0.0437
   19MOL0     H 2443   9.271   8.601   8.116 -1.0809 -0.2142  0.2706
   19MOL0     H 2444   9.121   8.574   8.291  1.1247 -2.8884 -3.7108
   19MOL0     H 2445   9.198   8.782   8.703  0.9153 -0.7847  0.1761
   19MOL0     H 2446   9.269   8.629   8.715  0.3490  2.5367  1.3699
   19MOL0     H 2447   8.976   8.586   8.709  0.1482  0.4063 -0.8848
   19MOL0     H 2448   9.017   8.714   8.812 -2.1390 -1.0209 -1.0677
   19MOL0     H 2449   9.167   8.461   8.839  0.2497 -0.0522  1.0859
   19MOL0     H 2450   9.010   8.487   8.923  0.6961 -0.1807  0.9911
   19MOL0     H 2451   9.245   8.677   8.964 -1.0639 -0.2788 -4.1595
   19MOL0     H 2452   9.107   8.654   9.060 -0.2614  1.0380 -0.8430
   19MOL0     H 2453   9.255   8.566   9.181  0.4365  0.6392 -1.1047
   19MOL0     H 2454   9.336   8.475   9.056 -0.7451  0.4643  0.3037
   19MOL0     H 2455   9.149   8.317   9.026 -0.2230 -0.8348  0.4455
   19MOL0     H 2456   9.058   8.408   9.157  1.3848  1.0935  1.3629
   19MOL0     H 2457   9.259   8.200   9.165  0.2497 -0.3220  1.5367
   19MOL0     H 2458   9.280   8.335   9.285 -1.6656  1.1675  1.0679
   19MOL0     H 2459   9.058   8.317   9.372  3.0204  0.8327  0.7314
   19MOL0     H 2460   9.143   8.167   9.397  0.3181 -0.5522 -0.3686
   19MOL0     H 2461   8.809   8.192   9.380 -1.1475  0.7734 -0.1865
   19MOL0     H 2462   8.589   8.147   9.154 -5.1957 -3.0892  0.6929
   19MOL0     H 2463   8.609   8.051   9.292  0.7607  0.5334  0.4759
   19MOL0     H 2464   8.694   7.870   9.107  0.5441  0.7379  3.9961
   19MOL0     H 2465   8.617   7.991   8.994  0.6404 -0.5268  0.3040
   19MOL0     H 2466   8.461   7.813   9.037 -1.1478  1.9398 -1.0436
   19MOL0     H 2467   8.467   7.864   9.216  0.4610  2.2924  1.2976
   19MOL0     H 2468   8.398   8.042   8.977 -0.3502 -0.0910 -0.1709
   19MOL0     H 2469   8.384   8.084   9.155 -1.4762 -1.1673  1.6151
   19MOL0     H 2470   8.194   8.200   9.090 -1.1272  0.5023 -1.3409
   19MOL0     H 2471   7.970   8.285   9.042 -0.4534  0.0408  0.2648
   19MOL0     H 2472   7.478   8.148   9.188  4.5159  0.1654 -1.4720
   19MOL0     H 2473   7.228   8.145   9.160 -0.1721  3.8417  0.5737
   19MOL0     H 2474   6.935   8.085   8.831 -0.1571 -0.7480 -1.6113
   19MOL0     H 2475   7.073   8.040   8.734 -0.4902  0.0359 -1.0768
   19MOL0     H 2476   7.001   8.223   8.618 -2.6514 -0.3234 -0.1190
   19MOL0     H 2477   7.131   8.292   8.714 -1.7502  5.9618 -1.0391
   19MOL0     H 2478   6.966   8.377   8.875  2.1012  0.7862 -1.1168
   19MOL0     H 2479   6.839   8.294   8.768  0.3660  0.7478 -2.6005
   19MOL0     H 2480   7.030   8.523   8.685  0.0675  0.6648 -0.6676
   19MOL0     H 2481   6.914   8.458   8.577  0.7373  2.7390 -0.2659
   19MOL0     H 2482   6.733   8.534   8.750 -1.7816  1.1284  1.2639
   19MOL0     H 2483   6.823   8.655   8.670  2.7924 -0.2833 -0.0685
   19MOL0     H 2484   6.984   8.630   8.890 -0.3746 -4.6801  2.2364
   19MOL0     H 2485   6.840   8.572   8.956 -4.0451 -0.4783 -2.2914
   19MOL0     H 2486   6.850   8.850   8.826  3.5045 -0.1210  2.2464
   19MOL0     H 2487   6.701   8.762   8.858  1.1049  2.2904 -3.8862
   19MOL0     H 2488   6.793   8.934   9.036  1.3373  0.6521 -2.2722
   19MOL0     H 2489   6.918   8.812   9.066  0.1514  0.4823 -1.9659
   19MOL0     H 2490   7.296   8.061   8.730  0.3298 -0.8075 -0.5210
   19MOL0     H 2491   7.533   8.040   8.789  0.1772 -0.7360  1.6656
   19MOL0     H 2492   7.805   7.899   9.074 -0.1802 -0.6102 -1.5733
   19MOL0     H 2493   8.027   7.805   9.100  1.9420 -0.4258  0.7384
   19MOL0     H 2494   9.415   8.719   8.579  0.6729 -0.2105 -0.6906
   19MOL0     H 2495   9.573   8.721   8.384  1.3012 -1.6150 -3.1345
   19MOL0     H 2496   9.919   8.629   8.047  3.1495  3.6580 -0.1168
   19MOL0     H 2497  10.019   8.673   7.850 -1.3200 -2.4451  0.3262
   19MOL0     H 2498  10.052   8.763   7.488  0.4703 -0.1953  0.2424
   19MOL0     H 2499  10.093   8.720   7.649 -0.1269  1.6098  2.0586
   19MOL0     H 2500  10.042   8.993   7.518  0.3770  1.1841  0.0122
   19MOL0     H 2501  10.122   8.977   7.683 -2.0798  0.7178 -0.3651
   19MOL0     H 2502  10.297   9.018   7.519  0.9625  0.2481 -0.5442
   19MOL0     H 2503  10.227   8.899   7.411  0.5146 -0.7584 -0.5818
   19MOL0     H 2504  10.371   8.868   7.674  0.0832 -0.1321 -0.2445
   19MOL0     H 2505  10.329   8.721   7.570 -0.4810 -0.1299 -0.3890
   19MOL0     H 2506  10.676   8.875   7.387 -0.0347 -1.3697  0.0119
   19MOL0     H 2507   9.637   8.811   7.692 -1.7756 -1.5751  1.8157
   19MOL0     H 2508   9.543   8.763   7.906 -0.1202 -0.5506  1.9070
   20MOL0     O 2509   2.419   2.125   8.647  0.5758 -0.0060 -0.4295
   20MOL0     C 2510   2.453   2.101   8.534  0.6807  0.5749  0.7426
   20MOL0     O 2511   2.369   2.079   8.433 -0.4755 -0.0196 -0.0993
   20MOL0     C 2512   2.240   2.056   8.457  0.0726  0.9528  0.6595
   20MOL0     C 2513   2.155   2.130   8.388 -0.0226  0.2610  0.0791
   20MOL0     C 2514   2.018   2.138   8.424  0.2091  0.7740 -1.0747
   20MOL0     C 2515   1.971   2.049   8.519  0.0477 -0.3546  0.0325
   20MOL0     O 2516   1.836   2.061   8.562 -0.2805 -0.3396 -0.3446
   20MOL0     C 2517   1.818   2.163   8.664  0.0474 -0.5495  0.0673
   20MOL0     C 2518   1.677   2.166   8.717 -0.2737 -0.2159 -0.2518
   20MOL0     C 2519   1.569   2.206   8.623  0.1766 -0.5924 -0.0188
   20MOL0     C 2520   1.439   2.204   8.704  0.6206  0.0926  0.3220
   20MOL0     C 2521   1.311   2.224   8.606  0.2733  0.0807  0.1122
   20MOL0     C 2522   1.184   2.215   8.701  0.0106  0.7057  0.3369
   20MOL0     C 2523   1.145   2.354   8.758 -0.2230 -0.1554  0.6552
   20MOL0     C 2524   1.000   2.335   8.821 -0.5410 -0.7339  0.5918
   20MOL0     N 2525   0.956   2.471   8.864 -0.3049 -0.1435 -0.1974
   20MOL0     C 2526   0.831   2.517   8.887  0.4401 -0.1828  0.4554
   20MOL0     C 2527   0.847   2.629   8.969 -0.1943 -0.2333 -0.6582
   20MOL0     C 2528   0.743   2.710   9.042 -0.5393 -0.1799  0.0933
   20MOL0     C 2529   0.717   2.828   8.954 -0.1961 -1.2818  0.1602
   20MOL0     C 2530   0.608   2.804   8.843 -1.0955  0.2700 -0.0099
   20MOL0     C 2531   0.588   2.923   8.762 -0.2978 -0.4427 -1.2561
   20MOL0     O 2532   0.534   3.033   8.846 -0.0059 -0.3748  0.0189
   20MOL0     C 2533   0.396   3.049   8.849 -0.0076 -0.9173 -0.3113
   20MOL0     C 2534   0.295   2.973   8.781 -0.0596  0.2978 -0.0596
   20MOL0     C 2535   0.165   3.022   8.776 -0.4467 -0.3725  0.8184
   20MOL0     C 2536   0.124   3.136   8.845 -0.1548 -0.5617  0.4605
   20MOL0     C 2537  -0.017   3.177   8.857  0.2366 -0.2493 -0.1295
   20MOL0     O 2538  -0.050   3.268   8.952 -0.7724 -0.4142 -0.1354
   20MOL0     C 2539  -0.185   3.295   8.955 -0.1499 -0.7230 -0.3774
   20MOL0     C 2540  -0.245   3.265   9.080 -0.1646  0.5792  0.5452
   20MOL0     C 2541  -0.382   3.276   9.104 -0.5393 -0.5945  0.2477
   20MOL0     C 2542  -0.459   3.347   9.007  0.4130  0.2328  0.5169
   20MOL0     O 2543  -0.589   3.369   9.027 -0.1303 -0.2374  0.2039
   20MOL0     C 2544  -0.641   3.375   9.162  0.0419  0.1979 -0.1775
   20MOL0     C 2545  -0.793   3.398   9.164  0.4265 -0.0284 -0.3199
   20MOL0     C 2546  -0.828   3.530   9.093 -0.3451  1.3639  0.0928
   20MOL0     C 2547  -0.975   3.552   9.095 -0.0969 -0.1609 -0.3511
   20MOL0     C 2548  -1.011   3.661   8.993  0.3098 -0.2391 -0.0095
   20MOL0     C 2549  -1.113   3.758   9.050  0.5718  0.0147  0.0522
   20MOL0     C 2550  -1.073   3.841   9.172  0.1352 -0.4324  0.0937
   20MOL0     C 2551  -1.192   3.915   9.233  0.6391  0.1033 -0.3867
   20MOL0    Cl 2552  -1.289   3.804   9.332 -0.1211  0.3737  0.2236
   20MOL0     C 2553  -0.405   3.379   8.887 -0.3548 -0.5372  0.5484
   20MOL0     C 2554  -0.268   3.361   8.860  0.6405 -0.7195  0.0843
   20MOL0     O 2555  -0.093   3.114   8.783  0.5426 -0.5507 -0.1890
   20MOL0     C 2556   0.220   3.203   8.917 -0.0680  0.7342 -0.2491
   20MOL0     C 2557   0.356   3.167   8.916 -0.4706  0.5757  0.3165
   20MOL0     N 2558   0.981   2.669   8.963 -0.4323  0.2311 -0.4285
   20MOL0     N 2559   1.045   2.570   8.908  0.4867  0.1965  0.0805
   20MOL0     C 2560   2.055   1.955   8.572  0.8957  0.3404 -0.3003
   20MOL0     C 2561   2.183   1.950   8.541 -0.5039 -0.4720 -0.1044
   20MOL0     C 2562   2.595   2.104   8.503  0.7496 -0.1068  0.3431
   20MOL0     C 2563   2.646   2.112   8.370  0.5190 -0.2751 -0.6306
   20MOL0     C 2564   2.787   2.110   8.348 -0.9342 -0.2572  0.2707
   20MOL0     C 2565   2.880   2.122   8.449  0.8326 -0.4441 -0.0079
   20MOL0     O 2566   3.018   2.131   8.434 -0.7208  0.0606  0.5788
   20MOL0     C 2567   3.071   2.158   8.308  0.7323  0.4305  0.4009
   20MOL0     C 2568   3.224   2.185   8.326 -0.0568  0.5193  0.0145
   20MOL0     C 2569   3.306   2.057   8.353 -0.3898 -0.4920 -0.7629
   20MOL0     C 2570   3.458   2.082   8.386  0.6230 -0.2765  0.0169
   20MOL0     C 2571   3.523   2.137   8.274  0.4578  0.2332 -0.0161
   20MOL0     C 2572   3.571   2.194   8.180  0.3815 -0.0178  0.2406
   20MOL0     C 2573   2.825   2.109   8.578 -0.1549 -0.3643  0.0241
   20MOL0     C 2574   2.686   2.107   8.610 -0.4060 -0.5124  0.1492
   20MOL0     H 2575   2.196   2.205   8.322 -0.7376  1.4571  0.9707
   20MOL0     H 2576   1.963   2.219   8.378 -2.7751  0.1854  1.1401
   20MOL0     H 2577   1.843   2.261   8.624 -0.9410 -0.1499  0.4036
   20MOL0     H 2578   1.892   2.144   8.742  0.3974 -2.1683 -0.6157
   20MOL0     H 2579   1.680   2.227   8.808  0.8153  0.4139 -0.6840
   20MOL0     H 2580   1.648   2.066   8.753 -0.3761 -0.3361 -0.6636
   20MOL0     H 2581   1.557   2.137   8.540  0.8820  2.0181 -2.4304
   20MOL0     H 2582   1.591   2.304   8.581 -0.0818 -1.2364 -1.7003
   20MOL0     H 2583   1.412   2.110   8.753 -0.3641 -0.7314 -1.6644
   20MOL0     H 2584   1.445   2.284   8.777 -1.3218 -0.2301  0.8775
   20MOL0     H 2585   1.306   2.147   8.528  0.4022  1.4032 -1.2378
   20MOL0     H 2586   1.316   2.323   8.560  0.9330 -0.2535 -0.5468
   20MOL0     H 2587   1.200   2.146   8.784  2.3512  1.4063  0.5674
   20MOL0     H 2588   1.109   2.173   8.633 -0.4700  0.0058  1.2830
   20MOL0     H 2589   1.218   2.388   8.833  0.1300  0.8787 -0.1358
   20MOL0     H 2590   1.141   2.424   8.674 -2.8376 -0.4633  0.4291
   20MOL0     H 2591   0.991   2.260   8.900 -0.2469 -2.2757 -0.8003
   20MOL0     H 2592   0.937   2.294   8.741  2.8142 -3.4668 -0.8758
   20MOL0     H 2593   0.735   2.476   8.860 -0.7901  1.0799  2.6407
   20MOL0     H 2594   0.777   2.738   9.142  1.1491 -0.5774 -0.3396
   20MOL0     H 2595   0.654   2.650   9.059  0.4701 -1.2983  1.7265
   20MOL0     H 2596   0.805   2.883   8.918 -0.7424  0.2903  1.0988
   20MOL0     H 2597   0.664   2.887   9.029  0.6698 -0.7753  0.3922
   20MOL0     H 2598   0.640   2.733   8.767 -2.2711  0.4476 -0.7002
   20MOL0     H 2599   0.514   2.762   8.880 -1.2463  0.6864  0.0795
   20MOL0     H 2600   0.518   2.894   8.683 -1.7376 -1.3602  0.2824
   20MOL0     H 2601   0.678   2.970   8.722 -0.7976  2.6189  0.8146
   20MOL0     H 2602   0.324   2.887   8.722  0.1229 -0.3962  1.0287
   20MOL0     H 2603   0.092   2.960   8.726 -1.3039  0.4827  0.9741
   20MOL0     H 2604  -0.178   3.223   9.155  1.7838  2.1866 -0.2170
   20MOL0     H 2605  -0.428   3.224   9.187 -0.9169 -3.0729 -1.4248
   20MOL0     H 2606  -0.590   3.459   9.211  0.3500  0.3144 -0.6916
   20MOL0     H 2607  -0.627   3.287   9.227  0.2849 -0.2034 -0.7627
   20MOL0     H 2608  -0.828   3.396   9.268  0.5076 -1.8853 -0.2968
   20MOL0     H 2609  -0.841   3.318   9.107  1.4041 -2.1041  1.5970
   20MOL0     H 2610  -0.797   3.526   8.988  1.3029  0.5867  0.5818
   20MOL0     H 2611  -0.779   3.612   9.146 -0.2128  1.6489 -0.4706
   20MOL0     H 2612  -1.016   3.456   9.064  0.7805 -0.8610  0.5910
   20MOL0     H 2613  -1.014   3.584   9.193  1.4516 -1.0536  0.5895
   20MOL0     H 2614  -1.057   3.621   8.902 -1.9592  0.8635  0.6004
   20MOL0     H 2615  -0.922   3.719   8.968  0.4750 -0.4185  0.1577
   20MOL0     H 2616  -1.207   3.710   9.079 -0.3291  1.3205 -0.6437
   20MOL0     H 2617  -1.142   3.822   8.967 -3.2978 -1.3158  0.1647
   20MOL0     H 2618  -1.020   3.788   9.252  0.6749 -1.4687 -0.9238
   20MOL0     H 2619  -0.999   3.914   9.138  0.1976 -1.7176 -2.7963
   20MOL0     H 2620  -1.251   3.951   9.148 -1.7149 -1.9683  0.2619
   20MOL0     H 2621  -1.164   3.995   9.303  0.2705 -1.6841  1.9318
   20MOL0     H 2622  -0.478   3.404   8.810 -0.4587  0.7556  1.0383
   20MOL0     H 2623  -0.240   3.383   8.757 -1.0946 -1.6280 -0.6203
   20MOL0     H 2624   0.188   3.289   8.975  3.9140  3.7266 -2.0299
   20MOL0     H 2625   0.435   3.224   8.964 -1.3654  0.5212  1.9152
   20MOL0     H 2626   2.016   1.886   8.647 -0.0179  0.8270 -0.3106
   20MOL0     H 2627   2.251   1.885   8.595 -0.8030  0.1760  1.1051
   20MOL0     H 2628   2.585   2.112   8.280 -0.0951  2.7097 -0.3337
   20MOL0     H 2629   2.822   2.109   8.246  1.3319 -0.5925  0.9908
   20MOL0     H 2630   3.027   2.244   8.258 -0.0606 -0.4743 -0.5100
   20MOL0     H 2631   3.058   2.075   8.237  2.2600  2.4981 -2.5186
   20MOL0     H 2632   3.267   2.245   8.245 -0.3939  3.1428  1.6674
   20MOL0     H 2633   3.224   2.258   8.407  0.9220 -0.4269  0.8974
   20MOL0     H 2634   3.305   2.013   8.252 -0.1314 -1.1643 -0.4781
   20MOL0     H 2635   3.257   1.988   8.422 -0.4018  2.1149  2.0650
   20MOL0     H 2636   3.477   2.155   8.465 -0.3859 -0.1126  0.1277
   20MOL0     H 2637   3.512   1.989   8.405  1.8204  0.9009  2.7732
   20MOL0     H 2638   3.602   2.245   8.091  0.5591  0.2859  0.4735
   20MOL0     H 2639   2.900   2.112   8.657  1.6874  0.6545 -1.6740
   20MOL0     H 2640   2.653   2.099   8.713  3.1591 -0.6990  1.4050
   21MOL0     O 2641   1.486   8.605   9.381  0.6628 -0.2433 -0.0709
   21MOL0     C 2642   1.449   8.528   9.294  0.4513 -0.6574 -0.1219
   21MOL0     O 2643   1.515   8.498   9.180  0.0713  0.2858  0.6417
   21MOL0     C 2644   1.634   8.550   9.143 -0.0613 -0.6200 -1.0627
   21MOL0     C 2645   1.671   8.534   9.013 -0.7725 -0.5053  0.0815
   21MOL0     C 2646   1.796   8.572   8.969 -0.4521  0.2251 -0.1919
   21MOL0     C 2647   1.887   8.636   9.053  0.3828 -0.1788  0.1711
   21MOL0     O 2648   2.010   8.678   9.011  0.0488 -0.1128 -0.2539
   21MOL0     C 2649   2.024   8.817   8.977  0.1589  0.5251  0.6982
   21MOL0     C 2650   2.160   8.856   9.040  0.1121  0.3560 -0.3145
   21MOL0     C 2651   2.269   8.827   8.939  0.7966  0.0485 -0.3841
   21MOL0     C 2652   2.400   8.868   9.012 -0.5625  1.2434  0.3555
   21MOL0     C 2653   2.514   8.808   8.938  0.5111 -0.1957 -0.3938
   21MOL0     C 2654   2.647   8.865   8.977  0.2920  0.3472  0.4904
   21MOL0     C 2655   2.750   8.827   8.868  0.5605 -0.1494  0.7929
   21MOL0     C 2656   2.890   8.852   8.925 -0.8241 -0.1608  0.4458
   21MOL0     N 2657   2.983   8.786   8.825  0.7447  0.0423 -0.0067
   21MOL0     C 2658   3.034   8.840   8.709  0.6772  0.2865  0.0750
   21MOL0     C 2659   3.113   8.738   8.666  0.1588 -0.7129 -0.9768
   21MOL0     C 2660   3.205   8.749   8.545  0.8148  0.0879  0.8340
   21MOL0     C 2661   3.146   8.656   8.439  0.1207  0.1395  0.2256
   21MOL0     C 2662   3.148   8.503   8.475 -0.3138  0.8382  1.0417
   21MOL0     C 2663   3.141   8.404   8.358  0.2439  0.3884  0.0697
   21MOL0     O 2664   3.064   8.457   8.244 -0.1446 -0.5965 -1.0122
   21MOL0     C 2665   2.931   8.453   8.258 -0.1538  0.1509 -1.1368
   21MOL0     C 2666   2.863   8.506   8.150  0.2920 -0.4319 -0.4763
   21MOL0     C 2667   2.722   8.503   8.143  0.4047 -0.3942  0.2421
   21MOL0     C 2668   2.653   8.442   8.249 -0.1918  0.4725  0.2577
   21MOL0     C 2669   2.511   8.443   8.237  1.3055  0.1098  0.1710
   21MOL0     O 2670   2.443   8.402   8.352 -0.7472  0.5723 -0.0975
   21MOL0     C 2671   2.312   8.396   8.369  0.6318 -0.2744  0.9639
   21MOL0     C 2672   2.253   8.429   8.488  0.3100 -0.6815 -0.2390
   21MOL0     C 2673   2.112   8.418   8.511  0.4369 -0.4364  0.5305
   21MOL0     C 2674   2.024   8.367   8.413  0.1478 -0.3106  0.7073
   21MOL0     O 2675   1.893   8.342   8.432 -0.3984  0.4943 -0.1594
   21MOL0     C 2676   1.838   8.396   8.551 -0.0671  0.7689  0.3510
   21MOL0     C 2677   1.684   8.393   8.530 -0.2736  0.4324  0.0831
   21MOL0     C 2678   1.608   8.446   8.653  0.1505 -0.0258 -0.1483
   21MOL0     C 2679   1.459   8.462   8.618 -0.5554  0.0130 -0.5120
   21MOL0     C 2680   1.387   8.332   8.623  0.4697  0.8683  0.2690
   21MOL0     C 2681   1.355   8.277   8.761  0.2436 -0.2104  0.4061
   21MOL0     C 2682   1.251   8.359   8.828  0.2068 -0.0496  0.2339
   21MOL0     C 2683   1.106   8.360   8.763 -0.5818 -0.7846  0.2484
   21MOL0    Cl 2684   0.996   8.392   8.905  0.2355 -0.4908  0.3683
   21MOL0     C 2685   2.090   8.331   8.293 -0.0239  0.7697 -0.4293
   21MOL0     C 2686   2.231   8.337   8.273  0.9854 -0.1540 -0.1629
   21MOL0     O 2687   2.451   8.482   8.132 -1.0413  0.4838  0.0226
   21MOL0     C 2688   2.721   8.391   8.357  0.1083  0.3407  0.5386
   21MOL0     C 2689   2.861   8.390   8.366  0.4901  0.2819  0.2709
   21MOL0     N 2690   3.126   8.644   8.773  0.0832 -0.5002  1.0758
   21MOL0     N 2691   3.044   8.668   8.857  0.0791 -0.6765  0.7259
   21MOL0     C 2692   1.856   8.648   9.187  0.0372  0.1538 -0.7440
   21MOL0     C 2693   1.733   8.613   9.236  0.8671 -0.0690  0.0673
   21MOL0     C 2694   1.313   8.469   9.326 -0.5433  0.1002 -0.0145
   21MOL0     C 2695   1.231   8.419   9.222 -0.5119 -0.6868 -0.5519
   21MOL0     C 2696   1.108   8.380   9.248 -0.5356 -0.7169 -0.7887
   21MOL0     C 2697   1.047   8.390   9.367 -0.7516 -0.3112 -0.4856
   21MOL0     O 2698   0.923   8.341   9.398 -0.1355  0.6914 -0.5296
   21MOL0     C 2699   0.874   8.243   9.311 -1.5050  0.0721 -0.1633
   21MOL0     C 2700   0.749   8.171   9.362 -0.2884 -0.7646  0.3884
   21MOL0     C 2701   0.665   8.109   9.248  0.3235  0.2980 -0.8699
   21MOL0     C 2702   0.539   8.033   9.314  0.4405 -0.0100  0.6704
   21MOL0     C 2703   0.431   8.117   9.360 -0.4495 -1.5908  1.5965
   21MOL0     C 2704   0.333   8.194   9.375 -0.3215 -0.2240  1.1124
   21MOL0     C 2705   1.131   8.430   9.472  0.5599  0.3729 -1.0053
   21MOL0     C 2706   1.265   8.462   9.451  0.0375 -0.0944 -0.4726
   21MOL0     H 2707   1.598   8.485   8.950 -2.8801 -0.3444  2.2346
   21MOL0     H 2708   1.815   8.549   8.865  0.3658 -0.0843  0.0194
   21MOL0     H 2709   1.940   8.870   9.021 -1.9051 -1.6404 -0.4270
   21MOL0     H 2710   2.025   8.832   8.869 -0.5043  0.4829  0.6865
   21MOL0     H 2711   2.185   8.795   9.128 -0.7643  0.7173  0.2011
   21MOL0     H 2712   2.162   8.960   9.074  0.1528  0.5358 -0.8552
   21MOL0     H 2713   2.264   8.889   8.848  0.5522  0.2556 -0.2301
   21MOL0     H 2714   2.261   8.722   8.909 -2.8700 -0.1274  0.7206
   21MOL0     H 2715   2.412   8.975   9.031 -0.3596  0.7579  3.3259
   21MOL0     H 2716   2.413   8.833   9.115  1.0097  1.9684  0.4406
   21MOL0     H 2717   2.502   8.839   8.834 -3.1288 -0.3713 -0.1706
   21MOL0     H 2718   2.516   8.699   8.938 -0.8508 -0.2662 -2.5074
   21MOL0     H 2719   2.687   8.816   9.066  4.7250 -0.8603 -1.8566
   21MOL0     H 2720   2.642   8.972   9.002  0.1484  0.1780  1.2026
   21MOL0     H 2721   2.729   8.728   8.829 -0.2353  1.3371 -2.9075
   21MOL0     H 2722   2.730   8.890   8.781  0.7017 -0.9700  0.1536
   21MOL0     H 2723   2.911   8.802   9.020 -0.6927 -1.2250 -0.1379
   21MOL0     H 2724   2.903   8.961   8.933  0.6534 -0.4176  2.0836
   21MOL0     H 2725   3.021   8.939   8.666  1.2209 -0.2060 -1.2859
   21MOL0     H 2726   3.310   8.738   8.576  0.4634  0.0204  2.0479
   21MOL0     H 2727   3.205   8.849   8.502 -0.0482  0.9051  2.6419
   21MOL0     H 2728   3.200   8.664   8.344 -1.6129  0.7623 -0.7401
   21MOL0     H 2729   3.046   8.696   8.421  0.5552  1.9352  1.5116
   21MOL0     H 2730   3.228   8.470   8.541 -0.3265 -1.2167  0.1266
   21MOL0     H 2731   3.056   8.481   8.530 -0.2666 -2.4840  0.0411
   21MOL0     H 2732   3.108   8.307   8.396  2.5819 -0.0578  1.1294
   21MOL0     H 2733   3.243   8.396   8.318  1.1790  3.5064  1.5197
   21MOL0     H 2734   2.902   8.551   8.059  0.3665 -0.7781 -0.6205
   21MOL0     H 2735   2.670   8.559   8.065  1.6067 -0.3623 -0.5637
   21MOL0     H 2736   2.315   8.480   8.561 -0.0556 -0.7762  0.1379
   21MOL0     H 2737   2.069   8.460   8.602 -1.0799 -0.2318 -0.2498
   21MOL0     H 2738   1.872   8.497   8.575  0.4456  0.5399  0.6047
   21MOL0     H 2739   1.858   8.327   8.633 -1.0368 -2.1000 -1.6781
   21MOL0     H 2740   1.641   8.296   8.504 -0.9724  1.4164 -2.8717
   21MOL0     H 2741   1.665   8.456   8.442  0.5543  0.5152 -0.0471
   21MOL0     H 2742   1.645   8.546   8.675  1.6089 -0.2618 -1.4159
   21MOL0     H 2743   1.621   8.385   8.743 -2.5670 -0.0739  0.2948
   21MOL0     H 2744   1.403   8.523   8.689 -1.0800 -1.1785  0.1258
   21MOL0     H 2745   1.454   8.503   8.517 -1.7822  1.3626  0.0705
   21MOL0     H 2746   1.448   8.255   8.574 -0.5155 -0.6567  1.3657
   21MOL0     H 2747   1.294   8.337   8.567  1.3562 -2.3971 -1.7663
   21MOL0     H 2748   1.451   8.281   8.815 -0.2196 -2.0327  1.4412
   21MOL0     H 2749   1.318   8.174   8.750 -2.0316  0.8261 -4.7180
   21MOL0     H 2750   1.234   8.306   8.922 -2.6501 -1.7168 -1.0803
   21MOL0     H 2751   1.291   8.459   8.846  0.0089 -0.1670  1.3626
   21MOL0     H 2752   1.089   8.268   8.705 -2.2776 -0.2252 -0.1723
   21MOL0     H 2753   1.087   8.438   8.688  2.0789 -0.9665 -0.7502
   21MOL0     H 2754   2.026   8.293   8.213 -1.1353  1.1265  0.2640
   21MOL0     H 2755   2.262   8.305   8.174  0.7629 -3.2715  0.6729
   21MOL0     H 2756   2.666   8.320   8.419 -1.1606  0.4333 -0.4263
   21MOL0     H 2757   2.895   8.338   8.455  0.0246 -0.5160 -0.0076
   21MOL0     H 2758   1.927   8.697   9.252 -1.3414 -0.3975  1.2526
   21MOL0     H 2759   1.712   8.626   9.341  4.3800 -1.5404  1.0945
   21MOL0     H 2760   1.261   8.416   9.118 -3.5251 -2.1625 -1.5151
   21MOL0     H 2761   1.052   8.340   9.164  0.3640  0.6195 -2.0864
   21MOL0     H 2762   0.956   8.173   9.299 -2.2288 -1.2399  1.9145
   21MOL0     H 2763   0.854   8.289   9.214  1.5394  1.9866  0.0033
   21MOL0     H 2764   0.787   8.091   9.426  0.0346 -1.6896 -0.9311
   21MOL0     H 2765   0.685   8.246   9.411  0.4960  0.2433 -0.1066
   21MOL0     H 2766   0.733   8.029   9.216  1.5039  1.2893 -0.9148
   21MOL0     H 2767   0.651   8.178   9.165  1.1469  2.4169  0.6675
   21MOL0     H 2768   0.489   7.978   9.234  1.6688  0.4688 -0.4536
   21MOL0     H 2769   0.555   7.959   9.393 -1.1622 -2.5405 -1.2100
   21MOL0     H 2770   0.253   8.260   9.399 -0.3790 -0.2639  1.0317
   21MOL0     H 2771   1.086   8.434   9.571 -0.1107 -0.2382 -1.2766
   21MOL0     H 2772   1.325   8.506   9.529  0.1438 -1.2316  0.1091
   22MOL0     O 2773   3.158   9.242   2.926  0.3059 -0.1317 -0.2693
   22MOL0     C 2774   3.163   9.357   2.974  0.6316  0.6942  0.3683
   22MOL0     O 2775   3.274   9.441   2.953  0.8327 -0.2606  0.7093
   22MOL0     C 2776   3.386   9.404   2.878  1.0421  0.3487  0.2879
   22MOL0     C 2777   3.453   9.279   2.907  0.5203 -0.0949  0.6277
   22MOL0     C 2778   3.573   9.255   2.846 -0.9005 -0.0478  0.4779
   22MOL0     C 2779   3.629   9.345   2.760 -0.4963 -0.2889  0.3688
   22MOL0     O 2780   3.756   9.314   2.721  0.0944 -0.6532 -0.3464
   22MOL0     C 2781   3.823   9.402   2.637 -0.5157 -0.1584 -0.2241
   22MOL0     C 2782   3.955   9.334   2.596  0.5291 -0.7568 -0.2048
   22MOL0     C 2783   4.031   9.427   2.495 -0.0449  0.1841  0.1000
   22MOL0     C 2784   3.971   9.453   2.357 -0.4851  0.5456  0.2815
   22MOL0     C 2785   3.907   9.333   2.282  0.0801 -0.1186 -0.1334
   22MOL0     C 2786   4.003   9.221   2.249 -0.5492 -0.3123 -1.2229
   22MOL0     C 2787   3.922   9.102   2.189 -0.0938 -0.4892 -0.1190
   22MOL0     C 2788   4.013   8.980   2.170 -0.2132 -0.1998  0.1942
   22MOL0     N 2789   4.123   8.985   2.075 -0.0096 -0.0040  0.4434
   22MOL0     C 2790   4.113   8.975   1.940  0.9701 -0.8909 -0.1413
   22MOL0     C 2791   4.236   8.998   1.893  0.7434  0.5944  1.4335
   22MOL0     C 2792   4.282   8.976   1.748 -0.3180  0.1678 -0.4774
   22MOL0     C 2793   4.311   8.825   1.732 -0.4504  0.0389  0.0538
   22MOL0     C 2794   4.446   8.774   1.797  0.8586 -0.2741  0.1291
   22MOL0     C 2795   4.570   8.808   1.720 -0.1572 -0.1193  0.2952
   22MOL0     O 2796   4.563   8.736   1.593 -0.1531 -0.3027  0.6655
   22MOL0     C 2797   4.679   8.725   1.519 -0.2214 -0.2496  0.2180
   22MOL0     C 2798   4.662   8.775   1.391 -0.6900 -0.0214  0.5769
   22MOL0     C 2799   4.761   8.742   1.295  0.3476 -0.2539  0.5572
   22MOL0     C 2800   4.884   8.682   1.330 -0.8307  0.9582  0.6039
   22MOL0     C 2801   4.980   8.650   1.218 -0.0127 -0.1937 -0.6263
   22MOL0     O 2802   5.087   8.570   1.238 -0.1208  0.2046 -0.4058
   22MOL0     C 2803   5.085   8.437   1.208  0.4308  0.0027  0.1402
   22MOL0     C 2804   5.209   8.373   1.228 -0.1928 -0.7128  0.1722
   22MOL0     C 2805   5.222   8.237   1.192 -0.2862  0.2344  0.0466
   22MOL0     C 2806   5.113   8.166   1.140  0.1280 -0.3189 -0.6644
   22MOL0     O 2807   5.156   8.043   1.110 -0.0629  0.0806  0.0616
   22MOL0     C 2808   5.064   7.946   1.153  0.3782 -0.0077  0.1452
   22MOL0     C 2809   5.116   7.808   1.121  0.2455  0.4346 -0.3033
   22MOL0     C 2810   5.241   7.773   1.206 -0.1190 -0.3515  0.8646
   22MOL0     C 2811   5.316   7.643   1.174  0.0299  0.3259 -0.3687
   22MOL0     C 2812   5.419   7.599   1.290  0.1441 -0.0067 -0.5499
   22MOL0     C 2813   5.487   7.468   1.238  0.8542  0.3588 -0.6215
   22MOL0     C 2814   5.504   7.366   1.360  1.0381  0.1565  0.1299
   22MOL0     C 2815   5.591   7.242   1.323  0.2117 -0.4846 -0.9271
   22MOL0    Cl 2816   5.514   7.115   1.220 -0.2981 -0.2056 -0.1600
   22MOL0     C 2817   4.985   8.239   1.117 -0.5379  0.1663 -0.2445
   22MOL0     C 2818   4.982   8.374   1.144 -0.9602  0.4916  0.4743
   22MOL0     O 2819   4.957   8.697   1.108  0.3451  0.8646 -0.1520
   22MOL0     C 2820   4.904   8.638   1.459  0.7738  0.0977 -0.0646
   22MOL0     C 2821   4.798   8.647   1.552  0.0828  0.7541 -0.5637
   22MOL0     N 2822   4.321   9.021   2.006  0.8648 -0.0667  0.5704
   22MOL0     N 2823   4.247   9.015   2.113  0.2110 -0.5168 -0.2182
   22MOL0     C 2824   3.570   9.475   2.738  0.3330  0.2524 -0.3946
   22MOL0     C 2825   3.445   9.503   2.796  0.3606  0.7383  0.0836
   22MOL0     C 2826   3.049   9.403   3.056 -0.0914 -0.0229  0.7195
   22MOL0     C 2827   2.921   9.367   3.042  0.5524 -0.0718 -0.5729
   22MOL0     C 2828   2.814   9.425   3.109 -0.2553 -0.8338  0.1406
   22MOL0     C 2829   2.849   9.515   3.214 -0.2786  0.5833  0.0795
   22MOL0     O 2830   2.744   9.556   3.300 -0.2504  0.1552  0.5361
   22MOL0     C 2831   2.768   9.639   3.412  0.4739  1.1692 -0.0035
   22MOL0     C 2832   2.642   9.642   3.501  0.0681  0.6685  1.2365
   22MOL0     C 2833   2.528   9.693   3.420 -0.3067 -0.2344  0.0759
   22MOL0     C 2834   2.413   9.728   3.519  0.6258  0.2541  0.6225
   22MOL0     C 2835   2.361   9.615   3.600  0.4301  0.0956 -1.0011
   22MOL0     C 2836   2.311   9.519   3.653 -0.2349 -0.5090  0.3204
   22MOL0     C 2837   2.979   9.559   3.228  0.1431  1.2634  0.0119
   22MOL0     C 2838   3.080   9.500   3.149 -0.9596 -0.8973 -0.1879
   22MOL0     H 2839   3.404   9.206   2.971 -0.6746  2.2417  2.5593
   22MOL0     H 2840   3.628   9.162   2.856 -0.8421 -0.3786 -2.2824
   22MOL0     H 2841   3.849   9.500   2.678  0.0171  0.7361 -2.5245
   22MOL0     H 2842   3.759   9.406   2.548 -0.1239  1.6009 -0.4727
   22MOL0     H 2843   3.935   9.234   2.555  3.2695 -0.7505 -1.8282
   22MOL0     H 2844   4.026   9.322   2.678  1.0851  1.6806 -0.2509
   22MOL0     H 2845   4.134   9.391   2.486  0.7846  2.6765 -1.4140
   22MOL0     H 2846   4.050   9.522   2.547 -0.5723 -0.6246  1.8515
   22MOL0     H 2847   3.894   9.530   2.367 -0.0180  1.2693 -1.3610
   22MOL0     H 2848   4.050   9.486   2.289 -1.0981  0.1031 -0.6698
   22MOL0     H 2849   3.862   9.356   2.185  2.2938  0.6920 -1.0459
   22MOL0     H 2850   3.823   9.298   2.342 -0.2197  1.8640  0.6436
   22MOL0     H 2851   4.048   9.181   2.340 -1.0480  0.2048 -0.7379
   22MOL0     H 2852   4.082   9.250   2.179 -1.6990  0.0047 -2.4365
   22MOL0     H 2853   3.827   9.078   2.237 -0.2252 -1.2876 -0.7497
   22MOL0     H 2854   3.900   9.127   2.085  0.7510  1.2478  0.0905
   22MOL0     H 2855   3.957   8.892   2.137  0.2335  0.1772 -1.6357
   22MOL0     H 2856   4.060   8.960   2.267 -1.8804 -1.0171  0.8875
   22MOL0     H 2857   4.027   8.961   1.875  1.2825 -0.6859 -0.6124
   22MOL0     H 2858   4.369   9.041   1.739 -1.2928  1.6578  0.4806
   22MOL0     H 2859   4.208   9.010   1.675  1.5832  0.4112 -2.3951
   22MOL0     H 2860   4.328   8.801   1.626 -1.3254 -0.1457 -0.0543
   22MOL0     H 2861   4.230   8.758   1.763 -0.9900  0.7028  0.0884
   22MOL0     H 2862   4.460   8.795   1.903 -0.3013  0.7886  0.0900
   22MOL0     H 2863   4.443   8.665   1.802  2.3659 -0.3239  0.6482
   22MOL0     H 2864   4.647   8.761   1.782 -0.5024  0.4890  1.2024
   22MOL0     H 2865   4.584   8.916   1.718 -1.3452  0.0583  0.8379
   22MOL0     H 2866   4.565   8.809   1.356  0.0167 -0.0025 -1.4803
   22MOL0     H 2867   4.739   8.757   1.190  0.1909 -0.6606  0.5325
   22MOL0     H 2868   5.298   8.419   1.270  0.9328 -2.7879  0.1963
   22MOL0     H 2869   5.313   8.185   1.221 -1.0352 -1.0894  0.1190
   22MOL0     H 2870   4.971   7.952   1.097 -1.4669 -2.9445  2.5629
   22MOL0     H 2871   5.041   7.956   1.259 -0.0305 -0.4921  0.1060
   22MOL0     H 2872   5.133   7.797   1.013 -3.4060 -1.3045 -0.8520
   22MOL0     H 2873   5.034   7.740   1.144  1.5204 -0.7252  0.9853
   22MOL0     H 2874   5.215   7.772   1.313  2.2349 -1.6192  1.4873
   22MOL0     H 2875   5.321   7.843   1.181  2.2637 -2.2434  2.7136
   22MOL0     H 2876   5.245   7.560   1.166  1.8659 -1.5762  1.6873
   22MOL0     H 2877   5.374   7.645   1.081  2.4258  0.0208  1.0285
   22MOL0     H 2878   5.353   7.572   1.373 -1.0615  0.9709 -1.1590
   22MOL0     H 2879   5.486   7.684   1.309 -0.3825  0.0886  0.9794
   22MOL0     H 2880   5.585   7.482   1.193  1.6617  0.9885  1.2162
   22MOL0     H 2881   5.424   7.430   1.157 -2.5021  3.0519  0.4355
   22MOL0     H 2882   5.568   7.412   1.435  0.2276  0.1558  0.8359
   22MOL0     H 2883   5.408   7.341   1.407  0.3012 -0.2359 -1.5025
   22MOL0     H 2884   5.628   7.202   1.417 -1.0452  2.3605  0.9019
   22MOL0     H 2885   5.675   7.282   1.266  1.0053 -0.5966  0.1485
   22MOL0     H 2886   4.894   8.197   1.076 -0.0682 -0.5854 -0.5474
   22MOL0     H 2887   4.897   8.435   1.117 -1.0407 -0.2845 -1.1187
   22MOL0     H 2888   4.995   8.584   1.483  0.7780 -0.3910 -1.1399
   22MOL0     H 2889   4.810   8.598   1.648  1.3052  1.4057 -0.3625
   22MOL0     H 2890   3.624   9.560   2.698 -1.0753  1.8342  0.9164
   22MOL0     H 2891   3.409   9.605   2.787  2.8240  1.8065  1.3882
   22MOL0     H 2892   2.896   9.290   2.970  0.7238  1.9413 -2.9223
   22MOL0     H 2893   2.711   9.402   3.087 -0.0379  1.0665 -3.7201
   22MOL0     H 2894   2.794   9.740   3.379  1.4248  1.0157  0.2426
   22MOL0     H 2895   2.852   9.596   3.467  0.1828 -2.5995 -2.1267
   22MOL0     H 2896   2.623   9.546   3.551  2.4889  0.7322  2.4118
   22MOL0     H 2897   2.664   9.722   3.572  2.1574  1.8116 -0.5962
   22MOL0     H 2898   2.504   9.629   3.335  1.3069 -0.5966 -0.1361
   22MOL0     H 2899   2.562   9.789   3.381 -0.8527  0.8486  2.1256
   22MOL0     H 2900   2.436   9.816   3.580  1.2015  0.6216 -0.0988
   22MOL0     H 2901   2.334   9.756   3.449 -0.3701  0.3267  1.7541
   22MOL0     H 2902   2.267   9.431   3.696 -2.2492  0.0388 -0.4794
   22MOL0     H 2903   3.010   9.622   3.311 -0.3432  0.8306  0.5301
   22MOL0     H 2904   3.180   9.523   3.183 -0.5661 -0.2844 -1.6963
   23MOL0     O 2905   8.744   8.009   6.381  0.3303  0.4603 -0.3825
   23MOL0     C 2906   8.775   7.891   6.400  1.0203 -0.9709  0.3311
   23MOL0     O 2907   8.689   7.791   6.406  0.2263 -0.1703  0.4953
   23MOL0     C 2908   8.560   7.804   6.372  0.1735 -0.3096  0.3637
   23MOL0     C 2909   8.469   7.865   6.460  0.1073 -0.3224  0.5411
   23MOL0     C 2910   8.334   7.895   6.418  0.3650  0.4346  0.2182
   23MOL0     C 2911   8.289   7.825   6.302  0.3931 -0.3317  0.0353
   23MOL0     O 2912   8.159   7.832   6.255  0.1929 -0.5674  0.5443
   23MOL0     C 2913   8.048   7.809   6.339  0.3709  0.5960  0.2594
   23MOL0     C 2914   7.953   7.711   6.266  0.3961 -0.7589  0.2180
   23MOL0     C 2915   7.886   7.765   6.138 -0.2311 -0.7660 -0.1762
   23MOL0     C 2916   7.797   7.658   6.077 -0.4979 -0.4061  0.9861
   23MOL0     C 2917   7.717   7.708   5.961  0.0492  0.7001 -0.4751
   23MOL0     C 2918   7.609   7.815   6.003 -1.1039 -0.5915 -0.3504
   23MOL0     C 2919   7.539   7.873   5.879 -0.1007 -0.3766 -0.3855
   23MOL0     C 2920   7.434   7.772   5.835 -0.0119  0.0721 -0.0227
   23MOL0     N 2921   7.332   7.828   5.741 -1.0750 -0.1235 -0.6269
   23MOL0     C 2922   7.352   7.868   5.614  0.8023  0.3249  0.2898
   23MOL0     C 2923   7.229   7.912   5.577 -0.0806 -0.2291 -0.1558
   23MOL0     C 2924   7.195   7.984   5.450  0.8562 -0.1947 -0.6473
   23MOL0     C 2925   7.197   7.889   5.329  0.5505 -0.1611  0.6997
   23MOL0     C 2926   7.110   7.765   5.326 -0.6622  0.6850 -0.5001
   23MOL0     C 2927   6.963   7.799   5.316 -0.1063 -0.1297 -0.5603
   23MOL0     O 2928   6.903   7.665   5.301 -0.0404  0.0449  0.5538
   23MOL0     C 2929   6.795   7.628   5.375 -0.0506  0.2885 -0.2416
   23MOL0     C 2930   6.695   7.718   5.413 -0.5369  0.2205  0.7039
   23MOL0     C 2931   6.589   7.674   5.490  0.3896  0.0591  0.7596
   23MOL0     C 2932   6.565   7.538   5.515 -0.0191 -0.5642  0.9241
   23MOL0     C 2933   6.440   7.487   5.582 -1.1209  0.0924 -0.6167
   23MOL0     O 2934   6.344   7.578   5.620  0.5564 -0.1522 -0.0419
   23MOL0     C 2935   6.239   7.539   5.700 -0.6872 -0.3864  0.3419
   23MOL0     C 2936   6.115   7.587   5.663 -0.4176 -0.4706 -0.4990
   23MOL0     C 2937   5.996   7.556   5.735 -1.0018 -0.1864  0.1503
   23MOL0     C 2938   6.004   7.464   5.833  0.9105  0.4179 -0.0181
   23MOL0     O 2939   5.897   7.426   5.917 -0.3934 -0.1539  0.1467
   23MOL0     C 2940   5.766   7.444   5.862  0.5298  0.1229 -0.8962
   23MOL0     C 2941   5.663   7.335   5.914  0.0479  0.5157  0.5237
   23MOL0     C 2942   5.517   7.362   5.847  0.0184  0.8488 -0.3933
   23MOL0     C 2943   5.448   7.481   5.908  0.7666 -0.0907 -0.0823
   23MOL0     C 2944   5.316   7.512   5.838 -0.2591 -0.0122  0.3977
   23MOL0     C 2945   5.236   7.620   5.912 -0.3855 -0.3883  0.2068
   23MOL0     C 2946   5.111   7.660   5.834 -0.1550  0.1154 -0.3929
   23MOL0     C 2947   5.061   7.791   5.885 -0.0321 -0.3103  0.0375
   23MOL0    Cl 2948   4.927   7.846   5.782  0.3857 -0.3877 -0.1812
   23MOL0     C 2949   6.121   7.408   5.864  0.6405  0.0716 -0.9056
   23MOL0     C 2950   6.239   7.455   5.809 -0.0383 -0.2605 -0.2090
   23MOL0     O 2951   6.439   7.368   5.601 -0.3529 -0.3251  0.0583
   23MOL0     C 2952   6.672   7.453   5.487  0.2135  0.0605  0.6257
   23MOL0     C 2953   6.782   7.497   5.410 -0.9908  0.1698 -0.2804
   23MOL0     N 2954   7.138   7.882   5.675  0.2172  0.8158  0.1256
   23MOL0     N 2955   7.202   7.825   5.767  0.4671  0.3423 -0.0958
   23MOL0     C 2956   8.381   7.753   6.220  0.8308 -0.4189 -0.2495
   23MOL0     C 2957   8.510   7.752   6.255 -0.2649  1.2335 -0.2000
   23MOL0     C 2958   8.922   7.875   6.412 -0.1804 -1.1153  0.0601
   23MOL0     C 2959   9.011   7.974   6.356  0.0215  0.3227 -0.3491
   23MOL0     C 2960   9.146   7.939   6.343  0.1975 -0.1735 -0.4044
   23MOL0     C 2961   9.194   7.819   6.387 -0.2072  1.0041  0.1204
   23MOL0     O 2962   9.333   7.779   6.386 -0.2138 -0.4757 -0.3552
   23MOL0     C 2963   9.402   7.814   6.264 -0.3102 -0.8334 -0.3114
   23MOL0     C 2964   9.542   7.752   6.267  0.3480  0.3452  0.1413
   23MOL0     C 2965   9.533   7.597   6.266 -0.4044 -0.0491  0.0189
   23MOL0     C 2966   9.677   7.538   6.261  0.5707 -0.4828  0.0585
   23MOL0     C 2967   9.753   7.592   6.145 -0.1631 -0.2189  0.5550
   23MOL0     C 2968   9.814   7.611   6.036  0.8793 -0.6355 -0.1853
   23MOL0     C 2969   9.096   7.729   6.437 -0.6554  0.7789  0.2846
   23MOL0     C 2970   8.963   7.753   6.455 -0.2024 -0.6195 -0.6857
   23MOL0     H 2971   8.512   7.924   6.540  0.6567  2.2252 -1.4894
   23MOL0     H 2972   8.265   7.943   6.487  0.9436  0.8356  0.5295
   23MOL0     H 2973   7.988   7.895   6.370 -2.0310  0.2056 -2.8443
   23MOL0     H 2974   8.090   7.776   6.435  0.3427  2.6470  1.0210
   23MOL0     H 2975   7.879   7.681   6.341  1.4412 -0.4173  1.4259
   23MOL0     H 2976   8.015   7.627   6.233  2.6825  0.7802  0.3271
   23MOL0     H 2977   7.961   7.797   6.065  0.3552 -1.5712  0.0578
   23MOL0     H 2978   7.832   7.856   6.166 -3.1277 -2.4558  0.1312
   23MOL0     H 2979   7.865   7.576   6.052  0.2132  0.5369 -0.3188
   23MOL0     H 2980   7.726   7.623   6.152 -0.6391 -1.9503  0.1554
   23MOL0     H 2981   7.661   7.620   5.930  0.4458 -0.6985  2.4164
   23MOL0     H 2982   7.786   7.745   5.885  1.4697  0.0606  0.4546
   23MOL0     H 2983   7.672   7.896   6.042 -0.2379 -2.3236  2.0851
   23MOL0     H 2984   7.546   7.785   6.088  0.7469 -3.7322  0.0514
   23MOL0     H 2985   7.487   7.965   5.908  1.5465  0.5230 -0.1357
   23MOL0     H 2986   7.616   7.912   5.812  0.3337 -0.4183  0.0861
   23MOL0     H 2987   7.378   7.735   5.921  2.2482 -1.5339  0.8512
   23MOL0     H 2988   7.475   7.685   5.783  1.0276  0.2410  0.4909
   23MOL0     H 2989   7.437   7.881   5.548  0.9475 -1.8938 -0.0462
   23MOL0     H 2990   7.273   8.059   5.433  2.4702 -2.0506 -1.8277
   23MOL0     H 2991   7.098   8.034   5.458  1.0898  0.5672 -2.1518
   23MOL0     H 2992   7.296   7.859   5.294  0.4347  2.7064 -2.7063
   23MOL0     H 2993   7.160   7.945   5.242 -0.4556 -2.8687 -0.7200
   23MOL0     H 2994   7.140   7.698   5.245  0.3130 -0.0528  0.4413
   23MOL0     H 2995   7.123   7.707   5.419  0.6934 -0.7514 -1.5279
   23MOL0     H 2996   6.934   7.859   5.230 -2.1901 -1.2398 -0.7171
   23MOL0     H 2997   6.940   7.848   5.411  4.5933  1.2063  0.1082
   23MOL0     H 2998   6.709   7.822   5.385  1.3187 -0.1882 -0.0302
   23MOL0     H 2999   6.508   7.743   5.512 -1.0593 -0.5670 -2.2002
   23MOL0     H 3000   6.118   7.667   5.590 -1.5191 -0.1070 -0.1521
   23MOL0     H 3001   5.902   7.610   5.724 -0.3776  1.5678  2.4199
   23MOL0     H 3002   5.755   7.436   5.753 -0.7296 -0.0858 -0.7744
   23MOL0     H 3003   5.731   7.546   5.879  0.3596  0.3001 -2.1626
   23MOL0     H 3004   5.651   7.329   6.022  1.6998 -2.5592  0.6363
   23MOL0     H 3005   5.702   7.237   5.885 -0.2617 -0.2005  2.3765
   23MOL0     H 3006   5.451   7.279   5.875  0.5452  1.4465  3.0387
   23MOL0     H 3007   5.527   7.371   5.738 -0.6009 -0.2922 -0.5634
   23MOL0     H 3008   5.431   7.451   6.012 -1.3092  1.7948  0.1780
   23MOL0     H 3009   5.509   7.571   5.915 -0.5870  1.1156 -2.7258
   23MOL0     H 3010   5.261   7.418   5.824  0.4610 -0.6619  1.7314
   23MOL0     H 3011   5.345   7.549   5.740  1.3778 -1.3693  0.3253
   23MOL0     H 3012   5.300   7.707   5.930 -1.1965  0.2572  0.0050
   23MOL0     H 3013   5.211   7.575   6.008 -0.7038 -0.4332  0.1030
   23MOL0     H 3014   5.130   7.682   5.728  0.9081  1.1593 -0.0037
   23MOL0     H 3015   5.032   7.585   5.840 -1.4576  1.4751  0.0469
   23MOL0     H 3016   5.140   7.866   5.892 -1.7758  1.5628  0.9661
   23MOL0     H 3017   5.029   7.780   5.989 -0.1264  1.5639  0.2301
   23MOL0     H 3018   6.139   7.339   5.947  0.1594 -0.0873 -0.9299
   23MOL0     H 3019   6.336   7.425   5.848  0.9853  0.7340 -1.8770
   23MOL0     H 3020   6.672   7.347   5.514  1.2348 -0.8274 -2.4354
   23MOL0     H 3021   6.868   7.436   5.383 -1.2499  0.1017 -0.9922
   23MOL0     H 3022   8.341   7.701   6.134  0.5978 -2.9511  1.2670
   23MOL0     H 3023   8.590   7.715   6.191  0.6195  0.5572  1.2268
   23MOL0     H 3024   8.973   8.073   6.330 -2.0156  0.1485  1.6072
   23MOL0     H 3025   9.220   8.010   6.309  0.5680 -0.5742 -0.4381
   23MOL0     H 3026   9.415   7.922   6.254  3.5680 -1.2745 -2.1850
   23MOL0     H 3027   9.352   7.778   6.174 -0.5296 -1.6058  0.1154
   23MOL0     H 3028   9.603   7.784   6.182  0.5058  0.0268  0.1340
   23MOL0     H 3029   9.575   7.796   6.362 -2.4034  1.8297  0.5313
   23MOL0     H 3030   9.477   7.563   6.178  0.3971  2.0277 -1.3666
   23MOL0     H 3031   9.494   7.560   6.362  2.3730 -0.4305  1.1008
   23MOL0     H 3032   9.727   7.565   6.355  0.7875  0.1208 -0.2286
   23MOL0     H 3033   9.680   7.428   6.262 -0.6375 -0.5319  1.0118
   23MOL0     H 3034   9.867   7.629   5.944  1.8430 -2.8907 -0.1232
   23MOL0     H 3035   9.138   7.637   6.476  0.2348  1.6545  1.4856
   23MOL0     H 3036   8.897   7.675   6.491  1.5704 -1.0374  1.9546
   24MOL0     O 3037   3.931   9.794   0.326 -0.1538 -0.1521 -0.0608
   24MOL0     C 3038   3.901   9.915   0.327 -0.4540  0.5223 -0.0799
   24MOL0     O 3039   3.778   9.970   0.363 -0.4930 -0.3007 -0.6096
   24MOL0     C 3040   3.672   9.904   0.423  0.8004  0.3202  0.4516
   24MOL0     C 3041   3.557   9.981   0.434  0.3531  0.1288 -0.1531
   24MOL0     C 3042   3.436   9.929   0.486 -0.2078 -0.4180  0.2844
   24MOL0     C 3043   3.425   9.799   0.531  0.4802  0.7127  0.1314
   24MOL0     O 3044   3.318   9.747   0.593  0.3280  0.4386  0.1794
   24MOL0     C 3045   3.215   9.839   0.635  0.4344  0.5156  0.2267
   24MOL0     C 3046   3.093   9.758   0.700  0.0063  0.5723 -0.5197
   24MOL0     C 3047   2.976   9.854   0.727 -0.3460  0.5085 -0.7737
   24MOL0     C 3048   2.841   9.779   0.741  0.6889 -0.1236  0.6667
   24MOL0     C 3049   2.716   9.868   0.733 -0.3060  0.5426  0.3988
   24MOL0     C 3050   2.697   9.966   0.851 -0.6974 -0.4756  0.9419
   24MOL0     C 3051   2.560  10.028   0.874 -0.0547 -0.1672  0.0683
   24MOL0     C 3052   2.465   9.926   0.940  0.2558 -0.3585  0.3345
   24MOL0     N 3053   2.341   9.985   0.995  0.5796 -0.5508  0.2390
   24MOL0     C 3054   2.206   9.956   0.979  0.7623 -0.0024  0.0253
   24MOL0     C 3055   2.137  10.061   1.041 -0.6632  0.2435  0.3333
   24MOL0     C 3056   1.982  10.062   1.056 -0.1812  1.1075  0.0689
   24MOL0     C 3057   1.921  10.190   1.126  0.0620  0.7982  0.0756
   24MOL0     C 3058   1.943  10.165   1.276  0.2521 -0.6977  0.1787
   24MOL0     C 3059   1.919  10.285   1.369 -0.0104 -1.0344 -0.3602
   24MOL0     O 3060   1.890  10.235   1.501  0.0066  0.0032  0.6111
   24MOL0     C 3061   1.762  10.218   1.543 -0.4116  0.3283  0.1668
   24MOL0     C 3062   1.742  10.251   1.675  0.2926 -0.4023  1.1393
   24MOL0     C 3063   1.611  10.269   1.727 -0.1793 -0.4720  0.1018
   24MOL0     C 3064   1.505  10.269   1.641 -0.1274  0.1931  0.4650
   24MOL0     C 3065   1.365  10.284   1.692  0.7704  0.2634  0.2901
   24MOL0     O 3066   1.273  10.356   1.616  0.1550 -0.0351 -0.1786
   24MOL0     C 3067   1.151  10.384   1.656  0.6878 -0.1257  0.1785
   24MOL0     C 3068   1.082  10.347   1.773 -0.3840 -0.1682 -1.2262
   24MOL0     C 3069   0.954  10.397   1.809 -0.8969 -0.3113 -0.4968
   24MOL0     C 3070   0.881  10.468   1.715  0.2185 -0.4829 -0.5160
   24MOL0     O 3071   0.756  10.524   1.728 -0.2752  0.7076  0.0706
   24MOL0     C 3072   0.684  10.493   1.846 -0.3538 -0.1441  0.0767
   24MOL0     C 3073   0.551  10.560   1.817  0.1796 -0.2237  0.0235
   24MOL0     C 3074   0.453  10.548   1.930 -0.6223  0.1939 -0.1065
   24MOL0     C 3075   0.327  10.636   1.915 -1.1149  0.2592  0.5616
   24MOL0     C 3076   0.225  10.609   2.027  0.6387  0.1634  0.7570
   24MOL0     C 3077   0.165  10.467   2.034 -0.6420 -0.6688 -0.2730
   24MOL0     C 3078   0.098  10.420   1.908  0.5151 -0.0721  0.5545
   24MOL0     C 3079  -0.030  10.337   1.950 -0.6294 -0.9830 -0.2223
   24MOL0    Cl 3080  -0.180  10.434   1.968  0.3013 -0.2911 -0.2131
   24MOL0     C 3081   0.945  10.504   1.601  0.9298  0.1904 -0.3663
   24MOL0     C 3082   1.073  10.464   1.569  0.0286  0.1857 -0.2821
   24MOL0     O 3083   1.338  10.238   1.802  0.0730 -0.6199  0.0213
   24MOL0     C 3084   1.524  10.227   1.515  0.0076 -0.6157 -0.4054
   24MOL0     C 3085   1.653  10.204   1.459 -0.8471  0.2659  0.3526
   24MOL0     N 3086   2.230  10.151   1.095  0.1103 -0.1073  0.4044
   24MOL0     N 3087   2.346  10.111   1.057  0.2475  0.0253  0.2302
   24MOL0     C 3088   3.538   9.719   0.521  0.5524  0.3527 -0.7006
   24MOL0     C 3089   3.654   9.767   0.460  0.5299 -0.1967  0.2621
   24MOL0     C 3090   4.009  10.000   0.260  0.1356 -0.7658 -0.5211
   24MOL0     C 3091   3.979  10.133   0.224  0.3911  0.4366 -0.0654
   24MOL0     C 3092   4.072  10.215   0.149 -0.0667  0.4208  0.3698
   24MOL0     C 3093   4.189  10.156   0.087 -0.3322  0.0166 -0.3270
   24MOL0     O 3094   4.251  10.233  -0.011 -0.6147  0.0977  0.0188
   24MOL0     C 3095   4.364  10.183  -0.080  0.0222 -0.2654 -0.1511
   24MOL0     C 3096   4.500  10.212  -0.012 -0.2484  0.1591  0.6044
   24MOL0     C 3097   4.616  10.121  -0.073 -0.0216 -0.0856 -0.3728
   24MOL0     C 3098   4.656   9.996   0.018 -0.0702  0.0687 -0.1310
   24MOL0     C 3099   4.561   9.880   0.012  0.2235  0.0926  0.6230
   24MOL0     C 3100   4.485   9.787   0.005  1.0150  0.5382 -0.3238
   24MOL0     C 3101   4.219  10.026   0.136  0.0585 -0.6629 -0.0268
   24MOL0     C 3102   4.132   9.949   0.219  0.6970 -0.3988  1.2781
   24MOL0     H 3103   3.560  10.083   0.398 -2.8211  1.7531  3.4313
   24MOL0     H 3104   3.356  10.000   0.503 -0.2069 -0.4429  0.4004
   24MOL0     H 3105   3.168   9.885   0.547 -1.0859 -2.9453 -0.9620
   24MOL0     H 3106   3.253   9.919   0.698 -0.2317  0.6776  0.4382
   24MOL0     H 3107   3.138   9.723   0.793  2.0295 -0.4264 -1.8180
   24MOL0     H 3108   3.063   9.673   0.638 -0.2268 -0.2060  0.6227
   24MOL0     H 3109   2.968   9.929   0.649 -1.7111  2.3450  1.0125
   24MOL0     H 3110   2.990   9.910   0.820 -0.7491 -2.3236  1.1413
   24MOL0     H 3111   2.831   9.708   0.658  2.1419  0.4844 -0.0683
   24MOL0     H 3112   2.836   9.726   0.836  0.9085  2.4069  2.1773
   24MOL0     H 3113   2.627   9.804   0.736 -1.1728  1.6881 -0.2542
   24MOL0     H 3114   2.732   9.926   0.642 -0.1351 -0.0143  0.0629
   24MOL0     H 3115   2.769  10.048   0.851 -0.3822 -0.7430  0.5718
   24MOL0     H 3116   2.720   9.911   0.943 -2.0011  0.9218  2.1382
   24MOL0     H 3117   2.568  10.126   0.923  0.2878  1.0934 -2.3519
   24MOL0     H 3118   2.523  10.049   0.773  1.3718 -0.9352 -0.6524
   24MOL0     H 3119   2.514   9.865   1.017 -0.5764  0.4690  1.5602
   24MOL0     H 3120   2.434   9.851   0.867 -1.1046  0.0935  0.4194
   24MOL0     H 3121   2.151   9.873   0.938  0.7755  0.9355 -2.0356
   24MOL0     H 3122   1.949   9.972   1.109 -0.5506  0.8746 -0.5480
   24MOL0     H 3123   1.951  10.038   0.954  1.8701  1.2153 -0.6110
   24MOL0     H 3124   1.814  10.182   1.105  0.3498 -2.1337 -0.6786
   24MOL0     H 3125   1.960  10.282   1.081 -0.7627  0.4213 -1.5179
   24MOL0     H 3126   1.876  10.082   1.300  0.6654 -1.2765 -0.6581
   24MOL0     H 3127   2.044  10.129   1.297 -0.1650 -1.0839  1.6341
   24MOL0     H 3128   1.833  10.343   1.335  0.7528  1.2160  1.2981
   24MOL0     H 3129   2.007  10.350   1.377 -2.5660  2.8279 -0.8059
   24MOL0     H 3130   1.824  10.257   1.745  0.7210 -1.6052  0.7661
   24MOL0     H 3131   1.597  10.282   1.834 -2.7592  0.8527 -0.3076
   24MOL0     H 3132   1.124  10.290   1.855 -1.2881 -1.5669 -1.7038
   24MOL0     H 3133   0.907  10.350   1.895 -2.5380 -1.2321 -1.8510
   24MOL0     H 3134   0.734  10.551   1.925 -1.2070 -2.7785  2.6957
   24MOL0     H 3135   0.673  10.387   1.871  3.5675 -0.6263  0.4418
   24MOL0     H 3136   0.508  10.522   1.723  2.6926 -0.6422 -1.0396
   24MOL0     H 3137   0.566  10.666   1.796 -0.6056  0.2123  1.5052
   24MOL0     H 3138   0.501  10.553   2.028 -0.4066 -3.0686  0.0380
   24MOL0     H 3139   0.418  10.445   1.932  1.2506 -0.4911  2.9879
   24MOL0     H 3140   0.365  10.739   1.918 -3.3156  1.1120  0.7554
   24MOL0     H 3141   0.284  10.607   1.818 -0.8829 -0.1900  0.5926
   24MOL0     H 3142   0.146  10.680   2.001 -0.5439 -1.7438 -1.2016
   24MOL0     H 3143   0.266  10.629   2.126  0.6324 -2.5121  1.3803
   24MOL0     H 3144   0.084  10.477   2.107 -1.4926  0.1615 -1.2904
   24MOL0     H 3145   0.237  10.392   2.065  1.4989  1.5050  0.3495
   24MOL0     H 3146   0.072  10.498   1.836  3.0830 -0.7724 -1.2781
   24MOL0     H 3147   0.158  10.357   1.842 -2.1890 -0.8106 -1.3960
   24MOL0     H 3148  -0.011  10.283   2.044 -0.8715  0.8987  0.9534
   24MOL0     H 3149  -0.045  10.258   1.876 -1.4268  0.4115 -1.5951
   24MOL0     H 3150   0.903  10.575   1.531  0.8993  0.2993 -0.2373
   24MOL0     H 3151   1.105  10.492   1.470  0.5400 -4.2943 -1.5937
   24MOL0     H 3152   1.438  10.222   1.449  1.3427 -2.2986 -2.1378
   24MOL0     H 3153   1.672  10.199   1.353 -1.0167  0.5909  0.3056
   24MOL0     H 3154   3.522   9.615   0.548 -1.6400  1.0040  0.8061
   24MOL0     H 3155   3.731   9.697   0.430 -0.7201 -0.8345 -1.6477
   24MOL0     H 3156   3.888  10.180   0.260 -0.9252 -0.4956 -2.0056
   24MOL0     H 3157   4.042  10.316   0.120 -1.2014 -0.5417 -2.0678
   24MOL0     H 3158   4.357  10.217  -0.183 -2.6925 -1.1521 -0.3485
   24MOL0     H 3159   4.366  10.074  -0.093  1.1217  0.0018 -2.7391
   24MOL0     H 3160   4.510  10.319  -0.034 -2.0897 -0.1130 -2.1077
   24MOL0     H 3161   4.494  10.192   0.095 -1.4403 -0.6824  0.4009
   24MOL0     H 3162   4.703  10.187  -0.082  0.1566 -0.2648  0.0066
   24MOL0     H 3163   4.586  10.095  -0.175 -0.8676 -0.7759  0.0394
   24MOL0     H 3164   4.750   9.963  -0.027 -0.9391 -0.2104 -1.7881
   24MOL0     H 3165   4.671  10.024   0.123 -1.7673 -1.7072  0.6421
   24MOL0     H 3166   4.401   9.725  -0.023 -0.4057  3.4310 -3.1171
   24MOL0     H 3167   4.312   9.983   0.100  0.8833 -1.2209  2.5230
   24MOL0     H 3168   4.169   9.851   0.247 -1.3851 -1.7070 -0.2615
   25MOL0     O 3169   8.003   9.517   8.680 -0.2450 -0.0767  0.3696
   25MOL0     C 3170   8.012   9.614   8.753 -1.1209  0.0873 -0.4108
   25MOL0     O 3171   7.909   9.695   8.797  0.1579  0.1199 -0.4733
   25MOL0     C 3172   7.773   9.659   8.783 -0.2028 -0.2806  0.0130
   25MOL0     C 3173   7.702   9.573   8.868 -0.5763 -0.0211 -0.4880
   25MOL0     C 3174   7.563   9.536   8.845  0.8677 -0.2210  0.0193
   25MOL0     C 3175   7.490   9.600   8.750  0.3221  0.3180  0.1914
   25MOL0     O 3176   7.358   9.562   8.727 -0.0402 -0.1705  0.2088
   25MOL0     C 3177   7.294   9.598   8.603  0.1755  0.5981  0.1614
   25MOL0     C 3178   7.149   9.561   8.635  0.5887 -0.1798 -0.5639
   25MOL0     C 3179   7.055   9.657   8.551  0.8848  0.8729 -0.3150
   25MOL0     C 3180   6.914   9.609   8.557  0.5910  0.2661  0.3222
   25MOL0     C 3181   6.896   9.475   8.486 -0.0987 -0.4346 -0.2484
   25MOL0     C 3182   6.758   9.442   8.441 -0.2949 -0.2806  0.0538
   25MOL0     C 3183   6.746   9.288   8.413  0.2098  0.4276  0.2154
   25MOL0     C 3184   6.633   9.260   8.315  0.0351  0.1438 -0.4866
   25MOL0     N 3185   6.499   9.277   8.373  0.0208  0.0456  0.7502
   25MOL0     C 3186   6.448   9.230   8.487 -0.2694  0.3145  0.6906
   25MOL0     C 3187   6.324   9.286   8.494  0.1676 -0.2189  0.0920
   25MOL0     C 3188   6.234   9.244   8.612 -0.0974  0.2583  0.4565
   25MOL0     C 3189   6.132   9.359   8.639 -0.2301  0.9584  0.5950
   25MOL0     C 3190   6.076   9.336   8.783 -0.7098 -0.2585  0.0642
   25MOL0     C 3191   5.983   9.456   8.815  0.6508  1.0459 -0.3679
   25MOL0     O 3192   5.889   9.497   8.715  0.1866 -0.3419 -0.3462
   25MOL0     C 3193   5.798   9.585   8.761  0.1945  0.1829 -0.1297
   25MOL0     C 3194   5.799   9.722   8.718  0.8368  0.7255 -0.3799
   25MOL0     C 3195   5.696   9.807   8.758  0.1434  0.3332 -0.0357
   25MOL0     C 3196   5.592   9.763   8.845  0.4558  0.4223 -0.0479
   25MOL0     C 3197   5.485   9.852   8.886 -0.2115  0.6164  0.4781
   25MOL0     O 3198   5.361   9.797   8.898  0.3167 -0.0553  0.1785
   25MOL0     C 3199   5.254   9.878   8.933 -0.3508 -0.9740  0.7436
   25MOL0     C 3200   5.158   9.828   9.022 -0.8059  0.0682 -0.4856
   25MOL0     C 3201   5.030   9.886   9.049 -0.2034 -1.8368  0.3498
   25MOL0     C 3202   5.002  10.009   8.984 -0.2922  0.1527 -0.2274
   25MOL0     O 3203   4.881  10.082   9.006 -0.1764 -0.1712  0.3897
   25MOL0     C 3204   4.768  10.010   9.050  0.3472 -0.6045 -0.4057
   25MOL0     C 3205   4.643  10.087   9.012  0.2384  0.3143  0.2631
   25MOL0     C 3206   4.527  10.025   9.081 -0.5020 -0.0974 -0.3882
   25MOL0     C 3207   4.408  10.115   9.071 -0.9197 -0.7099  0.5137
   25MOL0     C 3208   4.307  10.098   9.189 -0.2340 -0.2314 -0.9806
   25MOL0     C 3209   4.197  10.200   9.182 -0.5616  0.2881 -0.2540
   25MOL0     C 3210   4.094  10.167   9.067  0.3752 -0.0586 -0.2800
   25MOL0     C 3211   3.973  10.065   9.095 -0.3681 -0.7287 -0.2643
   25MOL0    Cl 3212   3.862  10.152   9.208  0.2863  0.5320 -0.0062
   25MOL0     C 3213   5.088  10.064   8.886 -1.1166 -0.1973  0.4711
   25MOL0     C 3214   5.215   9.998   8.865 -0.2581 -0.0607 -0.3435
   25MOL0     O 3215   5.516   9.977   8.889 -0.5831 -0.3236  0.0575
   25MOL0     C 3216   5.596   9.624   8.883 -0.3289  0.3124  0.2662
   25MOL0     C 3217   5.700   9.538   8.844 -0.0125  0.6337 -0.6386
   25MOL0     N 3218   6.308   9.362   8.382  0.5421  0.0882  0.4889
   25MOL0     N 3219   6.414   9.358   8.311 -0.7563  0.1503  0.0514
   25MOL0     C 3220   7.562   9.696   8.668  0.3822  0.8716  0.1481
   25MOL0     C 3221   7.699   9.723   8.680 -0.9581 -0.5747  0.3718
   25MOL0     C 3222   8.155   9.673   8.789  0.5053  0.0267  0.2580
   25MOL0     C 3223   8.176   9.814   8.776  0.6644 -0.1409  0.4322
   25MOL0     C 3224   8.303   9.867   8.801 -0.5110 -0.3669 -0.6030
   25MOL0     C 3225   8.408   9.779   8.845  0.0767  0.5681  0.5880
   25MOL0     O 3226   8.534   9.826   8.864 -0.4694 -0.2318  0.4772
   25MOL0     C 3227   8.549   9.960   8.918 -0.5103  0.3677  0.0638
   25MOL0     C 3228   8.695   9.968   8.961 -0.0882 -0.6143  0.6030
   25MOL0     C 3229   8.710  10.064   9.083 -0.1364 -0.2426  0.4788
   25MOL0     C 3230   8.705  10.213   9.033 -0.2941  0.5386 -0.0209
   25MOL0     C 3231   8.574  10.267   8.976 -1.0368  0.4077  0.7993
   25MOL0     C 3232   8.463  10.302   8.955 -0.0315 -0.2502  0.8854
   25MOL0     C 3233   8.387   9.643   8.835 -0.2356  0.3561  0.3497
   25MOL0     C 3234   8.266   9.592   8.805  0.2676 -0.8466 -0.9355
   25MOL0     H 3235   7.758   9.524   8.946  0.7087  0.7340 -0.8986
   25MOL0     H 3236   7.509   9.467   8.908  2.2598  0.6536  2.3113
   25MOL0     H 3237   7.327   9.535   8.520 -1.1286 -0.9461  0.7497
   25MOL0     H 3238   7.292   9.706   8.585 -0.2399  0.7647  1.1340
   25MOL0     H 3239   7.135   9.568   8.743  3.2370 -0.2385 -0.1561
   25MOL0     H 3240   7.126   9.455   8.621 -0.1737 -0.4904  2.4566
   25MOL0     H 3241   7.085   9.667   8.447 -0.0748  0.3803 -0.6499
   25MOL0     H 3242   7.067   9.758   8.591  0.3921  1.5073 -1.7432
   25MOL0     H 3243   6.878   9.608   8.661  1.7635  2.4012  0.8075
   25MOL0     H 3244   6.856   9.684   8.503  0.7476  1.6619  2.0015
   25MOL0     H 3245   6.936   9.403   8.559  2.8063  2.1357  0.9023
   25MOL0     H 3246   6.968   9.479   8.404 -1.3669 -0.9316 -1.4208
   25MOL0     H 3247   6.729   9.500   8.354 -3.5987  1.5105  2.1771
   25MOL0     H 3248   6.688   9.464   8.521  0.0079  1.0743 -0.0423
   25MOL0     H 3249   6.841   9.252   8.372 -0.2126  0.1047 -0.5039
   25MOL0     H 3250   6.720   9.236   8.506  0.9797 -2.1374 -0.9143
   25MOL0     H 3251   6.645   9.154   8.295 -1.2455 -0.2561  0.7562
   25MOL0     H 3252   6.650   9.314   8.221  0.1743 -1.0981 -1.1858
   25MOL0     H 3253   6.491   9.176   8.571 -0.0827  1.8178  1.5906
   25MOL0     H 3254   6.300   9.223   8.696  1.5961  1.3137 -0.5653
   25MOL0     H 3255   6.182   9.148   8.595  0.2928  0.5255 -2.8968
   25MOL0     H 3256   6.053   9.344   8.565  3.1025 -1.2161 -2.9183
   25MOL0     H 3257   6.171   9.461   8.638  2.7017 -0.0157  1.6984
   25MOL0     H 3258   6.015   9.245   8.785 -1.1222 -0.0484 -1.8080
   25MOL0     H 3259   6.147   9.326   8.865 -0.7035 -0.0984  0.0792
   25MOL0     H 3260   6.046   9.543   8.833 -0.6241  1.8511  0.3590
   25MOL0     H 3261   5.938   9.425   8.910  0.3482 -0.7420 -1.0610
   25MOL0     H 3262   5.883   9.757   8.658  2.1148 -0.4774  0.6441
   25MOL0     H 3263   5.717   9.911   8.734 -0.6990  0.2886 -1.0233
   25MOL0     H 3264   5.175   9.740   9.084  3.4339  1.9282  1.3232
   25MOL0     H 3265   4.974   9.840   9.130  1.1074  2.2185  3.9091
   25MOL0     H 3266   4.779   9.993   9.158  1.5325  1.3873 -0.1649
   25MOL0     H 3267   4.764   9.911   9.004  0.2255 -1.0445  0.5133
   25MOL0     H 3268   4.619  10.085   8.906  0.2286  2.0975  0.1887
   25MOL0     H 3269   4.660  10.187   9.053  3.7080  0.4340 -1.0806
   25MOL0     H 3270   4.551  10.016   9.188 -1.9430  2.7838  0.2701
   25MOL0     H 3271   4.494   9.930   9.038 -4.7327  1.3658 -0.9192
   25MOL0     H 3272   4.441  10.219   9.078 -0.8244 -0.5621 -1.5814
   25MOL0     H 3273   4.364  10.098   8.972 -2.1521  1.7554  0.5469
   25MOL0     H 3274   4.364  10.119   9.280  1.6051  0.6265 -2.2712
   25MOL0     H 3275   4.266   9.997   9.182  2.0857 -1.1027 -4.3392
   25MOL0     H 3276   4.233  10.303   9.166 -0.9071  0.0846 -2.7105
   25MOL0     H 3277   4.148  10.209   9.280 -0.2483  1.3558 -0.1807
   25MOL0     H 3278   4.036  10.254   9.035 -1.6969 -0.8473  1.0597
   25MOL0     H 3279   4.149  10.125   8.982  1.1323 -2.8803  1.4666
   25MOL0     H 3280   4.015   9.973   9.136  0.7480 -1.7016 -3.3313
   25MOL0     H 3281   3.926  10.032   9.002 -1.0564  0.6725 -0.4415
   25MOL0     H 3282   5.067  10.156   8.834  0.3361  0.4910  1.0621
   25MOL0     H 3283   5.273  10.047   8.787  1.7713 -1.3118  0.3048
   25MOL0     H 3284   5.521   9.579   8.946  1.2968 -1.1797  1.2300
   25MOL0     H 3285   5.703   9.435   8.879  1.0664  0.8445 -0.0806
   25MOL0     H 3286   7.503   9.746   8.592 -0.9036 -1.3479 -0.3778
   25MOL0     H 3287   7.746   9.798   8.618 -0.7411  1.2304  2.5723
   25MOL0     H 3288   8.101   9.889   8.752 -0.4997 -0.7543  1.9576
   25MOL0     H 3289   8.326   9.973   8.793 -0.0461 -0.4433 -0.3478
   25MOL0     H 3290   8.483   9.973   9.004 -2.5164 -1.7313 -1.0499
   25MOL0     H 3291   8.534  10.045   8.851  0.5047  0.9383  0.5345
   25MOL0     H 3292   8.735   9.871   8.990  2.0777 -0.0129 -0.1969
   25MOL0     H 3293   8.756  10.005   8.878  1.3229 -1.6293  1.1500
   25MOL0     H 3294   8.809  10.049   9.127  0.4131  2.2140  0.2533
   25MOL0     H 3295   8.635  10.045   9.161 -1.6176 -0.4608 -0.9355
   25MOL0     H 3296   8.720  10.275   9.123 -1.5796  1.0598 -0.1484
   25MOL0     H 3297   8.789  10.225   8.964 -0.3412 -0.9719 -0.3635
   25MOL0     H 3298   8.376  10.349   8.913  1.8972  0.9007 -2.1667
   25MOL0     H 3299   8.465   9.581   8.879 -0.5128 -0.7261 -0.6473
   25MOL0     H 3300   8.260   9.485   8.823  1.2607 -0.5156  1.8995
   26MOL0     O 3301  10.855   8.915   0.475 -0.5136  0.3966 -0.0791
   26MOL0     C 3302  10.772   8.838   0.415  0.0348 -0.1396 -0.7931
   26MOL0     O 3303  10.798   8.711   0.375 -0.0524 -0.0588 -0.6249
   26MOL0     C 3304  10.923   8.650   0.395 -0.2000  0.5384  1.0421
   26MOL0     C 3305  11.042   8.723   0.379 -0.5003  0.4353 -0.1117
   26MOL0     C 3306  11.163   8.658   0.410  0.0210 -0.3936  0.5793
   26MOL0     C 3307  11.169   8.519   0.431  0.0576 -0.3964 -0.3783
   26MOL0     O 3308  11.279   8.438   0.436  0.5937 -0.3414 -0.0984
   26MOL0     C 3309  11.391   8.489   0.507 -0.8506  0.0723 -0.8629
   26MOL0     C 3310  11.478   8.373   0.554 -0.3075 -0.3040 -0.9176
   26MOL0     C 3311  11.418   8.298   0.671 -0.2166  0.0718  0.2070
   26MOL0     C 3312  11.501   8.184   0.717 -0.8957 -0.5746  0.9238
   26MOL0     C 3313  11.501   8.061   0.622  0.8834 -0.5769  0.4493
   26MOL0     C 3314  11.585   7.955   0.700  0.6128  0.5009  0.1750
   26MOL0     C 3315  11.588   7.828   0.611 -0.1521  0.0195  0.0299
   26MOL0     C 3316  11.687   7.731   0.670 -0.5773 -0.2265  0.6757
   26MOL0     N 3317  11.648   7.685   0.799  0.8795 -0.9710 -0.3914
   26MOL0     C 3318  11.560   7.586   0.827 -0.5805  0.1152 -0.0933
   26MOL0     C 3319  11.522   7.605   0.959  0.0399  0.2155  0.2650
   26MOL0     C 3320  11.443   7.503   1.038 -0.1349 -1.1781  0.4359
   26MOL0     C 3321  11.290   7.518   1.018  0.5495 -0.1886 -0.1537
   26MOL0     C 3322  11.232   7.431   1.128  0.3464 -0.0636 -0.1343
   26MOL0     C 3323  11.077   7.439   1.118  0.5227  0.1820  0.1756
   26MOL0     O 3324  11.009   7.389   1.237 -0.0257 -0.7874  0.0450
   26MOL0     C 3325  10.871   7.411   1.248 -0.1989  0.2201  0.1848
   26MOL0     C 3326  10.788   7.457   1.149 -0.2385 -0.0664  0.8111
   26MOL0     C 3327  10.653   7.484   1.180 -0.3550  0.2432 -0.3378
   26MOL0     C 3328  10.605   7.458   1.309 -0.2288  0.3136 -0.4693
   26MOL0     C 3329  10.463   7.495   1.343  0.8406  0.4590 -0.2401
   26MOL0     O 3330  10.406   7.453   1.456  0.2907  0.4415  0.6739
   26MOL0     C 3331  10.279   7.490   1.476  0.4596 -0.7174 -0.6045
   26MOL0     C 3332  10.232   7.623   1.495 -0.0051  0.2123 -0.4210
   26MOL0     C 3333  10.097   7.650   1.529  0.1362 -0.0331 -0.8790
   26MOL0     C 3334  10.011   7.547   1.550  0.1076  0.9582 -0.0867
   26MOL0     O 3335   9.881   7.571   1.599 -0.4142 -0.1239 -0.1044
   26MOL0     C 3336   9.787   7.617   1.500  0.2273  0.1081  0.6532
   26MOL0     C 3337   9.646   7.601   1.562 -1.1525  0.9478  0.2573
   26MOL0     C 3338   9.587   7.462   1.551  0.4207 -0.6520 -0.9844
   26MOL0     C 3339   9.653   7.353   1.636  0.4531 -0.0250  0.4674
   26MOL0     C 3340   9.553   7.251   1.699 -0.5121 -0.2673  0.2287
   26MOL0     C 3341   9.516   7.140   1.601 -0.6387  0.2817 -0.1760
   26MOL0     C 3342   9.630   7.034   1.569  0.5024  0.2288  0.3912
   26MOL0     C 3343   9.695   6.969   1.695 -0.4310  0.8294  0.9705
   26MOL0    Cl 3344   9.565   6.926   1.818  0.0405  0.4536 -0.0347
   26MOL0     C 3345  10.060   7.415   1.536  1.3536 -0.0161  0.0158
   26MOL0     C 3346  10.187   7.389   1.502 -1.1672 -0.0335  0.0361
   26MOL0     O 3347  10.399   7.557   1.253 -0.3873  0.2178  0.1449
   26MOL0     C 3348  10.684   7.395   1.404 -0.4975  0.0708 -0.2208
   26MOL0     C 3349  10.822   7.371   1.373  0.0083  0.1477 -0.2312
   26MOL0     N 3350  11.598   7.707   1.009  0.0036 -0.6049  0.4678
   26MOL0     N 3351  11.662   7.760   0.909 -0.0478 -0.6328  0.2554
   26MOL0     C 3352  11.048   8.451   0.441 -0.3604  0.6985 -0.5226
   26MOL0     C 3353  10.927   8.513   0.423 -0.2139 -0.2137 -0.0234
   26MOL0     C 3354  10.633   8.891   0.389 -0.5114  0.2266  0.0890
   26MOL0     C 3355  10.536   8.811   0.340 -0.5432 -0.8321  0.1356
   26MOL0     C 3356  10.398   8.844   0.335  0.3997 -0.7424  0.0760
   26MOL0     C 3357  10.356   8.968   0.377 -0.9211 -0.3811 -0.3839
   26MOL0     O 3358  10.232   9.031   0.379 -0.0882  0.2457 -0.7050
   26MOL0     C 3359  10.126   8.956   0.311 -0.4234 -0.4829  0.2839
   26MOL0     C 3360  10.052   8.849   0.391 -0.1645 -0.1995  0.6948
   26MOL0     C 3361   9.996   8.896   0.524 -0.0429 -0.1428 -0.2919
   26MOL0     C 3362   9.875   8.997   0.519 -0.0403 -0.1330  0.0824
   26MOL0     C 3363   9.756   8.913   0.505 -0.3888 -0.3190 -1.1160
   26MOL0     C 3364   9.649   8.851   0.522 -0.3539 -0.3958  0.0115
   26MOL0     C 3365  10.458   9.057   0.421 -0.2939  0.3172  0.3360
   26MOL0     C 3366  10.589   9.019   0.430  0.0293  0.0924  0.0454
   26MOL0     H 3367  11.035   8.828   0.349  0.7636  1.2155  2.1340
   26MOL0     H 3368  11.254   8.716   0.412 -0.1106 -0.1690  2.8345
   26MOL0     H 3369  11.366   8.541   0.599  2.3369  1.6533 -0.7552
   26MOL0     H 3370  11.448   8.556   0.442  2.1278  0.8075  2.1929
   26MOL0     H 3371  11.577   8.406   0.588 -0.3939 -1.1761  0.2360
   26MOL0     H 3372  11.488   8.294   0.478 -1.2661 -0.9108 -0.4332
   26MOL0     H 3373  11.315   8.269   0.649 -0.4776  1.6711 -0.8933
   26MOL0     H 3374  11.428   8.358   0.762 -0.7869 -2.5774  2.1193
   26MOL0     H 3375  11.603   8.224   0.711 -1.2604  0.2419 -0.7449
   26MOL0     H 3376  11.476   8.148   0.817  1.4024 -4.9126  0.1672
   26MOL0     H 3377  11.541   8.086   0.523 -0.1224  0.1618  0.2167
   26MOL0     H 3378  11.398   8.027   0.625  0.3698  0.8648 -0.1039
   26MOL0     H 3379  11.539   7.941   0.799 -2.3866  1.6878 -0.9492
   26MOL0     H 3380  11.682   8.004   0.713  2.1232 -2.7053  2.3659
   26MOL0     H 3381  11.495   7.772   0.601  0.0301 -0.6589  1.7993
   26MOL0     H 3382  11.614   7.864   0.511 -1.2033 -1.2266 -0.7215
   26MOL0     H 3383  11.779   7.789   0.683 -1.3168  1.5476 -1.3313
   26MOL0     H 3384  11.713   7.643   0.609 -1.9270 -1.5277  1.9028
   26MOL0     H 3385  11.528   7.493   0.781 -1.3963  0.2051  0.2841
   26MOL0     H 3386  11.480   7.522   1.139  0.9675 -2.5171  0.3070
   26MOL0     H 3387  11.477   7.406   1.002  2.5823 -0.1544 -0.0030
   26MOL0     H 3388  11.249   7.497   0.918 -2.0385  0.9884  0.5729
   26MOL0     H 3389  11.256   7.618   1.048 -2.4036 -0.1674 -2.9515
   26MOL0     H 3390  11.253   7.325   1.111 -1.6283 -0.2972 -1.5225
   26MOL0     H 3391  11.269   7.465   1.225 -2.0262 -1.0144  1.1753
   26MOL0     H 3392  11.052   7.368   1.038 -2.3568  0.6110  0.6041
   26MOL0     H 3393  11.040   7.536   1.083 -1.3323 -1.1191 -1.7551
   26MOL0     H 3394  10.808   7.485   1.046  0.2629  0.1951  0.9740
   26MOL0     H 3395  10.594   7.531   1.102 -0.4789 -1.4298 -1.2995
   26MOL0     H 3396  10.302   7.707   1.490 -0.8218  0.8938 -0.7158
   26MOL0     H 3397  10.064   7.750   1.555  3.7359  0.4746  2.7460
   26MOL0     H 3398   9.793   7.562   1.405 -0.7592 -1.4187  1.4465
   26MOL0     H 3399   9.802   7.724   1.482 -4.2631  0.5292 -2.0370
   26MOL0     H 3400   9.572   7.664   1.511 -1.7926  1.4281  1.7255
   26MOL0     H 3401   9.640   7.644   1.663  1.7878 -0.4314  1.1307
   26MOL0     H 3402   9.584   7.414   1.453 -1.5158 -2.5061 -0.1256
   26MOL0     H 3403   9.482   7.466   1.583  1.4064 -0.6979  2.7553
   26MOL0     H 3404   9.727   7.307   1.570  1.3787 -0.2234  1.6226
   26MOL0     H 3405   9.707   7.412   1.711 -1.7717  0.9175  1.4088
   26MOL0     H 3406   9.466   7.312   1.724 -0.4029 -0.5884  1.4487
   26MOL0     H 3407   9.596   7.221   1.795 -2.1024  1.5219  1.5748
   26MOL0     H 3408   9.484   7.178   1.503  0.1399 -0.4468 -0.7289
   26MOL0     H 3409   9.423   7.092   1.634 -0.7333  1.0696  0.7368
   26MOL0     H 3410   9.593   6.957   1.501  3.2438  1.6434 -2.9949
   26MOL0     H 3411   9.705   7.077   1.502 -0.0586 -0.9952 -1.1036
   26MOL0     H 3412   9.770   7.041   1.726  0.1435  0.2320  0.9964
   26MOL0     H 3413   9.736   6.871   1.668 -1.1010 -0.0018  2.8527
   26MOL0     H 3414   9.986   7.337   1.550  0.7557  0.3472 -0.9837
   26MOL0     H 3415  10.215   7.285   1.487 -2.5463 -0.4467  0.1669
   26MOL0     H 3416  10.654   7.372   1.506  2.0066 -2.4219  0.0807
   26MOL0     H 3417  10.896   7.333   1.442  3.0725  0.9711 -2.8112
   26MOL0     H 3418  11.071   8.346   0.454 -0.4459  0.6385 -0.8515
   26MOL0     H 3419  10.836   8.458   0.444  1.4372 -2.7410  1.0738
   26MOL0     H 3420  10.557   8.713   0.297 -1.1250 -0.4430 -1.0602
   26MOL0     H 3421  10.334   8.765   0.299  0.4074 -0.4346 -0.6338
   26MOL0     H 3422  10.156   8.923   0.211 -3.2317 -0.5551 -0.6130
   26MOL0     H 3423  10.053   9.033   0.289  0.1245  0.5241  1.7861
   26MOL0     H 3424   9.968   8.814   0.330  1.2237 -1.1632 -0.7323
   26MOL0     H 3425  10.121   8.768   0.414  2.0320  0.3029 -3.2771
   26MOL0     H 3426  10.077   8.957   0.564 -1.2323  2.4226 -1.5704
   26MOL0     H 3427   9.975   8.806   0.584  1.7927 -0.3835  0.0676
   26MOL0     H 3428   9.867   9.058   0.610  1.0755  0.3010 -0.0950
   26MOL0     H 3429   9.881   9.053   0.425 -1.3371  1.0193  0.6422
   26MOL0     H 3430   9.557   8.799   0.542 -1.2817  0.8799 -0.8188
   26MOL0     H 3431  10.431   9.160   0.444 -2.9630  0.5273 -2.9969
   26MOL0     H 3432  10.648   9.095   0.481 -0.7746  1.4647 -1.0005
   27MOL0     O 3433   3.840   1.890   4.606 -0.1455 -0.4425 -0.2023
   27MOL0     C 3434   3.824   1.764   4.612  0.0670 -0.9109 -0.7314
   27MOL0     O 3435   3.707   1.696   4.625 -0.3601 -0.3234 -0.4969
   27MOL0     C 3436   3.594   1.767   4.645 -0.0955 -0.1250  0.7976
   27MOL0     C 3437   3.576   1.842   4.763 -0.3278 -0.3606 -0.7973
   27MOL0     C 3438   3.465   1.919   4.779  0.2949  0.3704 -0.0116
   27MOL0     C 3439   3.365   1.931   4.684  0.7189  0.6843  0.5467
   27MOL0     O 3440   3.249   1.998   4.700  0.5780 -0.7809 -0.3531
   27MOL0     C 3441   3.178   2.014   4.828 -0.1428 -0.0438  0.2288
   27MOL0     C 3442   3.028   2.035   4.806 -0.2038 -0.1702 -0.1537
   27MOL0     C 3443   2.955   2.062   4.942 -0.0112 -0.0383 -0.6614
   27MOL0     C 3444   2.809   2.053   4.935  0.9256  0.1993 -0.8718
   27MOL0     C 3445   2.748   1.910   4.916 -0.1182  0.5672 -0.2224
   27MOL0     C 3446   2.596   1.910   4.911  0.0639 -0.4314  1.1632
   27MOL0     C 3447   2.533   1.784   4.970 -0.8743  0.2645  0.4123
   27MOL0     C 3448   2.383   1.786   4.919  0.0809 -0.7746  0.1539
   27MOL0     N 3449   2.318   1.658   4.961  0.2182 -0.4211  0.0725
   27MOL0     C 3450   2.345   1.543   4.899 -0.7834  0.1754  0.1515
   27MOL0     C 3451   2.231   1.463   4.920 -0.7854  0.4727 -0.4414
   27MOL0     C 3452   2.224   1.326   4.868 -0.5588 -0.1360  0.1505
   27MOL0     C 3453   2.099   1.285   4.797  0.2045  0.3525  0.1712
   27MOL0     C 3454   2.002   1.213   4.888  0.4719 -0.0074  0.6204
   27MOL0     C 3455   1.871   1.176   4.820  0.2105  1.3673  0.3485
   27MOL0     O 3456   1.805   1.071   4.897 -0.0316 -0.2812  0.0054
   27MOL0     C 3457   1.668   1.052   4.873 -0.3135  0.1152  0.1988
   27MOL0     C 3458   1.609   0.959   4.952  0.0414 -0.0337 -0.3139
   27MOL0     C 3459   1.473   0.918   4.931 -0.4282 -0.5742 -0.5558
   27MOL0     C 3460   1.399   0.981   4.829  0.7758  0.5872  0.8287
   27MOL0     C 3461   1.255   0.943   4.804  0.2799 -1.4071  0.0832
   27MOL0     O 3462   1.208   0.836   4.874  0.1674  0.3053 -0.3522
   27MOL0     C 3463   1.078   0.794   4.883 -0.1941  0.2931 -0.2327
   27MOL0     C 3464   1.051   0.700   4.981 -0.3559 -0.1374 -0.1361
   27MOL0     C 3465   0.922   0.643   5.004 -1.1011  0.6267  0.1500
   27MOL0     C 3466   0.825   0.679   4.923  0.0503  0.0795 -0.4157
   27MOL0     O 3467   0.698   0.641   4.941  0.1434  0.6197  0.5641
   27MOL0     C 3468   0.643   0.584   4.827  0.0805  0.4074  0.1349
   27MOL0     C 3469   0.523   0.510   4.868  0.5555  0.0554 -0.4493
   27MOL0     C 3470   0.392   0.599   4.872  0.1262  0.2450  0.1785
   27MOL0     C 3471   0.265   0.510   4.892 -0.2801  0.3776  0.3102
   27MOL0     C 3472   0.272   0.422   5.023 -0.1556 -0.2382 -0.2311
   27MOL0     C 3473   0.134   0.387   5.074 -0.1711 -0.0058 -0.0543
   27MOL0     C 3474   0.146   0.317   5.211 -0.7198  0.1471 -0.2401
   27MOL0     C 3475   0.001   0.288   5.247  0.1076  0.0655  0.0918
   27MOL0    Cl 3476  -0.001   0.174   5.382  0.2089 -0.1503  0.1006
   27MOL0     C 3477   0.851   0.774   4.819 -0.2243  0.1323  0.0766
   27MOL0     C 3478   0.975   0.833   4.800  0.8467 -0.2286  0.8080
   27MOL0     O 3479   1.186   1.016   4.731 -0.1166  0.0930  0.0095
   27MOL0     C 3480   1.463   1.076   4.750  0.1468  0.0048 -0.4309
   27MOL0     C 3481   1.590   1.114   4.772  0.4021  0.7027  0.0075
   27MOL0     N 3482   2.140   1.534   5.000  0.0044 -0.4118  0.8712
   27MOL0     N 3483   2.192   1.649   5.016  0.4191  0.5656  0.3193
   27MOL0     C 3484   3.385   1.870   4.562  0.2283  0.6833 -0.2249
   27MOL0     C 3485   3.500   1.779   4.543  0.2182  0.5936 -0.0990
   27MOL0     C 3486   3.936   1.674   4.600  0.5406  0.7711  1.8992
   27MOL0     C 3487   3.921   1.541   4.556  0.3337 -0.3314 -0.1248
   27MOL0     C 3488   4.026   1.446   4.546  0.6299  0.2596 -0.1309
   27MOL0     C 3489   4.155   1.482   4.578 -0.0795 -0.5717 -0.0071
   27MOL0     O 3490   4.259   1.394   4.596  0.4916  0.1914 -0.2591
   27MOL0     C 3491   4.371   1.437   4.683  0.8593 -0.9544 -0.4205
   27MOL0     C 3492   4.452   1.322   4.736  0.2019 -0.4927 -0.1552
   27MOL0     C 3493   4.493   1.219   4.628 -0.4626  0.0616  0.1178
   27MOL0     C 3494   4.537   1.093   4.700 -0.2348 -0.0991  0.2544
   27MOL0     C 3495   4.609   1.005   4.604 -0.0693 -0.0545 -0.6222
   27MOL0     C 3496   4.666   0.931   4.526 -0.3637 -0.1980  0.2252
   27MOL0     C 3497   4.177   1.617   4.605 -0.2419 -0.1717 -0.3177
   27MOL0     C 3498   4.069   1.715   4.611  0.4241 -0.2387 -0.2460
   27MOL0     H 3499   3.664   1.840   4.827  0.4404  0.2320 -1.7995
   27MOL0     H 3500   3.448   1.964   4.877  0.9244  1.0627 -0.2172
   27MOL0     H 3501   3.214   2.096   4.890  0.6189 -0.8847  0.9327
   27MOL0     H 3502   3.183   1.918   4.880  1.5252  0.3892  0.9397
   27MOL0     H 3503   2.994   1.942   4.759 -0.3314 -0.6135  0.7968
   27MOL0     H 3504   3.018   2.119   4.736  1.5817  0.5954  0.4610
   27MOL0     H 3505   2.978   2.166   4.970  1.6032 -1.0008  2.0515
   27MOL0     H 3506   3.007   1.998   5.014  0.8067  0.6826 -0.5914
   27MOL0     H 3507   2.759   2.088   5.026  2.5469  2.1971 -0.6898
   27MOL0     H 3508   2.777   2.112   4.848  1.6129  0.6358 -0.8325
   27MOL0     H 3509   2.781   1.840   4.993 -1.2546 -0.9633 -1.0665
   27MOL0     H 3510   2.792   1.874   4.823  1.1632  0.8593  0.2479
   27MOL0     H 3511   2.557   1.918   4.809  2.3400  0.7343  0.3044
   27MOL0     H 3512   2.554   1.993   4.967  1.9228  0.7482  0.9035
   27MOL0     H 3513   2.573   1.690   4.930 -0.3011  0.7230 -0.1080
   27MOL0     H 3514   2.537   1.783   5.079  1.8578 -1.5819  0.4042
   27MOL0     H 3515   2.388   1.790   4.810 -1.6065 -2.3694 -0.0075
   27MOL0     H 3516   2.340   1.883   4.947  2.8726  2.0182 -3.9838
   27MOL0     H 3517   2.431   1.521   4.838 -0.5209  0.3663  0.4528
   27MOL0     H 3518   2.256   1.255   4.944  0.3686  0.4595  0.3316
   27MOL0     H 3519   2.306   1.330   4.796 -1.1142  2.1520 -0.4372
   27MOL0     H 3520   2.124   1.214   4.718  1.1626  0.2178  0.5821
   27MOL0     H 3521   2.054   1.367   4.741  0.4590 -0.0425 -0.6364
   27MOL0     H 3522   2.052   1.123   4.923  0.3453 -0.1101  0.5359
   27MOL0     H 3523   1.975   1.269   4.979 -1.0877 -0.6197  0.5792
   27MOL0     H 3524   1.892   1.127   4.724 -1.4725  1.0654  0.1051
   27MOL0     H 3525   1.811   1.265   4.803  0.9186  1.6658 -0.6685
   27MOL0     H 3526   1.674   0.925   5.032 -1.8787 -1.2701  0.8106
   27MOL0     H 3527   1.428   0.840   4.993  1.6947 -0.2442  1.5001
   27MOL0     H 3528   1.137   0.672   5.042  1.6596  0.6985 -2.4556
   27MOL0     H 3529   0.905   0.563   5.075  0.7033  0.1271  0.0500
   27MOL0     H 3530   0.708   0.510   4.778 -1.1363  1.7279 -3.8586
   27MOL0     H 3531   0.621   0.659   4.751  4.7666  1.6275 -0.3117
   27MOL0     H 3532   0.533   0.459   4.965 -2.7933 -0.8865 -0.4822
   27MOL0     H 3533   0.500   0.428   4.800 -2.2230  0.7886 -0.4965
   27MOL0     H 3534   0.388   0.663   4.783 -0.7386  1.0519  0.7640
   27MOL0     H 3535   0.400   0.659   4.964  0.8032 -0.2025  0.4125
   27MOL0     H 3536   0.177   0.574   4.879  0.0322  0.4012 -2.1607
   27MOL0     H 3537   0.266   0.438   4.810  0.8514 -1.7749  2.0722
   27MOL0     H 3538   0.318   0.481   5.103 -0.5319 -1.2022  0.7141
   27MOL0     H 3539   0.331   0.331   5.007  2.3137  1.6773 -3.2790
   27MOL0     H 3540   0.082   0.330   4.997  1.1546  3.2845 -3.6928
   27MOL0     H 3541   0.076   0.479   5.078  1.4531  1.1935 -2.0006
   27MOL0     H 3542   0.190   0.217   5.198 -0.1022  0.7137 -3.0791
   27MOL0     H 3543   0.199   0.386   5.277 -0.9220  0.3489 -0.2881
   27MOL0     H 3544  -0.052   0.259   5.155  1.5653  1.9896 -1.4608
   27MOL0     H 3545  -0.056   0.378   5.272 -4.0676 -2.2624 -0.1158
   27MOL0     H 3546   0.768   0.804   4.756 -0.5306  4.3434  2.1665
   27MOL0     H 3547   0.984   0.909   4.723 -1.8033 -0.6077  0.0163
   27MOL0     H 3548   1.415   1.113   4.660  0.0792  2.3349  0.4775
   27MOL0     H 3549   1.621   1.186   4.697 -0.8617  1.7943  0.4833
   27MOL0     H 3550   3.307   1.882   4.487 -2.0128 -2.0549  1.4692
   27MOL0     H 3551   3.527   1.734   4.448 -3.0115 -2.0934  0.0613
   27MOL0     H 3552   3.819   1.515   4.526 -0.7904  1.9750  1.4160
   27MOL0     H 3553   3.997   1.345   4.520  0.9177  0.6364 -2.0827
   27MOL0     H 3554   4.336   1.484   4.775  1.0078 -3.2910  0.8815
   27MOL0     H 3555   4.439   1.500   4.624  0.5908 -1.0418 -0.8339
   27MOL0     H 3556   4.538   1.377   4.776 -1.0659  0.1499  1.8170
   27MOL0     H 3557   4.404   1.272   4.820 -0.6025  0.8785  0.2229
   27MOL0     H 3558   4.574   1.262   4.568  2.3255 -1.1815  2.6995
   27MOL0     H 3559   4.411   1.189   4.563 -2.0863  0.1872  2.0424
   27MOL0     H 3560   4.599   1.120   4.786  0.7509  0.1860 -0.5167
   27MOL0     H 3561   4.446   1.045   4.737  1.2751 -0.5563  3.7260
   27MOL0     H 3562   4.719   0.867   4.458  2.2433  2.4593 -0.4818
   27MOL0     H 3563   4.273   1.660   4.635 -0.5233 -0.7639  1.5601
   27MOL0     H 3564   4.074   1.823   4.626  0.3995 -0.0619 -1.4206
   28MOL0     O 3565   8.979   0.646   7.787 -0.4974 -0.0172 -0.0470
   28MOL0     C 3566   9.042   0.616   7.893 -0.3373  1.0903 -0.2370
   28MOL0     O 3567   8.993   0.551   8.000  0.2534 -0.7378 -0.7861
   28MOL0     C 3568   8.865   0.512   8.015 -0.5325 -0.5424  0.1544
   28MOL0     C 3569   8.774   0.490   7.910  0.9773  0.1859 -0.6316
   28MOL0     C 3570   8.640   0.458   7.939  0.2998  0.5359  0.3029
   28MOL0     C 3571   8.600   0.435   8.070  0.8322  0.3688  1.0312
   28MOL0     O 3572   8.474   0.395   8.101 -0.0013  0.6970 -0.4085
   28MOL0     C 3573   8.392   0.332   7.999  0.0343  0.5070 -0.2377
   28MOL0     C 3574   8.265   0.276   8.054  0.5442  0.1786  0.0241
   28MOL0     C 3575   8.164   0.380   8.085  0.9563  0.0416 -0.5004
   28MOL0     C 3576   8.022   0.313   8.106 -0.1462  0.2575 -0.6030
   28MOL0     C 3577   7.913   0.392   8.171  0.8102 -0.0495  0.3382
   28MOL0     C 3578   7.795   0.305   8.216  0.6379  0.5558  0.8371
   28MOL0     C 3579   7.691   0.384   8.294  0.2172 -0.5936 -0.2637
   28MOL0     C 3580   7.578   0.458   8.214  0.0885 -0.4767 -0.2602
   28MOL0     N 3581   7.469   0.506   8.302 -0.0218  0.6005  0.2755
   28MOL0     C 3582   7.473   0.597   8.411  0.4124  0.5937 -0.2143
   28MOL0     C 3583   7.342   0.588   8.468 -0.5359  0.8242  0.0991
   28MOL0     C 3584   7.279   0.654   8.587  0.5754  0.2909  0.0785
   28MOL0     C 3585   7.127   0.675   8.574 -0.7917  0.0656 -0.1865
   28MOL0     C 3586   7.092   0.767   8.462  0.1260  0.0292 -0.0774
   28MOL0     C 3587   6.943   0.787   8.449  0.4247 -0.0507 -0.9646
   28MOL0     O 3588   6.893   0.880   8.550  0.7027  0.0954  0.8166
   28MOL0     C 3589   6.753   0.874   8.559  0.4958  0.2910 -0.1616
   28MOL0     C 3590   6.705   0.831   8.676  1.0680  0.7540 -0.4107
   28MOL0     C 3591   6.562   0.825   8.703 -0.3374  0.2190  0.3117
   28MOL0     C 3592   6.470   0.871   8.603 -0.2711  0.3866 -0.3513
   28MOL0     C 3593   6.326   0.854   8.624  0.2403  0.2647 -0.3612
   28MOL0     O 3594   6.279   0.807   8.741  0.2744  0.3495  0.3482
   28MOL0     C 3595   6.139   0.804   8.760 -0.4556  0.1166 -0.6949
   28MOL0     C 3596   6.059   0.917   8.735 -0.5130  1.0847 -0.5955
   28MOL0     C 3597   5.925   0.910   8.772 -0.5956  0.2325 -1.1810
   28MOL0     C 3598   5.879   0.806   8.856  0.6321  0.3417  0.1803
   28MOL0     O 3599   5.750   0.792   8.905 -0.0299 -0.4007 -0.4338
   28MOL0     C 3600   5.654   0.884   8.858 -0.1985  0.4769  0.5596
   28MOL0     C 3601   5.515   0.853   8.921 -0.1750  0.3321 -0.3542
   28MOL0     C 3602   5.479   0.702   8.908  0.3113  0.3584 -0.0398
   28MOL0     C 3603   5.338   0.664   8.942 -0.5203 -0.0663  0.5608
   28MOL0     C 3604   5.228   0.710   8.853  0.1268  1.2544 -0.2218
   28MOL0     C 3605   5.236   0.665   8.706 -0.2579 -0.8685 -0.2381
   28MOL0     C 3606   5.225   0.509   8.690 -0.6389 -0.3046  0.7593
   28MOL0     C 3607   5.221   0.454   8.544  1.1407 -0.2136 -0.1151
   28MOL0    Cl 3608   5.186   0.278   8.543  0.2360 -0.2562  0.1937
   28MOL0     C 3609   5.972   0.715   8.903 -0.6640  0.4842 -0.3732
   28MOL0     C 3610   6.102   0.706   8.850  0.0700 -0.1912 -0.8617
   28MOL0     O 3611   6.260   0.891   8.532  0.2907  0.5060  0.5016
   28MOL0     C 3612   6.529   0.923   8.485  0.3569  0.6647  0.1102
   28MOL0     C 3613   6.663   0.916   8.459 -0.5508  0.3921  0.7272
   28MOL0     N 3614   7.266   0.494   8.392  0.0344  0.1445 -0.0133
   28MOL0     N 3615   7.339   0.452   8.296  0.2173  1.1737 -0.0229
   28MOL0     C 3616   8.693   0.455   8.168  0.1275  0.7468 -0.3708
   28MOL0     C 3617   8.824   0.488   8.147 -0.2048 -0.6319  0.8996
   28MOL0     C 3618   9.184   0.658   7.906 -0.9895  0.6016  0.3226
   28MOL0     C 3619   9.259   0.593   8.000 -0.1127 -0.4515 -0.3627
   28MOL0     C 3620   9.395   0.616   8.010  0.1235  0.0240  0.5303
   28MOL0     C 3621   9.458   0.706   7.918 -0.5937 -0.5162  0.1737
   28MOL0     O 3622   9.596   0.720   7.930  0.2838  0.0286  0.3948
   28MOL0     C 3623   9.669   0.634   7.843  0.2856  0.6161 -0.8937
   28MOL0     C 3624   9.787   0.582   7.916  1.3700 -0.2886  0.2306
   28MOL0     C 3625   9.755   0.469   8.019  0.2799 -0.9523 -0.9561
   28MOL0     C 3626   9.884   0.393   8.047  0.6722  0.5514  0.2651
   28MOL0     C 3627   9.871   0.308   8.170  0.5210 -0.5974  0.5201
   28MOL0     C 3628   9.861   0.249   8.272  0.1338 -0.8036 -0.2254
   28MOL0     C 3629   9.383   0.763   7.814  0.0064  0.2703 -0.3541
   28MOL0     C 3630   9.247   0.748   7.807 -0.4545  0.7987 -0.1862
   28MOL0     H 3631   8.805   0.495   7.806 -0.1707 -1.3792 -1.0739
   28MOL0     H 3632   8.565   0.446   7.861  2.2124 -1.7793 -1.3647
   28MOL0     H 3633   8.451   0.251   7.955 -0.9548 -0.8085  0.7451
   28MOL0     H 3634   8.365   0.404   7.922 -2.5874 -0.5413 -0.4040
   28MOL0     H 3635   8.288   0.215   8.142 -2.4438  0.6107  1.2080
   28MOL0     H 3636   8.218   0.208   7.982  0.1699 -0.4585  0.8493
   28MOL0     H 3637   8.166   0.464   8.016 -0.6923 -0.3425 -1.0704
   28MOL0     H 3638   8.196   0.423   8.181  1.2202 -0.5143 -0.3336
   28MOL0     H 3639   7.992   0.263   8.013  0.1032  0.6727 -0.9147
   28MOL0     H 3640   8.042   0.239   8.183  0.6321  1.1586  0.0751
   28MOL0     H 3641   7.873   0.458   8.094  1.4776  0.4214  0.3870
   28MOL0     H 3642   7.945   0.444   8.261 -1.8671  3.2327 -0.4193
   28MOL0     H 3643   7.828   0.219   8.276 -1.6270 -0.6653  0.4478
   28MOL0     H 3644   7.737   0.264   8.133 -1.7757  1.5380  1.9339
   28MOL0     H 3645   7.642   0.323   8.371  2.2175  0.4616  1.9844
   28MOL0     H 3646   7.751   0.458   8.347  0.8951 -1.7067  0.5736
   28MOL0     H 3647   7.537   0.393   8.137 -0.1588 -1.4661  0.6768
   28MOL0     H 3648   7.620   0.544   8.161  2.1292 -1.7539 -0.8054
   28MOL0     H 3649   7.557   0.645   8.459  0.3113  0.2388  0.3213
   28MOL0     H 3650   7.332   0.746   8.615 -1.1061  1.6074 -0.8805
   28MOL0     H 3651   7.292   0.586   8.672 -3.3362  1.4611  1.8328
   28MOL0     H 3652   7.089   0.718   8.667 -1.0533 -1.8105  0.6220
   28MOL0     H 3653   7.074   0.582   8.551 -0.4970 -0.2035  0.2130
   28MOL0     H 3654   7.136   0.865   8.483 -0.8267  0.1317  1.6836
   28MOL0     H 3655   7.130   0.726   8.368 -0.1153  2.7855 -1.4734
   28MOL0     H 3656   6.889   0.692   8.455  0.4458 -0.2071 -2.6688
   28MOL0     H 3657   6.919   0.815   8.346 -0.4502 -1.9410 -1.3220
   28MOL0     H 3658   6.769   0.792   8.755  0.8796  2.4861  0.6376
   28MOL0     H 3659   6.521   0.781   8.794  1.0210  1.0747  1.3790
   28MOL0     H 3660   6.088   1.005   8.678 -0.4222  1.0510 -0.6014
   28MOL0     H 3661   5.864   0.996   8.749  0.1424  1.6568  1.6550
   28MOL0     H 3662   5.639   0.879   8.750  3.8394  1.7557 -0.2453
   28MOL0     H 3663   5.674   0.986   8.892  0.5153 -0.3593  2.8404
   28MOL0     H 3664   5.439   0.914   8.871  1.9722  1.6956 -2.1615
   28MOL0     H 3665   5.522   0.881   9.026  1.9754  3.7806 -1.2689
   28MOL0     H 3666   5.540   0.658   8.987  3.2922  3.4712 -0.3481
   28MOL0     H 3667   5.494   0.660   8.809 -0.8462 -0.8854  0.2879
   28MOL0     H 3668   5.340   0.556   8.924 -1.6283  0.3846 -3.1294
   28MOL0     H 3669   5.300   0.692   9.041 -1.2869  0.8276  0.0297
   28MOL0     H 3670   5.230   0.819   8.855 -4.6868  1.6191 -1.3127
   28MOL0     H 3671   5.132   0.680   8.898 -0.4826  2.0026 -0.9867
   28MOL0     H 3672   5.329   0.692   8.656 -0.0847 -1.5623 -0.3042
   28MOL0     H 3673   5.154   0.718   8.657  0.0289 -1.0381 -0.9040
   28MOL0     H 3674   5.315   0.457   8.725 -1.6318 -2.3745  0.3775
   28MOL0     H 3675   5.138   0.473   8.745  0.6683 -0.0148  3.1644
   28MOL0     H 3676   5.325   0.456   8.512  1.5997 -0.6757  1.2731
   28MOL0     H 3677   5.159   0.519   8.481  0.6539 -0.6156 -0.0585
   28MOL0     H 3678   5.939   0.653   8.986  1.0422  0.5873  0.4496
   28MOL0     H 3679   6.176   0.632   8.879 -0.1939 -1.5899 -3.5131
   28MOL0     H 3680   6.470   0.976   8.410  1.9770  1.9502 -0.3264
   28MOL0     H 3681   6.699   0.955   8.365  0.1196 -0.9269  0.4236
   28MOL0     H 3682   8.660   0.457   8.272 -2.6500  2.9316 -1.1803
   28MOL0     H 3683   8.899   0.499   8.224 -1.2793 -0.1411  1.8936
   28MOL0     H 3684   9.218   0.520   8.069  1.5835  0.1312  1.3956
   28MOL0     H 3685   9.466   0.568   8.076  0.9393  2.0665  1.2261
   28MOL0     H 3686   9.714   0.692   7.762  2.6729 -0.9629 -0.8257
   28MOL0     H 3687   9.608   0.548   7.814  0.0959  0.4268  0.0422
   28MOL0     H 3688   9.861   0.554   7.840 -0.4432 -0.9507 -1.3414
   28MOL0     H 3689   9.830   0.665   7.974  1.7587 -0.3374  0.0172
   28MOL0     H 3690   9.682   0.400   7.975  0.0405 -0.7476 -0.8810
   28MOL0     H 3691   9.709   0.515   8.107 -0.0736 -1.8217 -0.6810
   28MOL0     H 3692   9.893   0.318   7.968 -0.2669  1.0804 -0.3675
   28MOL0     H 3693   9.964   0.465   8.067 -0.1996  1.5090  0.4028
   28MOL0     H 3694   9.855   0.193   8.363 -1.9686  0.8270  0.7338
   28MOL0     H 3695   9.429   0.830   7.742  0.1068 -1.2455 -1.7737
   28MOL0     H 3696   9.198   0.791   7.721 -0.8389  2.3341  0.7522
   29MOL0     O 3697   6.036   4.764   3.280 -0.7793  0.1045  0.0945
   29MOL0     C 3698   6.116   4.681   3.311 -0.5736  0.4907 -0.3500
   29MOL0     O 3699   6.092   4.562   3.371 -0.6378  0.3857  0.4706
   29MOL0     C 3700   5.962   4.506   3.384 -0.0901  0.0395  0.1647
   29MOL0     C 3701   5.898   4.432   3.284 -0.0184  0.2005 -0.0344
   29MOL0     C 3702   5.763   4.385   3.295 -0.1222  0.2727 -0.0504
   29MOL0     C 3703   5.695   4.425   3.404 -0.3477 -0.6668  0.0290
   29MOL0     O 3704   5.575   4.367   3.417  0.0929  0.0126 -0.2529
   29MOL0     C 3705   5.503   4.379   3.542 -0.0694 -0.1308 -0.5796
   29MOL0     C 3706   5.381   4.289   3.544  0.8420  0.7039  0.6120
   29MOL0     C 3707   5.293   4.306   3.671 -0.5342  0.5036  0.4598
   29MOL0     C 3708   5.169   4.218   3.671 -0.3512  0.0835 -0.1602
   29MOL0     C 3709   5.086   4.240   3.790  0.9176  0.2087 -0.9703
   29MOL0     C 3710   4.957   4.153   3.791  0.6693 -0.0669  0.4090
   29MOL0     C 3711   4.864   4.162   3.659  0.2889 -0.1401  0.5758
   29MOL0     C 3712   4.728   4.097   3.697 -0.1320 -0.3796  0.0154
   29MOL0     N 3713   4.627   4.091   3.586  0.1640  0.1620 -0.0690
   29MOL0     C 3714   4.595   4.195   3.506 -0.3314  0.6162 -0.0008
   29MOL0     C 3715   4.484   4.163   3.450  0.5188  0.2548 -0.0507
   29MOL0     C 3716   4.423   4.242   3.335  0.3845 -0.0443  0.3802
   29MOL0     C 3717   4.272   4.267   3.367 -0.0078  0.8678 -0.4952
   29MOL0     C 3718   4.202   4.358   3.270 -0.3739 -0.0305 -0.4372
   29MOL0     C 3719   4.051   4.397   3.304  0.2510 -0.1023 -0.5507
   29MOL0     O 3720   4.039   4.439   3.441 -0.3389  0.0128 -0.9946
   29MOL0     C 3721   3.913   4.440   3.490  0.6175 -0.2098  0.0230
   29MOL0     C 3722   3.866   4.315   3.530 -0.7274  0.7321  0.8496
   29MOL0     C 3723   3.741   4.310   3.587  0.0507 -0.2530 -0.1030
   29MOL0     C 3724   3.653   4.419   3.598 -0.6239 -0.2821 -0.2206
   29MOL0     C 3725   3.520   4.409   3.641  0.7734  0.3879 -0.5053
   29MOL0     O 3726   3.485   4.289   3.695  0.1798 -0.3646  0.1262
   29MOL0     C 3727   3.352   4.269   3.732  0.3833 -0.3198  0.5150
   29MOL0     C 3728   3.278   4.351   3.822  0.7292  0.2129  0.2802
   29MOL0     C 3729   3.145   4.321   3.849 -0.4703 -0.0756  0.3093
   29MOL0     C 3730   3.071   4.224   3.780  0.1832  0.7000  0.2270
   29MOL0     O 3731   2.936   4.206   3.805 -0.0603  0.7513  0.0067
   29MOL0     C 3732   2.889   4.073   3.767 -0.5539  0.0156 -0.2307
   29MOL0     C 3733   2.752   4.047   3.828  0.4879  0.6549 -0.1488
   29MOL0     C 3734   2.712   3.902   3.827 -0.5437 -0.8800 -0.3942
   29MOL0     C 3735   2.572   3.884   3.873 -0.9281 -0.0918  0.5165
   29MOL0     C 3736   2.531   3.735   3.906 -1.3243 -0.0490  1.0513
   29MOL0     C 3737   2.395   3.745   3.976 -0.5886  0.4967  0.0333
   29MOL0     C 3738   2.342   3.612   4.030  0.0674 -0.0428  0.2798
   29MOL0     C 3739   2.223   3.621   4.131 -0.5413 -0.1879 -0.2940
   29MOL0    Cl 3740   2.187   3.470   4.219  0.4444  0.0224  0.1292
   29MOL0     C 3741   3.147   4.147   3.693 -0.1718 -0.7157  0.0104
   29MOL0     C 3742   3.280   4.165   3.675 -0.9206 -0.4239 -0.0608
   29MOL0     O 3743   3.447   4.512   3.640 -0.1792  0.9327 -0.4207
   29MOL0     C 3744   3.715   4.546   3.588  0.2630 -0.6367 -0.2641
   29MOL0     C 3745   3.841   4.558   3.523  0.0146  0.3172  0.1201
   29MOL0     N 3746   4.453   4.032   3.482 -0.6031 -0.4454 -0.2787
   29MOL0     N 3747   4.532   3.991   3.571 -0.0963  0.4106 -0.9634
   29MOL0     C 3748   5.762   4.484   3.507  0.0209 -1.1578  0.7153
   29MOL0     C 3749   5.893   4.523   3.500  0.5289  0.0724  0.2125
   29MOL0     C 3750   6.261   4.719   3.289 -0.0564 -0.4377  0.8532
   29MOL0     C 3751   6.302   4.834   3.221 -0.4342 -0.2211 -0.1879
   29MOL0     C 3752   6.439   4.856   3.195 -0.5074  0.0233 -0.3835
   29MOL0     C 3753   6.542   4.769   3.234 -0.5209 -0.3061  0.3357
   29MOL0     O 3754   6.678   4.791   3.218  0.3262  0.5626 -0.4567
   29MOL0     C 3755   6.715   4.924   3.174 -0.6983 -0.0241 -0.0999
   29MOL0     C 3756   6.713   4.930   3.024 -0.1993 -0.0577 -0.1268
   29MOL0     C 3757   6.760   4.804   2.960 -0.7846 -0.7039  0.2655
   29MOL0     C 3758   6.779   4.839   2.803 -0.4835 -0.4172  0.1399
   29MOL0     C 3759   6.833   4.712   2.734  1.0140  0.1713  0.4545
   29MOL0     C 3760   6.891   4.619   2.679 -0.7202 -0.3174 -0.1139
   29MOL0     C 3761   6.505   4.659   3.312  0.3380  0.3535  0.0202
   29MOL0     C 3762   6.370   4.635   3.343  0.6606 -0.0210  0.3485
   29MOL0     H 3763   5.961   4.411   3.198  0.0588  0.2227  0.0173
   29MOL0     H 3764   5.711   4.324   3.222  1.1658  0.9004 -1.5355
   29MOL0     H 3765   5.462   4.480   3.554 -3.0683 -1.4224  0.8211
   29MOL0     H 3766   5.565   4.348   3.627  2.0479  0.6528 -1.7619
   29MOL0     H 3767   5.423   4.189   3.529  1.0927  1.0837 -1.6140
   29MOL0     H 3768   5.326   4.320   3.455 -0.4317  2.6912  2.0013
   29MOL0     H 3769   5.278   4.415   3.670  1.2284  0.8142  2.1686
   29MOL0     H 3770   5.351   4.281   3.760  3.1970 -0.0713 -1.9172
   29MOL0     H 3771   5.109   4.239   3.581 -0.6941 -0.6142 -0.1036
   29MOL0     H 3772   5.207   4.116   3.674 -2.4126 -0.7654 -0.9935
   29MOL0     H 3773   5.061   4.346   3.793 -2.6558 -0.3957 -3.1020
   29MOL0     H 3774   5.145   4.217   3.879  0.5079  0.9235 -0.5039
   29MOL0     H 3775   4.908   4.191   3.881  1.5278 -1.3886  1.4845
   29MOL0     H 3776   4.987   4.051   3.818 -1.0690  0.1386  3.6021
   29MOL0     H 3777   4.849   4.268   3.639 -0.6600  0.4352  3.7016
   29MOL0     H 3778   4.911   4.108   3.576  0.1295 -0.3718  0.6314
   29MOL0     H 3779   4.687   4.161   3.775  2.0970  0.5756  0.4877
   29MOL0     H 3780   4.738   3.994   3.735 -3.3930 -0.1851  1.7608
   29MOL0     H 3781   4.657   4.283   3.487  0.4753 -0.0728 -0.6388
   29MOL0     H 3782   4.439   4.190   3.241 -1.9309  1.0618 -0.6982
   29MOL0     H 3783   4.466   4.342   3.324 -1.1032  0.4329 -1.7922
   29MOL0     H 3784   4.268   4.306   3.470  1.7774 -1.0446  0.3630
   29MOL0     H 3785   4.222   4.169   3.369 -1.1359  1.3893 -1.5801
   29MOL0     H 3786   4.265   4.446   3.256 -1.9286  1.1788 -0.0598
   29MOL0     H 3787   4.209   4.308   3.173  4.5032  2.0799 -1.4734
   29MOL0     H 3788   3.988   4.313   3.274 -1.8445  0.9413  0.7405
   29MOL0     H 3789   4.029   4.491   3.253 -1.2521 -1.1318 -1.8850
   29MOL0     H 3790   3.919   4.226   3.496 -1.7683  0.4615 -0.1159
   29MOL0     H 3791   3.705   4.209   3.601 -0.1345 -0.4333 -1.6476
   29MOL0     H 3792   3.333   4.434   3.864  0.6409  1.4359 -1.8707
   29MOL0     H 3793   3.080   4.381   3.911 -2.0270  1.8704 -2.9501
   29MOL0     H 3794   2.953   3.999   3.817 -0.3511  2.1356  2.8900
   29MOL0     H 3795   2.872   4.048   3.661  2.7862  0.6232 -1.0219
   29MOL0     H 3796   2.679   4.105   3.770 -2.2021 -3.2826 -1.1305
   29MOL0     H 3797   2.735   4.081   3.931 -2.0376 -2.1038  0.4735
   29MOL0     H 3798   2.777   3.830   3.877  0.0732 -1.3772 -1.8462
   29MOL0     H 3799   2.726   3.874   3.722  1.8680 -0.2536 -0.2875
   29MOL0     H 3800   2.561   3.945   3.963  0.0708 -0.6484  1.0270
   29MOL0     H 3801   2.501   3.923   3.799  1.0353  0.8885 -0.9519
   29MOL0     H 3802   2.611   3.693   3.968 -0.7386  1.3174  1.2789
   29MOL0     H 3803   2.530   3.674   3.816  1.1015  0.2968  0.7219
   29MOL0     H 3804   2.334   3.798   3.903  0.0695  0.7487 -0.3495
   29MOL0     H 3805   2.420   3.806   4.063 -1.4226 -1.0059  1.3870
   29MOL0     H 3806   2.315   3.548   3.946  2.1382  0.2604 -0.6920
   29MOL0     H 3807   2.427   3.569   4.084 -0.0591  0.4665  0.8925
   29MOL0     H 3808   2.133   3.658   4.079 -0.5724  2.3381  1.3777
   29MOL0     H 3809   2.231   3.705   4.200 -1.0131 -1.5575  1.4863
   29MOL0     H 3810   3.097   4.069   3.636 -1.9888 -0.2746  0.9391
   29MOL0     H 3811   3.341   4.102   3.611 -0.2314  2.0722 -2.0506
   29MOL0     H 3812   3.657   4.634   3.610  2.7102  1.4743 -1.6889
   29MOL0     H 3813   3.890   4.653   3.503  0.8753 -0.4491 -1.6083
   29MOL0     H 3814   5.716   4.507   3.602 -0.3067  2.0271 -0.0941
   29MOL0     H 3815   5.932   4.572   3.589 -0.8189  0.9478  0.3466
   29MOL0     H 3816   6.225   4.894   3.173  0.0640  0.0800 -0.6162
   29MOL0     H 3817   6.457   4.949   3.142  1.6256  0.3424  0.7869
   29MOL0     H 3818   6.817   4.938   3.211 -0.6502  2.4939 -1.0199
   29MOL0     H 3819   6.657   5.006   3.217  2.1084  2.0453 -0.0147
   29MOL0     H 3820   6.616   4.950   2.978 -0.1777  1.5954  0.4488
   29MOL0     H 3821   6.779   5.009   2.987 -1.6801  1.1112 -0.3698
   29MOL0     H 3822   6.681   4.730   2.970 -0.5545 -0.6526  3.5360
   29MOL0     H 3823   6.853   4.763   3.000  0.2229 -0.1828 -1.4476
   29MOL0     H 3824   6.684   4.876   2.764  0.1839  1.8398  0.5007
   29MOL0     H 3825   6.863   4.907   2.785  0.7283 -1.9966 -0.3742
   29MOL0     H 3826   6.951   4.550   2.623 -2.0251 -1.8165  0.2664
   29MOL0     H 3827   6.572   4.586   3.357 -2.1496 -3.3265 -1.7150
   29MOL0     H 3828   6.351   4.543   3.397  2.7275 -1.4942 -1.2699
   30MOL0     O 3829   2.563   0.157   4.023 -0.0492  0.2610  0.0493
   30MOL0     C 3830   2.631   0.125   3.925  0.2125  0.0349  0.6187
   30MOL0     O 3831   2.602   0.161   3.805  0.0015 -0.2613 -0.1874
   30MOL0     C 3832   2.492   0.234   3.777 -1.1531 -0.3086  0.0333
   30MOL0     C 3833   2.366   0.183   3.808  0.1910  0.3480 -0.3255
   30MOL0     C 3834   2.253   0.240   3.765  0.4581  0.0993  0.0721
   30MOL0     C 3835   2.263   0.355   3.686  0.6010 -0.7720 -0.4278
   30MOL0     O 3836   2.134   0.400   3.639 -0.0201 -0.6291  0.1870
   30MOL0     C 3837   2.127   0.535   3.585  0.0605  0.4716  0.4626
   30MOL0     C 3838   1.983   0.587   3.575  0.0182  0.9423 -0.7632
   30MOL0     C 3839   1.907   0.599   3.715  0.1963 -0.1509 -0.4425
   30MOL0     C 3840   1.783   0.696   3.705  0.0867 -0.0296  0.0589
   30MOL0     C 3841   1.704   0.714   3.823 -1.4175 -0.7591 -0.1819
   30MOL0     C 3842   1.581   0.794   3.809  0.1142 -0.6822  0.3274
   30MOL0     C 3843   1.470   0.717   3.733 -0.0839 -0.7073  0.6679
   30MOL0     C 3844   1.357   0.813   3.705  0.0299  0.7501  0.8085
   30MOL0     N 3845   1.280   0.834   3.820  0.7274 -0.1832 -1.0576
   30MOL0     C 3846   1.195   0.739   3.868  0.7437 -0.5400 -0.7412
   30MOL0     C 3847   1.121   0.802   3.957 -0.1458  0.8342 -0.3222
   30MOL0     C 3848   1.001   0.739   4.035  0.1150  0.7009  1.1859
   30MOL0     C 3849   1.032   0.587   4.070  0.4466 -0.2320  0.2826
   30MOL0     C 3850   0.919   0.523   4.157  0.3706 -0.2293  0.0789
   30MOL0     C 3851   0.950   0.378   4.189  0.2142  0.0004  0.3394
   30MOL0     O 3852   0.844   0.339   4.266  0.3667  0.5101  0.4187
   30MOL0     C 3853   0.735   0.280   4.203 -0.0258 -0.2813 -0.4867
   30MOL0     C 3854   0.607   0.341   4.225 -0.7442 -0.8175 -0.5929
   30MOL0     C 3855   0.492   0.280   4.181  0.0750  0.1548 -0.2502
   30MOL0     C 3856   0.505   0.164   4.102  0.4155 -0.2800  0.1550
   30MOL0     C 3857   0.376   0.096   4.045 -0.0228 -0.5299 -0.7153
   30MOL0     O 3858   0.260   0.160   4.081 -0.3069  1.1010 -0.6408
   30MOL0     C 3859   0.135   0.143   4.027  0.1111  0.2984  0.1043
   30MOL0     C 3860   0.109   0.103   3.894 -0.5500 -0.4232  0.0995
   30MOL0     C 3861  -0.025   0.102   3.851 -0.7128  0.1665  0.0983
   30MOL0     C 3862  -0.131   0.119   3.939  0.2928  0.6934  0.4578
   30MOL0     O 3863  -0.254   0.122   3.884 -0.2863 -0.1469 -0.5412
   30MOL0     C 3864  -0.368   0.181   3.956  0.3122 -0.2074  0.2524
   30MOL0     C 3865  -0.480   0.177   3.866  0.0153  0.7525 -0.0219
   30MOL0     C 3866  -0.611   0.188   3.948  0.0367  0.2999  0.5615
   30MOL0     C 3867  -0.731   0.165   3.847 -0.0132 -0.1108 -0.2643
   30MOL0     C 3868  -0.855   0.205   3.918  0.5648 -0.6765  0.1020
   30MOL0     C 3869  -0.979   0.167   3.842  0.7901 -0.1149 -0.7238
   30MOL0     C 3870  -1.112   0.222   3.904  0.1340  0.7362  0.1710
   30MOL0     C 3871  -1.221   0.274   3.802 -0.5618  1.4585 -0.3234
   30MOL0    Cl 3872  -1.267   0.155   3.679  0.4080 -0.2369 -0.0837
   30MOL0     C 3873  -0.103   0.159   4.068 -0.0189 -0.0579  0.3228
   30MOL0     C 3874   0.026   0.163   4.119 -0.1060 -0.0165 -0.0943
   30MOL0     O 3875   0.386   0.008   3.969  0.0482  0.7963 -0.5317
   30MOL0     C 3876   0.626   0.117   4.061  0.2481 -0.5956  0.2076
   30MOL0     C 3877   0.734   0.166   4.123 -0.1384 -0.0172  0.3464
   30MOL0     N 3878   1.152   0.939   3.957  0.2729 -0.3593 -0.9839
   30MOL0     N 3879   1.256   0.952   3.883  1.0651 -0.6569  0.4662
   30MOL0     C 3880   2.386   0.420   3.659 -0.7249  0.2604  0.0881
   30MOL0     C 3881   2.502   0.357   3.706  0.5397  0.0014 -0.1279
   30MOL0     C 3882   2.733   0.022   3.947 -0.8897  0.0497 -0.2281
   30MOL0     C 3883   2.783  -0.065   3.846 -0.3786 -0.1972 -0.1978
   30MOL0     C 3884   2.897  -0.145   3.871  0.6651 -0.3437  0.1224
   30MOL0     C 3885   2.978  -0.139   3.983 -0.1983  0.0432 -0.1754
   30MOL0     O 3886   3.096  -0.213   4.001  0.0169  0.2136 -0.3029
   30MOL0     C 3887   3.145  -0.229   4.136 -0.1741 -0.0405 -0.1245
   30MOL0     C 3888   3.257  -0.326   4.135  0.1917 -0.3320 -0.1430
   30MOL0     C 3889   3.208  -0.463   4.117  0.4986 -0.6934 -0.2949
   30MOL0     C 3890   3.312  -0.568   4.132 -0.8869 -0.1605  0.0094
   30MOL0     C 3891   3.251  -0.690   4.083 -0.2829  0.2759  0.2598
   30MOL0     C 3892   3.218  -0.789   4.023  0.1728 -1.0205  0.4339
   30MOL0     C 3893   2.926  -0.056   4.089  0.5732 -0.5425 -0.0149
   30MOL0     C 3894   2.808   0.018   4.070  0.9474  0.2946  0.5349
   30MOL0     H 3895   2.365   0.090   3.865  1.5639 -0.1458 -1.0598
   30MOL0     H 3896   2.155   0.197   3.780  0.8388 -0.9758 -0.4267
   30MOL0     H 3897   2.167   0.538   3.484 -0.2570  0.7800  0.3447
   30MOL0     H 3898   2.184   0.594   3.657  2.2155 -4.0868  2.9538
   30MOL0     H 3899   1.924   0.521   3.510 -1.4763  2.1912 -0.7528
   30MOL0     H 3900   1.991   0.688   3.535 -2.0451  2.2132  1.7087
   30MOL0     H 3901   1.976   0.631   3.794  2.3827 -0.4491 -2.1102
   30MOL0     H 3902   1.868   0.502   3.746 -4.7668  1.7691  0.1879
   30MOL0     H 3903   1.832   0.789   3.676  0.2476  0.3676  1.5326
   30MOL0     H 3904   1.718   0.660   3.625 -2.2398  1.6849  1.0542
   30MOL0     H 3905   1.770   0.765   3.894 -0.9853 -2.0109  0.3502
   30MOL0     H 3906   1.678   0.618   3.870 -2.1282 -0.0832  0.8449
   30MOL0     H 3907   1.608   0.884   3.754 -1.7294 -0.8543 -0.9627
   30MOL0     H 3908   1.551   0.824   3.910 -0.7085  1.8553 -0.5951
   30MOL0     H 3909   1.495   0.682   3.632 -3.3902  0.4706 -0.6873
   30MOL0     H 3910   1.432   0.627   3.784 -1.0589 -0.3243  0.6362
   30MOL0     H 3911   1.283   0.770   3.636 -1.0853  2.7082  0.7125
   30MOL0     H 3912   1.394   0.901   3.652 -0.2085  0.6574  0.4826
   30MOL0     H 3913   1.174   0.640   3.830 -2.9642  1.3337 -4.3834
   30MOL0     H 3914   0.917   0.735   3.965  0.1396 -2.0188  1.2287
   30MOL0     H 3915   0.977   0.791   4.129 -1.0339 -0.4221  1.5407
   30MOL0     H 3916   1.128   0.579   4.123 -0.6131 -3.6541  1.9100
   30MOL0     H 3917   1.029   0.548   3.968 -0.9228  1.6736 -0.4548
   30MOL0     H 3918   0.908   0.579   4.250 -1.2466 -0.1915 -0.1112
   30MOL0     H 3919   0.822   0.533   4.107  0.8648  4.5554 -0.3522
   30MOL0     H 3920   1.043   0.351   4.241  0.2797  1.1093  0.8186
   30MOL0     H 3921   0.954   0.322   4.095  2.0966  2.7028 -1.3070
   30MOL0     H 3922   0.603   0.432   4.285 -1.1203 -2.3632  1.9060
   30MOL0     H 3923   0.406   0.332   4.223 -0.0750 -1.0939  1.1012
   30MOL0     H 3924   0.186   0.089   3.818  0.6159 -1.7112  1.4523
   30MOL0     H 3925  -0.030   0.077   3.746  1.2471 -0.6698  0.1754
   30MOL0     H 3926  -0.341   0.282   3.986  2.5836  0.3099 -3.0239
   30MOL0     H 3927  -0.390   0.118   4.043 -0.9816  0.4960  0.4503
   30MOL0     H 3928  -0.475   0.087   3.805  1.3027 -0.6028  1.9833
   30MOL0     H 3929  -0.469   0.267   3.805  1.1543  1.1710  0.7582
   30MOL0     H 3930  -0.616   0.288   3.992  0.6013  1.2635 -1.4102
   30MOL0     H 3931  -0.600   0.112   4.026 -3.6243  1.2271  2.1670
   30MOL0     H 3932  -0.724   0.217   3.751  1.4788  0.5486  0.1658
   30MOL0     H 3933  -0.737   0.057   3.829  0.3510 -0.5075  1.7494
   30MOL0     H 3934  -0.853   0.312   3.941 -4.2238 -0.7120  2.0330
   30MOL0     H 3935  -0.859   0.153   4.014 -1.3800 -2.0415 -0.6563
   30MOL0     H 3936  -0.996   0.059   3.839  0.2416 -0.0654  0.3088
   30MOL0     H 3937  -0.972   0.200   3.738 -3.1090  1.2715 -0.7065
   30MOL0     H 3938  -1.164   0.142   3.959 -0.0310  0.9818  0.3738
   30MOL0     H 3939  -1.091   0.307   3.970  1.9204  2.0412 -1.9418
   30MOL0     H 3940  -1.195   0.356   3.735  0.2340  3.4532  2.2422
   30MOL0     H 3941  -1.297   0.314   3.870  1.1152  1.3605  1.7275
   30MOL0     H 3942  -0.185   0.185   4.134  0.5097 -0.9730  1.3679
   30MOL0     H 3943   0.046   0.182   4.224 -2.5921  0.2970  0.3899
   30MOL0     H 3944   0.622   0.019   4.015 -2.0652 -0.1973 -0.5812
   30MOL0     H 3945   0.828   0.112   4.109 -0.6557 -0.8178 -0.1371
   30MOL0     H 3946   2.391   0.519   3.617  3.3448  1.2390  2.3312
   30MOL0     H 3947   2.605   0.389   3.694  0.3174  0.0934 -2.2114
   30MOL0     H 3948   2.722  -0.054   3.757  1.2266 -1.8494 -1.5962
   30MOL0     H 3949   2.935  -0.217   3.799  2.2939  1.4328 -0.8875
   30MOL0     H 3950   3.066  -0.260   4.205  0.1732  0.1097  0.3374
   30MOL0     H 3951   3.195  -0.140   4.174  3.1269 -1.1659 -1.4854
   30MOL0     H 3952   3.331  -0.299   4.058  0.9486 -0.5406  0.5003
   30MOL0     H 3953   3.315  -0.328   4.228  0.9495 -0.6636 -0.6087
   30MOL0     H 3954   3.171  -0.475   4.015  1.1990 -1.4417 -0.4765
   30MOL0     H 3955   3.134  -0.480   4.195  1.2658 -1.5352  0.2709
   30MOL0     H 3956   3.410  -0.560   4.084  1.0310 -2.6961  3.0121
   30MOL0     H 3957   3.341  -0.579   4.237  2.2583 -0.1134 -0.7426
   30MOL0     H 3958   3.193  -0.870   3.958 -1.1734  0.4431 -0.9518
   30MOL0     H 3959   2.969  -0.047   4.188 -1.8614 -1.3310  1.1865
   30MOL0     H 3960   2.773   0.083   4.149  0.4163  0.6748  0.0025
   31MOL0     O 3961   3.470   6.639   7.731  0.0760  0.6593 -0.2532
   31MOL0     C 3962   3.456   6.675   7.615  1.2359 -0.0490 -0.1123
   31MOL0     O 3963   3.334   6.680   7.553 -0.0925 -0.2805 -0.6444
   31MOL0     C 3964   3.225   6.635   7.620  0.1529  0.6909 -0.0124
   31MOL0     C 3965   3.184   6.704   7.733  0.1826  0.1852 -0.3786
   31MOL0     C 3966   3.048   6.690   7.783 -0.1297 -0.1378 -0.1680
   31MOL0     C 3967   2.973   6.589   7.724  0.3742 -0.3872 -0.7093
   31MOL0     O 3968   2.847   6.555   7.769  0.0265  0.4366  0.2658
   31MOL0     C 3969   2.791   6.626   7.873  0.9607  0.5103  0.2326
   31MOL0     C 3970   2.661   6.573   7.927 -0.0768 -0.9199  0.4829
   31MOL0     C 3971   2.675   6.428   7.984 -0.6652  0.2275 -0.3625
   31MOL0     C 3972   2.556   6.337   7.957 -0.2627  0.0553 -0.2532
   31MOL0     C 3973   2.516   6.232   8.064 -0.0644 -0.1541  0.1713
   31MOL0     C 3974   2.410   6.121   8.020 -0.3928 -1.3222 -0.4718
   31MOL0     C 3975   2.468   6.026   7.921  0.0419  0.0084  0.1327
   31MOL0     C 3976   2.569   5.930   7.998  0.4453  1.0760 -0.3839
   31MOL0     N 3977   2.707   5.935   7.941  0.3697  0.5438  0.2112
   31MOL0     C 3978   2.803   6.027   7.977  0.2272  1.0642 -0.0067
   31MOL0     C 3979   2.906   5.997   7.897 -0.7908  0.3063 -0.5666
   31MOL0     C 3980   3.033   6.076   7.905 -0.4814  0.7232  0.1842
   31MOL0     C 3981   3.042   6.190   7.802  0.1419  0.1105  0.2076
   31MOL0     C 3982   3.058   6.132   7.659  0.2852 -0.4019 -0.0506
   31MOL0     C 3983   3.197   6.082   7.613  0.7619 -0.0081 -0.2081
   31MOL0     O 3984   3.275   6.201   7.587  0.3907  0.2126 -0.3867
   31MOL0     C 3985   3.412   6.196   7.572  0.1851  0.6688  0.8429
   31MOL0     C 3986   3.479   6.079   7.523 -0.0476 -0.3767 -0.1978
   31MOL0     C 3987   3.623   6.084   7.501  0.7109  0.5961 -0.6615
   31MOL0     C 3988   3.692   6.203   7.537  1.1902  0.2051  0.4442
   31MOL0     C 3989   3.829   6.217   7.503 -0.7725  0.1208  0.0510
   31MOL0     O 3990   3.894   6.114   7.447  0.4289  0.0353 -0.3239
   31MOL0     C 3991   4.017   6.122   7.382  0.0070 -0.1347 -0.4942
   31MOL0     C 3992   4.121   6.072   7.450 -0.5685 -0.9541 -0.1046
   31MOL0     C 3993   4.250   6.063   7.388 -0.5137 -0.4971 -0.7389
   31MOL0     C 3994   4.268   6.101   7.257  0.2821  0.1379 -0.0407
   31MOL0     O 3995   4.394   6.077   7.203  0.1762 -0.3739  0.0583
   31MOL0     C 3996   4.406   6.074   7.060  0.0851 -0.2035  1.0380
   31MOL0     C 3997   4.437   6.216   7.014  0.0053  0.5655  0.1030
   31MOL0     C 3998   4.562   6.276   7.082 -1.3332 -0.1001  0.1656
   31MOL0     C 3999   4.607   6.422   7.030 -1.0816 -0.8814  0.0052
   31MOL0     C 4000   4.752   6.456   7.058 -0.3872 -0.2383 -0.6902
   31MOL0     C 4001   4.841   6.422   6.945 -0.3045  0.5873 -0.3273
   31MOL0     C 4002   4.861   6.273   6.905  0.6221  0.3503  0.1850
   31MOL0     C 4003   4.788   6.235   6.780 -0.4454 -0.8804  1.6688
   31MOL0    Cl 4004   4.851   6.323   6.626  0.3773  0.1355  0.0650
   31MOL0     C 4005   4.157   6.151   7.184 -0.3800  0.0343 -0.0154
   31MOL0     C 4006   4.035   6.164   7.249 -0.5104 -0.7668  0.0900
   31MOL0     O 4007   3.889   6.314   7.531 -0.0667 -0.4792  0.4965
   31MOL0     C 4008   3.623   6.314   7.583 -0.5186  0.3572 -0.6994
   31MOL0     C 4009   3.484   6.310   7.596 -0.4156  0.6420  0.3996
   31MOL0     N 4010   2.882   5.885   7.822 -0.0576 -0.1291 -0.0971
   31MOL0     N 4011   2.758   5.856   7.854  0.3179  0.3984  0.1852
   31MOL0     C 4012   3.032   6.499   7.628  0.9405 -0.8120  0.2224
   31MOL0     C 4013   3.155   6.520   7.570  0.1844 -1.4862  0.1785
   31MOL0     C 4014   3.559   6.748   7.548  0.2987 -0.3007  0.1163
   31MOL0     C 4015   3.536   6.788   7.415 -0.0007 -0.0023  0.6977
   31MOL0     C 4016   3.637   6.855   7.345  0.0354 -0.3677 -0.3922
   31MOL0     C 4017   3.756   6.899   7.413  0.2885 -0.6086  0.5472
   31MOL0     O 4018   3.850   6.976   7.346 -0.7012 -0.3115 -0.2338
   31MOL0     C 4019   3.972   7.032   7.408  0.0290 -0.2082  0.1054
   31MOL0     C 4020   4.085   6.936   7.421 -0.4929 -0.1136 -0.7452
   31MOL0     C 4021   4.218   7.006   7.393 -0.8113  0.5919 -0.5222
   31MOL0     C 4022   4.330   6.902   7.402 -0.8656 -0.3676 -0.5722
   31MOL0     C 4023   4.456   6.946   7.338 -0.3039  0.3080 -0.2146
   31MOL0     C 4024   4.562   6.980   7.289  0.3362 -0.7351  0.3505
   31MOL0     C 4025   3.772   6.869   7.546 -0.2050 -0.4073 -0.3381
   31MOL0     C 4026   3.673   6.796   7.611  0.5740  0.2888 -0.3091
   31MOL0     H 4027   3.240   6.790   7.768 -2.5863  1.5046  1.2506
   31MOL0     H 4028   3.012   6.746   7.869  1.3893  2.1336 -0.9487
   31MOL0     H 4029   2.782   6.730   7.839 -1.2395  0.1530 -0.4693
   31MOL0     H 4030   2.854   6.634   7.962 -0.0710 -1.7721  1.2397
   31MOL0     H 4031   2.585   6.566   7.849 -0.1405 -1.8883  0.6223
   31MOL0     H 4032   2.640   6.648   8.004 -0.3786  1.4613 -1.7696
   31MOL0     H 4033   2.678   6.440   8.093  1.3518  0.6974 -0.4239
   31MOL0     H 4034   2.771   6.384   7.958 -0.3814 -0.3761  1.5087
   31MOL0     H 4035   2.472   6.403   7.936  0.2526  1.3238  1.4817
   31MOL0     H 4036   2.587   6.291   7.863 -2.1997  1.0704 -1.4483
   31MOL0     H 4037   2.465   6.280   8.149 -3.2594 -0.4991 -1.3950
   31MOL0     H 4038   2.607   6.184   8.101  0.4405 -1.3474 -2.3712
   31MOL0     H 4039   2.319   6.167   7.981 -2.3291 -0.7814  4.0888
   31MOL0     H 4040   2.376   6.070   8.110 -2.0651  0.9905  0.3040
   31MOL0     H 4041   2.374   5.974   7.897 -0.4636  0.4534  1.0808
   31MOL0     H 4042   2.499   6.078   7.830  1.7102 -2.8821 -1.0749
   31MOL0     H 4043   2.531   5.827   7.989  1.9403  0.6513 -2.5449
   31MOL0     H 4044   2.579   5.943   8.106 -0.5857  1.6911 -0.3474
   31MOL0     H 4045   2.804   6.117   8.037  0.9554  1.3965 -0.5042
   31MOL0     H 4046   3.110   5.999   7.891 -0.5135  0.1953  2.5578
   31MOL0     H 4047   3.046   6.120   8.004  0.8953  3.1378 -0.9687
   31MOL0     H 4048   3.125   6.258   7.822  0.5686  0.7451 -3.0402
   31MOL0     H 4049   2.954   6.255   7.805 -0.6082 -0.9214  1.9253
   31MOL0     H 4050   2.992   6.045   7.658 -1.2780  0.7360 -1.6030
   31MOL0     H 4051   3.036   6.217   7.594 -1.8289  0.3555  1.5276
   31MOL0     H 4052   3.179   6.037   7.515  0.9870 -0.7998  0.0990
   31MOL0     H 4053   3.241   6.014   7.688 -0.4402  0.2736  0.7807
   31MOL0     H 4054   3.421   5.993   7.494 -0.9000 -0.0633  0.5378
   31MOL0     H 4055   3.672   5.991   7.476 -2.0425 -0.6202 -2.0037
   31MOL0     H 4056   4.111   6.051   7.556 -0.1881  1.5460  0.5058
   31MOL0     H 4057   4.334   6.023   7.443 -0.1338 -0.9175 -1.5979
   31MOL0     H 4058   4.310   6.041   7.020 -0.6964  2.2828  0.6552
   31MOL0     H 4059   4.494   6.012   7.044  1.3298  0.9238  3.0367
   31MOL0     H 4060   4.352   6.282   7.035 -1.1758 -0.0995 -2.2062
   31MOL0     H 4061   4.449   6.209   6.905 -0.3852 -1.8654  0.1572
   31MOL0     H 4062   4.647   6.212   7.057 -0.9016  0.6197 -0.2745
   31MOL0     H 4063   4.540   6.277   7.189 -2.3530 -3.6598  0.0974
   31MOL0     H 4064   4.583   6.448   6.926 -1.6490 -1.1718  0.0587
   31MOL0     H 4065   4.560   6.500   7.090  3.8723  3.3109 -0.8379
   31MOL0     H 4066   4.792   6.399   7.143  0.1041  2.2576  0.8668
   31MOL0     H 4067   4.780   6.558   7.084  1.0087 -0.3594 -1.6146
   31MOL0     H 4068   4.943   6.452   6.973  0.2133 -2.5296  1.7220
   31MOL0     H 4069   4.810   6.484   6.861 -0.0296  0.7510 -0.3089
   31MOL0     H 4070   4.969   6.264   6.895  0.5788 -0.9604  0.7140
   31MOL0     H 4071   4.841   6.198   6.983  0.3732  1.0402  0.8043
   31MOL0     H 4072   4.680   6.247   6.791 -0.5188  1.8066 -0.7178
   31MOL0     H 4073   4.798   6.126   6.767  0.3687 -0.6956  0.5920
   31MOL0     H 4074   4.166   6.186   7.081 -1.8062 -3.0941 -1.3517
   31MOL0     H 4075   3.955   6.209   7.191 -0.0282  0.2233  0.1653
   31MOL0     H 4076   3.675   6.408   7.598  1.0723 -0.0263 -3.4086
   31MOL0     H 4077   3.428   6.401   7.616 -1.2579  0.9799 -2.8349
   31MOL0     H 4078   2.975   6.414   7.591  2.0577 -2.0100  1.1594
   31MOL0     H 4079   3.196   6.466   7.485  2.9519  2.0600 -1.0109
   31MOL0     H 4080   3.438   6.776   7.369  0.5984  1.4286 -1.0794
   31MOL0     H 4081   3.620   6.883   7.242 -2.7444  0.1050  0.1035
   31MOL0     H 4082   3.939   7.081   7.500  1.0708 -0.7766  0.8012
   31MOL0     H 4083   4.008   7.115   7.347 -0.3116  0.1746  0.4199
   31MOL0     H 4084   4.091   6.898   7.524  2.2634 -0.5978 -1.0183
   31MOL0     H 4085   4.081   6.863   7.340  0.5443  0.8889 -1.7418
   31MOL0     H 4086   4.247   7.085   7.462 -0.5162  2.0590 -2.2479
   31MOL0     H 4087   4.236   7.056   7.298 -0.2654 -0.6936 -1.1315
   31MOL0     H 4088   4.354   6.880   7.507 -3.1126 -2.8156 -0.4620
   31MOL0     H 4089   4.300   6.808   7.356 -2.3672  0.7890 -2.0733
   31MOL0     H 4090   4.654   7.008   7.243 -0.8090 -2.0099 -2.9723
   31MOL0     H 4091   3.853   6.916   7.602 -1.0126  3.5888 -2.1716
   31MOL0     H 4092   3.678   6.776   7.718 -1.5883  0.8516 -0.0588
   32MOL0     O 4093   1.811   6.024  10.123  0.3522 -0.2975 -0.3568
   32MOL0     C 4094   1.889   6.108  10.080  0.4442  0.2576  0.3508
   32MOL0     O 4095   1.852   6.231  10.027  0.1887 -0.1209  0.2997
   32MOL0     C 4096   1.722   6.263  10.054  0.6543 -0.3977 -0.1506
   32MOL0     C 4097   1.689   6.331  10.172  0.5918 -0.7767  0.0833
   32MOL0     C 4098   1.559   6.374  10.197 -0.1838 -0.2737 -0.5060
   32MOL0     C 4099   1.448   6.339  10.121 -0.9211  0.5657  1.0137
   32MOL0     O 4100   1.317   6.383  10.138  0.2240  0.3809  0.2467
   32MOL0     C 4101   1.273   6.418  10.270 -0.1868  0.2013 -0.4100
   32MOL0     C 4102   1.117   6.402  10.271  0.2616  0.1854 -0.0201
   32MOL0     C 4103   1.050   6.507  10.166 -0.2865  0.7297  0.3841
   32MOL0     C 4104   0.900   6.519  10.160 -0.2947  0.0257 -0.4648
   32MOL0     C 4105   0.849   6.618  10.050 -0.2266 -0.3900  0.8274
   32MOL0     C 4106   0.871   6.566   9.911  0.2236  0.6573 -0.0099
   32MOL0     C 4107   0.820   6.644   9.791  0.3464  0.1188 -0.2489
   32MOL0     C 4108   0.814   6.788   9.815 -0.8016 -0.2027  0.0802
   32MOL0     N 4109   0.939   6.866   9.832 -0.6494  0.3975  0.5202
   32MOL0     C 4110   1.072   6.820   9.796  0.0595 -0.8979  0.2220
   32MOL0     C 4111   1.157   6.883   9.884 -0.1385 -0.3087  0.1476
   32MOL0     C 4112   1.310   6.866   9.898  0.0042  0.1423 -0.0292
   32MOL0     C 4113   1.352   6.744   9.985 -0.2306  0.5289 -0.3965
   32MOL0     C 4114   1.473   6.770  10.071 -0.0489  1.1155 -0.1656
   32MOL0     C 4115   1.598   6.777   9.989  0.6304  0.1949  0.4937
   32MOL0     O 4116   1.701   6.811  10.082  0.5729 -0.2167  0.6420
   32MOL0     C 4117   1.827   6.792  10.026  0.4166 -0.0425  0.5688
   32MOL0     C 4118   1.914   6.900  10.015  0.0432  0.2411 -0.2656
   32MOL0     C 4119   2.048   6.875   9.981 -0.5694 -0.1203  0.1161
   32MOL0     C 4120   2.102   6.747   9.969 -0.2226 -0.0051  0.1434
   32MOL0     C 4121   2.244   6.719   9.939  0.8959  0.2996 -0.5994
   32MOL0     O 4122   2.256   6.598   9.873 -0.1092 -0.2982 -0.0850
   32MOL0     C 4123   2.383   6.547   9.850  0.4731  0.5742 -0.1779
   32MOL0     C 4124   2.432   6.505   9.723 -0.5899  0.1930  0.1764
   32MOL0     C 4125   2.554   6.443   9.709 -1.1062  0.1867  0.0719
   32MOL0     C 4126   2.643   6.434   9.818  0.6255 -0.6716  0.6748
   32MOL0     O 4127   2.771   6.377   9.809  0.8348  0.0182 -0.0425
   32MOL0     C 4128   2.857   6.420   9.714 -0.7438  0.0884 -0.3252
   32MOL0     C 4129   2.996   6.358   9.736  0.0154  0.1427 -0.4306
   32MOL0     C 4130   3.083   6.409   9.631 -0.2963 -0.2384  0.8044
   32MOL0     C 4131   3.221   6.346   9.636 -0.1763  0.5417 -0.3081
   32MOL0     C 4132   3.334   6.414   9.552  0.0086  0.0095  0.0687
   32MOL0     C 4133   3.374   6.553   9.605 -0.0738  0.3134 -0.1136
   32MOL0     C 4134   3.492   6.610   9.520 -0.7251  0.3307  0.1002
   32MOL0     C 4135   3.541   6.741   9.574  0.4362  0.8232  0.3937
   32MOL0    Cl 4136   3.407   6.840   9.519 -0.3152 -0.6509 -0.1063
   32MOL0     C 4137   2.596   6.474   9.943  0.6806  0.6466 -0.5870
   32MOL0     C 4138   2.469   6.532   9.962 -0.7986  0.4527 -0.3901
   32MOL0     O 4139   2.330   6.794   9.973 -0.6184 -0.1607 -0.3283
   32MOL0     C 4140   2.010   6.645   9.992 -0.4776  0.1947 -0.5609
   32MOL0     C 4141   1.880   6.665  10.017 -0.4937  0.3824  0.8462
   32MOL0     N 4142   1.079   6.971   9.961  0.1200  0.0458 -0.2974
   32MOL0     N 4143   0.959   6.960   9.929  0.7854  0.1750  0.2420
   32MOL0     C 4144   1.478   6.260  10.009  0.0538 -0.1736  0.5002
   32MOL0     C 4145   1.614   6.225   9.975  0.7634  0.0500 -0.2094
   32MOL0     C 4146   2.028   6.069  10.068 -0.7082  1.1278  0.9471
   32MOL0     C 4147   2.117   6.163  10.008  0.0971  0.4865  0.1622
   32MOL0     C 4148   2.256   6.144   9.992  0.3712  0.4205  0.1045
   32MOL0     C 4149   2.309   6.022  10.040 -0.3052 -0.0774 -0.4731
   32MOL0     O 4150   2.448   6.022  10.026  0.1296  0.2807  0.3694
   32MOL0     C 4151   2.522   5.898  10.044  0.1675  0.3062  0.9158
   32MOL0     C 4152   2.666   5.937  10.033  0.0874  0.2701 -0.2926
   32MOL0     C 4153   2.746   5.808  10.017 -0.0376  0.2135  0.9328
   32MOL0     C 4154   2.896   5.827  10.024  0.4152 -0.0338 -0.0437
   32MOL0     C 4155   2.940   5.902   9.908 -0.1444 -1.0190  0.2593
   32MOL0     C 4156   2.954   5.962   9.805 -0.1848 -0.4496  0.2619
   32MOL0     C 4157   2.225   5.920  10.095 -0.0841  0.4972 -0.2105
   32MOL0     C 4158   2.086   5.945  10.106 -0.4733  0.5087 -0.0131
   32MOL0     H 4159   1.775   6.363  10.230  0.7865 -0.9037 -0.1289
   32MOL0     H 4160   1.563   6.429  10.290  1.1653 -1.5543  0.2256
   32MOL0     H 4161   1.297   6.523  10.286 -0.9879  0.1333  1.5686
   32MOL0     H 4162   1.316   6.360  10.353 -0.6545 -1.6370 -1.3958
   32MOL0     H 4163   1.081   6.421  10.373 -0.5595 -0.4293 -0.1890
   32MOL0     H 4164   1.084   6.304  10.234 -0.7919  0.5049  0.0409
   32MOL0     H 4165   1.081   6.487  10.063 -1.3666 -0.8942  0.3403
   32MOL0     H 4166   1.094   6.603  10.195 -0.3739  0.8787  0.0262
   32MOL0     H 4167   0.871   6.415  10.141 -1.8990 -0.0184  1.8111
   32MOL0     H 4168   0.866   6.545  10.261  1.4048  1.8773 -0.3241
   32MOL0     H 4169   0.885   6.719  10.074 -1.2803  0.5439 -1.1996
   32MOL0     H 4170   0.741   6.634  10.054 -0.3127  0.0879 -1.7200
   32MOL0     H 4171   0.817   6.470   9.905 -1.7373  1.5009  2.4474
   32MOL0     H 4172   0.978   6.556   9.894  0.3366  0.0438  1.0005
   32MOL0     H 4173   0.867   6.626   9.694 -0.1556  1.1916 -0.7138
   32MOL0     H 4174   0.720   6.602   9.781  0.2478 -0.7807  3.0976
   32MOL0     H 4175   0.748   6.809   9.899 -0.4064 -0.6377  0.5103
   32MOL0     H 4176   0.773   6.826   9.721 -2.2633 -0.7089  0.4796
   32MOL0     H 4177   1.102   6.751   9.718 -0.3154  0.8308 -1.5104
   32MOL0     H 4178   1.339   6.958   9.949 -2.1781 -0.1247  1.8650
   32MOL0     H 4179   1.363   6.878   9.803 -1.9529  3.4700 -0.8749
   32MOL0     H 4180   1.384   6.667   9.915  2.5904  1.6256 -0.4740
   32MOL0     H 4181   1.269   6.715  10.050 -0.6671  0.0574 -1.1544
   32MOL0     H 4182   1.461   6.865  10.123 -2.1564  1.0582 -0.4474
   32MOL0     H 4183   1.479   6.694  10.149  2.6981  0.9638 -0.4500
   32MOL0     H 4184   1.571   6.858   9.920 -2.1857  0.2842  1.5774
   32MOL0     H 4185   1.612   6.690   9.924  1.1051  0.2790  0.4806
   32MOL0     H 4186   1.879   7.003  10.024 -0.8702 -0.2364  2.6495
   32MOL0     H 4187   2.107   6.965   9.965 -0.1659  0.7773  5.1377
   32MOL0     H 4188   2.370   6.503   9.634 -0.1187 -0.4421 -0.1468
   32MOL0     H 4189   2.593   6.396   9.620  2.4097 -0.1866  1.6320
   32MOL0     H 4190   2.874   6.528   9.716  1.9893 -0.2414 -1.5932
   32MOL0     H 4191   2.816   6.398   9.614 -1.9848  0.8434 -0.0144
   32MOL0     H 4192   2.999   6.248   9.739  0.3437  0.1610  0.2873
   32MOL0     H 4193   3.038   6.398   9.829  1.1854 -1.0308 -0.4277
   32MOL0     H 4194   3.090   6.517   9.645 -2.6462 -0.1119  1.3806
   32MOL0     H 4195   3.048   6.398   9.528  2.3355 -0.7020 -0.1094
   32MOL0     H 4196   3.251   6.358   9.741 -3.6251  0.7411  0.7984
   32MOL0     H 4197   3.205   6.238   9.625  1.4191 -0.0665  2.2754
   32MOL0     H 4198   3.293   6.430   9.452  0.5254  1.4404  0.0507
   32MOL0     H 4199   3.424   6.353   9.545 -0.1058 -0.0852 -0.6886
   32MOL0     H 4200   3.415   6.535   9.705 -0.9990  1.1417  0.4313
   32MOL0     H 4201   3.289   6.621   9.596 -0.8359 -0.7889 -1.7108
   32MOL0     H 4202   3.567   6.530   9.520  0.0698  1.0358 -1.2066
   32MOL0     H 4203   3.467   6.626   9.414  0.1463  0.7866 -0.0377
   32MOL0     H 4204   3.633   6.770   9.521 -0.7254  2.2417 -0.9771
   32MOL0     H 4205   3.550   6.730   9.682 -0.6513 -1.6122  0.2947
   32MOL0     H 4206   2.657   6.467  10.032  0.4646 -1.1244 -0.5299
   32MOL0     H 4207   2.449   6.575  10.060 -0.8850  0.2722 -0.3292
   32MOL0     H 4208   2.036   6.541   9.976 -1.9846 -0.2913  0.0790
   32MOL0     H 4209   1.814   6.584  10.044 -1.8232  0.5069 -1.7411
   32MOL0     H 4210   1.404   6.228   9.937 -0.8697 -0.8290  1.6889
   32MOL0     H 4211   1.630   6.158   9.892 -0.7048  0.3338 -0.7620
   32MOL0     H 4212   2.078   6.261   9.980  0.5768  0.2867 -1.2676
   32MOL0     H 4213   2.313   6.225   9.947 -0.4974  0.1947 -1.5037
   32MOL0     H 4214   2.493   5.833   9.962  1.2781  1.4083 -0.3948
   32MOL0     H 4215   2.511   5.846  10.140  3.3533 -0.2928  1.0472
   32MOL0     H 4216   2.679   6.024   9.967 -0.5919  1.5711  1.2155
   32MOL0     H 4217   2.689   5.977  10.132  0.0420 -1.2004  0.3354
   32MOL0     H 4218   2.721   5.751   9.927 -1.8859  1.4917  0.5879
   32MOL0     H 4219   2.720   5.749  10.105 -1.1550 -0.2426  0.3111
   32MOL0     H 4220   2.922   5.873  10.120 -1.4533 -0.9352  0.9489
   32MOL0     H 4221   2.943   5.729  10.028  1.5384  0.4002 -1.5267
   32MOL0     H 4222   2.978   6.009   9.712  1.9588  0.0594  1.0221
   32MOL0     H 4223   2.261   5.825  10.131 -1.5251  0.5302  1.4361
   32MOL0     H 4224   2.013   5.875  10.146 -0.5732 -0.5705 -1.9881
   33MOL0     O 4225   0.316   4.183   3.809 -0.2854 -0.5504 -0.0027
   33MOL0     C 4226   0.305   4.301   3.790 -0.8144 -0.6638  0.4288
   33MOL0     O 4227   0.268   4.390   3.883  0.3205 -0.4420 -0.1489
   33MOL0     C 4228   0.219   4.353   4.001 -0.4475  0.0417  0.1100
   33MOL0     C 4229   0.259   4.445   4.103  0.3511  0.6201 -0.0583
   33MOL0     C 4230   0.224   4.423   4.239  0.7446  0.2544 -0.0802
   33MOL0     C 4231   0.141   4.310   4.273  0.5125 -0.7061 -0.1970
   33MOL0     O 4232   0.106   4.302   4.405 -0.2861  0.1681 -0.7230
   33MOL0     C 4233  -0.014   4.246   4.442 -0.2990 -0.1660  0.4692
   33MOL0     C 4234  -0.132   4.340   4.422  0.1131  0.1837 -0.8108
   33MOL0     C 4235  -0.265   4.291   4.482  0.1015 -0.0677  0.3311
   33MOL0     C 4236  -0.388   4.364   4.420 -0.2050  0.3192 -0.3905
   33MOL0     C 4237  -0.519   4.293   4.465  0.1878  0.2953  0.6045
   33MOL0     C 4238  -0.550   4.301   4.610 -0.3609 -1.1832 -0.2424
   33MOL0     C 4239  -0.697   4.267   4.633 -0.5746 -0.2154 -0.1312
   33MOL0     C 4240  -0.721   4.109   4.635  0.0382  0.3617 -0.1927
   33MOL0     N 4241  -0.866   4.076   4.645  0.2640  0.1904  0.1744
   33MOL0     C 4242  -0.934   4.080   4.760  0.3591 -0.4159  0.2967
   33MOL0     C 4243  -1.059   4.007   4.734 -0.9293 -0.0564 -0.5002
   33MOL0     C 4244  -1.152   3.965   4.844  0.8303  0.3572  0.5509
   33MOL0     C 4245  -1.263   4.069   4.851  0.4123 -0.0651 -0.3509
   33MOL0     C 4246  -1.374   4.011   4.941 -0.1011  0.1837  0.5840
   33MOL0     C 4247  -1.498   4.098   4.951 -0.4660  0.3465  0.3535
   33MOL0     O 4248  -1.602   4.015   5.010  0.1705  0.9025 -0.2559
   33MOL0     C 4249  -1.735   4.050   4.992 -0.4515 -0.2622 -0.1578
   33MOL0     C 4250  -1.826   3.967   5.048 -0.0260 -0.5324 -0.2591
   33MOL0     C 4251  -1.957   3.995   5.054  0.6332 -0.3354  0.5847
   33MOL0     C 4252  -2.009   4.114   4.995 -0.1792 -0.0520  0.1467
   33MOL0     C 4253  -2.143   4.153   4.999 -0.0741 -0.7523  0.5417
   33MOL0     O 4254  -2.231   4.079   5.078 -0.1870  0.1423  0.1056
   33MOL0     C 4255  -2.360   4.127   5.100 -0.4637 -0.5342  1.4783
   33MOL0     C 4256  -2.389   4.204   5.208  0.7138  0.2167  1.0265
   33MOL0     C 4257  -2.525   4.243   5.232 -0.0307  1.3529  0.8810
   33MOL0     C 4258  -2.626   4.215   5.139 -0.1453 -0.4424  0.5013
   33MOL0     O 4259  -2.752   4.250   5.164 -0.3009 -0.7990 -0.4702
   33MOL0     C 4260  -2.787   4.370   5.224 -0.1401 -0.0265  0.5642
   33MOL0     C 4261  -2.929   4.376   5.282  0.4012 -0.4776  0.3246
   33MOL0     C 4262  -3.036   4.379   5.173  0.0818 -0.0752 -0.2015
   33MOL0     C 4263  -3.174   4.415   5.228  0.0818  0.1408 -0.0104
   33MOL0     C 4264  -3.261   4.442   5.113 -0.7014  0.0179 -0.5009
   33MOL0     C 4265  -3.262   4.346   4.994 -0.3130  1.4259  1.3504
   33MOL0     C 4266  -3.357   4.387   4.878 -0.3653  0.4490  0.4454
   33MOL0     C 4267  -3.499   4.391   4.920 -0.5401  0.0144 -0.0688
   33MOL0    Cl 4268  -3.563   4.238   4.986 -0.0968  0.0804  0.0702
   33MOL0     C 4269  -2.592   4.151   5.020 -0.1455  0.0494 -0.8860
   33MOL0     C 4270  -2.456   4.097   5.000  0.9226  0.1463  0.1455
   33MOL0     O 4271  -2.179   4.256   4.932 -0.2557 -0.0509  0.4061
   33MOL0     C 4272  -1.914   4.192   4.929  0.0323 -0.9374 -0.4088
   33MOL0     C 4273  -1.777   4.170   4.942  0.5283 -0.6663  0.4571
   33MOL0     N 4274  -1.060   3.998   4.594  0.2412 -0.5045  0.0297
   33MOL0     N 4275  -0.943   4.032   4.544  0.1396  0.5585  0.0700
   33MOL0     C 4276   0.110   4.218   4.175  0.8147 -0.1936  0.2277
   33MOL0     C 4277   0.146   4.242   4.043 -0.0756 -0.3003  0.3082
   33MOL0     C 4278   0.349   4.350   3.658 -0.8462 -0.2270  0.0706
   33MOL0     C 4279   0.399   4.264   3.555 -0.2378 -0.0478 -0.0603
   33MOL0     C 4280   0.438   4.316   3.432  0.1634  0.2356 -0.1333
   33MOL0     C 4281   0.444   4.452   3.406 -0.5365  0.5191  0.3208
   33MOL0     O 4282   0.484   4.501   3.285 -0.7370  0.2998 -0.4141
   33MOL0     C 4283   0.580   4.597   3.271 -0.5025  0.6190  0.1526
   33MOL0     C 4284   0.623   4.618   3.122 -0.6343 -0.0192  0.1468
   33MOL0     C 4285   0.673   4.488   3.057 -0.1422 -1.0611  0.1881
   33MOL0     C 4286   0.736   4.506   2.909 -0.0230 -0.3099 -0.1932
   33MOL0     C 4287   0.843   4.598   2.921  0.4743  0.5151 -0.1487
   33MOL0     C 4288   0.943   4.658   2.931  0.1412  0.2283 -0.2675
   33MOL0     C 4289   0.405   4.540   3.512  0.0163 -0.0267  0.6950
   33MOL0     C 4290   0.351   4.491   3.635  0.5469 -0.4447 -0.3809
   33MOL0     H 4291   0.331   4.520   4.070 -1.4936  2.2426 -0.5752
   33MOL0     H 4292   0.247   4.499   4.312 -0.9625  0.7613 -0.0407
   33MOL0     H 4293  -0.023   4.231   4.549 -0.4004  2.4820  0.9010
   33MOL0     H 4294  -0.034   4.148   4.396  0.9513 -0.3707  0.3141
   33MOL0     H 4295  -0.155   4.357   4.317  0.1100  1.2625 -0.6412
   33MOL0     H 4296  -0.113   4.433   4.475 -0.9171  0.4272 -0.8601
   33MOL0     H 4297  -0.270   4.319   4.587  0.9193  3.5057 -0.4584
   33MOL0     H 4298  -0.278   4.184   4.460  1.2752  0.3096 -2.7648
   33MOL0     H 4299  -0.382   4.468   4.452 -0.5740  0.4017 -0.5936
   33MOL0     H 4300  -0.378   4.373   4.311  0.9818 -2.3558 -0.5826
   33MOL0     H 4301  -0.513   4.185   4.451  2.7321  0.4571 -0.0512
   33MOL0     H 4302  -0.603   4.328   4.405  0.6054  1.3215  0.6041
   33MOL0     H 4303  -0.540   4.406   4.639 -4.2708  0.3239 -3.3443
   33MOL0     H 4304  -0.482   4.229   4.656  1.4013 -0.7180 -2.0044
   33MOL0     H 4305  -0.725   4.302   4.733 -0.3519  0.3303 -0.2589
   33MOL0     H 4306  -0.755   4.324   4.559  2.2578  1.7170 -1.0397
   33MOL0     H 4307  -0.664   4.069   4.718  3.4302 -1.7076 -3.2292
   33MOL0     H 4308  -0.688   4.057   4.545  1.5155  0.4007  0.3000
   33MOL0     H 4309  -0.909   4.124   4.856 -2.6114 -0.9607  1.4265
   33MOL0     H 4310  -1.104   3.965   4.942  2.7592 -0.3965 -0.3388
   33MOL0     H 4311  -1.183   3.863   4.819  2.6032  0.2513 -1.4866
   33MOL0     H 4312  -1.303   4.102   4.754 -1.2162 -0.5401  0.1299
   33MOL0     H 4313  -1.233   4.162   4.898  0.6204  0.7858 -2.0721
   33MOL0     H 4314  -1.407   3.918   4.894  0.3096  1.3128 -2.1268
   33MOL0     H 4315  -1.335   3.987   5.040  0.6592 -1.9168 -0.1596
   33MOL0     H 4316  -1.524   4.134   4.851  0.2261 -0.9016 -0.3041
   33MOL0     H 4317  -1.474   4.184   5.014  2.5343 -0.5979  0.6424
   33MOL0     H 4318  -1.786   3.867   5.067 -1.0429 -1.1575 -1.2398
   33MOL0     H 4319  -2.022   3.926   5.107  1.2203 -0.7209  0.8166
   33MOL0     H 4320  -2.313   4.228   5.282  2.6492  3.5294 -1.7303
   33MOL0     H 4321  -2.547   4.286   5.329 -1.2999 -0.6074  1.5169
   33MOL0     H 4322  -2.775   4.451   5.152  0.3502  0.9713  1.7384
   33MOL0     H 4323  -2.717   4.394   5.305  0.8576  0.5396 -0.4372
   33MOL0     H 4324  -2.942   4.465   5.345 -2.4616 -1.0522  0.6649
   33MOL0     H 4325  -2.950   4.290   5.346  0.3648 -0.0489  0.8925
   33MOL0     H 4326  -3.030   4.282   5.122  2.2716  0.0177 -0.1830
   33MOL0     H 4327  -3.010   4.450   5.094  0.8891 -1.2910 -1.0649
   33MOL0     H 4328  -3.223   4.327   5.273 -0.2830 -0.3844 -1.3942
   33MOL0     H 4329  -3.175   4.504   5.292 -0.1751  2.0014 -2.4732
   33MOL0     H 4330  -3.247   4.543   5.074 -1.5620  0.5656  0.5434
   33MOL0     H 4331  -3.361   4.443   5.160 -0.8939  2.9237 -0.7810
   33MOL0     H 4332  -3.285   4.242   5.020 -3.6930  1.9994  1.1584
   33MOL0     H 4333  -3.162   4.347   4.949 -0.3080 -0.1623  1.2857
   33MOL0     H 4334  -3.322   4.482   4.837  2.8815 -0.8167  0.0173
   33MOL0     H 4335  -3.340   4.309   4.803  0.4140  0.2779  0.7966
   33MOL0     H 4336  -3.559   4.404   4.830  2.9050  2.5287 -2.2519
   33MOL0     H 4337  -3.501   4.478   4.987  2.7913 -1.1349  1.7845
   33MOL0     H 4338  -2.663   4.138   4.939 -1.1830  1.4309 -0.2558
   33MOL0     H 4339  -2.432   4.031   4.917  2.6095  0.6397  0.1879
   33MOL0     H 4340  -1.960   4.273   4.874 -0.4458 -1.1190 -0.2816
   33MOL0     H 4341  -1.716   4.248   4.895  1.0332 -0.0583  2.0393
   33MOL0     H 4342   0.055   4.130   4.206 -2.0737  1.1954 -0.6292
   33MOL0     H 4343   0.132   4.167   3.966  0.6298  0.3968 -0.5061
   33MOL0     H 4344   0.387   4.157   3.566 -0.2861 -0.0917 -0.5303
   33MOL0     H 4345   0.455   4.252   3.346  0.7351 -0.0671  0.1991
   33MOL0     H 4346   0.660   4.570   3.340 -1.8107  1.6882  2.1628
   33MOL0     H 4347   0.541   4.689   3.315 -2.2571 -1.2169  2.7003
   33MOL0     H 4348   0.547   4.671   3.063 -0.3010 -0.8557 -1.0609
   33MOL0     H 4349   0.710   4.684   3.134  0.2869 -1.0962 -0.4297
   33MOL0     H 4350   0.584   4.423   3.059 -0.5976 -0.4522 -0.1234
   33MOL0     H 4351   0.748   4.437   3.119 -0.1001 -0.6908  0.4470
   33MOL0     H 4352   0.757   4.411   2.859 -0.7226 -0.1429 -0.8159
   33MOL0     H 4353   0.662   4.561   2.851  0.0150 -0.1520 -0.0949
   33MOL0     H 4354   1.032   4.715   2.949  1.2026 -1.5360  0.3299
   33MOL0     H 4355   0.420   4.647   3.503 -0.0957  0.1062  1.9234
   33MOL0     H 4356   0.334   4.565   3.712  0.3030  0.0568 -0.9100
   34MOL0     O 4357  10.923   3.511   0.893 -0.3569 -0.2413  0.2209
   34MOL0     C 4358  10.953   3.435   0.805 -0.1105  1.1691  0.2314
   34MOL0     O 4359  10.871   3.340   0.744  0.5810 -0.5592  0.0577
   34MOL0     C 4360  10.745   3.314   0.792 -0.4702  0.7506 -0.4646
   34MOL0     C 4361  10.655   3.414   0.826  0.0996 -0.1487 -0.1382
   34MOL0     C 4362  10.527   3.376   0.870  0.1652 -0.0543  0.1400
   34MOL0     C 4363  10.501   3.241   0.889  1.0794 -0.0603  0.2968
   34MOL0     O 4364  10.376   3.202   0.919  0.4900 -0.1888 -0.4211
   34MOL0     C 4365  10.287   3.282   0.997 -0.0623 -0.3627  1.0496
   34MOL0     C 4366  10.158   3.201   1.022  0.6898 -0.1358 -0.3967
   34MOL0     C 4367  10.092   3.153   0.895  0.6425 -1.3537  0.1189
   34MOL0     C 4368   9.940   3.136   0.896 -0.5954 -0.3984 -0.1697
   34MOL0     C 4369   9.899   3.083   0.759  0.9787  0.3678  0.3940
   34MOL0     C 4370   9.747   3.113   0.748  0.5119 -0.2483  0.1347
   34MOL0     C 4371   9.677   3.004   0.665 -0.2804 -0.3093 -0.2263
   34MOL0     C 4372   9.527   3.027   0.675  0.1059  0.5236 -0.1001
   34MOL0     N 4373   9.450   2.929   0.602 -0.1726 -0.1182 -1.0277
   34MOL0     C 4374   9.495   2.847   0.497  0.3992  0.8508  0.3981
   34MOL0     C 4375   9.385   2.794   0.433 -0.2567  0.4653  0.0013
   34MOL0     C 4376   9.376   2.695   0.314 -0.3358  0.4934 -0.4273
   34MOL0     C 4377   9.338   2.756   0.187 -0.6985  0.4780 -0.0106
   34MOL0     C 4378   9.299   2.635   0.087 -0.3443  0.5513  0.2621
   34MOL0     C 4379   9.152   2.592   0.088  0.2755  0.4484 -0.3071
   34MOL0     O 4380   9.128   2.520   0.212 -0.1569 -0.1898  0.1229
   34MOL0     C 4381   8.999   2.472   0.232 -0.1425 -0.5082  0.8166
   34MOL0     C 4382   8.970   2.463   0.363 -0.3611  0.6228  0.2800
   34MOL0     C 4383   8.855   2.410   0.410  0.3136  0.1666 -0.0315
   34MOL0     C 4384   8.749   2.366   0.322  0.4720 -0.3281  0.4135
   34MOL0     C 4385   8.629   2.307   0.381 -0.0069  0.1412 -0.2089
   34MOL0     O 4386   8.554   2.238   0.293 -0.0207 -0.1402 -0.6701
   34MOL0     C 4387   8.430   2.199   0.325  1.3171 -0.0220 -0.2627
   34MOL0     C 4388   8.332   2.225   0.237 -0.1132 -0.3653  0.3058
   34MOL0     C 4389   8.208   2.166   0.240  0.3015 -0.7851 -0.4498
   34MOL0     C 4390   8.167   2.090   0.349  0.8410  0.2648  0.3330
   34MOL0     O 4391   8.034   2.053   0.349  0.1898 -0.2508  0.0251
   34MOL0     C 4392   7.983   1.970   0.455 -0.8239 -0.1142 -0.3660
   34MOL0     C 4393   7.844   1.937   0.419 -0.4004  0.0757  1.2831
   34MOL0     C 4394   7.764   2.059   0.399  0.3735 -0.6407  0.3412
   34MOL0     C 4395   7.622   1.989   0.366 -1.3616 -0.2805 -0.3302
   34MOL0     C 4396   7.506   2.080   0.329  0.4680  0.4441 -0.1224
   34MOL0     C 4397   7.366   2.012   0.329 -0.2262  0.4451  0.4201
   34MOL0     C 4398   7.240   2.094   0.324  0.2429 -0.1946 -0.0050
   34MOL0     C 4399   7.243   2.196   0.212 -0.3933  0.3311  0.1882
   34MOL0    Cl 4400   7.105   2.304   0.244  0.2299  0.3362  0.5506
   34MOL0     C 4401   8.263   2.067   0.451  0.0850  0.1770 -0.7947
   34MOL0     C 4402   8.394   2.116   0.435 -0.2953 -0.2279 -0.0698
   34MOL0     O 4403   8.603   2.337   0.495 -0.7988 -0.1579 -0.6796
   34MOL0     C 4404   8.779   2.388   0.187  0.6434  0.4629 -0.3647
   34MOL0     C 4405   8.894   2.436   0.144 -0.4660 -0.0436 -0.1973
   34MOL0     N 4406   9.277   2.853   0.495  0.1348 -0.2812 -0.5383
   34MOL0     N 4407   9.313   2.943   0.595 -0.6777  0.3183  0.4510
   34MOL0     C 4408  10.587   3.142   0.856  0.4402  0.3474 -0.1395
   34MOL0     C 4409  10.713   3.182   0.808 -0.2497  0.9269 -0.2405
   34MOL0     C 4410  11.097   3.431   0.762  0.4327  0.2414  0.0864
   34MOL0     C 4411  11.181   3.542   0.795  0.3026 -0.0629 -0.3145
   34MOL0     C 4412  11.311   3.532   0.768 -0.6019 -0.0498  0.4186
   34MOL0     C 4413  11.367   3.413   0.712 -0.3590 -0.1923  0.0556
   34MOL0     O 4414  11.506   3.410   0.705 -0.4143 -0.3288 -0.4454
   34MOL0     C 4415  11.567   3.280   0.725  1.1461  0.1856 -0.1917
   34MOL0     C 4416  11.716   3.301   0.729 -0.2924  0.6630 -0.6954
   34MOL0     C 4417  11.755   3.333   0.877 -0.5106  0.0988  0.1065
   34MOL0     C 4418  11.910   3.361   0.907  0.5816  0.5062 -0.0011
   34MOL0     C 4419  12.002   3.264   0.838  0.2946 -0.3129 -0.0327
   34MOL0     C 4420  12.069   3.196   0.761  0.5808 -0.5935  0.3375
   34MOL0     C 4421  11.291   3.306   0.666  0.2862 -0.3754 -0.7401
   34MOL0     C 4422  11.150   3.316   0.691  0.1512  0.6856  0.5472
   34MOL0     H 4423  10.691   3.516   0.820  1.1426 -0.3886  1.4814
   34MOL0     H 4424  10.452   3.452   0.889 -1.3822 -1.5816  0.3246
   34MOL0     H 4425  10.253   3.375   0.951 -2.8402 -0.7308  2.1610
   34MOL0     H 4426  10.346   3.295   1.088  1.4571 -2.2603  0.4111
   34MOL0     H 4427  10.093   3.277   1.067 -1.7092 -1.0675 -2.1006
   34MOL0     H 4428  10.161   3.120   1.096 -2.1720 -3.5476 -3.6447
   34MOL0     H 4429  10.131   3.051   0.883 -1.5563 -2.8026  3.7683
   34MOL0     H 4430  10.131   3.208   0.809  0.4003  0.5600  1.2002
   34MOL0     H 4431   9.920   3.069   0.981  1.8768 -0.5659  0.3539
   34MOL0     H 4432   9.899   3.236   0.912  0.1376  0.4575 -3.0707
   34MOL0     H 4433   9.920   2.975   0.756 -2.4442 -0.3943 -1.5417
   34MOL0     H 4434   9.949   3.126   0.672 -2.3511 -0.4047 -2.0799
   34MOL0     H 4435   9.731   3.210   0.699 -2.1210  0.6597  2.5041
   34MOL0     H 4436   9.697   3.119   0.845  2.8005  0.3224  1.3453
   34MOL0     H 4437   9.704   3.020   0.561 -0.4669 -0.4547 -0.2977
   34MOL0     H 4438   9.694   2.899   0.692 -1.0891 -0.6468 -0.9803
   34MOL0     H 4439   9.500   3.126   0.635  4.6663  1.4423 -1.4960
   34MOL0     H 4440   9.494   3.028   0.779 -1.0212  0.1816 -0.4324
   34MOL0     H 4441   9.598   2.828   0.468 -0.4602  0.4683 -2.7716
   34MOL0     H 4442   9.299   2.621   0.341  0.1976 -0.0796 -0.4557
   34MOL0     H 4443   9.475   2.654   0.293 -0.7992 -1.0062  0.1146
   34MOL0     H 4444   9.422   2.810   0.144 -1.9681  0.1250 -3.2500
   34MOL0     H 4445   9.246   2.816   0.190 -0.3391  1.1633 -1.6396
   34MOL0     H 4446   9.312   2.677  -0.013  0.9565  0.8251  0.5256
   34MOL0     H 4447   9.357   2.542   0.085  1.1753  1.4404 -3.0044
   34MOL0     H 4448   9.137   2.530   0.000  2.3490  1.0345 -1.1519
   34MOL0     H 4449   9.089   2.681   0.083 -0.9060 -0.2276  1.6239
   34MOL0     H 4450   9.040   2.505   0.435 -1.1685  1.3038  0.6747
   34MOL0     H 4451   8.840   2.407   0.518  2.7752 -0.7713  0.3550
   34MOL0     H 4452   8.358   2.294   0.158 -2.5859 -0.9367 -1.1162
   34MOL0     H 4453   8.133   2.183   0.163 -0.2133 -0.6561  0.0694
   34MOL0     H 4454   7.976   2.024   0.550  1.1043  0.5546 -0.5705
   34MOL0     H 4455   8.039   1.877   0.469 -0.4239  0.0019 -1.1449
   34MOL0     H 4456   7.796   1.887   0.504 -0.2229 -0.8161  0.8746
   34MOL0     H 4457   7.845   1.878   0.327 -1.9552  0.5340  0.9357
   34MOL0     H 4458   7.803   2.131   0.327  3.1526 -0.9537  1.4076
   34MOL0     H 4459   7.763   2.121   0.489  0.7897 -1.5941  1.0201
   34MOL0     H 4460   7.639   1.909   0.294  0.7847 -2.6639  2.5638
   34MOL0     H 4461   7.584   1.939   0.456 -3.8487  1.2859 -0.4247
   34MOL0     H 4462   7.520   2.116   0.227 -2.2185  0.2844 -0.6100
   34MOL0     H 4463   7.513   2.158   0.405  2.7531 -0.5012  0.7068
   34MOL0     H 4464   7.353   1.942   0.412 -2.1408 -0.5321 -0.6412
   34MOL0     H 4465   7.366   1.947   0.241  2.3767 -0.8429  1.2606
   34MOL0     H 4466   7.158   2.026   0.298 -0.2525  0.8698 -1.2995
   34MOL0     H 4467   7.220   2.139   0.422 -2.2881 -0.6020 -0.2575
   34MOL0     H 4468   7.224   2.152   0.114  2.1648  0.3685 -0.4007
   34MOL0     H 4469   7.335   2.255   0.208 -2.1274  3.1983  0.1041
   34MOL0     H 4470   8.243   2.002   0.537 -1.0594  0.1829 -1.0463
   34MOL0     H 4471   8.466   2.071   0.503 -0.3114 -1.3983 -0.8015
   34MOL0     H 4472   8.696   2.371   0.118  1.4323  1.3195 -1.5686
   34MOL0     H 4473   8.902   2.459   0.038 -2.9696 -2.0518 -0.9268
   34MOL0     H 4474  10.564   3.038   0.876  0.4523 -0.1182 -2.3162
   34MOL0     H 4475  10.789   3.109   0.783 -1.0568  0.5635 -1.7376
   34MOL0     H 4476  11.145   3.629   0.849  2.1794  1.3616 -1.2431
   34MOL0     H 4477  11.388   3.600   0.803  3.1348 -2.5408 -2.1721
   34MOL0     H 4478  11.541   3.207   0.648  0.3118  0.3241 -0.0552
   34MOL0     H 4479  11.520   3.231   0.811 -2.5607  0.4352 -1.8868
   34MOL0     H 4480  11.761   3.207   0.695  1.2230  0.7019  1.0327
   34MOL0     H 4481  11.752   3.378   0.660 -0.1644  0.2869 -1.0496
   34MOL0     H 4482  11.718   3.244   0.930  0.0177  0.7220  1.5746
   34MOL0     H 4483  11.699   3.423   0.904 -1.0025  0.8965 -3.2068
   34MOL0     H 4484  11.931   3.463   0.874  1.0634  0.2571 -0.4799
   34MOL0     H 4485  11.919   3.334   1.013 -0.5689 -0.0238 -0.0205
   34MOL0     H 4486  12.119   3.121   0.702 -0.7363 -1.7685  0.6522
   34MOL0     H 4487  11.334   3.223   0.611 -1.4538 -1.4280 -0.5670
   34MOL0     H 4488  11.093   3.234   0.649 -0.1322  1.4575 -0.6047
   35MOL0     O 4489   9.560   6.661   7.870  0.4693 -0.3857  0.7365
   35MOL0     C 4490   9.597   6.566   7.800  0.2678  0.4312  0.9137
   35MOL0     O 4491   9.515   6.481   7.725  0.3357  0.1324  0.1132
   35MOL0     C 4492   9.385   6.510   7.717 -0.2138 -0.6144 -0.6394
   35MOL0     C 4493   9.289   6.438   7.790  0.1373  0.3055  0.0456
   35MOL0     C 4494   9.152   6.462   7.782  0.3033 -0.0771  0.4353
   35MOL0     C 4495   9.105   6.564   7.689 -0.0964  0.0121  0.5102
   35MOL0     O 4496   8.976   6.607   7.667  0.9832 -0.5415 -0.1569
   35MOL0     C 4497   8.878   6.578   7.772 -0.0797  0.4105  0.2608
   35MOL0     C 4498   8.802   6.438   7.754  0.4844 -0.2910 -0.1823
   35MOL0     C 4499   8.706   6.430   7.640  0.5806  0.8454 -0.5315
   35MOL0     C 4500   8.601   6.325   7.694 -0.2976  0.1461 -0.1696
   35MOL0     C 4501   8.475   6.302   7.597  0.0215  0.4867 -0.1926
   35MOL0     C 4502   8.507   6.242   7.456  0.3831 -0.1529 -0.4596
   35MOL0     C 4503   8.382   6.242   7.371  1.2134  0.2253  0.3298
   35MOL0     C 4504   8.294   6.123   7.392  0.6282  0.9687 -0.4810
   35MOL0     N 4505   8.154   6.137   7.341 -0.0729 -0.2420 -0.9796
   35MOL0     C 4506   8.076   6.234   7.396 -0.8246  0.2453  0.6701
   35MOL0     C 4507   7.959   6.220   7.332  0.2638  0.2394  0.9083
   35MOL0     C 4508   7.843   6.318   7.348  0.3696 -0.5277 -0.5277
   35MOL0     C 4509   7.735   6.251   7.431  0.5695 -0.1211 -0.0034
   35MOL0     C 4510   7.740   6.287   7.581 -0.3786 -0.3150 -0.0730
   35MOL0     C 4511   7.631   6.221   7.655 -0.3439 -0.4907 -0.2556
   35MOL0     O 4512   7.505   6.271   7.603 -0.0511  0.6988 -0.1787
   35MOL0     C 4513   7.388   6.229   7.662  0.3630  0.6876 -0.5347
   35MOL0     C 4514   7.374   6.113   7.741 -0.5592  0.8034  0.3342
   35MOL0     C 4515   7.247   6.058   7.768 -0.8533 -0.0065  0.5198
   35MOL0     C 4516   7.128   6.125   7.738 -0.5697 -0.0229  0.3598
   35MOL0     C 4517   6.994   6.070   7.778 -0.3053 -0.1874 -0.4774
   35MOL0     O 4518   6.895   6.159   7.766  0.5586 -0.4675  0.3126
   35MOL0     C 4519   6.760   6.128   7.789  0.5021 -0.2609 -0.0513
   35MOL0     C 4520   6.712   6.035   7.880 -0.3910 -0.1051 -0.1378
   35MOL0     C 4521   6.573   6.026   7.910 -0.4787 -0.5435 -0.2754
   35MOL0     C 4522   6.484   6.105   7.846 -0.2191 -0.3648 -0.0049
   35MOL0     O 4523   6.345   6.098   7.853  0.6903  0.0972 -0.4721
   35MOL0     C 4524   6.290   5.968   7.877 -0.6798  0.1005  0.4106
   35MOL0     C 4525   6.163   5.957   7.797 -0.1508 -0.2622 -0.3883
   35MOL0     C 4526   6.070   6.080   7.831 -0.8058  0.7101 -0.6001
   35MOL0     C 4527   5.922   6.055   7.790  0.2456  0.2395  0.4466
   35MOL0     C 4528   5.858   6.180   7.733  0.7672 -0.0038  0.7758
   35MOL0     C 4529   5.911   6.216   7.594 -0.2288  0.0229  0.1097
   35MOL0     C 4530   5.856   6.349   7.544  0.5290 -0.4987  0.0855
   35MOL0     C 4531   5.856   6.461   7.642  1.0117  1.1633  0.6485
   35MOL0    Cl 4532   6.015   6.462   7.699 -0.0086 -0.0728  0.0382
   35MOL0     C 4533   6.536   6.196   7.755  0.3056 -0.3663 -0.0481
   35MOL0     C 4534   6.673   6.213   7.722 -0.4524  0.4329 -0.5836
   35MOL0     O 4535   6.987   5.951   7.808 -0.5323  0.2424  1.0408
   35MOL0     C 4536   7.140   6.236   7.659  0.1406 -1.1285 -0.1796
   35MOL0     C 4537   7.269   6.277   7.609  0.2334 -1.0776  0.1810
   35MOL0     N 4538   7.969   6.119   7.238  0.3785  0.2486 -0.4361
   35MOL0     N 4539   8.091   6.066   7.246  0.2566 -0.0610  0.4738
   35MOL0     C 4540   9.200   6.629   7.608  0.1059  0.4851  0.0284
   35MOL0     C 4541   9.338   6.609   7.628 -0.8045 -0.1653 -0.2224
   35MOL0     C 4542   9.748   6.542   7.809  1.1358 -0.1429 -0.3597
   35MOL0     C 4543   9.828   6.642   7.862 -0.0564 -0.4805  0.5923
   35MOL0     C 4544   9.961   6.614   7.875 -0.5525 -0.0546 -0.1262
   35MOL0     C 4545  10.010   6.493   7.818 -1.3011 -0.7097 -0.7480
   35MOL0     O 4546  10.150   6.479   7.833  0.1808  0.1481  0.1713
   35MOL0     C 4547  10.223   6.378   7.757  0.2340  0.1216 -0.9850
   35MOL0     C 4548  10.369   6.419   7.765 -0.3103  1.0274  0.3316
   35MOL0     C 4549  10.469   6.320   7.693  0.8899 -0.1505  0.1400
   35MOL0     C 4550  10.615   6.366   7.691 -0.0602 -0.2093 -0.8259
   35MOL0     C 4551  10.664   6.392   7.825  0.6249  0.6374 -0.3489
   35MOL0     C 4552  10.715   6.445   7.922 -0.3174  0.0133  0.5370
   35MOL0     C 4553   9.931   6.397   7.761 -0.0474  0.6982 -0.1049
   35MOL0     C 4554   9.795   6.425   7.741  0.7723  0.0274 -0.8970
   35MOL0     H 4555   9.310   6.352   7.852 -2.0671  1.9121  3.2813
   35MOL0     H 4556   9.088   6.414   7.855  0.0119 -0.0590  0.1939
   35MOL0     H 4557   8.806   6.660   7.779 -0.1185  0.2793  2.1476
   35MOL0     H 4558   8.915   6.574   7.875  0.5437  0.2784  0.0320
   35MOL0     H 4559   8.752   6.427   7.850  1.8368  1.9279  0.8481
   35MOL0     H 4560   8.876   6.358   7.742  2.5285  1.7533 -2.2461
   35MOL0     H 4561   8.759   6.402   7.549  1.7724  1.8372 -0.1772
   35MOL0     H 4562   8.659   6.524   7.611 -2.6833 -1.9112 -5.8941
   35MOL0     H 4563   8.651   6.228   7.704 -2.0960 -0.7031  1.2276
   35MOL0     H 4564   8.561   6.357   7.790 -0.0855  1.2976 -0.4440
   35MOL0     H 4565   8.423   6.398   7.591 -1.4741 -0.0644  2.3619
   35MOL0     H 4566   8.411   6.233   7.654  1.6393 -1.3195 -0.4648
   35MOL0     H 4567   8.551   6.142   7.453  1.2225  0.2364 -1.6866
   35MOL0     H 4568   8.582   6.310   7.415  0.9513  0.1367  0.9934
   35MOL0     H 4569   8.324   6.334   7.386  1.3694  0.1706  1.2993
   35MOL0     H 4570   8.411   6.235   7.265  0.1631  0.7964 -0.0074
   35MOL0     H 4571   8.280   6.109   7.500  3.0455  0.7238 -0.1503
   35MOL0     H 4572   8.344   6.034   7.354 -2.4068 -1.5318  0.8555
   35MOL0     H 4573   8.099   6.308   7.472 -2.0476  0.5102  0.8070
   35MOL0     H 4574   7.805   6.358   7.254  0.6336  0.3826 -0.2599
   35MOL0     H 4575   7.861   6.412   7.402 -0.9516 -0.2384 -0.5618
   35MOL0     H 4576   7.749   6.142   7.431 -0.0746 -0.3155  3.2552
   35MOL0     H 4577   7.641   6.274   7.380  0.4091  0.6155  0.6100
   35MOL0     H 4578   7.832   6.257   7.631 -0.7919  0.9688  1.5237
   35MOL0     H 4579   7.739   6.395   7.595 -1.3125 -0.2673 -0.4133
   35MOL0     H 4580   7.641   6.259   7.757 -1.0981  1.5349 -0.8947
   35MOL0     H 4581   7.633   6.114   7.634 -1.2230 -1.0237  2.1204
   35MOL0     H 4582   7.454   6.054   7.785 -1.4241  0.5214  1.5737
   35MOL0     H 4583   7.250   5.961   7.817 -0.9736 -1.2362 -1.7432
   35MOL0     H 4584   6.781   5.962   7.920 -0.7672 -0.1119  0.5114
   35MOL0     H 4585   6.545   5.953   7.984  2.0079 -1.9241 -0.5761
   35MOL0     H 4586   6.266   5.950   7.983 -2.0860 -1.4761 -0.1268
   35MOL0     H 4587   6.360   5.895   7.834 -0.2222  1.8478 -1.9731
   35MOL0     H 4588   6.114   5.860   7.809 -0.9565  0.2271  0.3011
   35MOL0     H 4589   6.185   5.968   7.690  0.0880  0.8133 -0.2371
   35MOL0     H 4590   6.112   6.175   7.800  1.2551  0.5267  1.3386
   35MOL0     H 4591   6.063   6.078   7.941  0.2043  0.6771 -0.5244
   35MOL0     H 4592   5.917   5.986   7.706 -2.1892  0.9509 -0.0589
   35MOL0     H 4593   5.869   6.011   7.875 -1.3686  2.2106  0.5396
   35MOL0     H 4594   5.882   6.263   7.800  0.8106  1.1596 -0.6420
   35MOL0     H 4595   5.751   6.157   7.726  1.0818 -1.4441  0.2865
   35MOL0     H 4596   5.885   6.134   7.526 -0.6201  0.2063  0.0350
   35MOL0     H 4597   6.020   6.217   7.594 -0.2098  0.7973  1.6088
   35MOL0     H 4598   5.908   6.375   7.451 -0.4631 -1.1409 -0.6684
   35MOL0     H 4599   5.749   6.336   7.526  0.7702 -3.9163  0.3909
   35MOL0     H 4600   5.783   6.436   7.719 -0.5422  1.0544 -0.7941
   35MOL0     H 4601   5.833   6.556   7.592  0.1077  0.3163 -0.6244
   35MOL0     H 4602   6.465   6.264   7.707 -0.5116 -1.2987 -0.1927
   35MOL0     H 4603   6.704   6.300   7.665 -0.5508  0.7790 -0.1147
   35MOL0     H 4604   7.051   6.291   7.632 -2.3783 -2.9093  3.6840
   35MOL0     H 4605   7.261   6.362   7.542 -3.7888 -2.3193 -1.1674
   35MOL0     H 4606   9.174   6.711   7.541  1.7402 -0.0952 -1.3963
   35MOL0     H 4607   9.414   6.659   7.569 -1.2977  4.3821  2.5221
   35MOL0     H 4608   9.786   6.735   7.897  1.1597 -0.1294  1.1856
   35MOL0     H 4609  10.025   6.690   7.920  1.0255 -0.3207 -1.7993
   35MOL0     H 4610  10.198   6.379   7.651  1.4119  1.5931 -1.2831
   35MOL0     H 4611  10.199   6.278   7.795 -3.1428  1.0306 -0.3830
   35MOL0     H 4612  10.372   6.522   7.727  0.9025  0.3705 -1.4943
   35MOL0     H 4613  10.398   6.422   7.870 -1.8308  0.9148  0.7856
   35MOL0     H 4614  10.428   6.310   7.592  0.5280  2.3261 -0.0374
   35MOL0     H 4615  10.463   6.218   7.732  0.1201  0.2406  1.0862
   35MOL0     H 4616  10.677   6.294   7.636  1.8751  0.4580  0.3751
   35MOL0     H 4617  10.619   6.466   7.647 -0.1285  0.8616  1.4381
   35MOL0     H 4618  10.736   6.487   8.019 -0.0309 -1.3591  1.0956
   35MOL0     H 4619   9.967   6.302   7.725  0.5840  1.0587 -0.4439
   35MOL0     H 4620   9.728   6.355   7.692  0.3297  1.0617 -1.8274
   36MOL0     O 4621   8.936   3.177   0.067  0.5999 -0.0165 -0.1816
   36MOL0     C 4622   9.023   3.142   0.146 -1.0338  0.0637  0.3478
   36MOL0     O 4623   8.998   3.072   0.269  0.3383  0.3080 -0.2245
   36MOL0     C 4624   8.880   2.998   0.291 -0.4630 -0.1894  0.4606
   36MOL0     C 4625   8.894   2.880   0.357  0.0124  0.7711  0.3191
   36MOL0     C 4626   8.777   2.807   0.392  0.2686  0.0888  0.2654
   36MOL0     C 4627   8.653   2.856   0.365 -0.0682 -0.3038 -0.3106
   36MOL0     O 4628   8.534   2.796   0.401 -0.3061 -0.3130  0.1961
   36MOL0     C 4629   8.538   2.667   0.461 -0.3884 -0.6671 -0.7763
   36MOL0     C 4630   8.401   2.632   0.512  0.6195  0.4092 -0.4460
   36MOL0     C 4631   8.294   2.628   0.405  0.5538 -0.2512  0.4614
   36MOL0     C 4632   8.157   2.563   0.461  0.1897 -0.3426 -0.0263
   36MOL0     C 4633   8.044   2.552   0.358  0.6933  0.2842 -0.2522
   36MOL0     C 4634   7.917   2.483   0.419 -0.9361 -0.7809  0.1601
   36MOL0     C 4635   7.787   2.498   0.330 -1.0754 -0.1179  0.9832
   36MOL0     C 4636   7.692   2.585   0.395 -0.5596  0.0558 -0.1939
   36MOL0     N 4637   7.575   2.589   0.302 -0.7543 -0.3688 -0.2432
   36MOL0     C 4638   7.563   2.662   0.183 -0.2181 -0.2265 -1.2890
   36MOL0     C 4639   7.457   2.615   0.124  0.1814  0.3147  0.3858
   36MOL0     C 4640   7.415   2.661  -0.013 -0.3631 -0.3964  0.0575
   36MOL0     C 4641   7.280   2.621  -0.058  1.0940 -0.1318  0.5235
   36MOL0     C 4642   7.267   2.473  -0.096 -0.1993 -0.5467  0.5508
   36MOL0     C 4643   7.135   2.419  -0.061  0.7810  0.2083 -0.1441
   36MOL0     O 4644   7.041   2.452  -0.167  0.0771  0.4053  0.5202
   36MOL0     C 4645   6.914   2.479  -0.135  0.4411 -0.1180 -0.3285
   36MOL0     C 4646   6.829   2.531  -0.239  0.3727 -0.1255  0.0412
   36MOL0     C 4647   6.689   2.550  -0.224  0.1646 -0.0404 -0.0175
   36MOL0     C 4648   6.634   2.514  -0.104  0.1298  0.6818 -0.5033
   36MOL0     C 4649   6.486   2.500  -0.107 -0.5888  0.3257  0.0908
   36MOL0     O 4650   6.435   2.472   0.018 -0.4605  0.5549 -0.2172
   36MOL0     C 4651   6.300   2.439   0.021 -0.5223 -1.5260 -0.2029
   36MOL0     C 4652   6.224   2.547   0.062  0.1817 -0.2407 -0.0745
   36MOL0     C 4653   6.083   2.521   0.081 -0.9651  0.4135  0.0117
   36MOL0     C 4654   6.026   2.395   0.052 -0.6923  0.2161 -0.1168
   36MOL0     O 4655   5.888   2.378   0.048  1.0939 -0.4153 -0.8363
   36MOL0     C 4656   5.848   2.305   0.158 -0.2888 -0.0103 -0.6235
   36MOL0     C 4657   5.703   2.310   0.188  0.4166 -0.0592  0.8349
   36MOL0     C 4658   5.623   2.211   0.104 -0.2424  0.1600  0.3385
   36MOL0     C 4659   5.475   2.222   0.141  0.0967 -0.1906  0.7905
   36MOL0     C 4660   5.386   2.100   0.115  0.4478 -0.3663 -0.2721
   36MOL0     C 4661   5.247   2.128   0.179 -0.8365  0.1461 -0.1675
   36MOL0     C 4662   5.132   2.043   0.120  0.3518 -0.3666 -0.4421
   36MOL0     C 4663   5.144   1.895   0.161 -0.1388 -0.2859  0.3427
   36MOL0    Cl 4664   5.014   1.804   0.096 -0.0960  0.2778 -0.2541
   36MOL0     C 4665   6.107   2.298   0.004 -1.1435  0.3113 -0.4606
   36MOL0     C 4666   6.242   2.322  -0.016  0.8799  0.1040  0.1054
   36MOL0     O 4667   6.423   2.504  -0.214  0.2607 -0.2447  0.3162
   36MOL0     C 4668   6.711   2.477   0.009 -0.5963  0.5516  0.1058
   36MOL0     C 4669   6.849   2.457  -0.012  0.0283 -0.4403 -0.0257
   36MOL0     N 4670   7.404   2.515   0.202  0.5519  1.1759  0.4523
   36MOL0     N 4671   7.478   2.496   0.300  0.3475  0.1527  0.0248
   36MOL0     C 4672   8.643   2.971   0.289  0.3284  0.5041  0.4869
   36MOL0     C 4673   8.754   3.043   0.254  0.6137 -0.3990 -0.6517
   36MOL0     C 4674   9.167   3.166   0.113  0.0935  0.5296 -0.2991
   36MOL0     C 4675   9.271   3.097   0.184 -0.1879  0.6715 -0.5353
   36MOL0     C 4676   9.407   3.113   0.148 -0.0173 -0.2842  0.6397
   36MOL0     C 4677   9.432   3.197   0.039 -0.4491  1.1313  0.1679
   36MOL0     O 4678   9.566   3.215   0.008  0.0948 -0.1428 -0.1413
   36MOL0     C 4679   9.617   3.144  -0.103  0.1737 -0.3454 -0.4158
   36MOL0     C 4680   9.770   3.125  -0.072  0.0224  0.3054  0.7505
   36MOL0     C 4681   9.842   3.076  -0.206  0.6223 -0.7947 -0.1094
   36MOL0     C 4682   9.992   3.118  -0.214  0.2307 -0.7418  0.1624
   36MOL0     C 4683  10.026   3.124  -0.364 -0.1879 -0.3533  0.3169
   36MOL0     C 4684  10.048   3.129  -0.485 -0.1883 -0.0530  0.3165
   36MOL0     C 4685   9.330   3.262  -0.028 -0.4580 -0.6220 -0.7515
   36MOL0     C 4686   9.198   3.247   0.008  0.0828 -0.3986  0.1434
   36MOL0     H 4687   8.993   2.848   0.387 -0.6903 -1.0278  0.8314
   36MOL0     H 4688   8.785   2.717   0.451 -0.0649  1.2354  2.1230
   36MOL0     H 4689   8.603   2.676   0.548 -0.9339 -0.6129 -0.3651
   36MOL0     H 4690   8.580   2.589   0.397 -3.1466 -2.8678 -0.1080
   36MOL0     H 4691   8.368   2.701   0.590  0.7006  2.4050 -2.1014
   36MOL0     H 4692   8.391   2.529   0.547 -3.4367  0.1199 -1.9065
   36MOL0     H 4693   8.338   2.573   0.321 -1.4316 -0.5326 -0.4708
   36MOL0     H 4694   8.269   2.728   0.367 -2.5478 -1.0924  0.0081
   36MOL0     H 4695   8.174   2.465   0.505  1.4054 -0.1833 -0.0912
   36MOL0     H 4696   8.128   2.629   0.543  0.8249  1.2425 -1.0151
   36MOL0     H 4697   8.087   2.483   0.286  1.6060  0.3977  0.1666
   36MOL0     H 4698   8.028   2.655   0.323  0.6192  0.9723  1.6938
   36MOL0     H 4699   7.899   2.532   0.515 -1.2040  0.4966 -0.5210
   36MOL0     H 4700   7.940   2.378   0.436  0.9330 -1.2805 -4.0851
   36MOL0     H 4701   7.805   2.543   0.231 -2.6371  1.6257  1.4183
   36MOL0     H 4702   7.745   2.398   0.316  1.1172 -0.9140 -0.4909
   36MOL0     H 4703   7.730   2.687   0.403  0.9650 -0.5211  0.0552
   36MOL0     H 4704   7.663   2.555   0.496 -2.3206  4.4249  0.8246
   36MOL0     H 4705   7.636   2.739   0.159  0.2132 -0.3148 -0.3316
   36MOL0     H 4706   7.485   2.633  -0.093 -0.9370  0.7011 -0.8462
   36MOL0     H 4707   7.422   2.770  -0.015 -0.9362 -0.2336  2.9589
   36MOL0     H 4708   7.266   2.685  -0.146 -1.3649 -0.9744  0.2509
   36MOL0     H 4709   7.205   2.648   0.016  2.5324  0.2780  1.9055
   36MOL0     H 4710   7.284   2.461  -0.204  0.2109  0.4995  0.4810
   36MOL0     H 4711   7.346   2.413  -0.050 -0.7223 -0.1633  1.9752
   36MOL0     H 4712   7.102   2.461   0.035 -0.0113  1.0182 -0.7504
   36MOL0     H 4713   7.134   2.310  -0.050  0.5910  0.1025 -1.1515
   36MOL0     H 4714   6.870   2.543  -0.339  0.4239 -2.7278 -0.3175
   36MOL0     H 4715   6.636   2.571  -0.317  0.0415 -1.9750 -0.4323
   36MOL0     H 4716   6.260   2.649   0.067  2.1682 -0.7574 -2.1545
   36MOL0     H 4717   6.017   2.600   0.115 -1.5464 -0.3670  0.7134
   36MOL0     H 4718   5.903   2.333   0.248 -3.1952 -2.2268  2.0757
   36MOL0     H 4719   5.889   2.205   0.145  0.0424 -0.1258  1.0802
   36MOL0     H 4720   5.666   2.411   0.163 -1.0299 -0.2102  2.1958
   36MOL0     H 4721   5.694   2.283   0.294  3.9140 -0.9020  1.0206
   36MOL0     H 4722   5.652   2.106   0.120 -0.6647  0.0170  0.1905
   36MOL0     H 4723   5.638   2.240  -0.000 -1.0760  1.5348  0.5796
   36MOL0     H 4724   5.459   2.251   0.245 -4.2301  0.1440  0.1931
   36MOL0     H 4725   5.434   2.311   0.091 -0.5917 -0.6441  0.5349
   36MOL0     H 4726   5.430   2.015   0.167 -1.5702 -0.4937  1.3659
   36MOL0     H 4727   5.381   2.089   0.006  1.9727  1.4192 -0.5696
   36MOL0     H 4728   5.215   2.231   0.159 -3.0369 -0.3143  0.7928
   36MOL0     H 4729   5.248   2.120   0.288  0.4060 -0.7639 -0.2236
   36MOL0     H 4730   5.039   2.086   0.157 -0.8807 -2.3612 -1.0562
   36MOL0     H 4731   5.123   2.064   0.012  1.9477  0.4284 -0.4452
   36MOL0     H 4732   5.150   1.898   0.270  3.5850 -2.2650  0.3310
   36MOL0     H 4733   5.237   1.854   0.122 -0.8527  0.4913 -2.4402
   36MOL0     H 4734   6.081   2.196  -0.022  1.2896 -1.0756  1.9553
   36MOL0     H 4735   6.311   2.247  -0.053  1.4339  0.8816 -0.4788
   36MOL0     H 4736   6.662   2.452   0.102  1.5425 -1.3354  0.8240
   36MOL0     H 4737   6.897   2.411   0.074  2.0120  0.9303 -0.3468
   36MOL0     H 4738   8.540   2.994   0.263 -0.6678 -1.7634  2.0676
   36MOL0     H 4739   8.755   3.126   0.184  0.9845  0.3374  0.1981
   36MOL0     H 4740   9.240   3.044   0.274  2.2302  1.6033  0.9538
   36MOL0     H 4741   9.484   3.079   0.216 -1.4865 -0.5085  2.2539
   36MOL0     H 4742   9.604   3.195  -0.198 -0.0830  0.7205  0.1687
   36MOL0     H 4743   9.565   3.049  -0.108 -0.5916 -0.1883  2.4137
   36MOL0     H 4744   9.813   3.222  -0.044 -0.4291  1.0832 -1.0692
   36MOL0     H 4745   9.777   3.050   0.008  2.7078 -1.9695 -1.3880
   36MOL0     H 4746   9.791   3.131  -0.285  1.4202  2.0541  1.2430
   36MOL0     H 4747   9.827   2.967  -0.211  1.1370 -0.9374  1.1049
   36MOL0     H 4748  10.013   3.213  -0.165  1.4678 -2.2552  2.8044
   36MOL0     H 4749  10.041   3.030  -0.170  2.0044 -1.5738 -3.1489
   36MOL0     H 4750  10.075   3.131  -0.589 -2.7684  2.8564 -0.4703
   36MOL0     H 4751   9.344   3.330  -0.111  1.1027  0.6371  0.4674
   36MOL0     H 4752   9.133   3.315  -0.046  2.8216  1.6935 -0.7689
   37MOL0     O 4753   4.654   6.587   2.785  0.3231 -0.2269 -0.3482
   37MOL0     C 4754   4.683   6.685   2.720 -0.4985  0.6284  0.2920
   37MOL0     O 4755   4.595   6.770   2.653 -0.8727  0.4268 -0.7242
   37MOL0     C 4756   4.460   6.747   2.648  0.4299  1.3405  0.2857
   37MOL0     C 4757   4.373   6.704   2.749 -0.8150  0.1006 -0.2641
   37MOL0     C 4758   4.237   6.706   2.730 -0.0013 -0.1805 -0.8080
   37MOL0     C 4759   4.179   6.752   2.613 -0.7943 -0.5473  0.2045
   37MOL0     O 4760   4.043   6.763   2.615  0.4462  0.3618 -0.1491
   37MOL0     C 4761   3.986   6.810   2.494  0.6303  0.3085  0.2787
   37MOL0     C 4762   3.846   6.746   2.506  0.8297 -0.6062 -0.2700
   37MOL0     C 4763   3.756   6.833   2.413  0.8011 -0.3501  0.2060
   37MOL0     C 4764   3.611   6.783   2.413  0.1782  0.7146 -0.3559
   37MOL0     C 4765   3.517   6.883   2.480 -0.0542  0.1440  0.6878
   37MOL0     C 4766   3.375   6.858   2.427  0.5031  0.6404 -0.2180
   37MOL0     C 4767   3.273   6.957   2.478 -0.5390  0.1810 -0.2935
   37MOL0     C 4768   3.160   6.978   2.380  0.0214  0.7254 -0.4252
   37MOL0     N 4769   3.048   7.046   2.451 -0.8858  0.3722  0.7469
   37MOL0     C 4770   2.959   6.983   2.535  0.3070  0.1979 -0.2899
   37MOL0     C 4771   2.920   7.081   2.619  0.1078 -1.0611 -0.2801
   37MOL0     C 4772   2.820   7.058   2.727  0.2911  0.2292  0.0641
   37MOL0     C 4773   2.673   7.081   2.678  0.2155  0.4908  1.5254
   37MOL0     C 4774   2.570   7.016   2.770 -0.5176  0.0169 -0.0966
   37MOL0     C 4775   2.429   7.065   2.753  0.7438  0.7461 -0.7835
   37MOL0     O 4776   2.354   7.001   2.854 -0.7037 -0.0157 -0.0333
   37MOL0     C 4777   2.218   7.003   2.853  1.1789 -0.1607 -0.0716
   37MOL0     C 4778   2.150   6.932   2.952  0.4367 -0.1233  0.2820
   37MOL0     C 4779   2.014   6.928   2.945  0.4628  0.1845  0.0887
   37MOL0     C 4780   1.938   6.991   2.844 -0.1653  0.4262  0.0534
   37MOL0     C 4781   1.796   6.985   2.834  0.3193  0.0649  0.3268
   37MOL0     O 4782   1.716   6.948   2.947  0.5110  0.2300 -0.8090
   37MOL0     C 4783   1.577   6.956   2.942 -0.1755 -0.1373 -0.2331
   37MOL0     C 4784   1.506   6.855   3.002  0.3132  0.2661 -0.8363
   37MOL0     C 4785   1.369   6.859   2.997  0.5633  0.3667  0.8949
   37MOL0     C 4786   1.299   6.964   2.942  0.2009 -0.4914  0.0332
   37MOL0     O 4787   1.165   6.991   2.937 -0.1145  0.9122 -0.6477
   37MOL0     C 4788   1.094   6.993   3.059  0.0518 -0.3096 -0.0627
   37MOL0     C 4789   0.941   7.010   3.030  0.2200 -0.1991  0.1060
   37MOL0     C 4790   0.865   7.012   3.156 -0.6690  0.7256 -0.5557
   37MOL0     C 4791   0.720   7.029   3.115  0.2085 -0.1339  0.5843
   37MOL0     C 4792   0.629   7.030   3.246 -0.2015 -0.7212  0.1121
   37MOL0     C 4793   0.492   7.106   3.235 -0.8578 -0.3135 -0.2584
   37MOL0     C 4794   0.397   7.035   3.148  0.0896  0.2286  0.6559
   37MOL0     C 4795   0.257   7.086   3.143  0.0597 -0.5590  0.2050
   37MOL0    Cl 4796   0.192   7.124   3.305 -0.3789  0.0614 -0.1603
   37MOL0     C 4797   1.369   7.067   2.886 -0.0755 -0.2047 -0.9550
   37MOL0     C 4798   1.506   7.063   2.883 -0.2409  0.0965  0.3918
   37MOL0     O 4799   1.748   7.011   2.726  0.7035 -0.4429  0.0383
   37MOL0     C 4800   2.007   7.067   2.754 -0.1823 -0.1276  0.0584
   37MOL0     C 4801   2.144   7.073   2.754  1.0702 -0.2154 -0.1264
   37MOL0     N 4802   2.987   7.196   2.592 -0.1702 -0.8380  1.3231
   37MOL0     N 4803   3.061   7.175   2.488 -0.2262  0.2253 -0.3868
   37MOL0     C 4804   4.265   6.790   2.507  0.0424  0.1166  0.1666
   37MOL0     C 4805   4.401   6.782   2.526 -0.2262  0.3417 -0.7902
   37MOL0     C 4806   4.827   6.703   2.692 -0.2870  0.2478 -0.4667
   37MOL0     C 4807   4.870   6.805   2.601  0.6354 -0.1735  0.9186
   37MOL0     C 4808   5.004   6.811   2.562  0.7318  0.4423  0.3622
   37MOL0     C 4809   5.101   6.730   2.624  0.1205 -0.7413  0.2388
   37MOL0     O 4810   5.231   6.762   2.590  0.1172 -0.4733  0.3873
   37MOL0     C 4811   5.344   6.707   2.648  0.7854  1.0976 -0.9572
   37MOL0     C 4812   5.390   6.577   2.573  0.8372 -0.4160 -0.7662
   37MOL0     C 4813   5.532   6.535   2.611  0.5934  0.0420  0.1649
   37MOL0     C 4814   5.645   6.626   2.562  0.4098 -0.4015  0.3212
   37MOL0     C 4815   5.783   6.571   2.557 -0.7511 -0.0489 -0.1692
   37MOL0     C 4816   5.891   6.524   2.584 -0.0079  0.2831 -0.2874
   37MOL0     C 4817   5.057   6.638   2.720 -0.3464  0.0900  0.2895
   37MOL0     C 4818   4.927   6.620   2.761  0.9715 -0.1875 -0.0305
   37MOL0     H 4819   4.406   6.671   2.847 -1.9709 -2.9954 -0.8293
   37MOL0     H 4820   4.176   6.693   2.819  1.1693 -0.6948 -0.0674
   37MOL0     H 4821   4.034   6.770   2.404  0.1082 -2.3686  1.0924
   37MOL0     H 4822   3.990   6.918   2.480 -0.6478  0.3620  0.2258
   37MOL0     H 4823   3.804   6.745   2.607 -1.1175 -0.2753 -1.0383
   37MOL0     H 4824   3.845   6.643   2.471 -0.8882 -0.7963  0.2644
   37MOL0     H 4825   3.802   6.817   2.315 -1.4984 -2.7884 -0.6194
   37MOL0     H 4826   3.746   6.940   2.433 -1.4560 -0.1705 -1.4598
   37MOL0     H 4827   3.581   6.769   2.309  0.3910  1.3489 -0.5064
   37MOL0     H 4828   3.615   6.687   2.467 -3.0034  2.2627  3.0928
   37MOL0     H 4829   3.544   6.986   2.456  1.8135 -0.6735 -1.0735
   37MOL0     H 4830   3.523   6.877   2.589 -0.2735  0.2393  0.7056
   37MOL0     H 4831   3.349   6.752   2.436 -2.8620  1.1870 -1.9610
   37MOL0     H 4832   3.381   6.874   2.319  1.0073  1.9893 -0.0083
   37MOL0     H 4833   3.230   6.923   2.573  0.3280 -0.7024 -0.2102
   37MOL0     H 4834   3.326   7.053   2.487  0.1035 -0.0545 -1.3834
   37MOL0     H 4835   3.128   6.884   2.334 -1.2491  1.2630 -0.6868
   37MOL0     H 4836   3.202   7.031   2.293  0.0740 -1.4082 -1.7742
   37MOL0     H 4837   2.932   6.878   2.537  0.9315 -0.0044 -1.4304
   37MOL0     H 4838   2.840   7.116   2.818 -0.2092 -0.3428  0.5401
   37MOL0     H 4839   2.831   6.955   2.760 -1.5453 -0.6697 -1.8984
   37MOL0     H 4840   2.666   7.034   2.580 -1.5655 -0.9009  2.2598
   37MOL0     H 4841   2.655   7.187   2.660 -0.6078  0.0934 -0.1649
   37MOL0     H 4842   2.576   6.909   2.749  2.0584  0.0026  0.3017
   37MOL0     H 4843   2.608   7.031   2.872 -2.7294 -0.2879  0.8266
   37MOL0     H 4844   2.393   7.047   2.652  0.4130  0.4100 -0.6078
   37MOL0     H 4845   2.437   7.174   2.763  0.0251  0.6392  1.5107
   37MOL0     H 4846   2.205   6.892   3.036 -0.3068  1.5179  1.6051
   37MOL0     H 4847   1.955   6.877   3.021 -2.4379  1.9965 -0.7915
   37MOL0     H 4848   1.558   6.772   3.048  0.7385  1.4749  0.9569
   37MOL0     H 4849   1.303   6.779   3.029  0.8419 -0.5303 -0.6774
   37MOL0     H 4850   1.131   7.070   3.127  0.0079 -0.9350  0.6802
   37MOL0     H 4851   1.108   6.907   3.124  0.6187  0.5902  1.0438
   37MOL0     H 4852   0.909   6.928   2.965  1.7837  0.4619 -1.6042
   37MOL0     H 4853   0.919   7.105   2.980 -1.0190 -0.0560  0.8983
   37MOL0     H 4854   0.896   7.085   3.231 -1.1343  0.7144 -0.3498
   37MOL0     H 4855   0.889   6.913   3.196  2.3727  1.4584 -0.2902
   37MOL0     H 4856   0.712   7.120   3.054  1.2287 -0.8557 -0.6772
   37MOL0     H 4857   0.692   6.948   3.047  3.1767  0.6085 -1.7419
   37MOL0     H 4858   0.695   7.076   3.322  3.3386 -1.9047 -1.9962
   37MOL0     H 4859   0.625   6.925   3.275  2.8752 -0.8047  0.6443
   37MOL0     H 4860   0.499   7.208   3.196 -2.1780 -0.4477 -0.8867
   37MOL0     H 4861   0.453   7.117   3.337 -2.7012  0.6915 -1.0198
   37MOL0     H 4862   0.434   7.030   3.045  1.4534  2.7681  0.9582
   37MOL0     H 4863   0.387   6.929   3.175  1.7543  0.6771  3.4047
   37MOL0     H 4864   0.191   7.015   3.092  1.0476 -0.0300 -1.9219
   37MOL0     H 4865   0.255   7.173   3.075 -1.2959 -0.5774  0.2012
   37MOL0     H 4866   1.308   7.151   2.856 -0.9505 -1.4547 -2.9004
   37MOL0     H 4867   1.559   7.139   2.825  0.3332  0.8380  1.8245
   37MOL0     H 4868   1.954   7.135   2.688 -1.8144 -0.2533  1.1733
   37MOL0     H 4869   2.195   7.139   2.683  0.6985  1.2851  0.9448
   37MOL0     H 4870   4.247   6.821   2.405  0.3862 -0.3559 -0.0434
   37MOL0     H 4871   4.475   6.803   2.450  0.1988 -1.7768 -1.0175
   37MOL0     H 4872   4.795   6.875   2.565 -0.0423 -1.0986  0.4998
   37MOL0     H 4873   5.034   6.884   2.488 -1.4291 -0.2518 -1.3085
   37MOL0     H 4874   5.338   6.672   2.752 -0.2541 -0.3265 -1.4641
   37MOL0     H 4875   5.418   6.787   2.656  0.1619  1.6038 -0.0121
   37MOL0     H 4876   5.319   6.498   2.601 -0.2368  1.4828  2.2702
   37MOL0     H 4877   5.389   6.589   2.464  0.3803 -0.4738 -0.7696
   37MOL0     H 4878   5.535   6.437   2.563 -1.4390  1.0415 -2.2026
   37MOL0     H 4879   5.541   6.517   2.719 -0.3999  4.3219  1.1385
   37MOL0     H 4880   5.615   6.639   2.458 -3.6594 -2.6769  1.0160
   37MOL0     H 4881   5.649   6.722   2.614  1.4444 -1.0509  1.5140
   37MOL0     H 4882   5.985   6.471   2.584  0.0660  0.4089  0.4613
   37MOL0     H 4883   5.137   6.582   2.768  2.0342  4.4443  1.9485
   37MOL0     H 4884   4.906   6.541   2.832  0.3400  1.0359  1.1785
   38MOL0     O 4885   9.173   5.429   7.592 -0.2921 -0.2996 -0.2113
   38MOL0     C 4886   9.274   5.378   7.536 -0.0718 -0.4083  0.0507
   38MOL0     O 4887   9.279   5.342   7.400 -0.0052 -0.3095  0.1796
   38MOL0     C 4888   9.175   5.386   7.323  0.1688  0.1896  0.1434
   38MOL0     C 4889   9.058   5.312   7.315 -1.2438  0.1406  0.1836
   38MOL0     C 4890   8.949   5.345   7.244 -0.7893  0.2208  1.1768
   38MOL0     C 4891   8.960   5.452   7.150 -0.7031  0.7684 -0.1619
   38MOL0     O 4892   8.858   5.492   7.067 -0.0481 -0.3520 -0.5078
   38MOL0     C 4893   8.749   5.407   7.058  0.2383  0.5704 -0.0702
   38MOL0     C 4894   8.781   5.278   6.974  0.3902 -0.2764  0.2695
   38MOL0     C 4895   8.661   5.184   6.955  0.8524  1.0043 -0.3748
   38MOL0     C 4896   8.680   5.058   6.882 -0.2902  0.0575  0.3357
   38MOL0     C 4897   8.553   4.973   6.888  0.6700 -0.3458  0.5062
   38MOL0     C 4898   8.541   4.866   6.766  0.3749 -0.1968 -0.5318
   38MOL0     C 4899   8.406   4.789   6.793 -0.8925 -0.0565 -0.5985
   38MOL0     C 4900   8.384   4.686   6.686 -0.3982 -0.0184  0.6465
   38MOL0     N 4901   8.251   4.634   6.691  0.2000 -0.0306  0.0070
   38MOL0     C 4902   8.201   4.532   6.605 -0.0455 -0.2059 -0.9693
   38MOL0     C 4903   8.077   4.514   6.641  0.2393 -0.1781 -0.3902
   38MOL0     C 4904   7.982   4.435   6.561 -0.0176 -0.5150  0.6406
   38MOL0     C 4905   7.998   4.285   6.587  0.0988  0.9589  0.7311
   38MOL0     C 4906   7.885   4.203   6.525 -0.1188  0.4378 -0.2177
   38MOL0     C 4907   7.749   4.235   6.587 -0.5325  0.0142  0.6662
   38MOL0     O 4908   7.644   4.153   6.518  0.1277 -0.2770  0.0890
   38MOL0     C 4909   7.517   4.151   6.576 -0.5259  0.8081  0.2890
   38MOL0     C 4910   7.439   4.032   6.568 -0.4132 -0.6288  0.2910
   38MOL0     C 4911   7.321   4.029   6.644  0.5725 -0.5635 -0.8074
   38MOL0     C 4912   7.277   4.137   6.725 -0.1257  1.0261  0.3258
   38MOL0     C 4913   7.157   4.109   6.804 -0.5793 -0.4192 -0.0454
   38MOL0     O 4914   7.121   4.224   6.887 -0.8478 -0.4226 -0.3745
   38MOL0     C 4915   7.001   4.230   6.963  0.3482  0.5432 -0.5242
   38MOL0     C 4916   7.000   4.304   7.080 -0.0169 -0.1599  0.3093
   38MOL0     C 4917   6.883   4.328   7.150 -0.1677  0.6016 -0.5598
   38MOL0     C 4918   6.761   4.283   7.111 -0.3007  0.0187  0.9938
   38MOL0     O 4919   6.651   4.304   7.185 -0.0342  0.6613  0.3728
   38MOL0     C 4920   6.521   4.253   7.155  0.2849 -0.2358 -0.0758
   38MOL0     C 4921   6.455   4.241   7.288  0.0421  0.1397  0.0613
   38MOL0     C 4922   6.303   4.244   7.271  0.4412  0.0189 -0.0935
   38MOL0     C 4923   6.225   4.229   7.396 -0.2141 -0.2149 -0.5522
   38MOL0     C 4924   6.074   4.215   7.388  0.0209  0.4749 -0.5954
   38MOL0     C 4925   6.027   4.241   7.531 -0.2959 -0.7100  0.7352
   38MOL0     C 4926   5.865   4.241   7.521  0.4572 -0.0176  0.1785
   38MOL0     C 4927   5.807   4.377   7.479  0.0621 -1.2248 -0.1614
   38MOL0    Cl 4928   5.640   4.359   7.437  0.3748  0.2353  0.5203
   38MOL0     C 4929   6.760   4.198   6.995 -0.2015  0.2999 -0.0832
   38MOL0     C 4930   6.880   4.170   6.923  0.2932  0.4206 -0.2375
   38MOL0     O 4931   7.096   4.006   6.792  0.1256  0.5856  0.2616
   38MOL0     C 4932   7.349   4.257   6.713 -0.7044 -0.0928  0.8178
   38MOL0     C 4933   7.467   4.268   6.640 -0.5046 -0.3750 -0.1111
   38MOL0     N 4934   8.047   4.587   6.753 -0.3547  0.2380 -0.5134
   38MOL0     N 4935   8.155   4.661   6.791 -0.2415 -0.6386 -0.3354
   38MOL0     C 4936   9.081   5.524   7.150  0.0918 -0.7420  0.0868
   38MOL0     C 4937   9.188   5.501   7.244 -0.0064 -0.0318  0.0929
   38MOL0     C 4938   9.405   5.357   7.604  0.0113 -0.1779  0.3425
   38MOL0     C 4939   9.506   5.278   7.542  0.4660  0.2323  0.2280
   38MOL0     C 4940   9.620   5.249   7.620  0.7556  0.1887 -0.0377
   38MOL0     C 4941   9.631   5.288   7.747 -0.0030  0.1041  0.0954
   38MOL0     O 4942   9.723   5.235   7.829 -1.0515  0.3623  0.1078
   38MOL0     C 4943   9.809   5.130   7.787 -0.2566 -0.5133  0.0259
   38MOL0     C 4944   9.895   5.085   7.909 -0.6068 -0.4273  0.1937
   38MOL0     C 4945   9.957   4.948   7.874  0.6522 -0.4545 -0.6225
   38MOL0     C 4946  10.065   4.944   7.773  0.2491 -0.0178  0.4454
   38MOL0     C 4947  10.179   5.037   7.802  0.0785  0.2966  0.0805
   38MOL0     C 4948  10.281   5.102   7.821  1.0722  0.0255 -0.3322
   38MOL0     C 4949   9.538   5.371   7.803  0.6295 -0.2225  0.6193
   38MOL0     C 4950   9.416   5.400   7.739 -0.0087 -0.7429  0.9356
   38MOL0     H 4951   9.051   5.232   7.389 -1.0212  1.3197  1.5304
   38MOL0     H 4952   8.856   5.291   7.257  0.1729 -1.6901  0.5829
   38MOL0     H 4953   8.670   5.454   6.999  0.2398 -0.9495 -1.3280
   38MOL0     H 4954   8.707   5.385   7.157  2.0710  0.1913  0.6623
   38MOL0     H 4955   8.851   5.215   7.029 -2.2497 -1.2535  2.8052
   38MOL0     H 4956   8.805   5.307   6.871 -0.4414 -3.0284 -0.8034
   38MOL0     H 4957   8.585   5.245   6.904  0.9876  0.4851 -1.2115
   38MOL0     H 4958   8.629   5.170   7.058 -1.9950  1.1166 -1.1346
   38MOL0     H 4959   8.716   5.071   6.780  3.6768 -0.5358  1.4844
   38MOL0     H 4960   8.755   4.991   6.926 -3.5808 -2.5034  2.5805
   38MOL0     H 4961   8.465   5.038   6.888  0.4486 -0.6364 -0.2218
   38MOL0     H 4962   8.554   4.921   6.984  2.5579  0.8388  1.1866
   38MOL0     H 4963   8.623   4.795   6.754  1.4122  0.6438  1.1515
   38MOL0     H 4964   8.533   4.928   6.676 -1.7895 -0.4758 -0.5871
   38MOL0     H 4965   8.396   4.751   6.895 -2.7483 -2.1196 -1.4638
   38MOL0     H 4966   8.326   4.863   6.784 -1.4162 -0.5504 -0.1180
   38MOL0     H 4967   8.460   4.608   6.695 -0.3063 -0.1551 -1.1098
   38MOL0     H 4968   8.402   4.739   6.592 -0.4687  2.0556  1.7284
   38MOL0     H 4969   8.239   4.494   6.511  1.3970 -2.0784  0.3008
   38MOL0     H 4970   7.997   4.445   6.453  1.8405  0.5573  0.9640
   38MOL0     H 4971   7.881   4.474   6.582 -0.1816 -0.0078 -0.9462
   38MOL0     H 4972   8.004   4.272   6.696 -1.5550  0.0378  0.7444
   38MOL0     H 4973   8.093   4.251   6.544 -0.4216  0.8727 -0.3726
   38MOL0     H 4974   7.876   4.225   6.419 -3.4107 -2.2627 -0.6567
   38MOL0     H 4975   7.904   4.097   6.542  0.0909  0.7692  1.9508
   38MOL0     H 4976   7.734   4.343   6.575 -2.4400 -0.4724 -2.4187
   38MOL0     H 4977   7.744   4.207   6.693 -0.9167  0.2932  0.7268
   38MOL0     H 4978   7.460   3.939   6.516  1.8496 -0.7568  1.3148
   38MOL0     H 4979   7.256   3.942   6.642 -0.4040  0.1512 -1.6162
   38MOL0     H 4980   7.091   4.353   7.112  0.6555  0.2400 -2.0255
   38MOL0     H 4981   6.875   4.387   7.241 -2.6096  1.1515 -1.0704
   38MOL0     H 4982   6.516   4.153   7.112 -2.8402 -1.0375  1.7948
   38MOL0     H 4983   6.475   4.318   7.080 -1.3299 -1.2349  0.0039
   38MOL0     H 4984   6.496   4.328   7.340  2.5714 -0.9394 -0.0170
   38MOL0     H 4985   6.485   4.155   7.348 -1.4030 -0.4493 -0.0221
   38MOL0     H 4986   6.272   4.168   7.200  1.1296 -0.1583 -0.2073
   38MOL0     H 4987   6.267   4.338   7.229 -1.6270 -1.2233 -1.2707
   38MOL0     H 4988   6.264   4.151   7.463 -0.2416 -0.2077 -0.5283
   38MOL0     H 4989   6.253   4.319   7.452  0.0413  0.4840 -1.7774
   38MOL0     H 4990   6.051   4.112   7.360 -2.2150  0.4652  1.0384
   38MOL0     H 4991   6.031   4.284   7.315  2.3990 -1.9944 -4.7107
   38MOL0     H 4992   6.066   4.338   7.562 -0.0590 -1.1011  1.7068
   38MOL0     H 4993   6.059   4.180   7.617 -1.5615  0.6089  2.2103
   38MOL0     H 4994   5.843   4.164   7.447  1.0566 -0.4614  0.4494
   38MOL0     H 4995   5.830   4.209   7.620  1.9476 -0.2296  0.6607
   38MOL0     H 4996   5.855   4.419   7.390  0.6759  0.5067  0.9411
   38MOL0     H 4997   5.817   4.455   7.554 -0.8553  1.1625 -2.3662
   38MOL0     H 4998   6.661   4.162   6.968 -1.4826  1.6753  2.3394
   38MOL0     H 4999   6.860   4.115   6.832  2.5164 -2.8926  1.0827
   38MOL0     H 5000   7.315   4.351   6.757 -1.2724 -0.0413  0.2848
   38MOL0     H 5001   7.519   4.363   6.637  1.4775 -1.4323 -1.5990
   38MOL0     H 5002   9.089   5.613   7.087  1.5552 -0.5549  0.4973
   38MOL0     H 5003   9.276   5.563   7.258  1.5800 -1.4052 -2.7627
   38MOL0     H 5004   9.499   5.231   7.445  2.1248  1.4622 -0.5315
   38MOL0     H 5005   9.694   5.182   7.578  0.5100 -1.3769  1.9018
   38MOL0     H 5006   9.872   5.160   7.703 -0.4250 -2.9392 -1.0695
   38MOL0     H 5007   9.761   5.039   7.750  2.9308 -1.6851 -1.6245
   38MOL0     H 5008   9.962   5.165   7.941 -2.5209  0.5628  1.9064
   38MOL0     H 5009   9.829   5.077   7.995 -3.4434  1.1449 -1.6899
   38MOL0     H 5010   9.872   4.886   7.844 -1.1113  1.4735  0.1210
   38MOL0     H 5011  10.000   4.909   7.967  1.8673  2.6165  0.2225
   38MOL0     H 5012  10.100   4.841   7.766  1.0359  0.3491 -3.2527
   38MOL0     H 5013  10.020   4.977   7.678  0.6312 -0.5958  0.0560
   38MOL0     H 5014  10.370   5.156   7.848  1.6446 -2.1223  2.5051
   38MOL0     H 5015   9.556   5.403   7.905 -1.0293 -0.4650  1.0146
   38MOL0     H 5016   9.349   5.472   7.784  1.9937  0.9458  1.3642
   39MOL0     O 5017   1.471   7.139  10.299 -0.3146  0.4021  0.0806
   39MOL0     C 5018   1.525   7.192  10.203 -0.7958  0.7896 -0.8233
   39MOL0     O 5019   1.467   7.267  10.107  0.8768 -0.2439 -0.1194
   39MOL0     C 5020   1.332   7.295  10.099 -0.5016 -0.0630  0.1798
   39MOL0     C 5021   1.224   7.204  10.130 -0.0055  0.4680  0.0459
   39MOL0     C 5022   1.090   7.247  10.141  0.6474 -0.1628  0.0146
   39MOL0     C 5023   1.062   7.386  10.117  0.4283  0.3593  0.6959
   39MOL0     O 5024   0.935   7.428  10.132  0.2352 -0.7673 -0.5891
   39MOL0     C 5025   0.903   7.570  10.116 -0.1525  0.7315 -0.4319
   39MOL0     C 5026   0.754   7.595  10.118  0.6501  0.4109 -0.6283
   39MOL0     C 5027   0.687   7.568  10.261 -0.6226  0.5277 -0.0232
   39MOL0     C 5028   0.538   7.608  10.242  0.5969  0.7620  0.0814
   39MOL0     C 5029   0.456   7.585  10.368 -0.1723 -0.5161 -0.3548
   39MOL0     C 5030   0.439   7.434  10.393 -0.0007  0.3627  0.6778
   39MOL0     C 5031   0.305   7.394  10.448 -0.0715 -0.0158  0.0634
   39MOL0     C 5032   0.285   7.438  10.585  0.1807  0.6224 -0.4954
   39MOL0     N 5033   0.158   7.375  10.632 -0.1155  0.4119  0.5509
   39MOL0     C 5034   0.155   7.287  10.739 -0.5118 -0.2418  0.3520
   39MOL0     C 5035   0.031   7.248  10.741 -0.8782 -0.0483 -1.2341
   39MOL0     C 5036  -0.019   7.135  10.828  0.0770  0.4291 -0.2295
   39MOL0     C 5037  -0.085   7.034  10.738  0.0239 -0.2624  0.1626
   39MOL0     C 5038  -0.210   6.973  10.811  0.7175 -0.0855  1.4539
   39MOL0     C 5039  -0.275   6.865  10.731  0.1860  0.1310  0.8884
   39MOL0     O 5040  -0.330   6.905  10.609 -0.0340  1.3440 -0.2895
   39MOL0     C 5041  -0.364   6.806  10.519  0.1746  0.1083  0.8138
   39MOL0     C 5042  -0.346   6.849  10.383 -0.1753  0.7645  0.3723
   39MOL0     C 5043  -0.382   6.772  10.278 -0.8798 -0.3409  0.5937
   39MOL0     C 5044  -0.445   6.645  10.302 -0.6105  0.0014 -0.4317
   39MOL0     C 5045  -0.485   6.558  10.191 -0.1225 -0.0710  0.3384
   39MOL0     O 5046  -0.558   6.443  10.229 -0.0112 -0.0497  0.0459
   39MOL0     C 5047  -0.603   6.361  10.129  0.0464  0.2224 -0.5820
   39MOL0     C 5048  -0.677   6.415  10.023  0.2704  0.7753 -0.1040
   39MOL0     C 5049  -0.726   6.327   9.927  0.3664  0.1235 -0.4699
   39MOL0     C 5050  -0.707   6.188   9.931  0.3097 -0.7187  0.0187
   39MOL0     O 5051  -0.770   6.118   9.837  0.3666  0.2799  0.5595
   39MOL0     C 5052  -0.793   5.973   9.841  0.0788 -0.9260 -0.1997
   39MOL0     C 5053  -0.931   5.945   9.908  0.4276 -0.0335 -0.0966
   39MOL0     C 5054  -0.967   5.797   9.931 -0.4200  0.4042  0.3557
   39MOL0     C 5055  -0.944   5.715   9.804 -0.0957 -1.0117  0.0653
   39MOL0     C 5056  -0.988   5.569   9.835  0.4057  0.7373 -0.4489
   39MOL0     C 5057  -1.137   5.567   9.874  0.7486  0.7376  0.3998
   39MOL0     C 5058  -1.191   5.421   9.865  0.4357 -0.4635  0.0222
   39MOL0     C 5059  -1.340   5.412   9.910 -0.4386  0.4365 -0.2910
   39MOL0    Cl 5060  -1.352   5.473  10.080 -0.6654  0.0472  0.4437
   39MOL0     C 5061  -0.636   6.134  10.041 -0.0731 -0.0594 -0.0961
   39MOL0     C 5062  -0.589   6.219  10.139 -0.7698 -0.3256  0.0758
   39MOL0     O 5063  -0.450   6.595  10.085 -0.1166  0.1488  0.2244
   39MOL0     C 5064  -0.462   6.602  10.437  1.2427 -0.1056  0.2309
   39MOL0     C 5065  -0.420   6.686  10.546  0.2661  0.1830  0.6343
   39MOL0     N 5066  -0.041   7.311  10.648  0.2386  0.4582 -0.1328
   39MOL0     N 5067   0.034   7.389  10.575  0.3305 -0.3338 -0.4495
   39MOL0     C 5068   1.164   7.468  10.061  0.0172  0.1964 -0.5036
   39MOL0     C 5069   1.297   7.421  10.050  0.4792  0.9349  0.2947
   39MOL0     C 5070   1.669   7.189  10.218 -0.1617 -0.0158  0.1448
   39MOL0     C 5071   1.750   7.269  10.132 -0.4170  0.1751 -0.2120
   39MOL0     C 5072   1.888   7.259  10.144 -0.7140 -0.2431  0.6071
   39MOL0     C 5073   1.949   7.173  10.239  0.5744 -0.6791 -0.4242
   39MOL0     O 5074   2.087   7.166  10.257 -0.3813 -0.5919 -0.3540
   39MOL0     C 5075   2.169   7.219  10.150  0.0660 -0.2153  0.0820
   39MOL0     C 5076   2.310   7.163  10.168  0.2950  0.3314 -0.0787
   39MOL0     C 5077   2.418   7.260  10.107 -0.0914  0.1825 -0.5566
   39MOL0     C 5078   2.547   7.181  10.104 -0.0338 -0.7382 -0.1750
   39MOL0     C 5079   2.640   7.244  10.011  0.4164  0.6412 -0.4118
   39MOL0     C 5080   2.718   7.293   9.932 -0.2470 -0.0624  0.3376
   39MOL0     C 5081   1.868   7.092  10.312 -0.9564 -1.4667 -0.8809
   39MOL0     C 5082   1.734   7.102  10.309 -0.1173  0.4795 -0.5876
   39MOL0     H 5083   1.240   7.103  10.168 -1.6422  0.2932  0.3516
   39MOL0     H 5084   1.007   7.179  10.161  0.8766 -0.9524 -1.5508
   39MOL0     H 5085   0.936   7.600  10.016  0.8761  2.1050  0.2818
   39MOL0     H 5086   0.955   7.631  10.190  0.4855  0.5951 -0.7657
   39MOL0     H 5087   0.696   7.531  10.051 -1.2478  2.7750 -1.3699
   39MOL0     H 5088   0.734   7.701  10.102 -2.3036  0.0241 -0.0332
   39MOL0     H 5089   0.730   7.626  10.343 -0.5547  1.3976 -0.6666
   39MOL0     H 5090   0.696   7.464  10.293 -1.3953  0.1526 -0.9600
   39MOL0     H 5091   0.540   7.713  10.212 -1.8247  1.3904  1.7941
   39MOL0     H 5092   0.493   7.537  10.171 -0.0627  2.5109 -1.3294
   39MOL0     H 5093   0.351   7.615  10.359 -0.1354 -0.6217 -1.2608
   39MOL0     H 5094   0.495   7.644  10.451 -2.7358  1.2522 -0.2880
   39MOL0     H 5095   0.521   7.391  10.452 -0.1511 -1.2252 -0.2174
   39MOL0     H 5096   0.439   7.381  10.298  0.7253 -0.4266  1.1052
   39MOL0     H 5097   0.226   7.440  10.388  0.3424 -0.2418 -0.6621
   39MOL0     H 5098   0.291   7.285  10.450 -0.1004 -0.0100  0.1977
   39MOL0     H 5099   0.285   7.546  10.598  0.5161  0.6566 -0.7596
   39MOL0     H 5100   0.366   7.409  10.652 -1.2456  1.5212  1.7586
   39MOL0     H 5101   0.237   7.241  10.794  0.6874 -3.3547 -3.4699
   39MOL0     H 5102  -0.093   7.183  10.893 -2.1616 -3.0732  0.0610
   39MOL0     H 5103   0.052   7.089  10.897 -1.5796  1.3196  2.1992
   39MOL0     H 5104  -0.010   6.958  10.715  0.8056  0.5166  0.0472
   39MOL0     H 5105  -0.112   7.085  10.645  0.9374  5.8315  2.7419
   39MOL0     H 5106  -0.187   6.941  10.913  0.6498 -0.8122  1.2475
   39MOL0     H 5107  -0.284   7.053  10.817  0.2338 -0.2918 -1.0107
   39MOL0     H 5108  -0.349   6.818  10.797  2.8161  0.1302  4.0986
   39MOL0     H 5109  -0.194   6.793  10.717  0.3113  0.4562 -0.1862
   39MOL0     H 5110  -0.303   6.947  10.366  0.6538  0.2230 -0.7544
   39MOL0     H 5111  -0.367   6.803  10.176  2.5536  0.2269  1.1333
   39MOL0     H 5112  -0.695   6.522  10.022 -1.4460  0.5101 -1.3809
   39MOL0     H 5113  -0.783   6.370   9.845 -1.7133 -0.6866  0.4656
   39MOL0     H 5114  -0.722   5.918   9.904  0.0886 -0.4223  0.2326
   39MOL0     H 5115  -0.800   5.939   9.737 -2.2532 -1.0467 -0.0458
   39MOL0     H 5116  -1.006   5.979   9.836  2.8622  0.6288 -2.4632
   39MOL0     H 5117  -0.948   6.000  10.001  1.5414 -0.1768  0.1996
   39MOL0     H 5118  -1.074   5.794   9.956 -0.7413 -1.6639 -0.9802
   39MOL0     H 5119  -0.917   5.754  10.018 -1.3496  1.6715  1.5527
   39MOL0     H 5120  -0.998   5.754   9.717  1.9563  0.3531 -0.6758
   39MOL0     H 5121  -0.839   5.721   9.777 -0.2670  0.5227 -0.3775
   39MOL0     H 5122  -0.938   5.535   9.926 -0.4383  0.5263 -0.0508
   39MOL0     H 5123  -0.974   5.498   9.754 -1.2053  1.2616 -1.2370
   39MOL0     H 5124  -1.194   5.633   9.808 -1.6021 -0.7784  0.7983
   39MOL0     H 5125  -1.158   5.613   9.971  0.1412 -0.9385  1.1025
   39MOL0     H 5126  -1.184   5.383   9.763  2.3738 -4.8596  1.5260
   39MOL0     H 5127  -1.119   5.356   9.917  0.5514 -1.7270 -1.6395
   39MOL0     H 5128  -1.367   5.306   9.909 -2.4102  0.8503  1.3805
   39MOL0     H 5129  -1.404   5.464   9.837  0.2677  0.5786 -0.8162
   39MOL0     H 5130  -0.628   6.027  10.061  1.5725  0.1857  0.6793
   39MOL0     H 5131  -0.547   6.177  10.230 -2.1636 -2.7479 -0.3112
   39MOL0     H 5132  -0.494   6.504  10.472  1.6330  0.2589  1.6709
   39MOL0     H 5133  -0.438   6.654  10.648  1.1824 -1.5798  0.2829
   39MOL0     H 5134   1.136   7.565  10.020  0.6661  0.1490 -1.0889
   39MOL0     H 5135   1.369   7.495  10.017 -0.6622  2.0222  0.1449
   39MOL0     H 5136   1.709   7.336  10.057  1.6577  1.9739  0.1641
   39MOL0     H 5137   1.942   7.327  10.079 -1.6683 -0.4116 -0.4039
   39MOL0     H 5138   2.171   7.329  10.158  0.8665 -0.3184  2.0379
   39MOL0     H 5139   2.128   7.182  10.056 -2.4396 -1.2183  1.4804
   39MOL0     H 5140   2.341   7.147  10.272  2.2595  0.3469 -0.6107
   39MOL0     H 5141   2.308   7.069  10.113 -1.7641  0.9889 -1.2352
   39MOL0     H 5142   2.433   7.353  10.163  1.8748 -0.1425 -0.4574
   39MOL0     H 5143   2.383   7.282  10.005 -1.1249 -1.3457 -0.5675
   39MOL0     H 5144   2.585   7.173  10.207 -0.4005  0.8510  0.1083
   39MOL0     H 5145   2.533   7.083  10.057 -3.1096  0.0063 -0.9874
   39MOL0     H 5146   2.777   7.330   9.851  1.3134 -0.9082  1.0378
   39MOL0     H 5147   1.926   7.027  10.377 -0.9071 -1.0049 -0.4462
   39MOL0     H 5148   1.679   7.040  10.379 -0.7052  2.5175  0.8597
   40MOL0     O 5149   2.781   9.178   7.381  0.0839  0.2782 -0.2253
   40MOL0     C 5150   2.805   9.166   7.498  0.4490 -0.6737 -0.1114
   40MOL0     O 5151   2.711   9.162   7.597 -0.4530  0.1869  1.0765
   40MOL0     C 5152   2.574   9.180   7.575 -0.5437 -1.0070  0.5049
   40MOL0     C 5153   2.510   9.136   7.460  0.5470  0.6464  0.1994
   40MOL0     C 5154   2.364   9.137   7.452  0.1402  0.4424 -0.2858
   40MOL0     C 5155   2.289   9.172   7.560 -0.2936 -0.0332  0.5772
   40MOL0     O 5156   2.155   9.179   7.548  0.2788 -0.0375 -0.4845
   40MOL0     C 5157   2.074   9.175   7.671 -0.7690  0.0437  0.2408
   40MOL0     C 5158   1.927   9.198   7.637 -0.4978  0.3574  0.5692
   40MOL0     C 5159   1.830   9.228   7.743 -0.1146 -0.4006 -0.5830
   40MOL0     C 5160   1.689   9.253   7.691  0.8461  0.0418 -0.2440
   40MOL0     C 5161   1.577   9.265   7.796 -0.5035 -0.1125  0.2208
   40MOL0     C 5162   1.440   9.272   7.722 -0.6225  0.3709 -0.1173
   40MOL0     C 5163   1.412   9.398   7.639  0.2195 -0.9187  0.0558
   40MOL0     C 5164   1.405   9.527   7.716  0.2685  0.0681  0.3469
   40MOL0     N 5165   1.281   9.555   7.795 -0.7234 -0.3097 -0.3738
   40MOL0     C 5166   1.248   9.669   7.864  0.2770 -0.6766  0.2773
   40MOL0     C 5167   1.123   9.651   7.912  1.1132  0.1661 -0.5227
   40MOL0     C 5168   1.037   9.736   8.007  0.2620 -0.7098  0.0768
   40MOL0     C 5169   0.901   9.776   7.951 -0.5536  0.6217 -0.3038
   40MOL0     C 5170   0.895   9.835   7.811 -0.0460 -0.2827  0.0039
   40MOL0     C 5171   0.801   9.954   7.806  0.1644  0.3400 -0.4927
   40MOL0     O 5172   0.664   9.928   7.857 -0.2318 -0.6640 -0.2170
   40MOL0     C 5173   0.571  10.030   7.844  0.1495  0.1447 -0.7137
   40MOL0     C 5174   0.444  10.013   7.901 -0.3076  0.0188  0.4025
   40MOL0     C 5175   0.339  10.105   7.898  0.2665  0.0180  0.3619
   40MOL0     C 5176   0.370  10.229   7.841 -0.5361  0.1797 -0.3207
   40MOL0     C 5177   0.265  10.322   7.830 -0.4339  0.3261  0.7630
   40MOL0     O 5178   0.136  10.285   7.865 -0.3159 -0.3083 -0.0122
   40MOL0     C 5179   0.047  10.377   7.900  1.4499  0.0426 -0.1226
   40MOL0     C 5180   0.086  10.473   7.987  0.0322  0.3159 -0.1129
   40MOL0     C 5181   0.006  10.577   8.023  0.3318  0.1541 -0.2869
   40MOL0     C 5182  -0.120  10.583   7.963  0.1048 -0.3791  0.1206
   40MOL0     O 5183  -0.213  10.678   7.993  0.4371  0.5975 -0.1122
   40MOL0     C 5184  -0.189  10.796   7.920 -0.7374  0.0161 -0.0868
   40MOL0     C 5185  -0.097  10.890   7.985  0.1641 -0.1767  1.0148
   40MOL0     C 5186  -0.121  10.927   8.135 -0.1952  0.3976 -0.3900
   40MOL0     C 5187  -0.030  11.026   8.192  0.4243  0.8077  0.4217
   40MOL0     C 5188  -0.075  11.166   8.173  0.3693  0.0568  0.0632
   40MOL0     C 5189   0.007  11.264   8.251  0.0415  0.2580 -0.2264
   40MOL0     C 5190  -0.046  11.404   8.220 -0.8863  0.8464 -0.6401
   40MOL0     C 5191   0.043  11.513   8.283  0.5086 -0.5382 -0.4687
   40MOL0    Cl 5192   0.218  11.490   8.221  0.1547 -0.4721  0.0443
   40MOL0     C 5193  -0.162  10.490   7.872 -0.7203  0.2052 -0.5448
   40MOL0     C 5194  -0.078  10.383   7.839 -0.1541  0.1766 -0.0818
   40MOL0     O 5195   0.300  10.437   7.792  0.4997 -0.4883  0.1027
   40MOL0     C 5196   0.498  10.256   7.791  0.0609  0.9401 -0.6470
   40MOL0     C 5197   0.598  10.164   7.791 -0.0445  0.0169  0.0134
   40MOL0     N 5198   1.070   9.532   7.868  0.6152 -0.6842  0.0384
   40MOL0     N 5199   1.166   9.478   7.803 -0.4831  0.1911  0.3925
   40MOL0     C 5200   2.355   9.226   7.664 -0.2502 -0.0200  0.2748
   40MOL0     C 5201   2.491   9.227   7.678 -0.3222  0.5123  0.6831
   40MOL0     C 5202   2.945   9.133   7.541  0.1735  0.3292  0.3548
   40MOL0     C 5203   3.039   9.091   7.449  0.5311 -0.3697 -0.5762
   40MOL0     C 5204   3.166   9.081   7.474 -0.0806  0.9836 -0.0267
   40MOL0     C 5205   3.211   9.089   7.605  0.1929  0.0119 -0.2274
   40MOL0     O 5206   3.342   9.060   7.625 -0.6742  0.3265 -0.0172
   40MOL0     C 5207   3.412   9.140   7.717 -0.1670  0.0115  0.0542
   40MOL0     C 5208   3.566   9.148   7.672 -0.1491 -0.0909 -0.1074
   40MOL0     C 5209   3.622   9.006   7.647  0.2813  0.1604  0.5159
   40MOL0     C 5210   3.766   9.020   7.610 -0.4307 -0.1223  0.8888
   40MOL0     C 5211   3.868   9.046   7.717 -0.2082  0.2133  0.2753
   40MOL0     C 5212   3.955   9.059   7.802 -0.3150  0.3275 -0.0345
   40MOL0     C 5213   3.120   9.125   7.708  0.8662 -0.2249 -0.5144
   40MOL0     C 5214   2.986   9.147   7.673 -0.4821 -0.3099 -0.8069
   40MOL0     H 5215   2.563   9.097   7.373  1.8247 -0.0217  1.2319
   40MOL0     H 5216   2.316   9.101   7.362 -1.2715 -0.5121  0.8088
   40MOL0     H 5217   2.094   9.255   7.744 -3.2463  2.5745 -1.6147
   40MOL0     H 5218   2.089   9.077   7.718 -0.1720  0.3395  0.6928
   40MOL0     H 5219   1.893   9.110   7.581 -1.9929 -0.4483  2.6102
   40MOL0     H 5220   1.914   9.272   7.557 -0.3018  2.2662  2.2191
   40MOL0     H 5221   1.864   9.309   7.808  1.4927 -1.0282 -0.5794
   40MOL0     H 5222   1.819   9.141   7.809 -3.0193 -1.1621 -1.9363
   40MOL0     H 5223   1.699   9.349   7.640  0.3293 -0.3286 -1.0556
   40MOL0     H 5224   1.667   9.176   7.617  3.2161  0.0054 -0.9819
   40MOL0     H 5225   1.592   9.348   7.865 -2.8211  0.4535  0.1449
   40MOL0     H 5226   1.568   9.171   7.851 -3.8113 -0.1931 -0.1975
   40MOL0     H 5227   1.357   9.258   7.792 -1.1713 -0.0487 -0.8244
   40MOL0     H 5228   1.431   9.178   7.666 -0.0539 -0.8214  1.7057
   40MOL0     H 5229   1.493   9.412   7.566  0.1567  1.4834  0.3687
   40MOL0     H 5230   1.319   9.377   7.587 -0.7577 -1.3664  1.9096
   40MOL0     H 5231   1.413   9.615   7.651 -1.1113  1.0581  1.4557
   40MOL0     H 5232   1.491   9.537   7.782 -0.3364  0.0796  1.1464
   40MOL0     H 5233   1.316   9.753   7.866  0.9342 -0.9400 -3.6062
   40MOL0     H 5234   1.090   9.826   8.041 -1.4951 -0.1764  1.5395
   40MOL0     H 5235   1.023   9.668   8.091  4.2088 -1.5906  0.2330
   40MOL0     H 5236   0.844   9.834   8.025 -2.5815 -0.8590 -0.6111
   40MOL0     H 5237   0.841   9.685   7.950 -0.9914  0.8913  0.4597
   40MOL0     H 5238   0.997   9.858   7.780  0.4503 -1.3051  0.8159
   40MOL0     H 5239   0.870   9.765   7.731 -3.1279  1.2938 -0.5681
   40MOL0     H 5240   0.808   9.990   7.703 -0.4239 -0.0980 -0.6885
   40MOL0     H 5241   0.848  10.032   7.866 -2.0074 -0.1243  1.9564
   40MOL0     H 5242   0.422   9.911   7.932  0.4719  0.7021  3.6192
   40MOL0     H 5243   0.236  10.082   7.924 -0.5758  0.4155 -2.2820
   40MOL0     H 5244   0.184  10.463   8.033 -0.3911 -2.7388  0.3038
   40MOL0     H 5245   0.037  10.654   8.091 -0.0762  1.6058 -1.6841
   40MOL0     H 5246  -0.282  10.849   7.896 -0.4697  0.8369  0.6261
   40MOL0     H 5247  -0.147  10.778   7.821 -3.9065 -1.9177 -1.2370
   40MOL0     H 5248  -0.093  10.982   7.927  2.8958 -1.1215 -0.4813
   40MOL0     H 5249   0.003  10.848   7.975 -0.1171 -0.3604 -1.6030
   40MOL0     H 5250  -0.100  10.839   8.196  0.2727  0.6896 -0.1271
   40MOL0     H 5251  -0.223  10.959   8.159  0.6489  1.1059  2.7165
   40MOL0     H 5252  -0.023  11.018   8.301 -3.2054 -1.1064  0.6706
   40MOL0     H 5253   0.065  11.008   8.141  0.2146  2.0957 -0.4728
   40MOL0     H 5254  -0.182  11.172   8.191 -0.3726 -1.4265 -3.1195
   40MOL0     H 5255  -0.072  11.180   8.065  0.8720 -1.0403 -0.0829
   40MOL0     H 5256   0.113  11.256   8.223  0.9093  1.5942  2.3048
   40MOL0     H 5257  -0.006  11.241   8.358 -2.7484  0.8932 -0.3641
   40MOL0     H 5258  -0.063  11.404   8.112 -1.7163 -1.0834 -0.5355
   40MOL0     H 5259  -0.136  11.422   8.278  0.9443  3.3306  1.6851
   40MOL0     H 5260   0.051  11.503   8.392  0.2575  0.3965 -0.3563
   40MOL0     H 5261  -0.005  11.607   8.255  1.2951  0.1161  0.3149
   40MOL0     H 5262  -0.251  10.499   7.812 -1.5663 -2.0146  0.2724
   40MOL0     H 5263  -0.104  10.298   7.777 -0.4936 -0.7458  1.2930
   40MOL0     H 5264   0.512  10.352   7.742  2.3061  2.5410  2.6949
   40MOL0     H 5265   0.693  10.182   7.743 -0.5809 -0.7023 -1.3737
   40MOL0     H 5266   2.302   9.277   7.744 -1.9564  1.4680 -1.6980
   40MOL0     H 5267   2.539   9.246   7.773  0.5697 -0.1730  0.3783
   40MOL0     H 5268   3.003   9.079   7.347  0.3690 -0.0822 -0.5540
   40MOL0     H 5269   3.225   9.051   7.389  0.1537 -3.0538  1.3387
   40MOL0     H 5270   3.405   9.099   7.818  2.6468 -0.0966  0.2880
   40MOL0     H 5271   3.364   9.238   7.727 -0.3674  0.1564 -1.8592
   40MOL0     H 5272   3.581   9.214   7.587  1.0121 -2.6570 -2.0330
   40MOL0     H 5273   3.633   9.194   7.744  0.5690 -1.1143 -0.0940
   40MOL0     H 5274   3.557   8.954   7.576 -0.7717  0.3611  1.3106
   40MOL0     H 5275   3.614   8.946   7.738  0.8669 -1.0921 -0.2263
   40MOL0     H 5276   3.799   8.938   7.546 -0.3924  2.2989 -2.5080
   40MOL0     H 5277   3.769   9.106   7.542  1.1491  0.5949  1.8329
   40MOL0     H 5278   4.034   9.061   7.875 -0.2213 -0.2183 -0.1240
   40MOL0     H 5279   3.140   9.127   7.814  1.4253 -0.1864 -0.6200
   40MOL0     H 5280   2.923   9.184   7.753  0.1213 -2.8892  1.0133
   41MOL0     O 5281  10.424   7.095   8.257  0.1628  0.3623  0.0811
   41MOL0     C 5282  10.457   7.022   8.164  0.8503  0.0638  0.3004
   41MOL0     O 5283  10.367   6.968   8.072 -0.7440  0.0892  0.4789
   41MOL0     C 5284  10.233   6.985   8.067 -0.3874  0.6489  0.2648
   41MOL0     C 5285  10.183   6.971   7.938 -0.2416  0.0140 -0.1460
   41MOL0     C 5286  10.044   6.988   7.910 -0.5509  0.5032  0.8063
   41MOL0     C 5287   9.960   7.023   8.007  0.2638 -1.1265 -0.5427
   41MOL0     O 5288   9.830   7.043   7.968  0.3782  0.4869  0.0723
   41MOL0     C 5289   9.726   7.015   8.057  0.3509 -0.1886  0.1855
   41MOL0     C 5290   9.650   7.147   8.089 -0.1879 -0.0836  0.0711
   41MOL0     C 5291   9.566   7.192   7.965 -1.1983  0.1172  0.4346
   41MOL0     C 5292   9.489   7.321   7.995  1.3031  0.1475  0.7763
   41MOL0     C 5293   9.375   7.334   7.891  0.1162 -0.4452 -0.6177
   41MOL0     C 5294   9.265   7.428   7.947 -0.0360 -0.3700 -0.3999
   41MOL0     C 5295   9.170   7.469   7.832 -0.2352  0.2937 -0.4067
   41MOL0     C 5296   9.035   7.516   7.886 -0.0615  0.3810  0.0051
   41MOL0     N 5297   8.957   7.556   7.768  0.6565  0.1264 -0.2122
   41MOL0     C 5298   8.854   7.492   7.709  0.8431 -0.7855 -0.2454
   41MOL0     C 5299   8.802   7.579   7.621  0.1338 -0.0674  0.0635
   41MOL0     C 5300   8.699   7.561   7.517  0.4351 -0.3872 -0.0237
   41MOL0     C 5301   8.573   7.495   7.564  0.8060 -0.3098  0.1911
   41MOL0     C 5302   8.555   7.342   7.572 -0.1211  0.3664 -0.1331
   41MOL0     C 5303   8.422   7.290   7.637 -1.1394  1.4622  0.9370
   41MOL0     O 5304   8.319   7.332   7.551  0.2522 -0.2283 -0.9509
   41MOL0     C 5305   8.200   7.289   7.595 -0.5481  0.1091  0.1716
   41MOL0     C 5306   8.174   7.204   7.707  0.4716  0.9171  0.1764
   41MOL0     C 5307   8.042   7.159   7.739 -0.4616  0.6364  1.0073
   41MOL0     C 5308   7.942   7.205   7.659  0.6951  0.5800  0.1540
   41MOL0     C 5309   7.799   7.170   7.696 -0.4617 -0.4255  0.6554
   41MOL0     O 5310   7.765   7.111   7.817  0.4189  0.2311 -0.1576
   41MOL0     C 5311   7.632   7.062   7.831  0.7055 -0.0573  0.2305
   41MOL0     C 5312   7.594   6.946   7.900 -0.9957 -0.3470 -0.3883
   41MOL0     C 5313   7.463   6.903   7.906 -1.0472  0.6283 -0.1366
   41MOL0     C 5314   7.364   6.978   7.861  0.0489 -0.1531 -0.5300
   41MOL0     O 5315   7.234   6.955   7.877  0.0141  0.9063 -0.2164
   41MOL0     C 5316   7.183   6.834   7.934 -0.1115  0.2273  0.1580
   41MOL0     C 5317   7.031   6.844   7.916 -0.2552  0.3112  0.2146
   41MOL0     C 5318   6.963   6.923   8.024  0.8022  0.1693 -1.3855
   41MOL0     C 5319   7.015   7.063   8.046 -0.5981 -0.4430 -0.0629
   41MOL0     C 5320   6.944   7.138   8.157 -0.4919  1.0013  0.0795
   41MOL0     C 5321   7.013   7.269   8.209  0.4167  0.1496  0.3230
   41MOL0     C 5322   6.936   7.329   8.327 -0.2573  0.2210 -0.5274
   41MOL0     C 5323   6.802   7.386   8.290 -0.2792  0.0501 -0.2210
   41MOL0    Cl 5324   6.760   7.512   8.409 -0.0326 -0.5395  0.2680
   41MOL0     C 5325   7.392   7.108   7.805 -0.1964  0.4785 -0.5916
   41MOL0     C 5326   7.523   7.147   7.788  0.2135 -1.0698  0.7442
   41MOL0     O 5327   7.724   7.221   7.611  0.4658  0.2532 -0.8575
   41MOL0     C 5328   7.970   7.281   7.541 -0.3176  0.5613 -0.0570
   41MOL0     C 5329   8.099   7.319   7.506  0.0642 -0.4225 -0.2100
   41MOL0     N 5330   8.867   7.697   7.629  0.4962 -0.0898 -0.8610
   41MOL0     N 5331   8.953   7.682   7.728  0.0816 -0.3886 -0.1860
   41MOL0     C 5332  10.011   7.047   8.138  1.0111 -0.7597 -0.0858
   41MOL0     C 5333  10.143   7.023   8.167  0.0171 -0.0631  1.1224
   41MOL0     C 5334  10.591   6.972   8.167  0.1746 -0.9485 -0.2811
   41MOL0     C 5335  10.689   7.032   8.253  0.7331  0.7255  0.3539
   41MOL0     C 5336  10.824   6.982   8.260 -0.1178 -0.3653 -0.4202
   41MOL0     C 5337  10.866   6.877   8.184  0.5242 -0.8761 -0.3694
   41MOL0     O 5338  10.993   6.839   8.215 -0.2013 -0.9350  0.0790
   41MOL0     C 5339  11.031   6.706   8.190 -0.5954  0.0693  0.2673
   41MOL0     C 5340  11.181   6.671   8.219  0.0762 -0.6103 -0.5552
   41MOL0     C 5341  11.221   6.721   8.362  0.6402  0.1869  0.5671
   41MOL0     C 5342  11.360   6.770   8.362  0.6946  0.3472 -0.0409
   41MOL0     C 5343  11.365   6.901   8.296  0.5223  0.4324  0.5602
   41MOL0     C 5344  11.365   7.007   8.238  0.2580 -0.7964  0.1879
   41MOL0     C 5345  10.772   6.813   8.105 -0.4437 -0.0077  0.0626
   41MOL0     C 5346  10.642   6.865   8.087  0.0424 -0.3077 -0.3663
   41MOL0     H 5347  10.251   6.943   7.859  3.0367  0.1691  2.3848
   41MOL0     H 5348  10.012   6.992   7.806  1.1889  2.8145  0.2855
   41MOL0     H 5349   9.755   6.969   8.151  0.4509  4.1642  2.5421
   41MOL0     H 5350   9.654   6.960   7.995  1.3698 -1.2681 -0.0574
   41MOL0     H 5351   9.708   7.230   8.130  0.7557 -0.8552  0.3220
   41MOL0     H 5352   9.582   7.129   8.172 -0.0542 -0.5126  0.0876
   41MOL0     H 5353   9.492   7.117   7.937 -0.9008  0.8501 -2.5632
   41MOL0     H 5354   9.644   7.219   7.893 -0.0334 -0.9897  1.2290
   41MOL0     H 5355   9.444   7.314   8.095  0.0258 -3.1171  0.1089
   41MOL0     H 5356   9.558   7.406   7.992  1.4011  0.0867 -2.9238
   41MOL0     H 5357   9.317   7.243   7.874 -0.9815 -0.1779  1.3875
   41MOL0     H 5358   9.424   7.367   7.798 -0.0064  1.9549  0.1073
   41MOL0     H 5359   9.299   7.516   8.001 -0.2590 -0.6991  0.2915
   41MOL0     H 5360   9.200   7.371   8.015  0.1686 -1.4827 -1.1058
   41MOL0     H 5361   9.214   7.540   7.762 -1.8102 -0.9567 -2.8058
   41MOL0     H 5362   9.153   7.380   7.771 -1.7453  0.4698 -0.2778
   41MOL0     H 5363   9.047   7.602   7.952  0.0541  0.8873 -0.6586
   41MOL0     H 5364   8.995   7.435   7.947  2.6288 -0.2061  1.1300
   41MOL0     H 5365   8.824   7.389   7.727 -1.1583  0.2181  2.9232
   41MOL0     H 5366   8.747   7.507   7.434  0.1209  0.5475 -0.8430
   41MOL0     H 5367   8.664   7.653   7.468  0.8061  0.1345  0.6676
   41MOL0     H 5368   8.494   7.528   7.497  0.0914 -0.9217  0.7066
   41MOL0     H 5369   8.552   7.547   7.658 -0.3671  0.0419 -0.2506
   41MOL0     H 5370   8.572   7.294   7.475  0.3154  2.4992 -1.1904
   41MOL0     H 5371   8.644   7.306   7.625 -0.6124  0.1649  0.5666
   41MOL0     H 5372   8.411   7.338   7.735 -2.2817 -1.7449  2.5360
   41MOL0     H 5373   8.428   7.182   7.651 -1.4824  1.1093 -1.2946
   41MOL0     H 5374   8.252   7.163   7.769  1.3027 -2.7402 -2.9039
   41MOL0     H 5375   8.016   7.098   7.825 -1.9747 -0.5621 -0.2404
   41MOL0     H 5376   7.673   6.893   7.952 -0.4172  0.3377 -0.5440
   41MOL0     H 5377   7.443   6.811   7.960  1.1179  0.1290 -0.1076
   41MOL0     H 5378   7.210   6.831   8.040 -0.0482  0.6415  0.1569
   41MOL0     H 5379   7.234   6.745   7.896  0.2282  0.3011  0.4378
   41MOL0     H 5380   6.987   6.744   7.927  1.0639 -0.2080  1.0804
   41MOL0     H 5381   7.010   6.888   7.818 -1.4629  2.6688  1.4284
   41MOL0     H 5382   6.973   6.873   8.120  0.0627  1.3352 -0.6864
   41MOL0     H 5383   6.857   6.923   7.996  0.4628 -5.3658 -1.2585
   41MOL0     H 5384   7.124   7.060   8.061 -0.4420  1.1043 -0.6710
   41MOL0     H 5385   7.008   7.126   7.957 -0.1729  3.0644  2.2166
   41MOL0     H 5386   6.935   7.070   8.242  0.5897  3.7907  2.5867
   41MOL0     H 5387   6.847   7.164   8.115  0.2476  1.8874 -1.1616
   41MOL0     H 5388   7.038   7.328   8.120 -0.2370 -1.8754 -1.2686
   41MOL0     H 5389   7.110   7.242   8.253 -0.0953 -0.6847  0.9585
   41MOL0     H 5390   6.919   7.246   8.397 -1.8766 -0.4362 -1.6248
   41MOL0     H 5391   6.998   7.409   8.368 -1.8463  0.7272  0.9579
   41MOL0     H 5392   6.730   7.304   8.291 -0.3678  0.1286  0.2159
   41MOL0     H 5393   6.799   7.426   8.188 -0.3344  0.9362  0.1171
   41MOL0     H 5394   7.314   7.172   7.766  0.5203  1.2791 -0.7538
   41MOL0     H 5395   7.537   7.244   7.741 -2.0167 -0.7400  0.6431
   41MOL0     H 5396   7.895   7.319   7.472  0.7599  0.6434 -1.2272
   41MOL0     H 5397   8.116   7.380   7.418  0.6015 -0.0575  0.1436
   41MOL0     H 5398   9.940   7.081   8.212  0.4031 -1.5039 -0.3134
   41MOL0     H 5399  10.162   7.046   8.271  0.7856 -1.5111  1.3332
   41MOL0     H 5400  10.656   7.115   8.314 -0.1319  2.6747 -2.5726
   41MOL0     H 5401  10.897   7.030   8.324  0.4553 -2.4122  0.5537
   41MOL0     H 5402  11.021   6.685   8.083  1.4093  0.6720 -0.0800
   41MOL0     H 5403  10.975   6.626   8.240 -1.5903 -1.0388 -2.4399
   41MOL0     H 5404  11.190   6.563   8.210  0.4917 -0.8693  2.0605
   41MOL0     H 5405  11.242   6.713   8.139 -1.8880  0.0578 -1.7802
   41MOL0     H 5406  11.207   6.634   8.427 -0.6279  0.2720  0.4299
   41MOL0     H 5407  11.154   6.800   8.396 -1.0068 -0.1131 -1.7744
   41MOL0     H 5408  11.378   6.781   8.469  0.4024 -0.7782  0.1460
   41MOL0     H 5409  11.429   6.698   8.317  1.9870  0.8956  0.9906
   41MOL0     H 5410  11.366   7.108   8.201 -2.2616 -0.6293  0.4068
   41MOL0     H 5411  10.805   6.727   8.048  4.2626  1.2247  0.5442
   41MOL0     H 5412  10.587   6.827   8.001 -2.3222  2.4198 -0.2344
   42MOL0     O 5413   7.614   6.391   9.779 -0.5168  0.2432 -0.1409
   42MOL0     C 5414   7.621   6.299   9.702 -0.6059  0.9283 -0.0314
   42MOL0     O 5415   7.532   6.269   9.593 -0.6481  0.2225  0.4293
   42MOL0     C 5416   7.436   6.359   9.573 -0.9868  0.1278 -0.2709
   42MOL0     C 5417   7.312   6.363   9.634 -0.1274  0.3758 -0.0994
   42MOL0     C 5418   7.232   6.473   9.611 -0.3498 -0.1923  0.0601
   42MOL0     C 5419   7.262   6.577   9.522 -0.3350  0.1374  0.3639
   42MOL0     O 5420   7.182   6.684   9.485  0.0813  0.3365  0.3040
   42MOL0     C 5421   7.038   6.665   9.512  0.0368  0.0174 -0.1315
   42MOL0     C 5422   6.968   6.793   9.453 -0.6177  0.1817  0.0555
   42MOL0     C 5423   6.820   6.793   9.486 -0.2795 -0.3341 -0.7190
   42MOL0     C 5424   6.747   6.675   9.405  0.2961 -1.4084 -0.3759
   42MOL0     C 5425   6.598   6.664   9.422  0.0153  1.0350  0.2001
   42MOL0     C 5426   6.524   6.795   9.395 -0.7777 -0.1783  0.1360
   42MOL0     C 5427   6.367   6.765   9.398 -1.1082 -0.0742 -0.2866
   42MOL0     C 5428   6.292   6.907   9.391 -0.1671 -0.0447  0.8914
   42MOL0     N 5429   6.146   6.922   9.412  0.5667  0.3133  0.8553
   42MOL0     C 5430   6.044   6.833   9.382  0.1695 -0.4458  0.3193
   42MOL0     C 5431   5.931   6.884   9.438 -0.4832  0.1152 -0.5974
   42MOL0     C 5432   5.799   6.816   9.439  0.8827 -0.3085 -0.5282
   42MOL0     C 5433   5.720   6.851   9.313  0.3644 -0.3734 -0.3063
   42MOL0     C 5434   5.668   6.992   9.332  0.0304  0.3433 -0.1394
   42MOL0     C 5435   5.624   7.049   9.204  0.3755  0.1663  0.2631
   42MOL0     O 5436   5.533   7.158   9.215 -0.0618  0.6712  0.9997
   42MOL0     C 5437   5.405   7.126   9.230  0.1660 -0.2675 -0.7708
   42MOL0     C 5438   5.343   7.001   9.245  0.7759  0.6134  0.1464
   42MOL0     C 5439   5.204   6.981   9.271 -0.2316 -0.5633 -0.5064
   42MOL0     C 5440   5.125   7.091   9.273 -0.5884  1.1888 -0.5616
   42MOL0     C 5441   4.985   7.083   9.318 -0.0770  0.1936  0.4348
   42MOL0     O 5442   4.908   7.200   9.305 -0.1383  1.0999 -0.5824
   42MOL0     C 5443   4.771   7.187   9.300 -0.1275  0.1361  0.2000
   42MOL0     C 5444   4.700   7.167   9.181  0.6117  0.3474  0.4880
   42MOL0     C 5445   4.559   7.164   9.172  0.2164  0.1690 -0.7565
   42MOL0     C 5446   4.480   7.175   9.289 -0.2197  0.1658  0.0054
   42MOL0     O 5447   4.343   7.165   9.278  0.0848  0.5787 -0.3972
   42MOL0     C 5448   4.260   7.172   9.393  0.4039 -0.2128 -0.6596
   42MOL0     C 5449   4.117   7.124   9.356  0.1055  0.0719  0.0768
   42MOL0     C 5450   4.030   7.177   9.475  0.4818 -0.0879  0.4933
   42MOL0     C 5451   3.887   7.133   9.445  0.0877 -0.4766  0.3955
   42MOL0     C 5452   3.797   7.194   9.552 -0.5596 -0.1127 -0.1637
   42MOL0     C 5453   3.643   7.150   9.545 -0.3132 -0.4562  0.3254
   42MOL0     C 5454   3.553   7.225   9.644 -0.2409  0.2048 -0.2324
   42MOL0     C 5455   3.410   7.179   9.649  0.6998 -0.6389  0.2083
   42MOL0    Cl 5456   3.337   7.259   9.794 -0.0143  0.3506  0.0171
   42MOL0     C 5457   4.540   7.223   9.404  0.3408 -0.8353 -0.1043
   42MOL0     C 5458   4.687   7.218   9.412 -0.5523  0.0437  0.4826
   42MOL0     O 5459   4.941   6.973   9.352 -0.3985  0.1644  0.1452
   42MOL0     C 5460   5.180   7.212   9.260 -0.6431  0.4127  1.2777
   42MOL0     C 5461   5.313   7.230   9.227 -0.3731 -0.4988 -0.1766
   42MOL0     N 5462   5.967   7.003   9.499 -0.4302  0.4295  0.2690
   42MOL0     N 5463   6.094   7.022   9.484  0.3835 -0.3181  0.2663
   42MOL0     C 5464   7.381   6.567   9.460 -0.4387  0.4160  0.7099
   42MOL0     C 5465   7.474   6.470   9.497 -0.1900  0.4709  0.6230
   42MOL0     C 5466   7.732   6.200   9.729 -0.8441 -0.1406 -0.6567
   42MOL0     C 5467   7.815   6.205   9.846  0.6090 -0.4731 -0.5833
   42MOL0     C 5468   7.923   6.121   9.859 -0.3189  0.2334  0.2608
   42MOL0     C 5469   7.966   6.035   9.755  0.2006  0.5755 -0.5659
   42MOL0     O 5470   8.067   5.945   9.771 -0.5522 -0.1708  0.2122
   42MOL0     C 5471   8.173   5.986   9.867  0.6709  0.6116 -0.2350
   42MOL0     C 5472   8.299   5.897   9.842 -0.5210  0.3589 -0.5563
   42MOL0     C 5473   8.334   5.869   9.701  0.2290  0.1818  0.3878
   42MOL0     C 5474   8.362   6.005   9.628 -0.1886 -1.0330 -0.6537
   42MOL0     C 5475   8.392   5.987   9.482 -0.2542  0.9941 -0.8779
   42MOL0     C 5476   8.413   5.967   9.363 -0.7502  0.6249 -0.1199
   42MOL0     C 5477   7.880   6.026   9.643 -0.6493  0.3873 -0.1470
   42MOL0     C 5478   7.774   6.109   9.633 -0.3307 -0.4857 -0.1296
   42MOL0     H 5479   7.279   6.280   9.695 -1.6460 -0.1021 -1.5098
   42MOL0     H 5480   7.143   6.480   9.672  0.6833 -1.8262  1.8802
   42MOL0     H 5481   7.022   6.646   9.619 -0.2434 -4.2111 -0.7766
   42MOL0     H 5482   7.003   6.574   9.464  0.4158 -0.7377  0.9947
   42MOL0     H 5483   6.990   6.796   9.346  0.8980 -1.4514  0.2659
   42MOL0     H 5484   7.019   6.880   9.496 -1.3719  0.0555  1.2417
   42MOL0     H 5485   6.783   6.888   9.447  1.8951 -0.4703 -3.4143
   42MOL0     H 5486   6.801   6.787   9.594  0.6037 -1.4244 -0.6074
   42MOL0     H 5487   6.758   6.705   9.301 -0.5583  0.8155  0.1151
   42MOL0     H 5488   6.800   6.580   9.415  3.7436  0.4552  0.9850
   42MOL0     H 5489   6.574   6.631   9.524 -1.2115  1.9603  0.2360
   42MOL0     H 5490   6.556   6.582   9.364  1.6614  1.6257 -1.9246
   42MOL0     H 5491   6.553   6.837   9.298  0.1250 -0.2109  0.3791
   42MOL0     H 5492   6.554   6.867   9.472 -0.3312  0.5221 -0.6798
   42MOL0     H 5493   6.349   6.703   9.310  3.2319  1.2972 -2.4537
   42MOL0     H 5494   6.333   6.706   9.483 -1.3154  0.0619 -0.2740
   42MOL0     H 5495   6.308   6.950   9.292  1.1384  0.5667  1.3342
   42MOL0     H 5496   6.340   6.979   9.459 -1.9294  3.1721 -1.0609
   42MOL0     H 5497   6.064   6.746   9.320  3.0342  1.5765 -1.8571
   42MOL0     H 5498   5.741   6.838   9.529 -1.0571  0.8197 -1.9659
   42MOL0     H 5499   5.817   6.708   9.444  0.7578 -0.4067 -1.7593
   42MOL0     H 5500   5.646   6.774   9.290  0.6936 -0.3803 -1.4008
   42MOL0     H 5501   5.791   6.859   9.230  1.3117 -2.0634  0.2848
   42MOL0     H 5502   5.577   6.978   9.391  0.2364  0.9683  0.3370
   42MOL0     H 5503   5.739   7.060   9.379 -0.8064  1.5254 -0.5430
   42MOL0     H 5504   5.591   6.966   9.141 -0.9123 -0.1652  1.3374
   42MOL0     H 5505   5.705   7.095   9.146 -1.1168 -0.7002 -2.6878
   42MOL0     H 5506   5.402   6.910   9.248 -2.1765 -1.4982 -1.0786
   42MOL0     H 5507   5.169   6.880   9.285 -0.9094 -0.2326  0.3003
   42MOL0     H 5508   4.757   7.158   9.090  0.3691  1.8611  0.1572
   42MOL0     H 5509   4.513   7.147   9.075 -1.9938  0.5812  0.1362
   42MOL0     H 5510   4.260   7.276   9.426 -0.9049  0.2160 -1.9260
   42MOL0     H 5511   4.295   7.115   9.480  0.5949  3.1216  1.6713
   42MOL0     H 5512   4.111   7.014   9.356 -2.3477  0.1068 -2.3282
   42MOL0     H 5513   4.083   7.173   9.264  1.4876  2.2465  0.6738
   42MOL0     H 5514   4.045   7.285   9.476 -2.7908  0.4725  1.5077
   42MOL0     H 5515   4.055   7.124   9.567 -1.1923 -0.6309  0.6814
   42MOL0     H 5516   3.863   7.164   9.343  0.6172 -0.5529  0.2405
   42MOL0     H 5517   3.889   7.024   9.441  4.2679 -0.5512 -1.6944
   42MOL0     H 5518   3.803   7.303   9.545 -1.2611 -0.1489 -1.9576
   42MOL0     H 5519   3.826   7.148   9.647 -3.1697 -1.6333 -0.0011
   42MOL0     H 5520   3.637   7.043   9.566 -1.1066 -0.1590  1.7311
   42MOL0     H 5521   3.600   7.172   9.446  0.2702  0.1652  0.2072
   42MOL0     H 5522   3.590   7.208   9.746 -0.2439 -2.5586 -0.6104
   42MOL0     H 5523   3.557   7.331   9.617  0.5745  0.2047 -0.1629
   42MOL0     H 5524   3.398   7.070   9.651  0.1856 -0.7628 -3.0294
   42MOL0     H 5525   3.355   7.221   9.564  2.3070  0.8226 -0.1719
   42MOL0     H 5526   4.485   7.238   9.496  0.7655 -4.3935  0.8701
   42MOL0     H 5527   4.734   7.244   9.506  0.4641  0.3669 -0.1020
   42MOL0     H 5528   5.124   7.305   9.260  2.2418  2.2675  1.5288
   42MOL0     H 5529   5.341   7.332   9.208 -1.8864  0.3071  1.5161
   42MOL0     H 5530   7.415   6.633   9.381 -1.7587 -0.5176 -0.6777
   42MOL0     H 5531   7.572   6.470   9.451 -1.2486 -1.4835 -1.8753
   42MOL0     H 5532   7.787   6.268   9.930 -2.2542 -0.8802 -1.1499
   42MOL0     H 5533   7.984   6.145   9.945 -0.6054  0.0431  0.5191
   42MOL0     H 5534   8.138   5.956   9.966  2.1429  0.0683  0.1452
   42MOL0     H 5535   8.192   6.092   9.845  0.4479  0.4133 -1.4273
   42MOL0     H 5536   8.386   5.945   9.888 -1.4914 -0.1464  2.0377
   42MOL0     H 5537   8.295   5.801   9.896  1.4528  0.4750 -0.1244
   42MOL0     H 5538   8.248   5.829   9.646 -0.9715  0.0486  2.2865
   42MOL0     H 5539   8.426   5.811   9.694  1.3620  1.4350  3.2867
   42MOL0     H 5540   8.277   6.074   9.630  0.9924  0.4506  0.4218
   42MOL0     H 5541   8.446   6.056   9.675 -2.3194  1.1384  1.0744
   42MOL0     H 5542   8.450   5.956   9.263 -0.2712  1.7246 -0.0822
   42MOL0     H 5543   7.894   5.964   9.556  0.0581  1.0768 -0.5328
   42MOL0     H 5544   7.727   6.114   9.536 -0.1019  0.9794 -0.1931
   43MOL0     O 5545   2.433  10.728  11.032  0.2450  0.0428  0.4096
   43MOL0     C 5546   2.444  10.673  10.923 -0.0588 -0.4392 -0.4408
   43MOL0     O 5547   2.344  10.604  10.855  0.4970 -0.2286  0.4490
   43MOL0     C 5548   2.216  10.600  10.918 -0.8339 -0.4575  0.5891
   43MOL0     C 5549   2.181  10.493  11.001  0.2533  0.3115 -0.5549
   43MOL0     C 5550   2.056  10.485  11.064  0.0016  0.1555  0.2825
   43MOL0     C 5551   1.964  10.581  11.037 -0.6272 -0.1385  0.1709
   43MOL0     O 5552   1.834  10.553  11.078 -0.1324 -0.4916 -0.0372
   43MOL0     C 5553   1.733  10.650  11.051  0.3302 -0.5755 -1.1902
   43MOL0     C 5554   1.603  10.599  11.082  0.1079  0.7561  0.0479
   43MOL0     C 5555   1.507  10.715  11.082 -0.3438  0.5355 -0.2792
   43MOL0     C 5556   1.370  10.686  11.132 -0.4098  0.3245 -0.6665
   43MOL0     C 5557   1.273  10.645  11.019  0.1737 -0.1680  1.4313
   43MOL0     C 5558   1.183  10.523  11.064  0.1469  0.3088 -0.4683
   43MOL0     C 5559   1.035  10.572  11.099  0.7872  0.7069 -0.0423
   43MOL0     C 5560   1.026  10.648  11.231 -0.7737 -0.1531 -0.7221
   43MOL0     N 5561   0.890  10.703  11.256 -0.2447 -0.3476 -0.0759
   43MOL0     C 5562   0.792  10.663  11.344  0.1746  0.5078  0.9865
   43MOL0     C 5563   0.692  10.747  11.347  0.4432  0.0292 -0.2242
   43MOL0     C 5564   0.570  10.737  11.432  0.2824  0.7369 -0.3422
   43MOL0     C 5565   0.475  10.624  11.378 -0.7883  0.4474 -0.4357
   43MOL0     C 5566   0.348  10.625  11.458 -0.0429  0.0712  0.2272
   43MOL0     C 5567   0.254  10.524  11.394  0.1521  0.5007  0.6171
   43MOL0     O 5568   0.130  10.542  11.467 -0.5844  0.1253  0.5185
   43MOL0     C 5569   0.023  10.472  11.419 -0.1882  0.3239 -0.1052
   43MOL0     C 5570  -0.098  10.494  11.488  0.1454 -0.1103  0.0266
   43MOL0     C 5571  -0.218  10.420  11.452 -0.5507  0.5025 -0.4760
   43MOL0     C 5572  -0.208  10.315  11.359  0.4700  0.6413 -0.2707
   43MOL0     C 5573  -0.321  10.228  11.317  0.5596  0.6979 -0.9093
   43MOL0     O 5574  -0.288  10.102  11.259  0.5999  0.4293  0.0237
   43MOL0     C 5575  -0.399  10.045  11.205  0.5380 -0.6781  0.1035
   43MOL0     C 5576  -0.477  10.105  11.099  0.0724  0.0458 -0.0957
   43MOL0     C 5577  -0.583  10.046  11.041 -0.2170  0.4664 -0.1891
   43MOL0     C 5578  -0.617   9.920  11.074  0.1399  0.0622 -0.7085
   43MOL0     O 5579  -0.731   9.870  11.013 -0.2329  0.3976  0.5294
   43MOL0     C 5580  -0.799   9.756  11.064 -0.1505  1.1356 -0.3828
   43MOL0     C 5581  -0.948   9.760  11.014 -0.6819  0.0824  0.6489
   43MOL0     C 5582  -1.018   9.631  11.039 -0.6210 -0.3612 -0.0699
   43MOL0     C 5583  -1.159   9.639  10.975  0.7882 -0.0706  0.6164
   43MOL0     C 5584  -1.231   9.507  10.996 -0.4862 -0.0825 -0.4762
   43MOL0     C 5585  -1.377   9.515  10.992  0.4554 -0.0554  1.5898
   43MOL0     C 5586  -1.445   9.548  10.856 -0.9860 -0.3177  0.3341
   43MOL0     C 5587  -1.599   9.553  10.870 -0.0795 -0.4980 -0.4034
   43MOL0    Cl 5588  -1.660   9.398  10.925 -0.3055  0.2076 -0.0753
   43MOL0     C 5589  -0.540   9.848  11.167 -0.7359 -0.8351  0.6144
   43MOL0     C 5590  -0.429   9.912  11.234  0.0249 -1.5478  0.7257
   43MOL0     O 5591  -0.439  10.270  11.341 -0.9237  0.3480  0.0443
   43MOL0     C 5592  -0.090  10.296  11.285 -0.3371 -0.4935 -0.2858
   43MOL0     C 5593   0.026  10.377  11.316 -0.0806  0.0157 -0.1559
   43MOL0     N 5594   0.730  10.839  11.247  0.1771 -0.3284 -0.9572
   43MOL0     N 5595   0.845  10.820  11.199 -0.3281  0.0776  0.5208
   43MOL0     C 5596   2.004  10.697  10.967 -0.0131  0.3748  0.4661
   43MOL0     C 5597   2.124  10.705  10.904 -0.1538 -0.8603 -0.2811
   43MOL0     C 5598   2.571  10.702  10.852  0.8099  0.4442  0.3006
   43MOL0     C 5599   2.658  10.800  10.902  0.3711 -0.8198  0.2864
   43MOL0     C 5600   2.789  10.803  10.847  0.4414  0.3881 -0.0162
   43MOL0     C 5601   2.830  10.715  10.744  0.6571  0.4502 -0.3320
   43MOL0     O 5602   2.961  10.717  10.695  0.1403  0.6924  0.3243
   43MOL0     C 5603   3.045  10.831  10.716 -0.1281 -0.0361 -0.6907
   43MOL0     C 5604   3.157  10.820  10.624  0.0798 -0.5547  0.0043
   43MOL0     C 5605   3.272  10.919  10.641  0.7271 -0.6481 -0.7776
   43MOL0     C 5606   3.402  10.889  10.566 -0.0527  0.3739 -0.5613
   43MOL0     C 5607   3.375  10.904  10.425 -0.0301  0.7461  1.5038
   43MOL0     C 5608   3.350  10.918  10.301 -0.4303  0.3291  0.4283
   43MOL0     C 5609   2.730  10.642  10.679  0.3335 -0.1531 -0.3828
   43MOL0     C 5610   2.603  10.631  10.733  0.3551  0.1402 -0.0547
   43MOL0     H 5611   2.248  10.408  10.999 -1.5543 -1.2218  0.4438
   43MOL0     H 5612   2.020  10.406  11.129  0.6939  1.3534  2.2161
   43MOL0     H 5613   1.733  10.692  10.950 -1.1029 -0.9985 -1.3868
   43MOL0     H 5614   1.754  10.727  11.126  0.0485 -2.9578  1.5092
   43MOL0     H 5615   1.604  10.549  11.180 -0.5787 -1.5713 -1.0636
   43MOL0     H 5616   1.569  10.522  11.012 -1.2580 -0.1159  1.6039
   43MOL0     H 5617   1.493  10.771  10.989 -1.7678  3.4650  1.5472
   43MOL0     H 5618   1.553  10.787  11.150  0.1207 -2.3395  2.6849
   43MOL0     H 5619   1.377  10.612  11.212  1.8798  1.4690  0.2902
   43MOL0     H 5620   1.340  10.781  11.177  2.9925  1.3600 -0.2805
   43MOL0     H 5621   1.315  10.607  10.925 -2.4212 -0.6668  0.4025
   43MOL0     H 5622   1.214  10.732  10.991  1.9359  0.9960  1.1421
   43MOL0     H 5623   1.222  10.469  11.151  0.9248  2.2369  0.4372
   43MOL0     H 5624   1.174  10.452  10.981  2.0289 -1.5479  0.8016
   43MOL0     H 5625   0.995  10.631  11.015 -1.2316  1.9882  1.7191
   43MOL0     H 5626   0.970  10.484  11.105 -0.5845  1.6616 -0.3854
   43MOL0     H 5627   1.099  10.728  11.219 -0.4202 -0.6227 -1.8282
   43MOL0     H 5628   1.047  10.581  11.316 -0.2052 -0.5677 -1.1775
   43MOL0     H 5629   0.807  10.577  11.409  0.0173 -2.2340 -2.3603
   43MOL0     H 5630   0.523  10.835  11.442 -2.6130 -0.5442 -0.4817
   43MOL0     H 5631   0.594  10.701  11.533 -3.9441  2.4936  1.5374
   43MOL0     H 5632   0.520  10.524  11.377 -3.1430 -1.0179  4.8199
   43MOL0     H 5633   0.451  10.647  11.274  1.8317 -0.9295 -1.4539
   43MOL0     H 5634   0.379  10.603  11.561  1.1259  1.7367  0.2698
   43MOL0     H 5635   0.309  10.727  11.452  0.9368  0.5464  1.4829
   43MOL0     H 5636   0.306  10.428  11.391  0.3691  0.6477 -0.6123
   43MOL0     H 5637   0.236  10.561  11.293  1.2756 -0.4655  0.0414
   43MOL0     H 5638  -0.104  10.559  11.574  0.2721 -2.4312  1.9147
   43MOL0     H 5639  -0.309  10.457  11.497 -1.7526 -0.6081 -1.8999
   43MOL0     H 5640  -0.458  10.204  11.059 -0.9127 -0.1914 -1.1981
   43MOL0     H 5641  -0.651  10.089  10.969 -1.6747 -0.5511  0.5350
   43MOL0     H 5642  -0.791   9.754  11.173 -2.3374 -2.4140 -0.1163
   43MOL0     H 5643  -0.740   9.669  11.032 -2.6716 -0.8119 -0.0557
   43MOL0     H 5644  -0.949   9.777  10.906  1.9456 -1.8657  0.2252
   43MOL0     H 5645  -0.999   9.846  11.058  0.0882  0.8698  0.0476
   43MOL0     H 5646  -1.034   9.618  11.147 -2.2359  0.1523 -0.2204
   43MOL0     H 5647  -0.958   9.548  11.002  0.0727  0.5375 -1.0100
   43MOL0     H 5648  -1.210   9.722  11.026 -1.2845 -0.5574 -0.5362
   43MOL0     H 5649  -1.171   9.666  10.870 -0.3699 -0.1167  0.7225
   43MOL0     H 5650  -1.205   9.462  11.092 -2.8570  0.4788  0.5177
   43MOL0     H 5651  -1.196   9.436  10.921  0.9294  3.0320 -2.9923
   43MOL0     H 5652  -1.405   9.599  11.057  1.5237  1.4604  0.1815
   43MOL0     H 5653  -1.418   9.421  11.029  0.4002 -1.0526 -0.8403
   43MOL0     H 5654  -1.413   9.642  10.812  1.9877 -1.1831  0.4653
   43MOL0     H 5655  -1.422   9.461  10.794 -1.8093 -0.7560  0.6222
   43MOL0     H 5656  -1.644   9.573  10.773 -0.9704 -2.4699 -0.4455
   43MOL0     H 5657  -1.631   9.626  10.944  0.3607 -2.2435  1.6382
   43MOL0     H 5658  -0.563   9.744  11.192  1.1246 -1.3354  0.3581
   43MOL0     H 5659  -0.371   9.864  11.313 -1.9130 -2.3830  1.7252
   43MOL0     H 5660  -0.091  10.222  11.206 -1.8543  0.2153 -0.9750
   43MOL0     H 5661   0.114  10.350  11.258 -0.7696 -2.8520 -0.0215
   43MOL0     H 5662   1.939  10.782  10.949  1.1798  0.8075 -2.3579
   43MOL0     H 5663   2.163  10.790  10.849 -2.3328  1.6438  1.7640
   43MOL0     H 5664   2.631  10.850  10.994 -0.4928 -1.3127  0.3156
   43MOL0     H 5665   2.855  10.881  10.884 -1.1009  1.5017  0.5157
   43MOL0     H 5666   3.080  10.818  10.819  1.4654 -2.5604 -1.4539
   43MOL0     H 5667   2.991  10.925  10.699 -0.5700 -0.2341 -0.4095
   43MOL0     H 5668   3.192  10.717  10.637 -2.4113 -1.1290  3.5062
   43MOL0     H 5669   3.115  10.840  10.525  0.7035  0.8464 -0.0120
   43MOL0     H 5670   3.300  10.924  10.747 -1.3180  2.5424 -0.2317
   43MOL0     H 5671   3.232  11.016  10.610  0.1759 -1.1326 -1.5868
   43MOL0     H 5672   3.486  10.950  10.601  1.1908 -2.7493  2.4462
   43MOL0     H 5673   3.434  10.786  10.584  0.3804  0.6872  0.5621
   43MOL0     H 5674   3.335  10.928  10.195  0.8224  0.1915  0.2201
   43MOL0     H 5675   2.764  10.576  10.600  0.5542 -1.8054  1.0342
   43MOL0     H 5676   2.529  10.573  10.680 -1.8967  1.4122  1.5335
   44MOL0     O 5677   7.152   2.300   1.510 -0.3196 -0.1120 -0.7065
   44MOL0     C 5678   7.154   2.423   1.486  0.7663  0.2204  0.9567
   44MOL0     O 5679   7.046   2.506   1.482  0.4405 -0.8986  0.6939
   44MOL0     C 5680   6.915   2.466   1.503 -0.6435  0.2282 -0.1876
   44MOL0     C 5681   6.829   2.566   1.552  1.0250  0.3194  0.6593
   44MOL0     C 5682   6.690   2.549   1.565  0.2641 -0.3421 -0.0716
   44MOL0     C 5683   6.641   2.422   1.534 -0.1367 -1.6131 -0.3365
   44MOL0     O 5684   6.514   2.376   1.559 -0.1126 -0.2960  0.0222
   44MOL0     C 5685   6.445   2.450   1.656 -0.5630  0.3200  0.4050
   44MOL0     C 5686   6.299   2.395   1.650  0.0640 -0.2860 -0.7584
   44MOL0     C 5687   6.288   2.254   1.684  0.0956  0.2292 -0.4363
   44MOL0     C 5688   6.145   2.219   1.738 -0.0340 -0.4554 -0.1553
   44MOL0     C 5689   6.139   2.077   1.790  0.1358 -0.2151 -0.1846
   44MOL0     C 5690   5.996   2.031   1.815  0.0567  0.7236  0.4760
   44MOL0     C 5691   5.920   2.111   1.920  0.2053 -0.7252 -0.5979
   44MOL0     C 5692   5.788   2.171   1.869 -0.4316 -0.8286  0.1666
   44MOL0     N 5693   5.688   2.069   1.823 -0.8501 -0.1855  0.8814
   44MOL0     C 5694   5.603   2.098   1.725 -0.3252  0.5504 -0.5417
   44MOL0     C 5695   5.512   1.995   1.731 -0.4096 -0.5703  0.2085
   44MOL0     C 5696   5.391   1.963   1.642 -0.9701 -1.0643 -0.5169
   44MOL0     C 5697   5.253   1.992   1.700  0.2031 -1.1225 -0.2342
   44MOL0     C 5698   5.152   1.972   1.597  0.1685  1.1139 -0.5802
   44MOL0     C 5699   5.008   1.989   1.654 -0.4157  0.5483  0.4155
   44MOL0     O 5700   4.904   1.951   1.562 -0.0542  0.1317 -0.5497
   44MOL0     C 5701   4.783   1.910   1.607  0.4241 -0.1631 -1.0014
   44MOL0     C 5702   4.735   1.939   1.737 -0.5406  0.2428  0.0321
   44MOL0     C 5703   4.608   1.908   1.790 -0.2195 -0.7456  0.3809
   44MOL0     C 5704   4.518   1.841   1.702 -0.0465 -0.0458 -1.5949
   44MOL0     C 5705   4.378   1.806   1.741 -0.0417 -0.1041  0.6301
   44MOL0     O 5706   4.279   1.800   1.643 -0.3279  0.2208 -0.0275
   44MOL0     C 5707   4.146   1.770   1.670  0.2328 -1.0286  0.5606
   44MOL0     C 5708   4.049   1.848   1.614  0.4969 -0.0379 -0.2407
   44MOL0     C 5709   3.912   1.841   1.643  0.4286  0.8651 -0.0829
   44MOL0     C 5710   3.865   1.732   1.725 -0.2122  1.0074  0.6851
   44MOL0     O 5711   3.736   1.712   1.761 -0.3446  0.0114 -0.5621
   44MOL0     C 5712   3.633   1.813   1.742 -0.2926  0.6567  0.6647
   44MOL0     C 5713   3.545   1.826   1.878  1.2761 -0.1813  0.7954
   44MOL0     C 5714   3.451   1.699   1.900 -0.8356 -0.3112  0.0624
   44MOL0     C 5715   3.388   1.693   2.035  0.8248  0.7259 -0.3441
   44MOL0     C 5716   3.267   1.796   2.032  0.3874  0.3570 -0.0313
   44MOL0     C 5717   3.172   1.787   2.159 -0.3157  0.5495  0.1296
   44MOL0     C 5718   3.065   1.902   2.159 -1.1191 -0.5733  0.2477
   44MOL0     C 5719   2.980   1.890   2.278 -0.2552 -0.5924  0.3571
   44MOL0    Cl 5720   3.095   1.941   2.411 -0.3640 -0.1847  0.0383
   44MOL0     C 5721   3.959   1.636   1.750 -0.6226  0.5229  0.8503
   44MOL0     C 5722   4.099   1.658   1.747 -0.0962  0.3735  1.1571
   44MOL0     O 5723   4.357   1.778   1.861 -1.0456 -0.7809  0.0627
   44MOL0     C 5724   4.558   1.819   1.574  0.2677  0.2382 -0.3359
   44MOL0     C 5725   4.686   1.851   1.527  0.0740 -0.3136 -0.1029
   44MOL0     N 5726   5.550   1.908   1.836 -0.0680  0.3230  0.0355
   44MOL0     N 5727   5.657   1.957   1.890 -0.1892 -0.0279  0.1132
   44MOL0     C 5728   6.723   2.331   1.474 -0.9414  0.5019 -0.1499
   44MOL0     C 5729   6.858   2.354   1.456 -0.9234  0.1282 -0.2175
   44MOL0     C 5730   7.294   2.475   1.468  0.8470 -0.8362  0.8760
   44MOL0     C 5731   7.403   2.393   1.460  0.1004 -0.2812  0.2300
   44MOL0     C 5732   7.533   2.445   1.456 -0.0112 -0.5578 -0.4822
   44MOL0     C 5733   7.550   2.587   1.457 -0.0822 -0.5871 -0.3644
   44MOL0     O 5734   7.680   2.631   1.450 -0.3983 -0.2786  0.5376
   44MOL0     C 5735   7.747   2.626   1.577 -0.5275 -0.4976  0.6217
   44MOL0     C 5736   7.883   2.696   1.579  1.3285 -0.2764 -0.0914
   44MOL0     C 5737   7.982   2.671   1.461  0.9555  0.1146 -0.4213
   44MOL0     C 5738   8.121   2.693   1.512 -0.2059  0.3294 -0.0808
   44MOL0     C 5739   8.200   2.703   1.391 -0.7760 -0.3331 -0.0467
   44MOL0     C 5740   8.275   2.697   1.299 -0.7259 -0.2796  0.3251
   44MOL0     C 5741   7.436   2.667   1.463 -0.4055 -0.0099 -0.2269
   44MOL0     C 5742   7.310   2.614   1.465 -0.1255 -0.2785 -0.3808
   44MOL0     H 5743   6.878   2.661   1.572 -0.3670  0.7552  2.3045
   44MOL0     H 5744   6.626   2.632   1.594 -2.9644 -1.7058 -2.6738
   44MOL0     H 5745   6.444   2.558   1.640 -0.6352  0.3025  0.2968
   44MOL0     H 5746   6.494   2.436   1.754  2.4252  0.8848 -0.8977
   44MOL0     H 5747   6.258   2.414   1.551 -1.5159  0.7630  0.0611
   44MOL0     H 5748   6.256   2.453   1.732 -0.5408  0.7233 -1.7600
   44MOL0     H 5749   6.349   2.236   1.773  0.5195 -0.7334 -0.9040
   44MOL0     H 5750   6.318   2.205   1.591 -1.6771  1.2448 -1.5973
   44MOL0     H 5751   6.127   2.290   1.819  1.9126  1.2411 -1.1049
   44MOL0     H 5752   6.072   2.231   1.656 -0.6871 -0.1513  0.4618
   44MOL0     H 5753   6.202   2.068   1.879 -0.6996  1.6388  0.6582
   44MOL0     H 5754   6.185   2.006   1.721  0.1589 -2.4002  1.9338
   44MOL0     H 5755   5.987   1.924   1.834 -0.8910  0.3634 -1.7671
   44MOL0     H 5756   5.946   2.043   1.719  1.0923 -1.2586 -0.3639
   44MOL0     H 5757   5.896   2.046   2.005 -0.4334  2.7975  2.1767
   44MOL0     H 5758   5.990   2.180   1.969  0.5378 -0.9600 -0.7348
   44MOL0     H 5759   5.800   2.249   1.793 -0.6823 -0.0228  0.9332
   44MOL0     H 5760   5.731   2.218   1.949 -1.2092  1.0381 -1.4215
   44MOL0     H 5761   5.620   2.184   1.661  0.0956  1.2552  0.4855
   44MOL0     H 5762   5.391   1.854   1.628 -1.1077 -1.1387  0.0300
   44MOL0     H 5763   5.394   2.011   1.544  1.4915 -0.2088 -0.1123
   44MOL0     H 5764   5.247   2.098   1.724 -1.1719 -1.0885 -0.6562
   44MOL0     H 5765   5.226   1.924   1.782 -1.0209  1.3856  1.5819
   44MOL0     H 5766   5.152   2.036   1.509  2.2029 -0.7340 -2.0536
   44MOL0     H 5767   5.154   1.867   1.566 -2.0322  0.0397  2.4166
   44MOL0     H 5768   4.988   2.094   1.676 -1.2856  0.0373  2.2662
   44MOL0     H 5769   4.998   1.934   1.748  0.7457  1.0694  0.8669
   44MOL0     H 5770   4.797   2.003   1.799  0.3864  0.6743 -1.2987
   44MOL0     H 5771   4.569   1.946   1.884 -1.2131 -2.9438  0.9299
   44MOL0     H 5772   4.078   1.929   1.549 -1.3153  0.6387 -0.2670
   44MOL0     H 5773   3.844   1.919   1.610  0.0249 -0.7690 -3.5389
   44MOL0     H 5774   3.569   1.774   1.662  2.1553  0.6327 -1.4268
   44MOL0     H 5775   3.672   1.914   1.725  0.2991  0.2997 -0.1660
   44MOL0     H 5776   3.487   1.918   1.873 -1.1306 -1.6581 -0.0105
   44MOL0     H 5777   3.609   1.824   1.967  1.0742  0.8183  0.9750
   44MOL0     H 5778   3.513   1.609   1.890 -0.3105  0.0059  0.4571
   44MOL0     H 5779   3.380   1.693   1.817  0.9084  1.4728 -1.6564
   44MOL0     H 5780   3.349   1.591   2.041 -0.6999  1.2550 -0.6784
   44MOL0     H 5781   3.458   1.718   2.116 -0.2406  0.9463  0.5433
   44MOL0     H 5782   3.191   1.781   1.956  0.6164 -1.0813 -0.0098
   44MOL0     H 5783   3.313   1.895   2.026  2.2870 -0.4404  0.4438
   44MOL0     H 5784   3.240   1.785   2.244  0.4886 -0.4467 -0.5180
   44MOL0     H 5785   3.140   1.682   2.163  1.1016  0.0014 -1.5985
   44MOL0     H 5786   3.121   1.996   2.155  2.2636 -2.4545 -2.2099
   44MOL0     H 5787   3.005   1.907   2.068 -0.6929 -3.8235 -0.3591
   44MOL0     H 5788   2.940   1.789   2.293  0.2218 -0.8871 -0.2648
   44MOL0     H 5789   2.900   1.964   2.268  1.5577  1.3780 -0.1941
   44MOL0     H 5790   3.934   1.539   1.791 -0.5821  0.3894  0.5625
   44MOL0     H 5791   4.172   1.588   1.788  1.1192  0.5062 -0.6331
   44MOL0     H 5792   4.493   1.776   1.498  0.4346  2.9571 -2.1839
   44MOL0     H 5793   4.705   1.816   1.426 -1.3582 -0.7232 -0.2574
   44MOL0     H 5794   6.678   2.236   1.446  3.2341 -1.2353 -1.9847
   44MOL0     H 5795   6.923   2.282   1.408  1.0851  1.4003  0.4590
   44MOL0     H 5796   7.398   2.286   1.479  0.1661 -0.2311  0.5405
   44MOL0     H 5797   7.625   2.387   1.454  0.1255 -0.3220 -1.3025
   44MOL0     H 5798   7.758   2.521   1.605 -0.6081 -1.2698 -1.9703
   44MOL0     H 5799   7.681   2.677   1.647 -0.6820  0.0789  0.0694
   44MOL0     H 5800   7.860   2.803   1.591 -1.6467 -0.6007 -1.8124
   44MOL0     H 5801   7.934   2.659   1.668  0.0799  0.5016  1.0033
   44MOL0     H 5802   7.963   2.743   1.382 -0.6799  1.7689  1.3700
   44MOL0     H 5803   7.967   2.570   1.422  1.7343  1.0502 -3.3713
   44MOL0     H 5804   8.125   2.782   1.576  1.7242 -1.0451  1.8179
   44MOL0     H 5805   8.158   2.608   1.570  1.3685  2.0081  1.4928
   44MOL0     H 5806   8.335   2.678   1.212  1.3003 -4.2826  2.2753
   44MOL0     H 5807   7.451   2.773   1.485  3.4980 -0.3410 -0.5607
   44MOL0     H 5808   7.221   2.671   1.488  0.4032 -0.0765  1.3057
   45MOL0     O 5809   1.382   9.800   7.351 -0.0065  0.1522 -0.8920
   45MOL0     C 5810   1.272   9.807   7.412 -0.1132  0.2469  0.4283
   45MOL0     O 5811   1.238   9.916   7.472 -0.0485 -0.4611 -0.1101
   45MOL0     C 5812   1.124   9.980   7.455 -0.1360  0.2972 -0.1946
   45MOL0     C 5813   1.091  10.065   7.557 -0.1141 -0.6910 -0.1092
   45MOL0     C 5814   0.970  10.145   7.555  0.0369 -0.3608 -0.2610
   45MOL0     C 5815   0.881  10.144   7.450  0.0401 -0.2799 -0.4017
   45MOL0     O 5816   0.766  10.218   7.471  0.0413  0.2138  0.3836
   45MOL0     C 5817   0.669  10.211   7.363 -0.6055 -0.7002 -0.4928
   45MOL0     C 5818   0.544  10.275   7.395 -0.7075 -0.6112 -0.2290
   45MOL0     C 5819   0.538  10.435   7.362 -0.0753  0.9527 -0.0617
   45MOL0     C 5820   0.419  10.505   7.420  0.8271  1.1272  0.6470
   45MOL0     C 5821   0.285  10.469   7.341  0.5596 -0.1729 -0.5247
   45MOL0     C 5822   0.176  10.561   7.389 -0.2030  0.3791  0.6197
   45MOL0     C 5823   0.110  10.526   7.517  0.4025 -0.4563 -1.0015
   45MOL0     C 5824   0.011  10.632   7.562  0.2067 -0.0719 -0.1197
   45MOL0     N 5825   0.084  10.751   7.612 -0.0280  0.0823  0.4596
   45MOL0     C 5826   0.191  10.750   7.702  0.0495 -0.2275 -0.6896
   45MOL0     C 5827   0.243  10.875   7.704 -0.1281 -0.1451 -0.0600
   45MOL0     C 5828   0.365  10.907   7.798 -0.5644  0.3998  0.5043
   45MOL0     C 5829   0.491  10.906   7.714  0.1265 -0.2712  0.7021
   45MOL0     C 5830   0.493  11.034   7.622 -0.4274  0.7185  0.4995
   45MOL0     C 5831   0.636  11.065   7.584  0.3971 -0.4729 -0.6330
   45MOL0     O 5832   0.713  10.949   7.547  0.1445  0.4612 -0.0849
   45MOL0     C 5833   0.837  10.965   7.499 -0.8383 -0.5548  1.0460
   45MOL0     C 5834   0.916  10.862   7.467 -0.5710 -1.0113  0.5502
   45MOL0     C 5835   1.052  10.878   7.426  0.4326 -0.4315 -0.2458
   45MOL0     C 5836   1.100  11.006   7.392 -0.2619 -0.3582  0.5100
   45MOL0     C 5837   1.240  11.026   7.339  0.3500 -1.0298  0.1957
   45MOL0     O 5838   1.316  11.134   7.386  0.6352  0.4868 -0.4083
   45MOL0     C 5839   1.449  11.150   7.367  0.1238 -0.6865 -0.8199
   45MOL0     C 5840   1.527  11.215   7.470  0.1985 -0.1952  0.0121
   45MOL0     C 5841   1.668  11.240   7.455  0.0252 -0.3590 -0.4446
   45MOL0     C 5842   1.725  11.202   7.337  0.0451  0.0653 -0.1737
   45MOL0     O 5843   1.858  11.231   7.320  0.4438  0.2361  0.4597
   45MOL0     C 5844   1.895  11.268   7.185 -0.2582  0.3509 -1.5333
   45MOL0     C 5845   2.010  11.364   7.184 -0.3526 -0.2447  0.4076
   45MOL0     C 5846   2.082  11.366   7.047 -1.1421 -0.0800  0.6258
   45MOL0     C 5847   2.217  11.444   7.079 -0.7083 -0.2991 -0.6061
   45MOL0     C 5848   2.324  11.452   6.982 -0.7411  0.7057  1.1821
   45MOL0     C 5849   2.398  11.319   6.985 -0.5957  0.0763  0.2023
   45MOL0     C 5850   2.515  11.335   6.880  0.2335  0.5358 -0.2545
   45MOL0     C 5851   2.580  11.206   6.848  0.5719  0.0553  0.1069
   45MOL0    Cl 5852   2.479  11.103   6.740 -0.3711  0.2537  0.4849
   45MOL0     C 5853   1.647  11.142   7.241  0.3873 -0.0171  0.2265
   45MOL0     C 5854   1.513  11.111   7.251  0.2319 -0.0510  0.1522
   45MOL0     O 5855   1.273  10.932   7.272 -1.0255  0.0661 -0.1502
   45MOL0     C 5856   1.022  11.115   7.429  0.2185 -0.9193 -0.0649
   45MOL0     C 5857   0.897  11.094   7.485  0.6677  0.6215  0.0828
   45MOL0     N 5858   0.153  10.952   7.635 -0.1698  0.1086 -0.2470
   45MOL0     N 5859   0.062  10.881   7.576  0.0584 -0.1443 -0.6320
   45MOL0     C 5860   0.925  10.076   7.342 -0.3514 -0.6817 -0.7138
   45MOL0     C 5861   1.040   9.997   7.344 -0.3922 -0.1397 -0.1095
   45MOL0     C 5862   1.177   9.700   7.386 -0.0957  0.6012 -0.2368
   45MOL0     C 5863   1.082   9.679   7.485 -0.4381 -0.1098 -0.1660
   45MOL0     C 5864   1.003   9.562   7.478  0.2131  0.3216  0.2001
   45MOL0     C 5865   1.007   9.482   7.368  0.8092 -1.0992 -0.0804
   45MOL0     O 5866   0.918   9.380   7.344 -0.7471  0.0463 -0.3057
   45MOL0     C 5867   0.787   9.391   7.410 -0.5015  0.2241  0.1914
   45MOL0     C 5868   0.716   9.255   7.412 -0.6933 -0.1865  0.8032
   45MOL0     C 5869   0.628   9.237   7.532 -0.0712  0.1793 -0.6720
   45MOL0     C 5870   0.552   9.102   7.534 -0.5520  0.0370 -0.4740
   45MOL0     C 5871   0.625   8.995   7.604 -0.8406  0.9905  0.5036
   45MOL0     C 5872   0.690   8.907   7.657 -0.2301  0.1244  0.3365
   45MOL0     C 5873   1.100   9.508   7.267  0.3124  0.5723  0.4793
   45MOL0     C 5874   1.186   9.619   7.271  0.4472  0.4608 -0.4861
   45MOL0     H 5875   1.151  10.065   7.648  1.0272  1.1841 -0.8138
   45MOL0     H 5876   0.941  10.206   7.640  0.2634 -3.8184  2.5890
   45MOL0     H 5877   0.646  10.106   7.341 -3.2823 -0.5591  1.0884
   45MOL0     H 5878   0.713  10.262   7.278  1.8971  0.3287  1.3017
   45MOL0     H 5879   0.527  10.260   7.502  1.8632 -0.4210  0.2668
   45MOL0     H 5880   0.463  10.219   7.346  0.7514 -3.1731  0.1111
   45MOL0     H 5881   0.529  10.444   7.253 -1.6828 -1.0876 -0.1748
   45MOL0     H 5882   0.630  10.485   7.392 -0.4083  0.5878  1.6361
   45MOL0     H 5883   0.418  10.478   7.526 -0.3744  1.2997  0.7020
   45MOL0     H 5884   0.438  10.613   7.419  3.6032  0.7124  0.6397
   45MOL0     H 5885   0.253  10.367   7.364  1.1797  0.2019  2.3367
   45MOL0     H 5886   0.282  10.471   7.231 -0.7357  0.5938 -0.4938
   45MOL0     H 5887   0.096  10.561   7.314 -1.1109  1.8938  1.5240
   45MOL0     H 5888   0.214  10.664   7.384 -0.0577  0.2693 -1.5821
   45MOL0     H 5889   0.064  10.428   7.500 -0.6420 -0.6091  2.0818
   45MOL0     H 5890   0.183  10.505   7.596 -2.1791 -0.0682  1.6939
   45MOL0     H 5891  -0.047  10.596   7.648  2.4857 -3.9696  0.0251
   45MOL0     H 5892  -0.060  10.652   7.482 -1.4531 -3.0484  0.4284
   45MOL0     H 5893   0.226  10.670   7.767  1.2319  0.2892 -0.6773
   45MOL0     H 5894   0.369  10.839   7.883  1.0262 -2.1082 -1.4563
   45MOL0     H 5895   0.358  11.006   7.846  2.6801  0.5905  0.8325
   45MOL0     H 5896   0.506  10.808   7.667  0.2871 -0.2606  0.7299
   45MOL0     H 5897   0.573  10.923   7.785 -0.8353 -0.0506  1.8027
   45MOL0     H 5898   0.434  11.005   7.534  0.4454  0.7188 -0.1014
   45MOL0     H 5899   0.442  11.120   7.665  0.4329  0.9867  1.0048
   45MOL0     H 5900   0.684  11.101   7.675 -2.0754 -0.2070  0.6376
   45MOL0     H 5901   0.631  11.132   7.497  2.0950 -4.3698 -4.0734
   45MOL0     H 5902   0.880  10.761   7.478 -1.9701 -0.7592 -1.1715
   45MOL0     H 5903   1.117  10.793   7.411 -1.0187 -1.8932  1.2823
   45MOL0     H 5904   1.475  11.229   7.564  1.0818 -1.7354  0.7595
   45MOL0     H 5905   1.723  11.281   7.539 -0.3545 -2.2759  0.8334
   45MOL0     H 5906   1.811  11.311   7.130 -1.1705 -0.5171 -0.8659
   45MOL0     H 5907   1.930  11.179   7.132 -0.4957 -0.8373  0.1961
   45MOL0     H 5908   2.081  11.336   7.262 -0.4223 -1.3697  0.0813
   45MOL0     H 5909   1.966  11.459   7.217 -2.1395 -0.5128 -1.1107
   45MOL0     H 5910   2.020  11.421   6.976 -0.7774  1.3937  1.4067
   45MOL0     H 5911   2.104  11.272   6.997 -0.5839  1.2725 -1.8604
   45MOL0     H 5912   2.195  11.547   7.111  1.5221  0.1399 -0.3324
   45MOL0     H 5913   2.264  11.397   7.165 -1.7747 -0.5264 -0.1380
   45MOL0     H 5914   2.390  11.533   7.012 -0.4365  0.3507  1.4685
   45MOL0     H 5915   2.276  11.454   6.883 -0.1198 -1.0584  0.8114
   45MOL0     H 5916   2.341  11.227   6.969  0.0005 -0.1041 -0.9387
   45MOL0     H 5917   2.453  11.309   7.080 -0.7473 -1.3050  0.1638
   45MOL0     H 5918   2.472  11.386   6.793  0.1547 -0.0098 -0.5356
   45MOL0     H 5919   2.593  11.397   6.925  1.3541 -2.5609  2.4310
   45MOL0     H 5920   2.597  11.160   6.946  1.3720 -0.9347 -0.4706
   45MOL0     H 5921   2.678  11.222   6.802  2.1192 -1.6400  2.5510
   45MOL0     H 5922   1.693  11.116   7.147 -1.0121 -0.3556 -0.3885
   45MOL0     H 5923   1.457  11.070   7.168  0.0479  0.1192  0.1942
   45MOL0     H 5924   1.054  11.217   7.410  0.0985 -0.6979  0.8694
   45MOL0     H 5925   0.850  11.180   7.530  2.6009  1.5407  0.4758
   45MOL0     H 5926   0.873  10.061   7.248  1.3056 -2.8507 -1.3509
   45MOL0     H 5927   1.071   9.938   7.258  0.3520  1.9024 -1.3021
   45MOL0     H 5928   1.079   9.736   7.577 -2.5199  1.2669 -1.0269
   45MOL0     H 5929   0.937   9.552   7.564 -0.7650 -1.9055 -0.7341
   45MOL0     H 5930   0.725   9.462   7.355 -0.7027 -0.1015 -0.0094
   45MOL0     H 5931   0.788   9.418   7.516  0.0760 -0.8188  0.4742
   45MOL0     H 5932   0.659   9.240   7.320  2.5712 -2.8855 -0.9955
   45MOL0     H 5933   0.789   9.174   7.404 -0.1558  0.4115 -0.5886
   45MOL0     H 5934   0.551   9.315   7.525 -0.3916 -0.1089 -0.4026
   45MOL0     H 5935   0.674   9.248   7.631 -1.6938  1.0009  0.0309
   45MOL0     H 5936   0.467   9.122   7.600 -0.7589 -0.6039 -0.5414
   45MOL0     H 5937   0.510   9.071   7.438 -1.8902  1.4752 -0.3942
   45MOL0     H 5938   0.750   8.838   7.713  0.2727  0.1246 -0.1906
   45MOL0     H 5939   1.098   9.446   7.178  2.1409  1.4470 -0.2214
   45MOL0     H 5940   1.250   9.642   7.187  1.0461 -0.3787 -0.2765
   46MOL0     O 5941   4.316   8.149   7.594  0.4742 -0.3560  0.6408
   46MOL0     C 5942   4.388   8.212   7.677  0.0812  0.3507  1.2582
   46MOL0     O 5943   4.338   8.314   7.754  0.1148  1.5500 -0.4110
   46MOL0     C 5944   4.212   8.372   7.725 -0.0863  0.0095 -0.6231
   46MOL0     C 5945   4.199   8.510   7.691  0.2582  1.3983 -1.1487
   46MOL0     C 5946   4.070   8.551   7.655 -0.2709 -0.3465  0.4629
   46MOL0     C 5947   3.955   8.472   7.640  0.1947  0.7466  1.0312
   46MOL0     O 5948   3.825   8.507   7.609  0.4507  0.0834  0.0821
   46MOL0     C 5949   3.790   8.641   7.575  0.6521 -0.6757  0.7917
   46MOL0     C 5950   3.668   8.654   7.490 -0.0350 -0.2128  0.3615
   46MOL0     C 5951   3.546   8.627   7.570  0.6281  0.1596 -0.0079
   46MOL0     C 5952   3.414   8.678   7.507 -0.2750 -0.0469 -0.2255
   46MOL0     C 5953   3.308   8.673   7.605  0.2100  0.2336  0.0676
   46MOL0     C 5954   3.173   8.701   7.525 -0.1401 -0.0825 -0.0657
   46MOL0     C 5955   3.072   8.738   7.633 -1.1750 -0.9025 -0.1604
   46MOL0     C 5956   2.928   8.764   7.589  0.1375 -0.4235  0.3815
   46MOL0     N 5957   2.838   8.782   7.707 -0.0281  0.0566  0.5349
   46MOL0     C 5958   2.728   8.858   7.715 -0.0295 -0.3309 -0.8846
   46MOL0     C 5959   2.686   8.841   7.842  0.2385  0.6643  0.0855
   46MOL0     C 5960   2.560   8.906   7.899  0.2904 -0.4755 -0.6087
   46MOL0     C 5961   2.433   8.876   7.819 -0.1069  0.6682  0.1775
   46MOL0     C 5962   2.386   8.735   7.850 -0.0749  0.0172  0.6226
   46MOL0     C 5963   2.301   8.728   7.979 -1.0008 -0.4043 -1.1169
   46MOL0     O 5964   2.180   8.810   7.959 -0.0770  0.1465 -0.0997
   46MOL0     C 5965   2.079   8.804   8.052 -1.7112 -0.3382 -0.1200
   46MOL0     C 5966   2.076   8.725   8.165 -0.3161 -0.0946  0.1139
   46MOL0     C 5967   1.955   8.708   8.242 -0.3392 -0.2460  0.0326
   46MOL0     C 5968   1.841   8.784   8.213  0.2938  0.2028  0.3049
   46MOL0     C 5969   1.717   8.781   8.294  0.1622 -0.4920 -0.0200
   46MOL0     O 5970   1.609   8.853   8.255 -1.2695 -0.4523 -0.6816
   46MOL0     C 5971   1.484   8.847   8.320  0.3606 -0.1679 -0.2985
   46MOL0     C 5972   1.417   8.960   8.383 -0.5976  0.5764  0.4858
   46MOL0     C 5973   1.294   8.935   8.441 -0.4415 -0.1564  0.4788
   46MOL0     C 5974   1.222   8.819   8.415  0.2549  0.1817 -0.3020
   46MOL0     O 5975   1.088   8.813   8.447  0.6706 -0.0928 -0.4113
   46MOL0     C 5976   1.032   8.689   8.490 -0.1695 -0.1007 -0.0533
   46MOL0     C 5977   0.902   8.715   8.561 -0.0756  0.2353 -0.2324
   46MOL0     C 5978   0.820   8.592   8.574 -0.5791  0.3097  0.0353
   46MOL0     C 5979   0.728   8.620   8.694  0.0911  0.0243  0.0416
   46MOL0     C 5980   0.652   8.489   8.724  0.2262  0.4617  0.8696
   46MOL0     C 5981   0.590   8.487   8.865  0.5125  0.2419 -0.4423
   46MOL0     C 5982   0.532   8.352   8.902  0.0465  0.2663 -0.3581
   46MOL0     C 5983   0.459   8.360   9.039 -0.0347 -0.4153 -0.0935
   46MOL0    Cl 5984   0.535   8.431   9.176 -0.2274  0.2428 -0.0180
   46MOL0     C 5985   1.292   8.714   8.362  1.1152 -0.2952  0.4352
   46MOL0     C 5986   1.417   8.732   8.309  0.0818 -0.0696  0.3437
   46MOL0     O 5987   1.718   8.702   8.389  0.3973 -0.4682  0.6432
   46MOL0     C 5988   1.848   8.872   8.101  0.1816  0.3499  0.2796
   46MOL0     C 5989   1.972   8.882   8.029  0.2823  0.1483 -0.3183
   46MOL0     N 5990   2.776   8.774   7.915  0.1122  0.0106 -0.1686
   46MOL0     N 5991   2.856   8.721   7.832  0.1319 -0.7187  0.4653
   46MOL0     C 5992   3.975   8.341   7.681  0.4588 -0.1616  0.7930
   46MOL0     C 5993   4.095   8.294   7.733 -0.3054  0.4149  0.3125
   46MOL0     C 5994   4.517   8.153   7.703 -0.3108  0.4934 -0.5369
   46MOL0     C 5995   4.549   8.022   7.664 -0.5109 -0.1626 -0.4758
   46MOL0     C 5996   4.654   7.951   7.718  0.0350  0.1898 -1.0655
   46MOL0     C 5997   4.736   8.009   7.823 -0.1367  0.2704 -0.4260
   46MOL0     O 5998   4.851   7.953   7.869  0.9180  0.9545  0.8935
   46MOL0     C 5999   4.905   7.845   7.787  0.7863 -0.5406  0.4127
   46MOL0     C 6000   5.035   7.806   7.847  0.3429  0.8676  0.1610
   46MOL0     C 6001   5.138   7.909   7.896  0.4997 -0.0477 -0.2907
   46MOL0     C 6002   5.259   7.836   7.956 -0.8055 -0.0702 -0.0106
   46MOL0     C 6003   5.375   7.928   7.970 -0.3045 -0.1943  0.1409
   46MOL0     C 6004   5.465   8.004   7.988  0.2903  0.3325  0.6258
   46MOL0     C 6005   4.703   8.142   7.869 -0.9505  0.6190  0.3273
   46MOL0     C 6006   4.588   8.210   7.818 -0.5281 -0.0741  0.2007
   46MOL0     H 6007   4.288   8.572   7.683  1.3882  0.1877  0.9411
   46MOL0     H 6008   4.063   8.659   7.641 -1.1601 -0.5087 -0.4237
   46MOL0     H 6009   3.871   8.696   7.525 -2.6030  3.6128 -0.3839
   46MOL0     H 6010   3.774   8.696   7.668  0.3187  1.4830 -0.4753
   46MOL0     H 6011   3.670   8.579   7.411 -2.2468 -1.6320  1.5250
   46MOL0     H 6012   3.663   8.751   7.440 -0.6601 -1.5010 -2.2714
   46MOL0     H 6013   3.556   8.687   7.660  0.0179  0.5598 -0.1976
   46MOL0     H 6014   3.537   8.523   7.603 -1.7374 -0.9427 -3.5380
   46MOL0     H 6015   3.418   8.782   7.471  0.2382  0.1871  0.4898
   46MOL0     H 6016   3.401   8.606   7.426  0.8044  1.1501 -1.5124
   46MOL0     H 6017   3.330   8.747   7.683  1.0473  2.4032 -2.1071
   46MOL0     H 6018   3.303   8.572   7.646  1.4150  1.0513  2.4241
   46MOL0     H 6019   3.150   8.612   7.467  4.2443 -0.7380 -1.1933
   46MOL0     H 6020   3.186   8.779   7.449 -0.2109 -1.6318 -1.7333
   46MOL0     H 6021   3.075   8.648   7.696  0.5584 -0.9718 -0.2788
   46MOL0     H 6022   3.116   8.819   7.691  3.9031 -2.5159 -1.2723
   46MOL0     H 6023   2.908   8.672   7.533  2.1819 -0.3986 -0.4965
   46MOL0     H 6024   2.923   8.851   7.523  1.0665  1.0899  2.2188
   46MOL0     H 6025   2.690   8.913   7.630  1.0711  1.7825 -0.1008
   46MOL0     H 6026   2.588   9.011   7.890  1.8907 -0.8403 -0.3018
   46MOL0     H 6027   2.553   8.884   8.006  0.7589  0.2304 -0.4262
   46MOL0     H 6028   2.451   8.895   7.713  0.8586 -0.9602  0.0101
   46MOL0     H 6029   2.358   8.951   7.847  1.2020  1.5998  1.2950
   46MOL0     H 6030   2.325   8.707   7.764  1.2724 -3.2545  0.5896
   46MOL0     H 6031   2.479   8.677   7.855  0.3784  0.2096 -3.1208
   46MOL0     H 6032   2.365   8.761   8.062  1.1494  2.3935 -3.6712
   46MOL0     H 6033   2.275   8.623   7.994  2.6520 -1.2803  0.0219
   46MOL0     H 6034   2.165   8.675   8.200 -0.6190  0.8279  2.4056
   46MOL0     H 6035   1.956   8.643   8.329 -1.1559 -0.0755  0.1732
   46MOL0     H 6036   1.464   9.057   8.394  1.3521  0.0186 -1.9596
   46MOL0     H 6037   1.232   9.012   8.485 -3.6029  0.0209 -3.7164
   46MOL0     H 6038   1.095   8.638   8.564  1.6280  1.3826 -0.5045
   46MOL0     H 6039   1.013   8.630   8.400  0.7252 -2.1709  1.0294
   46MOL0     H 6040   0.838   8.785   8.506  1.0877  0.2812 -1.5795
   46MOL0     H 6041   0.920   8.772   8.653 -1.8276 -0.4177  0.5728
   46MOL0     H 6042   0.883   8.503   8.588  2.0092  1.5075 -2.8122
   46MOL0     H 6043   0.770   8.570   8.479  0.3706 -0.6675 -0.2647
   46MOL0     H 6044   0.776   8.658   8.785  0.5832  0.0829 -0.2340
   46MOL0     H 6045   0.657   8.695   8.658  1.7182  1.5407 -0.1711
   46MOL0     H 6046   0.710   8.400   8.698 -0.1606  0.4960 -0.1567
   46MOL0     H 6047   0.561   8.476   8.665 -0.6447  2.4999  1.6513
   46MOL0     H 6048   0.506   8.556   8.878 -0.9878 -1.4838 -0.6184
   46MOL0     H 6049   0.663   8.516   8.942 -0.6805  4.1829 -0.5386
   46MOL0     H 6050   0.454   8.338   8.826 -0.6415  1.9594 -0.0364
   46MOL0     H 6051   0.602   8.268   8.900 -0.3486 -0.1528  1.6308
   46MOL0     H 6052   0.424   8.257   9.057 -1.7907  0.4833  2.0723
   46MOL0     H 6053   0.365   8.414   9.024  0.5845  0.6161 -0.2875
   46MOL0     H 6054   1.247   8.615   8.355  3.7314 -1.4787 -0.7935
   46MOL0     H 6055   1.477   8.648   8.275 -2.6149 -1.5506 -1.1314
   46MOL0     H 6056   1.758   8.928   8.080 -1.2075 -2.1051 -0.7489
   46MOL0     H 6057   1.989   8.948   7.944 -2.5104 -0.8905 -1.7901
   46MOL0     H 6058   3.893   8.273   7.663 -0.8060  1.2282  1.1413
   46MOL0     H 6059   4.100   8.191   7.766 -0.3366  1.1097  2.6160
   46MOL0     H 6060   4.480   7.971   7.598  0.2932  1.0560 -2.3327
   46MOL0     H 6061   4.669   7.852   7.676 -0.3995 -0.6187  0.5916
   46MOL0     H 6062   4.919   7.876   7.683 -2.8571 -0.0247 -0.0709
   46MOL0     H 6063   4.836   7.760   7.793 -1.0642  0.8212 -0.5683
   46MOL0     H 6064   5.013   7.744   7.934 -0.5646  1.7496  0.5851
   46MOL0     H 6065   5.079   7.738   7.773 -1.6929 -0.9413  0.5064
   46MOL0     H 6066   5.086   7.972   7.969  0.2650 -1.2548  0.6071
   46MOL0     H 6067   5.169   7.980   7.820 -0.1468 -0.6960 -1.1846
   46MOL0     H 6068   5.241   7.784   8.050 -1.3767 -0.8466 -0.5416
   46MOL0     H 6069   5.297   7.758   7.890  1.3709  1.5874 -0.8563
   46MOL0     H 6070   5.546   8.073   8.001 -0.5406  1.0124  2.5567
   46MOL0     H 6071   4.781   8.178   7.934  0.6026 -1.5879 -0.2124
   46MOL0     H 6072   4.566   8.306   7.863 -1.5003 -0.2990  0.2116
   47MOL0     O 6073   7.366   0.077   6.806 -0.4450  0.3182  0.2909
   47MOL0     C 6074   7.399  -0.043   6.823  0.4004  0.2071  0.3808
   47MOL0     O 6075   7.313  -0.141   6.817  0.7833 -0.0166  0.6768
   47MOL0     C 6076   7.176  -0.102   6.827 -0.1240 -0.3045  0.2741
   47MOL0     C 6077   7.095  -0.132   6.715 -0.4983  0.1486  0.0236
   47MOL0     C 6078   6.956  -0.121   6.720  0.6555 -0.5479 -0.3661
   47MOL0     C 6079   6.894  -0.079   6.839  0.4557  0.1167  0.5051
   47MOL0     O 6080   6.763  -0.052   6.858  0.6089 -0.2394 -0.3243
   47MOL0     C 6081   6.656  -0.083   6.765  0.1106  0.2363 -0.5011
   47MOL0     C 6082   6.630  -0.236   6.785 -0.5528 -0.4355 -0.0766
   47MOL0     C 6083   6.504  -0.284   6.706  0.1407 -0.2283  1.2954
   47MOL0     C 6084   6.378  -0.209   6.755  0.2040  0.6140 -0.4191
   47MOL0     C 6085   6.242  -0.273   6.709  0.4728  0.4557  1.1854
   47MOL0     C 6086   6.133  -0.216   6.802 -0.2112  0.0540  0.7099
   47MOL0     C 6087   5.987  -0.277   6.775  0.0939  0.2228 -0.0261
   47MOL0     C 6088   5.981  -0.421   6.807  0.1237  0.4453 -0.9408
   47MOL0     N 6089   6.033  -0.458   6.941 -1.1830 -0.8723  0.0112
   47MOL0     C 6090   6.170  -0.493   6.972 -0.3118  0.5026  0.2530
   47MOL0     C 6091   6.167  -0.502   7.107  0.2965 -0.3033  0.4381
   47MOL0     C 6092   6.292  -0.528   7.193  0.3366  0.0955  0.4003
   47MOL0     C 6093   6.361  -0.400   7.238  0.3668  0.1963  0.7013
   47MOL0     C 6094   6.428  -0.319   7.124 -0.7189 -0.1577 -0.5358
   47MOL0     C 6095   6.557  -0.244   7.180 -0.4510 -0.0765 -0.6117
   47MOL0     O 6096   6.517  -0.157   7.289 -0.1177 -0.1864  0.2961
   47MOL0     C 6097   6.623  -0.139   7.375 -0.1375  0.1240 -0.7133
   47MOL0     C 6098   6.754  -0.108   7.327  0.3947 -0.2994 -0.8252
   47MOL0     C 6099   6.854  -0.077   7.420 -0.4216 -0.1440  0.0783
   47MOL0     C 6100   6.838  -0.089   7.559 -0.2391  0.5948 -0.5514
   47MOL0     C 6101   6.949  -0.076   7.659  0.7965 -0.5518  0.2725
   47MOL0     O 6102   7.075  -0.061   7.611  1.0274 -0.2500 -0.1765
   47MOL0     C 6103   7.187  -0.073   7.691  0.6314  0.1490  0.1016
   47MOL0     C 6104   7.306  -0.065   7.625  0.0345  0.0036 -0.5460
   47MOL0     C 6105   7.428  -0.065   7.693  0.0148  0.0920  0.8587
   47MOL0     C 6106   7.439  -0.081   7.828  0.1055  0.0303  0.5431
   47MOL0     O 6107   7.567  -0.071   7.880  0.6816  0.4671 -0.1008
   47MOL0     C 6108   7.568  -0.066   8.026 -0.0886  0.0111 -0.1509
   47MOL0     C 6109   7.710  -0.030   8.071 -0.3204 -0.1522  0.0339
   47MOL0     C 6110   7.823  -0.139   8.061 -0.4371 -0.2733 -0.1374
   47MOL0     C 6111   7.964  -0.069   8.069  0.6181 -0.4359  0.0354
   47MOL0     C 6112   8.072  -0.174   8.050 -0.2261 -0.3967 -1.1755
   47MOL0     C 6113   8.203  -0.096   8.063  0.1475  0.0852 -0.1798
   47MOL0     C 6114   8.330  -0.160   8.011 -0.0200 -0.0348 -0.2194
   47MOL0     C 6115   8.442  -0.074   8.059 -1.0008 -0.0602 -0.3684
   47MOL0    Cl 6116   8.468  -0.097   8.231  0.3392 -0.4459 -0.2662
   47MOL0     C 6117   7.324  -0.087   7.901 -0.3883  0.3748 -0.0404
   47MOL0     C 6118   7.192  -0.081   7.837 -0.2244 -0.5065 -0.1230
   47MOL0     O 6119   6.918  -0.081   7.772  0.2366  0.0729 -0.1580
   47MOL0     C 6120   6.712  -0.125   7.611  0.7282 -0.0077 -0.4806
   47MOL0     C 6121   6.606  -0.151   7.517  0.4980 -0.0557  0.1080
   47MOL0     N 6122   6.041  -0.487   7.156  0.6844 -0.1267  0.3850
   47MOL0     N 6123   5.962  -0.459   7.058 -0.1393  0.1948 -0.0700
   47MOL0     C 6124   6.973  -0.048   6.948 -0.2417  0.0667 -0.1180
   47MOL0     C 6125   7.116  -0.055   6.947  0.1704 -0.4575  0.7029
   47MOL0     C 6126   7.546  -0.079   6.816 -0.4952 -0.9491  0.0122
   47MOL0     C 6127   7.656   0.017   6.834  0.2133 -1.0966  0.0690
   47MOL0     C 6128   7.788  -0.024   6.835 -0.4911  0.0560  0.3258
   47MOL0     C 6129   7.811  -0.163   6.815 -0.4297  0.4018  0.2097
   47MOL0     O 6130   7.940  -0.211   6.799 -0.6266  0.7944 -0.6050
   47MOL0     C 6131   8.046  -0.126   6.800 -0.7871  0.4117  0.4007
   47MOL0     C 6132   8.176  -0.207   6.803  0.7084 -0.1664  0.4339
   47MOL0     C 6133   8.180  -0.293   6.935  0.0502 -0.9310 -0.6550
   47MOL0     C 6134   8.306  -0.379   6.934 -0.4039 -0.5735  0.3312
   47MOL0     C 6135   8.349  -0.420   7.070 -0.0163  0.0494 -0.4944
   47MOL0     C 6136   8.392  -0.460   7.179  0.2688  0.1887 -0.0687
   47MOL0     C 6137   7.710  -0.255   6.796 -0.5849 -0.0525  0.5439
   47MOL0     C 6138   7.576  -0.220   6.788 -0.0986  0.9663 -0.6367
   47MOL0     H 6139   7.131  -0.170   6.621 -0.9988  1.5086 -0.7406
   47MOL0     H 6140   6.889  -0.146   6.638 -0.9654  1.3554  0.2781
   47MOL0     H 6141   6.669  -0.037   6.667 -4.3412  0.4098 -1.2107
   47MOL0     H 6142   6.568  -0.028   6.799  0.2119 -0.8828  1.7668
   47MOL0     H 6143   6.610  -0.247   6.892 -0.0085  0.3017  0.1154
   47MOL0     H 6144   6.721  -0.287   6.752 -0.1027 -0.8294  1.6276
   47MOL0     H 6145   6.499  -0.391   6.730  2.6281 -1.0523 -1.3737
   47MOL0     H 6146   6.520  -0.277   6.598 -0.0226  1.6080  1.3629
   47MOL0     H 6147   6.374  -0.196   6.864  1.0121 -1.5324 -0.0855
   47MOL0     H 6148   6.369  -0.112   6.706 -3.2578 -0.7983 -2.9960
   47MOL0     H 6149   6.250  -0.382   6.711 -0.5498  0.2980 -0.7388
   47MOL0     H 6150   6.218  -0.252   6.604  1.9453 -3.8246 -0.2153
   47MOL0     H 6151   6.130  -0.107   6.797  1.4062  0.0988  0.1508
   47MOL0     H 6152   6.149  -0.231   6.909 -1.6983  1.1594  1.1326
   47MOL0     H 6153   5.920  -0.227   6.845  0.9096 -1.8065  2.3748
   47MOL0     H 6154   5.965  -0.269   6.668  0.6004  0.0405 -0.1457
   47MOL0     H 6155   6.053  -0.468   6.740 -0.5033 -0.3554 -1.0729
   47MOL0     H 6156   5.883  -0.469   6.794 -0.7087  2.2952 -1.9374
   47MOL0     H 6157   6.249  -0.496   6.897  0.4124  1.2354  0.9575
   47MOL0     H 6158   6.357  -0.597   7.139  1.1389  0.9992  0.1820
   47MOL0     H 6159   6.259  -0.592   7.276  1.3579 -1.0383 -0.0342
   47MOL0     H 6160   6.436  -0.435   7.310  0.2027  0.2846  0.9137
   47MOL0     H 6161   6.291  -0.334   7.289 -2.2951 -0.0828 -2.2411
   47MOL0     H 6162   6.457  -0.399   7.055  0.8610  0.7012 -0.9134
   47MOL0     H 6163   6.363  -0.248   7.074  1.3111  1.2652 -1.3015
   47MOL0     H 6164   6.617  -0.203   7.098  0.0323 -0.6460 -0.5527
   47MOL0     H 6165   6.612  -0.330   7.220 -0.4875 -0.8819 -2.2208
   47MOL0     H 6166   6.777  -0.088   7.223  3.3105  1.2255  0.0014
   47MOL0     H 6167   6.950  -0.039   7.387 -0.3249 -1.0012 -0.6631
   47MOL0     H 6168   7.296  -0.053   7.517  1.9627  2.3466 -0.5366
   47MOL0     H 6169   7.520  -0.058   7.636 -0.7808 -2.9745 -1.0933
   47MOL0     H 6170   7.543  -0.163   8.070 -1.4501  0.0840 -0.7236
   47MOL0     H 6171   7.505   0.010   8.074  0.2854 -0.7929  1.7061
   47MOL0     H 6172   7.710  -0.001   8.176  1.3150  2.1179 -0.5099
   47MOL0     H 6173   7.732   0.053   8.003 -0.7801 -0.5129 -0.5648
   47MOL0     H 6174   7.811  -0.184   7.962 -4.2238  2.3349 -1.0847
   47MOL0     H 6175   7.807  -0.218   8.135  1.2534  1.2751  2.0246
   47MOL0     H 6176   7.978   0.003   7.988  0.9906 -0.9189 -0.3343
   47MOL0     H 6177   7.965  -0.013   8.164 -2.0810  0.7092 -0.5146
   47MOL0     H 6178   8.056  -0.223   7.953 -2.2300 -2.7212  0.2283
   47MOL0     H 6179   8.068  -0.250   8.128  0.2178 -1.0235 -1.7599
   47MOL0     H 6180   8.228  -0.048   8.158  0.4635  1.9592 -1.1583
   47MOL0     H 6181   8.184  -0.010   7.997 -0.4741 -0.9952 -1.4679
   47MOL0     H 6182   8.340  -0.267   8.033 -2.5219 -1.3665 -4.3476
   47MOL0     H 6183   8.317  -0.154   7.903  0.2568  2.0737 -0.1727
   47MOL0     H 6184   8.421   0.031   8.038  0.7896  0.8610  2.0042
   47MOL0     H 6185   8.529  -0.110   8.003 -0.9366  0.1369 -0.3946
   47MOL0     H 6186   7.324  -0.112   8.006 -1.0970 -3.6243 -0.8373
   47MOL0     H 6187   7.107  -0.079   7.904  0.7951  2.2308  1.2588
   47MOL0     H 6188   6.694  -0.130   7.718 -0.4852 -0.0547 -0.6758
   47MOL0     H 6189   6.513  -0.184   7.564  0.3802 -1.1255 -0.8309
   47MOL0     H 6190   6.925  -0.005   7.035 -0.0186  1.4513 -0.6617
   47MOL0     H 6191   7.175  -0.036   7.035 -0.3416 -2.9734  1.6755
   47MOL0     H 6192   7.645   0.122   6.856 -0.6446 -0.5329 -2.6348
   47MOL0     H 6193   7.869   0.049   6.834 -0.5789  0.2277 -2.3953
   47MOL0     H 6194   8.041  -0.060   6.887 -3.5075  1.7382 -0.6458
   47MOL0     H 6195   8.044  -0.070   6.706 -0.3969 -2.5759 -1.5363
   47MOL0     H 6196   8.169  -0.270   6.714 -0.5061  1.0155 -0.3542
   47MOL0     H 6197   8.259  -0.136   6.801  0.1914  0.4291 -1.0488
   47MOL0     H 6198   8.091  -0.354   6.953 -1.9350  1.9483 -0.1917
   47MOL0     H 6199   8.185  -0.216   7.012 -0.9546 -0.8416 -0.6631
   47MOL0     H 6200   8.285  -0.468   6.873 -0.1505  1.9449 -3.8196
   47MOL0     H 6201   8.391  -0.323   6.895 -1.3817  2.3456  2.1237
   47MOL0     H 6202   8.428  -0.478   7.278  0.8790  1.2824 -0.0787
   47MOL0     H 6203   7.726  -0.361   6.780  1.2850  0.2582  0.1750
   47MOL0     H 6204   7.506  -0.301   6.768  4.0640 -3.4958  1.0795
   48MOL0     O 6205   5.733   5.370   5.838 -0.3274  0.4010 -0.9062
   48MOL0     C 6206   5.754   5.325   5.729 -0.1493  0.4036 -0.3945
   48MOL0     O 6207   5.870   5.335   5.661 -0.0232  0.0342 -0.5641
   48MOL0     C 6208   5.977   5.393   5.722  0.3086  0.6934  0.5263
   48MOL0     C 6209   6.005   5.528   5.725 -0.2193 -0.0734  0.3688
   48MOL0     C 6210   6.111   5.582   5.803 -1.0238 -0.1196  0.7063
   48MOL0     C 6211   6.204   5.493   5.868 -0.4583  0.1719  0.3201
   48MOL0     O 6212   6.325   5.528   5.936 -0.5993 -0.2839  0.2377
   48MOL0     C 6213   6.375   5.662   5.927 -0.6188  0.1833  0.0741
   48MOL0     C 6214   6.507   5.662   5.989  1.0206  0.1115  0.4041
   48MOL0     C 6215   6.587   5.788   5.981  0.2831 -0.0128 -0.0849
   48MOL0     C 6216   6.719   5.783   6.053 -0.6631  0.5991 -0.1969
   48MOL0     C 6217   6.806   5.899   6.020 -0.8782 -0.0211  0.2060
   48MOL0     C 6218   6.916   5.908   6.133 -0.7270 -0.2262  0.0864
   48MOL0     C 6219   7.021   6.013   6.091 -0.0030  0.5075  0.6529
   48MOL0     C 6220   7.115   6.036   6.210  0.2212 -0.1973  0.0303
   48MOL0     N 6221   7.203   6.142   6.166  0.5524  0.3219 -0.6482
   48MOL0     C 6222   7.325   6.135   6.094 -0.2245 -0.3369 -0.4777
   48MOL0     C 6223   7.371   6.263   6.096  0.2691 -0.1671 -0.5027
   48MOL0     C 6224   7.504   6.307   6.036 -0.2145 -0.0071 -0.2977
   48MOL0     C 6225   7.551   6.236   5.903  0.0292 -0.3648  0.1830
   48MOL0     C 6226   7.471   6.270   5.772  0.9435  0.9726  0.0896
   48MOL0     C 6227   7.315   6.259   5.774  0.0491 -0.2128 -0.3564
   48MOL0     O 6228   7.269   6.272   5.637  0.1680 -0.5958 -0.2504
   48MOL0     C 6229   7.136   6.227   5.607 -0.2807 -0.4700  0.0272
   48MOL0     C 6230   7.099   6.232   5.470  0.0989  0.2508 -1.0604
   48MOL0     C 6231   6.973   6.197   5.428 -0.0332  0.6216  0.0061
   48MOL0     C 6232   6.884   6.143   5.522 -0.0063 -0.2829 -0.1866
   48MOL0     C 6233   6.738   6.131   5.476 -0.0851  0.2646  0.4988
   48MOL0     O 6234   6.654   6.092   5.582  0.9901  0.3232  0.0606
   48MOL0     C 6235   6.547   6.011   5.543 -0.4059  0.6573  0.3065
   48MOL0     C 6236   6.418   6.049   5.496 -0.7044 -0.9652 -0.5757
   48MOL0     C 6237   6.319   5.955   5.449 -0.5943 -0.5258 -0.3731
   48MOL0     C 6238   6.350   5.819   5.450 -0.7848  0.0822  0.7414
   48MOL0     O 6239   6.273   5.716   5.407  0.0275  0.1000  0.2341
   48MOL0     C 6240   6.137   5.735   5.380 -0.3268 -0.5330 -0.2333
   48MOL0     C 6241   6.070   5.599   5.377 -0.3982  0.1833  0.7838
   48MOL0     C 6242   5.920   5.600   5.356 -0.2654 -0.2061 -0.2107
   48MOL0     C 6243   5.863   5.455   5.322  0.4336 -0.4710 -0.0643
   48MOL0     C 6244   5.711   5.450   5.296  0.3748  0.1386  0.0035
   48MOL0     C 6245   5.632   5.542   5.396  1.3062 -0.4340 -0.3022
   48MOL0     C 6246   5.475   5.519   5.375 -0.5560  0.0024 -0.5729
   48MOL0     C 6247   5.394   5.588   5.477  1.1156  0.0149 -0.3855
   48MOL0    Cl 6248   5.236   5.502   5.489 -0.0648  0.3484  0.1140
   48MOL0     C 6249   6.473   5.783   5.508  0.3964 -0.5886 -0.2313
   48MOL0     C 6250   6.568   5.878   5.555 -0.8398  0.2636 -0.4234
   48MOL0     O 6251   6.708   6.138   5.354  0.5493  0.9748  0.2767
   48MOL0     C 6252   6.921   6.132   5.658 -0.3065  0.3366 -0.5475
   48MOL0     C 6253   7.042   6.182   5.702 -0.1535 -0.0903 -0.0268
   48MOL0     N 6254   7.277   6.336   6.162  0.3305 -0.6854 -0.9465
   48MOL0     N 6255   7.174   6.270   6.207 -0.5380  0.2241  0.8740
   48MOL0     C 6256   6.174   5.354   5.862  0.2154 -1.0662  0.1007
   48MOL0     C 6257   6.064   5.310   5.787  0.5453  0.5398 -0.2654
   48MOL0     C 6258   5.640   5.243   5.675  0.2680  0.2999  0.2791
   48MOL0     C 6259   5.648   5.197   5.540  0.5174 -1.3524  0.1285
   48MOL0     C 6260   5.538   5.150   5.476  0.9122 -0.1231 -0.7331
   48MOL0     C 6261   5.420   5.121   5.539 -0.1299  0.3066  0.0242
   48MOL0     O 6262   5.303   5.069   5.488 -0.2807 -0.6306 -0.3358
   48MOL0     C 6263   5.293   5.040   5.346  0.5855 -0.4659 -0.9927
   48MOL0     C 6264   5.207   4.916   5.324  0.2259  0.1269 -0.2821
   48MOL0     C 6265   5.296   4.793   5.364 -0.0189  0.3275 -0.3546
   48MOL0     C 6266   5.225   4.662   5.328 -0.2350  0.2854  0.2543
   48MOL0     C 6267   5.304   4.541   5.354 -0.3582  0.9727 -0.1066
   48MOL0     C 6268   5.384   4.457   5.394  0.8561  0.6135 -0.4546
   48MOL0     C 6269   5.413   5.148   5.680 -0.2676  0.7057  0.3649
   48MOL0     C 6270   5.512   5.223   5.739 -0.5010 -0.2101  0.1310
   48MOL0     H 6271   5.944   5.592   5.661  1.9350 -0.1890 -1.9437
   48MOL0     H 6272   6.127   5.689   5.789 -0.9813 -0.1696  0.3678
   48MOL0     H 6273   6.321   5.749   5.966  1.0549  1.0343  0.5822
   48MOL0     H 6274   6.394   5.680   5.821  1.5768  1.4367  0.6261
   48MOL0     H 6275   6.564   5.585   5.937  0.3779 -1.0693  1.4125
   48MOL0     H 6276   6.505   5.636   6.095  0.5151  1.9952  0.8941
   48MOL0     H 6277   6.529   5.870   6.024  0.3549 -0.8237  1.6551
   48MOL0     H 6278   6.602   5.820   5.878  0.6284 -0.9468 -0.3383
   48MOL0     H 6279   6.710   5.786   6.162  2.3253  0.3201  0.1531
   48MOL0     H 6280   6.775   5.692   6.028 -0.0171  1.2191 -1.1012
   48MOL0     H 6281   6.738   5.984   6.020 -2.0096 -0.8918 -0.5482
   48MOL0     H 6282   6.845   5.889   5.918  2.9838  0.3273  1.4774
   48MOL0     H 6283   6.959   5.813   6.165 -1.0046 -0.1043  0.8392
   48MOL0     H 6284   6.866   5.943   6.224 -0.7988 -2.1004  0.8248
   48MOL0     H 6285   7.083   5.982   6.006  0.7402  3.3027  0.0746
   48MOL0     H 6286   6.967   6.105   6.068 -0.0923 -0.0597 -1.6728
   48MOL0     H 6287   7.173   5.953   6.250  0.2555  1.1679  3.0437
   48MOL0     H 6288   7.056   6.069   6.296  0.4008 -0.2065  0.1568
   48MOL0     H 6289   7.375   6.043   6.067 -0.8842 -0.2210 -2.1673
   48MOL0     H 6290   7.587   6.281   6.101  1.4067 -0.4026 -2.4128
   48MOL0     H 6291   7.502   6.415   6.016 -0.1202 -0.1787 -1.3063
   48MOL0     H 6292   7.543   6.127   5.914  0.6150 -0.5832 -1.3526
   48MOL0     H 6293   7.660   6.252   5.904 -0.3060  2.5017  2.6014
   48MOL0     H 6294   7.496   6.370   5.737 -1.4072  1.4516 -0.3305
   48MOL0     H 6295   7.498   6.189   5.704 -0.9527  0.0129  0.4194
   48MOL0     H 6296   7.265   6.337   5.832 -1.6349 -0.9209 -0.7997
   48MOL0     H 6297   7.281   6.166   5.819 -2.8907  1.4054  1.0248
   48MOL0     H 6298   7.182   6.271   5.411  0.5827  1.5983  0.4412
   48MOL0     H 6299   6.945   6.200   5.323  1.0689  3.5287 -0.2796
   48MOL0     H 6300   6.398   6.155   5.504 -0.7354 -1.0367  0.4909
   48MOL0     H 6301   6.224   5.990   5.410 -1.1464 -0.8219  0.6459
   48MOL0     H 6302   6.124   5.785   5.283  0.7082  0.3347  0.0594
   48MOL0     H 6303   6.101   5.802   5.458  3.6904  1.0658  0.4631
   48MOL0     H 6304   6.089   5.546   5.471  2.1124  0.2484  0.3753
   48MOL0     H 6305   6.115   5.538   5.298 -0.0192 -1.9367  2.5540
   48MOL0     H 6306   5.900   5.657   5.266  0.6030 -2.9966 -2.3175
   48MOL0     H 6307   5.875   5.651   5.442 -1.1625  0.6605 -1.1814
   48MOL0     H 6308   5.920   5.411   5.239  3.8181  0.5864  1.5326
   48MOL0     H 6309   5.894   5.386   5.402  1.4513  0.3582  0.2755
   48MOL0     H 6310   5.672   5.347   5.298 -0.2560  0.3664 -0.2586
   48MOL0     H 6311   5.688   5.492   5.198 -4.1107  0.2977  0.8822
   48MOL0     H 6312   5.641   5.650   5.376 -1.1756 -0.0658  0.2930
   48MOL0     H 6313   5.678   5.522   5.493 -1.6179  0.2834  1.3432
   48MOL0     H 6314   5.459   5.564   5.277 -1.7013  0.4038 -0.2261
   48MOL0     H 6315   5.459   5.412   5.392  2.7897 -0.1973  2.6875
   48MOL0     H 6316   5.373   5.690   5.442 -0.2358 -0.7520 -1.9418
   48MOL0     H 6317   5.442   5.598   5.575  2.8312  0.0503 -1.1933
   48MOL0     H 6318   6.491   5.676   5.508 -0.4191 -0.7404  0.3397
   48MOL0     H 6319   6.666   5.844   5.589  0.3161  1.6227 -2.1477
   48MOL0     H 6320   6.851   6.099   5.734 -0.0524  0.1225 -0.4027
   48MOL0     H 6321   7.060   6.184   5.809  0.2709  0.0359 -0.0973
   48MOL0     H 6322   6.236   5.282   5.913  0.1114 -0.2582  1.4006
   48MOL0     H 6323   6.030   5.209   5.805 -1.8605  1.3675  0.2703
   48MOL0     H 6324   5.737   5.222   5.482  0.2731 -1.7706 -0.4343
   48MOL0     H 6325   5.560   5.123   5.373  0.0770 -2.6444 -0.3092
   48MOL0     H 6326   5.386   5.043   5.289  2.4114 -1.0696  1.7640
   48MOL0     H 6327   5.222   5.117   5.313 -1.3862 -0.5261  2.5770
   48MOL0     H 6328   5.119   4.926   5.388 -0.3379 -2.4492 -0.5460
   48MOL0     H 6329   5.175   4.901   5.221  1.3106 -0.2763 -0.5726
   48MOL0     H 6330   5.316   4.792   5.472  1.5749 -3.0098 -0.5422
   48MOL0     H 6331   5.391   4.795   5.310 -0.7043 -1.0840 -1.6963
   48MOL0     H 6332   5.144   4.652   5.401  0.7277 -1.0046  1.1921
   48MOL0     H 6333   5.193   4.659   5.223 -1.2158 -1.2387  0.5632
   48MOL0     H 6334   5.450   4.375   5.416 -0.0431 -0.2469 -0.9118
   48MOL0     H 6335   5.331   5.125   5.747  0.8544  0.0952  1.5897
   48MOL0     H 6336   5.506   5.260   5.841  2.3908 -1.7446  0.9614
   49MOL0     O 6337   8.794   7.732   3.934  0.6065  0.4302 -0.1607
   49MOL0     C 6338   8.836   7.742   3.819 -1.0912  0.0455  0.2438
   49MOL0     O 6339   8.756   7.756   3.715  0.4779 -0.0484 -0.6206
   49MOL0     C 6340   8.620   7.723   3.730 -0.1893 -0.2826  0.5703
   49MOL0     C 6341   8.579   7.615   3.803 -0.5117  1.2822  0.0747
   49MOL0     C 6342   8.445   7.586   3.813  0.4910  0.1133 -1.1918
   49MOL0     C 6343   8.339   7.665   3.758 -0.0186  0.7827 -0.2879
   49MOL0     O 6344   8.214   7.621   3.763 -0.0185 -0.7542  0.0441
   49MOL0     C 6345   8.104   7.711   3.759  0.7465 -0.2703 -0.2757
   49MOL0     C 6346   7.978   7.640   3.768  0.8739  0.0281  1.1442
   49MOL0     C 6347   7.862   7.737   3.770 -0.2819 -0.4362  0.4178
   49MOL0     C 6348   7.723   7.667   3.760  0.0578 -0.3392 -0.4787
   49MOL0     C 6349   7.619   7.776   3.729  0.6672 -0.1637 -0.2636
   49MOL0     C 6350   7.478   7.734   3.705 -0.9562  0.1352 -0.2860
   49MOL0     C 6351   7.387   7.847   3.737 -0.0024  0.7115  0.0605
   49MOL0     C 6352   7.236   7.800   3.739 -0.0081  0.4631  0.1072
   49MOL0     N 6353   7.151   7.903   3.788  0.1015  0.0164  0.3861
   49MOL0     C 6354   7.157   8.036   3.753 -0.1662 -0.1604  0.6156
   49MOL0     C 6355   7.048   8.094   3.812  0.0919  1.4973  0.1817
   49MOL0     C 6356   7.003   8.230   3.790  0.2910 -1.0273  0.5982
   49MOL0     C 6357   6.860   8.248   3.734  0.0071  0.6247 -0.4232
   49MOL0     C 6358   6.741   8.217   3.836 -0.0030  0.0241 -0.1569
   49MOL0     C 6359   6.607   8.241   3.788 -0.0716 -0.0484 -0.0638
   49MOL0     O 6360   6.519   8.229   3.903  0.1548  0.0157  0.0794
   49MOL0     C 6361   6.383   8.232   3.881 -0.0271 -0.6546  0.6883
   49MOL0     C 6362   6.315   8.244   3.761 -0.0801  0.0888 -0.6306
   49MOL0     C 6363   6.177   8.256   3.761 -0.4236 -0.9276 -0.9753
   49MOL0     C 6364   6.097   8.232   3.872  0.8345 -0.5130  0.2292
   49MOL0     C 6365   5.952   8.218   3.855  1.2237 -0.6713  0.8569
   49MOL0     O 6366   5.876   8.167   3.955 -0.4340 -0.1425  0.1435
   49MOL0     C 6367   5.741   8.151   3.938 -0.0832 -0.2716 -0.4047
   49MOL0     C 6368   5.683   8.032   3.960 -0.3338  1.2157  0.2497
   49MOL0     C 6369   5.543   8.015   3.953 -0.1473 -0.1265  0.5665
   49MOL0     C 6370   5.456   8.129   3.939  0.3909 -0.0861  0.1836
   49MOL0     O 6371   5.317   8.134   3.960  0.2330  0.6638  0.0690
   49MOL0     C 6372   5.250   8.012   3.943  0.4923 -0.4153 -0.1668
   49MOL0     C 6373   5.117   8.036   3.998  0.2484 -0.0423 -0.0794
   49MOL0     C 6374   5.030   7.908   3.989 -0.2602 -0.3402 -0.3025
   49MOL0     C 6375   4.876   7.939   4.013 -0.5046  0.0233  0.0121
   49MOL0     C 6376   4.789   7.813   4.030  0.2190 -0.6636  0.2613
   49MOL0     C 6377   4.652   7.863   4.070 -0.9397 -0.1695  0.2506
   49MOL0     C 6378   4.554   7.769   4.018  0.0133  0.1160  0.1181
   49MOL0     C 6379   4.411   7.788   4.062 -0.8219  0.6808 -0.3621
   49MOL0    Cl 6380   4.302   7.650   3.999  0.1040 -0.1770  0.2823
   49MOL0     C 6381   5.521   8.260   3.917 -0.3812  0.4828 -0.8081
   49MOL0     C 6382   5.662   8.270   3.914 -0.2204 -0.7724 -0.1607
   49MOL0     O 6383   5.905   8.254   3.742  0.0540 -0.7113 -1.1732
   49MOL0     C 6384   6.165   8.214   3.991  1.0000 -0.2005  0.6982
   49MOL0     C 6385   6.302   8.224   3.997  1.0340  0.0000 -0.3478
   49MOL0     N 6386   6.981   7.992   3.872 -0.2575  0.1491 -0.2228
   49MOL0     N 6387   7.037   7.879   3.862 -0.2786 -0.0216 -0.0347
   49MOL0     C 6388   8.386   7.776   3.687  0.2790 -0.6371  0.7288
   49MOL0     C 6389   8.518   7.801   3.670  0.2070 -0.7632  0.6124
   49MOL0     C 6390   8.984   7.757   3.782 -0.0530  0.7193 -0.2379
   49MOL0     C 6391   9.022   7.814   3.668 -1.0526  0.4293  0.2279
   49MOL0     C 6392   9.166   7.826   3.642 -0.1476 -0.2190  0.6429
   49MOL0     C 6393   9.263   7.781   3.726  0.0719  1.0040 -0.3634
   49MOL0     O 6394   9.389   7.774   3.683  0.5901 -0.1996 -0.0760
   49MOL0     C 6395   9.483   7.876   3.736  0.0146 -0.3606 -0.4517
   49MOL0     C 6396   9.443   8.018   3.699 -0.5720 -0.0165 -1.0570
   49MOL0     C 6397   9.432   8.042   3.548 -0.1734 -0.1290  0.4696
   49MOL0     C 6398   9.365   8.180   3.520  0.3460 -0.1597 -0.5020
   49MOL0     C 6399   9.230   8.206   3.573  0.5186  0.2284  0.0267
   49MOL0     C 6400   9.116   8.222   3.616  0.0352  0.2422  0.4335
   49MOL0     C 6401   9.220   7.737   3.849 -0.0992  1.0050  0.6629
   49MOL0     C 6402   9.080   7.723   3.875  0.7502 -0.3861  0.2934
   49MOL0     H 6403   8.650   7.550   3.852 -0.7504  0.0518 -1.1684
   49MOL0     H 6404   8.434   7.498   3.875  2.3800  0.0633 -0.8801
   49MOL0     H 6405   8.102   7.770   3.667 -0.8946  2.6943  1.5045
   49MOL0     H 6406   8.114   7.778   3.845  1.8123 -0.6430 -0.0979
   49MOL0     H 6407   7.978   7.588   3.864 -3.5147 -0.4251  1.0766
   49MOL0     H 6408   7.981   7.569   3.684 -0.3386  2.7297 -1.3793
   49MOL0     H 6409   7.871   7.796   3.678 -0.9436  0.1416  0.7171
   49MOL0     H 6410   7.865   7.803   3.858 -4.6304  1.5140 -0.6458
   49MOL0     H 6411   7.730   7.600   3.674  1.2411 -0.9860  0.0986
   49MOL0     H 6412   7.695   7.608   3.848  2.3744  0.4656  0.8624
   49MOL0     H 6413   7.641   7.833   3.638 -4.5862  1.5801 -0.7752
   49MOL0     H 6414   7.620   7.848   3.811 -1.0049 -0.0929 -0.2828
   49MOL0     H 6415   7.445   7.638   3.746 -2.8731 -0.7571 -3.5517
   49MOL0     H 6416   7.476   7.721   3.597 -0.7439 -0.6392 -0.2045
   49MOL0     H 6417   7.407   7.881   3.839  1.0825  1.4621 -0.3897
   49MOL0     H 6418   7.399   7.931   3.667  0.0061  0.0690 -0.7295
   49MOL0     H 6419   7.224   7.704   3.791  0.2342 -1.0194 -2.4098
   49MOL0     H 6420   7.207   7.776   3.636  3.0258  1.4103 -1.0845
   49MOL0     H 6421   7.238   8.074   3.694  0.1505 -1.4355  0.1956
   49MOL0     H 6422   7.070   8.287   3.724 -1.1551  0.0530  0.0066
   49MOL0     H 6423   7.001   8.281   3.887  0.3753 -0.3945  0.2702
   49MOL0     H 6424   6.850   8.211   3.631  1.0288  2.3322 -1.1863
   49MOL0     H 6425   6.855   8.356   3.718  0.9190  0.6500 -0.6156
   49MOL0     H 6426   6.742   8.108   3.849  1.0990 -0.3667 -2.9267
   49MOL0     H 6427   6.760   8.255   3.937 -0.0317  0.7127 -0.4101
   49MOL0     H 6428   6.581   8.161   3.718 -1.7724 -1.4841  2.0994
   49MOL0     H 6429   6.597   8.344   3.752 -0.3092 -0.2536 -0.5901
   49MOL0     H 6430   6.359   8.259   3.662 -2.9112  1.6014 -1.7872
   49MOL0     H 6431   6.130   8.275   3.665 -1.4593  0.7199 -0.1945
   49MOL0     H 6432   5.738   7.945   3.991 -3.8476 -1.1193  0.5382
   49MOL0     H 6433   5.508   7.915   3.973 -1.1506  0.5037  2.1410
   49MOL0     H 6434   5.300   7.931   3.997 -1.0195 -0.9273  0.5337
   49MOL0     H 6435   5.250   7.986   3.837 -2.3706  1.4863 -0.7433
   49MOL0     H 6436   5.060   8.115   3.947 -0.5536 -0.0629  0.7447
   49MOL0     H 6437   5.136   8.065   4.102  0.9124 -0.1575 -0.1697
   49MOL0     H 6438   5.064   7.840   4.068  0.3639  2.3560  1.9164
   49MOL0     H 6439   5.047   7.866   3.890 -2.6423 -3.1363  0.3599
   49MOL0     H 6440   4.864   8.018   4.088 -0.6633  0.3096 -0.3113
   49MOL0     H 6441   4.835   7.988   3.923  0.0391  1.7787  0.6751
   49MOL0     H 6442   4.828   7.739   4.101 -2.1242 -0.8403  1.4831
   49MOL0     H 6443   4.791   7.763   3.933  0.7668 -1.2925  0.5899
   49MOL0     H 6444   4.622   7.968   4.054 -1.4568  0.0148  2.1607
   49MOL0     H 6445   4.654   7.843   4.177  2.3091 -2.1125 -0.0397
   49MOL0     H 6446   4.550   7.762   3.909  0.2678 -0.0078  0.1173
   49MOL0     H 6447   4.583   7.674   4.064 -2.9877 -1.0960 -0.2650
   49MOL0     H 6448   4.391   7.887   4.019  2.4083  1.5217 -0.1555
   49MOL0     H 6449   4.396   7.799   4.170 -1.5469  0.9900 -0.4832
   49MOL0     H 6450   5.459   8.349   3.927 -0.5808  0.0724  3.2554
   49MOL0     H 6451   5.697   8.372   3.897 -1.7538 -0.5234 -2.1131
   49MOL0     H 6452   6.101   8.216   4.079 -0.3503  1.5591 -0.2500
   49MOL0     H 6453   6.359   8.225   4.089  0.3196 -0.6306  0.1185
   49MOL0     H 6454   8.324   7.850   3.637  3.1572  0.4245 -1.5904
   49MOL0     H 6455   8.556   7.887   3.615  1.5700 -1.2389  0.7721
   49MOL0     H 6456   8.947   7.835   3.593 -1.1514  0.1618  0.2519
   49MOL0     H 6457   9.197   7.867   3.546 -4.2062 -1.6246 -1.5139
   49MOL0     H 6458   9.578   7.844   3.692  0.3628  0.4909 -0.3238
   49MOL0     H 6459   9.489   7.866   3.845 -0.1183 -1.0188 -0.5006
   49MOL0     H 6460   9.345   8.044   3.739 -0.0173 -0.0505  0.3935
   49MOL0     H 6461   9.517   8.082   3.747  2.5846 -3.4087 -0.9755
   49MOL0     H 6462   9.379   7.964   3.494  0.8512  0.1245 -0.9629
   49MOL0     H 6463   9.537   8.034   3.520  0.8011 -1.5697  3.9231
   49MOL0     H 6464   9.435   8.257   3.555  0.4537 -0.7322  0.6010
   49MOL0     H 6465   9.348   8.201   3.414 -1.6762  1.4049  0.0632
   49MOL0     H 6466   9.013   8.234   3.644  0.3716  2.7806  0.8403
   49MOL0     H 6467   9.286   7.695   3.924 -2.6662 -3.6590  0.6892
   49MOL0     H 6468   9.042   7.690   3.972 -0.8485  0.6822  0.0751
   50MOL0     O 6469   5.490   6.161   3.336  0.1266 -0.0064 -0.7156
   50MOL0     C 6470   5.470   6.281   3.338  0.1476 -0.4064 -0.0185
   50MOL0     O 6471   5.560   6.380   3.300 -0.0391 -0.2868 -0.6852
   50MOL0     C 6472   5.664   6.359   3.215 -0.2159 -0.1936 -0.4491
   50MOL0     C 6473   5.696   6.238   3.155  0.0612  0.1469 -0.0253
   50MOL0     C 6474   5.820   6.226   3.085  0.4635 -0.6750 -0.5974
   50MOL0     C 6475   5.915   6.329   3.073  0.2216 -0.6743  0.7123
   50MOL0     O 6476   6.037   6.325   2.994 -0.1391 -1.0127 -0.0312
   50MOL0     C 6477   6.082   6.195   2.958  0.7399 -0.5977 -0.6083
   50MOL0     C 6478   6.201   6.188   2.860  0.9016 -0.4385 -0.0150
   50MOL0     C 6479   6.187   6.280   2.733 -0.6063 -0.2232  0.7509
   50MOL0     C 6480   6.307   6.256   2.636  0.0044  0.0167 -0.3979
   50MOL0     C 6481   6.317   6.369   2.534  0.7759 -0.4570 -0.4821
   50MOL0     C 6482   6.431   6.352   2.442 -0.7526 -1.2018 -0.7898
   50MOL0     C 6483   6.445   6.474   2.357 -0.5282 -0.6529  0.3432
   50MOL0     C 6484   6.541   6.450   2.236 -0.1650 -0.7490 -0.0144
   50MOL0     N 6485   6.536   6.559   2.140 -0.2008  0.4068  0.4469
   50MOL0     C 6486   6.438   6.573   2.047  0.2314 -0.4863  0.4211
   50MOL0     C 6487   6.476   6.681   1.984 -0.5560  0.2002 -1.2763
   50MOL0     C 6488   6.388   6.753   1.886 -0.4303  0.4334 -0.2268
   50MOL0     C 6489   6.286   6.854   1.954 -0.5854 -0.5814  0.2405
   50MOL0     C 6490   6.184   6.803   2.057 -0.3232  0.1812  1.0781
   50MOL0     C 6491   6.078   6.703   1.996  0.0703 -0.4746 -0.0976
   50MOL0     O 6492   5.973   6.697   2.090  0.1001  0.4012 -0.6294
   50MOL0     C 6493   5.874   6.603   2.074 -0.3436 -0.5699  0.3884
   50MOL0     C 6494   5.856   6.535   1.952 -0.0691  0.8614 -0.5483
   50MOL0     C 6495   5.759   6.430   1.949 -0.4140 -0.3964  0.3728
   50MOL0     C 6496   5.673   6.409   2.063  0.0476  0.1144 -0.0903
   50MOL0     C 6497   5.567   6.314   2.050 -0.2566  0.5556  0.3090
   50MOL0     O 6498   5.548   6.269   1.922  0.7790 -0.2706 -0.1634
   50MOL0     C 6499   5.440   6.193   1.874 -0.2581 -0.0700 -0.7112
   50MOL0     C 6500   5.405   6.191   1.735  0.2265 -0.4403 -0.3502
   50MOL0     C 6501   5.305   6.113   1.689 -0.3671 -0.8639  0.3630
   50MOL0     C 6502   5.246   6.025   1.778  0.2103  0.2978  0.8095
   50MOL0     O 6503   5.146   5.942   1.746  0.4725  0.0159  0.1038
   50MOL0     C 6504   5.097   5.935   1.613 -0.5604  0.1114 -0.1315
   50MOL0     C 6505   4.981   5.840   1.619  0.2907  0.4264 -0.1335
   50MOL0     C 6506   4.995   5.730   1.722  0.0434  0.3750 -0.4236
   50MOL0     C 6507   4.876   5.637   1.707  0.1949 -0.2494 -0.4609
   50MOL0     C 6508   4.905   5.511   1.789  0.1434  0.5483 -0.1242
   50MOL0     C 6509   4.797   5.404   1.783  0.1980  0.9210  0.7978
   50MOL0     C 6510   4.851   5.264   1.850  0.0071 -0.3379  0.0947
   50MOL0     C 6511   4.738   5.160   1.865  0.3615 -0.4741  0.2020
   50MOL0    Cl 6512   4.587   5.227   1.947 -0.0653 -0.3171  0.4620
   50MOL0     C 6513   5.281   6.020   1.914  0.3902  0.1934 -0.1555
   50MOL0     C 6514   5.373   6.108   1.966  0.2217  0.0369 -0.0094
   50MOL0     O 6515   5.508   6.284   2.150  0.2614  0.0902 -0.7862
   50MOL0     C 6516   5.703   6.469   2.188 -0.1651  0.2810  0.7599
   50MOL0     C 6517   5.800   6.572   2.191 -0.0758  0.0295  0.4274
   50MOL0     N 6518   6.592   6.725   2.034 -0.3222 -0.5353  0.5556
   50MOL0     N 6519   6.623   6.656   2.131  0.7089 -1.7675  0.2178
   50MOL0     C 6520   5.881   6.444   3.135  0.0775 -0.0126 -0.4324
   50MOL0     C 6521   5.758   6.465   3.208  1.0670 -1.0641 -0.5463
   50MOL0     C 6522   5.363   6.345   3.428  0.0254  0.6974 -0.3056
   50MOL0     C 6523   5.315   6.481   3.406 -0.5424  0.0653  0.2669
   50MOL0     C 6524   5.210   6.529   3.493  0.4487  0.4012  0.8285
   50MOL0     C 6525   5.157   6.455   3.598 -0.2997 -0.0738  0.5937
   50MOL0     O 6526   5.087   6.527   3.692  0.5355 -0.1404 -0.0817
   50MOL0     C 6527   4.977   6.457   3.754 -0.3051  0.3961  0.1779
   50MOL0     C 6528   4.876   6.547   3.826  0.1895  1.2756  0.3165
   50MOL0     C 6529   4.806   6.457   3.934  0.1667  0.6183 -0.2091
   50MOL0     C 6530   4.687   6.524   3.995 -1.0270 -0.0131 -0.2853
   50MOL0     C 6531   4.560   6.534   3.924  0.2897 -0.3154 -0.3822
   50MOL0     C 6532   4.455   6.533   3.858 -0.5476  0.6801 -0.5628
   50MOL0     C 6533   5.203   6.325   3.615  0.1509 -0.1325 -0.2632
   50MOL0     C 6534   5.298   6.268   3.527 -0.0024 -0.0427 -0.4220
   50MOL0     H 6535   5.628   6.155   3.139  1.2689 -0.5081 -2.1099
   50MOL0     H 6536   5.846   6.125   3.056  1.1807 -0.8180  0.4904
   50MOL0     H 6537   6.011   6.132   2.906  1.8791 -1.6300 -0.9614
   50MOL0     H 6538   6.116   6.150   3.052 -1.3441  0.1966  0.6000
   50MOL0     H 6539   6.214   6.084   2.830  3.7522 -0.0328 -0.4849
   50MOL0     H 6540   6.296   6.216   2.906  1.6386 -0.0936 -1.6522
   50MOL0     H 6541   6.167   6.385   2.758 -1.2626  0.0294 -0.7266
   50MOL0     H 6542   6.098   6.248   2.679  0.8435 -2.7384 -0.2977
   50MOL0     H 6543   6.399   6.260   2.695 -1.1356 -2.7021  1.7923
   50MOL0     H 6544   6.292   6.163   2.580 -1.7833 -0.0275  0.0850
   50MOL0     H 6545   6.334   6.460   2.592 -1.5470  0.8104 -1.6592
   50MOL0     H 6546   6.221   6.381   2.484  0.2566  0.4328  0.6737
   50MOL0     H 6547   6.437   6.260   2.382 -0.1099 -0.0881 -2.5059
   50MOL0     H 6548   6.522   6.351   2.503 -1.5683  0.8602  0.5586
   50MOL0     H 6549   6.354   6.501   2.303  1.3306 -2.3736 -4.1376
   50MOL0     H 6550   6.481   6.563   2.410  2.8955  0.3772 -3.2696
   50MOL0     H 6551   6.512   6.359   2.183  1.2745 -0.6715 -0.9881
   50MOL0     H 6552   6.646   6.433   2.261 -0.5771 -1.5750  1.2018
   50MOL0     H 6553   6.351   6.512   2.024 -0.8722  1.2910 -0.2723
   50MOL0     H 6554   6.343   6.677   1.822  0.8406  1.0843 -1.9609
   50MOL0     H 6555   6.455   6.799   1.813  1.6124 -1.7789  0.1206
   50MOL0     H 6556   6.231   6.911   1.879  0.9825  0.6898  0.0178
   50MOL0     H 6557   6.354   6.926   1.999 -2.0695  0.2401  1.2018
   50MOL0     H 6558   6.231   6.750   2.141 -0.3941 -0.5996  0.6389
   50MOL0     H 6559   6.139   6.896   2.093 -1.4928  0.7294 -1.5434
   50MOL0     H 6560   6.125   6.611   1.961 -0.5450 -0.4686 -0.9799
   50MOL0     H 6561   6.028   6.732   1.903 -0.2945 -0.7973 -0.0071
   50MOL0     H 6562   5.922   6.553   1.868  1.9249 -1.6801  0.3463
   50MOL0     H 6563   5.746   6.383   1.852  1.7157  0.3483 -0.3330
   50MOL0     H 6564   5.456   6.263   1.672  0.1908 -2.1306 -2.4357
   50MOL0     H 6565   5.281   6.116   1.583 -1.0101 -3.4326  0.3613
   50MOL0     H 6566   5.182   5.892   1.560 -1.8480 -2.8120 -0.0157
   50MOL0     H 6567   5.075   6.034   1.571 -1.7086 -0.1542 -0.2133
   50MOL0     H 6568   4.959   5.790   1.523 -0.3972  1.4128 -0.5024
   50MOL0     H 6569   4.887   5.890   1.643 -1.7635 -3.0398 -0.2891
   50MOL0     H 6570   5.001   5.765   1.826  0.9060  0.8531 -0.6237
   50MOL0     H 6571   5.079   5.668   1.689 -2.6980 -3.9813  0.0149
   50MOL0     H 6572   4.793   5.693   1.751  1.5119  0.3474  1.3845
   50MOL0     H 6573   4.853   5.606   1.605  0.2646 -3.4948  0.3919
   50MOL0     H 6574   4.928   5.524   1.895 -0.3718 -0.7181  0.1536
   50MOL0     H 6575   4.993   5.461   1.748 -1.3463 -4.3612  1.9316
   50MOL0     H 6576   4.785   5.381   1.676 -1.5360 -0.0762  1.1743
   50MOL0     H 6577   4.703   5.438   1.825  0.5295  1.6440  0.9660
   50MOL0     H 6578   4.937   5.219   1.799 -0.0400 -1.6569  1.1452
   50MOL0     H 6579   4.892   5.296   1.946  3.6416 -0.9364 -1.1114
   50MOL0     H 6580   4.764   5.072   1.924 -1.7428 -1.2615  0.0659
   50MOL0     H 6581   4.710   5.127   1.764 -0.1881  0.5191  0.0219
   50MOL0     H 6582   5.238   5.957   1.991  1.2905  1.0222  1.0725
   50MOL0     H 6583   5.381   6.108   2.075 -2.7253 -1.6156  0.3062
   50MOL0     H 6584   5.650   6.441   2.279  1.6578 -2.1839  1.1469
   50MOL0     H 6585   5.813   6.616   2.289 -1.4672 -0.4528  0.8406
   50MOL0     H 6586   5.958   6.520   3.138  1.7554 -1.6556 -0.0209
   50MOL0     H 6587   5.739   6.568   3.237 -2.2926 -0.6075 -3.6690
   50MOL0     H 6588   5.356   6.545   3.329  1.1618 -0.8834  0.3498
   50MOL0     H 6589   5.183   6.634   3.501 -0.2186  0.1872  1.5845
   50MOL0     H 6590   5.021   6.382   3.819 -0.5474 -0.2244 -0.3664
   50MOL0     H 6591   4.928   6.394   3.679  0.5038 -1.1525  0.9163
   50MOL0     H 6592   4.929   6.618   3.889 -0.2011  4.2115 -2.4297
   50MOL0     H 6593   4.798   6.597   3.768  1.3369  1.2163 -1.3498
   50MOL0     H 6594   4.883   6.425   4.005  3.5478  2.1089 -2.8715
   50MOL0     H 6595   4.765   6.368   3.885 -0.1031 -0.8785  2.5065
   50MOL0     H 6596   4.673   6.473   4.091  0.9186 -1.2555 -0.5969
   50MOL0     H 6597   4.713   6.630   4.009 -0.4152  0.5241 -4.3060
   50MOL0     H 6598   4.376   6.534   3.785 -2.0652  1.3138  1.0311
   50MOL0     H 6599   5.169   6.267   3.700  1.6917  0.4772  0.8126
   50MOL0     H 6600   5.339   6.168   3.536 -0.0606  0.0984  2.1637
   51MOL0     O 6601   2.910   9.437   0.096  0.4175  0.2662  0.0539
   51MOL0     C 6602   2.990   9.452   0.191  0.4231  0.5648  0.3745
   51MOL0     O 6603   2.955   9.454   0.325  0.0368  0.6574 -0.6556
   51MOL0     C 6604   2.831   9.474   0.369 -0.3442  0.3858  0.8313
   51MOL0     C 6605   2.714   9.502   0.300 -1.0424 -0.5439 -0.7506
   51MOL0     C 6606   2.597   9.521   0.380 -0.6930 -0.0786  0.2642
   51MOL0     C 6607   2.590   9.501   0.518  0.4933 -0.4710  0.3343
   51MOL0     O 6608   2.466   9.522   0.577 -0.5647 -0.0335 -0.1057
   51MOL0     C 6609   2.464   9.533   0.713 -0.0646  0.1474  0.2552
   51MOL0     C 6610   2.336   9.590   0.761  0.7348  0.9108 -0.1306
   51MOL0     C 6611   2.225   9.483   0.765 -0.4055 -0.1406 -0.0200
   51MOL0     C 6612   2.092   9.541   0.815  0.4883  0.4811  0.0832
   51MOL0     C 6613   1.988   9.436   0.824  0.4870 -0.7605 -0.0766
   51MOL0     C 6614   1.869   9.489   0.903  0.0492  0.4749 -0.0605
   51MOL0     C 6615   1.746   9.392   0.901 -0.7643 -0.3745  1.2331
   51MOL0     C 6616   1.668   9.391   0.765  0.2423 -0.2470  0.6362
   51MOL0     N 6617   1.561   9.489   0.752  0.9287  0.4452 -0.5931
   51MOL0     C 6618   1.574   9.620   0.718 -1.1644 -0.1321  0.3422
   51MOL0     C 6619   1.449   9.669   0.721  0.5304  0.2124 -0.0040
   51MOL0     C 6620   1.410   9.816   0.694 -0.7094 -0.0505  0.3009
   51MOL0     C 6621   1.463   9.914   0.801 -0.5766  0.4972  0.2507
   51MOL0     C 6622   1.431  10.059   0.766  0.0304  0.5923  0.1900
   51MOL0     C 6623   1.281  10.092   0.741 -0.2019  0.6052  0.4610
   51MOL0     O 6624   1.201  10.029   0.837  0.5318 -0.3304  0.2200
   51MOL0     C 6625   1.062  10.044   0.833  0.5548 -1.2733  0.2082
   51MOL0     C 6626   0.982  10.054   0.949 -0.3860  0.0612  1.0929
   51MOL0     C 6627   0.847  10.090   0.951 -0.0751 -0.1562  0.6210
   51MOL0     C 6628   0.780  10.109   0.828  0.2316 -0.2008  0.9085
   51MOL0     C 6629   0.636  10.114   0.827  0.2258 -0.0572 -0.6783
   51MOL0     O 6630   0.571  10.144   0.944 -0.2568  0.0635 -0.0430
   51MOL0     C 6631   0.441  10.112   0.954 -0.3828  0.4612  0.2902
   51MOL0     C 6632   0.356  10.212   1.000  0.4046 -0.1780 -0.8130
   51MOL0     C 6633   0.223  10.183   0.989 -0.9333 -0.0971  0.5001
   51MOL0     C 6634   0.170  10.055   0.975  0.2155  1.1621  0.1829
   51MOL0     O 6635   0.029  10.042   0.952 -0.1719 -0.5404 -0.5960
   51MOL0     C 6636  -0.024   9.923   0.892 -0.4368  0.0946 -0.3480
   51MOL0     C 6637  -0.173   9.906   0.919 -0.5409 -0.5092  0.6777
   51MOL0     C 6638  -0.223   9.954   1.053  0.3990 -0.3850 -0.3505
   51MOL0     C 6639  -0.375   9.928   1.079 -0.2525  0.3650 -0.2806
   51MOL0     C 6640  -0.469  10.050   1.057 -0.6514 -1.0099  0.1957
   51MOL0     C 6641  -0.604  10.035   1.121 -0.1878 -0.0434  0.8026
   51MOL0     C 6642  -0.711  10.140   1.064 -0.1878 -0.4384  0.4491
   51MOL0     C 6643  -0.841  10.143   1.139 -0.2733 -0.2284 -0.7487
   51MOL0    Cl 6644  -0.933   9.998   1.103  0.0863  0.1205  0.4850
   51MOL0     C 6645   0.265   9.951   0.939  0.2146 -0.2544  1.1754
   51MOL0     C 6646   0.400   9.981   0.923  0.1166  0.1362 -0.7665
   51MOL0     O 6647   0.577  10.088   0.720  0.3358  0.1553 -0.3693
   51MOL0     C 6648   0.856  10.096   0.707 -0.4023  0.1066 -0.1363
   51MOL0     C 6649   0.989  10.060   0.710 -0.7323  0.6593 -0.1291
   51MOL0     N 6650   1.363   9.573   0.773 -0.2460  0.4269 -0.0805
   51MOL0     N 6651   1.435   9.462   0.793 -0.2090 -0.3701 -0.0163
   51MOL0     C 6652   2.716   9.467   0.579 -0.1068  0.9768  0.3753
   51MOL0     C 6653   2.833   9.460   0.506 -0.3337  0.0041 -0.2726
   51MOL0     C 6654   3.134   9.458   0.159 -0.6845  0.3130  0.0998
   51MOL0     C 6655   3.220   9.516   0.260 -0.0568  0.6323 -0.9604
   51MOL0     C 6656   3.359   9.518   0.244  0.5248 -0.5113 -0.0275
   51MOL0     C 6657   3.413   9.455   0.138 -0.4552  0.3538  0.0692
   51MOL0     O 6658   3.550   9.446   0.128 -0.0021 -0.3263  0.5112
   51MOL0     C 6659   3.637   9.524   0.211 -1.1670  1.0008 -0.0874
   51MOL0     C 6660   3.775   9.537   0.148  0.0258 -0.0340  0.1410
   51MOL0     C 6661   3.840   9.399   0.136 -0.2878  0.7230  0.9451
   51MOL0     C 6662   3.904   9.345   0.262 -0.6038 -0.1110 -0.4391
   51MOL0     C 6663   3.975   9.219   0.237  0.4385  0.0433  0.6653
   51MOL0     C 6664   4.043   9.110   0.218  0.1545  0.1206 -0.8875
   51MOL0     C 6665   3.330   9.396   0.036 -0.2872 -0.4536  0.7376
   51MOL0     C 6666   3.192   9.408   0.042 -0.4445 -0.7337  0.2938
   51MOL0     H 6667   2.701   9.506   0.192  0.6016  2.2714 -0.9482
   51MOL0     H 6668   2.506   9.534   0.321 -0.8051  1.2465  0.6985
   51MOL0     H 6669   2.534   9.610   0.747 -2.7919  2.8798  0.1465
   51MOL0     H 6670   2.482   9.435   0.758  1.5802 -0.9986 -2.5832
   51MOL0     H 6671   2.298   9.679   0.710  0.5564  1.0011  0.1523
   51MOL0     H 6672   2.353   9.623   0.864  0.4580 -2.8343  1.2609
   51MOL0     H 6673   2.254   9.404   0.834  2.4498 -0.4123 -1.3870
   51MOL0     H 6674   2.214   9.446   0.663  1.0711  0.3380 -0.3787
   51MOL0     H 6675   2.106   9.581   0.916  2.6589  0.6764 -0.2489
   51MOL0     H 6676   2.049   9.618   0.751 -2.4911 -3.6939 -3.5649
   51MOL0     H 6677   2.028   9.349   0.877 -2.1119 -1.2140  1.3047
   51MOL0     H 6678   1.962   9.401   0.723  0.0856  0.8108 -0.5326
   51MOL0     H 6679   1.842   9.581   0.850  2.2074 -0.1529 -2.4757
   51MOL0     H 6680   1.903   9.506   1.005 -1.3524 -2.6804  1.0497
   51MOL0     H 6681   1.770   9.286   0.905 -4.6208 -1.4056  0.3594
   51MOL0     H 6682   1.671   9.422   0.974 -2.6108  1.5730 -1.2499
   51MOL0     H 6683   1.635   9.289   0.744  0.4691  0.0289 -1.2709
   51MOL0     H 6684   1.725   9.402   0.672 -0.3012 -0.0809  0.3143
   51MOL0     H 6685   1.662   9.675   0.685  0.4558 -1.0853  2.7734
   51MOL0     H 6686   1.302   9.824   0.685 -0.6017 -0.6428 -2.4775
   51MOL0     H 6687   1.449   9.846   0.596  0.9351 -0.8639  0.6759
   51MOL0     H 6688   1.572   9.911   0.803 -0.5267  1.7635  0.0368
   51MOL0     H 6689   1.427   9.883   0.900  0.0775 -2.5007 -0.3371
   51MOL0     H 6690   1.463  10.112   0.857 -0.1249  0.9009  0.0653
   51MOL0     H 6691   1.485  10.095   0.678  1.7713  1.9382  1.7141
   51MOL0     H 6692   1.251  10.053   0.643 -1.7300 -1.7034  1.7421
   51MOL0     H 6693   1.266  10.200   0.744 -1.3277  0.5877 -2.2864
   51MOL0     H 6694   1.046  10.033   1.035 -1.0606 -0.8821  1.3829
   51MOL0     H 6695   0.802  10.090   1.049 -1.5622  1.4738 -0.0172
   51MOL0     H 6696   0.395  10.306   1.038  2.2012 -0.6846 -1.2613
   51MOL0     H 6697   0.156  10.266   1.007  0.0011  0.8240 -0.1653
   51MOL0     H 6698   0.017   9.836   0.946 -0.1304  0.5602  0.1781
   51MOL0     H 6699   0.006   9.914   0.787 -3.6808  0.0169 -1.3687
   51MOL0     H 6700  -0.208   9.803   0.908  2.5843 -1.5144 -0.9046
   51MOL0     H 6701  -0.231   9.970   0.851 -0.8489  2.1333  3.2265
   51MOL0     H 6702  -0.213  10.063   1.057 -0.9289 -0.2690  0.3372
   51MOL0     H 6703  -0.165   9.919   1.139 -1.2132 -0.2662  0.8451
   51MOL0     H 6704  -0.403   9.845   1.014  1.4604 -1.2211  0.9024
   51MOL0     H 6705  -0.396   9.885   1.177 -0.2329 -2.6966 -1.5091
   51MOL0     H 6706  -0.474  10.070   0.950 -0.7385  1.1637  0.5654
   51MOL0     H 6707  -0.418  10.139   1.096 -1.3440  0.0980 -1.3160
   51MOL0     H 6708  -0.593  10.049   1.229 -0.3342 -1.2054  0.9864
   51MOL0     H 6709  -0.641   9.933   1.102  0.1933 -0.0992  0.3576
   51MOL0     H 6710  -0.666  10.239   1.073 -1.2817  0.3299 -1.9025
   51MOL0     H 6711  -0.732  10.133   0.957 -1.3912 -0.2714  0.6569
   51MOL0     H 6712  -0.906  10.227   1.113  0.6711  0.7699  0.0508
   51MOL0     H 6713  -0.823  10.149   1.246  2.2828  0.6327 -1.1549
   51MOL0     H 6714   0.220   9.858   0.906 -1.5068  1.0849 -0.4535
   51MOL0     H 6715   0.470   9.901   0.897 -2.7120 -2.6340 -0.4431
   51MOL0     H 6716   0.796  10.116   0.618 -3.7633  2.0225  2.3098
   51MOL0     H 6717   1.041  10.046   0.615  0.1580  1.3533  0.2341
   51MOL0     H 6718   2.726   9.448   0.685 -0.1408  2.2669  0.6291
   51MOL0     H 6719   2.920   9.449   0.570 -0.0681 -0.3553 -0.6866
   51MOL0     H 6720   3.183   9.553   0.355  1.9881 -1.9185  0.9845
   51MOL0     H 6721   3.418   9.555   0.328  1.0650 -1.8634  0.2089
   51MOL0     H 6722   3.652   9.478   0.310  0.2771 -0.9837 -1.1454
   51MOL0     H 6723   3.594   9.624   0.220  1.8957  2.2390  3.3186
   51MOL0     H 6724   3.757   9.580   0.049 -3.7620 -3.1777 -0.8470
   51MOL0     H 6725   3.845   9.589   0.214 -0.4114 -3.8584  4.0792
   51MOL0     H 6726   3.917   9.408   0.059 -2.1593 -1.4328 -1.3878
   51MOL0     H 6727   3.783   9.317   0.092  3.2455 -0.5032 -1.8093
   51MOL0     H 6728   3.973   9.416   0.308  1.2465 -0.5176 -2.4509
   51MOL0     H 6729   3.818   9.331   0.328 -0.5870 -0.2899 -0.4534
   51MOL0     H 6730   4.087   9.014   0.229  2.2340  1.2519  1.9492
   51MOL0     H 6731   3.373   9.360  -0.058 -0.1087 -0.2749  0.7494
   51MOL0     H 6732   3.128   9.356  -0.029 -0.7920 -1.3602  1.0497
   52MOL0     O 6733   0.517   2.830   8.451  0.1588  0.8704 -0.1623
   52MOL0     C 6734   0.441   2.902   8.384 -1.1272 -0.0912 -0.7827
   52MOL0     O 6735   0.484   3.006   8.305  0.4740  0.5864  0.1389
   52MOL0     C 6736   0.606   3.006   8.247  0.1413 -0.1921 -0.6550
   52MOL0     C 6737   0.639   2.896   8.176 -1.3889  0.9051 -0.1446
   52MOL0     C 6738   0.768   2.897   8.118  0.9113  0.0558 -0.0317
   52MOL0     C 6739   0.861   3.002   8.145 -0.2671 -0.7503 -0.0154
   52MOL0     O 6740   0.986   3.009   8.101 -0.2327  0.2132  0.4828
   52MOL0     C 6741   1.032   2.903   8.005 -0.2808  0.0696 -0.1187
   52MOL0     C 6742   1.170   2.936   7.960 -0.6440 -1.1378  0.3639
   52MOL0     C 6743   1.274   2.911   8.068 -0.6063  0.2359  0.3946
   52MOL0     C 6744   1.420   2.949   8.018  0.2721 -0.2959 -0.5904
   52MOL0     C 6745   1.518   2.922   8.130  0.1809  0.2718  0.0352
   52MOL0     C 6746   1.655   2.966   8.099 -0.5132 -0.3132  0.7766
   52MOL0     C 6747   1.718   2.934   7.961 -0.2240  1.0524  0.2269
   52MOL0     C 6748   1.726   2.784   7.912  0.4971  0.0657 -0.4217
   52MOL0     N 6749   1.781   2.697   8.010  0.3001 -0.3071  0.0906
   52MOL0     C 6750   1.914   2.695   8.044  0.0693  0.5055 -0.3951
   52MOL0     C 6751   1.917   2.582   8.123  0.4873  0.3280  0.8646
   52MOL0     C 6752   2.038   2.518   8.190  0.3448 -0.1086 -0.1626
   52MOL0     C 6753   2.126   2.602   8.273 -0.3658  0.2203 -0.1875
   52MOL0     C 6754   2.233   2.531   8.357  0.4575  0.4953  0.7716
   52MOL0     C 6755   2.370   2.502   8.295 -1.7036 -0.0734  0.5101
   52MOL0     O 6756   2.377   2.411   8.183  0.1655 -0.7204  0.0959
   52MOL0     C 6757   2.505   2.380   8.133 -0.6242 -0.4325 -0.2065
   52MOL0     C 6758   2.628   2.417   8.191  0.4920  0.8711 -0.4705
   52MOL0     C 6759   2.744   2.402   8.134 -0.5913 -1.3087  0.7168
   52MOL0     C 6760   2.750   2.342   8.003  0.5068 -0.4421 -0.4659
   52MOL0     C 6761   2.886   2.337   7.936 -1.5271  0.1541  0.1284
   52MOL0     O 6762   2.988   2.421   7.974  0.1232 -0.0690  0.2822
   52MOL0     C 6763   3.093   2.429   7.888  0.3729  0.2203 -0.0192
   52MOL0     C 6764   3.193   2.329   7.898 -0.1503 -0.1544 -0.2946
   52MOL0     C 6765   3.296   2.330   7.807  0.2183  0.5262  0.0555
   52MOL0     C 6766   3.298   2.431   7.704  0.3649 -0.5637  0.4962
   52MOL0     O 6767   3.420   2.429   7.634  0.1856 -0.2649 -0.6422
   52MOL0     C 6768   3.441   2.536   7.545  0.2052  0.2188  0.0216
   52MOL0     C 6769   3.380   2.516   7.406 -0.5289  0.4080 -0.2564
   52MOL0     C 6770   3.420   2.624   7.315 -0.5636  0.3794  1.3474
   52MOL0     C 6771   3.566   2.652   7.304  0.5605 -0.2869  0.9268
   52MOL0     C 6772   3.604   2.719   7.164  0.1732  1.1594 -1.1169
   52MOL0     C 6773   3.756   2.694   7.152  1.0975 -0.1609  0.0241
   52MOL0     C 6774   3.797   2.792   7.043 -0.2732 -0.2083  0.6837
   52MOL0     C 6775   3.942   2.760   6.982 -0.1712 -0.1136 -0.7387
   52MOL0    Cl 6776   3.965   2.608   6.888 -0.3793  0.0955  1.1933
   52MOL0     C 6777   3.195   2.527   7.692 -0.0157  0.5743 -0.6824
   52MOL0     C 6778   3.096   2.521   7.788  0.3384 -0.3226 -0.4566
   52MOL0     O 6779   2.894   2.251   7.852  0.2162  0.1100 -0.1621
   52MOL0     C 6780   2.634   2.302   7.940 -0.8371 -0.3015 -0.7515
   52MOL0     C 6781   2.508   2.332   8.000  0.2958 -0.3651  0.1045
   52MOL0     N 6782   1.790   2.522   8.127  0.0064  0.2992 -0.3281
   52MOL0     N 6783   1.718   2.593   8.045  0.4579  0.1665  0.3906
   52MOL0     C 6784   0.825   3.109   8.230  0.0013  0.5014  0.0724
   52MOL0     C 6785   0.696   3.115   8.283 -0.0004  0.2695 -0.1391
   52MOL0     C 6786   0.294   2.891   8.412 -0.4246 -0.1329  0.0867
   52MOL0     C 6787   0.198   2.980   8.359 -0.3566  0.4629  0.3355
   52MOL0     C 6788   0.068   2.964   8.370 -0.2041  0.6817  0.0852
   52MOL0     C 6789   0.019   2.849   8.444 -0.2217 -0.0776  1.1156
   52MOL0     O 6790  -0.116   2.818   8.445 -0.1570 -0.2207  0.2790
   52MOL0     C 6791  -0.195   2.894   8.537 -0.4846  1.1280 -0.3168
   52MOL0     C 6792  -0.215   3.040   8.509  0.4497 -0.2215 -0.2374
   52MOL0     C 6793  -0.349   3.088   8.564  0.1045 -0.3019 -0.7799
   52MOL0     C 6794  -0.454   3.096   8.456  0.1018  0.3179 -0.3819
   52MOL0     C 6795  -0.589   3.119   8.494  0.9506  0.0468  0.5902
   52MOL0     C 6796  -0.704   3.147   8.501  0.2519  0.2649  0.2047
   52MOL0     C 6797   0.103   2.752   8.497  0.2295  0.1851 -0.1943
   52MOL0     C 6798   0.240   2.778   8.474 -0.1478 -0.2292 -0.2774
   52MOL0     H 6799   0.573   2.810   8.172 -2.6062  1.8511 -1.0780
   52MOL0     H 6800   0.808   2.805   8.074  0.7108  0.6145 -1.4505
   52MOL0     H 6801   0.961   2.911   7.922 -2.9493 -0.5091  1.9584
   52MOL0     H 6802   1.022   2.801   8.042 -1.8899 -1.1748 -3.5680
   52MOL0     H 6803   1.173   3.041   7.932  0.9315 -1.2570 -0.0272
   52MOL0     H 6804   1.197   2.870   7.876  0.5802 -0.2200  0.0081
   52MOL0     H 6805   1.280   2.803   8.085  0.6807  0.2180 -0.1191
   52MOL0     H 6806   1.256   2.977   8.153  0.9147  0.6206  0.4447
   52MOL0     H 6807   1.438   2.889   7.929 -3.0434  1.2699 -2.5206
   52MOL0     H 6808   1.425   3.056   7.995  1.1737  0.0195  0.9422
   52MOL0     H 6809   1.517   2.815   8.152 -2.4452  0.1398 -0.3616
   52MOL0     H 6810   1.474   2.969   8.219  0.0866  0.3840 -0.0694
   52MOL0     H 6811   1.727   2.921   8.169 -0.8687  0.0784  1.4065
   52MOL0     H 6812   1.666   3.074   8.112  0.8768 -0.2312 -0.7266
   52MOL0     H 6813   1.657   2.990   7.890  0.8764  0.1569 -1.5010
   52MOL0     H 6814   1.818   2.979   7.955 -0.6811  2.3662  1.6453
   52MOL0     H 6815   1.783   2.784   7.818  1.8653  0.4577  0.3772
   52MOL0     H 6816   1.620   2.764   7.896 -0.0372  0.0207  2.6450
   52MOL0     H 6817   2.000   2.750   8.008 -0.4066  1.4169 -0.1964
   52MOL0     H 6818   2.091   2.485   8.101 -1.1005 -2.8645 -0.1303
   52MOL0     H 6819   2.001   2.429   8.243 -0.4678  0.5619  0.4345
   52MOL0     H 6820   2.059   2.643   8.350 -0.2231  0.3263 -0.1196
   52MOL0     H 6821   2.167   2.669   8.197 -1.4191 -1.5736 -2.4513
   52MOL0     H 6822   2.239   2.592   8.448 -0.2032  2.4813 -0.4466
   52MOL0     H 6823   2.193   2.434   8.389  0.5967 -0.7001 -2.2974
   52MOL0     H 6824   2.442   2.471   8.371  1.5381  0.1576 -2.2283
   52MOL0     H 6825   2.410   2.597   8.260 -2.7035  0.6854  1.3569
   52MOL0     H 6826   2.635   2.460   8.291  3.9800  0.9565 -0.6380
   52MOL0     H 6827   2.835   2.428   8.188 -0.6953 -2.0942  1.2834
   52MOL0     H 6828   3.179   2.242   7.961 -0.3043  0.0080 -0.1070
   52MOL0     H 6829   3.374   2.255   7.821 -1.5966 -1.2962  0.9602
   52MOL0     H 6830   3.549   2.544   7.531 -0.0950  2.0438 -1.8198
   52MOL0     H 6831   3.420   2.634   7.588  1.2338  1.8230 -2.8329
   52MOL0     H 6832   3.270   2.517   7.407 -0.5749  1.3776 -2.1572
   52MOL0     H 6833   3.414   2.420   7.366  1.1954  1.3124 -1.0613
   52MOL0     H 6834   3.376   2.719   7.345  0.0745  0.5168  1.8668
   52MOL0     H 6835   3.379   2.599   7.216  1.7309 -0.7253  0.5844
   52MOL0     H 6836   3.603   2.709   7.389  0.7726  2.5792 -0.9478
   52MOL0     H 6837   3.618   2.555   7.304  0.2527 -0.5034 -0.8227
   52MOL0     H 6838   3.573   2.824   7.165 -0.5940  0.9426 -0.4777
   52MOL0     H 6839   3.553   2.667   7.083  0.3974 -1.8943  0.5635
   52MOL0     H 6840   3.776   2.595   7.111  0.6352 -0.1167 -0.3183
   52MOL0     H 6841   3.803   2.710   7.250 -0.1748  1.8280  0.3731
   52MOL0     H 6842   3.734   2.784   6.953  0.1701 -1.1185  0.4346
   52MOL0     H 6843   3.804   2.896   7.075 -0.1906  0.0642 -0.1806
   52MOL0     H 6844   4.003   2.750   7.072 -2.7608 -1.2486  1.0040
   52MOL0     H 6845   3.982   2.849   6.932  1.9145  0.4578  1.7174
   52MOL0     H 6846   3.190   2.599   7.611  1.4886  0.2298 -1.1036
   52MOL0     H 6847   3.013   2.590   7.785  2.9688  3.0838 -0.7396
   52MOL0     H 6848   2.642   2.254   7.843  0.8590  0.0495 -0.8121
   52MOL0     H 6849   2.409   2.303   7.967 -0.2217 -2.3703  3.0731
   52MOL0     H 6850   0.891   3.192   8.253 -0.9054  1.4958 -0.8328
   52MOL0     H 6851   0.658   3.190   8.351  1.1016 -1.0126  2.0041
   52MOL0     H 6852   0.239   3.067   8.308  1.5075 -1.0078 -0.8471
   52MOL0     H 6853  -0.002   3.027   8.318  0.9254  2.0382  0.1647
   52MOL0     H 6854  -0.143   2.877   8.632  0.3629 -1.6859 -1.1852
   52MOL0     H 6855  -0.289   2.840   8.548  0.1283  0.4142  1.9414
   52MOL0     H 6856  -0.138   3.104   8.555 -0.8429  0.9371  0.3999
   52MOL0     H 6857  -0.207   3.055   8.401 -2.0819  1.9868 -0.2172
   52MOL0     H 6858  -0.342   3.194   8.593  0.9513 -0.3181 -0.8735
   52MOL0     H 6859  -0.365   3.037   8.660 -1.4334 -1.2104 -1.4970
   52MOL0     H 6860  -0.429   3.179   8.390  0.9017  1.4579  1.2729
   52MOL0     H 6861  -0.446   2.998   8.408 -1.0933 -0.7107  1.4115
   52MOL0     H 6862  -0.796   3.194   8.528  0.7037  0.4456  1.5152
   52MOL0     H 6863   0.052   2.669   8.545  3.1627 -2.0728 -0.7301
   52MOL0     H 6864   0.311   2.704   8.507  0.4153  1.0602  1.5917
   53MOL0     O 6865   8.568   7.570   4.975  0.3692  0.4072  0.5471
   53MOL0     C 6866   8.647   7.634   4.906  0.1089  0.2788 -0.5538
   53MOL0     O 6867   8.649   7.772   4.904  0.1448  0.1062  0.3017
   53MOL0     C 6868   8.550   7.842   4.973 -0.0741 -0.0281  0.5611
   53MOL0     C 6869   8.591   7.963   5.040  0.3164  0.5110  0.3543
   53MOL0     C 6870   8.503   8.051   5.091  0.1903  0.2817  0.1409
   53MOL0     C 6871   8.370   8.021   5.100  0.3767 -0.7574  0.4690
   53MOL0     O 6872   8.290   8.109   5.169 -0.2269 -0.2655 -0.2993
   53MOL0     C 6873   8.199   8.178   5.081  0.8273 -1.9055  0.3739
   53MOL0     C 6874   8.261   8.294   5.008 -0.6969 -0.5543 -0.5113
   53MOL0     C 6875   8.289   8.412   5.102  0.4171 -0.3779 -0.3484
   53MOL0     C 6876   8.349   8.523   5.015 -0.2159  0.5722  0.1847
   53MOL0     C 6877   8.383   8.648   5.095 -0.4214 -0.2892  0.0798
   53MOL0     C 6878   8.444   8.756   5.007 -0.3055  0.6118  0.1367
   53MOL0     C 6879   8.493   8.871   5.089  0.0275 -0.6427 -0.8666
   53MOL0     C 6880   8.557   8.971   4.990 -0.6677  0.2410  0.7935
   53MOL0     N 6881   8.640   8.918   4.885 -0.2253  0.2845 -0.3505
   53MOL0     C 6882   8.756   8.847   4.922  0.6419 -0.9645 -0.3864
   53MOL0     C 6883   8.812   8.817   4.806  0.6371  0.6260  0.4764
   53MOL0     C 6884   8.923   8.724   4.773 -0.0014 -0.4556 -0.1390
   53MOL0     C 6885   9.048   8.814   4.789 -0.8447 -0.7655 -0.0604
   53MOL0     C 6886   9.175   8.726   4.754  0.3997  0.2306 -0.2057
   53MOL0     C 6887   9.304   8.809   4.745 -0.3799 -0.0504  0.5898
   53MOL0     O 6888   9.402   8.732   4.687 -0.1606  0.3320 -0.2336
   53MOL0     C 6889   9.526   8.793   4.670  0.1371  0.2312 -0.5097
   53MOL0     C 6890   9.549   8.930   4.676  0.4950 -0.5086  0.2694
   53MOL0     C 6891   9.672   8.985   4.663 -0.4427 -0.5328  0.3263
   53MOL0     C 6892   9.781   8.908   4.632 -0.1435 -0.2304 -0.1477
   53MOL0     C 6893   9.905   8.968   4.599 -0.9797  0.2422  0.7115
   53MOL0     O 6894   9.988   8.900   4.513 -0.4930 -0.2358 -0.2331
   53MOL0     C 6895  10.112   8.957   4.498 -0.4807  0.1944 -0.2569
   53MOL0     C 6896  10.223   8.898   4.568  0.6548 -0.6761 -1.0184
   53MOL0     C 6897  10.346   8.950   4.550 -0.8172  0.1966  0.2727
   53MOL0     C 6898  10.378   9.053   4.459  0.7685  0.0783 -0.1634
   53MOL0     O 6899  10.505   9.093   4.440 -0.1241 -0.6640  0.0359
   53MOL0     C 6900  10.576   9.141   4.562 -0.0996  0.4701  0.5442
   53MOL0     C 6901  10.715   9.181   4.538 -0.5309  0.2904 -0.0542
   53MOL0     C 6902  10.791   9.058   4.488  0.3217  0.2626 -0.1210
   53MOL0     C 6903  10.937   9.098   4.466 -0.9837 -0.1656 -0.4172
   53MOL0     C 6904  11.039   8.982   4.471  0.4513  0.3463  0.3992
   53MOL0     C 6905  11.013   8.867   4.374  0.9104 -0.0011  0.9044
   53MOL0     C 6906  11.102   8.743   4.386  0.4116 -0.3979  0.6087
   53MOL0     C 6907  11.059   8.613   4.308  0.2798 -0.1654  0.7011
   53MOL0    Cl 6908  11.078   8.649   4.141 -0.0027  0.0858 -0.4487
   53MOL0     C 6909  10.270   9.101   4.380 -0.1634  0.5446 -0.1471
   53MOL0     C 6910  10.137   9.054   4.400 -0.0180 -0.6178 -0.9023
   53MOL0     O 6911   9.929   9.087   4.637  0.9798  0.0392  0.2828
   53MOL0     C 6912   9.759   8.767   4.606  0.1693 -0.0108 -0.9378
   53MOL0     C 6913   9.632   8.709   4.627  0.6514 -0.0711  0.0277
   53MOL0     N 6914   8.733   8.863   4.705  0.5354 -0.4968  0.4714
   53MOL0     N 6915   8.628   8.929   4.750  0.0831 -0.0005 -0.1280
   53MOL0     C 6916   8.324   7.902   5.047  0.0591 -0.0871 -0.7911
   53MOL0     C 6917   8.411   7.812   4.982 -0.3746  0.7010 -0.4230
   53MOL0     C 6918   8.760   7.565   4.844 -0.6909 -0.6750  0.1925
   53MOL0     C 6919   8.744   7.439   4.788 -0.1043  0.3777  0.6255
   53MOL0     C 6920   8.854   7.378   4.716  0.4217 -0.8922 -0.2156
   53MOL0     C 6921   8.979   7.440   4.716 -0.4314  1.0126  0.0644
   53MOL0     O 6922   9.075   7.358   4.660 -0.2382  0.7336  0.5776
   53MOL0     C 6923   9.204   7.411   4.616  0.0895 -0.2841 -0.1220
   53MOL0     C 6924   9.250   7.328   4.498  0.1856  0.0464  1.2057
   53MOL0     C 6925   9.266   7.179   4.522  0.2526  0.0341 -0.3249
   53MOL0     C 6926   9.318   7.116   4.384 -0.0198  0.4231 -1.0373
   53MOL0     C 6927   9.446   7.053   4.405 -0.6795 -0.1240  0.0068
   53MOL0     C 6928   9.546   6.995   4.432  0.8349 -0.2254 -0.5604
   53MOL0     C 6929   8.997   7.570   4.764  0.4400  0.3783 -0.3150
   53MOL0     C 6930   8.884   7.632   4.829 -0.9365  0.1964 -0.1156
   53MOL0     H 6931   8.698   7.982   5.044  0.5054 -0.0409 -1.2603
   53MOL0     H 6932   8.538   8.145   5.132 -0.9090  1.9801 -2.4984
   53MOL0     H 6933   8.128   8.223   5.152  1.8065 -0.9565  0.7830
   53MOL0     H 6934   8.137   8.123   5.010 -1.2460  1.5842 -0.7749
   53MOL0     H 6935   8.190   8.327   4.932 -0.9238 -0.2945 -0.1903
   53MOL0     H 6936   8.352   8.269   4.953  0.1119 -1.2999  1.0947
   53MOL0     H 6937   8.356   8.374   5.179  2.5913  0.6554 -1.6369
   53MOL0     H 6938   8.196   8.448   5.147 -0.4732  0.4537 -2.6625
   53MOL0     H 6939   8.440   8.484   4.968  0.1204 -1.1157  2.0776
   53MOL0     H 6940   8.275   8.553   4.941  0.0930  0.4398 -0.1802
   53MOL0     H 6941   8.453   8.620   5.174 -1.5134 -2.6332  0.2828
   53MOL0     H 6942   8.286   8.678   5.136 -1.1512  0.0770 -1.7678
   53MOL0     H 6943   8.385   8.787   4.921  1.4970 -0.5103 -1.5733
   53MOL0     H 6944   8.533   8.712   4.962  1.1335  0.2262  3.0789
   53MOL0     H 6945   8.404   8.912   5.138 -0.2105 -2.4893  0.3295
   53MOL0     H 6946   8.559   8.840   5.171 -3.8662 -2.2104  1.9829
   53MOL0     H 6947   8.612   9.049   5.043  1.1664  0.2274 -0.9682
   53MOL0     H 6948   8.485   9.025   4.928  1.8363  1.7695 -0.9907
   53MOL0     H 6949   8.789   8.813   5.019  1.1894 -0.0744 -0.2489
   53MOL0     H 6950   8.913   8.697   4.668 -3.2329 -1.5226  0.3547
   53MOL0     H 6951   8.923   8.640   4.843 -0.2490  0.0093  0.4243
   53MOL0     H 6952   9.060   8.848   4.892 -1.6010 -0.9320  0.0874
   53MOL0     H 6953   9.042   8.906   4.730  2.4267 -0.6532 -0.4137
   53MOL0     H 6954   9.185   8.643   4.824 -6.1242 -1.0646 -0.2117
   53MOL0     H 6955   9.166   8.694   4.650  2.7523 -1.1916 -0.0484
   53MOL0     H 6956   9.335   8.831   4.847 -0.1128 -1.4365  0.8307
   53MOL0     H 6957   9.279   8.902   4.693  1.3927  0.1160 -0.0009
   53MOL0     H 6958   9.460   8.989   4.695 -2.1732 -3.4970 -1.9257
   53MOL0     H 6959   9.681   9.093   4.657 -3.1957 -0.3135 -1.7118
   53MOL0     H 6960  10.207   8.815   4.637 -1.7010  0.6442  0.1407
   53MOL0     H 6961  10.435   8.911   4.600  0.2909  2.0076 -0.1870
   53MOL0     H 6962  10.579   9.055   4.630  3.7236 -1.4457 -1.6395
   53MOL0     H 6963  10.534   9.228   4.612  1.3686  0.0159  2.6867
   53MOL0     H 6964  10.750   9.224   4.633 -2.3939  2.9991 -0.4722
   53MOL0     H 6965  10.729   9.259   4.463  1.5820 -0.8223 -0.8931
   53MOL0     H 6966  10.751   9.024   4.392  1.9916  0.0243 -0.7558
   53MOL0     H 6967  10.777   8.966   4.546 -2.6093 -0.0755 -1.1542
   53MOL0     H 6968  10.954   9.137   4.365 -0.1408 -1.4328 -0.7881
   53MOL0     H 6969  10.974   9.165   4.543 -1.8175 -2.7680  2.4567
   53MOL0     H 6970  11.039   8.945   4.574 -0.0946  1.0869  0.6712
   53MOL0     H 6971  11.139   9.022   4.452  1.3383 -2.6570 -2.1490
   53MOL0     H 6972  11.035   8.894   4.270 -1.1477 -0.1172  0.3985
   53MOL0     H 6973  10.907   8.843   4.387  0.5312  0.8145 -0.5163
   53MOL0     H 6974  11.203   8.772   4.356  0.3174  0.6434  1.2673
   53MOL0     H 6975  11.102   8.718   4.493 -2.8525 -0.6557  0.6695
   53MOL0     H 6976  10.955   8.581   4.323 -0.5665 -0.4941 -4.1748
   53MOL0     H 6977  11.121   8.524   4.326  0.2946 -1.2562 -3.5893
   53MOL0     H 6978  10.296   9.182   4.314  0.1366 -0.0840 -0.8063
   53MOL0     H 6979  10.065   9.089   4.326  2.0856  1.1324 -2.2555
   53MOL0     H 6980   9.839   8.704   4.568 -0.3313 -0.4904 -1.2261
   53MOL0     H 6981   9.608   8.605   4.606 -0.5294  0.2893 -0.4592
   53MOL0     H 6982   8.218   7.878   5.048 -0.4408  1.9010  1.5755
   53MOL0     H 6983   8.373   7.723   4.932 -1.0459 -0.2450  1.6426
   53MOL0     H 6984   8.652   7.383   4.794 -0.0363 -0.0242 -1.5149
   53MOL0     H 6985   8.846   7.283   4.665 -0.3385 -0.3961 -1.0751
   53MOL0     H 6986   9.281   7.389   4.691  1.6157  0.1889 -1.4873
   53MOL0     H 6987   9.194   7.519   4.601  0.8240 -0.3567 -1.2137
   53MOL0     H 6988   9.170   7.338   4.425  3.5973  0.9438 -2.7986
   53MOL0     H 6989   9.338   7.365   4.446 -0.3046 -0.8109 -0.2867
   53MOL0     H 6990   9.172   7.135   4.557 -0.6212 -0.2696 -2.8751
   53MOL0     H 6991   9.349   7.171   4.592  0.4443  1.3914 -0.3619
   53MOL0     H 6992   9.240   7.048   4.349  0.7195  0.9486 -3.9899
   53MOL0     H 6993   9.317   7.183   4.298 -0.2368  0.4580 -1.0080
   53MOL0     H 6994   9.640   6.949   4.458  2.5585  2.2495 -1.9184
   53MOL0     H 6995   9.094   7.619   4.762  0.1706  0.9683  0.4062
   53MOL0     H 6996   8.897   7.729   4.876 -0.3921 -0.1255  0.4142
   54MOL0     O 6997   3.092   7.406   6.150 -0.0690  0.4039 -0.0812
   54MOL0     C 6998   3.149   7.420   6.040 -0.8857  0.2399  0.2483
   54MOL0     O 6999   3.093   7.471   5.924 -0.5308  0.3286  0.1319
   54MOL0     C 7000   2.960   7.489   5.915  0.1009 -0.0682 -0.4666
   54MOL0     C 7001   2.878   7.414   5.826  0.0960  0.3318  0.5100
   54MOL0     C 7002   2.736   7.432   5.825 -0.5777  0.1711  0.5409
   54MOL0     C 7003   2.677   7.514   5.913  0.1904 -0.3428 -0.1019
   54MOL0     O 7004   2.542   7.510   5.909  0.9065  0.3236  0.6576
   54MOL0     C 7005   2.470   7.641   5.931 -0.6168  0.0872 -0.3973
   54MOL0     C 7006   2.328   7.629   5.880  0.7106 -0.4615 -0.6094
   54MOL0     C 7007   2.332   7.619   5.736  0.5576 -0.2029 -0.2418
   54MOL0     C 7008   2.197   7.584   5.672 -0.1430  0.2927 -0.4503
   54MOL0     C 7009   2.201   7.590   5.520 -0.5869 -0.6684 -0.2486
   54MOL0     C 7010   2.063   7.555   5.461 -0.0444 -0.1567  0.2921
   54MOL0     C 7011   2.060   7.561   5.306 -0.0996  0.6583 -0.0273
   54MOL0     C 7012   1.931   7.522   5.234 -0.1742  0.3304 -0.1535
   54MOL0     N 7013   1.805   7.556   5.296  0.7237 -0.1217  0.6855
   54MOL0     C 7014   1.739   7.672   5.292  0.0686  0.0063  0.1025
   54MOL0     C 7015   1.626   7.653   5.354  0.8912  0.3762  0.4814
   54MOL0     C 7016   1.511   7.755   5.348  0.4515 -0.2201 -0.5948
   54MOL0     C 7017   1.474   7.822   5.483 -0.7593  0.5738  0.1490
   54MOL0     C 7018   1.345   7.902   5.484  0.6723  0.7387 -0.5487
   54MOL0     C 7019   1.223   7.811   5.501 -0.4330 -0.4549 -0.0158
   54MOL0     O 7020   1.123   7.912   5.514  0.1089 -0.2248  0.7843
   54MOL0     C 7021   0.993   7.879   5.485  0.1827  0.2424 -0.5341
   54MOL0     C 7022   0.942   7.759   5.430  0.7545  0.2657  0.0751
   54MOL0     C 7023   0.799   7.751   5.398 -0.8562 -0.3710 -0.4235
   54MOL0     C 7024   0.709   7.857   5.440 -0.5673  0.4332 -1.0395
   54MOL0     C 7025   0.570   7.848   5.404  0.1449  1.3033 -0.5576
   54MOL0     O 7026   0.485   7.936   5.451 -0.4286  0.8423 -0.2508
   54MOL0     C 7027   0.362   7.929   5.403  0.4951 -0.2136  0.2481
   54MOL0     C 7028   0.329   7.989   5.279 -0.7968 -0.2564  0.8113
   54MOL0     C 7029   0.208   7.967   5.217  0.2417 -0.3282 -0.0513
   54MOL0     C 7030   0.109   7.883   5.271 -0.1011  0.3413  0.0976
   54MOL0     O 7031  -0.006   7.876   5.200  0.3442  0.4951 -0.5793
   54MOL0     C 7032  -0.127   7.870   5.286 -0.1526 -0.8009  0.0770
   54MOL0     C 7033  -0.261   7.848   5.206 -0.6668  0.0874  0.1288
   54MOL0     C 7034  -0.299   7.963   5.110 -0.6160  0.1693 -0.2605
   54MOL0     C 7035  -0.410   7.927   5.008  0.4762  0.9243 -0.1746
   54MOL0     C 7036  -0.528   7.864   5.072  1.1849 -0.6651  0.2308
   54MOL0     C 7037  -0.655   7.859   4.983  0.4726 -0.3640 -0.2038
   54MOL0     C 7038  -0.771   7.794   5.054  0.5972 -0.0809 -0.2558
   54MOL0     C 7039  -0.908   7.789   4.972 -0.4069  0.8300  0.2843
   54MOL0    Cl 7040  -0.894   7.679   4.835 -0.1005 -0.0403 -0.2470
   54MOL0     C 7041   0.146   7.812   5.385  0.2789  0.6004  0.1560
   54MOL0     C 7042   0.267   7.837   5.453  1.0192 -0.2179 -0.2258
   54MOL0     O 7043   0.541   7.748   5.345  0.1273 -0.2205 -0.0808
   54MOL0     C 7044   0.762   7.961   5.504  0.3394 -0.1147 -0.7294
   54MOL0     C 7045   0.900   7.979   5.520  0.4515 -0.0828 -0.3877
   54MOL0     N 7046   1.622   7.518   5.405  0.5856 -0.9066  0.4577
   54MOL0     N 7047   1.735   7.468   5.368 -0.7319  0.6679  0.1181
   54MOL0     C 7048   2.750   7.603   5.989  0.7429  0.6045 -0.4049
   54MOL0     C 7049   2.889   7.579   6.003 -0.7571 -0.0724  0.4076
   54MOL0     C 7050   3.287   7.382   6.033  0.3600 -0.5635  0.5496
   54MOL0     C 7051   3.366   7.417   5.913  0.4843  0.2951  0.4730
   54MOL0     C 7052   3.501   7.376   5.905  0.6996 -0.8464 -0.3350
   54MOL0     C 7053   3.562   7.311   6.009 -0.1953  0.9698  0.4389
   54MOL0     O 7054   3.697   7.285   6.019 -0.3806  0.0198 -0.0701
   54MOL0     C 7055   3.787   7.362   5.934  0.5970 -0.6875  0.1013
   54MOL0     C 7056   3.925   7.302   5.932  0.3729 -0.6774  0.0329
   54MOL0     C 7057   3.926   7.181   5.843  0.9351 -0.1737  0.4244
   54MOL0     C 7058   4.036   7.084   5.883  0.0514  0.4736 -0.9142
   54MOL0     C 7059   3.996   6.945   5.842  0.2983 -1.3299  0.0271
   54MOL0     C 7060   3.967   6.826   5.814  0.1188 -0.0236  0.6680
   54MOL0     C 7061   3.485   7.274   6.121  0.1627  0.6263 -0.8431
   54MOL0     C 7062   3.350   7.298   6.132  0.2998 -0.2385  0.3667
   54MOL0     H 7063   2.918   7.341   5.756 -1.1942 -1.8931  1.9790
   54MOL0     H 7064   2.673   7.375   5.759  0.3472 -0.9275  0.5824
   54MOL0     H 7065   2.522   7.721   5.877 -1.9641  1.0637 -0.2971
   54MOL0     H 7066   2.462   7.652   6.040 -2.4045 -3.7934  0.0546
   54MOL0     H 7067   2.261   7.712   5.904  1.4807  0.3072 -1.0930
   54MOL0     H 7068   2.282   7.537   5.918 -0.4565  0.8258  1.2761
   54MOL0     H 7069   2.408   7.547   5.705  0.7256 -0.0264 -0.2399
   54MOL0     H 7070   2.359   7.714   5.689 -2.0224  0.0702 -1.3735
   54MOL0     H 7071   2.189   7.477   5.695 -0.3628  0.1027 -1.3962
   54MOL0     H 7072   2.122   7.649   5.718  2.4806  2.8666  0.5283
   54MOL0     H 7073   2.281   7.522   5.488  1.8910  0.1585  3.5256
   54MOL0     H 7074   2.244   7.686   5.489 -0.1944 -1.0851 -1.0269
   54MOL0     H 7075   1.991   7.615   5.517 -0.8806 -2.5612  1.9309
   54MOL0     H 7076   2.015   7.459   5.478 -2.0372  0.3365 -2.0235
   54MOL0     H 7077   2.079   7.666   5.285 -2.3530  1.1510  0.0647
   54MOL0     H 7078   2.142   7.502   5.265  0.4251  1.3625  0.0077
   54MOL0     H 7079   1.943   7.415   5.216 -1.8537  0.1096 -0.1244
   54MOL0     H 7080   1.928   7.567   5.135  0.3405  1.6613  0.4006
   54MOL0     H 7081   1.773   7.757   5.233  1.3894 -0.2471  0.4717
   54MOL0     H 7082   1.425   7.694   5.318 -0.7990 -1.0192  3.8234
   54MOL0     H 7083   1.529   7.821   5.263  2.4980 -1.2242 -1.0009
   54MOL0     H 7084   1.548   7.889   5.527 -1.1433  0.0021  1.7058
   54MOL0     H 7085   1.473   7.743   5.558  1.6858 -1.1676 -1.4821
   54MOL0     H 7086   1.350   7.963   5.575 -1.0899 -0.8292  0.6887
   54MOL0     H 7087   1.337   7.973   5.401 -0.5056  0.3699 -0.7755
   54MOL0     H 7088   1.235   7.744   5.587 -0.3512 -1.0362 -0.4759
   54MOL0     H 7089   1.219   7.747   5.412  1.8697  0.9922 -1.2361
   54MOL0     H 7090   1.006   7.677   5.397 -1.5438 -2.3270  1.6079
   54MOL0     H 7091   0.752   7.662   5.358 -2.1609  0.1370 -0.0841
   54MOL0     H 7092   0.403   8.057   5.240 -1.0869  1.2481  2.7381
   54MOL0     H 7093   0.186   8.009   5.119  1.2859 -1.9749 -1.0519
   54MOL0     H 7094  -0.125   7.971   5.327  2.7107 -1.3831  1.6147
   54MOL0     H 7095  -0.118   7.801   5.370  0.4781 -0.3502  0.3804
   54MOL0     H 7096  -0.340   7.822   5.277  1.4223 -0.4575  2.4171
   54MOL0     H 7097  -0.237   7.760   5.146  0.0161  0.3606 -0.0125
   54MOL0     H 7098  -0.210   8.000   5.059 -0.0537  0.9901  1.2615
   54MOL0     H 7099  -0.331   8.047   5.171 -1.3240 -0.7282  0.6378
   54MOL0     H 7100  -0.430   8.013   4.943 -2.3832  1.2323  0.9794
   54MOL0     H 7101  -0.364   7.865   4.931 -2.7345  0.5348 -1.9494
   54MOL0     H 7102  -0.552   7.911   5.168  1.6006 -1.7127  0.8576
   54MOL0     H 7103  -0.511   7.761   5.105 -1.4183 -0.8922  1.1374
   54MOL0     H 7104  -0.628   7.797   4.896 -0.1754  2.3523 -2.5020
   54MOL0     H 7105  -0.673   7.963   4.957 -2.3336 -1.3427 -2.7742
   54MOL0     H 7106  -0.739   7.691   5.074  0.3939 -0.2906 -0.9841
   54MOL0     H 7107  -0.793   7.849   5.146 -0.9580  0.8371 -1.1343
   54MOL0     H 7108  -0.923   7.889   4.930 -2.4178 -0.6237 -2.8458
   54MOL0     H 7109  -0.994   7.757   5.032 -0.5101  1.5533  0.5393
   54MOL0     H 7110   0.079   7.743   5.436 -0.1742  1.0855  0.2201
   54MOL0     H 7111   0.283   7.785   5.547 -0.7101 -0.6443 -0.1394
   54MOL0     H 7112   0.699   8.041   5.541 -3.0484 -2.8582 -0.0317
   54MOL0     H 7113   0.935   8.075   5.555  1.4595 -0.0927 -1.3193
   54MOL0     H 7114   2.709   7.678   6.056  1.3034 -0.0378  0.6992
   54MOL0     H 7115   2.948   7.643   6.068 -1.6129  0.7251  0.4287
   54MOL0     H 7116   3.324   7.474   5.830 -2.7781  1.0670  2.4549
   54MOL0     H 7117   3.550   7.416   5.817 -1.8849  3.5373 -0.0554
   54MOL0     H 7118   3.794   7.466   5.966  0.6112 -0.9127  0.8664
   54MOL0     H 7119   3.742   7.358   5.834 -0.9666 -2.0943  0.8025
   54MOL0     H 7120   3.994   7.380   5.900 -1.5301  0.5824 -1.1822
   54MOL0     H 7121   3.954   7.274   6.034  1.6253  1.1006  0.2072
   54MOL0     H 7122   3.944   7.212   5.740  0.9133 -2.0663 -0.1951
   54MOL0     H 7123   3.830   7.130   5.854  0.4903  0.4395 -0.5427
   54MOL0     H 7124   4.128   7.119   5.835  0.3397 -0.1333 -0.8161
   54MOL0     H 7125   4.040   7.090   5.992  2.5391  1.0007 -0.9734
   54MOL0     H 7126   3.947   6.727   5.779 -2.1795  0.8463 -0.7068
   54MOL0     H 7127   3.531   7.229   6.209 -0.4374  0.0966 -0.7963
   54MOL0     H 7128   3.308   7.253   6.221  0.4658  1.4930  1.3624
   55MOL0     O 7129   3.427   3.139   1.991  0.3486 -0.1778 -0.3365
   55MOL0     C 7130   3.462   3.212   1.895  0.6865  0.4628 -0.6437
   55MOL0     O 7131   3.377   3.301   1.826 -0.5390  0.5593 -0.0207
   55MOL0     C 7132   3.242   3.289   1.858  0.0721 -0.5228  0.1930
   55MOL0     C 7133   3.171   3.407   1.901  0.0301  0.1368  0.1611
   55MOL0     C 7134   3.039   3.404   1.929  0.6938 -0.6914  0.2544
   55MOL0     C 7135   2.963   3.294   1.885 -0.1907 -0.3916  0.8967
   55MOL0     O 7136   2.828   3.311   1.895  0.2029 -0.0872  0.1878
   55MOL0     C 7137   2.752   3.199   1.937  0.0489 -0.7260  0.2388
   55MOL0     C 7138   2.624   3.263   1.985 -0.0045  0.2815 -0.3291
   55MOL0     C 7139   2.541   3.311   1.861 -0.3120  0.3506 -0.5347
   55MOL0     C 7140   2.401   3.369   1.904  0.5708 -0.3991 -0.2722
   55MOL0     C 7141   2.331   3.444   1.788 -0.6835 -0.1985  0.1936
   55MOL0     C 7142   2.326   3.351   1.663 -0.0476 -0.7770 -0.5245
   55MOL0     C 7143   2.235   3.416   1.556  0.2812 -0.5252  0.5482
   55MOL0     C 7144   2.086   3.414   1.591 -0.4218  0.0311 -0.2059
   55MOL0     N 7145   2.005   3.505   1.505 -0.3117  0.6463 -0.1710
   55MOL0     C 7146   1.932   3.462   1.394 -0.1168 -0.0455 -0.3609
   55MOL0     C 7147   1.874   3.569   1.338  0.4505 -0.3263 -0.3141
   55MOL0     C 7148   1.788   3.550   1.214 -0.6671 -0.0789 -0.3957
   55MOL0     C 7149   1.693   3.432   1.208 -0.7860 -0.2898  0.2371
   55MOL0     C 7150   1.600   3.426   1.333  0.0721 -0.0447  0.1305
   55MOL0     C 7151   1.490   3.314   1.326 -1.0947 -0.7605  0.4310
   55MOL0     O 7152   1.386   3.350   1.238 -0.8793  0.0267  0.0141
   55MOL0     C 7153   1.266   3.380   1.299  0.4044 -0.7677 -0.2071
   55MOL0     C 7154   1.240   3.413   1.432  0.2139  0.5499  1.7059
   55MOL0     C 7155   1.116   3.414   1.478  0.3199 -0.7026  0.5802
   55MOL0     C 7156   0.998   3.391   1.400 -0.4443  0.3939  0.0904
   55MOL0     C 7157   0.863   3.402   1.452  0.9102 -0.2099 -0.3774
   55MOL0     O 7158   0.763   3.350   1.382  0.8126  0.0503 -0.4018
   55MOL0     C 7159   0.643   3.351   1.443  0.7580 -0.4608  0.4083
   55MOL0     C 7160   0.604   3.234   1.516  0.0721 -0.2162 -0.0485
   55MOL0     C 7161   0.484   3.217   1.583  0.2500 -0.3014  0.0386
   55MOL0     C 7162   0.400   3.323   1.582 -1.2089 -0.4353  0.6209
   55MOL0     O 7163   0.284   3.293   1.657 -0.6663 -0.1483 -0.1144
   55MOL0     C 7164   0.189   3.397   1.693 -0.2194  0.1678 -0.2154
   55MOL0     C 7165   0.064   3.323   1.757  0.0616 -0.1721 -0.2688
   55MOL0     C 7166  -0.025   3.233   1.665  0.2215 -0.4512  0.5859
   55MOL0     C 7167  -0.139   3.165   1.751  0.4245  0.1480 -0.1439
   55MOL0     C 7168  -0.229   3.068   1.675  0.1185 -0.4218 -1.8362
   55MOL0     C 7169  -0.339   3.025   1.764  0.4857  0.5795  1.5133
   55MOL0     C 7170  -0.441   2.935   1.674  0.2430 -0.9550  0.0432
   55MOL0     C 7171  -0.570   2.912   1.756  0.6588  0.1002 -1.1312
   55MOL0    Cl 7172  -0.705   2.857   1.648  0.3091 -0.7069  0.1923
   55MOL0     C 7173   0.426   3.439   1.506  0.3001 -0.7018  0.0142
   55MOL0     C 7174   0.544   3.450   1.432 -0.2807 -0.2964 -0.1769
   55MOL0     O 7175   0.847   3.446   1.561  0.1408  0.1756 -0.2406
   55MOL0     C 7176   1.023   3.360   1.263 -0.2233  0.2515  0.0423
   55MOL0     C 7177   1.154   3.353   1.218  0.4168 -0.4695 -0.2812
   55MOL0     N 7178   1.910   3.681   1.413 -0.1211  0.5922  0.1042
   55MOL0     N 7179   1.983   3.635   1.515 -0.7149 -0.0595 -0.2456
   55MOL0     C 7180   3.024   3.180   1.826  0.1462 -0.0814  0.4834
   55MOL0     C 7181   3.164   3.185   1.801  0.4017  0.1101 -0.0877
   55MOL0     C 7182   3.606   3.222   1.855  0.1421 -0.1579 -0.1740
   55MOL0     C 7183   3.652   3.339   1.792 -0.3422 -0.1251  0.4110
   55MOL0     C 7184   3.786   3.365   1.770 -0.0571 -0.4991 -0.1487
   55MOL0     C 7185   3.882   3.269   1.805 -0.0167 -1.3483 -0.0106
   55MOL0     O 7186   4.010   3.301   1.777  0.1449  0.5813 -0.1950
   55MOL0     C 7187   4.060   3.248   1.653  0.4915 -0.2928 -0.3250
   55MOL0     C 7188   4.153   3.128   1.656  0.3979 -0.6468  0.2619
   55MOL0     C 7189   4.208   3.086   1.521  0.4575  0.3997 -0.2330
   55MOL0     C 7190   4.349   3.012   1.534  0.0073 -0.0966 -0.7810
   55MOL0     C 7191   4.387   3.003   1.393 -0.4070 -0.2422  0.3190
   55MOL0     C 7192   4.396   3.005   1.272  0.2144  1.1764  0.3858
   55MOL0     C 7193   3.841   3.155   1.880 -0.5204  0.0434  0.7666
   55MOL0     C 7194   3.707   3.132   1.906  0.6372 -0.1997  0.5650
   55MOL0     H 7195   3.242   3.489   1.911  0.2171 -0.2988  3.7405
   55MOL0     H 7196   2.994   3.495   1.969  0.8865 -1.1970  1.6845
   55MOL0     H 7197   2.801   3.156   2.024 -0.4358  0.3179  1.0577
   55MOL0     H 7198   2.729   3.116   1.870 -1.7487 -1.2898  1.4689
   55MOL0     H 7199   2.637   3.347   2.053  2.1252 -1.7445  1.9787
   55MOL0     H 7200   2.564   3.186   2.035  0.1011 -0.1590 -0.8640
   55MOL0     H 7201   2.531   3.233   1.785  0.5639  0.0727 -0.3744
   55MOL0     H 7202   2.589   3.395   1.810 -0.6397 -0.6132 -2.5183
   55MOL0     H 7203   2.333   3.285   1.925 -0.0863  0.2811  0.3978
   55MOL0     H 7204   2.417   3.437   1.987 -1.0125 -0.9199  0.4991
   55MOL0     H 7205   2.399   3.526   1.765  2.0745 -2.5841 -0.7224
   55MOL0     H 7206   2.233   3.472   1.827 -1.5188 -1.2708 -1.0335
   55MOL0     H 7207   2.292   3.251   1.691  1.1597 -0.9664  0.3757
   55MOL0     H 7208   2.424   3.334   1.618  1.4299 -3.7839  3.2559
   55MOL0     H 7209   2.265   3.517   1.526 -2.3849  0.4499  0.8809
   55MOL0     H 7210   2.230   3.348   1.471  0.4180  0.6891 -0.4571
   55MOL0     H 7211   2.082   3.436   1.698  2.3097  2.0669 -0.4184
   55MOL0     H 7212   2.054   3.309   1.594  0.0872 -0.1197 -0.0426
   55MOL0     H 7213   1.923   3.357   1.367 -1.8787 -0.4306  1.4085
   55MOL0     H 7214   1.858   3.542   1.131  2.0269 -0.5656  1.7748
   55MOL0     H 7215   1.736   3.647   1.212  0.0550  0.2974 -1.4422
   55MOL0     H 7216   1.745   3.337   1.228 -2.3712 -1.3296 -0.4020
   55MOL0     H 7217   1.632   3.430   1.117 -2.4082 -1.9441  1.2872
   55MOL0     H 7218   1.654   3.401   1.424 -0.9104 -2.2786  0.1661
   55MOL0     H 7219   1.538   3.515   1.346 -0.6832 -0.4197 -0.7951
   55MOL0     H 7220   1.456   3.282   1.426  1.4565 -0.5730  1.4396
   55MOL0     H 7221   1.538   3.232   1.272  0.3603  1.6592 -2.1683
   55MOL0     H 7222   1.326   3.441   1.492  1.8090  2.2297 -1.1878
   55MOL0     H 7223   1.111   3.415   1.586  1.3543 -1.0462  0.6413
   55MOL0     H 7224   0.683   3.162   1.533  0.8982  0.5148 -0.7273
   55MOL0     H 7225   0.464   3.128   1.641 -0.5371 -0.6209 -0.7052
   55MOL0     H 7226   0.168   3.451   1.599  0.5584  1.5004  0.3407
   55MOL0     H 7227   0.234   3.460   1.770  2.3761  0.3711 -1.7872
   55MOL0     H 7228  -0.006   3.400   1.792 -0.1529  1.0861 -3.1491
   55MOL0     H 7229   0.100   3.257   1.836 -1.1356  0.5953  0.9851
   55MOL0     H 7230   0.041   3.158   1.621  0.0957 -0.0383 -0.3311
   55MOL0     H 7231  -0.069   3.288   1.581  1.2697  1.1959  1.0550
   55MOL0     H 7232  -0.091   3.110   1.832  1.3586 -0.3626 -1.0249
   55MOL0     H 7233  -0.203   3.249   1.779  1.4519  1.2925 -1.0792
   55MOL0     H 7234  -0.161   2.984   1.658  0.1516 -1.4508  2.3844
   55MOL0     H 7235  -0.260   3.111   1.580 -0.8343  1.9473 -0.5403
   55MOL0     H 7236  -0.388   3.110   1.813 -2.1861  0.3012 -0.4478
   55MOL0     H 7237  -0.295   2.960   1.841  4.6885 -0.8076 -1.6407
   55MOL0     H 7238  -0.462   2.995   1.585  0.8648  1.1310  1.2361
   55MOL0     H 7239  -0.401   2.839   1.637 -0.7557 -1.3938  0.0663
   55MOL0     H 7240  -0.601   3.005   1.803  1.1922 -0.7381  1.0168
   55MOL0     H 7241  -0.548   2.838   1.834 -0.3348  0.1180 -0.8256
   55MOL0     H 7242   0.359   3.524   1.503 -1.5036 -2.0660 -1.0739
   55MOL0     H 7243   0.573   3.537   1.374  1.2768 -1.2106 -0.8306
   55MOL0     H 7244   0.941   3.330   1.200 -0.2729 -1.6028  0.9255
   55MOL0     H 7245   1.177   3.339   1.113 -3.5715 -2.5579 -1.1100
   55MOL0     H 7246   2.959   3.097   1.802 -2.5527  1.9279  0.3685
   55MOL0     H 7247   3.226   3.100   1.770  2.9798  0.9075  2.4457
   55MOL0     H 7248   3.589   3.422   1.763 -1.5078  0.2163  3.5983
   55MOL0     H 7249   3.807   3.457   1.715 -0.9759 -0.7396 -0.9378
   55MOL0     H 7250   4.105   3.330   1.595  1.7940  0.1673  1.2514
   55MOL0     H 7251   3.968   3.209   1.609 -0.7178 -2.5379  3.6970
   55MOL0     H 7252   4.233   3.152   1.727 -1.8420  0.2096  2.6394
   55MOL0     H 7253   4.113   3.033   1.692  2.4687 -2.5480 -2.0307
   55MOL0     H 7254   4.212   3.174   1.456 -3.1431 -0.6284 -2.1431
   55MOL0     H 7255   4.145   3.011   1.473 -1.0637  1.5030 -0.0199
   55MOL0     H 7256   4.426   3.064   1.592  0.2388 -2.3449  1.0877
   55MOL0     H 7257   4.326   2.916   1.581  0.0555 -0.2174 -1.0028
   55MOL0     H 7258   4.411   3.012   1.166 -0.3661 -1.6734  0.0228
   55MOL0     H 7259   3.925   3.091   1.907  1.9902  2.7973  0.0452
   55MOL0     H 7260   3.681   3.044   1.964 -0.6483 -0.5407 -0.4822
   56MOL0     O 7261   6.136   8.317   9.718  0.0457 -0.7467  0.2755
   56MOL0     C 7262   6.160   8.204   9.680  0.9229 -0.7571 -0.0612
   56MOL0     O 7263   6.090   8.142   9.570 -0.1482 -0.3560 -0.3961
   56MOL0     C 7264   5.987   8.221   9.513 -0.6579  0.1979 -0.6521
   56MOL0     C 7265   6.008   8.284   9.386  0.2330  0.5194 -0.4645
   56MOL0     C 7266   5.897   8.335   9.315  0.0600 -0.1525  0.0547
   56MOL0     C 7267   5.771   8.339   9.376 -0.8982  0.7860 -1.2357
   56MOL0     O 7268   5.673   8.412   9.325 -0.0849 -0.5062 -0.0982
   56MOL0     C 7269   5.580   8.339   9.249  0.6740  0.1343 -0.3225
   56MOL0     C 7270   5.441   8.390   9.294 -0.1833 -0.0249 -0.9837
   56MOL0     C 7271   5.332   8.372   9.195 -0.1863 -1.2659 -1.1601
   56MOL0     C 7272   5.202   8.427   9.254  0.4010 -0.0480  0.0259
   56MOL0     C 7273   5.086   8.383   9.161 -0.0384 -0.4018  0.2805
   56MOL0     C 7274   5.068   8.233   9.139 -0.9804  1.2716  0.1471
   56MOL0     C 7275   4.954   8.191   9.056 -0.2972  0.4638 -0.1879
   56MOL0     C 7276   4.821   8.199   9.133  0.4257 -0.2422  0.3244
   56MOL0     N 7277   4.707   8.165   9.051 -0.4838 -0.3232 -0.2321
   56MOL0     C 7278   4.660   8.240   8.953 -0.3985  0.0852  0.0913
   56MOL0     C 7279   4.554   8.181   8.911 -0.2212 -0.1222  0.7357
   56MOL0     C 7280   4.456   8.239   8.808  0.3480  0.1073 -0.5551
   56MOL0     C 7281   4.307   8.212   8.850  0.7528  0.1039 -0.1256
   56MOL0     C 7282   4.223   8.250   8.729  0.1300 -0.2625 -0.2825
   56MOL0     C 7283   4.081   8.233   8.769  0.4789 -0.3997 -0.5917
   56MOL0     O 7284   4.008   8.203   8.648  0.0279  0.9938  0.1275
   56MOL0     C 7285   3.870   8.183   8.657  0.3119  0.0281 -1.2075
   56MOL0     C 7286   3.790   8.217   8.772  0.6274 -0.1987 -0.0825
   56MOL0     C 7287   3.655   8.202   8.764 -0.1337  1.2170 -0.1100
   56MOL0     C 7288   3.584   8.167   8.645 -0.1238  0.5647  0.3266
   56MOL0     C 7289   3.440   8.143   8.643  0.2365 -0.5370 -0.1988
   56MOL0     O 7290   3.359   8.195   8.736 -0.1646  0.3928 -0.0333
   56MOL0     C 7291   3.218   8.184   8.740  0.2650  0.5865  0.2935
   56MOL0     C 7292   3.142   8.076   8.687  0.0618 -0.7505  0.3448
   56MOL0     C 7293   3.002   8.081   8.687 -0.2748  0.3048 -0.1630
   56MOL0     C 7294   2.939   8.202   8.720  0.2451  0.6086 -0.3640
   56MOL0     O 7295   2.802   8.196   8.696  0.3515  0.5391  0.0239
   56MOL0     C 7296   2.723   8.250   8.799  0.2520  0.8253  0.2162
   56MOL0     C 7297   2.585   8.177   8.781  0.1235 -0.1154  0.0234
   56MOL0     C 7298   2.477   8.235   8.872 -1.0291  0.0981 -0.1210
   56MOL0     C 7299   2.336   8.167   8.880 -0.6313 -0.5106 -0.5697
   56MOL0     C 7300   2.235   8.269   8.939 -0.5146  0.6437 -0.1905
   56MOL0     C 7301   2.097   8.213   8.927  0.4364 -0.5232  0.4955
   56MOL0     C 7302   1.996   8.313   8.969  0.4669  0.7629  0.3517
   56MOL0     C 7303   1.866   8.235   9.001  0.0786 -1.0871 -0.3131
   56MOL0    Cl 7304   1.797   8.203   8.846 -0.4595  0.4432  0.2195
   56MOL0     C 7305   3.013   8.309   8.767 -0.4208  0.5018  0.1372
   56MOL0     C 7306   3.154   8.298   8.786 -0.0260 -1.0855  0.1901
   56MOL0     O 7307   3.404   8.082   8.547  0.1699  0.0644 -0.2273
   56MOL0     C 7308   3.665   8.135   8.533  0.0506  0.6810  0.9587
   56MOL0     C 7309   3.805   8.151   8.539  0.2209 -0.1001  0.4510
   56MOL0     N 7310   4.531   8.065   8.981 -0.1642  0.0559 -0.1485
   56MOL0     N 7311   4.631   8.056   9.067 -1.1635  0.9827 -0.4637
   56MOL0     C 7312   5.751   8.288   9.509  0.3751  0.6796 -0.5071
   56MOL0     C 7313   5.860   8.230   9.573  0.9642 -0.0663  0.8111
   56MOL0     C 7314   6.260   8.123   9.742 -0.7580 -0.2258  0.1430
   56MOL0     C 7315   6.338   8.173   9.851  0.1320 -0.0518  0.5296
   56MOL0     C 7316   6.433   8.088   9.917 -0.3946 -0.2042 -0.2463
   56MOL0     C 7317   6.468   7.964   9.863 -0.0637  1.4907 -0.4215
   56MOL0     O 7318   6.552   7.870   9.928 -0.0261  0.5424 -0.8471
   56MOL0     C 7319   6.525   7.838  10.064 -0.3000 -0.3360  0.0185
   56MOL0     C 7320   6.481   7.698  10.079  0.3623  0.5057  0.1544
   56MOL0     C 7321   6.367   7.642   9.980 -0.2079  0.7378  0.3346
   56MOL0     C 7322   6.238   7.717  10.012 -0.4040  0.1558  0.1158
   56MOL0     C 7323   6.159   7.662  10.122 -0.1218  0.0859  0.0423
   56MOL0     C 7324   6.094   7.616  10.210 -0.3331  0.3247  0.3486
   56MOL0     C 7325   6.402   7.914   9.751 -0.5193 -0.2151 -0.0803
   56MOL0     C 7326   6.293   7.990   9.699  0.5291 -0.7633 -0.0993
   56MOL0     H 7327   6.112   8.281   9.357  0.2580 -0.2773 -0.3008
   56MOL0     H 7328   5.908   8.383   9.218 -1.2869  1.0425  0.4525
   56MOL0     H 7329   5.587   8.232   9.271 -0.6809  0.3778  1.5895
   56MOL0     H 7330   5.593   8.368   9.144 -2.3692 -1.0204 -1.1236
   56MOL0     H 7331   5.466   8.494   9.316  3.3265 -1.0291  0.5014
   56MOL0     H 7332   5.410   8.335   9.384 -1.4521  0.3206 -1.1937
   56MOL0     H 7333   5.334   8.264   9.178  1.4784 -1.7454  1.4625
   56MOL0     H 7334   5.357   8.425   9.102  0.3728  3.7069  1.4953
   56MOL0     H 7335   5.180   8.378   9.350 -0.4280 -2.7376 -1.4465
   56MOL0     H 7336   5.206   8.535   9.267  1.7227 -0.2299  1.4225
   56MOL0     H 7337   5.091   8.431   9.063 -0.8946 -0.4089  0.2314
   56MOL0     H 7338   4.996   8.425   9.206 -0.1996 -0.5861  0.1333
   56MOL0     H 7339   5.061   8.186   9.238 -0.2084  0.8408  0.0094
   56MOL0     H 7340   5.160   8.189   9.097 -1.2635 -0.4457  1.2133
   56MOL0     H 7341   4.938   8.234   8.956  1.0152 -1.3119 -1.2410
   56MOL0     H 7342   4.968   8.086   9.028 -0.5023  0.3452  0.1599
   56MOL0     H 7343   4.816   8.302   9.169  2.9414 -1.1877  3.9023
   56MOL0     H 7344   4.831   8.141   9.225  2.5796  0.6426  0.7173
   56MOL0     H 7345   4.705   8.325   8.902 -0.5693  0.5832  0.7553
   56MOL0     H 7346   4.486   8.205   8.709  0.5888  0.2045 -0.5153
   56MOL0     H 7347   4.455   8.347   8.795 -1.6056 -0.0589 -2.3372
   56MOL0     H 7348   4.274   8.270   8.937 -1.3158 -1.1262 -0.0092
   56MOL0     H 7349   4.296   8.107   8.877 -2.9880 -0.4235 -2.8204
   56MOL0     H 7350   4.224   8.357   8.704 -1.3729 -0.0956  0.2507
   56MOL0     H 7351   4.249   8.204   8.633 -0.8996  0.4008 -0.9046
   56MOL0     H 7352   4.051   8.334   8.800 -0.8866 -0.8295 -0.4515
   56MOL0     H 7353   4.068   8.157   8.847 -0.3115  1.5041  1.2395
   56MOL0     H 7354   3.825   8.245   8.871 -2.6624  1.4147  0.7460
   56MOL0     H 7355   3.590   8.228   8.848  0.9351  2.6232  0.3351
   56MOL0     H 7356   3.183   7.982   8.652 -1.8717 -2.4652  2.3319
   56MOL0     H 7357   2.950   7.991   8.658 -1.6780  1.4961 -1.5776
   56MOL0     H 7358   2.717   8.359   8.795  1.4900  0.8687 -1.3975
   56MOL0     H 7359   2.769   8.222   8.894  3.6817  3.2179 -0.5551
   56MOL0     H 7360   2.610   8.073   8.801 -1.1683 -0.8922 -2.0856
   56MOL0     H 7361   2.542   8.181   8.680  0.7297 -1.3566 -0.3057
   56MOL0     H 7362   2.467   8.336   8.831 -0.1622  0.4280  0.4591
   56MOL0     H 7363   2.512   8.257   8.973 -0.8143 -1.1798  0.1008
   56MOL0     H 7364   2.301   8.139   8.781 -0.3201  0.7193 -1.0422
   56MOL0     H 7365   2.350   8.074   8.937  1.2930 -0.6292 -1.1679
   56MOL0     H 7366   2.242   8.362   8.882 -0.9243  0.3890 -0.6577
   56MOL0     H 7367   2.250   8.291   9.046  0.1017 -2.5591  0.4846
   56MOL0     H 7368   2.090   8.119   8.984  2.7773  0.0696  1.9026
   56MOL0     H 7369   2.084   8.190   8.821  1.2347  1.4884 -0.0817
   56MOL0     H 7370   2.038   8.357   9.060  1.8513  0.5604 -0.1554
   56MOL0     H 7371   1.988   8.392   8.893  1.5783  0.7636  0.2099
   56MOL0     H 7372   1.787   8.289   9.053  0.1626 -2.3287  1.1535
   56MOL0     H 7373   1.884   8.142   9.055 -1.0468 -1.1378 -0.0186
   56MOL0     H 7374   2.964   8.405   8.784  0.4610  0.8925  0.5151
   56MOL0     H 7375   3.199   8.385   8.833 -2.5350  1.1043 -1.2085
   56MOL0     H 7376   3.637   8.101   8.434  2.5007  1.0310  0.0827
   56MOL0     H 7377   3.866   8.138   8.451 -0.0205  0.5118  0.1844
   56MOL0     H 7378   5.659   8.302   9.565  0.9592 -0.9039  0.9290
   56MOL0     H 7379   5.850   8.194   9.675 -2.8167  1.9610  1.3656
   56MOL0     H 7380   6.314   8.270   9.893 -2.4039  1.0196 -2.8963
   56MOL0     H 7381   6.494   8.110  10.004  0.4799 -4.4135  0.4135
   56MOL0     H 7382   6.446   7.904  10.102  1.9747  1.7187  1.4978
   56MOL0     H 7383   6.610   7.849  10.132 -0.4347 -1.5950  0.4038
   56MOL0     H 7384   6.562   7.628  10.055 -0.6079 -0.4388 -0.4766
   56MOL0     H 7385   6.447   7.684  10.182 -0.1252  0.8163  0.0404
   56MOL0     H 7386   6.353   7.535   9.993  0.6204  0.3239 -1.8757
   56MOL0     H 7387   6.397   7.664   9.878 -2.3095  0.6951 -0.3375
   56MOL0     H 7388   6.256   7.825  10.012  1.3535 -0.1026  0.0203
   56MOL0     H 7389   6.177   7.714   9.921 -0.4485  1.3950  0.0895
   56MOL0     H 7390   6.044   7.567  10.292  0.3761 -0.1381  0.5143
   56MOL0     H 7391   6.431   7.816   9.716  1.4435  0.8058 -1.4995
   56MOL0     H 7392   6.229   7.938   9.628  0.7730  1.0331 -1.7099
   57MOL0     O 7393   0.454   8.321   1.900  0.0719  0.5330  0.1257
   57MOL0     C 7394   0.547   8.243   1.917  0.0916  0.5690  0.3457
   57MOL0     O 7395   0.543   8.109   1.977 -0.0018 -0.9215 -1.0568
   57MOL0     C 7396   0.421   8.079   2.037  0.2105 -0.7981  1.4109
   57MOL0     C 7397   0.372   8.141   2.150 -0.2205  1.0188 -0.2303
   57MOL0     C 7398   0.259   8.099   2.214 -0.3769  0.3905  0.4994
   57MOL0     C 7399   0.179   7.993   2.161 -0.7691 -0.4236 -0.9261
   57MOL0     O 7400   0.060   7.946   2.214  0.7887  0.0245 -0.3749
   57MOL0     C 7401  -0.017   8.032   2.292 -0.6656  0.6011  0.4167
   57MOL0     C 7402  -0.150   7.966   2.323 -0.7527 -0.1051  0.5656
   57MOL0     C 7403  -0.229   8.054   2.413  0.7555  0.0813 -0.6351
   57MOL0     C 7404  -0.367   7.985   2.416  0.2677 -0.3510 -0.0014
   57MOL0     C 7405  -0.467   8.062   2.498 -0.6600  0.4287  0.2191
   57MOL0     C 7406  -0.419   8.077   2.645  0.2839  0.5893  0.5252
   57MOL0     C 7407  -0.536   8.143   2.718  0.1151 -0.7816 -0.6692
   57MOL0     C 7408  -0.513   8.151   2.875 -0.2530  0.7219  0.2561
   57MOL0     N 7409  -0.627   8.213   2.947  0.2718 -0.5004  0.1162
   57MOL0     C 7410  -0.749   8.155   2.974  0.5115 -0.8519  0.3606
   57MOL0     C 7411  -0.827   8.254   3.025 -0.5491  0.2806  0.8986
   57MOL0     C 7412  -0.971   8.219   3.069  0.1617 -0.0649 -0.4658
   57MOL0     C 7413  -1.075   8.322   3.008 -0.2092 -0.1689 -0.9819
   57MOL0     C 7414  -1.084   8.310   2.860 -0.7362  0.1522  0.3295
   57MOL0     C 7415  -1.157   8.429   2.803 -0.3585  0.7626  0.3420
   57MOL0     O 7416  -1.265   8.474   2.881 -0.3297  0.2804  0.8327
   57MOL0     C 7417  -1.390   8.421   2.861 -0.5672  0.3540  0.5797
   57MOL0     C 7418  -1.492   8.482   2.938 -0.0119  0.2915  1.1594
   57MOL0     C 7419  -1.622   8.440   2.918  0.7542  0.4612 -0.0603
   57MOL0     C 7420  -1.664   8.346   2.828  0.0006  0.3038 -0.1934
   57MOL0     C 7421  -1.801   8.299   2.817 -0.0087  0.1848  0.2536
   57MOL0     O 7422  -1.816   8.179   2.741  0.0324  0.0906 -0.0774
   57MOL0     C 7423  -1.951   8.131   2.736 -0.2101 -0.6734  0.3880
   57MOL0     C 7424  -2.060   8.210   2.705  0.5830  0.1429  1.0711
   57MOL0     C 7425  -2.193   8.150   2.712 -0.1635  0.0640 -1.2207
   57MOL0     C 7426  -2.205   8.008   2.727  0.8488 -0.0310  0.5053
   57MOL0     O 7427  -2.338   7.953   2.720 -0.5702 -0.5959 -0.0925
   57MOL0     C 7428  -2.368   7.838   2.789 -0.4915  0.5001  0.5288
   57MOL0     C 7429  -2.516   7.816   2.803 -0.6583  0.1028  0.0450
   57MOL0     C 7430  -2.590   7.919   2.891 -0.6131  0.1720 -0.4042
   57MOL0     C 7431  -2.732   7.863   2.921  0.2981  0.1692  0.1481
   57MOL0     C 7432  -2.817   7.969   2.995 -0.5006 -0.0602 -0.1877
   57MOL0     C 7433  -2.960   7.912   3.009 -0.6525  0.3151 -0.0672
   57MOL0     C 7434  -3.066   8.021   3.032  0.3813  0.1902 -0.3384
   57MOL0     C 7435  -3.197   7.970   3.003 -0.1679 -0.0620 -0.2400
   57MOL0    Cl 7436  -3.320   8.093   3.047  0.1809  0.5100  0.0594
   57MOL0     C 7437  -2.095   7.934   2.723 -0.3862  0.0891 -0.4590
   57MOL0     C 7438  -1.963   7.995   2.737  0.5320 -0.0136 -0.3042
   57MOL0     O 7439  -1.894   8.364   2.870  0.4105  0.2027  0.0601
   57MOL0     C 7440  -1.559   8.289   2.752 -0.2503  0.4805  0.7719
   57MOL0     C 7441  -1.426   8.313   2.780  0.1893  0.1544  0.5989
   57MOL0     N 7442  -0.743   8.362   3.052  0.0870  0.1464  0.3149
   57MOL0     N 7443  -0.626   8.342   2.995  0.0872  0.6088  0.4516
   57MOL0     C 7444   0.225   7.933   2.047 -0.6142 -1.3732  0.2662
   57MOL0     C 7445   0.344   7.975   1.982 -0.2103  0.6601 -0.7670
   57MOL0     C 7446   0.675   8.276   1.860 -0.8203 -1.3066  0.3800
   57MOL0     C 7447   0.700   8.332   1.732  0.6049 -0.7329 -0.2363
   57MOL0     C 7448   0.824   8.369   1.688 -0.4758  1.0851 -0.2388
   57MOL0     C 7449   0.930   8.342   1.781 -0.4314 -0.5711  0.4581
   57MOL0     O 7450   1.057   8.376   1.755  0.4615  1.1767 -0.6772
   57MOL0     C 7451   1.087   8.468   1.652  0.1061  1.0077  0.0542
   57MOL0     C 7452   1.232   8.483   1.621  0.7103  0.1488  0.3432
   57MOL0     C 7453   1.305   8.349   1.617 -0.1097 -0.7889  0.3114
   57MOL0     C 7454   1.456   8.368   1.588 -0.0336 -0.0455 -0.4547
   57MOL0     C 7455   1.481   8.433   1.462 -0.5103 -1.1120  0.5353
   57MOL0     C 7456   1.488   8.493   1.359  0.0554  0.2731 -1.1331
   57MOL0     C 7457   0.910   8.285   1.904  0.4577  0.2189 -0.2161
   57MOL0     C 7458   0.784   8.255   1.951 -0.1089 -0.2720  0.2102
   57MOL0     H 7459   0.419   8.228   2.196  0.5700 -0.0509  1.0458
   57MOL0     H 7460   0.228   8.152   2.304 -1.3992  2.1325 -0.8054
   57MOL0     H 7461  -0.037   8.125   2.238  0.6719  0.8038  0.2302
   57MOL0     H 7462   0.036   8.068   2.381  2.1800  1.6220 -1.5547
   57MOL0     H 7463  -0.139   7.864   2.362 -0.4200  0.0021  0.7511
   57MOL0     H 7464  -0.197   7.969   2.224  4.2295  0.7453 -2.0698
   57MOL0     H 7465  -0.239   8.150   2.363 -1.8780  0.3191  0.2097
   57MOL0     H 7466  -0.178   8.064   2.509 -1.7537 -0.4806  0.8343
   57MOL0     H 7467  -0.407   7.985   2.314  0.2464  0.4823 -0.0046
   57MOL0     H 7468  -0.359   7.887   2.464  0.6421 -0.5776 -0.5159
   57MOL0     H 7469  -0.557   8.000   2.501  2.2942 -4.5162 -0.8697
   57MOL0     H 7470  -0.475   8.162   2.456 -1.1121  0.2120 -0.2147
   57MOL0     H 7471  -0.324   8.130   2.636  1.2639 -1.0940  0.5434
   57MOL0     H 7472  -0.400   7.975   2.680  3.1438  0.9651  0.2988
   57MOL0     H 7473  -0.547   8.247   2.687  0.2042 -0.5971 -0.0923
   57MOL0     H 7474  -0.631   8.093   2.695 -1.6861 -0.0414  4.0401
   57MOL0     H 7475  -0.414   8.194   2.897  0.0171  1.3036 -1.8422
   57MOL0     H 7476  -0.497   8.050   2.915  3.4366  1.5442  1.2372
   57MOL0     H 7477  -0.782   8.054   2.949 -3.3680  0.3183  0.0745
   57MOL0     H 7478  -0.972   8.221   3.178  0.4352 -4.3396 -0.2370
   57MOL0     H 7479  -0.997   8.120   3.032  0.7466 -0.9891  1.4951
   57MOL0     H 7480  -1.031   8.417   3.039  1.2557 -1.7870  2.5356
   57MOL0     H 7481  -1.172   8.315   3.057  1.4258  0.5171  2.7076
   57MOL0     H 7482  -0.987   8.295   2.812 -0.7947  2.0554 -0.4832
   57MOL0     H 7483  -1.146   8.222   2.841  0.1874 -0.7924  1.5853
   57MOL0     H 7484  -1.180   8.414   2.697  2.4656 -1.0029 -0.1117
   57MOL0     H 7485  -1.085   8.510   2.815 -1.5391  1.9017 -0.0704
   57MOL0     H 7486  -1.461   8.555   3.012 -1.3099 -0.1396  2.1737
   57MOL0     H 7487  -1.706   8.489   2.966  0.5337  1.2684 -1.1980
   57MOL0     H 7488  -2.052   8.317   2.696 -0.9377  0.1715 -0.8536
   57MOL0     H 7489  -2.277   8.217   2.729 -0.7530 -0.8529 -0.3958
   57MOL0     H 7490  -2.319   7.845   2.886 -0.4646  2.1494  0.4250
   57MOL0     H 7491  -2.317   7.750   2.748 -1.2532 -0.4593  1.5684
   57MOL0     H 7492  -2.520   7.721   2.858  0.0643 -0.0371 -0.1360
   57MOL0     H 7493  -2.560   7.799   2.704  0.9801 -1.0201 -0.5425
   57MOL0     H 7494  -2.600   8.014   2.838 -2.0435 -0.4061 -1.1916
   57MOL0     H 7495  -2.538   7.934   2.986 -2.8358  0.6725  0.8008
   57MOL0     H 7496  -2.780   7.827   2.830 -2.2296 -0.3042  1.5715
   57MOL0     H 7497  -2.733   7.777   2.988  0.4331 -0.3472 -0.5030
   57MOL0     H 7498  -2.824   8.060   2.933  0.6337 -0.0549 -0.3406
   57MOL0     H 7499  -2.782   7.990   3.096  1.7843 -1.1638 -0.6966
   57MOL0     H 7500  -2.974   7.841   3.091 -0.2419  1.0228  0.6287
   57MOL0     H 7501  -2.979   7.857   2.916  0.1865  1.6640 -1.0761
   57MOL0     H 7502  -3.057   8.051   3.137  0.9837 -1.8899  0.2559
   57MOL0     H 7503  -3.047   8.111   2.972  3.4370  0.5956  1.0252
   57MOL0     H 7504  -3.213   7.875   3.055 -0.7382  0.9441  1.4790
   57MOL0     H 7505  -3.223   7.944   2.899 -3.8732 -1.1139  0.8042
   57MOL0     H 7506  -2.115   7.829   2.743 -1.1593  0.6580  2.1392
   57MOL0     H 7507  -1.870   7.949   2.769  0.9325  2.0764  1.9284
   57MOL0     H 7508  -1.589   8.214   2.679  2.5833  0.1000 -0.1180
   57MOL0     H 7509  -1.346   8.260   2.729  0.2830  0.5514  0.3295
   57MOL0     H 7510   0.162   7.858   2.000 -0.6506  0.6409 -3.2369
   57MOL0     H 7511   0.380   7.933   1.888  2.6206 -1.5439  1.1598
   57MOL0     H 7512   0.613   8.352   1.671 -0.6226  1.3768  2.0635
   57MOL0     H 7513   0.851   8.395   1.586 -0.3504 -1.9933 -1.0881
   57MOL0     H 7514   1.037   8.561   1.682  0.6385  0.8143  1.6264
   57MOL0     H 7515   1.044   8.427   1.560  0.5531  0.1698  0.2077
   57MOL0     H 7516   1.241   8.543   1.531  0.8317 -1.9174 -1.0870
   57MOL0     H 7517   1.274   8.545   1.700  0.7548  2.1373 -1.1850
   57MOL0     H 7518   1.264   8.283   1.540 -2.3224  1.6021 -0.7124
   57MOL0     H 7519   1.295   8.300   1.714 -1.4077  1.4024  1.3585
   57MOL0     H 7520   1.497   8.421   1.674 -0.4061 -2.1760  1.1037
   57MOL0     H 7521   1.504   8.270   1.589  0.1847  0.0672  0.7480
   57MOL0     H 7522   1.482   8.528   1.258  1.9752  0.0093 -1.3737
   57MOL0     H 7523   1.002   8.264   1.958 -0.1999 -0.4038  0.7076
   57MOL0     H 7524   0.780   8.215   2.052 -2.1123 -1.8937 -0.4535
   58MOL0     O 7525   9.347   1.412   4.706  0.0404  0.2739 -0.1799
   58MOL0     C 7526   9.282   1.365   4.804 -0.2470  0.8446 -0.2389
   58MOL0     O 7527   9.327   1.277   4.892 -0.3904  0.3052 -0.0654
   58MOL0     C 7528   9.454   1.237   4.886  0.4178  0.4667 -0.5742
   58MOL0     C 7529   9.552   1.300   4.965  0.5020  0.0434  0.3398
   58MOL0     C 7530   9.683   1.240   4.967 -0.2638 -0.2413  0.4893
   58MOL0     C 7531   9.713   1.129   4.875  0.1599 -0.6329 -0.1181
   58MOL0     O 7532   9.836   1.065   4.874 -0.0332 -0.0265 -0.1580
   58MOL0     C 7533   9.951   1.145   4.919 -0.5556 -0.5220 -1.0599
   58MOL0     C 7534  10.088   1.091   4.862  0.9574  0.3672  0.2724
   58MOL0     C 7535  10.129   0.964   4.932  0.2984 -0.0535 -0.0385
   58MOL0     C 7536  10.263   0.924   4.898 -0.3569 -0.1105 -0.5262
   58MOL0     C 7537  10.291   0.785   4.954 -0.8605  0.0402  0.5750
   58MOL0     C 7538  10.434   0.730   4.897  0.4375  0.4553  0.3530
   58MOL0     C 7539  10.554   0.806   4.952 -0.8062  0.7359 -0.4838
   58MOL0     C 7540  10.651   0.713   5.032 -0.2910  0.0350 -0.8491
   58MOL0     N 7541  10.605   0.663   5.161 -0.3996 -0.3511 -0.0341
   58MOL0     C 7542  10.513   0.562   5.192  0.3738  0.7039 -0.2282
   58MOL0     C 7543  10.504   0.560   5.324  0.3640 -0.1206 -0.0980
   58MOL0     C 7544  10.427   0.464   5.412 -0.6961 -0.5552 -0.1349
   58MOL0     C 7545  10.291   0.521   5.435  0.4158 -0.0997 -0.2425
   58MOL0     C 7546  10.218   0.608   5.320 -0.7275 -0.4337  0.1629
   58MOL0     C 7547  10.075   0.638   5.364 -0.0317 -0.8830 -0.7030
   58MOL0     O 7548  10.000   0.526   5.424  0.0796  0.1803  0.5457
   58MOL0     C 7549   9.874   0.557   5.461  0.1789 -0.2401 -0.3414
   58MOL0     C 7550   9.796   0.653   5.408  0.4763 -0.1514  0.5201
   58MOL0     C 7551   9.662   0.667   5.453 -0.0430 -0.9055 -0.4254
   58MOL0     C 7552   9.602   0.575   5.543  0.8197 -0.7008 -0.1508
   58MOL0     C 7553   9.455   0.589   5.583 -0.9548  0.0205 -0.1311
   58MOL0     O 7554   9.396   0.705   5.561  0.1994 -0.7424 -0.3967
   58MOL0     C 7555   9.266   0.740   5.591 -0.2864 -0.1986  0.1998
   58MOL0     C 7556   9.236   0.873   5.583 -0.3530  0.2218 -0.2096
   58MOL0     C 7557   9.107   0.917   5.607 -0.1343 -0.1505  0.1852
   58MOL0     C 7558   9.006   0.829   5.639  0.3480  0.8730  0.9079
   58MOL0     O 7559   8.878   0.869   5.664  0.3499 -0.3738  0.7963
   58MOL0     C 7560   8.846   1.016   5.660 -0.3920 -0.2987 -0.3702
   58MOL0     C 7561   8.692   1.043   5.680 -0.5004  0.3397  0.8072
   58MOL0     C 7562   8.600   0.949   5.605 -0.0279 -0.8285  0.1326
   58MOL0     C 7563   8.458   1.006   5.626 -0.3955  0.0334  0.4991
   58MOL0     C 7564   8.357   0.913   5.562 -0.3300 -0.1172 -0.1273
   58MOL0     C 7565   8.221   0.991   5.574  0.5873  0.1986  0.5839
   58MOL0     C 7566   8.102   0.890   5.548 -0.3912  0.5464  0.5002
   58MOL0     C 7567   8.123   0.848   5.397  0.5916  0.0935  0.6681
   58MOL0    Cl 7568   7.960   0.791   5.341  0.0045 -0.0954 -0.3861
   58MOL0     C 7569   9.027   0.696   5.636 -0.7051 -0.1173 -0.3516
   58MOL0     C 7570   9.160   0.650   5.629  0.1716  0.1744  0.3263
   58MOL0     O 7571   9.411   0.501   5.659  0.5216  0.8708 -0.0356
   58MOL0     C 7572   9.686   0.476   5.595  0.4661  0.4190  0.8367
   58MOL0     C 7573   9.817   0.479   5.566 -0.1153  0.6033  0.4468
   58MOL0     N 7574  10.580   0.665   5.378  0.5706 -0.1757 -0.5535
   58MOL0     N 7575  10.639   0.723   5.276  0.7944 -0.6891 -0.5965
   58MOL0     C 7576   9.613   1.079   4.794 -0.0736 -0.5918 -0.7185
   58MOL0     C 7577   9.487   1.129   4.801 -0.1866 -0.3547  0.3079
   58MOL0     C 7578   9.131   1.392   4.807  0.5005 -0.4437  0.0712
   58MOL0     C 7579   9.072   1.439   4.684 -0.0503 -1.2333  0.2166
   58MOL0     C 7580   8.939   1.465   4.685 -0.0950 -0.4875  0.1165
   58MOL0     C 7581   8.858   1.446   4.794 -0.6465 -0.3843  0.2798
   58MOL0     O 7582   8.736   1.501   4.794 -0.7095  0.2272 -0.0542
   58MOL0     C 7583   8.638   1.460   4.901 -0.8806  0.6372  0.8557
   58MOL0     C 7584   8.518   1.534   4.863  0.0068 -0.1905  0.4875
   58MOL0     C 7585   8.406   1.527   4.969  0.0399  0.2765 -0.5581
   58MOL0     C 7586   8.455   1.584   5.110  0.4005  0.3136  0.5865
   58MOL0     C 7587   8.345   1.613   5.204 -0.4741 -0.4383 -0.0776
   58MOL0     C 7588   8.259   1.641   5.285  0.0858 -1.1871  0.1528
   58MOL0     C 7589   8.912   1.373   4.903 -0.2887 -0.6593 -0.4757
   58MOL0     C 7590   9.052   1.357   4.921 -0.1226 -0.3420 -0.1492
   58MOL0     H 7591   9.526   1.381   5.033  0.9894  1.1306 -0.7279
   58MOL0     H 7592   9.762   1.273   5.034  1.6308  3.5617 -3.1826
   58MOL0     H 7593   9.946   1.158   5.027  0.7619  2.5096 -1.2552
   58MOL0     H 7594   9.947   1.243   4.871  1.2353 -0.2411 -0.7182
   58MOL0     H 7595  10.164   1.163   4.893 -0.8535  0.9579  3.9215
   58MOL0     H 7596  10.076   1.070   4.756  0.1505  1.0116  0.2275
   58MOL0     H 7597  10.061   0.886   4.897  2.3214 -1.7593 -0.4130
   58MOL0     H 7598  10.122   0.974   5.041  2.2972 -1.8993  0.3258
   58MOL0     H 7599  10.277   0.928   4.790 -0.1212  0.5241 -0.4774
   58MOL0     H 7600  10.340   0.986   4.946 -0.2282  1.5096 -2.6864
   58MOL0     H 7601  10.210   0.724   4.912 -1.4968  1.6784 -0.7107
   58MOL0     H 7602  10.291   0.786   5.063  0.9531  3.3803  0.6854
   58MOL0     H 7603  10.435   0.747   4.789  0.0632  0.7600  0.3941
   58MOL0     H 7604  10.448   0.622   4.910  3.6507  0.8510  0.9815
   58MOL0     H 7605  10.612   0.857   4.874 -0.3919  0.3347 -0.4444
   58MOL0     H 7606  10.512   0.885   5.015  0.7684  1.4330 -0.2633
   58MOL0     H 7607  10.742   0.770   5.052  0.7134 -1.5718 -0.6367
   58MOL0     H 7608  10.684   0.633   4.965  3.5943  1.9694 -1.5774
   58MOL0     H 7609  10.459   0.503   5.119  0.5015  1.3261 -0.8425
   58MOL0     H 7610  10.471   0.456   5.511 -0.8031  3.4847  0.4214
   58MOL0     H 7611  10.418   0.366   5.364 -3.7529 -1.0250  1.1770
   58MOL0     H 7612  10.298   0.588   5.521 -2.6534  0.5969 -0.4189
   58MOL0     H 7613  10.228   0.435   5.460  0.8268  0.1454  1.7399
   58MOL0     H 7614  10.277   0.695   5.291  0.2174  0.4185  4.1048
   58MOL0     H 7615  10.208   0.538   5.236 -0.1194 -0.5007  0.1450
   58MOL0     H 7616  10.024   0.680   5.277 -0.8872 -1.1836 -0.3603
   58MOL0     H 7617  10.083   0.719   5.437  0.2990 -1.0718 -0.5265
   58MOL0     H 7618   9.841   0.727   5.343  1.1963 -1.5175 -0.5834
   58MOL0     H 7619   9.603   0.755   5.428  1.1289  0.1915  0.5432
   58MOL0     H 7620   9.304   0.950   5.550  0.5586 -0.5916 -0.2881
   58MOL0     H 7621   9.087   1.024   5.601  2.8949  0.4456 -1.6279
   58MOL0     H 7622   8.878   1.051   5.562 -1.6071 -3.1825 -1.9253
   58MOL0     H 7623   8.907   1.065   5.736 -1.6596 -0.4706  0.8097
   58MOL0     H 7624   8.675   1.148   5.657  0.2638  0.2761 -0.0894
   58MOL0     H 7625   8.679   1.038   5.789  2.4066  1.5632  1.3096
   58MOL0     H 7626   8.621   0.847   5.640  1.0064 -0.1121  1.6780
   58MOL0     H 7627   8.621   0.952   5.497 -2.6727 -0.7132 -0.4384
   58MOL0     H 7628   8.442   1.022   5.733  0.6805  0.5099  0.5980
   58MOL0     H 7629   8.451   1.102   5.574  2.4821  1.0508  1.8040
   58MOL0     H 7630   8.348   0.821   5.620  2.1700 -1.2104 -1.3165
   58MOL0     H 7631   8.384   0.896   5.457 -0.7475  0.1390 -0.2795
   58MOL0     H 7632   8.209   1.072   5.502 -3.0423  1.7408  2.6195
   58MOL0     H 7633   8.214   1.044   5.670 -1.4806  0.5422  0.2859
   58MOL0     H 7634   8.111   0.799   5.608 -0.7562 -0.2025 -0.5629
   58MOL0     H 7635   8.005   0.936   5.567  0.5260  2.7188  0.2351
   58MOL0     H 7636   8.187   0.760   5.386 -0.1146 -0.1242 -3.2191
   58MOL0     H 7637   8.160   0.932   5.337 -1.0596  0.3021 -0.1138
   58MOL0     H 7638   8.947   0.627   5.659 -0.3062 -2.1197 -4.1238
   58MOL0     H 7639   9.180   0.545   5.645  3.7614  0.3473 -1.9088
   58MOL0     H 7640   9.644   0.408   5.669 -0.5226  0.1282  0.0240
   58MOL0     H 7641   9.884   0.402   5.602 -0.6845 -1.2194 -2.1047
   58MOL0     H 7642   9.632   0.998   4.724 -0.7328 -0.1696 -1.4157
   58MOL0     H 7643   9.407   1.085   4.742  0.8344  1.6547 -2.8837
   58MOL0     H 7644   9.122   1.470   4.593  0.8477 -1.7619  0.5236
   58MOL0     H 7645   8.895   1.506   4.595 -0.8724 -3.2745 -0.8560
   58MOL0     H 7646   8.667   1.487   5.003 -1.4304  1.3444  0.8326
   58MOL0     H 7647   8.620   1.352   4.895  1.8198  0.1399 -0.0218
   58MOL0     H 7648   8.537   1.641   4.851 -2.3498  0.1835 -0.5417
   58MOL0     H 7649   8.481   1.500   4.766 -0.2850 -0.1946  0.5993
   58MOL0     H 7650   8.370   1.424   4.967  2.4024 -0.6063 -1.8958
   58MOL0     H 7651   8.333   1.600   4.933  3.2425  3.1440 -1.7903
   58MOL0     H 7652   8.526   1.516   5.159  1.0414  2.5250  2.8924
   58MOL0     H 7653   8.511   1.675   5.087 -1.4562  1.2746 -0.3915
   58MOL0     H 7654   8.182   1.691   5.341  0.7358  0.7778 -0.6214
   58MOL0     H 7655   8.849   1.330   4.980 -2.3464 -3.2280 -3.3466
   58MOL0     H 7656   9.096   1.323   5.014  2.3123 -1.9689 -1.7829
   59MOL0     O 7657   0.411   0.366   1.180  0.0579 -0.3793 -0.0414
   59MOL0     C 7658   0.429   0.488   1.215  0.3756 -0.2126  0.6278
   59MOL0     O 7659   0.329   0.572   1.265 -0.4183 -0.0111 -0.5892
   59MOL0     C 7660   0.198   0.530   1.256  0.2001  0.5144  0.8333
   59MOL0     C 7661   0.137   0.462   1.147 -0.1355  0.3382 -0.0573
   59MOL0     C 7662   0.011   0.409   1.158  0.0377  0.4297  0.4582
   59MOL0     C 7663  -0.073   0.429   1.275  0.4762  0.1504  0.6557
   59MOL0     O 7664  -0.204   0.390   1.284  0.0081  0.2751  0.1212
   59MOL0     C 7665  -0.270   0.288   1.205 -0.1744  0.1850 -0.0481
   59MOL0     C 7666  -0.404   0.286   1.277  0.8850 -0.1330  0.0404
   59MOL0     C 7667  -0.499   0.195   1.205 -0.2216 -0.1714 -0.2667
   59MOL0     C 7668  -0.635   0.209   1.258  0.4528  0.2322 -0.4256
   59MOL0     C 7669  -0.711   0.071   1.253  0.1361  0.1120  0.4035
   59MOL0     C 7670  -0.742   0.039   1.109 -0.1654  0.3933  0.0001
   59MOL0     C 7671  -0.816  -0.097   1.109  0.7608  1.0342 -0.7080
   59MOL0     C 7672  -0.966  -0.074   1.129 -0.0769 -0.1884  0.4725
   59MOL0     N 7673  -1.034  -0.192   1.074  0.3795 -0.1713  0.2631
   59MOL0     C 7674  -1.112  -0.188   0.956  0.7613  0.3431  0.0554
   59MOL0     C 7675  -1.160  -0.317   0.952  0.7223 -0.1483  0.3974
   59MOL0     C 7676  -1.252  -0.364   0.844  0.0908  0.2231 -0.1413
   59MOL0     C 7677  -1.355  -0.458   0.895 -0.5214  0.9081  0.0870
   59MOL0     C 7678  -1.463  -0.470   0.784  0.5379 -0.0518 -0.2317
   59MOL0     C 7679  -1.575  -0.563   0.811  0.0844 -0.3923 -0.1502
   59MOL0     O 7680  -1.664  -0.555   0.693 -0.1652  0.1415  0.6143
   59MOL0     C 7681  -1.800  -0.587   0.713 -1.3503  0.3573  0.5765
   59MOL0     C 7682  -1.893  -0.541   0.621  0.3092 -0.4477  0.4587
   59MOL0     C 7683  -2.026  -0.575   0.623  0.3048  0.1556  0.2609
   59MOL0     C 7684  -2.066  -0.673   0.719 -0.8967 -0.3024  0.0472
   59MOL0     C 7685  -2.203  -0.714   0.720 -0.0078  0.0758  1.6811
   59MOL0     O 7686  -2.300  -0.648   0.647 -0.1491  0.0213  0.3054
   59MOL0     C 7687  -2.431  -0.678   0.655  0.0439  0.0155  0.0971
   59MOL0     C 7688  -2.504  -0.651   0.542  0.6362 -0.1363  0.7297
   59MOL0     C 7689  -2.647  -0.681   0.538 -0.3413  0.4135 -0.6684
   59MOL0     C 7690  -2.722  -0.713   0.654  0.2532  0.1114 -0.0943
   59MOL0     O 7691  -2.858  -0.756   0.659 -0.6150 -0.5065  0.0181
   59MOL0     C 7692  -2.928  -0.696   0.768  0.2532 -0.1620 -0.0087
   59MOL0     C 7693  -3.046  -0.616   0.721  0.4986 -0.3144  0.0049
   59MOL0     C 7694  -3.171  -0.702   0.679 -0.1371 -0.5581 -0.3217
   59MOL0     C 7695  -3.251  -0.740   0.810 -0.9224  0.0382 -0.4154
   59MOL0     C 7696  -3.375  -0.829   0.776 -0.3165  0.3598  0.4829
   59MOL0     C 7697  -3.343  -0.977   0.742 -0.4845 -1.3192 -0.2504
   59MOL0     C 7698  -3.321  -1.053   0.877  0.3327  0.2202 -0.0664
   59MOL0     C 7699  -3.310  -1.200   0.849  0.8535 -0.0706  0.2160
   59MOL0    Cl 7700  -3.297  -1.278   1.007 -0.3569 -0.2746  0.2812
   59MOL0     C 7701  -2.636  -0.741   0.774 -0.7785 -0.0845  0.3945
   59MOL0     C 7702  -2.497  -0.721   0.773 -0.3355 -0.4683  0.7238
   59MOL0     O 7703  -2.222  -0.816   0.791 -0.1935  0.4343  0.1432
   59MOL0     C 7704  -1.977  -0.726   0.817 -0.1271 -0.4174  0.2954
   59MOL0     C 7705  -1.845  -0.675   0.815 -0.3561  0.4299  0.1972
   59MOL0     N 7706  -1.104  -0.392   1.046  0.4055 -0.6404 -1.2733
   59MOL0     N 7707  -1.031  -0.326   1.121 -0.0805  0.1247 -0.2771
   59MOL0     C 7708  -0.008   0.501   1.381 -0.0954 -0.1001 -0.3494
   59MOL0     C 7709   0.121   0.556   1.363  0.2164 -0.4146 -0.3985
   59MOL0     C 7710   0.564   0.544   1.193 -0.0242 -0.7394  0.6163
   59MOL0     C 7711   0.672   0.471   1.134  0.3757  0.3130  0.1567
   59MOL0     C 7712   0.787   0.542   1.109 -0.3612 -0.0522  0.0724
   59MOL0     C 7713   0.795   0.676   1.132 -0.1155 -0.0765  0.5862
   59MOL0     O 7714   0.910   0.747   1.108 -0.1593  0.0718  0.4787
   59MOL0     C 7715   1.020   0.686   1.040 -0.1757 -0.0096 -0.0620
   59MOL0     C 7716   1.115   0.628   1.142  0.5833 -0.0859  0.0563
   59MOL0     C 7717   1.246   0.562   1.080 -0.4065 -0.5720 -0.7230
   59MOL0     C 7718   1.335   0.493   1.180 -0.3553  0.4550  0.2633
   59MOL0     C 7719   1.450   0.432   1.105  0.0457 -0.2780  0.7506
   59MOL0     C 7720   1.550   0.382   1.049 -0.0293  0.0724  0.4260
   59MOL0     C 7721   0.695   0.748   1.199  1.1858 -0.3523 -0.6318
   59MOL0     C 7722   0.578   0.678   1.236 -0.3261 -0.4731  0.7228
   59MOL0     H 7723   0.186   0.439   1.053  2.9462  1.9013  1.0201
   59MOL0     H 7724  -0.033   0.355   1.075 -1.1900 -1.2684  2.1316
   59MOL0     H 7725  -0.212   0.195   1.206  1.5111  1.1857 -1.3707
   59MOL0     H 7726  -0.286   0.320   1.102  0.3065  1.0194  0.1338
   59MOL0     H 7727  -0.442   0.388   1.274  2.6295  0.5388 -1.4014
   59MOL0     H 7728  -0.388   0.253   1.380  0.7514 -4.6476 -1.1566
   59MOL0     H 7729  -0.460   0.094   1.195 -0.0827  0.0260 -2.0585
   59MOL0     H 7730  -0.510   0.229   1.101  0.7816  1.5094  0.1315
   59MOL0     H 7731  -0.629   0.253   1.358  0.8787  0.0600 -0.3718
   59MOL0     H 7732  -0.699   0.283   1.210  3.4571  1.7080 -2.4910
   59MOL0     H 7733  -0.805   0.069   1.308  0.1701 -0.5627  0.4467
   59MOL0     H 7734  -0.644  -0.005   1.295  0.0468 -0.1572  0.0750
   59MOL0     H 7735  -0.660   0.022   1.038 -0.2822  0.3110 -0.1156
   59MOL0     H 7736  -0.791   0.129   1.071 -0.6004  0.7338  1.3443
   59MOL0     H 7737  -0.790  -0.145   1.014  1.7044 -0.0038  0.0435
   59MOL0     H 7738  -0.783  -0.171   1.183  0.0084 -2.3920 -3.5049
   59MOL0     H 7739  -1.011   0.017   1.087  0.5208  0.9155  2.1400
   59MOL0     H 7740  -0.992  -0.073   1.235 -4.4770  1.9173 -0.3815
   59MOL0     H 7741  -1.132  -0.117   0.877 -0.8075 -1.6643 -1.4812
   59MOL0     H 7742  -1.188  -0.401   0.763 -0.6269  1.5689 -1.3566
   59MOL0     H 7743  -1.300  -0.285   0.786 -0.8097 -0.4736 -0.3626
   59MOL0     H 7744  -1.394  -0.411   0.986  3.2261  1.7047  1.4687
   59MOL0     H 7745  -1.315  -0.554   0.929  1.8950  1.4966 -0.9071
   59MOL0     H 7746  -1.511  -0.374   0.764  1.6459  0.4901 -0.3350
   59MOL0     H 7747  -1.413  -0.501   0.693  3.5610  2.3754  0.4240
   59MOL0     H 7748  -1.625  -0.540   0.905  0.0632  1.8716 -0.6460
   59MOL0     H 7749  -1.525  -0.660   0.815  1.1812  0.0289 -2.2284
   59MOL0     H 7750  -1.849  -0.470   0.551  0.3338  0.6901  1.5909
   59MOL0     H 7751  -2.095  -0.539   0.547 -0.6695 -2.4811 -0.2191
   59MOL0     H 7752  -2.464  -0.590   0.461  0.2250 -0.2575  0.4292
   59MOL0     H 7753  -2.707  -0.659   0.451 -1.2281  0.5180 -0.0450
   59MOL0     H 7754  -2.875  -0.619   0.824  0.3213  0.8644 -1.4105
   59MOL0     H 7755  -2.958  -0.769   0.844 -4.2916  2.9696  1.5912
   59MOL0     H 7756  -3.015  -0.556   0.635 -0.1914  1.1011  0.7133
   59MOL0     H 7757  -3.074  -0.549   0.802 -1.0576 -0.9363  0.0272
   59MOL0     H 7758  -3.148  -0.792   0.621  0.8816 -0.8307  0.4864
   59MOL0     H 7759  -3.238  -0.639   0.620 -1.5381 -1.4410  0.2527
   59MOL0     H 7760  -3.197  -0.793   0.888 -0.3387  0.8623 -0.2456
   59MOL0     H 7761  -3.285  -0.641   0.845  1.2470  1.2216 -1.4730
   59MOL0     H 7762  -3.417  -0.787   0.685  0.3522  0.7993  0.3743
   59MOL0     H 7763  -3.454  -0.820   0.851 -2.8696 -0.6583 -1.8822
   59MOL0     H 7764  -3.260  -0.982   0.670  0.4292  1.1232  0.5333
   59MOL0     H 7765  -3.424  -1.018   0.682 -0.6475 -0.6553 -0.4915
   59MOL0     H 7766  -3.223  -1.025   0.918  2.1608 -2.9507 -1.8318
   59MOL0     H 7767  -3.403  -1.040   0.948 -0.6085 -1.5808 -0.7679
   59MOL0     H 7768  -3.224  -1.203   0.782  0.2716  0.6420 -0.5773
   59MOL0     H 7769  -3.399  -1.240   0.801 -0.7373  2.4133  0.8997
   59MOL0     H 7770  -2.689  -0.770   0.864 -1.4051  1.5663  0.5881
   59MOL0     H 7771  -2.432  -0.724   0.860  2.1664  2.8307 -0.8078
   59MOL0     H 7772  -2.018  -0.797   0.888 -2.9330 -2.3086 -2.8983
   59MOL0     H 7773  -1.780  -0.710   0.894  1.0766  0.8219 -0.7701
   59MOL0     H 7774  -0.071   0.525   1.466 -0.5493  0.5956 -0.8706
   59MOL0     H 7775   0.174   0.596   1.449  2.6531 -3.0833 -0.5251
   59MOL0     H 7776   0.665   0.366   1.110 -0.3590  0.6373 -1.1561
   59MOL0     H 7777   0.859   0.480   1.057 -0.1225  2.5416 -2.9696
   59MOL0     H 7778   1.069   0.758   0.973  1.5594  0.1907  1.3467
   59MOL0     H 7779   0.996   0.605   0.970 -0.9566  1.7130 -1.8906
   59MOL0     H 7780   1.145   0.708   1.210  0.6336 -0.0439 -0.0147
   59MOL0     H 7781   1.061   0.552   1.199 -2.3164  0.6212 -1.5187
   59MOL0     H 7782   1.308   0.643   1.041 -0.0461 -0.4534  0.0743
   59MOL0     H 7783   1.216   0.499   0.996 -2.3954  1.7023 -1.8419
   59MOL0     H 7784   1.372   0.565   1.253 -0.3623  0.6681  0.0567
   59MOL0     H 7785   1.280   0.414   1.234 -2.3438  0.2657 -1.8608
   59MOL0     H 7786   1.640   0.351   1.002  1.8821  2.9417  1.8919
   59MOL0     H 7787   0.700   0.854   1.222 -2.6111 -0.3026  0.7336
   59MOL0     H 7788   0.497   0.736   1.279  1.5105  1.6902  1.4531
   60MOL0     O 7789   2.683   7.593   6.392 -0.8444  0.5156  0.4227
   60MOL0     C 7790   2.691   7.541   6.501 -1.2018  0.6440 -0.0525
   60MOL0     O 7791   2.598   7.548   6.600 -0.4453  0.1315 -0.5343
   60MOL0     C 7792   2.477   7.614   6.588 -0.8210 -0.2504  0.1751
   60MOL0     C 7793   2.456   7.742   6.528  0.1781  0.5597  0.3557
   60MOL0     C 7794   2.326   7.803   6.535 -0.7388 -0.4258 -0.6531
   60MOL0     C 7795   2.221   7.735   6.596 -0.1095  0.1043 -0.2366
   60MOL0     O 7796   2.098   7.783   6.622  0.4158 -0.6427 -0.1878
   60MOL0     C 7797   2.072   7.928   6.604  0.0287 -0.6516 -0.4395
   60MOL0     C 7798   1.934   7.969   6.661  0.2217  0.2422 -0.1362
   60MOL0     C 7799   1.881   8.100   6.615  0.8387  0.4054  0.8035
   60MOL0     C 7800   1.772   8.164   6.699 -0.4682  0.1254 -0.0682
   60MOL0     C 7801   1.640   8.096   6.689 -0.2481  0.6889  0.3396
   60MOL0     C 7802   1.536   8.178   6.770 -0.1921  0.4173 -0.8288
   60MOL0     C 7803   1.408   8.091   6.786  0.6585 -0.5118 -0.0771
   60MOL0     C 7804   1.314   8.163   6.891 -0.2012  0.6526 -0.2809
   60MOL0     N 7805   1.170   8.116   6.904 -1.4551 -0.3344 -0.1490
   60MOL0     C 7806   1.101   8.030   6.821  0.8410  0.7001 -0.5230
   60MOL0     C 7807   0.966   8.045   6.854  0.6818 -0.1026 -0.2582
   60MOL0     C 7808   0.839   7.981   6.801  0.5357 -0.8690 -0.1114
   60MOL0     C 7809   0.739   8.090   6.767  0.4659 -0.4680 -0.1659
   60MOL0     C 7810   0.598   8.032   6.745  0.2647  0.3216  0.0295
   60MOL0     C 7811   0.516   8.134   6.666 -0.8267  0.2398  0.5164
   60MOL0     O 7812   0.388   8.086   6.640 -0.1418  0.3100  0.0778
   60MOL0     C 7813   0.300   8.112   6.744 -0.2574  0.0022  0.0205
   60MOL0     C 7814   0.272   8.244   6.775  0.7196 -0.0552  0.7553
   60MOL0     C 7815   0.168   8.273   6.856  0.4548 -0.1480  0.0301
   60MOL0     C 7816   0.088   8.175   6.912 -0.5098 -0.3133 -0.6026
   60MOL0     C 7817  -0.027   8.199   6.999 -0.2855  0.2142 -0.4153
   60MOL0     O 7818  -0.086   8.322   6.975 -0.4603  0.4171  0.2844
   60MOL0     C 7819  -0.203   8.351   7.041 -0.4121  0.2994 -0.2752
   60MOL0     C 7820  -0.315   8.276   7.033  0.5167 -0.4588  0.2815
   60MOL0     C 7821  -0.430   8.322   7.093  1.3329 -0.3999  0.5190
   60MOL0     C 7822  -0.420   8.431   7.177  0.5887 -0.1415 -0.1728
   60MOL0     O 7823  -0.526   8.470   7.258 -1.2817 -0.5072  0.3031
   60MOL0     C 7824  -0.642   8.521   7.197  0.6398  0.0645 -0.0778
   60MOL0     C 7825  -0.779   8.527   7.270 -0.4820  0.0889 -0.1102
   60MOL0     C 7826  -0.815   8.397   7.334 -0.6905  0.6540  0.7569
   60MOL0     C 7827  -0.938   8.414   7.427  0.1163 -0.1865 -0.2806
   60MOL0     C 7828  -1.062   8.467   7.353 -0.0491 -0.0871 -0.4171
   60MOL0     C 7829  -1.187   8.447   7.445  0.9871 -0.2332  0.0576
   60MOL0     C 7830  -1.310   8.520   7.391  1.1185 -0.5039  0.2055
   60MOL0     C 7831  -1.431   8.499   7.497 -0.3341  0.2989 -1.4789
   60MOL0    Cl 7832  -1.574   8.607   7.477 -0.2793  0.1298  0.1438
   60MOL0     C 7833  -0.298   8.488   7.206 -0.4211  0.5124 -0.1630
   60MOL0     C 7834  -0.189   8.450   7.137  0.8033 -0.4793 -0.1223
   60MOL0     O 7835  -0.064   8.118   7.081 -0.1851 -0.3032  0.2674
   60MOL0     C 7836   0.115   8.042   6.883 -0.1320  0.2917 -0.0576
   60MOL0     C 7837   0.220   8.011   6.795 -0.4976 -0.0487 -0.1163
   60MOL0     N 7838   0.965   8.128   6.969  0.7467 -0.6722 -0.5698
   60MOL0     N 7839   1.086   8.174   6.988 -0.3321  0.1353  0.6163
   60MOL0     C 7840   2.249   7.618   6.662 -0.4223 -0.2831 -0.9488
   60MOL0     C 7841   2.374   7.556   6.663 -0.2450  0.2895  0.0383
   60MOL0     C 7842   2.819   7.464   6.538  0.4428 -0.4506 -0.6930
   60MOL0     C 7843   2.841   7.416   6.668  0.6748 -0.6917  0.6656
   60MOL0     C 7844   2.969   7.351   6.705  0.4423 -0.6527  0.3681
   60MOL0     C 7845   3.063   7.334   6.609 -0.3331 -0.4606  0.4034
   60MOL0     O 7846   3.177   7.258   6.641 -0.2107  0.2873 -0.2918
   60MOL0     C 7847   3.297   7.283   6.569 -1.1487  0.3070  0.0778
   60MOL0     C 7848   3.404   7.194   6.634 -0.1759  0.5037 -0.2253
   60MOL0     C 7849   3.534   7.216   6.564 -0.5508 -0.1460 -0.5148
   60MOL0     C 7850   3.622   7.086   6.575  0.2581 -1.1354  0.8231
   60MOL0     C 7851   3.729   7.115   6.486 -0.3371  0.2799  0.1296
   60MOL0     C 7852   3.819   7.144   6.411 -0.0406  0.2616  0.4226
   60MOL0     C 7853   3.044   7.388   6.482 -1.0344 -0.5207  0.0088
   60MOL0     C 7854   2.925   7.444   6.443  0.1554  0.9286  0.1142
   60MOL0     H 7855   2.544   7.791   6.490  0.5496  2.0140  2.9180
   60MOL0     H 7856   2.320   7.894   6.476 -1.0098 -0.6271 -0.9419
   60MOL0     H 7857   2.069   7.957   6.498  1.1983  1.3350  0.0281
   60MOL0     H 7858   2.141   7.992   6.660 -2.0314 -0.5952  2.2493
   60MOL0     H 7859   1.963   7.976   6.766  1.1184 -1.5600 -0.2325
   60MOL0     H 7860   1.865   7.887   6.645  0.5408 -0.3269  1.2642
   60MOL0     H 7861   1.840   8.091   6.514  2.5023 -0.3124  0.1577
   60MOL0     H 7862   1.960   8.170   6.584 -0.1515  0.5303 -1.6864
   60MOL0     H 7863   1.800   8.171   6.804 -0.8411  0.8329 -0.0064
   60MOL0     H 7864   1.744   8.266   6.670 -0.0657  0.3997  0.4807
   60MOL0     H 7865   1.634   7.992   6.720 -2.7469  1.2019  1.8371
   60MOL0     H 7866   1.600   8.091   6.588 -0.2126  0.2651  0.3459
   60MOL0     H 7867   1.513   8.268   6.713 -0.3217  0.4509 -0.7246
   60MOL0     H 7868   1.578   8.195   6.870  1.0098 -0.9205 -1.0641
   60MOL0     H 7869   1.360   8.074   6.689 -3.6889  1.6170  1.4522
   60MOL0     H 7870   1.436   7.993   6.826 -1.0226 -0.7386  0.6179
   60MOL0     H 7871   1.308   8.270   6.867  0.3959  1.1401  1.6082
   60MOL0     H 7872   1.366   8.173   6.986  2.1566 -1.7944 -1.1883
   60MOL0     H 7873   1.127   7.982   6.727  0.4024 -1.2594  0.3265
   60MOL0     H 7874   0.805   7.923   6.887  1.8251 -2.2300 -0.4678
   60MOL0     H 7875   0.852   7.911   6.718 -0.9230 -1.3069  0.0009
   60MOL0     H 7876   0.776   8.127   6.671 -2.8281 -0.1576 -1.4643
   60MOL0     H 7877   0.730   8.169   6.841  0.4293 -0.2727 -0.3797
   60MOL0     H 7878   0.609   7.937   6.692 -0.4671 -1.1166  2.2942
   60MOL0     H 7879   0.548   8.005   6.839  0.8257  0.0789  0.2601
   60MOL0     H 7880   0.559   8.156   6.568 -2.1144  1.1612  0.1390
   60MOL0     H 7881   0.518   8.229   6.720  1.4011 -0.0572  1.0597
   60MOL0     H 7882   0.326   8.324   6.726  3.5957 -0.3460  3.1462
   60MOL0     H 7883   0.142   8.374   6.885 -0.7961 -0.9097  1.6607
   60MOL0     H 7884  -0.321   8.193   6.963 -3.7009 -0.2827  0.1796
   60MOL0     H 7885  -0.526   8.275   7.075 -0.0847  2.8833 -1.4421
   60MOL0     H 7886  -0.654   8.459   7.107 -1.6545 -0.7224  0.7054
   60MOL0     H 7887  -0.626   8.626   7.173 -0.1370  0.5397  1.3957
   60MOL0     H 7888  -0.857   8.553   7.198  0.3963  1.9169 -0.4617
   60MOL0     H 7889  -0.766   8.608   7.341 -0.0032 -0.6154  0.6240
   60MOL0     H 7890  -0.737   8.345   7.389 -0.1714 -0.3898 -0.8893
   60MOL0     H 7891  -0.838   8.320   7.260 -0.8745  1.7302 -0.3292
   60MOL0     H 7892  -0.963   8.317   7.469  0.9808 -0.9760 -1.5102
   60MOL0     H 7893  -0.909   8.470   7.516 -0.0124 -0.9658  0.2563
   60MOL0     H 7894  -1.081   8.420   7.257 -3.1633  0.4500 -0.1891
   60MOL0     H 7895  -1.056   8.575   7.334 -2.9920  0.1745 -0.3299
   60MOL0     H 7896  -1.165   8.487   7.544 -1.4182  0.2578  0.4570
   60MOL0     H 7897  -1.206   8.340   7.459 -2.3070  0.0124 -1.6738
   60MOL0     H 7898  -1.297   8.628   7.381 -0.5686 -0.3430 -0.7542
   60MOL0     H 7899  -1.333   8.475   7.294  0.5596 -0.4815  0.3229
   60MOL0     H 7900  -1.398   8.518   7.600 -1.4171 -1.7682 -0.7118
   60MOL0     H 7901  -1.467   8.396   7.494 -1.1228  0.4600  0.6437
   60MOL0     H 7902  -0.278   8.568   7.277  3.1870 -0.3417 -0.0119
   60MOL0     H 7903  -0.096   8.504   7.152  1.2879 -1.0129 -1.0895
   60MOL0     H 7904   0.054   7.958   6.914 -0.2942  1.5843  3.5299
   60MOL0     H 7905   0.245   7.909   6.766 -0.4792  0.3421 -1.5549
   60MOL0     H 7906   2.169   7.574   6.720 -0.4335 -0.1251 -0.8440
   60MOL0     H 7907   2.383   7.465   6.721 -2.7700 -1.1155 -1.6115
   60MOL0     H 7908   2.776   7.428   6.754 -0.1387 -0.3101  0.0141
   60MOL0     H 7909   2.971   7.316   6.808 -0.1279  0.1758  0.6701
   60MOL0     H 7910   3.327   7.388   6.582 -0.4280  0.0674  0.3950
   60MOL0     H 7911   3.277   7.260   6.464  0.3039  4.1021 -1.1868
   60MOL0     H 7912   3.414   7.227   6.738  0.7904 -4.4053  1.5126
   60MOL0     H 7913   3.377   7.088   6.631  1.0354  0.1167  1.1943
   60MOL0     H 7914   3.586   7.309   6.587  2.3466 -2.4593  3.3447
   60MOL0     H 7915   3.518   7.234   6.457 -0.3871  1.7652 -0.2485
   60MOL0     H 7916   3.661   7.072   6.676  0.6772  0.1787  0.8667
   60MOL0     H 7917   3.567   6.995   6.549  0.5471 -0.9074 -0.6874
   60MOL0     H 7918   3.903   7.167   6.349  1.7958 -1.7376  2.0255
   60MOL0     H 7919   3.122   7.376   6.408  1.4325  1.5183  2.0965
   60MOL0     H 7920   2.922   7.480   6.341 -0.7721 -2.0827 -1.0129
   61MOL0     O 7921   5.384   8.031   9.033 -0.3079 -0.1413  0.3519
   61MOL0     C 7922   5.451   7.940   9.087  0.1837  0.2967  0.8182
   61MOL0     O 7923   5.408   7.814   9.118 -0.3562 -0.1607  0.4755
   61MOL0     C 7924   5.279   7.782   9.096  0.2004  0.8334  0.0759
   61MOL0     C 7925   5.163   7.857   9.134 -0.0059 -0.5621 -0.2794
   61MOL0     C 7926   5.040   7.818   9.108  0.5713 -0.4401 -0.3437
   61MOL0     C 7927   5.024   7.694   9.047 -0.1879  0.1482  0.1500
   61MOL0     O 7928   4.895   7.669   9.023  0.9178  1.1257 -0.9123
   61MOL0     C 7929   4.840   7.540   9.070 -0.7403  0.8831  0.2244
   61MOL0     C 7930   4.687   7.521   9.037 -0.1581 -0.9287 -1.1273
   61MOL0     C 7931   4.601   7.580   9.148  0.4008  0.1133 -0.1293
   61MOL0     C 7932   4.453   7.559   9.122 -0.3353 -0.5904  0.0194
   61MOL0     C 7933   4.366   7.654   9.214  0.6020 -0.1024  0.0912
   61MOL0     C 7934   4.217   7.645   9.172  0.4180  0.2130  0.1461
   61MOL0     C 7935   4.152   7.513   9.219  1.0812  0.4205  0.0864
   61MOL0     C 7936   4.000   7.497   9.185 -0.7484 -0.2362 -0.3030
   61MOL0     N 7937   3.924   7.573   9.282 -0.1816  0.6529  1.2378
   61MOL0     C 7938   3.908   7.707   9.280  0.6194  0.6684 -0.3340
   61MOL0     C 7939   3.833   7.731   9.390  0.4846 -0.2522  1.1691
   61MOL0     C 7940   3.780   7.874   9.415 -0.8422 -0.0012  0.0214
   61MOL0     C 7941   3.632   7.879   9.416 -0.1718 -0.0473  0.2346
   61MOL0     C 7942   3.565   7.825   9.282 -0.3760 -0.0682 -0.1066
   61MOL0     C 7943   3.417   7.817   9.288 -0.8921 -0.7071 -0.2453
   61MOL0     O 7944   3.387   7.753   9.413 -0.1344  0.0327  0.1769
   61MOL0     C 7945   3.257   7.752   9.449 -0.2131 -0.1163  0.4267
   61MOL0     C 7946   3.144   7.760   9.361 -0.4909 -0.7988 -0.1188
   61MOL0     C 7947   3.022   7.756   9.416 -0.6675 -1.5747 -0.5221
   61MOL0     C 7948   2.991   7.752   9.553  0.1235 -0.4010 -1.0118
   61MOL0     C 7949   2.855   7.742   9.597 -1.4100  0.4320 -0.4300
   61MOL0     O 7950   2.840   7.724   9.733 -0.4826 -0.2790 -0.0078
   61MOL0     C 7951   2.718   7.697   9.791 -0.4005 -0.6497 -0.1300
   61MOL0     C 7952   2.597   7.757   9.747 -0.0338  0.0115 -0.3326
   61MOL0     C 7953   2.486   7.763   9.829 -0.8171 -0.3249  0.6370
   61MOL0     C 7954   2.481   7.694   9.952  0.1223  0.0689  0.3343
   61MOL0     O 7955   2.376   7.675  10.031 -0.1225 -0.1054 -0.4433
   61MOL0     C 7956   2.245   7.717   9.990 -0.5312 -0.2045 -1.1646
   61MOL0     C 7957   2.158   7.654  10.093 -0.5149  0.0682 -0.1775
   61MOL0     C 7958   2.005   7.676  10.065 -0.4085 -0.3408 -0.3247
   61MOL0     C 7959   1.938   7.630  10.194  0.8818 -1.2746  1.2228
   61MOL0     C 7960   1.786   7.646  10.160  0.5786 -0.0392 -0.3494
   61MOL0     C 7961   1.704   7.654  10.288  0.3048 -0.0030  0.6519
   61MOL0     C 7962   1.561   7.615  10.251 -0.5699  0.3451 -0.2648
   61MOL0     C 7963   1.481   7.573  10.374  0.5347  0.4717 -0.1217
   61MOL0    Cl 7964   1.472   7.694  10.499  0.0936 -0.0391 -0.0403
   61MOL0     C 7965   2.599   7.624   9.988  0.2851  0.7168  0.0199
   61MOL0     C 7966   2.720   7.631   9.913  0.0322 -0.1814  0.0498
   61MOL0     O 7967   2.761   7.756   9.516 -0.4802  0.4300  0.1257
   61MOL0     C 7968   3.100   7.745   9.637  0.6065  0.0100  0.2373
   61MOL0     C 7969   3.231   7.741   9.586 -0.1249 -0.1249 -0.5944
   61MOL0     N 7970   3.808   7.608   9.455 -0.0505 -0.3791 -0.1817
   61MOL0     N 7971   3.845   7.518   9.376  0.4294 -0.0709 -0.9007
   61MOL0     C 7972   5.131   7.624   8.994  0.2389 -0.3881 -0.1546
   61MOL0     C 7973   5.259   7.661   9.029  0.4787 -0.2841 -0.4894
   61MOL0     C 7974   5.596   7.958   9.125 -0.2987 -0.5732 -0.1154
   61MOL0     C 7975   5.659   8.068   9.068  0.2823 -0.3545  0.4401
   61MOL0     C 7976   5.795   8.086   9.080  0.4265 -1.1133  0.0729
   61MOL0     C 7977   5.869   8.000   9.164  0.1781 -0.4316 -0.2337
   61MOL0     O 7978   5.998   8.032   9.188  0.0992 -0.1067  0.1004
   61MOL0     C 7979   6.082   7.952   9.264 -0.7267 -0.1435  0.0561
   61MOL0     C 7980   6.231   8.001   9.227  0.6645  0.7262  0.7208
   61MOL0     C 7981   6.330   7.926   9.310 -0.1655  0.1845  0.5606
   61MOL0     C 7982   6.470   7.970   9.294 -0.1050  0.6289 -0.5870
   61MOL0     C 7983   6.565   7.872   9.353  0.0801 -0.2305 -0.2977
   61MOL0     C 7984   6.628   7.780   9.404 -0.9823 -0.4151  0.6594
   61MOL0     C 7985   5.806   7.887   9.224 -0.0209  0.0103 -0.4502
   61MOL0     C 7986   5.670   7.873   9.202  0.2258  1.0052 -0.8035
   61MOL0     H 7987   5.172   7.942   9.200 -1.3262 -2.0490  1.9178
   61MOL0     H 7988   4.957   7.868   9.157  2.3513 -1.6972  4.4622
   61MOL0     H 7989   4.852   7.528   9.178 -2.6496 -0.5847  0.3215
   61MOL0     H 7990   4.900   7.463   9.021 -0.6042 -0.1803  1.9636
   61MOL0     H 7991   4.663   7.414   9.029 -0.3926 -0.9690 -0.0635
   61MOL0     H 7992   4.655   7.585   8.955 -3.0370  1.1201  1.3794
   61MOL0     H 7993   4.613   7.688   9.159 -1.5467  0.1093  3.6588
   61MOL0     H 7994   4.618   7.536   9.246  1.1479  1.1593  0.2194
   61MOL0     H 7995   4.430   7.599   9.023 -1.1612 -1.7734 -0.2934
   61MOL0     H 7996   4.427   7.453   9.125 -0.7432 -0.4781  1.2123
   61MOL0     H 7997   4.405   7.756   9.210  2.3467 -0.5201  3.1666
   61MOL0     H 7998   4.371   7.618   9.317 -4.0731 -0.2390  0.4856
   61MOL0     H 7999   4.210   7.664   9.065  1.2045  1.1994  0.2565
   61MOL0     H 8000   4.163   7.732   9.209  1.6980  0.5020  1.4541
   61MOL0     H 8001   4.204   7.425   9.181  1.9781  0.6302  0.8067
   61MOL0     H 8002   4.166   7.502   9.327  1.5098  0.2513  0.0159
   61MOL0     H 8003   3.979   7.390   9.188 -0.6297 -0.2441  0.7815
   61MOL0     H 8004   3.971   7.523   9.083  0.9124  0.2769 -0.6773
   61MOL0     H 8005   3.927   7.787   9.208 -2.3860  0.6674 -1.2719
   61MOL0     H 8006   3.817   7.937   9.333 -1.4655  0.6367  0.2207
   61MOL0     H 8007   3.818   7.918   9.508 -2.1521  0.4065  0.3836
   61MOL0     H 8008   3.586   7.974   9.447 -0.7431  0.2265 -1.3720
   61MOL0     H 8009   3.604   7.813   9.499  0.1294  0.8204  1.0511
   61MOL0     H 8010   3.595   7.891   9.200 -2.0613  1.9903  0.8241
   61MOL0     H 8011   3.593   7.722   9.256 -1.3240 -0.1754 -0.7613
   61MOL0     H 8012   3.378   7.757   9.205  3.4043 -2.0606 -1.5981
   61MOL0     H 8013   3.383   7.920   9.278  0.9340 -0.1413 -1.2199
   61MOL0     H 8014   3.151   7.763   9.252  1.8726 -2.2693 -0.0647
   61MOL0     H 8015   2.943   7.755   9.342  2.1907  2.3541 -4.1527
   61MOL0     H 8016   2.597   7.820   9.658  1.3321  0.6185  0.0733
   61MOL0     H 8017   2.401   7.818   9.791 -0.1887 -1.1636 -2.1584
   61MOL0     H 8018   2.224   7.677   9.891 -0.8263 -3.3257  0.0553
   61MOL0     H 8019   2.243   7.827   9.990  1.1546 -0.0773  1.3286
   61MOL0     H 8020   2.180   7.702  10.189 -1.1639 -0.5575  0.2916
   61MOL0     H 8021   2.181   7.547  10.103  0.6619  0.4071  1.1101
   61MOL0     H 8022   1.971   7.628   9.973  0.5891 -0.3045 -0.7191
   61MOL0     H 8023   1.977   7.781  10.051  0.8154  0.3354  1.7356
   61MOL0     H 8024   1.965   7.525  10.209 -0.3806 -2.1943 -1.8861
   61MOL0     H 8025   1.954   7.693  10.282 -2.9378 -0.6684  1.6391
   61MOL0     H 8026   1.757   7.555  10.107  0.9655 -1.9112  2.4215
   61MOL0     H 8027   1.760   7.740  10.111 -2.4961  0.4116  1.8789
   61MOL0     H 8028   1.722   7.752  10.333 -0.5961 -0.2886  1.6780
   61MOL0     H 8029   1.725   7.570  10.355 -0.5315 -2.5096 -2.0088
   61MOL0     H 8030   1.518   7.708  10.210 -2.3762 -1.7004 -3.4475
   61MOL0     H 8031   1.559   7.544  10.168  0.7162 -0.3312  0.2585
   61MOL0     H 8032   1.527   7.486  10.422 -1.8322 -0.9899 -0.3585
   61MOL0     H 8033   1.383   7.537  10.342 -0.0269  1.8701 -0.0066
   61MOL0     H 8034   2.586   7.580  10.087 -1.3782 -1.4721 -1.0899
   61MOL0     H 8035   2.813   7.588   9.950  0.0103 -0.8204 -0.6296
   61MOL0     H 8036   3.082   7.746   9.744 -1.9370  0.6250 -0.1388
   61MOL0     H 8037   3.314   7.747   9.655 -2.5443  3.0480  2.4348
   61MOL0     H 8038   5.111   7.533   8.938  1.5783 -0.0261 -1.2909
   61MOL0     H 8039   5.347   7.601   9.006  0.9372  0.0312  0.3792
   61MOL0     H 8040   5.609   8.137   9.000  1.2993 -0.3152 -0.2859
   61MOL0     H 8041   5.847   8.165   9.028 -1.4118 -0.7758 -1.3651
   61MOL0     H 8042   6.079   7.846   9.235  2.2155 -0.6437  1.2285
   61MOL0     H 8043   6.058   7.966   9.370 -0.5763 -0.8952  0.1998
   61MOL0     H 8044   6.239   7.985   9.119 -0.8857  2.2308  0.3338
   61MOL0     H 8045   6.247   8.108   9.241 -0.3393  0.9833  0.0165
   61MOL0     H 8046   6.335   7.820   9.282  3.1076  0.5101 -0.4475
   61MOL0     H 8047   6.303   7.934   9.416 -2.1338  1.0957  0.0498
   61MOL0     H 8048   6.482   7.968   9.185  2.5403 -1.3165 -0.3663
   61MOL0     H 8049   6.493   8.067   9.340 -0.6992 -0.6257  2.6401
   61MOL0     H 8050   6.689   7.702   9.445  0.2884  1.8398  3.3490
   61MOL0     H 8051   5.859   7.824   9.295  1.3068  1.0014 -0.5254
   61MOL0     H 8052   5.627   7.785   9.249  0.3983  1.6674  0.6428
   62MOL0     O 8053   7.139   4.262   5.143  0.0829 -0.0412  0.2357
   62MOL0     C 8054   7.137   4.388   5.141  0.0052  0.1294 -0.3589
   62MOL0     O 8055   7.032   4.466   5.111  0.5842 -0.0916  0.1620
   62MOL0     C 8056   6.905   4.417   5.089 -0.0626  0.0072 -0.0113
   62MOL0     C 8057   6.854   4.287   5.104  0.7443 -0.0900 -0.3866
   62MOL0     C 8058   6.719   4.258   5.075 -0.5816 -0.2790  1.3206
   62MOL0     C 8059   6.629   4.363   5.041  0.0857  0.0071  0.1225
   62MOL0     O 8060   6.491   4.347   5.008 -0.4937  0.2275 -0.0105
   62MOL0     C 8061   6.412   4.222   5.009 -0.2247  0.6923 -0.0598
   62MOL0     C 8062   6.347   4.210   5.148 -0.7739 -0.0462 -0.3767
   62MOL0     C 8063   6.252   4.090   5.165  0.2945 -0.1305 -0.1403
   62MOL0     C 8064   6.298   3.963   5.114  0.2708 -0.4038 -0.0161
   62MOL0     C 8065   6.183   3.856   5.133 -0.3885 -0.8838  1.3807
   62MOL0     C 8066   6.218   3.727   5.055  0.5685 -0.1328 -0.2891
   62MOL0     C 8067   6.316   3.633   5.127 -0.4653  0.4864 -0.4495
   62MOL0     C 8068   6.340   3.489   5.068  0.4191  0.6080  0.0471
   62MOL0     N 8069   6.459   3.427   5.128  0.2703 -0.8271 -0.2302
   62MOL0     C 8070   6.587   3.470   5.128  0.0818 -0.1485  0.6083
   62MOL0     C 8071   6.644   3.384   5.208  0.1396  0.2537  0.3275
   62MOL0     C 8072   6.785   3.367   5.257 -0.8249 -0.5924  0.0384
   62MOL0     C 8073   6.853   3.509   5.250  0.2962 -0.3618 -0.3845
   62MOL0     C 8074   6.946   3.525   5.374 -0.7208 -0.4301  0.6898
   62MOL0     C 8075   7.043   3.643   5.369  0.3324 -0.2859  0.5577
   62MOL0     O 8076   7.116   3.626   5.249  0.3960  0.2070  0.8312
   62MOL0     C 8077   7.251   3.601   5.255  0.1437 -0.4246 -0.3279
   62MOL0     C 8078   7.328   3.612   5.140 -0.0006 -0.6717 -0.5088
   62MOL0     C 8079   7.470   3.599   5.138 -0.2138  0.2355 -0.4425
   62MOL0     C 8080   7.536   3.554   5.248  0.2517  0.0378 -0.3439
   62MOL0     C 8081   7.686   3.533   5.255  0.6504 -0.1664 -0.2653
   62MOL0     O 8082   7.740   3.457   5.359 -0.6175  0.0732  0.3865
   62MOL0     C 8083   7.877   3.452   5.386  0.1070  1.2233  1.9622
   62MOL0     C 8084   7.978   3.547   5.353 -0.0560 -0.6182 -1.2861
   62MOL0     C 8085   8.107   3.524   5.405  0.7839 -0.2957 -0.6154
   62MOL0     C 8086   8.142   3.409   5.472 -0.5267 -0.0963  0.5584
   62MOL0     O 8087   8.275   3.376   5.512 -0.6370 -1.3246  0.1835
   62MOL0     C 8088   8.344   3.485   5.583  0.1977  0.0053 -0.2610
   62MOL0     C 8089   8.304   3.501   5.735  0.1365 -0.0011 -0.5069
   62MOL0     C 8090   8.317   3.384   5.816 -0.1126 -0.3616  0.6865
   62MOL0     C 8091   8.262   3.416   5.954  0.6751 -0.1727 -0.1535
   62MOL0     C 8092   8.293   3.292   6.044 -0.3729 -0.6040 -0.0018
   62MOL0     C 8093   8.201   3.287   6.169  0.1255  0.2122  0.1973
   62MOL0     C 8094   8.227   3.169   6.261 -1.0022  0.4619  0.0203
   62MOL0     C 8095   8.224   3.029   6.190 -0.4468  0.0234 -0.4107
   62MOL0    Cl 8096   8.215   2.890   6.300  0.5017  0.0443 -0.0649
   62MOL0     C 8097   8.050   3.307   5.489  0.3731 -0.3083 -0.1857
   62MOL0     C 8098   7.918   3.331   5.445  0.3122  0.1614 -0.2014
   62MOL0     O 8099   7.751   3.590   5.164  0.2373 -0.8278  0.1509
   62MOL0     C 8100   7.457   3.535   5.367 -0.5171  0.1227  0.2734
   62MOL0     C 8101   7.320   3.556   5.369  0.0386  0.3209 -0.1545
   62MOL0     N 8102   6.552   3.297   5.265 -0.2344  0.5406 -0.1177
   62MOL0     N 8103   6.445   3.319   5.214  0.3583 -0.6942 -0.0795
   62MOL0     C 8104   6.680   4.496   5.032  0.3925 -0.5821  0.1297
   62MOL0     C 8105   6.814   4.522   5.059  0.2283  0.0097 -0.4930
   62MOL0     C 8106   7.275   4.463   5.168  0.4144 -0.0885  0.3387
   62MOL0     C 8107   7.386   4.406   5.229 -0.0390  0.0007  0.0243
   62MOL0     C 8108   7.492   4.477   5.273  0.5601 -0.3092 -0.0736
   62MOL0     C 8109   7.496   4.622   5.249  0.3095 -0.6514 -1.7089
   62MOL0     O 8110   7.589   4.714   5.306 -0.0052  0.4328 -0.1795
   62MOL0     C 8111   7.685   4.656   5.391 -0.4214  0.0330 -0.6067
   62MOL0     C 8112   7.811   4.737   5.411 -0.0000  0.5521  0.6041
   62MOL0     C 8113   7.896   4.776   5.280  0.0985 -0.1561  0.1130
   62MOL0     C 8114   8.030   4.842   5.306 -0.9231 -0.1593  0.4919
   62MOL0     C 8115   8.132   4.803   5.203  0.3163 -0.3148 -0.7765
   62MOL0     C 8116   8.216   4.775   5.122  0.2321  0.0670 -0.3203
   62MOL0     C 8117   7.387   4.676   5.180  0.2483 -0.3313  1.1997
   62MOL0     C 8118   7.280   4.601   5.130 -0.1305 -0.2448  0.5737
   62MOL0     H 8119   6.917   4.199   5.116  0.3065 -0.4245 -0.5085
   62MOL0     H 8120   6.691   4.154   5.081 -1.0390 -0.2534 -0.0893
   62MOL0     H 8121   6.489   4.148   4.987 -0.1561  0.7367  0.0293
   62MOL0     H 8122   6.333   4.224   4.933 -0.5848 -1.3859  0.2075
   62MOL0     H 8123   6.296   4.307   5.151 -0.6283  0.0699 -1.3065
   62MOL0     H 8124   6.419   4.207   5.230  0.2808 -1.0235 -1.3166
   62MOL0     H 8125   6.165   4.128   5.111 -0.0456  0.7495  0.9814
   62MOL0     H 8126   6.218   4.078   5.268 -0.8401  0.9866 -0.3574
   62MOL0     H 8127   6.319   3.972   5.007 -0.5426 -2.1262 -0.3615
   62MOL0     H 8128   6.395   3.932   5.155  2.6709  1.8253 -3.4344
   62MOL0     H 8129   6.086   3.883   5.091 -0.3803 -1.9949  0.6189
   62MOL0     H 8130   6.180   3.828   5.239  0.4447 -3.8405  0.7174
   62MOL0     H 8131   6.233   3.739   4.947 -0.4439  1.1143 -0.3220
   62MOL0     H 8132   6.123   3.674   5.066 -0.5965  1.8025 -0.5194
   62MOL0     H 8133   6.415   3.679   5.131 -1.3517  2.3785  0.8808
   62MOL0     H 8134   6.282   3.612   5.229  1.9231  0.8003  0.4674
   62MOL0     H 8135   6.344   3.506   4.960 -1.4926  2.6380  0.2271
   62MOL0     H 8136   6.254   3.426   5.092  0.7526  0.6326  1.3546
   62MOL0     H 8137   6.635   3.552   5.075  1.9251 -0.6623  1.4007
   62MOL0     H 8138   6.842   3.299   5.193 -0.8849 -2.2850  1.7255
   62MOL0     H 8139   6.784   3.334   5.361 -2.5969  0.9390  0.5726
   62MOL0     H 8140   6.789   3.597   5.247 -0.2576 -0.6363  1.6239
   62MOL0     H 8141   6.915   3.509   5.159 -2.1132  5.1338 -2.4555
   62MOL0     H 8142   6.881   3.526   5.462  0.0103  1.3729  1.2596
   62MOL0     H 8143   7.009   3.435   5.376 -0.6201 -0.5001 -1.9296
   62MOL0     H 8144   7.092   3.647   5.467 -0.1594  0.9257  0.7695
   62MOL0     H 8145   6.995   3.741   5.359  1.6782  0.1813 -2.5790
   62MOL0     H 8146   7.284   3.624   5.041  0.5224 -0.5600 -0.7301
   62MOL0     H 8147   7.525   3.613   5.046  0.6889 -0.8881 -0.0988
   62MOL0     H 8148   7.952   3.645   5.312 -1.6740  1.4542  3.8775
   62MOL0     H 8149   8.185   3.599   5.396  1.7205 -0.9642  1.4020
   62MOL0     H 8150   8.351   3.579   5.528 -1.7347  0.4943  0.2480
   62MOL0     H 8151   8.449   3.454   5.591  0.2226 -0.6546 -2.4715
   62MOL0     H 8152   8.200   3.533   5.733  0.3896  0.8650 -0.0831
   62MOL0     H 8153   8.365   3.578   5.782  2.6563 -0.8732 -2.0817
   62MOL0     H 8154   8.421   3.352   5.824 -0.1600 -0.8405 -0.5145
   62MOL0     H 8155   8.256   3.304   5.772 -3.3128  1.9740  0.4723
   62MOL0     H 8156   8.300   3.514   5.983  2.9253 -0.5588 -1.5264
   62MOL0     H 8157   8.153   3.424   5.952  0.6788 -0.2681 -1.2170
   62MOL0     H 8158   8.396   3.281   6.080 -0.3075  1.1604  0.4332
   62MOL0     H 8159   8.265   3.202   5.987 -1.6559 -0.1929 -0.0541
   62MOL0     H 8160   8.102   3.274   6.125  1.0399 -0.5946 -1.7786
   62MOL0     H 8161   8.201   3.383   6.221  1.3746 -0.0738  0.7594
   62MOL0     H 8162   8.324   3.186   6.310 -1.6789  1.8666  0.9434
   62MOL0     H 8163   8.146   3.169   6.334 -1.5022 -2.6989 -0.3894
   62MOL0     H 8164   8.320   3.013   6.139  0.8750 -3.2890  2.6666
   62MOL0     H 8165   8.141   3.026   6.119 -0.4502 -1.5349 -0.3807
   62MOL0     H 8166   8.085   3.216   5.537  1.4624  1.4459  2.5636
   62MOL0     H 8167   7.837   3.267   5.477  0.3365  0.8161  1.2738
   62MOL0     H 8168   7.513   3.491   5.449  1.5881  1.4803 -0.3306
   62MOL0     H 8169   7.275   3.537   5.466 -0.5507  0.0545 -0.4821
   62MOL0     H 8170   6.605   4.571   5.005 -0.0021 -0.0390  2.4941
   62MOL0     H 8171   6.855   4.621   5.042  1.7498 -0.7320 -1.4122
   62MOL0     H 8172   7.400   4.299   5.242  0.4120  0.0055 -0.3572
   62MOL0     H 8173   7.576   4.419   5.313 -0.1447 -1.5761 -0.3678
   62MOL0     H 8174   7.719   4.562   5.348  0.6042 -1.6098  3.3104
   62MOL0     H 8175   7.646   4.641   5.492  1.2308  0.3852  0.1260
   62MOL0     H 8176   7.777   4.833   5.452  0.3448  0.5036  1.0121
   62MOL0     H 8177   7.888   4.693   5.475 -0.8819  0.4253  1.5962
   62MOL0     H 8178   7.830   4.850   5.234 -0.5637 -0.4605  0.5501
   62MOL0     H 8179   7.904   4.686   5.218 -1.6311 -0.0357 -0.3497
   62MOL0     H 8180   8.018   4.950   5.313  0.0027  0.1432 -1.5847
   62MOL0     H 8181   8.074   4.809   5.400 -0.8670 -0.3791  0.3887
   62MOL0     H 8182   8.276   4.746   5.038 -0.4713  0.2109 -0.8751
   62MOL0     H 8183   7.384   4.779   5.147 -4.1516  0.2232  2.7090
   62MOL0     H 8184   7.198   4.650   5.080  0.7881  1.8021  0.9853
   63MOL0     O 8185   9.725  10.485   8.575 -0.1106 -0.1830  0.2564
   63MOL0     C 8186   9.804  10.463   8.481 -0.0198 -0.4148 -0.6290
   63MOL0     O 8187   9.788  10.503   8.356  0.0372  0.5503 -0.0849
   63MOL0     C 8188   9.679  10.585   8.328  0.2535 -0.9310  0.3579
   63MOL0     C 8189   9.709  10.712   8.277 -0.4622 -0.9108 -0.4444
   63MOL0     C 8190   9.601  10.803   8.247  0.1371 -0.9586 -0.4918
   63MOL0     C 8191   9.465  10.760   8.261 -1.4193  0.3245  0.5862
   63MOL0     O 8192   9.355  10.845   8.245 -0.6742 -0.0258  0.7638
   63MOL0     C 8193   9.382  10.974   8.187  0.7619 -0.5526  0.2750
   63MOL0     C 8194   9.256  11.046   8.153 -0.1793 -0.0492  0.3150
   63MOL0     C 8195   9.162  11.086   8.270 -0.4602 -0.2340  0.6968
   63MOL0     C 8196   9.018  11.118   8.225  0.8719 -0.7231 -0.0471
   63MOL0     C 8197   9.002  11.229   8.126 -0.3744 -0.1053  0.5783
   63MOL0     C 8198   8.857  11.257   8.102  0.1491 -0.1889  1.0652
   63MOL0     C 8199   8.821  11.335   7.978 -1.0043  0.6248  0.9546
   63MOL0     C 8200   8.833  11.258   7.843  0.0166 -0.6494  0.4278
   63MOL0     N 8201   8.789  11.345   7.734  0.0986 -0.0072  0.0575
   63MOL0     C 8202   8.841  11.463   7.701 -0.4419 -0.7548  0.0925
   63MOL0     C 8203   8.785  11.502   7.583 -0.9291 -0.4806 -0.1146
   63MOL0     C 8204   8.795  11.630   7.513 -0.0743 -0.6956 -0.4530
   63MOL0     C 8205   8.650  11.687   7.478  0.2762 -0.0824 -0.0922
   63MOL0     C 8206   8.640  11.830   7.433 -0.1473  0.6122 -0.3939
   63MOL0     C 8207   8.641  11.933   7.540  0.3130  0.1987 -0.1499
   63MOL0     O 8208   8.549  11.909   7.657  0.7073 -0.1587 -0.1534
   63MOL0     C 8209   8.414  11.931   7.639 -0.2613  0.1648  0.4325
   63MOL0     C 8210   8.351  11.988   7.522 -0.0432 -0.6750 -0.5887
   63MOL0     C 8211   8.207  11.999   7.513  0.7625  0.4503  0.0216
   63MOL0     C 8212   8.129  11.958   7.626  0.0089 -0.1109  1.0468
   63MOL0     C 8213   7.984  11.983   7.625  0.2509 -0.0915 -0.3860
   63MOL0     O 8214   7.914  12.014   7.505 -0.2818  0.5084 -0.8803
   63MOL0     C 8215   7.785  12.048   7.504  1.2392 -0.0809  0.5781
   63MOL0     C 8216   7.745  12.182   7.486 -0.2692 -0.1723 -0.1538
   63MOL0     C 8217   7.611  12.226   7.483  0.6072  0.1596 -0.4462
   63MOL0     C 8218   7.510  12.135   7.518 -0.3122  0.8600  0.3203
   63MOL0     O 8219   7.376  12.154   7.527  0.0864  0.6379 -0.1877
   63MOL0     C 8220   7.322  12.236   7.423  0.4337  0.0999  0.3435
   63MOL0     C 8221   7.162  12.222   7.415 -0.1936 -1.0418  0.2449
   63MOL0     C 8222   7.104  12.316   7.307 -0.1411  0.1376 -0.1199
   63MOL0     C 8223   6.960  12.268   7.288 -0.2750 -0.6343 -0.6684
   63MOL0     C 8224   6.899  12.365   7.182 -0.1464  0.0673  0.8149
   63MOL0     C 8225   6.748  12.343   7.156 -0.4275  0.5714  0.5931
   63MOL0     C 8226   6.705  12.200   7.148  0.0288 -0.4888 -0.4994
   63MOL0     C 8227   6.586  12.175   7.069  0.3681  0.5246  0.1803
   63MOL0    Cl 8228   6.617  12.167   6.880 -0.4583  0.2616 -0.2776
   63MOL0     C 8229   7.547  12.001   7.534  0.3916 -0.7055 -0.0314
   63MOL0     C 8230   7.678  11.962   7.529  0.0650  0.7988 -0.3283
   63MOL0     O 8231   7.926  11.975   7.734 -0.2236  0.4325  0.5376
   63MOL0     C 8232   8.187  11.896   7.732 -1.2456  0.0752 -0.2031
   63MOL0     C 8233   8.327  11.876   7.731 -0.0440 -0.0471 -0.0389
   63MOL0     N 8234   8.700  11.398   7.541  0.5493  0.0290 -0.0730
   63MOL0     N 8235   8.710  11.303   7.627  0.6179 -0.4495 -0.1419
   63MOL0     C 8236   9.440  10.622   8.303 -0.1280 -0.1413 -0.0928
   63MOL0     C 8237   9.548  10.538   8.339  0.5739  0.3435 -0.2317
   63MOL0     C 8238   9.916  10.365   8.502  1.0725 -0.1211  0.1702
   63MOL0     C 8239   9.915  10.283   8.614 -0.2643  0.5512 -0.0051
   63MOL0     C 8240  10.018  10.190   8.638  0.7398  0.0535 -0.8565
   63MOL0     C 8241  10.126  10.183   8.551 -0.0928  0.2895  0.3637
   63MOL0     O 8242  10.216  10.084   8.570  0.2922  0.2893  0.4367
   63MOL0     C 8243  10.344  10.088   8.503  0.3494  0.0062 -0.2318
   63MOL0     C 8244  10.444   9.997   8.573 -0.6378  0.0565  0.5436
   63MOL0     C 8245  10.592  10.009   8.523 -0.2899  0.3225  0.4028
   63MOL0     C 8246  10.663  10.096   8.628  0.2119 -0.3937  0.1417
   63MOL0     C 8247  10.811  10.105   8.610  0.7989  0.1300 -0.3133
   63MOL0     C 8248  10.929  10.109   8.603 -0.6982 -0.0918  0.6479
   63MOL0     C 8249  10.129  10.270   8.432  0.0196 -0.3505 -0.3361
   63MOL0     C 8250  10.023  10.363   8.415 -0.4712 -0.3054 -0.1843
   63MOL0     H 8251   9.811  10.744   8.258 -0.9900  0.0992 -1.7117
   63MOL0     H 8252   9.621  10.902   8.207  3.2012 -2.1776 -2.3909
   63MOL0     H 8253   9.437  10.977   8.092  1.0546 -0.4783  0.4464
   63MOL0     H 8254   9.441  11.030   8.261 -0.8665  1.6009  0.0660
   63MOL0     H 8255   9.190  10.988   8.088 -1.5337  0.3496  1.3039
   63MOL0     H 8256   9.291  11.138   8.104  1.6087  0.4506  2.3428
   63MOL0     H 8257   9.209  11.167   8.326 -0.3022 -0.6853  1.2304
   63MOL0     H 8258   9.156  11.003   8.342 -0.7784 -0.9013 -0.0849
   63MOL0     H 8259   8.978  11.021   8.195  0.3726 -0.9460  1.2822
   63MOL0     H 8260   8.963  11.149   8.314  1.8118 -0.0138  0.3075
   63MOL0     H 8261   9.049  11.180   8.040 -0.2463 -0.3613  0.7930
   63MOL0     H 8262   9.056  11.320   8.156  2.0673 -0.7537 -1.4516
   63MOL0     H 8263   8.823  11.303   8.195  2.8898 -0.0411  2.1024
   63MOL0     H 8264   8.805  11.161   8.106  0.4710 -0.5309 -1.3498
   63MOL0     H 8265   8.716  11.364   7.984 -0.6893  2.5575 -1.4230
   63MOL0     H 8266   8.888  11.422   7.973  0.8167 -0.7677 -0.1485
   63MOL0     H 8267   8.773  11.166   7.848 -3.6028  1.4688 -0.0605
   63MOL0     H 8268   8.938  11.230   7.828  0.6285  2.5709 -2.7677
   63MOL0     H 8269   8.916  11.521   7.755 -0.2918  1.1373 -2.0374
   63MOL0     H 8270   8.865  11.627   7.429  1.4164  2.6926  0.4990
   63MOL0     H 8271   8.838  11.704   7.582 -1.6251 -0.9430  0.8376
   63MOL0     H 8272   8.586  11.690   7.566 -2.5605  0.2077 -2.0392
   63MOL0     H 8273   8.613  11.628   7.393  3.5659 -1.0185 -1.0619
   63MOL0     H 8274   8.726  11.849   7.368 -0.3515 -0.1719 -0.9072
   63MOL0     H 8275   8.546  11.840   7.378  0.3766  2.2565 -1.0612
   63MOL0     H 8276   8.614  12.028   7.493 -0.1093 -0.3512 -1.0548
   63MOL0     H 8277   8.747  11.946   7.564  0.3003  0.7320 -0.3746
   63MOL0     H 8278   8.409  12.022   7.437  0.5982  0.8213  0.3992
   63MOL0     H 8279   8.170  12.044   7.421  0.5059 -3.0006 -1.7404
   63MOL0     H 8280   7.824  12.251   7.457 -1.6112  1.9444  1.0057
   63MOL0     H 8281   7.583  12.326   7.451 -0.4088 -0.1212 -0.4482
   63MOL0     H 8282   7.360  12.211   7.324  2.2950 -0.2003  1.0945
   63MOL0     H 8283   7.341  12.342   7.441  2.1158 -0.4406  2.0588
   63MOL0     H 8284   7.121  12.237   7.516  3.2557 -1.5835  1.8773
   63MOL0     H 8285   7.150  12.117   7.386  2.1598 -1.5175  0.7875
   63MOL0     H 8286   7.162  12.305   7.215  2.2200 -0.6453  1.3743
   63MOL0     H 8287   7.111  12.422   7.336 -2.0525 -0.1412  1.6181
   63MOL0     H 8288   6.958  12.166   7.249 -2.0404 -0.9433  0.1513
   63MOL0     H 8289   6.909  12.272   7.385  0.9577 -4.4785  0.3210
   63MOL0     H 8290   6.951  12.352   7.087 -3.1771 -0.6074 -0.8873
   63MOL0     H 8291   6.916  12.468   7.215  0.0206 -0.2818  1.8745
   63MOL0     H 8292   6.723  12.401   7.066 -2.2885  0.8414  1.2497
   63MOL0     H 8293   6.693  12.381   7.242 -1.3284  2.0934 -0.5984
   63MOL0     H 8294   6.784  12.139   7.102 -0.5467 -3.3122  1.9410
   63MOL0     H 8295   6.696  12.155   7.247 -0.5594 -1.3336 -0.9191
   63MOL0     H 8296   6.504  12.244   7.090 -1.7393 -1.6400 -0.4314
   63MOL0     H 8297   6.545  12.077   7.096  0.0318 -0.1726 -2.5144
   63MOL0     H 8298   7.467  11.928   7.539  0.8165 -1.1830 -0.0727
   63MOL0     H 8299   7.700  11.859   7.556 -0.4782  0.1061 -2.3503
   63MOL0     H 8300   8.128  11.852   7.811 -1.8310 -0.5808 -0.9857
   63MOL0     H 8301   8.378  11.824   7.812 -0.8340 -0.4810  0.1852
   63MOL0     H 8302   9.335  10.596   8.313 -0.3769  0.6667 -0.5383
   63MOL0     H 8303   9.525  10.442   8.384 -0.0153  0.2983 -0.6186
   63MOL0     H 8304   9.825  10.293   8.673 -0.2794 -0.9115  0.2703
   63MOL0     H 8305  10.017  10.129   8.728  0.0268  1.3320  0.0373
   63MOL0     H 8306  10.377  10.192   8.515  1.1726 -0.2595 -0.1472
   63MOL0     H 8307  10.334  10.068   8.396  0.8516  0.4307 -0.3649
   63MOL0     H 8308  10.425  10.001   8.681 -0.3244 -0.6677  0.6309
   63MOL0     H 8309  10.410   9.898   8.541  1.1721 -0.6549  0.7273
   63MOL0     H 8310  10.599  10.056   8.425 -0.4582 -2.2770 -0.9312
   63MOL0     H 8311  10.645   9.913   8.528 -1.1572 -0.1897  0.0583
   63MOL0     H 8312  10.621  10.197   8.633  2.8972  0.7736  1.4148
   63MOL0     H 8313  10.648  10.047   8.725 -2.4753 -1.5703 -0.7650
   63MOL0     H 8314  11.035  10.104   8.591 -0.6306  1.4357  0.4013
   63MOL0     H 8315  10.207  10.266   8.357 -0.9800  2.2281 -1.6200
   63MOL0     H 8316  10.032  10.427   8.327  0.7346 -1.2659 -0.7943
   64MOL0     O 8317   5.512   3.213   4.318  0.2264 -0.0595 -0.3069
   64MOL0     C 8318   5.555   3.185   4.427  0.5222 -0.5309  0.1787
   64MOL0     O 8319   5.476   3.155   4.535  0.8370 -0.3952 -0.5315
   64MOL0     C 8320   5.345   3.119   4.514 -0.4857  0.4132  0.8015
   64MOL0     C 8321   5.302   3.018   4.429 -1.1664  1.3124  1.3100
   64MOL0     C 8322   5.166   2.989   4.415 -1.4873 -0.3076  0.6035
   64MOL0     C 8323   5.072   3.074   4.481 -0.3475  0.6046  0.4174
   64MOL0     O 8324   4.935   3.067   4.476  0.1503  0.0440 -0.5307
   64MOL0     C 8325   4.892   2.987   4.370  0.0249 -0.3528 -0.1476
   64MOL0     C 8326   4.741   3.001   4.357  0.4814  0.3550  0.8707
   64MOL0     C 8327   4.681   2.937   4.237  0.4532 -0.2976  0.1038
   64MOL0     C 8328   4.533   2.927   4.256  0.0505 -0.0811  0.1808
   64MOL0     C 8329   4.457   2.922   4.128 -0.4962 -0.4916 -0.5723
   64MOL0     C 8330   4.496   2.800   4.041  0.4992 -0.2366  0.4714
   64MOL0     C 8331   4.459   2.659   4.097 -0.7593 -0.1073  0.6603
   64MOL0     C 8332   4.566   2.591   4.177 -0.6110 -0.2575  0.2544
   64MOL0     N 8333   4.526   2.470   4.254 -0.2269  0.4243 -0.4283
   64MOL0     C 8334   4.457   2.470   4.373 -0.3730 -0.7695  0.0695
   64MOL0     C 8335   4.436   2.338   4.395  0.6302 -0.2064  0.1281
   64MOL0     C 8336   4.353   2.286   4.512 -0.0541  0.7562  0.8011
   64MOL0     C 8337   4.201   2.296   4.486  0.8309  0.2663  0.2048
   64MOL0     C 8338   4.120   2.218   4.593 -0.0262 -0.1817  0.1442
   64MOL0     C 8339   3.965   2.234   4.566  1.3124 -0.1084  0.3889
   64MOL0     O 8340   3.919   2.365   4.585  0.4542  0.1038 -0.1376
   64MOL0     C 8341   3.783   2.386   4.601  0.4169  0.1163 -0.3901
   64MOL0     C 8342   3.689   2.288   4.566 -0.1241  0.3530 -0.2230
   64MOL0     C 8343   3.553   2.319   4.572  0.3128  0.5985  0.9347
   64MOL0     C 8344   3.509   2.448   4.592  0.0017 -0.6470 -0.7942
   64MOL0     C 8345   3.364   2.464   4.604  0.4071 -0.2265 -0.2440
   64MOL0     O 8346   3.283   2.357   4.594 -0.1245  0.1386  0.2348
   64MOL0     C 8347   3.154   2.378   4.640 -0.3482  1.1684  0.1909
   64MOL0     C 8348   3.138   2.402   4.777  1.0187 -0.6103  0.2342
   64MOL0     C 8349   3.007   2.419   4.827  0.0249  0.3772 -0.5721
   64MOL0     C 8350   2.893   2.422   4.738 -0.1273 -0.3189 -0.7132
   64MOL0     O 8351   2.759   2.428   4.774  0.0002 -0.1615  1.1648
   64MOL0     C 8352   2.723   2.494   4.889 -0.1053 -0.8153 -0.0325
   64MOL0     C 8353   2.575   2.483   4.925  0.2625  0.5915  0.7261
   64MOL0     C 8354   2.539   2.344   4.951 -0.6139  0.0261  0.6280
   64MOL0     C 8355   2.393   2.339   4.990  0.6417 -0.6801  0.1290
   64MOL0     C 8356   2.378   2.390   5.129 -0.0948 -0.6453 -0.2104
   64MOL0     C 8357   2.231   2.407   5.166 -0.0807 -0.6350 -0.1373
   64MOL0     C 8358   2.217   2.515   5.280  1.0027  0.1203  0.0738
   64MOL0     C 8359   2.066   2.557   5.293  0.4438  0.1661 -0.2518
   64MOL0    Cl 8360   2.026   2.662   5.154 -0.1376 -0.2433  0.3069
   64MOL0     C 8361   2.911   2.408   4.603  0.1453 -0.5795 -0.4889
   64MOL0     C 8362   3.041   2.384   4.554  0.1511 -0.5506  0.5582
   64MOL0     O 8363   3.329   2.577   4.637 -0.0717 -0.2176  0.7463
   64MOL0     C 8364   3.604   2.549   4.612  0.0554  0.1100 -1.0599
   64MOL0     C 8365   3.743   2.517   4.618  0.3191  0.2703  1.0407
   64MOL0     N 8366   4.486   2.259   4.293  0.3858 -0.4641 -0.1714
   64MOL0     N 8367   4.538   2.344   4.211  0.0939  0.1504 -0.7474
   64MOL0     C 8368   5.119   3.165   4.575 -0.4673 -1.0004 -0.4676
   64MOL0     C 8369   5.260   3.187   4.588  0.1648  0.5514 -0.1280
   64MOL0     C 8370   5.696   3.164   4.460 -0.5184 -0.9861 -0.4768
   64MOL0     C 8371   5.790   3.158   4.362  0.3532 -0.0738 -0.5068
   64MOL0     C 8372   5.921   3.136   4.389  0.0270 -0.2807 -0.4992
   64MOL0     C 8373   5.973   3.097   4.512  0.0811 -0.2157 -0.4279
   64MOL0     O 8374   6.107   3.066   4.507  0.4151 -0.4741  0.6682
   64MOL0     C 8375   6.166   2.995   4.618 -0.2715  0.9054 -0.4301
   64MOL0     C 8376   6.222   2.865   4.562 -0.8943 -0.1892  0.1875
   64MOL0     C 8377   6.263   2.762   4.665  0.6759  0.0689 -0.4269
   64MOL0     C 8378   6.287   2.625   4.606  0.1360  0.3078  0.2984
   64MOL0     C 8379   6.328   2.525   4.698 -0.0016 -0.0905  0.2258
   64MOL0     C 8380   6.353   2.448   4.785 -0.3665  0.0553 -0.3765
   64MOL0     C 8381   5.879   3.085   4.614 -0.2693 -1.2005 -0.3589
   64MOL0     C 8382   5.746   3.128   4.588  0.6305 -0.3486  0.5874
   64MOL0     H 8383   5.378   2.966   4.371 -1.8108  0.9219  0.8085
   64MOL0     H 8384   5.145   2.915   4.339 -0.7308  1.6297 -1.6014
   64MOL0     H 8385   4.914   2.883   4.393 -0.9804 -0.3873  0.7597
   64MOL0     H 8386   4.950   3.018   4.283  0.1264 -0.0540  0.0236
   64MOL0     H 8387   4.704   3.104   4.365  2.0631  0.8590  2.2380
   64MOL0     H 8388   4.704   2.944   4.442  1.1285 -1.0005  0.2729
   64MOL0     H 8389   4.727   2.840   4.216 -2.0016 -1.6190  0.4681
   64MOL0     H 8390   4.695   3.004   4.153 -2.1506 -0.2006 -0.3186
   64MOL0     H 8391   4.510   2.841   4.319 -0.9538  2.4525  3.5865
   64MOL0     H 8392   4.493   3.011   4.314 -2.0285 -1.3114  0.6330
   64MOL0     H 8393   4.470   3.011   4.067  1.2519 -0.3542 -0.0289
   64MOL0     H 8394   4.353   2.907   4.160  0.6380 -0.8524  3.5469
   64MOL0     H 8395   4.601   2.808   4.010  0.8797  1.4809  1.9925
   64MOL0     H 8396   4.438   2.813   3.950  1.9747  0.5759 -0.3969
   64MOL0     H 8397   4.370   2.667   4.159 -0.9243 -0.0333  0.4167
   64MOL0     H 8398   4.438   2.599   4.008 -4.7179 -0.9959  1.9965
   64MOL0     H 8399   4.623   2.657   4.242  1.9057  0.9580 -2.9346
   64MOL0     H 8400   4.647   2.560   4.110 -0.0666  1.7348 -0.0756
   64MOL0     H 8401   4.410   2.545   4.436  1.6683 -1.3787  2.4997
   64MOL0     H 8402   4.387   2.332   4.606  0.5374  0.8010  0.5708
   64MOL0     H 8403   4.387   2.183   4.524  0.5155  0.7758 -0.5769
   64MOL0     H 8404   4.170   2.259   4.388  1.4736 -0.6568  0.3316
   64MOL0     H 8405   4.186   2.404   4.496  6.3977  1.3228  0.6413
   64MOL0     H 8406   4.149   2.114   4.580  0.2935 -0.4361  2.5677
   64MOL0     H 8407   4.154   2.259   4.689 -0.2070  4.9174 -1.6341
   64MOL0     H 8408   3.914   2.175   4.643  0.3417  0.2359  0.0214
   64MOL0     H 8409   3.942   2.193   4.467 -2.5447  3.2643 -0.3724
   64MOL0     H 8410   3.721   2.185   4.547 -1.4412  0.1296 -1.4183
   64MOL0     H 8411   3.476   2.243   4.566  0.7847  0.2326 -2.3547
   64MOL0     H 8412   3.227   2.399   4.838  0.7716  0.5883  0.6689
   64MOL0     H 8413   2.982   2.435   4.931  0.5457  0.7548 -0.5041
   64MOL0     H 8414   2.751   2.600   4.879  2.6042 -1.3884  0.7323
   64MOL0     H 8415   2.787   2.453   4.968  1.8674 -1.4067 -1.8603
   64MOL0     H 8416   2.510   2.526   4.848  2.2457  2.4962  0.0105
   64MOL0     H 8417   2.569   2.532   5.022  3.2523 -0.1172  1.3609
   64MOL0     H 8418   2.603   2.302   5.029 -1.5880 -0.4412  1.1922
   64MOL0     H 8419   2.545   2.275   4.866  3.0628 -0.5646  1.1920
   64MOL0     H 8420   2.327   2.393   4.921  0.6044 -1.5330 -0.5211
   64MOL0     H 8421   2.353   2.237   4.981 -0.4096 -0.1166 -2.6891
   64MOL0     H 8422   2.419   2.490   5.146  1.0947 -1.5491  3.0463
   64MOL0     H 8423   2.433   2.324   5.196 -1.1809  1.6658  3.2451
   64MOL0     H 8424   2.190   2.315   5.209 -2.7297  2.0466  3.6486
   64MOL0     H 8425   2.172   2.439   5.079 -1.7066 -0.5716  0.9404
   64MOL0     H 8426   2.248   2.468   5.374 -2.2753 -1.8066  0.3423
   64MOL0     H 8427   2.273   2.606   5.254 -0.6623  1.1437 -0.0293
   64MOL0     H 8428   2.055   2.616   5.384  3.1557 -1.7249  1.4260
   64MOL0     H 8429   1.998   2.472   5.284  2.7331 -1.7044 -0.8808
   64MOL0     H 8430   2.825   2.443   4.547  0.1855  0.7668  0.2541
   64MOL0     H 8431   3.051   2.370   4.447 -2.8660 -1.1860  0.2858
   64MOL0     H 8432   3.574   2.653   4.621 -1.1360 -0.1465 -1.8543
   64MOL0     H 8433   3.819   2.595   4.613  0.8855 -0.2923  0.8401
   64MOL0     H 8434   5.049   3.230   4.626  0.7546 -0.5318  0.6656
   64MOL0     H 8435   5.289   3.267   4.656 -2.6707  0.2968  1.5191
   64MOL0     H 8436   5.759   3.198   4.266 -0.0153 -0.4923 -0.5664
   64MOL0     H 8437   5.983   3.149   4.300 -0.6004  0.5153 -0.8325
   64MOL0     H 8438   6.095   2.980   4.701 -0.0312 -2.8853 -0.7270
   64MOL0     H 8439   6.242   3.058   4.664  2.0369 -2.7527  1.2548
   64MOL0     H 8440   6.133   2.834   4.506 -0.4861 -0.8771 -0.0889
   64MOL0     H 8441   6.313   2.888   4.507  1.5153  3.6286  4.9602
   64MOL0     H 8442   6.184   2.759   4.741  1.8223  1.2850  0.8616
   64MOL0     H 8443   6.351   2.793   4.721 -0.9690  2.0381  1.2558
   64MOL0     H 8444   6.193   2.594   4.560 -0.4618  0.0763  1.6290
   64MOL0     H 8445   6.354   2.623   4.519 -2.0224 -2.3873 -1.4370
   64MOL0     H 8446   6.359   2.372   4.861  1.4771 -1.0232 -1.5304
   64MOL0     H 8447   5.903   3.063   4.717  1.5131 -1.8371 -0.8703
   64MOL0     H 8448   5.675   3.147   4.669 -0.6307 -1.2982 -0.2621
   65MOL0     O 8449   6.516  11.196   2.300 -0.2196  0.2045 -0.3589
   65MOL0     C 8450   6.503  11.316   2.345  0.3457  0.6325  0.3637
   65MOL0     O 8451   6.384  11.366   2.380 -0.2700  0.1892 -0.8482
   65MOL0     C 8452   6.262  11.303   2.384  0.0855 -0.2002  1.4610
   65MOL0     C 8453   6.178  11.355   2.487  0.3880  0.1757  0.2153
   65MOL0     C 8454   6.046  11.310   2.494  0.3669  0.5344 -0.6237
   65MOL0     C 8455   5.993  11.209   2.413  0.6469  0.1822  0.2616
   65MOL0     O 8456   5.858  11.186   2.436  0.4209  1.3768 -0.3428
   65MOL0     C 8457   5.790  11.089   2.360  0.5793  0.1215 -0.6158
   65MOL0     C 8458   5.819  10.960   2.433  0.5358  0.1025 -0.1855
   65MOL0     C 8459   5.726  10.863   2.370  0.3338  0.2784 -0.5364
   65MOL0     C 8460   5.567  10.883   2.366 -0.0603  0.2289  0.1280
   65MOL0     C 8461   5.495  10.752   2.328  0.6521 -1.0067  0.8754
   65MOL0     C 8462   5.349  10.785   2.286  0.4283 -0.2532 -0.2789
   65MOL0     C 8463   5.258  10.660   2.253  0.1112 -0.3494  0.0348
   65MOL0     C 8464   5.229  10.581   2.377 -0.6308  0.8514  0.3006
   65MOL0     N 8465   5.127  10.648   2.460  0.9360 -0.2307  0.4175
   65MOL0     C 8466   5.137  10.759   2.540 -0.2962 -0.0320 -0.4303
   65MOL0     C 8467   5.022  10.764   2.615  0.5319  0.2215 -0.2282
   65MOL0     C 8468   4.970  10.864   2.717  0.2533  0.8541  0.5378
   65MOL0     C 8469   4.937  10.803   2.856  0.7441  0.8755  0.5551
   65MOL0     C 8470   4.905  10.905   2.954 -0.0538  0.1031 -0.5989
   65MOL0     C 8471   4.879  10.836   3.085 -0.2253 -1.3213  0.2886
   65MOL0     O 8472   4.757  10.764   3.079  0.6929  0.6539 -0.4506
   65MOL0     C 8473   4.637  10.827   3.108  0.2716  0.9012 -0.1611
   65MOL0     C 8474   4.524  10.759   3.072  1.1608  0.7596  0.0006
   65MOL0     C 8475   4.400  10.807   3.092  0.0565 -0.2216 -0.0544
   65MOL0     C 8476   4.383  10.929   3.151  0.1179  0.3364 -0.9670
   65MOL0     C 8477   4.238  10.964   3.189 -0.0619 -0.4568  0.0210
   65MOL0     O 8478   4.214  11.101   3.216  0.4182 -0.4004  0.4063
   65MOL0     C 8479   4.082  11.130   3.245  1.1700 -0.0866  0.0809
   65MOL0     C 8480   3.980  11.108   3.145  0.0609 -0.1249 -0.0574
   65MOL0     C 8481   3.846  11.136   3.187 -0.0436  0.5349 -0.1476
   65MOL0     C 8482   3.806  11.190   3.310  0.6256 -0.1662 -0.5477
   65MOL0     O 8483   3.682  11.226   3.340 -0.4270 -1.0553 -0.0969
   65MOL0     C 8484   3.582  11.234   3.233 -0.0292 -0.1473  0.3952
   65MOL0     C 8485   3.450  11.291   3.284 -0.9438  0.8360 -0.4258
   65MOL0     C 8486   3.350  11.311   3.169 -0.5281  0.2015  0.5775
   65MOL0     C 8487   3.222  11.378   3.220  0.9427  1.1469 -0.3219
   65MOL0     C 8488   3.123  11.381   3.093 -0.7950 -0.3133 -1.1683
   65MOL0     C 8489   2.988  11.444   3.140 -0.4280 -0.3858  0.2557
   65MOL0     C 8490   2.912  11.518   3.026 -0.9496  0.4767 -0.0196
   65MOL0     C 8491   2.809  11.437   2.944  0.3725  0.1373 -0.3224
   65MOL0    Cl 8492   2.893  11.305   2.861  0.0801 -0.3560 -0.1521
   65MOL0     C 8493   3.910  11.211   3.397  0.1839 -0.2694  0.0812
   65MOL0     C 8494   4.045  11.179   3.371  0.5319  0.2080 -0.4389
   65MOL0     O 8495   4.162  10.873   3.211 -0.1664 -0.2740 -0.1776
   65MOL0     C 8496   4.496  10.996   3.191  0.0275  0.9223  0.2456
   65MOL0     C 8497   4.623  10.951   3.161 -0.5738  0.7817  0.9635
   65MOL0     N 8498   4.954  10.653   2.591 -0.5346  0.6163 -0.5315
   65MOL0     N 8499   5.011  10.582   2.498 -0.0835  0.4215 -1.4977
   65MOL0     C 8500   6.077  11.158   2.308 -0.4653  0.1203 -0.3129
   65MOL0     C 8501   6.210  11.211   2.290  0.2397  0.3174  0.2114
   65MOL0     C 8502   6.622  11.398   2.368 -0.0826  0.3473 -0.8109
   65MOL0     C 8503   6.619  11.521   2.437  0.3390  0.2461 -0.2816
   65MOL0     C 8504   6.736  11.588   2.470  0.3154 -0.0467 -0.1681
   65MOL0     C 8505   6.861  11.525   2.437 -0.1676 -0.2988 -0.0895
   65MOL0     O 8506   6.976  11.589   2.471 -0.6483 -0.1149 -0.1477
   65MOL0     C 8507   7.077  11.601   2.364 -0.6417  0.2404  0.5440
   65MOL0     C 8508   7.166  11.716   2.388  0.6451 -0.1199 -0.7620
   65MOL0     C 8509   7.253  11.724   2.515 -0.3133 -0.9874  0.4721
   65MOL0     C 8510   7.175  11.798   2.633 -0.1086 -0.4386 -0.5459
   65MOL0     C 8511   7.259  11.874   2.722 -0.5029  0.2881 -0.6463
   65MOL0     C 8512   7.337  11.935   2.794 -0.0257  0.3375  0.2341
   65MOL0     C 8513   6.865  11.403   2.361  0.4891 -0.7004 -0.5908
   65MOL0     C 8514   6.745  11.344   2.327 -0.0270 -0.1867 -0.2296
   65MOL0     H 8515   6.210  11.439   2.547 -0.4783 -0.2474  1.3045
   65MOL0     H 8516   5.982  11.359   2.567  0.7950 -0.6162  0.5645
   65MOL0     H 8517   5.814  11.082   2.253  1.2210 -0.4156 -0.4471
   65MOL0     H 8518   5.684  11.112   2.372  0.1528 -2.6860  2.1367
   65MOL0     H 8519   5.798  10.959   2.541 -4.9995 -5.1853 -0.7905
   65MOL0     H 8520   5.922  10.924   2.425  0.4412  0.1344 -1.7387
   65MOL0     H 8521   5.749  10.769   2.420  0.6590 -0.9911 -2.9278
   65MOL0     H 8522   5.754  10.845   2.266  1.7147 -0.0815 -0.1119
   65MOL0     H 8523   5.536  10.903   2.469 -1.8890  3.0518 -0.8699
   65MOL0     H 8524   5.539  10.965   2.299 -1.2554 -0.0265  0.2875
   65MOL0     H 8525   5.492  10.681   2.412 -1.5337 -0.6769  1.1511
   65MOL0     H 8526   5.544  10.698   2.246  2.0584 -1.5516  2.0477
   65MOL0     H 8527   5.361  10.845   2.195 -1.4158 -0.2359 -0.5655
   65MOL0     H 8528   5.303  10.849   2.362 -1.0204 -2.8151  1.1473
   65MOL0     H 8529   5.167  10.698   2.207  0.3796 -1.3152 -1.3449
   65MOL0     H 8530   5.307  10.601   2.175 -0.4101 -0.4197 -0.2412
   65MOL0     H 8531   5.321  10.562   2.433 -0.4801  0.3279 -0.1107
   65MOL0     H 8532   5.191  10.482   2.351  0.4421  0.6419 -0.5445
   65MOL0     H 8533   5.226  10.822   2.542 -0.9096  0.8576  1.8075
   65MOL0     H 8534   4.876  10.901   2.674 -1.3454 -2.7628  0.5845
   65MOL0     H 8535   5.044  10.945   2.727  0.4285  0.4598  2.8275
   65MOL0     H 8536   5.019  10.738   2.890  0.2431  0.9964  2.1007
   65MOL0     H 8537   4.841  10.754   2.843  0.7503  0.7481  0.9693
   65MOL0     H 8538   4.990  10.974   2.966 -1.5777  1.8458  0.8047
   65MOL0     H 8539   4.819  10.967   2.925 -0.1771  0.4816  0.5535
   65MOL0     H 8540   4.896  10.913   3.161  1.8870 -4.0265  2.7894
   65MOL0     H 8541   4.958  10.764   3.107 -0.8733 -1.9356  0.6453
   65MOL0     H 8542   4.532  10.661   3.026  0.7283  0.7759 -0.1149
   65MOL0     H 8543   4.313  10.746   3.071  0.3125 -1.4213  2.1236
   65MOL0     H 8544   4.014  11.095   3.043  0.8605  2.9417 -0.2973
   65MOL0     H 8545   3.777  11.109   3.108  2.1258 -1.9652 -1.3583
   65MOL0     H 8546   3.563  11.133   3.196 -1.6258 -1.7532  4.9253
   65MOL0     H 8547   3.622  11.303   3.158  0.3604  1.1167  1.7174
   65MOL0     H 8548   3.462  11.386   3.337  1.2428 -0.1707  1.0178
   65MOL0     H 8549   3.406  11.227   3.362  0.6952 -0.4899 -0.5309
   65MOL0     H 8550   3.336  11.217   3.114  2.7634 -0.8002  1.1791
   65MOL0     H 8551   3.400  11.370   3.091 -1.8545  2.2707  1.2041
   65MOL0     H 8552   3.182  11.319   3.303  3.1409  0.7076  0.5115
   65MOL0     H 8553   3.240  11.480   3.253  3.2662  0.5032  0.6205
   65MOL0     H 8554   3.115  11.286   3.040 -0.8280 -0.6616 -0.5551
   65MOL0     H 8555   3.162  11.449   3.017  2.0145 -1.5557 -0.9372
   65MOL0     H 8556   3.005  11.525   3.212  1.7492 -0.5859  0.0278
   65MOL0     H 8557   2.922  11.371   3.188  1.3713 -2.6204 -0.5319
   65MOL0     H 8558   2.859  11.607   3.060 -0.7574  0.4558  0.3395
   65MOL0     H 8559   2.989  11.556   2.958  0.4411  0.1263  1.2914
   65MOL0     H 8560   2.783  11.500   2.858 -1.7544  1.5498  1.2350
   65MOL0     H 8561   2.716  11.414   2.997  1.1125 -3.2260 -0.3257
   65MOL0     H 8562   3.889  11.269   3.486  2.1188  0.2977  0.1961
   65MOL0     H 8563   4.122  11.196   3.446 -0.0447  0.2038  0.1711
   65MOL0     H 8564   4.490  11.098   3.228 -0.9075  0.0224  2.7757
   65MOL0     H 8565   4.710  11.015   3.173  1.1525 -1.3282  0.4010
   65MOL0     H 8566   6.038  11.085   2.238 -1.0914  0.6305 -0.5159
   65MOL0     H 8567   6.261  11.192   2.196 -0.3711 -0.5228  0.0383
   65MOL0     H 8568   6.526  11.578   2.443  0.9113  1.1196  0.7176
   65MOL0     H 8569   6.728  11.683   2.522 -0.0070 -0.2458  0.1530
   65MOL0     H 8570   7.029  11.606   2.266 -0.4646 -0.0526  0.4398
   65MOL0     H 8571   7.129  11.506   2.379  0.6188  1.0293  1.3424
   65MOL0     H 8572   7.227  11.732   2.298  2.1096  4.3142  0.7535
   65MOL0     H 8573   7.110  11.810   2.383 -1.1219 -1.0975 -0.0136
   65MOL0     H 8574   7.347  11.774   2.490 -0.4154 -0.8922  0.2734
   65MOL0     H 8575   7.285  11.623   2.543  3.7140 -0.9842 -2.9583
   65MOL0     H 8576   7.092  11.853   2.587 -0.6642 -1.4137 -0.7353
   65MOL0     H 8577   7.126  11.718   2.690 -0.1910 -0.9758 -1.3451
   65MOL0     H 8578   7.394  11.989   2.866  0.1578  0.5503 -0.0685
   65MOL0     H 8579   6.962  11.361   2.334  0.5313 -0.6404 -0.5345
   65MOL0     H 8580   6.754  11.246   2.281  0.5482 -0.4194  0.3664
   66MOL0     O 8581   1.941   8.359   0.228  0.0542  0.6375 -0.1772
   66MOL0     C 8582   1.914   8.476   0.197  0.2161  0.8459 -0.2601
   66MOL0     O 8583   1.999   8.573   0.187 -0.3732  0.1984  0.3621
   66MOL0     C 8584   2.133   8.548   0.184 -0.1030  0.3262  0.8238
   66MOL0     C 8585   2.211   8.450   0.254  0.4735 -0.0027  0.0339
   66MOL0     C 8586   2.354   8.439   0.227  0.8435  0.3603 -0.4807
   66MOL0     C 8587   2.416   8.520   0.131  0.2423 -0.3573 -0.8373
   66MOL0     O 8588   2.552   8.503   0.124  0.2812  0.1343  0.2167
   66MOL0     C 8589   2.634   8.566   0.025 -0.1578 -0.8037  0.0989
   66MOL0     C 8590   2.773   8.574   0.075 -0.4416 -0.2317  0.0491
   66MOL0     C 8591   2.878   8.576  -0.034  0.2785  0.6308  0.0192
   66MOL0     C 8592   3.012   8.621   0.031  0.3084 -0.3827 -0.3904
   66MOL0     C 8593   3.116   8.608  -0.078 -0.5251 -0.6730  0.5478
   66MOL0     C 8594   3.250   8.615  -0.024 -0.2823  0.5160 -0.2842
   66MOL0     C 8595   3.356   8.594  -0.130  1.3517 -0.0734 -0.1350
   66MOL0     C 8596   3.502   8.618  -0.093  0.9140  0.2531 -0.4357
   66MOL0     N 8597   3.536   8.758  -0.076 -0.1395  0.0743 -0.7209
   66MOL0     C 8598   3.497   8.832   0.038 -0.3819  0.1496 -0.3102
   66MOL0     C 8599   3.544   8.956   0.011  1.4337 -0.7037  0.8095
   66MOL0     C 8600   3.544   9.088   0.087  0.9157  0.1013  0.2007
   66MOL0     C 8601   3.628   9.066   0.216 -0.1388  0.4509 -0.5431
   66MOL0     C 8602   3.577   9.170   0.324  0.3242 -0.0233 -0.0167
   66MOL0     C 8603   3.632   9.136   0.462 -0.1803  0.3232  1.2831
   66MOL0     O 8604   3.629   9.252   0.543  0.5648 -0.3104  0.6279
   66MOL0     C 8605   3.521   9.262   0.612  0.0570  0.2964  0.6507
   66MOL0     C 8606   3.405   9.325   0.562 -0.7624  0.4087  0.3686
   66MOL0     C 8607   3.289   9.334   0.644 -0.2887  0.2695 -0.7995
   66MOL0     C 8608   3.287   9.279   0.776  0.0625  0.8787 -0.0143
   66MOL0     C 8609   3.165   9.282   0.863 -0.0572 -0.4863 -0.2941
   66MOL0     O 8610   3.054   9.302   0.792 -0.1847 -0.7285 -0.6753
   66MOL0     C 8611   2.934   9.302   0.868 -0.3972  0.0406  0.5834
   66MOL0     C 8612   2.897   9.416   0.939  0.9550  0.1152  0.2949
   66MOL0     C 8613   2.762   9.436   0.979 -1.0777  1.1254 -1.1023
   66MOL0     C 8614   2.672   9.334   0.962  0.0835 -0.7698 -0.6930
   66MOL0     O 8615   2.545   9.372   1.004 -0.1448 -0.4505 -0.0042
   66MOL0     C 8616   2.436   9.274   1.008 -0.2466  0.2178 -0.5811
   66MOL0     C 8617   2.326   9.333   1.096  0.3111 -0.4227 -0.0906
   66MOL0     C 8618   2.210   9.235   1.118  0.2278 -0.0139  0.9373
   66MOL0     C 8619   2.087   9.306   1.179 -0.1236 -0.4413  0.5074
   66MOL0     C 8620   1.983   9.198   1.209  0.0817  0.1814  0.7131
   66MOL0     C 8621   1.860   9.257   1.268 -0.3768 -0.7620 -0.4224
   66MOL0     C 8622   1.762   9.153   1.320 -0.1710  0.1872 -0.0077
   66MOL0     C 8623   1.736   9.039   1.227  0.7571  0.5434  1.0191
   66MOL0    Cl 8624   1.629   8.913   1.289 -0.7327 -0.0055  0.3087
   66MOL0     C 8625   2.715   9.215   0.909 -0.3404 -0.3926  0.5358
   66MOL0     C 8626   2.842   9.196   0.861 -0.0032 -0.7293 -0.2419
   66MOL0     O 8627   3.174   9.255   0.978 -0.1811  0.6642 -0.4511
   66MOL0     C 8628   3.404   9.241   0.830  0.6252  0.2707 -1.4378
   66MOL0     C 8629   3.524   9.228   0.751 -0.6564 -0.3441  0.5791
   66MOL0     N 8630   3.604   8.954  -0.114 -0.4002 -0.0208 -0.2699
   66MOL0     N 8631   3.598   8.836  -0.164  0.5794  0.0232  0.2891
   66MOL0     C 8632   2.341   8.626   0.079 -0.2765  0.1516  0.1774
   66MOL0     C 8633   2.211   8.633   0.102  0.7512 -0.8871  0.2302
   66MOL0     C 8634   1.769   8.504   0.164 -0.2280 -1.0738  0.4073
   66MOL0     C 8635   1.685   8.397   0.163  0.2863  0.2474  1.1172
   66MOL0     C 8636   1.549   8.410   0.132 -0.0227 -0.0366 -0.6829
   66MOL0     C 8637   1.504   8.534   0.088  0.9154 -0.2813  0.0879
   66MOL0     O 8638   1.363   8.552   0.071 -0.3706 -0.8886 -0.1845
   66MOL0     C 8639   1.293   8.546   0.201 -0.2032 -0.2818  0.2589
   66MOL0     C 8640   1.157   8.611   0.201  0.2917 -0.5154  0.3072
   66MOL0     C 8641   1.092   8.623   0.342  0.3333 -0.0975  0.6869
   66MOL0     C 8642   1.108   8.764   0.391  0.4280 -0.4441 -0.0014
   66MOL0     C 8643   1.038   8.801   0.516 -1.1433  0.4930 -0.1893
   66MOL0     C 8644   0.967   8.831   0.612 -0.2362  0.2706  1.0142
   66MOL0     C 8645   1.587   8.650   0.084 -0.0670  0.7718  0.1714
   66MOL0     C 8646   1.721   8.630   0.116 -0.2265  0.1883 -0.4236
   66MOL0     H 8647   2.167   8.383   0.328  0.7118  0.3391  0.4918
   66MOL0     H 8648   2.411   8.361   0.277 -0.4939 -1.4709 -1.6819
   66MOL0     H 8649   2.594   8.657  -0.022 -0.6205 -1.2975 -0.4749
   66MOL0     H 8650   2.636   8.500  -0.062 -0.7865 -1.5415  0.6318
   66MOL0     H 8651   2.786   8.492   0.147 -0.0462 -0.7710 -0.6345
   66MOL0     H 8652   2.780   8.665   0.135  0.0400 -0.5334  0.4540
   66MOL0     H 8653   2.849   8.645  -0.114  1.3263 -0.2191 -1.1252
   66MOL0     H 8654   2.884   8.478  -0.081 -0.7652 -0.3832  1.9163
   66MOL0     H 8655   3.014   8.717   0.082 -1.0519 -1.0684  1.0412
   66MOL0     H 8656   3.027   8.555   0.118 -0.5857 -1.9479 -1.3795
   66MOL0     H 8657   3.098   8.686  -0.153 -1.1773 -0.6358  0.7341
   66MOL0     H 8658   3.098   8.511  -0.125 -0.6804 -0.5105  0.2616
   66MOL0     H 8659   3.268   8.537   0.050 -2.6406 -0.1446 -0.3123
   66MOL0     H 8660   3.260   8.710   0.030 -1.6002  0.7805 -0.4605
   66MOL0     H 8661   3.344   8.490  -0.164 -0.2213 -0.5877  1.8255
   66MOL0     H 8662   3.327   8.654  -0.216  1.9995 -1.3049 -1.2560
   66MOL0     H 8663   3.563   8.581  -0.175  0.0692 -0.8829 -0.5741
   66MOL0     H 8664   3.518   8.564   0.001  0.2894 -0.4113 -0.7014
   66MOL0     H 8665   3.445   8.807   0.130  0.3253  0.7826  0.2825
   66MOL0     H 8666   3.438   9.108   0.107  0.7822 -0.5281  0.1400
   66MOL0     H 8667   3.590   9.172   0.035  2.9899 -0.8258  0.4557
   66MOL0     H 8668   3.737   9.069   0.207  0.0215  0.4105  1.1252
   66MOL0     H 8669   3.603   8.970   0.262  2.7621  0.1881  0.7360
   66MOL0     H 8670   3.610   9.265   0.280  1.6930 -1.7862 -3.1678
   66MOL0     H 8671   3.468   9.171   0.323  0.3237  0.4925 -1.2188
   66MOL0     H 8672   3.735   9.098   0.456  0.1473  1.3930 -1.2955
   66MOL0     H 8673   3.570   9.056   0.504 -1.6624  0.7088 -0.0878
   66MOL0     H 8674   3.410   9.360   0.459  3.5297 -1.5394 -0.3207
   66MOL0     H 8675   3.202   9.389   0.611 -1.7179  0.9393  3.4474
   66MOL0     H 8676   2.969   9.497   0.955 -0.4452  1.7056 -1.0648
   66MOL0     H 8677   2.738   9.532   1.023  0.2901  1.7385 -1.6379
   66MOL0     H 8678   2.471   9.185   1.061 -1.4904  0.0549 -0.0045
   66MOL0     H 8679   2.403   9.246   0.908  0.1181 -0.8428 -0.4244
   66MOL0     H 8680   2.290   9.433   1.071 -0.9899  0.0218  3.0797
   66MOL0     H 8681   2.363   9.355   1.197 -1.2863  0.8181  0.2644
   66MOL0     H 8682   2.249   9.162   1.190  0.7349  2.1006  2.9606
   66MOL0     H 8683   2.184   9.180   1.028  0.1242 -0.0411  0.9840
   66MOL0     H 8684   2.118   9.364   1.266 -2.0715 -0.8514  1.5219
   66MOL0     H 8685   2.046   9.373   1.103 -1.5846 -2.1553 -0.2918
   66MOL0     H 8686   2.023   9.120   1.275 -1.5348  0.5911  2.2597
   66MOL0     H 8687   1.961   9.158   1.109 -1.0012  2.3858  0.0057
   66MOL0     H 8688   1.810   9.323   1.196  1.2989  0.9846 -0.0940
   66MOL0     H 8689   1.895   9.322   1.349 -0.6471 -0.1898 -0.7553
   66MOL0     H 8690   1.802   9.114   1.414 -0.9630 -0.4096  0.0977
   66MOL0     H 8691   1.661   9.192   1.334 -0.5861 -0.5383 -0.8851
   66MOL0     H 8692   1.831   8.991   1.201 -0.2891 -0.7546 -0.5902
   66MOL0     H 8693   1.700   9.081   1.132 -2.3586  0.7563  2.1844
   66MOL0     H 8694   2.645   9.134   0.892  0.7388 -1.4941  1.1779
   66MOL0     H 8695   2.882   9.106   0.816  0.7484 -1.2560  1.3748
   66MOL0     H 8696   3.406   9.218   0.936 -1.3157 -1.3704 -1.7065
   66MOL0     H 8697   3.621   9.203   0.791 -1.2657  0.5657  2.8144
   66MOL0     H 8698   2.382   8.703   0.014  0.4586  1.3891  2.0365
   66MOL0     H 8699   2.154   8.720   0.069 -0.0471 -0.0281  3.5306
   66MOL0     H 8700   1.726   8.300   0.190  0.7397 -0.6571 -2.4018
   66MOL0     H 8701   1.484   8.325   0.145 -0.3437  0.4538  1.2032
   66MOL0     H 8702   1.341   8.600   0.282 -0.8960 -1.0564  1.2242
   66MOL0     H 8703   1.293   8.442   0.237  1.2552  0.0211  1.2078
   66MOL0     H 8704   1.168   8.707   0.150  0.0150 -0.4772  0.3222
   66MOL0     H 8705   1.093   8.544   0.143  1.1765 -0.2886 -0.9745
   66MOL0     H 8706   1.145   8.551   0.405 -1.1768 -0.0700  2.0807
   66MOL0     H 8707   0.990   8.583   0.346  0.3686 -0.1911  0.6662
   66MOL0     H 8708   1.214   8.778   0.415  2.3449 -4.2350 -4.5282
   66MOL0     H 8709   1.071   8.838   0.318 -0.3509 -0.1122  0.7200
   66MOL0     H 8710   0.924   8.854   0.708  0.6441 -0.7993  1.6754
   66MOL0     H 8711   1.550   8.748   0.055  0.2325  0.4506 -1.4197
   66MOL0     H 8712   1.787   8.715   0.104 -0.1957  0.2511  0.1564
   67MOL0     O 8713   0.332   9.597   6.843 -0.3821 -0.5134  0.0271
   67MOL0     C 8714   0.395   9.702   6.845  0.5628 -0.2419 -0.5239
   67MOL0     O 8715   0.362   9.808   6.924  0.4050  0.0113 -0.3010
   67MOL0     C 8716   0.250   9.800   6.997  0.1328  1.2056  0.1489
   67MOL0     C 8717   0.267   9.795   7.131 -0.0420 -0.5728 -0.1273
   67MOL0     C 8718   0.157   9.788   7.214  0.3270  0.3827  0.5697
   67MOL0     C 8719   0.035   9.799   7.156  0.1887 -0.3872 -0.2804
   67MOL0     O 8720  -0.078   9.776   7.230 -0.7534 -0.0872  0.1080
   67MOL0     C 8721  -0.106   9.631   7.241 -0.2552  0.2387 -0.4728
   67MOL0     C 8722  -0.240   9.623   7.320 -0.1477 -0.2500  0.0306
   67MOL0     C 8723  -0.359   9.673   7.233 -0.1940 -0.0715 -0.2172
   67MOL0     C 8724  -0.478   9.717   7.339  0.1644  0.4300  0.4892
   67MOL0     C 8725  -0.610   9.770   7.264 -0.2071  0.4174  0.1429
   67MOL0     C 8726  -0.603   9.894   7.189  0.2257  0.0987 -0.2164
   67MOL0     C 8727  -0.577  10.008   7.292 -0.3999  0.0973 -0.1952
   67MOL0     C 8728  -0.588  10.142   7.207 -0.1655  0.3565 -0.5815
   67MOL0     N 8729  -0.726  10.173   7.189  0.6158 -0.5613  0.3113
   67MOL0     C 8730  -0.816  10.202   7.288  0.7460 -0.3013  0.2632
   67MOL0     C 8731  -0.936  10.212   7.226  0.4890  0.7664 -0.0578
   67MOL0     C 8732  -1.072  10.231   7.296 -0.1861  0.3212  0.4059
   67MOL0     C 8733  -1.166  10.116   7.260  0.3467 -0.7128  0.0578
   67MOL0     C 8734  -1.291  10.118   7.350 -1.2894  0.1222  0.0858
   67MOL0     C 8735  -1.385  10.005   7.316  0.0921 -0.4622 -0.4099
   67MOL0     O 8736  -1.496  10.032   7.403 -0.1544 -1.0354 -0.3160
   67MOL0     C 8737  -1.623  10.002   7.373 -0.8686 -0.0310 -0.2831
   67MOL0     C 8738  -1.712  10.086   7.441 -0.3856 -0.0005  0.4460
   67MOL0     C 8739  -1.848  10.083   7.396 -0.4346  0.0444  0.1122
   67MOL0     C 8740  -1.900   9.987   7.302 -0.3103  1.1568 -0.1743
   67MOL0     C 8741  -2.044   9.987   7.264 -0.3608  0.6168  0.3225
   67MOL0     O 8742  -2.123  10.076   7.334  0.2349 -0.0249 -0.4851
   67MOL0     C 8743  -2.254  10.058   7.311 -0.0416 -0.0015  0.9032
   67MOL0     C 8744  -2.340  10.164   7.277 -0.5477 -0.0981  0.7305
   67MOL0     C 8745  -2.483  10.150   7.273  0.0229  0.8811  0.1155
   67MOL0     C 8746  -2.534  10.028   7.314  0.0771  0.5761 -0.5794
   67MOL0     O 8747  -2.672  10.016   7.334 -0.2979 -0.9470 -0.0544
   67MOL0     C 8748  -2.736   9.886   7.355 -1.2992 -0.2259  0.1071
   67MOL0     C 8749  -2.886   9.906   7.386 -0.8996  0.3132  0.5486
   67MOL0     C 8750  -2.969   9.913   7.260  0.0938 -0.7486 -0.2173
   67MOL0     C 8751  -3.118   9.922   7.300  0.4160  0.2580  0.7550
   67MOL0     C 8752  -3.166   9.835   7.419  0.5507  0.2879 -0.2549
   67MOL0     C 8753  -3.318   9.812   7.409 -0.5567  0.5985  0.1097
   67MOL0     C 8754  -3.401   9.931   7.447 -0.3608 -0.4278  0.2164
   67MOL0     C 8755  -3.550   9.916   7.429  0.1428  0.6580  1.7125
   67MOL0    Cl 8756  -3.594   9.739   7.457 -0.2160 -0.1487  0.5464
   67MOL0     C 8757  -2.448   9.925   7.353  0.6161 -0.4647  0.3973
   67MOL0     C 8758  -2.310   9.940   7.347 -0.0108  0.3358  0.0519
   67MOL0     O 8759  -2.085   9.889   7.198  0.0740 -0.5476 -0.0096
   67MOL0     C 8760  -1.802   9.901   7.241 -0.2557 -0.1290  0.0993
   67MOL0     C 8761  -1.670   9.913   7.270 -0.5080  0.4418 -0.7807
   67MOL0     N 8762  -0.915  10.195   7.096  1.0720  0.0391  0.4801
   67MOL0     N 8763  -0.794  10.163   7.076  0.7009 -0.0624 -0.3478
   67MOL0     C 8764   0.018   9.821   7.016  0.1425 -0.2134  0.3335
   67MOL0     C 8765   0.129   9.813   6.940 -0.7343 -0.2899 -0.1834
   67MOL0     C 8766   0.485   9.736   6.733 -0.7319  0.1062  0.3197
   67MOL0     C 8767   0.534   9.638   6.645 -0.1775 -0.3389 -0.7059
   67MOL0     C 8768   0.640   9.660   6.557  1.3973 -0.7099  0.3366
   67MOL0     C 8769   0.699   9.789   6.554  0.2490 -0.2507  1.0816
   67MOL0     O 8770   0.810   9.808   6.480  0.1910  0.0006 -0.2324
   67MOL0     C 8771   0.877   9.933   6.469  0.1822 -0.7266 -0.4741
   67MOL0     C 8772   1.000   9.917   6.381  0.3722 -0.1928 -0.9997
   67MOL0     C 8773   0.991   9.836   6.257 -0.4325 -0.1254 -0.1950
   67MOL0     C 8774   0.994   9.916   6.128  0.0419  0.1370 -0.1235
   67MOL0     C 8775   1.000   9.822   6.011 -0.4815 -0.1368 -0.3879
   67MOL0     C 8776   1.016   9.746   5.917 -0.1225  0.8901 -0.2830
   67MOL0     C 8777   0.643   9.891   6.636 -0.8316 -0.5523  0.8583
   67MOL0     C 8778   0.533   9.865   6.720  0.5114  0.9739 -0.1018
   67MOL0     H 8779   0.367   9.772   7.167  0.9246 -2.3193 -3.5310
   67MOL0     H 8780   0.158   9.787   7.322 -0.9154  0.1450  0.5929
   67MOL0     H 8781  -0.033   9.579   7.305 -0.9730  0.1932  0.3272
   67MOL0     H 8782  -0.110   9.575   7.147  1.2801  0.6171 -0.8007
   67MOL0     H 8783  -0.232   9.697   7.400  0.1456 -0.3945  0.1357
   67MOL0     H 8784  -0.256   9.526   7.368  1.7719 -0.1985  0.9057
   67MOL0     H 8785  -0.391   9.599   7.159  1.5378  0.6629 -1.7821
   67MOL0     H 8786  -0.323   9.757   7.173 -1.8730  1.2149  0.5111
   67MOL0     H 8787  -0.512   9.633   7.400  0.8341 -0.9613 -0.9539
   67MOL0     H 8788  -0.443   9.798   7.403 -4.6001  4.7434 -1.5976
   67MOL0     H 8789  -0.696   9.776   7.332  0.0210  3.2609  0.2985
   67MOL0     H 8790  -0.640   9.684   7.204 -0.6465  0.9981 -0.4786
   67MOL0     H 8791  -0.695   9.918   7.136  0.5310 -0.0439 -0.8149
   67MOL0     H 8792  -0.522   9.889   7.116 -0.9304  0.0722 -1.5258
   67MOL0     H 8793  -0.653  10.007   7.371 -0.5270  5.4333  0.1433
   67MOL0     H 8794  -0.483  10.012   7.348 -0.3287 -2.2191 -0.0624
   67MOL0     H 8795  -0.539  10.127   7.111  0.6928 -0.2948 -0.0598
   67MOL0     H 8796  -0.533  10.225   7.254 -1.2312  2.2412 -2.4759
   67MOL0     H 8797  -0.790  10.214   7.393  2.3523  0.8346 -0.2297
   67MOL0     H 8798  -1.115  10.331   7.284  1.3744  0.9676 -0.0415
   67MOL0     H 8799  -1.037  10.216   7.398 -0.5799 -1.5193  0.3105
   67MOL0     H 8800  -1.104  10.026   7.269 -0.3635 -1.3986 -1.4151
   67MOL0     H 8801  -1.198  10.121   7.156 -0.9908 -2.4915  0.3361
   67MOL0     H 8802  -1.259  10.137   7.453 -0.0098  1.5062 -0.5274
   67MOL0     H 8803  -1.342  10.211   7.323 -0.3059  0.4620 -0.6946
   67MOL0     H 8804  -1.332   9.911   7.335  0.1576 -0.1485  1.0875
   67MOL0     H 8805  -1.417   9.994   7.212  0.7261 -0.7899 -0.5769
   67MOL0     H 8806  -1.685  10.162   7.514 -0.1920 -0.1423  0.5224
   67MOL0     H 8807  -1.913  10.159   7.440  0.2527 -0.7371  2.6560
   67MOL0     H 8808  -2.298  10.256   7.237 -0.5806  0.1215  1.1939
   67MOL0     H 8809  -2.540  10.234   7.235  3.4179  1.4531 -4.5558
   67MOL0     H 8810  -2.685   9.847   7.444 -1.2952  0.9087  0.6182
   67MOL0     H 8811  -2.720   9.806   7.282  2.6651 -1.6367  2.2237
   67MOL0     H 8812  -2.881  10.000   7.442  2.2156  0.6669 -0.1480
   67MOL0     H 8813  -2.920   9.827   7.454 -1.4716  0.9632  1.0347
   67MOL0     H 8814  -2.946   9.823   7.202 -2.8159 -2.1070  0.5289
   67MOL0     H 8815  -2.943   9.995   7.192 -0.1647 -0.7901 -0.3692
   67MOL0     H 8816  -3.135  10.028   7.318 -2.1332  0.1338 -0.4583
   67MOL0     H 8817  -3.181   9.900   7.213 -1.4724  3.5767  1.1294
   67MOL0     H 8818  -3.145   9.881   7.516  0.1649 -1.8543  0.9044
   67MOL0     H 8819  -3.111   9.741   7.419  0.9864  0.5315 -0.9422
   67MOL0     H 8820  -3.335   9.730   7.479  2.4533  0.3023  0.5989
   67MOL0     H 8821  -3.335   9.779   7.306 -3.3471 -0.4429  0.7897
   67MOL0     H 8822  -3.376   9.959   7.550 -0.5208  0.8181 -0.0707
   67MOL0     H 8823  -3.376  10.022   7.393 -1.5748  0.2966  0.8268
   67MOL0     H 8824  -3.581   9.939   7.326  1.1428 -1.0307  0.9854
   67MOL0     H 8825  -3.610   9.967   7.504 -1.0365 -1.4710  2.2734
   67MOL0     H 8826  -2.495   9.832   7.385 -2.4271  0.5868 -0.6450
   67MOL0     H 8827  -2.252   9.852   7.371 -2.1294 -0.8619  1.1102
   67MOL0     H 8828  -1.840   9.840   7.160  0.5159  1.1223 -1.2665
   67MOL0     H 8829  -1.588   9.871   7.213  1.1713  1.5753  0.6786
   67MOL0     H 8830  -0.080   9.831   6.970  1.4287  1.8867 -2.2368
   67MOL0     H 8831   0.130   9.823   6.832 -1.1425  1.9023 -0.0274
   67MOL0     H 8832   0.474   9.548   6.640  0.1938 -0.5242 -3.3405
   67MOL0     H 8833   0.690   9.584   6.498  3.4798 -0.3540  1.5532
   67MOL0     H 8834   0.903   9.981   6.565 -0.6304  1.5083 -1.3055
   67MOL0     H 8835   0.807  10.007   6.430 -0.3613  0.0414  1.8073
   67MOL0     H 8836   1.038  10.016   6.355  1.8919 -0.1571  1.0987
   67MOL0     H 8837   1.078   9.871   6.441  0.6184  0.4736 -0.8016
   67MOL0     H 8838   0.900   9.775   6.259 -0.4119 -0.1445  1.0622
   67MOL0     H 8839   1.070   9.760   6.262 -1.6683 -1.4106  0.7505
   67MOL0     H 8840   0.904   9.977   6.123 -0.6200 -0.8797 -1.1173
   67MOL0     H 8841   1.083   9.979   6.138  0.5889 -0.7502  0.7709
   67MOL0     H 8842   1.044   9.678   5.839  3.7738  1.3012  0.5455
   67MOL0     H 8843   0.684   9.991   6.625 -0.1544 -0.9400 -0.3122
   67MOL0     H 8844   0.484   9.943   6.778 -1.3381 -0.9536  1.0779
   68MOL0     O 8845   6.324   3.076  10.493 -0.1200  0.5366 -0.3411
   68MOL0     C 8846   6.381   2.996  10.575  0.8142  0.1181 -0.0533
   68MOL0     O 8847   6.336   2.966  10.703 -0.2850  0.0027 -0.1545
   68MOL0     C 8848   6.214   3.011  10.738 -0.0901 -0.1309 -0.1112
   68MOL0     C 8849   6.210   3.069  10.863 -0.7743 -0.1381  1.1449
   68MOL0     C 8850   6.096   3.115  10.926 -0.0666  0.3331  0.4796
   68MOL0     C 8851   5.975   3.110  10.850  0.8831  0.1827 -0.5508
   68MOL0     O 8852   5.844   3.147  10.895 -0.8604  0.5762  0.1387
   68MOL0     C 8853   5.834   3.223  11.020  0.4111  0.7351 -0.8505
   68MOL0     C 8854   5.686   3.229  11.054 -0.0654 -0.4814 -0.4249
   68MOL0     C 8855   5.588   3.107  11.040 -0.5689  0.1759 -0.2918
   68MOL0     C 8856   5.450   3.154  11.026  0.2938  0.5926 -0.3377
   68MOL0     C 8857   5.365   3.020  11.038  0.2058 -0.9962  0.7938
   68MOL0     C 8858   5.215   3.062  11.044 -1.2114  0.4264 -0.0526
   68MOL0     C 8859   5.129   2.932  11.050  0.9911  0.0459  0.0644
   68MOL0     C 8860   5.100   2.862  10.919  0.5080 -0.3750 -0.4803
   68MOL0     N 8861   5.003   2.940  10.842 -0.3313  0.2002 -0.0726
   68MOL0     C 8862   4.940   2.889  10.734  0.0296  0.4134 -0.0382
   68MOL0     C 8863   4.879   2.990  10.677  0.6833  0.3661 -0.2200
   68MOL0     C 8864   4.805   2.964  10.547  0.3231  0.3483  0.3188
   68MOL0     C 8865   4.644   2.959  10.559 -0.2917  0.3132 -0.0515
   68MOL0     C 8866   4.584   3.100  10.543  0.7076 -0.0753  0.5524
   68MOL0     C 8867   4.437   3.088  10.578  0.2871 -0.9293  0.8121
   68MOL0     O 8868   4.354   3.004  10.488  0.3242 -0.0757  0.1358
   68MOL0     C 8869   4.216   3.001  10.518  0.0133  0.4096 -0.2696
   68MOL0     C 8870   4.143   2.915  10.439  0.4668  0.4833 -0.6437
   68MOL0     C 8871   3.999   2.906  10.450  0.1021  0.0404  0.0986
   68MOL0     C 8872   3.935   2.992  10.545  0.6476  0.7647  0.1330
   68MOL0     C 8873   3.787   2.975  10.565 -0.4506  0.3983 -0.0615
   68MOL0     O 8874   3.732   2.873  10.498 -0.2128  0.1228  1.0434
   68MOL0     C 8875   3.601   2.833  10.507  0.2892  0.4510  0.3628
   68MOL0     C 8876   3.547   2.769  10.398 -0.6657  0.0733 -0.1694
   68MOL0     C 8877   3.416   2.724  10.401  0.1499  0.3753 -0.0194
   68MOL0     C 8878   3.333   2.744  10.516  0.7588 -0.3132 -0.0627
   68MOL0     O 8879   3.200   2.718  10.527 -0.5788  0.7930 -0.0296
   68MOL0     C 8880   3.146   2.605  10.454 -0.3852 -0.2061 -0.5763
   68MOL0     C 8881   3.005   2.578  10.497  0.6416  0.0516 -0.4128
   68MOL0     C 8882   2.986   2.528  10.637  0.9956  0.2562  0.4061
   68MOL0     C 8883   3.042   2.382  10.665 -0.5537 -0.4089  0.1634
   68MOL0     C 8884   2.998   2.333  10.800 -0.1164 -0.3683 -0.2529
   68MOL0     C 8885   2.843   2.320  10.804 -1.0006 -0.4186 -0.4503
   68MOL0     C 8886   2.792   2.210  10.907  0.0169 -1.0329 -0.1141
   68MOL0     C 8887   2.637   2.234  10.913 -0.9891  0.1176 -0.2874
   68MOL0    Cl 8888   2.569   2.107  11.016  0.2982  0.3272 -0.0453
   68MOL0     C 8889   3.393   2.799  10.631  0.4440 -0.9568  0.4431
   68MOL0     C 8890   3.526   2.844  10.628 -0.0969  1.6364  0.1635
   68MOL0     O 8891   3.735   3.064  10.638 -0.1670 -0.4825 -0.2189
   68MOL0     C 8892   4.012   3.081  10.625  0.4201 -0.3557  0.5411
   68MOL0     C 8893   4.153   3.084  10.608  0.4496 -0.5880 -0.9501
   68MOL0     N 8894   4.884   3.100  10.762 -0.6831 -0.1242  0.1575
   68MOL0     N 8895   4.960   3.069  10.857  0.5176 -0.5204 -0.2494
   68MOL0     C 8896   5.980   3.062  10.720  0.1591  1.0494  0.3257
   68MOL0     C 8897   6.089   2.999  10.668 -0.5971 -0.0334  0.1268
   68MOL0     C 8898   6.510   2.935  10.523 -0.0826  0.5263  0.4981
   68MOL0     C 8899   6.587   2.871  10.615  0.0664 -0.0628 -0.6685
   68MOL0     C 8900   6.685   2.781  10.586 -0.5107  0.1200  0.6311
   68MOL0     C 8901   6.717   2.746  10.459 -0.0362  0.0563 -0.7669
   68MOL0     O 8902   6.808   2.655  10.425 -1.2738 -0.8300 -0.4641
   68MOL0     C 8903   6.892   2.591  10.528  0.7579  0.2040 -0.1282
   68MOL0     C 8904   6.987   2.484  10.477 -0.1577  0.6019  0.9770
   68MOL0     C 8905   7.046   2.403  10.588 -1.0660  0.0206  0.0599
   68MOL0     C 8906   7.161   2.471  10.661  0.0029 -0.2809 -1.3643
   68MOL0     C 8907   7.137   2.596  10.733 -0.2358 -0.3172 -0.1649
   68MOL0     C 8908   7.125   2.698  10.795  0.1398  0.0226  0.0661
   68MOL0     C 8909   6.653   2.814  10.362 -0.4191 -0.2035 -0.3635
   68MOL0     C 8910   6.555   2.907  10.388 -0.3145 -0.1021 -0.3823
   68MOL0     H 8911   6.303   3.085  10.916  0.4856  1.8453 -1.4774
   68MOL0     H 8912   6.087   3.170  11.019 -0.6030 -0.0130  0.6391
   68MOL0     H 8913   5.858   3.328  11.001 -1.3449  1.8211  2.2803
   68MOL0     H 8914   5.896   3.173  11.095 -0.4220 -0.6029 -1.0256
   68MOL0     H 8915   5.655   3.306  10.983  3.1853  2.7282  1.2785
   68MOL0     H 8916   5.681   3.276  11.153  1.1345 -0.1090 -0.5194
   68MOL0     H 8917   5.595   3.034  11.121  0.8727  0.6595  0.0493
   68MOL0     H 8918   5.622   3.059  10.948  2.0837  0.7251  0.3301
   68MOL0     H 8919   5.419   3.219  11.109 -1.6622 -0.8781  0.1437
   68MOL0     H 8920   5.428   3.204  10.931 -1.6947 -2.1683 -1.4548
   68MOL0     H 8921   5.398   2.953  11.119 -0.1380  0.1447  1.9179
   68MOL0     H 8922   5.378   2.956  10.951 -1.1845 -0.3215  0.0648
   68MOL0     H 8923   5.184   3.116  10.953 -1.5253 -0.3225 -0.3939
   68MOL0     H 8924   5.199   3.129  11.129  0.9856  1.7535 -0.5861
   68MOL0     H 8925   5.174   2.855  11.115 -1.7782 -1.6849  0.0798
   68MOL0     H 8926   5.033   2.972  11.085  0.0262 -0.3929 -1.9352
   68MOL0     H 8927   5.069   2.758  10.926 -0.1843 -0.1322  0.1846
   68MOL0     H 8928   5.190   2.849  10.858  0.2796  0.1088 -0.9220
   68MOL0     H 8929   4.944   2.789  10.692 -0.0470  0.3296  0.1550
   68MOL0     H 8930   4.842   2.873  10.500  0.8554  0.7536 -0.0690
   68MOL0     H 8931   4.832   3.050  10.485 -0.9534  1.8126  1.7036
   68MOL0     H 8932   4.622   2.916  10.657 -4.1931  1.4759 -0.2487
   68MOL0     H 8933   4.604   2.884  10.490 -2.1667  0.5875  0.6978
   68MOL0     H 8934   4.639   3.169  10.608 -2.2995  1.6445  1.4823
   68MOL0     H 8935   4.594   3.121  10.436 -0.9480  2.2339  0.7803
   68MOL0     H 8936   4.393   3.188  10.589 -1.8763 -1.9524  2.1354
   68MOL0     H 8937   4.423   3.037  10.674 -1.9254 -1.2563  0.3611
   68MOL0     H 8938   4.197   2.842  10.381  0.2794 -1.8795  1.9334
   68MOL0     H 8939   3.951   2.832  10.387 -0.8426 -0.8849  1.8159
   68MOL0     H 8940   3.608   2.752  10.309 -1.3766 -0.6712 -0.5258
   68MOL0     H 8941   3.392   2.679  10.305 -1.2319  1.5161 -0.2422
   68MOL0     H 8942   3.196   2.513  10.484  0.4422  1.1843  2.7404
   68MOL0     H 8943   3.143   2.632  10.348 -1.2394  1.5771 -0.1453
   68MOL0     H 8944   2.945   2.511  10.435 -2.3719  0.4076  1.8785
   68MOL0     H 8945   2.961   2.678  10.500 -0.7243 -0.5539  1.8790
   68MOL0     H 8946   2.878   2.530  10.655  0.8028  0.6898 -0.7549
   68MOL0     H 8947   3.031   2.603  10.702 -1.4888  0.4540  2.0172
   68MOL0     H 8948   3.020   2.309  10.587  0.6558 -1.5829  0.8693
   68MOL0     H 8949   3.152   2.378  10.668 -0.5978 -2.8321  0.1260
   68MOL0     H 8950   3.036   2.401  10.876 -1.1237 -1.2511  1.0859
   68MOL0     H 8951   3.034   2.232  10.822  1.4367  0.0352 -0.8140
   68MOL0     H 8952   2.802   2.308  10.704  1.3005 -0.4376 -1.4550
   68MOL0     H 8953   2.806   2.415  10.845  1.3003  1.0358 -1.4936
   68MOL0     H 8954   2.805   2.105  10.880 -1.3629 -1.7630  1.8026
   68MOL0     H 8955   2.839   2.228  11.004  1.5118  1.4943 -1.1856
   68MOL0     H 8956   2.590   2.235  10.814 -2.8348  1.4496  0.5552
   68MOL0     H 8957   2.612   2.334  10.951  1.7295  1.2284 -1.2093
   68MOL0     H 8958   3.346   2.822  10.726  1.6929  0.9963  0.6637
   68MOL0     H 8959   3.574   2.891  10.713 -0.2237  1.8702  0.1084
   68MOL0     H 8960   3.967   3.140  10.705  0.5920  3.8013 -2.1060
   68MOL0     H 8961   4.209   3.159  10.664 -1.0200  1.2581 -1.8502
   68MOL0     H 8962   5.886   3.066  10.667  0.4088  2.1508 -0.0463
   68MOL0     H 8963   6.094   2.952  10.570 -2.3205  0.9664 -0.4921
   68MOL0     H 8964   6.554   2.873  10.718 -1.8388 -1.7661 -1.1910
   68MOL0     H 8965   6.731   2.729  10.670 -2.2263  1.0760  2.2407
   68MOL0     H 8966   6.835   2.537  10.605 -0.7680  1.4313 -0.3575
   68MOL0     H 8967   6.948   2.666  10.584  2.4446 -0.3438 -1.0057
   68MOL0     H 8968   6.938   2.418  10.404  3.1861 -1.4852  0.3771
   68MOL0     H 8969   7.066   2.535  10.423 -1.2969  0.7513 -0.6406
   68MOL0     H 8970   7.095   2.318  10.538 -0.9168  1.4254 -2.3605
   68MOL0     H 8971   6.975   2.354  10.655  0.6173 -4.0924 -0.8192
   68MOL0     H 8972   7.203   2.408  10.739 -0.7878  1.8665  0.9427
   68MOL0     H 8973   7.245   2.498  10.596 -0.4791  2.3010 -1.0226
   68MOL0     H 8974   7.100   2.790  10.844  2.3094  0.1616  1.0540
   68MOL0     H 8975   6.686   2.808  10.259  0.5005  0.5043 -0.1207
   68MOL0     H 8976   6.501   2.955  10.306 -1.4552  1.2137  1.0821
   69MOL0     O 8977   1.797   1.037  10.966 -0.2609 -0.3136  0.1569
   69MOL0     C 8978   1.870   0.989  10.879  0.8107 -0.1802 -0.5822
   69MOL0     O 8979   1.844   0.873  10.820  0.2883 -0.3942  0.2432
   69MOL0     C 8980   1.721   0.811  10.832 -0.0449 -0.2773 -0.5065
   69MOL0     C 8981   1.706   0.686  10.898  0.1623  0.2383  0.3500
   69MOL0     C 8982   1.588   0.615  10.900 -0.4949  0.1867  0.0786
   69MOL0     C 8983   1.480   0.658  10.819  0.1234 -0.3200  0.1352
   69MOL0     O 8984   1.361   0.595  10.803  0.7649  0.9020 -0.1503
   69MOL0     C 8985   1.368   0.452  10.844  0.4108 -0.2677 -0.0608
   69MOL0     C 8986   1.245   0.387  10.791 -0.2073 -0.0534 -0.1893
   69MOL0     C 8987   1.111   0.410  10.867 -0.1525 -0.5122  0.0079
   69MOL0     C 8988   0.991   0.341  10.807  0.5242 -0.3958 -0.0554
   69MOL0     C 8989   0.909   0.435  10.717  0.5687  0.5494  0.4265
   69MOL0     C 8990   0.779   0.379  10.695  0.4299  0.2853 -0.2068
   69MOL0     C 8991   0.679   0.469  10.611 -0.1227  0.0318 -0.1079
   69MOL0     C 8992   0.533   0.415  10.605  0.2292 -0.3820 -0.7278
   69MOL0     N 8993   0.519   0.335  10.487  0.0827 -0.4532  0.1884
   69MOL0     C 8994   0.539   0.199  10.471  0.0709  0.4791 -1.0821
   69MOL0     C 8995   0.511   0.170  10.343  0.7447  0.6979  0.5787
   69MOL0     C 8996   0.535   0.035  10.282 -0.0969 -0.0816  0.0293
   69MOL0     C 8997   0.664   0.018  10.210  0.3408  0.1076  0.0435
   69MOL0     C 8998   0.680  -0.128  10.156 -0.5111 -0.0483 -0.3334
   69MOL0     C 8999   0.802  -0.148  10.070  0.5774  0.8538  0.0265
   69MOL0     O 9000   0.917  -0.142  10.149 -1.0919 -0.2292  0.8186
   69MOL0     C 9001   1.041  -0.164  10.082 -0.5459  0.6024 -0.5125
   69MOL0     C 9002   1.061  -0.240   9.964 -0.2986  0.2381  0.6238
   69MOL0     C 9003   1.189  -0.257   9.908  0.0036  0.2655  0.1880
   69MOL0     C 9004   1.303  -0.201   9.976 -0.5885 -0.4844 -0.1788
   69MOL0     C 9005   1.438  -0.192   9.928 -0.2051 -0.7461  0.7568
   69MOL0     O 9006   1.451  -0.247   9.805 -0.7314  0.1242  0.7645
   69MOL0     C 9007   1.581  -0.252   9.750  0.3226 -0.6805 -0.1183
   69MOL0     C 9008   1.593  -0.232   9.616 -0.0048 -0.4203 -0.0161
   69MOL0     C 9009   1.719  -0.249   9.557  0.4202  0.2781 -0.3679
   69MOL0     C 9010   1.835  -0.269   9.628 -0.3709  1.0458  0.3444
   69MOL0     O 9011   1.948  -0.277   9.555  0.0673 -0.0661  0.2820
   69MOL0     C 9012   1.985  -0.407   9.510 -0.4916 -0.3251 -0.7439
   69MOL0     C 9013   2.095  -0.404   9.405  0.4076 -0.3810  0.7707
   69MOL0     C 9014   2.217  -0.320   9.444 -0.8638 -0.3522  0.1593
   69MOL0     C 9015   2.314  -0.311   9.342  1.0457  0.2311 -0.3011
   69MOL0     C 9016   2.411  -0.433   9.352  0.3279 -0.3332 -0.0539
   69MOL0     C 9017   2.506  -0.442   9.237  0.8720  0.6032  0.1491
   69MOL0     C 9018   2.611  -0.543   9.260 -0.3083 -0.6685 -0.1528
   69MOL0     C 9019   2.686  -0.592   9.141  0.6224  0.3615  0.1645
   69MOL0    Cl 9020   2.745  -0.463   9.028  0.2550 -0.1857 -0.2722
   69MOL0     C 9021   1.821  -0.299   9.757  0.6633 -0.8192 -0.1285
   69MOL0     C 9022   1.691  -0.290   9.820 -0.0572 -0.5894  0.4858
   69MOL0     O 9023   1.530  -0.130   9.983  0.1386 -0.0621 -0.5506
   69MOL0     C 9024   1.275  -0.133  10.101  0.3032  0.3686 -0.5484
   69MOL0     C 9025   1.147  -0.116  10.153 -0.2119 -0.8253  0.6272
   69MOL0     N 9026   0.481   0.290  10.278  0.8317  0.0707 -0.2096
   69MOL0     N 9027   0.476   0.387  10.368 -0.1344 -0.6748 -0.6582
   69MOL0     C 9028   1.484   0.786  10.764 -0.5003 -0.2553  0.0051
   69MOL0     C 9029   1.605   0.859  10.758  0.5462 -0.1947  0.1334
   69MOL0     C 9030   2.002   1.056  10.853  0.0751 -0.4467  0.0629
   69MOL0     C 9031   2.092   1.016  10.760  0.3910  0.2134  0.2731
   69MOL0     C 9032   2.215   1.085  10.744 -0.4184 -0.9969 -1.2074
   69MOL0     C 9033   2.242   1.204  10.822  0.5728  0.5143 -0.6947
   69MOL0     O 9034   2.356   1.280  10.818  0.2040  0.5745  0.4032
   69MOL0     C 9035   2.458   1.234  10.732 -0.2049  0.6834 -1.2808
   69MOL0     C 9036   2.579   1.320  10.743  0.3163  0.4216 -0.2269
   69MOL0     C 9037   2.708   1.261  10.678  0.4584  0.1117  0.8286
   69MOL0     C 9038   2.818   1.372  10.684 -0.1202  0.0715 -0.1116
   69MOL0     C 9039   2.846   1.410  10.817  0.2361  0.5457  1.1259
   69MOL0     C 9040   2.882   1.453  10.924 -0.4645 -0.5624 -0.7475
   69MOL0     C 9041   2.137   1.248  10.910  0.2080  0.4404  0.5124
   69MOL0     C 9042   2.014   1.175  10.918  0.2063  0.0488 -0.9456
   69MOL0     H 9043   1.800   0.649  10.939  1.0778  0.0527 -1.7480
   69MOL0     H 9044   1.581   0.523  10.957  0.1418 -0.0893 -0.2743
   69MOL0     H 9045   1.378   0.451  10.953  1.1389 -1.4377 -0.1233
   69MOL0     H 9046   1.453   0.396  10.806  2.5043  0.2477  3.3934
   69MOL0     H 9047   1.264   0.280  10.803 -1.2902 -0.2433 -0.0341
   69MOL0     H 9048   1.236   0.412  10.685  0.9084  3.9823  0.5161
   69MOL0     H 9049   1.090   0.516  10.878  2.3783  0.9848 -5.7248
   69MOL0     H 9050   1.149   0.370  10.961  1.9369 -1.2223 -1.0688
   69MOL0     H 9051   1.020   0.246  10.763 -0.6821 -1.0601  0.5230
   69MOL0     H 9052   0.926   0.313  10.891  1.2857  1.5195  1.2462
   69MOL0     H 9053   0.958   0.450  10.621 -0.0606 -3.3780 -0.6795
   69MOL0     H 9054   0.902   0.530  10.771  0.4520 -0.3483  2.0665
   69MOL0     H 9055   0.728   0.351  10.788 -0.1441 -1.8961 -1.1079
   69MOL0     H 9056   0.795   0.285  10.641 -0.0663 -0.4381  0.8656
   69MOL0     H 9057   0.671   0.569  10.654 -0.3787  0.0543 -0.2050
   69MOL0     H 9058   0.720   0.482  10.510 -2.9203  1.3410 -1.1673
   69MOL0     H 9059   0.458   0.493  10.623  1.7860  1.3386 -1.3399
   69MOL0     H 9060   0.516   0.349  10.691 -2.0001 -2.4806 -2.6395
   69MOL0     H 9061   0.583   0.136  10.548  1.4721  3.0724  0.3946
   69MOL0     H 9062   0.451   0.021  10.213 -0.5189  0.7203  0.3709
   69MOL0     H 9063   0.522  -0.042  10.359 -0.5251 -3.0778 -2.7984
   69MOL0     H 9064   0.746   0.041  10.278 -0.0238  0.0426  0.5079
   69MOL0     H 9065   0.670   0.086  10.124 -0.5446  0.3943  0.1968
   69MOL0     H 9066   0.690  -0.196  10.241  0.6672  0.1957 -0.2692
   69MOL0     H 9067   0.592  -0.150  10.095 -0.0632 -4.3826  0.2311
   69MOL0     H 9068   0.813  -0.071   9.993  0.4015  0.4336 -0.4202
   69MOL0     H 9069   0.791  -0.249  10.030  2.5382 -0.5146  2.6516
   69MOL0     H 9070   0.977  -0.275   9.904  0.3622  2.1164 -1.5284
   69MOL0     H 9071   1.190  -0.305   9.810 -1.9696 -0.7268  0.6024
   69MOL0     H 9072   1.509  -0.210   9.552  0.5506  0.7792 -0.3595
   69MOL0     H 9073   1.718  -0.254   9.449 -0.5964 -1.5979 -0.3074
   69MOL0     H 9074   1.897  -0.453   9.463 -2.8617  1.2373  1.8661
   69MOL0     H 9075   2.027  -0.470   9.589  2.1244  0.7439 -1.1770
   69MOL0     H 9076   2.043  -0.371   9.315 -1.1322 -1.4845  1.2131
   69MOL0     H 9077   2.133  -0.502   9.375  0.7183  0.3244 -1.2706
   69MOL0     H 9078   2.260  -0.373   9.529  0.6507 -1.1714 -1.0875
   69MOL0     H 9079   2.173  -0.222   9.468  0.4972  0.3969 -0.3069
   69MOL0     H 9080   2.272  -0.306   9.241 -0.1827  2.1309  0.2513
   69MOL0     H 9081   2.366  -0.215   9.355  1.8809 -0.1775 -0.5205
   69MOL0     H 9082   2.349  -0.522   9.369 -0.5712  0.7790  3.2267
   69MOL0     H 9083   2.477  -0.411   9.436  2.3724  0.3456 -1.7588
   69MOL0     H 9084   2.557  -0.346   9.232 -0.1795  1.2831  1.8435
   69MOL0     H 9085   2.445  -0.466   9.149 -0.5190 -2.3725  1.7709
   69MOL0     H 9086   2.684  -0.490   9.322  1.1561  0.3340 -2.5888
   69MOL0     H 9087   2.583  -0.629   9.322  0.1960 -1.3806 -0.8833
   69MOL0     H 9088   2.624  -0.664   9.086  2.6389 -1.6786  0.4111
   69MOL0     H 9089   2.763  -0.660   9.178 -1.4658 -1.4626  1.4295
   69MOL0     H 9090   1.901  -0.334   9.820 -0.3696 -2.1266  0.5130
   69MOL0     H 9091   1.684  -0.316   9.925 -1.6927 -2.4605 -0.0244
   69MOL0     H 9092   1.351  -0.074  10.152  1.4718 -0.2284 -1.5422
   69MOL0     H 9093   1.131  -0.053  10.240  1.2243  1.5225 -0.6781
   69MOL0     H 9094   1.403   0.831  10.707  0.2610  0.9506 -0.1617
   69MOL0     H 9095   1.617   0.956  10.712  1.3543  1.6215  3.7556
   69MOL0     H 9096   2.082   0.928  10.698 -4.1157  0.9696 -0.3798
   69MOL0     H 9097   2.283   1.036  10.675  1.2449 -1.3472  0.6191
   69MOL0     H 9098   2.425   1.258  10.630 -0.1400  0.1702 -1.4250
   69MOL0     H 9099   2.481   1.127  10.741 -0.3677  0.7926  0.7942
   69MOL0     H 9100   2.554   1.406  10.681  1.4912 -0.2048 -1.6308
   69MOL0     H 9101   2.590   1.349  10.847  0.1600 -1.6618  0.4195
   69MOL0     H 9102   2.682   1.231  10.576  0.7673  0.2568  0.7085
   69MOL0     H 9103   2.746   1.174  10.732  0.4160  0.8562  2.0994
   69MOL0     H 9104   2.906   1.328  10.635  0.0164  0.4485 -0.2024
   69MOL0     H 9105   2.790   1.457  10.621  0.8379  0.6860  0.2652
   69MOL0     H 9106   2.908   1.495  11.019 -2.6946 -0.8027  0.0350
   69MOL0     H 9107   2.148   1.341  10.966  1.6536  0.2212  0.6366
   69MOL0     H 9108   1.937   1.200  10.990 -0.2269 -1.4378 -0.8526
   70MOL0     O 9109   8.144   6.134   3.649  0.8875 -0.4123  0.1271
   70MOL0     C 9110   8.084   6.035   3.670  0.0946  0.1627 -0.1283
   70MOL0     O 9111   8.134   5.910   3.695  0.2067 -0.6671  0.0762
   70MOL0     C 9112   8.262   5.880   3.697 -0.3690  0.4809 -0.0864
   70MOL0     C 9113   8.318   5.794   3.791  0.1220  0.3874  0.1309
   70MOL0     C 9114   8.458   5.767   3.789  0.5677 -0.3553  0.7972
   70MOL0     C 9115   8.539   5.807   3.682  0.2780  0.4949 -0.1447
   70MOL0     O 9116   8.677   5.789   3.664  0.7174  0.6936 -0.0214
   70MOL0     C 9117   8.754   5.737   3.769  0.4227 -1.4695  0.2268
   70MOL0     C 9118   8.898   5.703   3.728  0.7616  1.0793 -0.2249
   70MOL0     C 9119   8.995   5.673   3.840  0.0992  0.4147 -0.1263
   70MOL0     C 9120   9.146   5.694   3.802  0.7326 -0.1186 -0.7047
   70MOL0     C 9121   9.230   5.683   3.926 -0.2916  0.6766 -0.9182
   70MOL0     C 9122   9.253   5.549   3.991  0.2806  0.6228  0.0504
   70MOL0     C 9123   9.356   5.471   3.905 -0.1830 -0.3866 -0.6652
   70MOL0     C 9124   9.349   5.319   3.935 -0.4194 -0.5083 -0.3652
   70MOL0     N 9125   9.249   5.249   3.847  0.1570 -0.1028 -0.3143
   70MOL0     C 9126   9.112   5.240   3.867 -0.2034 -0.1238 -0.9211
   70MOL0     C 9127   9.060   5.193   3.754  0.0625 -0.5727  0.3346
   70MOL0     C 9128   8.919   5.164   3.726 -0.8861 -0.2471 -0.3938
   70MOL0     C 9129   8.840   5.274   3.644 -0.2187 -0.8316  0.0372
   70MOL0     C 9130   8.695   5.237   3.629 -0.3027  0.7325  0.2060
   70MOL0     C 9131   8.608   5.357   3.577  0.3139 -0.2599 -0.1629
   70MOL0     O 9132   8.472   5.310   3.567  0.0262  0.2737  0.6209
   70MOL0     C 9133   8.384   5.410   3.529 -0.5952 -0.8007 -0.1643
   70MOL0     C 9134   8.417   5.541   3.480 -0.1328  0.1391 -0.0803
   70MOL0     C 9135   8.320   5.635   3.449  0.7832  0.3154 -0.3456
   70MOL0     C 9136   8.186   5.610   3.477 -0.4476  0.2425  0.0585
   70MOL0     C 9137   8.078   5.702   3.459  0.2992  0.8269 -0.5298
   70MOL0     O 9138   8.109   5.810   3.377  0.3485  0.2512 -0.5228
   70MOL0     C 9139   8.011   5.904   3.348 -0.3758  1.1089  0.4360
   70MOL0     C 9140   7.876   5.877   3.322 -0.1350 -0.8141 -0.7438
   70MOL0     C 9141   7.802   5.988   3.285  0.0123  0.4938 -0.1679
   70MOL0     C 9142   7.848   6.119   3.270  0.8532 -0.0885 -0.5670
   70MOL0     O 9143   7.749   6.212   3.239  0.1743 -0.4230  0.1393
   70MOL0     C 9144   7.778   6.351   3.226 -0.4468 -0.8907 -0.8151
   70MOL0     C 9145   7.648   6.425   3.268 -0.2676  0.2748 -0.0117
   70MOL0     C 9146   7.687   6.577   3.261  0.9374  0.0316  0.4244
   70MOL0     C 9147   7.567   6.667   3.297 -0.0167 -0.7200 -0.2163
   70MOL0     C 9148   7.434   6.666   3.210 -0.1645  0.2174  0.3857
   70MOL0     C 9149   7.338   6.556   3.255  0.3881 -0.6938 -0.9946
   70MOL0     C 9150   7.219   6.536   3.158 -0.7805  0.3174  0.7831
   70MOL0     C 9151   7.091   6.475   3.222  0.2981 -0.2283  1.2247
   70MOL0    Cl 9152   7.125   6.303   3.290 -0.0682  0.0573 -0.3855
   70MOL0     C 9153   7.981   6.151   3.298  0.2593  0.4397  0.4241
   70MOL0     C 9154   8.058   6.037   3.330 -0.3893 -0.4532  0.5246
   70MOL0     O 9155   7.969   5.685   3.513  0.1662 -0.1663 -1.2674
   70MOL0     C 9156   8.147   5.481   3.530  0.1163 -0.0248 -0.2306
   70MOL0     C 9157   8.247   5.387   3.547  0.4790  0.5572 -0.6625
   70MOL0     N 9158   9.162   5.181   3.661 -0.1957 -0.2808 -0.5012
   70MOL0     N 9159   9.278   5.214   3.720  0.5485 -0.1562  0.1998
   70MOL0     C 9160   8.478   5.883   3.584  0.0860 -0.5191  1.0319
   70MOL0     C 9161   8.344   5.924   3.597  0.8215  0.7364  0.3305
   70MOL0     C 9162   7.933   6.040   3.652 -0.0497  0.6117 -0.3944
   70MOL0     C 9163   7.880   6.170   3.625  0.4156  0.8907  0.6935
   70MOL0     C 9164   7.742   6.190   3.632 -0.2718  0.1076  0.7333
   70MOL0     C 9165   7.656   6.087   3.634 -0.1017 -0.1364 -0.4676
   70MOL0     O 9166   7.524   6.121   3.616 -1.1158 -0.0692 -0.6545
   70MOL0     C 9167   7.426   6.019   3.624 -0.4455 -0.2803 -0.0806
   70MOL0     C 9168   7.409   5.944   3.497  0.1497 -0.3694 -0.4280
   70MOL0     C 9169   7.276   5.862   3.492  0.3557 -0.3789  0.0810
   70MOL0     C 9170   7.253   5.807   3.353 -0.1019  0.3208 -0.4892
   70MOL0     C 9171   7.108   5.763   3.335 -0.6400  0.2515 -0.5986
   70MOL0     C 9172   6.998   5.717   3.325  0.2013  0.2093 -0.4749
   70MOL0     C 9173   7.708   5.958   3.654 -0.2345  0.2556 -0.0937
   70MOL0     C 9174   7.847   5.932   3.666 -0.3514 -1.0076 -0.4654
   70MOL0     H 9175   8.262   5.762   3.878 -1.1046 -0.1023 -0.7978
   70MOL0     H 9176   8.505   5.706   3.865 -0.0794 -2.3728 -0.3618
   70MOL0     H 9177   8.709   5.654   3.823 -1.1983 -1.7789 -1.4824
   70MOL0     H 9178   8.760   5.812   3.849 -0.7664 -0.4185 -0.6266
   70MOL0     H 9179   8.931   5.784   3.662  0.2120 -0.3487 -2.3233
   70MOL0     H 9180   8.899   5.612   3.667  1.5166  0.5615  0.5203
   70MOL0     H 9181   8.973   5.569   3.864 -0.6936  0.6028  0.0049
   70MOL0     H 9182   8.964   5.735   3.924 -2.8675 -2.3484  1.0201
   70MOL0     H 9183   9.163   5.626   3.719  1.6402 -2.1112  1.0122
   70MOL0     H 9184   9.154   5.793   3.755 -2.1604  0.4211 -0.2628
   70MOL0     H 9185   9.191   5.746   4.006  0.5328 -1.2064  1.0463
   70MOL0     H 9186   9.326   5.725   3.893 -0.2391  0.2163 -1.3610
   70MOL0     H 9187   9.162   5.489   3.996  0.5356  0.2427  0.1479
   70MOL0     H 9188   9.282   5.557   4.097 -0.4925 -4.2439  0.8478
   70MOL0     H 9189   9.347   5.495   3.798  3.0632  3.0763 -0.3897
   70MOL0     H 9190   9.457   5.510   3.923 -0.8486  1.2018 -0.1449
   70MOL0     H 9191   9.324   5.310   4.041  1.9377  2.9471  0.6810
   70MOL0     H 9192   9.443   5.271   3.909  0.3110  0.0297  1.2136
   70MOL0     H 9193   9.061   5.254   3.962  1.3245  1.5958 -0.2842
   70MOL0     H 9194   8.873   5.149   3.824  0.5619 -2.7547 -0.0363
   70MOL0     H 9195   8.907   5.074   3.665  2.7194  0.0328 -1.7625
   70MOL0     H 9196   8.899   5.286   3.553  1.0839 -0.8920  0.8547
   70MOL0     H 9197   8.848   5.369   3.698 -0.4755 -0.6124 -0.3029
   70MOL0     H 9198   8.683   5.153   3.561  0.7629  0.2596  0.5837
   70MOL0     H 9199   8.649   5.207   3.724 -0.3937  1.0661  0.2685
   70MOL0     H 9200   8.645   5.379   3.476  0.9405  0.4160  0.2046
   70MOL0     H 9201   8.630   5.448   3.634  0.0410 -0.6272  0.5292
   70MOL0     H 9202   8.521   5.563   3.457  0.1462 -2.1699 -1.2880
   70MOL0     H 9203   8.353   5.728   3.405  0.0629  1.2661  1.0432
   70MOL0     H 9204   7.829   5.779   3.327 -1.4956 -0.2459 -1.8747
   70MOL0     H 9205   7.696   5.973   3.269  0.4346 -1.3660 -1.7154
   70MOL0     H 9206   7.812   6.378   3.126 -0.9571  0.9148 -0.5462
   70MOL0     H 9207   7.856   6.367   3.301 -2.2937 -0.0739  1.0456
   70MOL0     H 9208   7.613   6.394   3.367  1.1900  1.8884  1.0795
   70MOL0     H 9209   7.582   6.393   3.187 -1.1201 -3.2093  1.8674
   70MOL0     H 9210   7.722   6.615   3.165 -1.8852 -0.0612 -0.7349
   70MOL0     H 9211   7.768   6.596   3.331  0.5844 -0.0822  0.8736
   70MOL0     H 9212   7.554   6.659   3.405  2.9879 -1.0908  0.2123
   70MOL0     H 9213   7.597   6.772   3.291  0.3902 -0.6090  2.4575
   70MOL0     H 9214   7.466   6.644   3.108 -0.6747 -1.4104  0.5405
   70MOL0     H 9215   7.383   6.761   3.225 -1.1460 -0.4912  1.7411
   70MOL0     H 9216   7.295   6.582   3.352  0.1575 -0.5516 -1.1340
   70MOL0     H 9217   7.393   6.464   3.273  0.1817 -0.5143  0.6664
   70MOL0     H 9218   7.202   6.619   3.089 -1.0828  0.3648  0.9120
   70MOL0     H 9219   7.252   6.461   3.086 -2.5532 -0.0193  0.2835
   70MOL0     H 9220   7.018   6.474   3.140  2.2513 -0.7055 -0.5990
   70MOL0     H 9221   7.056   6.541   3.301  1.8045  0.8942  0.9886
   70MOL0     H 9222   8.020   6.253   3.303 -0.1015  0.5928  0.1060
   70MOL0     H 9223   8.164   6.043   3.353 -0.8191 -0.8229  2.8562
   70MOL0     H 9224   8.041   5.459   3.544 -0.1319  1.1193 -0.2142
   70MOL0     H 9225   8.223   5.289   3.587 -1.4273  2.7328  4.3538
   70MOL0     H 9226   8.546   5.911   3.504 -1.7379 -0.0385 -0.4376
   70MOL0     H 9227   8.302   5.980   3.514 -1.0386 -1.3742 -0.2623
   70MOL0     H 9228   7.947   6.255   3.612  1.1550  0.3129  0.6681
   70MOL0     H 9229   7.695   6.287   3.633 -1.5165 -0.4701  2.0100
   70MOL0     H 9230   7.333   6.069   3.651 -0.0958  1.4441 -1.8187
   70MOL0     H 9231   7.444   5.951   3.708 -2.6152  2.3280  2.7029
   70MOL0     H 9232   7.409   6.025   3.424 -2.6560  0.9216  0.8301
   70MOL0     H 9233   7.494   5.880   3.471  1.7963  1.3533  0.4829
   70MOL0     H 9234   7.190   5.921   3.525  0.1877 -0.7877  0.3812
   70MOL0     H 9235   7.296   5.775   3.555  1.7582  0.0201  0.2229
   70MOL0     H 9236   7.279   5.883   3.279 -0.1048  0.0915 -0.7222
   70MOL0     H 9237   7.317   5.720   3.341 -0.1486  0.3022 -0.6027
   70MOL0     H 9238   6.897   5.680   3.322 -0.2611  1.1109  1.7377
   70MOL0     H 9239   7.644   5.870   3.661  0.9271 -0.6893 -0.9868
   70MOL0     H 9240   7.891   5.836   3.690  2.4764  0.5337  0.8846
   71MOL0     O 9241   4.521   8.589   7.821 -0.1306  0.1174 -0.8156
   71MOL0     C 9242   4.565   8.592   7.934 -0.5783 -0.1572 -0.2326
   71MOL0     O 9243   4.498   8.630   8.037  0.4505 -0.5334 -0.0410
   71MOL0     C 9244   4.359   8.631   8.029 -0.7665  0.2848  0.3327
   71MOL0     C 9245   4.268   8.520   8.039  0.0452 -0.1984  0.3394
   71MOL0     C 9246   4.132   8.536   8.024 -0.3322  0.0994  0.6819
   71MOL0     C 9247   4.083   8.669   7.992 -0.4761  0.7347  0.0924
   71MOL0     O 9248   3.955   8.710   7.958  0.5410  0.0439  0.3741
   71MOL0     C 9249   3.843   8.639   8.015  0.1133  0.0628  0.3763
   71MOL0     C 9250   3.728   8.718   7.962 -0.0098  0.6707 -0.7084
   71MOL0     C 9251   3.582   8.683   8.006  0.0210  0.5168 -0.3650
   71MOL0     C 9252   3.486   8.785   7.951 -0.3373 -0.0902 -0.3162
   71MOL0     C 9253   3.378   8.791   8.063  0.4747 -0.4248 -0.3119
   71MOL0     C 9254   3.259   8.884   8.043 -0.2270  1.0156  0.0905
   71MOL0     C 9255   3.138   8.851   8.142  0.8761 -0.8905 -0.1143
   71MOL0     C 9256   3.021   8.948   8.113  0.0754 -0.2564 -0.0084
   71MOL0     N 9257   2.928   8.936   8.224  0.0793 -0.9331  0.0329
   71MOL0     C 9258   2.854   8.825   8.256 -0.4200  0.4964  0.5025
   71MOL0     C 9259   2.808   8.839   8.378 -0.4162  0.2195 -0.6038
   71MOL0     C 9260   2.718   8.752   8.463 -0.0474 -0.0490 -0.1898
   71MOL0     C 9261   2.583   8.817   8.466  0.7074  0.6352 -0.3334
   71MOL0     C 9262   2.503   8.801   8.336  0.2711 -0.1548  0.8675
   71MOL0     C 9263   2.363   8.866   8.346 -0.4110 -1.0871  0.0656
   71MOL0     O 9264   2.301   8.809   8.464  0.0485 -0.6509  0.3308
   71MOL0     C 9265   2.173   8.843   8.497 -0.1116 -0.0550 -1.0122
   71MOL0     C 9266   2.114   8.761   8.590  0.6378  0.1941 -0.0396
   71MOL0     C 9267   1.982   8.783   8.637  0.1936 -0.0291 -0.3334
   71MOL0     C 9268   1.901   8.881   8.580 -0.3906  0.3262  0.0912
   71MOL0     C 9269   1.757   8.902   8.624 -0.1427 -0.4390 -0.2078
   71MOL0     O 9270   1.726   8.863   8.753  0.6068 -0.1813  0.0217
   71MOL0     C 9271   1.591   8.844   8.789 -0.2868 -0.5044 -0.6653
   71MOL0     C 9272   1.485   8.815   8.708 -0.1575 -0.4769  0.5129
   71MOL0     C 9273   1.357   8.791   8.766 -0.5310  0.2692  0.0417
   71MOL0     C 9274   1.331   8.793   8.900  0.3403 -0.3394 -0.2681
   71MOL0     O 9275   1.206   8.758   8.944  0.2707  0.2675 -0.0591
   71MOL0     C 9276   1.170   8.788   9.078  0.1130  0.6554 -0.0929
   71MOL0     C 9277   1.033   8.730   9.098  0.5599 -0.0361 -0.0637
   71MOL0     C 9278   0.980   8.773   9.229  0.4125 -0.3059 -1.0602
   71MOL0     C 9279   0.855   8.691   9.274  0.4477 -0.0154  0.3908
   71MOL0     C 9280   0.804   8.735   9.409  1.1983  0.1475 -0.2975
   71MOL0     C 9281   0.661   8.691   9.446  0.0444  0.1422  0.2809
   71MOL0     C 9282   0.665   8.549   9.488  0.3088  0.3230  0.1196
   71MOL0     C 9283   0.527   8.524   9.539  0.9269 -0.0636  0.0736
   71MOL0    Cl 9284   0.522   8.381   9.636  0.4503  0.1600  0.0624
   71MOL0     C 9285   1.442   8.834   8.984 -0.4073  0.2723 -0.3158
   71MOL0     C 9286   1.569   8.857   8.925  0.5644  0.1512  0.7918
   71MOL0     O 9287   1.689   8.968   8.551  0.4455 -0.0994 -0.0284
   71MOL0     C 9288   1.958   8.960   8.478  0.2117  0.3504  0.0250
   71MOL0     C 9289   2.095   8.942   8.437 -0.3327 -0.5298 -0.0718
   71MOL0     N 9290   2.882   8.943   8.430  0.3361  0.1312  0.1248
   71MOL0     N 9291   2.942   9.008   8.338  0.0506  0.5236 -0.3161
   71MOL0     C 9292   4.180   8.770   7.977 -0.4411 -0.1171  0.7512
   71MOL0     C 9293   4.315   8.754   7.998 -0.3615  0.6085  0.1980
   71MOL0     C 9294   4.713   8.561   7.958  0.2382 -1.0405 -0.3677
   71MOL0     C 9295   4.778   8.612   8.074 -0.6502  0.4041  0.0433
   71MOL0     C 9296   4.911   8.583   8.094 -0.0652 -0.4944  0.9398
   71MOL0     C 9297   4.988   8.512   8.001 -0.3165 -0.1043 -0.1791
   71MOL0     O 9298   5.125   8.507   8.015 -0.1019  0.4208  0.1685
   71MOL0     C 9299   5.205   8.441   7.918 -0.4974 -0.1873  0.5733
   71MOL0     C 9300   5.348   8.410   7.979  0.0052  0.6101  0.5439
   71MOL0     C 9301   5.440   8.526   8.017  0.0771  0.9247 -0.0386
   71MOL0     C 9302   5.417   8.650   7.931  0.0800  0.0981  0.3289
   71MOL0     C 9303   5.534   8.742   7.944  0.6023  0.1655 -0.0799
   71MOL0     C 9304   5.618   8.831   7.941 -0.2735  0.9409 -0.2408
   71MOL0     C 9305   4.929   8.467   7.880 -0.0876  0.0649  0.1845
   71MOL0     C 9306   4.791   8.484   7.868 -0.6553 -0.5038  0.4046
   71MOL0     H 9307   4.310   8.424   8.064  0.7493  0.4609  1.7787
   71MOL0     H 9308   4.062   8.453   8.020  0.3809 -0.4959  0.4126
   71MOL0     H 9309   3.836   8.637   8.125 -3.4191  0.7746  0.2805
   71MOL0     H 9310   3.842   8.539   7.971  2.7543  0.5295 -0.8958
   71MOL0     H 9311   3.734   8.726   7.853  0.1304  4.8439 -0.5657
   71MOL0     H 9312   3.740   8.824   7.987 -5.0585  2.1521 -3.3423
   71MOL0     H 9313   3.593   8.687   8.115 -1.3310 -0.2730 -0.1819
   71MOL0     H 9314   3.541   8.585   7.984 -0.3263  0.0420  2.1004
   71MOL0     H 9315   3.521   8.887   7.936  0.1244 -0.4916 -2.2745
   71MOL0     H 9316   3.446   8.741   7.859 -1.4775  0.2935 -0.0277
   71MOL0     H 9317   3.417   8.813   8.163  0.5179  1.2141 -0.6589
   71MOL0     H 9318   3.345   8.686   8.064  2.2087 -0.9927 -0.0911
   71MOL0     H 9319   3.232   8.868   7.939  1.9992 -0.0794 -0.4032
   71MOL0     H 9320   3.295   8.987   8.049  1.8711  0.2932  1.2588
   71MOL0     H 9321   3.100   8.751   8.115  1.0237 -0.9198 -0.2103
   71MOL0     H 9322   3.178   8.864   8.243  1.6352  1.9279 -0.7192
   71MOL0     H 9323   2.973   8.928   8.017 -1.1929  0.4531  0.4617
   71MOL0     H 9324   3.055   9.052   8.106  1.4986 -0.7956 -2.8572
   71MOL0     H 9325   2.814   8.748   8.190 -1.1559  0.8105  0.5704
   71MOL0     H 9326   2.767   8.754   8.561 -2.7504 -0.2633  1.2337
   71MOL0     H 9327   2.708   8.646   8.435 -4.2092 -0.3085  1.6380
   71MOL0     H 9328   2.591   8.925   8.483  1.7135  0.3205  1.4177
   71MOL0     H 9329   2.529   8.773   8.551  0.8315 -1.7358 -1.4141
   71MOL0     H 9330   2.558   8.858   8.260  0.1196 -0.0417  0.8414
   71MOL0     H 9331   2.488   8.698   8.304 -1.3742  0.4780 -0.5540
   71MOL0     H 9332   2.298   8.843   8.262 -0.1763  0.8259 -0.6973
   71MOL0     H 9333   2.377   8.974   8.356 -1.6330 -0.6245 -2.4981
   71MOL0     H 9334   2.180   8.686   8.632  0.8456  0.5774  0.3248
   71MOL0     H 9335   1.941   8.708   8.704  1.3369  0.8895  1.4907
   71MOL0     H 9336   1.497   8.805   8.601  0.9775 -0.1268  0.5890
   71MOL0     H 9337   1.276   8.773   8.697  0.4716 -0.7566 -0.9113
   71MOL0     H 9338   1.165   8.897   9.092 -3.7176  0.6842 -0.6006
   71MOL0     H 9339   1.242   8.744   9.147 -0.1901  0.5499  0.1580
   71MOL0     H 9340   1.045   8.621   9.091  1.7203  0.0523  0.2807
   71MOL0     H 9341   0.965   8.768   9.022  1.5592  2.0094 -0.0092
   71MOL0     H 9342   0.948   8.877   9.223  0.7357 -0.1914 -0.8629
   71MOL0     H 9343   1.056   8.765   9.307  1.6862 -2.0602 -2.3884
   71MOL0     H 9344   0.778   8.710   9.199  1.7619  2.3914 -0.4176
   71MOL0     H 9345   0.874   8.583   9.276 -0.3511 -0.1690  2.6551
   71MOL0     H 9346   0.809   8.844   9.417 -0.7645  0.2641 -0.0141
   71MOL0     H 9347   0.873   8.716   9.491  1.1902  0.0465 -0.3143
   71MOL0     H 9348   0.582   8.713   9.374  0.8019  1.1441 -0.2769
   71MOL0     H 9349   0.637   8.745   9.538  0.2125 -0.7279  0.8481
   71MOL0     H 9350   0.687   8.491   9.398  0.6719  2.6632 -1.3816
   71MOL0     H 9351   0.743   8.529   9.562  0.6463 -2.2383 -0.8421
   71MOL0     H 9352   0.455   8.524   9.456 -0.9177  3.4623  1.4137
   71MOL0     H 9353   0.505   8.603   9.611 -2.1415 -1.6772  1.0992
   71MOL0     H 9354   1.434   8.839   9.092 -1.4170  1.2299 -0.4071
   71MOL0     H 9355   1.649   8.874   8.996  0.3437 -1.1832  1.3865
   71MOL0     H 9356   1.907   9.033   8.416 -1.6337 -0.7900  0.1421
   71MOL0     H 9357   2.125   8.999   8.350 -2.4096 -1.1170 -1.2290
   71MOL0     H 9358   4.149   8.862   7.930 -1.7261 -1.4978 -1.2828
   71MOL0     H 9359   4.393   8.827   7.984  2.0698 -2.0047 -0.8896
   71MOL0     H 9360   4.720   8.678   8.138  0.0234 -0.6096  1.7649
   71MOL0     H 9361   4.973   8.631   8.169  1.9507 -1.1641 -0.2092
   71MOL0     H 9362   5.208   8.493   7.822 -1.2336 -0.6983  0.2717
   71MOL0     H 9363   5.169   8.341   7.892  3.2204 -0.6796 -4.1238
   71MOL0     H 9364   5.335   8.334   8.056  0.8606 -0.7478 -0.5950
   71MOL0     H 9365   5.400   8.353   7.901 -2.1581 -2.1089  0.9242
   71MOL0     H 9366   5.540   8.490   7.992  0.3338  0.7738  1.1332
   71MOL0     H 9367   5.435   8.545   8.125  3.6404 -0.8648  0.5987
   71MOL0     H 9368   5.418   8.610   7.829 -3.3223  1.2170 -0.2801
   71MOL0     H 9369   5.320   8.700   7.941  0.0745  0.0941  0.2980
   71MOL0     H 9370   5.695   8.905   7.952 -0.1261  1.0294 -1.6527
   71MOL0     H 9371   4.976   8.408   7.802 -2.0631 -1.3687  0.0113
   71MOL0     H 9372   4.742   8.433   7.786  0.9649 -1.6833  0.1193
   72MOL0     O 9373   4.968  10.604  10.460 -0.2132  0.3031 -0.4413
   72MOL0     C 9374   4.997  10.696  10.542  0.4389  0.1312  0.2038
   72MOL0     O 9375   4.911  10.775  10.612 -0.6196  0.9472  0.1539
   72MOL0     C 9376   4.778  10.737  10.628 -0.7213 -0.6046  0.6832
   72MOL0     C 9377   4.739  10.616  10.682  0.4200  0.1395  0.2157
   72MOL0     C 9378   4.600  10.586  10.689 -0.1567 -0.7508  1.0781
   72MOL0     C 9379   4.502  10.682  10.649  0.0398  0.9285  0.0846
   72MOL0     O 9380   4.370  10.645  10.650  0.2166 -0.2732 -0.3404
   72MOL0     C 9381   4.279  10.700  10.752  0.5249  0.0883  1.1633
   72MOL0     C 9382   4.312  10.626  10.889 -1.2362  0.2063 -0.1993
   72MOL0     C 9383   4.228  10.675  10.997 -0.1593  1.3071  0.8202
   72MOL0     C 9384   4.082  10.610  11.002 -0.4554 -0.1155  0.7250
   72MOL0     C 9385   4.012  10.646  11.135  0.0696  0.1324 -0.2212
   72MOL0     C 9386   3.884  10.579  11.168 -0.6326  0.1003  0.5987
   72MOL0     C 9387   3.812  10.645  11.286 -0.2553 -0.1468  0.2202
   72MOL0     C 9388   3.674  10.591  11.293 -0.0167 -0.2800 -0.4438
   72MOL0     N 9389   3.659  10.495  11.401  0.1279  0.4589 -0.0680
   72MOL0     C 9390   3.668  10.528  11.533 -0.6258 -0.0694 -0.5310
   72MOL0     C 9391   3.665  10.411  11.604  0.5904 -0.1664 -0.5647
   72MOL0     C 9392   3.652  10.397  11.754  0.0528  0.6702 -0.2372
   72MOL0     C 9393   3.508  10.414  11.813  0.6103 -0.1955  0.2934
   72MOL0     C 9394   3.418  10.294  11.773  0.2307 -0.1709  0.3529
   72MOL0     C 9395   3.297  10.297  11.858  0.2925  0.2260 -0.5049
   72MOL0     O 9396   3.224  10.180  11.827  0.3093  0.0998  0.2987
   72MOL0     C 9397   3.087  10.191  11.827  0.3169  0.2992  0.9898
   72MOL0     C 9398   3.019  10.262  11.925  0.2306  0.6431  0.2176
   72MOL0     C 9399   2.886  10.298  11.897  0.0414 -0.9120 -0.6703
   72MOL0     C 9400   2.817  10.257  11.781 -0.0907  0.6884 -0.6634
   72MOL0     C 9401   2.677  10.298  11.755  1.1147  0.0128  1.1273
   72MOL0     O 9402   2.617  10.357  11.857 -0.0594 -0.5115 -0.2831
   72MOL0     C 9403   2.486  10.385  11.861  0.2369  0.0220 -0.1123
   72MOL0     C 9404   2.417  10.358  11.985 -0.3661 -0.6907  0.1570
   72MOL0     C 9405   2.285  10.371  11.993  1.0395 -0.3755 -0.4223
   72MOL0     C 9406   2.205  10.411  11.882 -0.3747 -0.1966  0.5871
   72MOL0     O 9407   2.065  10.435  11.885  0.4390 -0.3650 -0.3120
   72MOL0     C 9408   1.984  10.381  11.997  0.2939 -0.5220 -0.0963
   72MOL0     C 9409   1.827  10.390  11.973 -0.2295 -0.0429 -0.3050
   72MOL0     C 9410   1.745  10.380  12.098 -0.2270  0.0374  0.1030
   72MOL0     C 9411   1.600  10.409  12.072  0.5775  1.0574 -0.9052
   72MOL0     C 9412   1.530  10.400  12.209  1.3952  0.0425 -0.7336
   72MOL0     C 9413   1.380  10.414  12.193 -0.4735  0.1395 -0.0270
   72MOL0     C 9414   1.302  10.310  12.278  0.4585 -0.3223 -0.7819
   72MOL0     C 9415   1.149  10.333  12.253 -0.1078  0.0598 -0.5442
   72MOL0    Cl 9416   1.105  10.494  12.328 -0.2840 -0.1214 -0.1087
   72MOL0     C 9417   2.275  10.448  11.764  0.4165 -0.1765 -0.4949
   72MOL0     C 9418   2.412  10.444  11.756  0.2500  0.5176 -0.1090
   72MOL0     O 9419   2.623  10.264  11.642  0.3914  0.2774 -0.5367
   72MOL0     C 9420   2.887  10.179  11.686 -0.5178  0.6122  0.5969
   72MOL0     C 9421   3.021  10.136  11.712  0.7378 -1.0170 -1.2990
   72MOL0     N 9422   3.657  10.309  11.512 -0.5045 -0.3344  0.3658
   72MOL0     N 9423   3.655  10.362  11.389  0.4614  1.3291  0.1451
   72MOL0     C 9424   4.541  10.804  10.603  0.7152  0.5503  0.1880
   72MOL0     C 9425   4.681  10.831  10.597 -0.4301  0.1524  0.7952
   72MOL0     C 9426   5.145  10.724  10.546 -0.0313  0.0358  1.2684
   72MOL0     C 9427   5.193  10.834  10.607 -0.4883  0.9399  0.3613
   72MOL0     C 9428   5.338  10.856  10.624  0.4873 -0.4211  0.6232
   72MOL0     C 9429   5.430  10.766  10.565  1.0617 -0.6598 -0.3926
   72MOL0     O 9430   5.564  10.798  10.582 -0.1601  0.2005  0.4226
   72MOL0     C 9431   5.659  10.700  10.541  0.0596 -0.1647  0.8680
   72MOL0     C 9432   5.672  10.595  10.652  0.6479  0.3047  0.4934
   72MOL0     C 9433   5.791  10.515  10.637 -0.5261  1.1756 -0.2528
   72MOL0     C 9434   5.793  10.420  10.761 -0.1692  0.0400  0.0203
   72MOL0     C 9435   5.928  10.360  10.788  0.6166 -0.2414  0.6793
   72MOL0     C 9436   6.028  10.294  10.810  0.1964 -0.0082  0.2491
   72MOL0     C 9437   5.374  10.669  10.479  0.0707 -0.1385  0.0776
   72MOL0     C 9438   5.236  10.661  10.462 -0.2575  0.2952  0.7447
   72MOL0     H 9439   4.819  10.545  10.702 -0.4315 -1.6269 -2.2162
   72MOL0     H 9440   4.569  10.487  10.719  1.0017 -0.6532  2.7305
   72MOL0     H 9441   4.173  10.683  10.728 -0.0784  2.8079  1.5387
   72MOL0     H 9442   4.271  10.809  10.747 -1.8365 -0.0807 -2.0000
   72MOL0     H 9443   4.412  10.645  10.930 -0.4098 -2.0665 -1.0327
   72MOL0     H 9444   4.299  10.518  10.888 -1.7565  0.2252  1.3030
   72MOL0     H 9445   4.223  10.784  10.991  1.3892  1.3104 -1.1824
   72MOL0     H 9446   4.287  10.645  11.084  1.5445  0.5358 -0.5747
   72MOL0     H 9447   4.010  10.636  10.923 -0.5134 -1.8710  0.1453
   72MOL0     H 9448   4.081  10.502  10.986 -1.2809 -0.0398  0.2068
   72MOL0     H 9449   3.992  10.752  11.151  0.5365  0.0740  0.8537
   72MOL0     H 9450   4.082  10.613  11.213  0.6104  0.8503 -0.3960
   72MOL0     H 9451   3.901  10.473  11.186  3.4080  0.7161  1.4048
   72MOL0     H 9452   3.813  10.585  11.085 -3.4172  0.6796  2.8691
   72MOL0     H 9453   3.862  10.622  11.380 -0.3359  1.3225  0.6426
   72MOL0     H 9454   3.808  10.754  11.284 -1.3675 -0.1194  2.2070
   72MOL0     H 9455   3.652  10.548  11.194  0.6197 -0.4362 -0.5198
   72MOL0     H 9456   3.610  10.680  11.291 -1.6007 -1.3548  0.2608
   72MOL0     H 9457   3.656  10.625  11.579  2.7083  0.3764 -0.3611
   72MOL0     H 9458   3.714  10.477  11.797 -0.0635 -0.7789  2.8476
   72MOL0     H 9459   3.696  10.300  11.779 -0.5731  0.3420 -0.3896
   72MOL0     H 9460   3.469  10.507  11.770 -1.2114 -1.7197 -1.5770
   72MOL0     H 9461   3.514  10.411  11.922  1.2760  1.9575  0.3573
   72MOL0     H 9462   3.381  10.303  11.670  0.5370  0.6272  0.3053
   72MOL0     H 9463   3.489  10.210  11.777  1.3065  0.5949 -1.4926
   72MOL0     H 9464   3.238  10.388  11.844  0.0536  0.6079  2.3790
   72MOL0     H 9465   3.321  10.289  11.965 -2.2343 -2.8706 -0.0279
   72MOL0     H 9466   3.062  10.305  12.014 -1.1193 -1.3189  1.9372
   72MOL0     H 9467   2.828  10.356  11.968  0.8999 -0.6400 -0.1782
   72MOL0     H 9468   2.474  10.326  12.071  0.2552 -0.1520 -0.0513
   72MOL0     H 9469   2.233  10.352  12.086 -0.0890 -0.3434 -1.0291
   72MOL0     H 9470   2.017  10.436  12.085 -1.5608 -1.7209  1.4329
   72MOL0     H 9471   2.018  10.277  12.001  2.1498 -0.0408 -1.7391
   72MOL0     H 9472   1.800  10.311  11.902  1.7645 -0.1606 -0.9856
   72MOL0     H 9473   1.808  10.485  11.923 -0.7045 -0.6822 -1.3848
   72MOL0     H 9474   1.784  10.440  12.181  0.4498  1.0642 -0.9362
   72MOL0     H 9475   1.754  10.273  12.120 -2.9750 -0.7906 -2.1918
   72MOL0     H 9476   1.589  10.512  12.037 -0.7972  0.8867 -1.0373
   72MOL0     H 9477   1.564  10.332  12.003  0.9607 -1.3370  1.4146
   72MOL0     H 9478   1.564  10.488  12.265  0.4237  1.2089 -1.9061
   72MOL0     H 9479   1.561  10.310  12.262  1.2951  0.3376 -0.1604
   72MOL0     H 9480   1.360  10.378  12.091 -1.7058 -2.9066  1.1649
   72MOL0     H 9481   1.343  10.516  12.202  0.2391  0.5138 -1.0923
   72MOL0     H 9482   1.332  10.212  12.240 -0.9277 -0.6706 -1.0015
   72MOL0     H 9483   1.314  10.323  12.386 -2.6472 -0.6362 -0.3169
   72MOL0     H 9484   1.094  10.249  12.296  1.6689 -1.5923 -1.3628
   72MOL0     H 9485   1.135  10.324  12.145  1.7050 -2.3139 -0.6496
   72MOL0     H 9486   2.224  10.494  11.680 -0.2402 -1.3278 -0.7521
   72MOL0     H 9487   2.458  10.471  11.661 -1.2503 -3.2928 -2.1594
   72MOL0     H 9488   2.836  10.148  11.595  2.4758  1.2664 -1.4690
   72MOL0     H 9489   3.079  10.080  11.639 -0.0654 -0.5284 -2.3451
   72MOL0     H 9490   4.474  10.887  10.582  0.5019  0.3202 -0.0558
   72MOL0     H 9491   4.706  10.929  10.558  0.6957 -0.2844  0.3820
   72MOL0     H 9492   5.132  10.911  10.654 -1.7326 -0.1137  0.5368
   72MOL0     H 9493   5.367  10.944  10.680 -0.7755  2.0091 -2.2887
   72MOL0     H 9494   5.754  10.755  10.536 -0.5148  0.8070  0.4226
   72MOL0     H 9495   5.643  10.655  10.443 -0.1308  0.9367  0.3788
   72MOL0     H 9496   5.669  10.647  10.748  0.1822 -0.1008  0.6982
   72MOL0     H 9497   5.584  10.530  10.649 -0.5382  1.7079  2.3720
   72MOL0     H 9498   5.880  10.577  10.640 -0.1654  0.6467  0.2391
   72MOL0     H 9499   5.791  10.457  10.544  1.1336  0.2575  0.2833
   72MOL0     H 9500   5.771  10.484  10.847 -2.9854 -0.3709 -0.3082
   72MOL0     H 9501   5.720  10.339  10.757 -0.7348  0.5260  0.3760
   72MOL0     H 9502   6.116  10.234  10.827 -0.2630 -0.3507  1.4943
   72MOL0     H 9503   5.433  10.600  10.419 -0.9715 -0.2948 -0.8035
   72MOL0     H 9504   5.191  10.602  10.383  2.6747 -0.2659 -0.6291
   73MOL0     O 9505   7.045   7.567   4.250 -0.0676 -0.4654  0.2794
   73MOL0     C 9506   6.998   7.580   4.138  0.3161  0.8006 -0.0359
   73MOL0     O 9507   7.072   7.569   4.024 -0.2623  0.5680  0.2549
   73MOL0     C 9508   7.203   7.609   4.046  1.6114 -0.4993 -0.8111
   73MOL0     C 9509   7.228   7.745   4.083  0.0058 -0.6766 -0.4122
   73MOL0     C 9510   7.359   7.790   4.091  0.9521  0.8781 -0.4254
   73MOL0     C 9511   7.470   7.706   4.054  0.0455  0.2199 -0.6165
   73MOL0     O 9512   7.597   7.750   4.046  0.0819 -0.7939 -0.2648
   73MOL0     C 9513   7.641   7.813   4.161 -0.3442 -0.4548 -0.7553
   73MOL0     C 9514   7.655   7.717   4.279 -0.1951 -0.3368  0.4961
   73MOL0     C 9515   7.719   7.785   4.403  0.4942  0.5717 -0.3336
   73MOL0     C 9516   7.701   7.698   4.520 -1.3543 -0.2608  0.4232
   73MOL0     C 9517   7.741   7.766   4.658  0.4291 -0.6931 -0.1987
   73MOL0     C 9518   7.861   7.862   4.650  0.1707 -0.7313 -0.3984
   73MOL0     C 9519   7.881   7.932   4.780 -0.1296 -0.1458 -0.2603
   73MOL0     C 9520   7.798   8.049   4.791  0.3473  0.2760 -0.7706
   73MOL0     N 9521   7.825   8.123   4.915 -0.4085 -0.5489 -1.0854
   73MOL0     C 9522   7.784   8.095   5.046  0.3766 -0.4522  0.9840
   73MOL0     C 9523   7.823   8.195   5.120  0.0931  0.0853 -0.7205
   73MOL0     C 9524   7.760   8.216   5.249  0.1910 -0.2734 -1.1883
   73MOL0     C 9525   7.616   8.247   5.214 -0.3376  0.0478  1.0028
   73MOL0     C 9526   7.540   8.293   5.333  0.0057 -0.0232 -0.0831
   73MOL0     C 9527   7.392   8.287   5.299 -0.1132  0.2716 -0.1155
   73MOL0     O 9528   7.308   8.366   5.387  0.3473  0.1476 -0.0637
   73MOL0     C 9529   7.177   8.330   5.384  0.4973  1.1616  0.1458
   73MOL0     C 9530   7.095   8.372   5.490  0.5872 -0.0563  0.4182
   73MOL0     C 9531   6.963   8.320   5.500 -0.4367 -0.6719 -0.2878
   73MOL0     C 9532   6.918   8.218   5.408  1.0099 -0.2961  0.3355
   73MOL0     C 9533   6.783   8.161   5.415 -0.5663  0.2227 -0.1431
   73MOL0     O 9534   6.685   8.241   5.472 -0.4470 -0.6873  0.5152
   73MOL0     C 9535   6.556   8.202   5.504 -0.5687  0.1654 -0.1898
   73MOL0     C 9536   6.456   8.302   5.522  0.9772 -0.0336  0.2185
   73MOL0     C 9537   6.319   8.271   5.549 -0.1660 -0.2824 -0.0848
   73MOL0     C 9538   6.285   8.136   5.570 -0.3828 -0.7268  0.3013
   73MOL0     O 9539   6.155   8.111   5.611  0.4525  0.6594  0.3705
   73MOL0     C 9540   6.130   7.973   5.651 -0.1536  0.0460 -0.4573
   73MOL0     C 9541   5.983   7.940   5.690  0.1850  0.3391  0.0207
   73MOL0     C 9542   5.879   7.989   5.586 -0.2342  0.3432 -0.3550
   73MOL0     C 9543   5.737   7.964   5.642 -0.1060  0.4097  0.6301
   73MOL0     C 9544   5.622   7.969   5.544 -0.5606 -0.2085  0.9620
   73MOL0     C 9545   5.486   7.914   5.590 -0.2478  0.5196  0.5384
   73MOL0     C 9546   5.401   7.884   5.468  0.0004  0.3615 -0.7825
   73MOL0     C 9547   5.266   7.835   5.515  0.1357 -0.3814 -0.1372
   73MOL0    Cl 9548   5.177   7.964   5.595  0.0439 -0.2471 -0.0515
   73MOL0     C 9549   6.392   8.042   5.551 -0.2225  0.3963  0.9453
   73MOL0     C 9550   6.519   8.074   5.512  0.7553  0.0937 -0.5407
   73MOL0     O 9551   6.762   8.050   5.369 -0.3596 -0.0552 -0.5985
   73MOL0     C 9552   6.998   8.194   5.295 -0.3884 -0.8903  0.3314
   73MOL0     C 9553   7.122   8.246   5.283 -0.7694 -0.4552  0.0210
   73MOL0     N 9554   7.891   8.288   5.041  0.8491 -0.3472 -0.0301
   73MOL0     N 9555   7.894   8.238   4.918 -0.1572  0.7650  0.2200
   73MOL0     C 9556   7.441   7.567   4.030  0.2902  0.0534 -0.0925
   73MOL0     C 9557   7.310   7.517   4.026  0.0849 -0.6186  0.2443
   73MOL0     C 9558   6.852   7.585   4.124  0.0534 -0.3054  0.5898
   73MOL0     C 9559   6.791   7.587   4.004  0.1621 -0.0221  0.1919
   73MOL0     C 9560   6.659   7.578   3.984  0.3558 -1.0975 -0.1215
   73MOL0     C 9561   6.575   7.575   4.091  0.7964 -0.0197 -0.2789
   73MOL0     O 9562   6.437   7.562   4.064 -0.8262  0.1065  0.0074
   73MOL0     C 9563   6.353   7.538   4.182  0.9715  0.5954 -0.5655
   73MOL0     C 9564   6.217   7.517   4.124  0.4414 -0.0543 -0.1647
   73MOL0     C 9565   6.127   7.460   4.227  0.7321  0.4310 -0.0099
   73MOL0     C 9566   5.997   7.423   4.174  0.4016 -0.4717 -0.1472
   73MOL0     C 9567   5.918   7.373   4.278  0.3013  0.6747  0.0770
   73MOL0     C 9568   5.852   7.334   4.372  1.0315  0.4675 -0.4320
   73MOL0     C 9569   6.629   7.577   4.221  0.0002  0.6641 -0.2939
   73MOL0     C 9570   6.766   7.573   4.235  0.2696 -0.5522 -0.3463
   73MOL0     H 9571   7.145   7.811   4.106 -0.2708 -1.6131  1.4953
   73MOL0     H 9572   7.379   7.894   4.114 -0.6072  1.3051 -0.8468
   73MOL0     H 9573   7.580   7.901   4.182  0.7197  0.6443 -2.0378
   73MOL0     H 9574   7.735   7.856   4.123 -0.5724 -2.9321 -4.7414
   73MOL0     H 9575   7.723   7.637   4.248 -0.3301  0.1305 -1.0487
   73MOL0     H 9576   7.557   7.680   4.308 -1.9302  0.7772 -3.3460
   73MOL0     H 9577   7.674   7.884   4.415 -0.3575  0.6631 -3.4781
   73MOL0     H 9578   7.825   7.801   4.381  1.8281 -2.1562  3.1433
   73MOL0     H 9579   7.594   7.676   4.527 -1.9452  1.2299 -2.3256
   73MOL0     H 9580   7.759   7.606   4.510 -2.5933 -1.5006  3.4587
   73MOL0     H 9581   7.763   7.686   4.729 -0.7284  0.5195  1.5963
   73MOL0     H 9582   7.652   7.819   4.692  1.0934  1.2404 -1.2976
   73MOL0     H 9583   7.826   7.942   4.584  2.4183 -0.0386 -0.8411
   73MOL0     H 9584   7.957   7.818   4.621 -0.0842 -1.0448 -0.7592
   73MOL0     H 9585   7.856   7.861   4.859  1.4805  1.1723  1.5539
   73MOL0     H 9586   7.985   7.963   4.794 -0.6730  0.9934  1.7692
   73MOL0     H 9587   7.691   8.029   4.794  0.4254 -0.0226  1.2027
   73MOL0     H 9588   7.830   8.117   4.712  0.6293 -1.2282 -1.9855
   73MOL0     H 9589   7.730   8.005   5.075  0.9980 -0.7921  1.1012
   73MOL0     H 9590   7.802   8.302   5.301  1.6079 -0.1351 -2.5059
   73MOL0     H 9591   7.760   8.130   5.316 -3.5611  1.7112  1.7636
   73MOL0     H 9592   7.569   8.157   5.173  0.5195 -0.5669  1.3482
   73MOL0     H 9593   7.614   8.333   5.147 -1.8185 -0.1128  0.8004
   73MOL0     H 9594   7.553   8.222   5.416 -0.7887 -0.2455 -0.1390
   73MOL0     H 9595   7.580   8.390   5.365 -2.4351  1.4066 -1.0606
   73MOL0     H 9596   7.365   8.181   5.296 -2.6891  0.8634 -0.4139
   73MOL0     H 9597   7.371   8.309   5.194  2.3880 -0.9779 -0.9687
   73MOL0     H 9598   7.132   8.419   5.580 -0.1448 -0.4480  0.9274
   73MOL0     H 9599   6.911   8.346   5.591 -0.1879  1.0245 -0.5974
   73MOL0     H 9600   6.480   8.408   5.511 -0.2710  0.6061  2.9013
   73MOL0     H 9601   6.236   8.340   5.555 -0.7371 -0.9938  0.3127
   73MOL0     H 9602   6.193   7.947   5.736 -0.1907 -0.2543 -0.5195
   73MOL0     H 9603   6.148   7.910   5.563  2.8001  0.3872 -0.1764
   73MOL0     H 9604   5.959   7.969   5.792  0.0356  1.3897 -0.3029
   73MOL0     H 9605   5.975   7.831   5.690 -1.9113  0.4486  0.8980
   73MOL0     H 9606   5.888   7.936   5.491  0.4870 -0.1173 -0.0359
   73MOL0     H 9607   5.894   8.097   5.582 -1.8488  0.7712  2.3963
   73MOL0     H 9608   5.740   7.859   5.674 -0.4081  0.0664 -0.4418
   73MOL0     H 9609   5.726   8.037   5.722 -2.7765  2.1578 -1.1915
   73MOL0     H 9610   5.650   7.905   5.461 -1.8739  1.2823 -0.7236
   73MOL0     H 9611   5.609   8.073   5.512 -0.8892 -1.4327 -3.5106
   73MOL0     H 9612   5.435   7.985   5.655 -0.7505  0.0690  0.6368
   73MOL0     H 9613   5.491   7.820   5.645 -0.9840  0.8906  1.2480
   73MOL0     H 9614   5.387   7.974   5.408  0.2234  0.9055 -0.0296
   73MOL0     H 9615   5.454   7.809   5.409 -1.1346  0.2492 -1.6882
   73MOL0     H 9616   5.275   7.755   5.590 -0.5971 -3.3563 -3.0029
   73MOL0     H 9617   5.206   7.780   5.442 -1.7299 -1.0706  1.7998
   73MOL0     H 9618   6.379   7.934   5.563  1.8582  0.3737  4.2866
   73MOL0     H 9619   6.591   7.994   5.498  2.2621  1.4303 -0.6712
   73MOL0     H 9620   6.976   8.120   5.218 -0.7149 -0.0857 -0.3625
   73MOL0     H 9621   7.180   8.217   5.196  1.2958  1.6816  0.5854
   73MOL0     H 9622   7.528   7.505   4.013 -0.2833 -0.8647  0.1718
   73MOL0     H 9623   7.284   7.415   3.999 -1.1227 -0.0160 -0.9980
   73MOL0     H 9624   6.855   7.601   3.918 -1.7824 -0.4550 -1.3754
   73MOL0     H 9625   6.626   7.582   3.881  1.5068 -1.5150 -0.5215
   73MOL0     H 9626   6.356   7.615   4.260  0.6407 -0.3112  0.3657
   73MOL0     H 9627   6.393   7.449   4.232  0.9575 -0.0393 -1.6533
   73MOL0     H 9628   6.188   7.614   4.081 -1.6015 -2.5301 -5.2853
   73MOL0     H 9629   6.226   7.452   4.036  0.2020  0.2787 -0.4358
   73MOL0     H 9630   6.110   7.541   4.298  0.8509 -0.4582  1.0428
   73MOL0     H 9631   6.164   7.368   4.273 -0.9752 -0.2443  0.0637
   73MOL0     H 9632   5.932   7.497   4.127 -0.1279 -2.3701 -2.6593
   73MOL0     H 9633   6.015   7.346   4.098 -0.5450 -1.1502  0.2853
   73MOL0     H 9634   5.788   7.303   4.452 -1.2984 -0.1857 -2.4260
   73MOL0     H 9635   6.563   7.566   4.306  1.5821 -3.6267  0.6464
   73MOL0     H 9636   6.800   7.556   4.337 -1.8901  1.4300  0.8097
   74MOL0     O 9637   5.925   6.798   3.638  0.3362  0.4236 -0.1140
   74MOL0     C 9638   5.914   6.693   3.569 -0.1945 -0.6507 -0.3671
   74MOL0     O 9639   5.801   6.613   3.575 -0.2344 -1.2658 -0.0117
   74MOL0     C 9640   5.733   6.593   3.695  0.0383 -0.0011 -0.0585
   74MOL0     C 9641   5.787   6.601   3.821 -0.5439 -0.1824  0.5802
   74MOL0     C 9642   5.701   6.583   3.925  1.0175 -0.6132  0.7145
   74MOL0     C 9643   5.565   6.572   3.913  0.0737 -0.2281 -0.2925
   74MOL0     O 9644   5.471   6.576   4.016  0.4173  0.3753 -1.0781
   74MOL0     C 9645   5.512   6.599   4.159 -0.7566 -0.1236  0.8378
   74MOL0     C 9646   5.403   6.548   4.251 -0.2280  0.8942  0.0719
   74MOL0     C 9647   5.424   6.596   4.392  0.3877  0.3110 -0.0314
   74MOL0     C 9648   5.314   6.524   4.476 -0.3173  0.9515 -0.3166
   74MOL0     C 9649   5.331   6.561   4.630 -0.6584  0.4997  0.8244
   74MOL0     C 9650   5.217   6.500   4.718 -0.0227 -0.3135 -0.0825
   74MOL0     C 9651   5.231   6.564   4.858 -0.3986  0.2118  0.6905
   74MOL0     C 9652   5.120   6.516   4.955 -0.6798 -0.1596 -0.0836
   74MOL0     N 9653   5.028   6.624   4.990  0.2323  0.4865 -0.8850
   74MOL0     C 9654   4.907   6.648   4.926 -0.4308 -0.3878  0.0273
   74MOL0     C 9655   4.879   6.781   4.956  0.2198 -0.6402  0.4865
   74MOL0     C 9656   4.754   6.858   4.930  0.5486  0.3234  0.2566
   74MOL0     C 9657   4.634   6.832   5.015  0.0398  0.0786  0.1448
   74MOL0     C 9658   4.547   6.958   5.014  0.5826  0.2879  0.3850
   74MOL0     C 9659   4.399   6.927   5.049  0.6475  0.2058 -0.7612
   74MOL0     O 9660   4.347   7.062   5.047  0.2092 -0.4274  0.4000
   74MOL0     C 9661   4.210   7.078   5.056  0.6101  0.5300 -0.5054
   74MOL0     C 9662   4.184   7.203   5.108  0.2836 -0.0393 -0.4049
   74MOL0     C 9663   4.052   7.244   5.118  0.2022  0.0999 -0.2101
   74MOL0     C 9664   3.943   7.157   5.082  0.3324 -0.1131  0.5470
   74MOL0     C 9665   3.801   7.205   5.085 -0.5497  0.2759  0.1193
   74MOL0     O 9666   3.704   7.118   5.025 -0.7170 -0.7010 -0.1934
   74MOL0     C 9667   3.571   7.162   5.001  1.1144  0.6659 -0.0474
   74MOL0     C 9668   3.501   7.073   4.911  0.3370 -0.1783  0.0902
   74MOL0     C 9669   3.371   7.114   4.870  0.3993  0.4645  0.3893
   74MOL0     C 9670   3.308   7.231   4.916  0.1463  0.4262  0.2134
   74MOL0     O 9671   3.179   7.263   4.875  0.5237 -0.2046 -0.3275
   74MOL0     C 9672   3.145   7.224   4.742 -0.4443 -0.1018 -0.3225
   74MOL0     C 9673   3.054   7.332   4.688  0.6226  0.3469 -0.2024
   74MOL0     C 9674   2.943   7.384   4.779  0.1146  0.5995  0.1590
   74MOL0     C 9675   2.830   7.283   4.821 -0.4065  0.1855 -0.4672
   74MOL0     C 9676   2.709   7.350   4.898 -0.0739 -0.1898 -0.0273
   74MOL0     C 9677   2.615   7.234   4.949 -0.6428  0.0936 -0.0853
   74MOL0     C 9678   2.477   7.290   4.998 -0.2452  0.9424 -0.1936
   74MOL0     C 9679   2.398   7.174   5.069 -0.2536 -0.2890 -0.5731
   74MOL0    Cl 9680   2.234   7.219   5.102  0.0526  0.6637 -0.5828
   74MOL0     C 9681   3.380   7.310   4.995  0.2513 -0.0428 -0.6680
   74MOL0     C 9682   3.506   7.278   5.042 -0.0080  1.3255  0.3838
   74MOL0     O 9683   3.781   7.317   5.124  0.0773  0.1663 -0.2363
   74MOL0     C 9684   3.969   7.032   5.038 -0.4849  0.1686 -0.2058
   74MOL0     C 9685   4.103   6.991   5.027  0.1874 -0.1715  0.0084
   74MOL0     N 9686   4.986   6.841   5.013  0.4459 -0.2569 -0.3886
   74MOL0     N 9687   5.070   6.743   5.039  1.8759 -0.6787 -0.2038
   74MOL0     C 9688   5.512   6.549   3.789 -0.7566  0.2196  0.7460
   74MOL0     C 9689   5.598   6.565   3.678 -0.1982  0.2249 -0.2334
   74MOL0     C 9690   6.024   6.669   3.475 -0.7673  0.2580 -0.4326
   74MOL0     C 9691   6.057   6.542   3.419  0.2702 -0.3264 -0.7904
   74MOL0     C 9692   6.153   6.526   3.321 -0.2824  0.6812  0.5215
   74MOL0     C 9693   6.211   6.634   3.262 -0.0163 -0.5050  0.4122
   74MOL0     O 9694   6.280   6.636   3.144  0.5307 -0.2420  0.2136
   74MOL0     C 9695   6.327   6.513   3.095 -0.1327  0.3450  0.8000
   74MOL0     C 9696   6.434   6.546   2.994 -0.1569  0.1422  0.0591
   74MOL0     C 9697   6.553   6.609   3.063  0.0435 -0.2456 -0.4481
   74MOL0     C 9698   6.655   6.670   2.965 -0.0494  0.2330  0.1177
   74MOL0     C 9699   6.725   6.564   2.893 -0.0552  0.8979 -0.4923
   74MOL0     C 9700   6.795   6.479   2.839 -0.0291  0.3429 -0.1149
   74MOL0     C 9701   6.193   6.758   3.331 -0.6181  0.5627 -0.6194
   74MOL0     C 9702   6.105   6.774   3.436 -0.8108  0.0737 -0.1862
   74MOL0     H 9703   5.890   6.627   3.844 -0.3317 -1.2543  0.8971
   74MOL0     H 9704   5.749   6.606   4.020 -0.6063  0.4873  1.3010
   74MOL0     H 9705   5.522   6.707   4.170 -0.9987  0.1870 -1.5304
   74MOL0     H 9706   5.607   6.549   4.181 -0.2405  0.2548 -0.4812
   74MOL0     H 9707   5.391   6.439   4.243  0.5858  0.8884 -1.5446
   74MOL0     H 9708   5.308   6.591   4.217 -0.2159  1.1667  0.3831
   74MOL0     H 9709   5.424   6.705   4.394 -1.4162  0.3362  1.0503
   74MOL0     H 9710   5.519   6.553   4.425  0.5035  0.1073 -0.6141
   74MOL0     H 9711   5.211   6.549   4.448 -0.9499  0.2177  1.2613
   74MOL0     H 9712   5.317   6.416   4.460  0.4322  0.6345  1.6997
   74MOL0     H 9713   5.330   6.670   4.641 -0.3557  0.4522  1.3605
   74MOL0     H 9714   5.431   6.526   4.655  0.3106  0.7696 -2.2356
   74MOL0     H 9715   5.239   6.393   4.726 -0.1642 -0.4242 -1.0461
   74MOL0     H 9716   5.120   6.523   4.674 -0.9055  0.1910  2.0291
   74MOL0     H 9717   5.325   6.515   4.887  0.7785  1.7115 -0.4453
   74MOL0     H 9718   5.249   6.671   4.856  0.0427  0.1305 -1.6395
   74MOL0     H 9719   5.168   6.486   5.048  1.0525  1.0991 -0.5095
   74MOL0     H 9720   5.079   6.424   4.912 -0.1626 -0.5607  0.2735
   74MOL0     H 9721   4.836   6.575   4.886 -0.4873  0.4519 -1.4675
   74MOL0     H 9722   4.727   6.852   4.824  0.3146  0.7541  0.2905
   74MOL0     H 9723   4.770   6.966   4.940 -0.2712  0.4649  0.1004
   74MOL0     H 9724   4.668   6.793   5.111  1.4426 -2.9509 -1.4267
   74MOL0     H 9725   4.576   6.750   4.971 -0.7235 -0.4935  2.1198
   74MOL0     H 9726   4.601   7.034   5.072 -0.1707  1.1823 -0.0699
   74MOL0     H 9727   4.544   6.996   4.912 -1.3544  0.5039  0.4897
   74MOL0     H 9728   4.401   6.881   5.148  0.6381  1.8274  0.0271
   74MOL0     H 9729   4.349   6.868   4.972 -2.3438  0.8109  0.5762
   74MOL0     H 9730   4.266   7.266   5.139 -0.8497  1.6319 -0.6909
   74MOL0     H 9731   4.028   7.339   5.165  0.1297 -0.1236  0.2110
   74MOL0     H 9732   3.548   6.988   4.863  0.3001  0.2181 -0.6745
   74MOL0     H 9733   3.326   7.052   4.793 -2.5812 -0.4275  2.6160
   74MOL0     H 9734   3.082   7.135   4.751  2.5701 -2.2804  1.3872
   74MOL0     H 9735   3.227   7.214   4.670 -0.4452  0.1055 -0.3526
   74MOL0     H 9736   3.008   7.304   4.592  0.5442 -1.5368  0.3395
   74MOL0     H 9737   3.112   7.423   4.672 -0.7310  1.2678 -0.0792
   74MOL0     H 9738   2.895   7.466   4.723  0.1777  0.7732  0.3606
   74MOL0     H 9739   2.987   7.430   4.868 -1.5103 -0.8560  1.7871
   74MOL0     H 9740   2.796   7.222   4.737 -0.5099  0.9321 -0.9840
   74MOL0     H 9741   2.883   7.214   4.887 -1.6402 -1.0158 -0.6971
   74MOL0     H 9742   2.643   7.411   4.835 -0.8162  0.4484  1.3229
   74MOL0     H 9743   2.740   7.416   4.980 -0.0069  0.6126 -0.6955
   74MOL0     H 9744   2.678   7.183   5.022 -0.9628 -2.2834 -1.3657
   74MOL0     H 9745   2.591   7.161   4.870  0.2758 -1.3209  0.9007
   74MOL0     H 9746   2.491   7.379   5.060  4.2050 -0.1157  0.6367
   74MOL0     H 9747   2.420   7.328   4.913 -0.9430  2.1455  0.7663
   74MOL0     H 9748   2.444   7.156   5.166  1.0008  1.3180 -0.8203
   74MOL0     H 9749   2.410   7.082   5.011 -3.9911 -0.6832 -0.9570
   74MOL0     H 9750   3.347   7.407   5.030  3.6918  1.4009 -1.0451
   74MOL0     H 9751   3.553   7.349   5.110  0.3449  1.1483  0.3210
   74MOL0     H 9752   3.887   6.964   5.019  0.4210 -0.3917 -2.5522
   74MOL0     H 9753   4.114   6.890   4.987  2.0287 -0.3215  0.7972
   74MOL0     H 9754   5.406   6.530   3.774 -0.3633 -1.0969 -0.6303
   74MOL0     H 9755   5.555   6.559   3.578  0.2168  0.3800 -0.4241
   74MOL0     H 9756   6.005   6.456   3.459  1.6059  0.3413  2.7454
   74MOL0     H 9757   6.170   6.424   3.288 -1.5915  0.5823  0.0778
   74MOL0     H 9758   6.251   6.457   3.039 -0.9185  0.2705  1.9159
   74MOL0     H 9759   6.373   6.452   3.173  0.9411  0.7237  0.4805
   74MOL0     H 9760   6.473   6.454   2.949 -2.5328 -0.8773 -0.0625
   74MOL0     H 9761   6.397   6.622   2.925  3.2737  1.9201 -0.0414
   74MOL0     H 9762   6.603   6.542   3.134 -1.3386  0.8295  1.6464
   74MOL0     H 9763   6.529   6.693   3.128  0.9242  0.0257 -0.4644
   74MOL0     H 9764   6.590   6.723   2.895  0.4141  1.0549  0.3028
   74MOL0     H 9765   6.722   6.741   3.013  1.4631  0.2377 -1.9017
   74MOL0     H 9766   6.846   6.391   2.807  0.1832 -0.6558  2.7298
   74MOL0     H 9767   6.230   6.853   3.296 -3.3805  0.8896 -3.0015
   74MOL0     H 9768   6.103   6.872   3.483  0.4346  0.5226 -1.0113
   75MOL0     O 9769   6.541   6.587   7.652 -0.0006  0.5733  0.2232
   75MOL0     C 9770   6.535   6.698   7.694 -0.2680  0.0670 -0.3016
   75MOL0     O 9771   6.643   6.787   7.709 -0.3581  0.0759 -0.3258
   75MOL0     C 9772   6.767   6.749   7.661 -0.0643  0.7780 -0.1957
   75MOL0     C 9773   6.824   6.807   7.550  0.3733  0.1716 -0.0025
   75MOL0     C 9774   6.940   6.747   7.492 -0.9052 -0.5200  0.3187
   75MOL0     C 9775   7.004   6.646   7.555  0.2993  0.5425 -0.1227
   75MOL0     O 9776   7.133   6.597   7.519  0.1219 -0.3954  0.3418
   75MOL0     C 9777   7.240   6.662   7.584  0.2426 -0.3452  0.6161
   75MOL0     C 9778   7.371   6.656   7.507  0.3692 -0.0338 -0.0715
   75MOL0     C 9779   7.485   6.752   7.567  0.1012 -0.1465 -0.9544
   75MOL0     C 9780   7.613   6.731   7.493 -0.4115 -0.1200  0.4172
   75MOL0     C 9781   7.733   6.766   7.575  0.3612  0.0456  0.4474
   75MOL0     C 9782   7.830   6.854   7.493 -0.6415  0.0295 -0.0004
   75MOL0     C 9783   7.962   6.868   7.581 -0.5186 -0.1885 -0.0074
   75MOL0     C 9784   8.063   6.758   7.550 -0.5199 -0.0256 -0.7693
   75MOL0     N 9785   8.196   6.795   7.617 -0.4722 -0.2155 -0.4899
   75MOL0     C 9786   8.318   6.767   7.561  0.4913  0.0127 -0.3929
   75MOL0     C 9787   8.413   6.815   7.637  0.2248 -0.2191 -0.5364
   75MOL0     C 9788   8.556   6.807   7.601 -0.0074  0.4523  0.5117
   75MOL0     C 9789   8.625   6.947   7.584  0.1254 -0.4343 -0.5092
   75MOL0     C 9790   8.770   6.923   7.526 -0.2120 -0.6208 -0.0276
   75MOL0     C 9791   8.846   7.049   7.489  0.0378  0.6893  0.1764
   75MOL0     O 9792   8.985   7.031   7.511 -0.2651  0.2070  0.1516
   75MOL0     C 9793   9.060   7.148   7.502  0.3263  0.7948 -0.4461
   75MOL0     C 9794   9.194   7.128   7.534 -0.0259 -0.1930  0.2645
   75MOL0     C 9795   9.284   7.230   7.514  0.2683 -1.1935 -0.3781
   75MOL0     C 9796   9.238   7.356   7.480 -0.7037 -0.1864  0.6718
   75MOL0     C 9797   9.345   7.460   7.459  0.4745 -0.2548  0.3722
   75MOL0     O 9798   9.467   7.443   7.519  0.7079  0.1798  0.1819
   75MOL0     C 9799   9.566   7.533   7.507  0.3973  0.3507  0.7146
   75MOL0     C 9800   9.631   7.554   7.389  0.2591 -0.6891 -0.3141
   75MOL0     C 9801   9.740   7.643   7.380  0.7635 -0.8457  0.0118
   75MOL0     C 9802   9.794   7.696   7.492 -0.7617 -0.1032 -0.6677
   75MOL0     O 9803   9.910   7.767   7.462  0.2881  0.4764  0.3302
   75MOL0     C 9804   9.938   7.891   7.532 -0.5784  0.7917 -0.5504
   75MOL0     C 9805   9.887   8.010   7.456  0.1669  1.1435 -0.5612
   75MOL0     C 9806   9.977   8.045   7.329  0.3928 -0.0325 -0.4907
   75MOL0     C 9807   9.991   7.937   7.224 -0.3345  0.3073  0.5031
   75MOL0     C 9808  10.059   7.980   7.097 -0.0431 -0.5407 -0.4857
   75MOL0     C 9809  10.210   8.003   7.135  0.5875  0.0046 -0.2685
   75MOL0     C 9810  10.276   8.050   7.010 -0.3385 -1.1538 -0.5955
   75MOL0     C 9811  10.430   8.024   7.018  0.7619 -0.4369  0.0514
   75MOL0    Cl 9812  10.502   8.062   7.181  0.1116 -0.0455  0.2753
   75MOL0     C 9813   9.732   7.672   7.615 -0.2991 -1.0817 -0.9829
   75MOL0     C 9814   9.622   7.582   7.621 -0.0170 -0.0479  0.5980
   75MOL0     O 9815   9.313   7.553   7.387  0.1218 -0.3817  0.1340
   75MOL0     C 9816   9.106   7.383   7.449  0.7171  0.8102 -0.1207
   75MOL0     C 9817   9.010   7.278   7.469  0.1782  0.1741  0.3092
   75MOL0     N 9818   8.358   6.875   7.744 -0.4266 -0.1883  0.0822
   75MOL0     N 9819   8.233   6.854   7.737  0.6159 -0.2786  0.0086
   75MOL0     C 9820   6.949   6.591   7.668  0.0910  0.4671  1.2870
   75MOL0     C 9821   6.835   6.637   7.719  0.0036 -0.6133  0.0079
   75MOL0     C 9822   6.395   6.753   7.726 -0.1900 -0.0522 -0.5807
   75MOL0     C 9823   6.391   6.889   7.775 -0.3759  0.5113 -0.0066
   75MOL0     C 9824   6.278   6.948   7.817 -0.6249  0.3865 -0.0172
   75MOL0     C 9825   6.164   6.868   7.824  0.4363 -0.2722 -0.0961
   75MOL0     O 9826   6.039   6.910   7.868  0.3632 -0.1908 -0.0558
   75MOL0     C 9827   6.023   7.048   7.919 -0.8840 -0.2462 -0.5051
   75MOL0     C 9828   5.880   7.076   7.946  0.4147  0.9557 -0.6237
   75MOL0     C 9829   5.861   7.224   7.976 -0.5919 -0.1325  0.5244
   75MOL0     C 9830   5.721   7.260   8.006  0.2122 -0.9650 -0.4075
   75MOL0     C 9831   5.690   7.223   8.148 -0.2546 -0.4295  0.1941
   75MOL0     C 9832   5.645   7.203   8.261  0.3258  0.1245 -0.5455
   75MOL0     C 9833   6.160   6.742   7.761 -0.0939  0.1686 -0.2013
   75MOL0     C 9834   6.274   6.680   7.720  0.1655  0.2886 -0.2564
   75MOL0     H 9835   6.773   6.893   7.508  1.1619  0.3780 -0.5677
   75MOL0     H 9836   6.988   6.791   7.405 -0.7914 -1.3861 -0.0721
   75MOL0     H 9837   7.251   6.619   7.684 -0.5520 -1.0241  0.4167
   75MOL0     H 9838   7.221   6.768   7.603 -2.5124 -1.0698  2.6685
   75MOL0     H 9839   7.354   6.700   7.408  0.4149  1.3354  0.5056
   75MOL0     H 9840   7.409   6.554   7.499 -0.0852 -0.2928  0.9188
   75MOL0     H 9841   7.499   6.726   7.672  1.1884 -3.6579 -1.8303
   75MOL0     H 9842   7.449   6.854   7.553 -1.1617 -0.6942 -1.9360
   75MOL0     H 9843   7.624   6.624   7.474  0.3120  0.1216 -0.6162
   75MOL0     H 9844   7.615   6.784   7.398  0.7219 -1.3134 -0.2736
   75MOL0     H 9845   7.771   6.672   7.614 -5.5285 -1.9563  2.5615
   75MOL0     H 9846   7.695   6.833   7.653 -3.9688 -0.8323 -0.6118
   75MOL0     H 9847   7.790   6.955   7.479  1.0565  0.7273 -0.0793
   75MOL0     H 9848   7.849   6.811   7.394  1.4481  3.5119 -1.3174
   75MOL0     H 9849   8.004   6.964   7.548  0.1450 -0.0773  1.1168
   75MOL0     H 9850   7.929   6.866   7.685 -1.0341  0.6586 -0.1478
   75MOL0     H 9851   8.077   6.750   7.442 -1.1472 -0.1682 -0.8434
   75MOL0     H 9852   8.027   6.667   7.598  0.5524  0.5318  1.1821
   75MOL0     H 9853   8.337   6.720   7.465 -0.2189 -0.0300 -0.5220
   75MOL0     H 9854   8.566   6.743   7.513 -2.3564  1.3433 -0.5018
   75MOL0     H 9855   8.600   6.747   7.681 -0.1712  1.7605  1.6159
   75MOL0     H 9856   8.646   6.999   7.678  1.7015  0.6885 -1.4276
   75MOL0     H 9857   8.566   7.020   7.528  3.4733  3.3267  0.3390
   75MOL0     H 9858   8.834   6.871   7.597 -2.6705 -1.3982  1.7756
   75MOL0     H 9859   8.757   6.856   7.440  1.4561 -0.6632 -0.2815
   75MOL0     H 9860   8.797   7.132   7.541 -1.3820 -0.0577  0.0999
   75MOL0     H 9861   8.835   7.069   7.382  1.3359  1.0426  0.0945
   75MOL0     H 9862   9.229   7.032   7.569 -0.5269  0.1356  1.7003
   75MOL0     H 9863   9.387   7.199   7.531  0.3186 -0.6435  0.3758
   75MOL0     H 9864   9.583   7.521   7.298 -3.1583  2.1009  0.2401
   75MOL0     H 9865   9.782   7.666   7.283  1.8188 -0.5549  0.5303
   75MOL0     H 9866  10.046   7.907   7.537 -0.6481  1.8374 -1.7980
   75MOL0     H 9867   9.898   7.898   7.634 -1.3342  1.5571 -0.8869
   75MOL0     H 9868   9.884   8.101   7.515 -0.6347  0.7513  0.0313
   75MOL0     H 9869   9.780   7.990   7.441  0.2633  0.3184 -0.2034
   75MOL0     H 9870  10.076   8.071   7.366  0.5355 -1.7752  0.4228
   75MOL0     H 9871   9.938   8.140   7.291  0.4810 -0.2669 -1.1761
   75MOL0     H 9872  10.039   7.846   7.260  0.5496  0.8117  0.6164
   75MOL0     H 9873   9.891   7.902   7.194 -0.2096 -0.0493  0.5061
   75MOL0     H 9874  10.015   8.076   7.065 -1.7665  0.5049  4.1918
   75MOL0     H 9875  10.051   7.907   7.016  0.2548 -0.8776 -0.2143
   75MOL0     H 9876  10.256   7.910   7.169 -0.5106 -1.5848 -2.8183
   75MOL0     H 9877  10.221   8.077   7.215 -2.4231 -0.5536  0.8175
   75MOL0     H 9878  10.240   8.001   6.919  0.8876 -1.0083 -1.1923
   75MOL0     H 9879  10.271   8.158   6.996 -0.9903 -1.3538 -2.2182
   75MOL0     H 9880  10.476   8.086   6.940  0.9382  2.7732  2.5167
   75MOL0     H 9881  10.451   7.918   6.999  0.3480 -0.3628 -0.8575
   75MOL0     H 9882   9.789   7.708   7.700 -2.1889  1.3587 -0.6349
   75MOL0     H 9883   9.589   7.546   7.718 -0.3328  0.1744  0.5737
   75MOL0     H 9884   9.075   7.487   7.444  0.5732  0.7672 -0.1264
   75MOL0     H 9885   8.904   7.301   7.462  0.8889  3.4899 -1.7148
   75MOL0     H 9886   6.993   6.500   7.709 -1.2882 -0.1245  1.5171
   75MOL0     H 9887   6.789   6.593   7.807 -0.0957 -1.4069 -0.4282
   75MOL0     H 9888   6.485   6.943   7.786  1.1478 -1.8060 -0.9615
   75MOL0     H 9889   6.281   7.044   7.868 -1.9889 -0.0838  1.0321
   75MOL0     H 9890   6.049   7.116   7.837  0.2288  1.8070  1.4384
   75MOL0     H 9891   6.087   7.074   8.004  2.1162  0.8588 -2.8951
   75MOL0     H 9892   5.828   7.054   7.852 -0.7245 -0.9725  0.3960
   75MOL0     H 9893   5.844   7.013   8.028 -2.8624  1.8249 -1.2404
   75MOL0     H 9894   5.878   7.268   7.877  1.9132 -4.2330 -1.1005
   75MOL0     H 9895   5.922   7.262   8.058 -0.8818  1.3447  0.0944
   75MOL0     H 9896   5.695   7.365   8.000  1.2878 -0.6858 -0.4963
   75MOL0     H 9897   5.656   7.211   7.933 -1.3217  0.6446 -0.1595
   75MOL0     H 9898   5.599   7.174   8.354  0.3653 -0.2214 -0.6316
   75MOL0     H 9899   6.062   6.694   7.759  0.6111 -1.7462  3.2645
   75MOL0     H 9900   6.282   6.585   7.666  1.7222  0.6617 -0.7517
   76MOL0     O 9901   7.346   7.050   4.069  0.6150 -0.4194 -0.9718
   76MOL0     C 9902   7.374   7.134   3.980  0.1656 -0.5659 -0.2544
   76MOL0     O 9903   7.290   7.179   3.881  0.5012  0.0482  1.0907
   76MOL0     C 9904   7.160   7.146   3.882  0.3874 -1.1504  0.7149
   76MOL0     C 9905   7.082   7.184   3.987  0.3785 -0.0581 -0.1742
   76MOL0     C 9906   6.949   7.140   4.000  0.9754  0.1989  0.3675
   76MOL0     C 9907   6.886   7.068   3.897 -0.4559 -0.7800 -0.6588
   76MOL0     O 9908   6.753   7.036   3.895  0.5054 -0.3545 -0.0771
   76MOL0     C 9909   6.671   7.119   3.978  0.1671  0.1849 -0.1696
   76MOL0     C 9910   6.531   7.066   3.967  0.3579  0.1094 -0.6565
   76MOL0     C 9911   6.437   7.117   4.073  0.3447 -0.4427  0.1721
   76MOL0     C 9912   6.300   7.051   4.049  0.0153 -0.4314 -0.3514
   76MOL0     C 9913   6.189   7.105   4.133 -0.2078  0.4571  0.8705
   76MOL0     C 9914   6.063   7.014   4.140  0.3621 -0.4723  0.1706
   76MOL0     C 9915   5.997   6.997   3.998 -0.4610 -0.4302  0.2377
   76MOL0     C 9916   5.873   6.904   3.995  0.5034  0.2478 -0.4471
   76MOL0     N 9917   5.786   6.914   4.116 -0.0477 -0.2895  0.6983
   76MOL0     C 9918   5.706   7.022   4.152  0.0741  0.0461  0.2734
   76MOL0     C 9919   5.655   6.987   4.274  0.2458 -0.0816 -0.2085
   76MOL0     C 9920   5.572   7.065   4.365 -0.5649  0.3325 -1.5707
   76MOL0     C 9921   5.432   7.036   4.352  0.3097 -0.2166  0.2450
   76MOL0     C 9922   5.372   7.093   4.220  0.3256 -0.7971  0.7189
   76MOL0     C 9923   5.376   7.249   4.205 -0.2522  0.0016  0.6891
   76MOL0     O 9924   5.335   7.324   4.327 -0.0158 -0.3042  0.4819
   76MOL0     C 9925   5.202   7.355   4.345  0.3315  0.2181 -1.2205
   76MOL0     C 9926   5.172   7.436   4.458 -0.2849  0.6163  0.4853
   76MOL0     C 9927   5.042   7.466   4.489  0.4163  0.4650 -0.3884
   76MOL0     C 9928   4.931   7.405   4.424  0.0193  0.5681 -0.3749
   76MOL0     C 9929   4.794   7.427   4.460 -0.2341  0.2440 -0.6108
   76MOL0     O 9930   4.704   7.387   4.370  0.3302 -0.7059  0.2401
   76MOL0     C 9931   4.571   7.400   4.385 -0.2062  0.1654 -0.3047
   76MOL0     C 9932   4.479   7.292   4.381  0.4416 -0.8786 -0.3232
   76MOL0     C 9933   4.345   7.317   4.393 -0.1312  0.5132 -0.4283
   76MOL0     C 9934   4.303   7.452   4.386  1.7671 -0.0300 -0.0609
   76MOL0     O 9935   4.166   7.462   4.394  0.5320 -0.4198  0.9023
   76MOL0     C 9936   4.115   7.569   4.314 -0.3483 -0.1680 -0.1462
   76MOL0     C 9937   3.965   7.543   4.302 -0.5383 -0.0465  0.3381
   76MOL0     C 9938   3.888   7.654   4.240  1.2471 -0.5484 -0.2624
   76MOL0     C 9939   3.742   7.623   4.230  0.0158 -0.2334 -0.5858
   76MOL0     C 9940   3.673   7.659   4.364 -0.5801  0.0777 -0.0969
   76MOL0     C 9941   3.528   7.617   4.355 -0.7402 -0.2933  0.4302
   76MOL0     C 9942   3.448   7.666   4.476 -0.6381  0.4250 -0.0225
   76MOL0     C 9943   3.302   7.650   4.446  0.0697  0.3095  0.5584
   76MOL0    Cl 9944   3.283   7.466   4.439 -0.0730 -0.5603 -0.2917
   76MOL0     C 9945   4.390   7.558   4.381 -1.1347 -0.1424 -0.3366
   76MOL0     C 9946   4.523   7.534   4.397 -0.1684  0.7039  0.4984
   76MOL0     O 9947   4.771   7.470   4.576  0.2829 -0.5098 -0.2224
   76MOL0     C 9948   4.964   7.323   4.313  0.0062  0.0748  0.0895
   76MOL0     C 9949   5.096   7.292   4.278  1.2429 -0.8704  0.5088
   76MOL0     N 9950   5.717   6.868   4.312 -1.3635  0.0018  0.3494
   76MOL0     N 9951   5.786   6.826   4.214 -0.3651  0.3145  0.9537
   76MOL0     C 9952   6.964   7.025   3.800 -0.7219 -0.3024  0.9316
   76MOL0     C 9953   7.101   7.061   3.792 -0.4002  0.4384  0.7751
   76MOL0     C 9954   7.516   7.195   3.983  0.0174 -0.7151  0.3487
   76MOL0     C 9955   7.587   7.193   4.101  0.0739 -0.0028 -0.0331
   76MOL0     C 9956   7.716   7.233   4.103  0.2242  0.8562 -0.0608
   76MOL0     C 9957   7.782   7.258   3.978 -0.4026 -0.9949 -0.2723
   76MOL0     O 9958   7.914   7.273   3.991 -1.1138 -0.0294  0.7529
   76MOL0     C 9959   8.002   7.271   3.878  0.1366 -0.6438 -0.3387
   76MOL0     C 9960   8.139   7.306   3.932  0.9770  0.3538  0.9894
   76MOL0     C 9961   8.203   7.196   4.020  1.0380 -0.4890 -0.4047
   76MOL0     C 9962   8.342   7.225   4.066 -0.3939  0.0616 -0.4807
   76MOL0     C 9963   8.426   7.225   3.947 -0.6303  0.0866  0.4150
   76MOL0     C 9964   8.486   7.212   3.843 -0.2689 -0.6980 -0.3318
   76MOL0     C 9965   7.707   7.273   3.860 -0.0471  0.3082 -0.2046
   76MOL0     C 9966   7.570   7.241   3.866 -0.8409 -0.1223  0.9368
   76MOL0     H 9967   7.130   7.238   4.068 -0.7053 -1.6360  1.5996
   76MOL0     H 9968   6.894   7.162   4.091 -1.4414 -4.0984  0.1976
   76MOL0     H 9969   6.693   7.225   3.966 -0.3659  0.4505  1.0127
   76MOL0     H 9970   6.695   7.102   4.083  0.0709 -1.1192 -0.3416
   76MOL0     H 9971   6.546   6.959   3.982  0.0906  0.3534  1.7603
   76MOL0     H 9972   6.501   7.090   3.864 -0.1628  1.6423 -0.1849
   76MOL0     H 9973   6.419   7.223   4.057  0.6955 -0.4452 -0.2488
   76MOL0     H 9974   6.476   7.106   4.174  2.2143 -1.9141 -0.6514
   76MOL0     H 9975   6.265   7.069   3.947  0.6223  0.9576 -0.3415
   76MOL0     H 9976   6.312   6.943   4.044 -0.9433 -0.4875 -3.2397
   76MOL0     H 9977   6.164   7.205   4.096 -1.5953  0.9057  2.8584
   76MOL0     H 9978   6.226   7.123   4.235 -1.6231 -1.7162  1.8273
   76MOL0     H 9979   5.998   7.067   4.210  1.1878  2.0973 -0.8765
   76MOL0     H 9980   6.088   6.917   4.184 -1.3418 -0.4376  1.2857
   76MOL0     H 9981   5.986   7.092   3.945 -0.8904  0.1243  1.2976
   76MOL0     H 9982   6.068   6.933   3.946 -1.0240 -0.5952 -0.3428
   76MOL0     H 9983   5.914   6.802   4.001  2.3277  1.0148  1.2236
   76MOL0     H 9984   5.813   6.925   3.906 -0.5059  0.2957  0.2296
   76MOL0     H 9985   5.699   7.117   4.101 -0.0406 -0.2041 -0.1788
   76MOL0     H 9986   5.602   7.169   4.352 -0.6563  1.1376  3.1353
   76MOL0     H 9987   5.607   7.039   4.465  1.8162  0.6568 -2.2418
   76MOL0     H 9988   5.378   7.076   4.438 -3.2712 -1.1534 -1.3555
   76MOL0     H 9989   5.415   6.928   4.367  0.3108  0.0051  2.1631
   76MOL0     H 9990   5.424   7.051   4.133  2.3184  0.7706  1.0830
   76MOL0     H 9991   5.268   7.061   4.232  0.4623 -1.4156  0.3280
   76MOL0     H 9992   5.313   7.283   4.123 -0.2253  0.7552  0.9767
   76MOL0     H 9993   5.482   7.270   4.190  0.0319 -1.1334  0.9633
   76MOL0     H 9994   5.252   7.486   4.512  0.1448  0.8966 -0.4032
   76MOL0     H 9995   5.024   7.528   4.576 -0.2743 -1.9963  1.3026
   76MOL0     H 9996   4.521   7.192   4.372  0.5637 -0.9569  0.9585
   76MOL0     H 9997   4.260   7.253   4.372 -0.7580  2.4406 -5.1714
   76MOL0     H 9998   4.165   7.569   4.216  0.6207 -0.0575  0.3304
   76MOL0     H 9999   4.139   7.666   4.360  0.2799  1.2747 -3.2218
   76MOL0     H10000   3.917   7.520   4.398 -2.7592  2.6126  0.0053
   76MOL0     H10001   3.953   7.465   4.227 -2.4258 -0.2352  0.7873
   76MOL0     H10002   3.928   7.673   4.140 -0.7214  4.3143 -0.3897
   76MOL0     H10003   3.902   7.750   4.292 -2.8885  0.6402 -0.9822
   76MOL0     H10004   3.688   7.670   4.148 -1.1551 -2.2094 -1.0216
   76MOL0     H10005   3.720   7.519   4.205 -0.5186  0.2104 -2.1010
   76MOL0     H10006   3.673   7.768   4.376  1.1663 -0.0845  2.1594
   76MOL0     H10007   3.715   7.623   4.458 -1.0345  1.9002  0.8608
   76MOL0     H10008   3.512   7.511   4.335  0.0242  0.0987 -2.7384
   76MOL0     H10009   3.485   7.672   4.271 -3.6118 -0.7641  1.4773
   76MOL0     H10010   3.471   7.616   4.571 -1.7226 -0.3195 -0.1293
   76MOL0     H10011   3.450   7.774   4.495 -2.5718  0.5065 -0.0950
   76MOL0     H10012   3.266   7.695   4.353  0.2084  0.1883  0.4460
   76MOL0     H10013   3.241   7.694   4.525  0.5120  1.8886  0.0422
   76MOL0     H10014   4.350   7.659   4.384 -0.7897  0.0063 -0.6725
   76MOL0     H10015   4.580   7.626   4.407  4.2962 -1.9500  3.0293
   76MOL0     H10016   4.886   7.277   4.254  0.3845  1.5062 -1.6203
   76MOL0     H10017   5.108   7.229   4.190 -1.1518  2.2956 -2.3561
   76MOL0     H10018   6.935   6.963   3.715 -0.2459 -1.0778  1.3212
   76MOL0     H10019   7.169   7.020   3.718  0.6029  0.7171  1.5284
   76MOL0     H10020   7.551   7.146   4.192  1.2474 -1.7821 -0.4409
   76MOL0     H10021   7.767   7.246   4.198 -1.7273 -0.7536  1.2992
   76MOL0     H10022   7.970   7.347   3.806 -2.1707 -1.4946 -0.2953
   76MOL0     H10023   8.001   7.173   3.829  0.2919 -2.4604  2.9720
   76MOL0     H10024   8.212   7.331   3.854  0.8428  1.3512  1.1615
   76MOL0     H10025   8.134   7.401   3.987  0.3696  0.3134  1.0089
   76MOL0     H10026   8.211   7.098   3.971  2.8353 -0.2938 -0.5558
   76MOL0     H10027   8.140   7.186   4.109 -1.4473  0.2265 -1.9765
   76MOL0     H10028   8.339   7.321   4.120 -0.4018  0.1559 -0.6482
   76MOL0     H10029   8.376   7.147   4.136  0.5579  0.2753 -0.6913
   76MOL0     H10030   8.543   7.212   3.753 -1.7188 -0.2128 -1.2940
   76MOL0     H10031   7.752   7.305   3.767  2.6823  0.5122  1.0928
   76MOL0     H10032   7.516   7.233   3.772  0.4378 -2.0848  0.3250
   77MOL0     O10033   0.749   5.253   6.332  0.1520 -0.2298 -0.1554
   77MOL0     C10034   0.724   5.155   6.266  0.7174  0.4289  0.8430
   77MOL0     O10035   0.798   5.099   6.168 -0.6367 -0.3862 -0.3389
   77MOL0     C10036   0.926   5.147   6.138  0.0195 -0.5090  0.3964
   77MOL0     C10037   0.973   5.081   6.023  0.2351  0.1218  0.2551
   77MOL0     C10038   1.095   5.131   5.962 -0.1710 -0.0189  0.0927
   77MOL0     C10039   1.172   5.227   6.026 -0.5400 -0.0647 -0.9283
   77MOL0     O10040   1.287   5.274   5.964  0.3556  0.9027 -0.1298
   77MOL0     C10041   1.374   5.194   5.882 -0.0814  0.1767 -0.4861
   77MOL0     C10042   1.441   5.071   5.937  0.4275  0.9599 -0.7832
   77MOL0     C10043   1.555   5.023   5.849  0.5475 -0.1809 -0.0379
   77MOL0     C10044   1.588   4.873   5.859  0.0060  0.9890  0.3602
   77MOL0     C10045   1.723   4.845   5.790 -0.5292  0.5411 -0.5975
   77MOL0     C10046   1.752   4.690   5.800 -0.1093 -0.3559  0.2045
   77MOL0     C10047   1.874   4.652   5.710  0.3337  0.6290 -0.5817
   77MOL0     C10048   1.847   4.634   5.560  0.7944  0.4111  0.4561
   77MOL0     N10049   1.972   4.640   5.488  0.0605  0.4747  0.6087
   77MOL0     C10050   2.065   4.531   5.482 -0.1645 -0.3651 -0.6091
   77MOL0     C10051   2.164   4.571   5.402  0.2038 -0.9632  0.1719
   77MOL0     C10052   2.289   4.493   5.366 -0.4700  0.5449  0.1212
   77MOL0     C10053   2.374   4.446   5.484  0.4685  0.8244  0.1904
   77MOL0     C10054   2.381   4.292   5.525 -0.0353  0.3629 -0.8209
   77MOL0     C10055   2.248   4.217   5.547 -0.0977 -0.5195 -0.7508
   77MOL0     O10056   2.206   4.262   5.677 -0.3852 -0.4306  0.3351
   77MOL0     C10057   2.078   4.228   5.711 -0.4213  0.5794 -0.2700
   77MOL0     C10058   1.999   4.132   5.634  0.7299 -0.0940  0.2801
   77MOL0     C10059   1.859   4.135   5.658  0.9495 -0.0825  0.3781
   77MOL0     C10060   1.791   4.218   5.753  0.4262 -0.2061  0.2153
   77MOL0     C10061   1.650   4.207   5.790  0.7529  0.1698  0.8833
   77MOL0     O10062   1.598   4.286   5.893  0.1709 -0.3599 -0.7526
   77MOL0     C10063   1.458   4.277   5.906  0.0447  0.2082 -0.3578
   77MOL0     C10064   1.369   4.327   5.803  0.7782  0.1842 -0.0904
   77MOL0     C10065   1.227   4.325   5.826 -0.4445 -0.1832 -0.9650
   77MOL0     C10066   1.175   4.273   5.949  0.8845 -0.7393  0.0381
   77MOL0     O10067   1.046   4.280   5.965 -0.0930  0.6052  0.5108
   77MOL0     C10068   0.967   4.246   6.077 -0.2437 -0.0645 -0.0685
   77MOL0     C10069   0.825   4.265   6.028  0.7326 -0.6275  0.3381
   77MOL0     C10070   0.714   4.236   6.127  0.2513 -0.1330 -0.1254
   77MOL0     C10071   0.567   4.294   6.093 -0.0644  0.0405  0.4221
   77MOL0     C10072   0.471   4.291   6.211 -0.3908 -0.4260  0.5499
   77MOL0     C10073   0.347   4.377   6.177 -0.0620 -0.1770  0.7736
   77MOL0     C10074   0.241   4.354   6.283  0.2056  0.6531  0.3527
   77MOL0     C10075   0.111   4.422   6.253  0.2897 -0.0221 -0.5533
   77MOL0    Cl10076   0.153   4.598   6.235 -0.2200 -0.1146 -0.5205
   77MOL0     C10077   1.267   4.227   6.042  0.2167  0.5543  0.2557
   77MOL0     C10078   1.410   4.217   6.017  0.3626  0.0650 -0.2095
   77MOL0     O10079   1.583   4.138   5.712 -0.0204  0.3598 -0.7161
   77MOL0     C10080   1.873   4.299   5.835  0.5214 -0.2617 -0.2472
   77MOL0     C10081   2.009   4.306   5.810  0.2419  0.0913  0.6916
   77MOL0     N10082   2.134   4.698   5.354  0.7709 -0.1648  0.6220
   77MOL0     N10083   2.018   4.737   5.409  0.0672  0.1356  0.1293
   77MOL0     C10084   1.131   5.267   6.155  0.3948 -0.1509 -0.2773
   77MOL0     C10085   1.004   5.237   6.213  0.6496 -0.1770  0.7288
   77MOL0     C10086   0.589   5.091   6.292 -0.5667  0.5029  0.2650
   77MOL0     C10087   0.504   5.126   6.405  0.7513 -0.2625  0.2122
   77MOL0     C10088   0.388   5.046   6.423 -1.2890 -0.5872 -0.1845
   77MOL0     C10089   0.341   4.955   6.330  0.4302 -0.7308  0.2195
   77MOL0     O10090   0.226   4.886   6.342  0.8624 -0.1398 -0.7611
   77MOL0     C10091   0.132   4.926   6.444  0.9667 -0.1382  0.0074
   77MOL0     C10092   0.056   5.054   6.407 -0.3259  0.3174 -0.2156
   77MOL0     C10093  -0.075   5.083   6.485  0.1560 -0.0105 -0.4194
   77MOL0     C10094  -0.198   5.035   6.403 -0.5914 -0.1233 -0.5295
   77MOL0     C10095  -0.328   5.060   6.474 -0.4364 -0.2340  0.5082
   77MOL0     C10096  -0.429   5.096   6.517  0.1809 -0.7316  0.5707
   77MOL0     C10097   0.420   4.941   6.215 -0.6844  1.4943  0.2105
   77MOL0     C10098   0.537   5.009   6.191 -0.2828  0.4287  0.4624
   77MOL0     H10099   0.932   4.995   5.971 -0.5127  0.9328 -0.5310
   77MOL0     H10100   1.124   5.096   5.863 -1.5370  0.0606 -0.3580
   77MOL0     H10101   1.453   5.265   5.854 -0.1674  0.8815  0.9948
   77MOL0     H10102   1.313   5.161   5.797 -0.4516 -3.0738  0.9305
   77MOL0     H10103   1.366   4.993   5.955  0.9586  0.5916 -0.1267
   77MOL0     H10104   1.475   5.083   6.040  1.5258  0.7651 -1.1145
   77MOL0     H10105   1.638   5.093   5.866  0.1748  0.4247 -0.6365
   77MOL0     H10106   1.529   5.039   5.744  0.2782 -1.6157 -0.2078
   77MOL0     H10107   1.598   4.850   5.966 -1.1950 -0.6502  0.1430
   77MOL0     H10108   1.508   4.813   5.815  1.7868  0.2453 -2.0325
   77MOL0     H10109   1.798   4.907   5.841 -1.7488  0.6522  1.1769
   77MOL0     H10110   1.700   4.864   5.685 -2.8640 -2.0661 -0.6576
   77MOL0     H10111   1.666   4.629   5.771  1.0045 -1.1259 -1.6937
   77MOL0     H10112   1.776   4.672   5.905 -1.0934 -1.8440  0.2100
   77MOL0     H10113   1.951   4.728   5.726 -1.5665  2.2528  1.4198
   77MOL0     H10114   1.907   4.551   5.737  1.4187 -0.3479 -4.7594
   77MOL0     H10115   1.779   4.713   5.526 -0.0868 -0.9836 -1.1798
   77MOL0     H10116   1.783   4.548   5.542 -2.5860  2.9647 -0.8830
   77MOL0     H10117   2.076   4.438   5.538  3.9975 -0.6222 -1.5115
   77MOL0     H10118   2.346   4.551   5.293 -2.3439  0.8643 -1.1825
   77MOL0     H10119   2.256   4.399   5.320  0.9981  0.4700 -0.8348
   77MOL0     H10120   2.361   4.517   5.565 -0.2538 -1.0542  1.7865
   77MOL0     H10121   2.479   4.472   5.463  1.5515 -1.8664  1.7711
   77MOL0     H10122   2.430   4.232   5.448  1.7166 -0.5689  0.9404
   77MOL0     H10123   2.438   4.273   5.616 -2.5786  0.2525  0.8171
   77MOL0     H10124   2.262   4.108   5.550  0.1974 -0.4977 -1.2252
   77MOL0     H10125   2.178   4.247   5.469 -0.0012  1.3304 -0.1658
   77MOL0     H10126   2.018   4.058   5.557  1.6537  0.6433 -0.2136
   77MOL0     H10127   1.793   4.061   5.614  3.5535 -2.1404 -0.3652
   77MOL0     H10128   1.407   4.369   5.710  0.8919  2.7671  1.0456
   77MOL0     H10129   1.150   4.364   5.760 -1.2850  0.7488  0.4957
   77MOL0     H10130   0.989   4.313   6.161 -1.2135  1.1201 -0.7438
   77MOL0     H10131   0.987   4.141   6.101 -0.2141  0.6016  3.2758
   77MOL0     H10132   0.819   4.210   5.934 -1.3865  0.9236 -0.5087
   77MOL0     H10133   0.809   4.371   6.005 -0.2182 -0.9778 -0.7224
   77MOL0     H10134   0.755   4.273   6.222 -1.2678 -0.3985  0.6573
   77MOL0     H10135   0.695   4.129   6.132  1.2018 -0.2704  1.0759
   77MOL0     H10136   0.576   4.398   6.059 -0.8492  0.9418  2.7391
   77MOL0     H10137   0.525   4.232   6.014 -0.4552  0.9551 -0.1081
   77MOL0     H10138   0.518   4.313   6.307 -1.3795 -1.1295  1.2199
   77MOL0     H10139   0.441   4.186   6.224  0.5984 -0.6363  1.2851
   77MOL0     H10140   0.313   4.346   6.078  2.9520 -1.0592 -0.0966
   77MOL0     H10141   0.381   4.481   6.171 -1.7820  0.3563 -0.2138
   77MOL0     H10142   0.232   4.246   6.299  4.4693 -0.1187 -1.1868
   77MOL0     H10143   0.278   4.395   6.377  0.6016  0.4927  0.2686
   77MOL0     H10144   0.045   4.415   6.341  2.3854  2.8164  1.4263
   77MOL0     H10145   0.054   4.382   6.169  2.0212 -1.4047 -1.1422
   77MOL0     H10146   1.238   4.200   6.143 -1.3776 -1.2181 -0.5995
   77MOL0     H10147   1.474   4.175   6.094  0.6388  0.8947  0.0215
   77MOL0     H10148   1.839   4.356   5.920  1.2708 -0.9455  0.5237
   77MOL0     H10149   2.068   4.365   5.879 -1.4317  2.1172  0.4657
   77MOL0     H10150   1.204   5.324   6.212 -0.5852  0.7419  0.1312
   77MOL0     H10151   0.969   5.297   6.297 -0.0304 -0.0740  0.3779
   77MOL0     H10152   0.529   5.193   6.487  0.9195 -0.4870  0.3459
   77MOL0     H10153   0.339   5.057   6.519  0.0779  1.7401  0.3272
   77MOL0     H10154   0.170   4.923   6.546  3.3434  2.3014 -0.6926
   77MOL0     H10155   0.059   4.845   6.442  1.9170 -1.0102 -2.1246
   77MOL0     H10156   0.124   5.138   6.425  0.7356 -0.3330 -1.0881
   77MOL0     H10157   0.033   5.052   6.300 -0.6684  2.7720 -0.2507
   77MOL0     H10158  -0.081   5.192   6.488 -3.4910  0.0205 -2.2484
   77MOL0     H10159  -0.063   5.037   6.583  0.8767  1.6925  0.3309
   77MOL0     H10160  -0.193   5.084   6.305  3.3206 -0.2632 -0.5810
   77MOL0     H10161  -0.192   4.927   6.387 -1.2528  0.0487 -2.0881
   77MOL0     H10162  -0.527   5.123   6.550  0.5444  0.5955  0.6024
   77MOL0     H10163   0.380   4.871   6.142 -1.3379 -0.1531  2.0483
   77MOL0     H10164   0.597   4.988   6.103 -1.9908 -0.8784 -0.4581
   78MOL0     O10165   6.500   7.423   7.006 -0.1161 -0.2332 -0.1697
   78MOL0     C10166   6.492   7.429   6.884  0.1705  0.3163 -0.0122
   78MOL0     O10167   6.372   7.406   6.811 -1.0092  0.0527 -0.0217
   78MOL0     C10168   6.260   7.371   6.879  0.2993  0.7762  0.4064
   78MOL0     C10169   6.148   7.451   6.907  0.1198 -0.0483  0.0311
   78MOL0     C10170   6.030   7.393   6.972  0.6830 -0.6092  0.3196
   78MOL0     C10171   6.026   7.261   7.012  0.6405 -0.5602  0.3367
   78MOL0     O10172   5.899   7.223   7.067 -0.6842  1.2733 -0.2752
   78MOL0     C10173   5.876   7.084   7.097 -0.1077  0.0623  0.3785
   78MOL0     C10174   5.793   7.017   6.995  0.8979  0.0997  0.2176
   78MOL0     C10175   5.761   6.878   7.040  0.3396  0.3289  0.7087
   78MOL0     C10176   5.723   6.765   6.940 -0.5618 -0.4274  0.4210
   78MOL0     C10177   5.581   6.785   6.884 -0.0769  0.2076 -0.6109
   78MOL0     C10178   5.468   6.732   6.977  0.0525 -0.1516  0.1009
   78MOL0     C10179   5.336   6.795   6.942  0.6219  0.3115 -0.5184
   78MOL0     C10180   5.226   6.733   7.025 -0.7247 -0.4189  0.6222
   78MOL0     N10181   5.120   6.839   7.024 -0.9608  0.4832  0.0744
   78MOL0     C10182   5.021   6.854   6.932  0.0653 -0.4312  0.1052
   78MOL0     C10183   4.930   6.936   6.987 -0.6662 -0.6781  0.0041
   78MOL0     C10184   4.800   6.965   6.927  0.6103 -0.2408  0.2632
   78MOL0     C10185   4.716   6.841   6.934  0.5731  0.8057 -0.3188
   78MOL0     C10186   4.604   6.853   6.827 -0.1665  0.4236  0.6757
   78MOL0     C10187   4.500   6.729   6.829 -0.1278  0.2807  1.1473
   78MOL0     O10188   4.431   6.713   6.704  0.2460  0.0853 -0.2262
   78MOL0     C10189   4.327   6.624   6.707 -0.1682 -0.3464  0.1819
   78MOL0     C10190   4.247   6.617   6.592 -0.1646 -0.1473 -0.6283
   78MOL0     C10191   4.148   6.518   6.574 -0.7461 -0.0930  0.2977
   78MOL0     C10192   4.119   6.426   6.672  0.2080 -0.1510  0.7064
   78MOL0     C10193   4.002   6.334   6.669  0.1378  0.8457 -0.1388
   78MOL0     O10194   3.947   6.317   6.545  0.1631  0.3947 -0.0732
   78MOL0     C10195   3.812   6.295   6.547  0.6934 -0.7037 -0.6186
   78MOL0     C10196   3.710   6.370   6.615  0.6046 -0.3521 -0.8300
   78MOL0     C10197   3.575   6.337   6.617 -0.6799  0.1884 -0.0065
   78MOL0     C10198   3.534   6.231   6.538 -0.6543 -0.3738 -0.0406
   78MOL0     O10199   3.401   6.214   6.522 -0.2044 -0.2547  0.5842
   78MOL0     C10200   3.336   6.166   6.399 -0.2348  0.6910  0.2669
   78MOL0     C10201   3.193   6.213   6.398  0.8464 -0.3056 -0.8074
   78MOL0     C10202   3.095   6.145   6.490  0.5058 -0.4855 -0.6775
   78MOL0     C10203   3.035   6.010   6.454  0.5606  0.6240  0.0513
   78MOL0     C10204   2.974   5.946   6.579 -0.0552 -0.3502 -0.5603
   78MOL0     C10205   2.881   5.826   6.543 -0.2133  0.3359 -0.8375
   78MOL0     C10206   2.829   5.761   6.675 -0.0466  0.3090 -0.1086
   78MOL0     C10207   2.751   5.629   6.654  0.3661  0.0946  0.0301
   78MOL0    Cl10208   2.632   5.629   6.523  0.5762  0.2069  0.1925
   78MOL0     C10209   3.629   6.151   6.473 -0.5223 -0.2380 -0.0146
   78MOL0     C10210   3.766   6.184   6.475 -0.3853  0.0986 -0.0956
   78MOL0     O10211   3.954   6.287   6.775 -0.3640  0.2798  0.2362
   78MOL0     C10212   4.191   6.441   6.793 -0.1759 -0.3493  0.0106
   78MOL0     C10213   4.304   6.528   6.800  0.2180  0.0451  0.4275
   78MOL0     N10214   4.969   6.963   7.122  0.8529  0.6956 -0.1118
   78MOL0     N10215   5.079   6.896   7.140  0.5272 -0.1546  0.1553
   78MOL0     C10216   6.147   7.191   6.998  0.5208  0.4306 -0.7228
   78MOL0     C10217   6.261   7.242   6.929  0.2025 -0.4539  0.8306
   78MOL0     C10218   6.604   7.478   6.809  1.1596 -0.5164 -0.7283
   78MOL0     C10219   6.614   7.445   6.672 -0.9958 -0.7170  0.1238
   78MOL0     C10220   6.734   7.472   6.605 -0.5084 -0.2752  0.6511
   78MOL0     C10221   6.842   7.536   6.673  0.3355 -0.4515  0.5473
   78MOL0     O10222   6.958   7.542   6.593  0.4912 -0.1368 -0.1873
   78MOL0     C10223   7.065   7.635   6.631 -0.0604 -0.0013 -0.2440
   78MOL0     C10224   7.157   7.654   6.510 -0.3222 -0.2801 -0.2461
   78MOL0     C10225   7.230   7.531   6.445  0.3229 -0.4875  0.1577
   78MOL0     C10226   7.314   7.579   6.328 -0.1344  0.6677  0.0351
   78MOL0     C10227   7.428   7.651   6.380 -0.2193  0.1288 -0.5571
   78MOL0     C10228   7.518   7.722   6.416  0.4254  0.4773 -0.1708
   78MOL0     C10229   6.824   7.576   6.801 -0.0306  0.4193  0.7218
   78MOL0     C10230   6.707   7.552   6.875  0.1421  0.2363 -0.3318
   78MOL0     H10231   6.141   7.552   6.869  1.0669 -0.1259 -0.3763
   78MOL0     H10232   5.941   7.455   6.974  1.2261  0.4259 -2.5818
   78MOL0     H10233   5.824   7.091   7.192  1.6741 -0.9856  1.4885
   78MOL0     H10234   5.966   7.022   7.103 -0.8276 -1.0435  0.0454
   78MOL0     H10235   5.844   7.010   6.898  1.3895 -1.8486  0.5737
   78MOL0     H10236   5.699   7.072   6.988  0.6459 -0.5093 -2.1996
   78MOL0     H10237   5.701   6.892   7.131 -1.0092  1.4536 -0.2998
   78MOL0     H10238   5.847   6.834   7.090  0.3001  0.1647  0.6336
   78MOL0     H10239   5.786   6.773   6.851 -2.4593  0.9267 -0.8793
   78MOL0     H10240   5.738   6.666   6.984  0.2365 -0.8899 -0.8418
   78MOL0     H10241   5.573   6.742   6.784 -1.0839 -0.7830 -0.1260
   78MOL0     H10242   5.565   6.892   6.871 -0.4218  0.1789 -0.4325
   78MOL0     H10243   5.497   6.754   7.080  4.4262 -3.6072 -0.0900
   78MOL0     H10244   5.459   6.623   6.964 -0.8117  0.2848 -4.3266
   78MOL0     H10245   5.341   6.904   6.944 -1.3458  0.4818 -2.0446
   78MOL0     H10246   5.312   6.773   6.838 -2.0563  1.6547 -0.2577
   78MOL0     H10247   5.261   6.721   7.127 -0.3095  2.4640  0.8961
   78MOL0     H10248   5.196   6.638   6.981 -2.6572  0.7305 -0.7089
   78MOL0     H10249   5.016   6.812   6.832 -2.1000 -1.1922  0.4799
   78MOL0     H10250   4.831   6.985   6.824  2.7530 -2.7545  0.3005
   78MOL0     H10251   4.749   7.052   6.968  2.4340  2.3608 -2.5979
   78MOL0     H10252   4.661   6.839   7.029  0.3846 -1.0124 -0.4372
   78MOL0     H10253   4.775   6.751   6.914  2.3744  1.9974 -0.6305
   78MOL0     H10254   4.552   6.948   6.836  1.0844  1.0985  1.0546
   78MOL0     H10255   4.655   6.852   6.730 -2.0999  1.8234 -0.4235
   78MOL0     H10256   4.436   6.753   6.914 -0.7632 -1.3664  1.1527
   78MOL0     H10257   4.553   6.635   6.846 -0.8406 -0.1779  0.8593
   78MOL0     H10258   4.276   6.676   6.506 -0.7627  1.1228  0.0097
   78MOL0     H10259   4.092   6.531   6.482 -0.3770 -0.3521  0.0343
   78MOL0     H10260   3.741   6.446   6.686  2.7254 -0.7218 -1.2927
   78MOL0     H10261   3.495   6.393   6.663 -0.5723  0.1151  0.2719
   78MOL0     H10262   3.343   6.057   6.404  0.3973  0.7566  4.3747
   78MOL0     H10263   3.388   6.207   6.312 -2.6858  1.6911 -0.8114
   78MOL0     H10264   3.163   6.200   6.293  1.1216  2.2401 -1.2617
   78MOL0     H10265   3.181   6.321   6.412 -3.9892 -0.6102 -1.1277
   78MOL0     H10266   3.006   6.208   6.484  0.4028 -0.7756 -3.3174
   78MOL0     H10267   3.137   6.138   6.590  1.7913  1.6908 -0.9990
   78MOL0     H10268   2.950   6.015   6.385 -1.6781 -1.5002  2.4487
   78MOL0     H10269   3.115   5.943   6.419  0.1127  0.8954 -1.5773
   78MOL0     H10270   2.911   6.011   6.640 -3.4715 -2.9905 -0.9934
   78MOL0     H10271   3.045   5.899   6.646 -2.2334 -1.1035  1.3440
   78MOL0     H10272   2.940   5.748   6.494  0.7901  1.0253 -0.7396
   78MOL0     H10273   2.798   5.853   6.477 -0.2549  1.5347 -0.3166
   78MOL0     H10274   2.904   5.753   6.754  0.4152  1.3045 -0.4306
   78MOL0     H10275   2.757   5.837   6.708 -1.6117 -0.4775 -1.5650
   78MOL0     H10276   2.698   5.602   6.746  0.9667  1.5207  0.8333
   78MOL0     H10277   2.827   5.554   6.631 -0.4994 -0.2756 -1.8533
   78MOL0     H10278   3.599   6.069   6.409  1.8372 -2.1628  1.1958
   78MOL0     H10279   3.843   6.123   6.427 -0.2939 -0.9858  1.3727
   78MOL0     H10280   4.173   6.370   6.873 -1.2781  0.2914  0.3482
   78MOL0     H10281   4.361   6.520   6.892  1.1638  0.0700 -0.1402
   78MOL0     H10282   6.148   7.085   7.022 -3.2744 -0.3575 -3.0780
   78MOL0     H10283   6.340   7.168   6.916 -1.0071 -1.4286 -1.5980
   78MOL0     H10284   6.537   7.388   6.621 -2.8202  0.0999  1.8228
   78MOL0     H10285   6.739   7.443   6.501 -4.7035  2.8897 -0.7003
   78MOL0     H10286   7.117   7.598   6.719 -1.9627  1.2031  1.4640
   78MOL0     H10287   7.021   7.733   6.648  0.3098  0.1815 -0.3296
   78MOL0     H10288   7.092   7.698   6.433 -0.0465  0.7918  0.1117
   78MOL0     H10289   7.228   7.733   6.537 -1.0232 -0.1810  1.3982
   78MOL0     H10290   7.160   7.456   6.408  0.4151  0.3578 -1.8443
   78MOL0     H10291   7.302   7.485   6.514  0.5827  0.9833  0.8943
   78MOL0     H10292   7.352   7.492   6.274 -0.0142  0.9870 -0.3970
   78MOL0     H10293   7.254   7.639   6.259  2.6607  0.5035 -2.7124
   78MOL0     H10294   7.583   7.797   6.457  2.7397 -1.1444 -0.6787
   78MOL0     H10295   6.905   7.622   6.857 -0.1078  1.8857 -0.3004
   78MOL0     H10296   6.690   7.585   6.978  1.7229 -0.6669  0.2411
   79MOL0     O10297  10.107   5.035   6.204 -0.2037 -0.5279 -0.0956
   79MOL0     C10298  10.188   5.110   6.256 -0.5116 -0.6039  0.2027
   79MOL0     O10299  10.156   5.222   6.321 -0.0109 -0.0692 -0.5876
   79MOL0     C10300  10.028   5.285   6.315  0.1906  0.3833 -1.0346
   79MOL0     C10301   9.933   5.249   6.220  0.1932 -0.5692 -0.0241
   79MOL0     C10302   9.808   5.305   6.234  0.5349 -0.0641  0.3476
   79MOL0     C10303   9.781   5.407   6.334 -0.0612 -0.6456 -0.4243
   79MOL0     O10304   9.669   5.478   6.361  0.5222  0.2394 -0.0985
   79MOL0     C10305   9.570   5.481   6.260  0.5474  0.4972 -0.1708
   79MOL0     C10306   9.470   5.366   6.274 -0.1434  0.3389  0.6274
   79MOL0     C10307   9.370   5.362   6.161 -0.2881  0.3211  0.3720
   79MOL0     C10308   9.294   5.496   6.133 -0.2391 -0.4924 -0.3570
   79MOL0     C10309   9.166   5.459   6.049  0.3356 -0.6961 -0.6087
   79MOL0     C10310   9.077   5.575   6.003 -0.1768 -0.2046  0.0464
   79MOL0     C10311   9.158   5.642   5.887 -0.3428 -0.1903  0.3046
   79MOL0     C10312   9.059   5.745   5.809 -0.7195 -0.8168 -0.1695
   79MOL0     N10313   8.924   5.705   5.792 -0.0298  1.0246 -0.1466
   79MOL0     C10314   8.822   5.789   5.810 -0.2448 -0.3113 -0.3732
   79MOL0     C10315   8.723   5.754   5.721 -0.7325 -0.4885  0.9658
   79MOL0     C10316   8.587   5.826   5.713  0.6055  0.5586 -1.0035
   79MOL0     C10317   8.520   5.808   5.850  0.1484 -0.6497 -0.0105
   79MOL0     C10318   8.413   5.918   5.891 -0.4358  0.3592  0.3412
   79MOL0     C10319   8.298   5.856   5.982  0.0141  0.3999 -0.1298
   79MOL0     O10320   8.204   5.966   6.000 -0.2993 -0.6020 -0.2572
   79MOL0     C10321   8.080   5.945   5.943 -0.1877 -0.4491 -0.7200
   79MOL0     C10322   7.966   5.946   6.027 -0.0129  0.5073  0.6435
   79MOL0     C10323   7.837   5.931   5.987 -0.1916  1.4662  1.1136
   79MOL0     C10324   7.816   5.895   5.846 -0.5119 -0.2955  0.7487
   79MOL0     C10325   7.680   5.867   5.791 -0.5489 -0.1630  0.0759
   79MOL0     O10326   7.580   5.879   5.878  0.3676 -0.5153 -0.0897
   79MOL0     C10327   7.447   5.852   5.849 -0.3213 -0.5554  0.1903
   79MOL0     C10328   7.366   5.776   5.932  0.5523  0.5597 -0.3556
   79MOL0     C10329   7.234   5.736   5.891 -0.6263  1.2680 -0.5437
   79MOL0     C10330   7.185   5.767   5.772  0.2344 -0.0773 -0.3977
   79MOL0     O10331   7.069   5.711   5.735  1.0552  0.4788 -0.1014
   79MOL0     C10332   7.039   5.669   5.593  0.3642  0.1844  0.1901
   79MOL0     C10333   6.990   5.528   5.596  0.2572 -0.0660  0.3278
   79MOL0     C10334   6.848   5.531   5.650  0.7436  0.8518 -0.1908
   79MOL0     C10335   6.800   5.389   5.645  0.1351 -0.2849 -0.0143
   79MOL0     C10336   6.650   5.362   5.675 -0.0296 -0.1650  0.3646
   79MOL0     C10337   6.616   5.215   5.712 -0.0348 -0.3468  0.3798
   79MOL0     C10338   6.468   5.219   5.748 -0.0894  0.5379  1.1202
   79MOL0     C10339   6.425   5.070   5.761 -0.2187 -0.0939  0.2730
   79MOL0    Cl10340   6.503   5.007   5.918 -0.0047 -0.1471  0.4776
   79MOL0     C10341   7.260   5.843   5.692  0.2841  0.0258 -0.2716
   79MOL0     C10342   7.390   5.891   5.724 -0.3842 -0.1090  0.1265
   79MOL0     O10343   7.670   5.833   5.674 -0.0120  0.0273 -0.4740
   79MOL0     C10344   7.931   5.899   5.766 -0.2359  0.4636  0.8347
   79MOL0     C10345   8.058   5.925   5.806  0.9212 -0.6832  0.0506
   79MOL0     N10346   8.763   5.636   5.662 -0.3299  0.2864  0.1376
   79MOL0     N10347   8.887   5.610   5.701 -1.3730 -0.1648  0.4944
   79MOL0     C10348   9.884   5.456   6.414 -0.8089 -0.6955  0.2795
   79MOL0     C10349  10.003   5.383   6.410  0.0593 -0.6125  0.0365
   79MOL0     C10350  10.334   5.092   6.232  0.1569 -0.4198 -0.5860
   79MOL0     C10351  10.367   4.968   6.165 -0.3784 -0.3566  0.2132
   79MOL0     C10352  10.502   4.938   6.132 -1.0229  0.0637 -0.0400
   79MOL0     C10353  10.605   5.019   6.178  0.5167 -0.8277  0.2502
   79MOL0     O10354  10.739   5.003   6.162  0.3798  0.8427  0.3072
   79MOL0     C10355  10.765   4.873   6.098  0.4106 -0.5206  1.0500
   79MOL0     C10356  10.912   4.857   6.069  0.5610  0.9031  0.1149
   79MOL0     C10357  10.962   4.713   6.036 -0.0120  0.0268  0.5563
   79MOL0     C10358  11.111   4.721   6.010 -0.0665  0.1214 -0.8544
   79MOL0     C10359  11.157   4.807   5.905  0.5251 -0.8920 -0.1301
   79MOL0     C10360  11.212   4.893   5.843  0.9781  0.1669 -0.3384
   79MOL0     C10361  10.572   5.136   6.247 -0.6916  0.4699 -0.0226
   79MOL0     C10362  10.440   5.171   6.277  0.5626  0.3650  0.6340
   79MOL0     H10363   9.952   5.189   6.131  0.3378  0.6069 -0.7992
   79MOL0     H10364   9.735   5.261   6.168  1.0659 -0.6958  0.1787
   79MOL0     H10365   9.604   5.491   6.157  2.3744  2.4018  0.5451
   79MOL0     H10366   9.507   5.570   6.271 -1.4408 -0.8641  0.1867
   79MOL0     H10367   9.429   5.375   6.375 -1.8197 -0.4122  0.0647
   79MOL0     H10368   9.526   5.273   6.268 -0.8582 -0.0515 -0.5598
   79MOL0     H10369   9.305   5.273   6.164  0.0424 -0.1051 -2.5650
   79MOL0     H10370   9.430   5.330   6.075  0.6295  0.9478  0.7630
   79MOL0     H10371   9.256   5.544   6.224 -0.0653  0.8000 -0.9373
   79MOL0     H10372   9.354   5.569   6.077 -2.4594  3.2203  1.6734
   79MOL0     H10373   9.109   5.400   6.121  2.3965 -1.9501  0.0903
   79MOL0     H10374   9.192   5.392   5.966  1.2668 -0.8064 -0.2378
   79MOL0     H10375   9.050   5.640   6.088 -0.1464 -1.1855  0.8286
   79MOL0     H10376   8.977   5.543   5.972 -1.0196  1.6998  0.6315
   79MOL0     H10377   9.244   5.695   5.931 -1.2383 -0.0510  1.9714
   79MOL0     H10378   9.192   5.570   5.813  0.9085 -0.3244  0.9729
   79MOL0     H10379   9.108   5.757   5.712  0.7697 -3.7008  0.1181
   79MOL0     H10380   9.059   5.841   5.862  0.9273 -1.3706  0.8929
   79MOL0     H10381   8.814   5.870   5.881  0.3113  0.3703 -1.0773
   79MOL0     H10382   8.526   5.786   5.632 -0.9637 -2.1545  1.3304
   79MOL0     H10383   8.609   5.932   5.697  0.7879  0.2977 -2.6259
   79MOL0     H10384   8.593   5.802   5.931 -2.2822  1.7072  2.5686
   79MOL0     H10385   8.464   5.715   5.838  1.8769 -1.4212 -3.7862
   79MOL0     H10386   8.459   5.996   5.952  2.2727 -0.0716 -0.9651
   79MOL0     H10387   8.384   5.966   5.797  2.1454 -0.0064 -0.7383
   79MOL0     H10388   8.334   5.838   6.084  3.2182  0.1102 -1.2007
   79MOL0     H10389   8.243   5.770   5.941 -1.3409  1.1492  0.0719
   79MOL0     H10390   7.993   5.962   6.131  4.4255 -3.3827  0.4271
   79MOL0     H10391   7.757   5.921   6.059 -0.6371 -1.9733  0.3305
   79MOL0     H10392   7.410   5.728   6.019  0.3882  0.4865 -0.3142
   79MOL0     H10393   7.192   5.667   5.964  3.1904  1.0320  1.7165
   79MOL0     H10394   7.129   5.662   5.531 -0.5966 -1.8385 -1.0657
   79MOL0     H10395   6.975   5.741   5.541 -0.7441 -0.8058  0.1568
   79MOL0     H10396   7.066   5.467   5.645 -0.0779 -1.4010 -0.7612
   79MOL0     H10397   6.997   5.494   5.492  2.6552  2.9844 -0.6351
   79MOL0     H10398   6.784   5.601   5.596 -0.7710 -0.2906  0.0512
   79MOL0     H10399   6.855   5.559   5.756  0.2437  0.6995 -0.1132
   79MOL0     H10400   6.827   5.345   5.549 -1.4093 -0.1867 -0.5196
   79MOL0     H10401   6.854   5.339   5.727 -1.4890  0.2699  1.4586
   79MOL0     H10402   6.584   5.398   5.596 -1.5884 -0.1452  1.6277
   79MOL0     H10403   6.625   5.421   5.764  1.1505  0.5123  0.2791
   79MOL0     H10404   6.677   5.191   5.799  0.2826  0.8540  0.5028
   79MOL0     H10405   6.646   5.147   5.632 -0.0313  0.0922  0.0019
   79MOL0     H10406   6.446   5.271   5.842  0.2067  2.4636  0.1645
   79MOL0     H10407   6.417   5.279   5.672 -1.9191  1.8503  3.2482
   79MOL0     H10408   6.459   5.011   5.676  0.8673  2.8938 -1.5159
   79MOL0     H10409   6.316   5.072   5.766 -0.3340 -1.6207 -0.9562
   79MOL0     H10410   7.228   5.861   5.589 -1.7344 -2.2007 -0.1313
   79MOL0     H10411   7.439   5.963   5.659 -2.2445  0.1847 -1.0117
   79MOL0     H10412   7.909   5.873   5.663 -1.6145  2.2944  0.6114
   79MOL0     H10413   8.144   5.956   5.746  0.3270  2.5491  0.6596
   79MOL0     H10414   9.855   5.528   6.490 -0.6157 -3.2810  3.0408
   79MOL0     H10415  10.069   5.392   6.496  1.7191 -1.0117 -1.1479
   79MOL0     H10416  10.292   4.900   6.126 -0.0819 -1.1772  1.0421
   79MOL0     H10417  10.515   4.844   6.079 -1.1100  0.8667 -1.5620
   79MOL0     H10418  10.719   4.876   5.999  2.0576 -1.0063  0.2276
   79MOL0     H10419  10.724   4.788   6.153 -3.3554 -2.0106 -3.3777
   79MOL0     H10420  10.937   4.928   5.989 -1.2986  0.9277 -0.4826
   79MOL0     H10421  10.970   4.883   6.158 -0.1799 -1.0382  1.2365
   79MOL0     H10422  10.912   4.691   5.941  2.7723  0.8660 -1.2353
   79MOL0     H10423  10.939   4.638   6.112 -0.3255  0.4745  0.9067
   79MOL0     H10424  11.144   4.767   6.104 -2.5910  0.3816 -0.0067
   79MOL0     H10425  11.158   4.625   5.986  0.2722  0.6223 -2.2650
   79MOL0     H10426  11.260   4.973   5.791  2.2090 -0.7885 -0.7359
   79MOL0     H10427  10.655   5.198   6.277 -1.9086  1.4355  1.5120
   79MOL0     H10428  10.429   5.261   6.337 -0.9007 -0.2164  1.2891
   80MOL0     O10429   2.189   1.512   9.715  0.1451 -0.4334  0.8634
   80MOL0     C10430   2.257   1.491   9.817 -0.3109  0.0961  0.3073
   80MOL0     O10431   2.206   1.456   9.934 -0.4263  0.0916 -0.0476
   80MOL0     C10432   2.073   1.417   9.949 -0.1835  0.1747 -0.2173
   80MOL0     C10433   1.966   1.486   9.898 -0.2724  0.0406  0.1089
   80MOL0     C10434   1.838   1.442   9.927 -0.0060  0.8050  0.1568
   80MOL0     C10435   1.809   1.330  10.002 -0.6981 -0.2716 -0.0704
   80MOL0     O10436   1.685   1.287  10.014  0.1247 -0.0479 -0.1973
   80MOL0     C10437   1.655   1.148  10.046 -0.6235 -0.1547  0.2508
   80MOL0     C10438   1.508   1.121  10.010 -0.7622  0.3438 -0.4276
   80MOL0     C10439   1.406   1.181  10.107 -0.1185 -0.0630 -0.1263
   80MOL0     C10440   1.263   1.142  10.065 -0.0878 -0.1309 -0.8617
   80MOL0     C10441   1.147   1.237  10.109  0.6305  0.2753 -0.7800
   80MOL0     C10442   1.021   1.181  10.055  0.3716 -0.3455  0.0188
   80MOL0     C10443   0.892   1.254  10.095  0.0947  0.4831  0.2432
   80MOL0     C10444   0.781   1.176  10.034  0.7026 -0.5412  0.4659
   80MOL0     N10445   0.649   1.211  10.077 -0.0221 -0.7041 -0.1378
   80MOL0     C10446   0.595   1.171  10.200 -0.5860 -0.1227 -0.5611
   80MOL0     C10447   0.479   1.241  10.212 -0.5377 -0.0803 -0.4055
   80MOL0     C10448   0.380   1.257  10.314  0.7207 -0.2630  0.2144
   80MOL0     C10449   0.251   1.171  10.290 -0.4676  0.3613  0.0774
   80MOL0     C10450   0.269   1.032  10.346  0.4530 -0.0137  0.1096
   80MOL0     C10451   0.151   0.927  10.358  0.0942 -0.9401  0.0015
   80MOL0     O10452   0.071   0.959  10.247  0.1445  0.2817  0.0890
   80MOL0     C10453  -0.063   0.930  10.251  0.2195 -0.3793 -0.4305
   80MOL0     C10454  -0.111   0.836  10.171  0.0063 -0.4086 -0.7533
   80MOL0     C10455  -0.254   0.807  10.174 -0.6510  0.0587 -0.0834
   80MOL0     C10456  -0.344   0.885  10.239 -0.1158  0.2246 -1.1837
   80MOL0     C10457  -0.490   0.861  10.245  0.8020 -0.3793 -0.6411
   80MOL0     O10458  -0.574   0.933  10.321  0.3998  0.0242  0.6908
   80MOL0     C10459  -0.707   0.899  10.347 -0.3634  0.2360  0.8575
   80MOL0     C10460  -0.773   0.974  10.442 -1.0394 -0.6135 -0.1341
   80MOL0     C10461  -0.904   0.957  10.471  0.2597 -0.0269 -0.0065
   80MOL0     C10462  -0.988   0.867  10.398 -0.3791  0.1671 -0.3718
   80MOL0     O10463  -1.125   0.858  10.427 -0.1157 -0.0094 -0.2144
   80MOL0     C10464  -1.208   0.807  10.319  0.5213  0.5106  0.0535
   80MOL0     C10465  -1.346   0.774  10.381  0.1180 -0.3430 -0.7437
   80MOL0     C10466  -1.330   0.689  10.513 -0.3751  0.0932  0.2979
   80MOL0     C10467  -1.452   0.615  10.568 -0.2380  0.1030 -0.2792
   80MOL0     C10468  -1.575   0.707  10.596 -0.0144 -0.5529  0.4962
   80MOL0     C10469  -1.689   0.616  10.626  0.6430  0.4699  0.3970
   80MOL0     C10470  -1.809   0.704  10.668  0.7026 -0.1637  0.4719
   80MOL0     C10471  -1.887   0.768  10.550  0.3436  0.5581 -0.7955
   80MOL0    Cl10472  -1.793   0.897  10.459 -0.0215 -0.0391  0.0096
   80MOL0     C10473  -0.920   0.791  10.304  0.4619 -0.3424 -0.0187
   80MOL0     C10474  -0.788   0.808  10.278 -0.3704  0.6388  0.4138
   80MOL0     O10475  -0.520   0.760  10.178  0.1476 -0.5263 -0.1661
   80MOL0     C10476  -0.288   0.984  10.320 -0.0294  0.2006 -0.4942
   80MOL0     C10477  -0.150   1.007  10.328 -0.0656  0.0018  0.2442
   80MOL0     N10478   0.471   1.327  10.100 -0.1267 -0.2201  0.4668
   80MOL0     N10479   0.569   1.306  10.016 -0.1982  1.0915 -0.4354
   80MOL0     C10480   1.921   1.265  10.061  0.2415 -0.1121 -0.1453
   80MOL0     C10481   2.049   1.309  10.025  0.1757 -0.2433  0.2992
   80MOL0     C10482   2.406   1.518   9.822 -0.1381  0.5807  0.5265
   80MOL0     C10483   2.481   1.464   9.931 -0.3868  0.5470 -1.1606
   80MOL0     C10484   2.619   1.466   9.932  0.0678 -0.1560  0.1707
   80MOL0     C10485   2.686   1.518   9.821 -0.7598 -0.3200  0.9261
   80MOL0     O10486   2.824   1.501   9.818 -0.1027 -0.9064 -0.6334
   80MOL0     C10487   2.912   1.584   9.738  0.3193  0.6117 -0.1942
   80MOL0     C10488   3.059   1.541   9.760 -1.3992  0.4504 -0.1443
   80MOL0     C10489   3.149   1.628   9.671 -0.0127  0.2967 -0.5981
   80MOL0     C10490   3.284   1.565   9.646  0.3858  0.6745 -0.0148
   80MOL0     C10491   3.335   1.457   9.737  0.0622  0.4739  0.0607
   80MOL0     C10492   3.360   1.370   9.821  0.7632  0.7836  1.7376
   80MOL0     C10493   2.608   1.567   9.712  0.5179 -0.4960 -0.0379
   80MOL0     C10494   2.477   1.559   9.704  0.0067  0.5888  0.0557
   80MOL0     H10495   1.986   1.583   9.854 -0.1530 -0.5853 -1.2511
   80MOL0     H10496   1.753   1.479   9.870 -0.9901 -1.1710  0.2396
   80MOL0     H10497   1.676   1.138  10.152  1.9600 -1.0341 -0.2690
   80MOL0     H10498   1.720   1.081   9.988  0.0500  2.7910 -2.7079
   80MOL0     H10499   1.494   1.013  10.017  1.1743 -0.0224 -1.4752
   80MOL0     H10500   1.483   1.156   9.909 -1.2446  0.4153 -0.2851
   80MOL0     H10501   1.411   1.290  10.114  2.2360 -0.1287 -0.0850
   80MOL0     H10502   1.418   1.157  10.213 -1.2323  1.6784  0.4452
   80MOL0     H10503   1.261   1.143   9.955  0.1561 -0.3928 -0.8715
   80MOL0     H10504   1.237   1.041  10.096  0.7525 -0.1438 -0.1580
   80MOL0     H10505   1.164   1.333  10.061  2.0998 -0.3722 -1.6354
   80MOL0     H10506   1.127   1.240  10.217 -1.9658 -1.4003 -1.1242
   80MOL0     H10507   1.018   1.074  10.075 -0.2834 -0.8850 -2.6117
   80MOL0     H10508   1.033   1.174   9.947 -2.0752 -1.7637 -0.2283
   80MOL0     H10509   0.885   1.259  10.204  0.2749 -0.6681  0.3229
   80MOL0     H10510   0.884   1.355  10.054  4.0661 -0.0321 -2.3093
   80MOL0     H10511   0.800   1.071  10.059  4.8314  0.0356  0.5760
   80MOL0     H10512   0.785   1.185   9.925 -0.0214  0.1552  0.4887
   80MOL0     H10513   0.640   1.088  10.253  0.5649  0.9100  0.1243
   80MOL0     H10514   0.358   1.362  10.332 -0.4800 -0.1898 -1.5086
   80MOL0     H10515   0.433   1.234  10.408  1.3142  0.7187  0.1316
   80MOL0     H10516   0.225   1.175  10.184 -0.1407  0.3254 -0.0068
   80MOL0     H10517   0.179   1.228  10.350  0.7535  1.3385  0.6837
   80MOL0     H10518   0.330   0.978  10.273  0.4736  1.0326 -0.6755
   80MOL0     H10519   0.323   1.029  10.441  0.3270 -1.4591  0.1637
   80MOL0     H10520   0.094   0.948  10.449  1.9290  0.0955  0.9676
   80MOL0     H10521   0.191   0.825  10.358  2.1556 -0.2348 -2.3364
   80MOL0     H10522  -0.035   0.780  10.117  1.9262 -2.7640  3.8633
   80MOL0     H10523  -0.285   0.719  10.119 -1.6905  0.2686  0.1570
   80MOL0     H10524  -0.725   1.046  10.507 -1.5535 -1.8068  1.6465
   80MOL0     H10525  -0.955   1.012  10.550 -0.2338  0.7556 -0.8450
   80MOL0     H10526  -1.162   0.721  10.269  0.7856  1.0228 -0.5967
   80MOL0     H10527  -1.209   0.889  10.247  1.1617  2.2200  1.8854
   80MOL0     H10528  -1.400   0.716  10.305 -2.9373  2.1755 -0.6860
   80MOL0     H10529  -1.409   0.861  10.403  0.6509 -0.3854  1.1124
   80MOL0     H10530  -1.285   0.752  10.590  1.7614  1.8306 -2.2202
   80MOL0     H10531  -1.246   0.619  10.504 -0.0685  0.4637  0.2426
   80MOL0     H10532  -1.480   0.534  10.500 -2.5721 -2.3584  3.2615
   80MOL0     H10533  -1.436   0.575  10.668  0.0872 -1.1478 -0.8153
   80MOL0     H10534  -1.590   0.773  10.509  0.8056 -1.3692 -0.2863
   80MOL0     H10535  -1.545   0.768  10.681  3.4330  2.0235 -2.2716
   80MOL0     H10536  -1.663   0.549  10.708 -1.5500 -3.2723 -1.6719
   80MOL0     H10537  -1.714   0.546  10.545 -1.5890  0.2390  1.1960
   80MOL0     H10538  -1.887   0.634  10.697 -1.3820  1.7843 -0.1163
   80MOL0     H10539  -1.790   0.771  10.752 -0.1305 -1.1925  1.4939
   80MOL0     H10540  -1.967   0.824  10.599  2.0081  1.3324  1.1755
   80MOL0     H10541  -1.926   0.695  10.479 -0.1673  2.1205 -2.1821
   80MOL0     H10542  -0.972   0.711  10.252 -3.5600  0.0274  2.9410
   80MOL0     H10543  -0.750   0.750  10.194 -0.9170  1.0551 -0.1230
   80MOL0     H10544  -0.362   1.044  10.373  1.1187 -1.3124  3.1350
   80MOL0     H10545  -0.126   1.096  10.386  0.5048 -0.0212  0.0433
   80MOL0     H10546   1.911   1.178  10.125  1.0886 -0.9859 -1.1490
   80MOL0     H10547   2.141   1.272  10.069  0.5063  0.3513  0.1247
   80MOL0     H10548   2.419   1.439  10.016  0.0318  0.3405 -0.9153
   80MOL0     H10549   2.679   1.430  10.015 -1.4755  0.6898  1.7174
   80MOL0     H10550   2.909   1.689   9.769 -2.7006  0.0001  2.0797
   80MOL0     H10551   2.891   1.576   9.631 -1.5159 -0.3208  0.1894
   80MOL0     H10552   3.096   1.552   9.862  2.4226 -1.3950 -1.1884
   80MOL0     H10553   3.072   1.438   9.725  3.0792  0.6546  0.3493
   80MOL0     H10554   3.176   1.710   9.738 -0.5687 -0.8134  1.0566
   80MOL0     H10555   3.099   1.656   9.578  0.0214 -1.9520 -1.3719
   80MOL0     H10556   3.278   1.504   9.555 -0.9432 -0.3133  0.7078
   80MOL0     H10557   3.361   1.642   9.633  0.1386  0.8456 -0.4921
   80MOL0     H10558   3.367   1.293   9.895 -1.8412 -1.4990 -0.1672
   80MOL0     H10559   2.657   1.608   9.625  1.3923 -1.1048  0.1661
   80MOL0     H10560   2.435   1.567   9.605 -1.4627 -1.9487  0.3876
   81MOL0     O10561   5.035   5.155   0.453 -0.1079 -0.5808 -0.3404
   81MOL0     C10562   5.147   5.200   0.481 -0.2275 -0.0971  0.3751
   81MOL0     O10563   5.194   5.329   0.482  0.6526  0.0842  0.4253
   81MOL0     C10564   5.088   5.425   0.492  0.0846 -0.7801 -0.1720
   81MOL0     C10565   5.102   5.534   0.406 -0.1645 -0.2586  0.8085
   81MOL0     C10566   5.010   5.641   0.395  0.3540  0.3187 -0.3017
   81MOL0     C10567   4.888   5.614   0.461  0.1576 -0.7233  0.4412
   81MOL0     O10568   4.784   5.697   0.446  0.5529  0.2297  0.1267
   81MOL0     C10569   4.785   5.787   0.339  0.3284 -0.6573  0.0387
   81MOL0     C10570   4.859   5.922   0.362 -0.0037 -0.5691  0.0894
   81MOL0     C10571   4.768   6.044   0.366 -0.0805 -0.7256 -0.1781
   81MOL0     C10572   4.697   6.072   0.231 -0.2272  0.1146 -0.3521
   81MOL0     C10573   4.639   6.214   0.209  0.7694 -0.3519 -0.7942
   81MOL0     C10574   4.490   6.217   0.238 -0.0212 -0.0639 -0.3768
   81MOL0     C10575   4.440   6.364   0.228 -0.2746 -0.0297  0.4825
   81MOL0     C10576   4.300   6.364   0.273  0.7546  0.3650 -0.5079
   81MOL0     N10577   4.250   6.505   0.275 -0.5951  0.7005  0.1856
   81MOL0     C10578   4.282   6.605   0.361  0.7022 -0.0081 -0.6447
   81MOL0     C10579   4.196   6.711   0.339  0.9347  0.0090  0.9581
   81MOL0     C10580   4.191   6.844   0.401 -0.4283 -0.2897  0.3524
   81MOL0     C10581   4.091   6.939   0.338  0.7707  0.5608 -0.9280
   81MOL0     C10582   4.060   7.053   0.428 -0.0029 -0.0244  0.1235
   81MOL0     C10583   3.970   7.147   0.354 -0.7683 -0.0647 -0.5467
   81MOL0     O10584   3.950   7.260   0.435 -0.3482 -1.1096  0.0113
   81MOL0     C10585   3.848   7.352   0.415  0.3899 -0.3183  0.7752
   81MOL0     C10586   3.732   7.326   0.329  0.1332  0.2573 -0.1474
   81MOL0     C10587   3.632   7.427   0.315 -0.1924  0.5705 -0.0743
   81MOL0     C10588   3.631   7.537   0.395 -0.9432  0.0992  0.7021
   81MOL0     C10589   3.517   7.634   0.390 -0.3289  0.6328  0.0169
   81MOL0     O10590   3.509   7.725   0.488 -0.0725 -0.0494  0.2757
   81MOL0     C10591   3.383   7.780   0.502 -0.0351 -0.7722  0.5593
   81MOL0     C10592   3.339   7.878   0.415  0.5560  0.4861 -0.3047
   81MOL0     C10593   3.218   7.942   0.450 -0.5291  0.4619 -1.0765
   81MOL0     C10594   3.135   7.903   0.548 -0.6023  0.4072  0.3612
   81MOL0     O10595   3.025   7.985   0.559 -0.6340 -0.6827 -0.4630
   81MOL0     C10596   2.946   7.948   0.683 -0.0509  0.3007  0.0447
   81MOL0     C10597   2.837   8.051   0.709  0.4461 -0.4316  0.1628
   81MOL0     C10598   2.745   8.012   0.827 -0.0768  0.4468  0.1129
   81MOL0     C10599   2.606   8.072   0.821 -0.5746 -0.4036  0.7131
   81MOL0     C10600   2.522   8.037   0.933  0.0022  0.4695  0.1005
   81MOL0     C10601   2.376   8.048   0.897  0.1122  0.7612  0.8121
   81MOL0     C10602   2.288   8.034   1.022 -1.0326  0.3924  0.6876
   81MOL0     C10603   2.146   8.109   0.993 -0.6540  0.4581 -0.5887
   81MOL0    Cl10604   2.050   8.024   0.880  0.1610  0.1403  0.2195
   81MOL0     C10605   3.180   7.800   0.633 -0.3735  0.4446  0.4081
   81MOL0     C10606   3.307   7.738   0.608  0.1620  0.1813 -0.2026
   81MOL0     O10607   3.419   7.611   0.313 -0.1516 -0.0987 -0.4025
   81MOL0     C10608   3.735   7.556   0.486 -0.0391  0.0145  0.3978
   81MOL0     C10609   3.851   7.474   0.483  0.2537 -0.2500 -0.3348
   81MOL0     N10610   4.115   6.672   0.230 -0.0006 -0.5086 -1.1571
   81MOL0     N10611   4.153   6.556   0.196  0.7065  0.2233  0.1234
   81MOL0     C10612   4.876   5.509   0.552  0.3598  0.1479 -0.0408
   81MOL0     C10613   4.979   5.413   0.571  0.2173 -0.1147  0.2898
   81MOL0     C10614   5.247   5.098   0.507 -0.6478  0.0196 -0.0903
   81MOL0     C10615   5.229   4.963   0.464 -0.4279  0.2378  0.4924
   81MOL0     C10616   5.328   4.871   0.501  0.0942 -0.6520  0.4128
   81MOL0     C10617   5.439   4.908   0.572 -0.0585  0.3424  0.3175
   81MOL0     O10618   5.553   4.828   0.591 -0.0890 -0.0266 -0.1935
   81MOL0     C10619   5.532   4.688   0.622  0.9245  0.0016 -0.6030
   81MOL0     C10620   5.618   4.652   0.746 -0.0463  0.2117  0.1876
   81MOL0     C10621   5.636   4.501   0.744  0.5905  0.5254 -0.0742
   81MOL0     C10622   5.746   4.458   0.839  0.0575  0.6793  0.0917
   81MOL0     C10623   5.717   4.498   0.981  0.4146  0.2206  0.7751
   81MOL0     C10624   5.722   4.538   1.095 -0.0054 -0.2021 -0.1129
   81MOL0     C10625   5.451   5.035   0.610 -0.7707 -0.9460  0.7324
   81MOL0     C10626   5.364   5.140   0.578  0.6534 -0.2094  0.0874
   81MOL0     H10627   5.193   5.541   0.348  0.1944 -0.4732  1.3323
   81MOL0     H10628   5.039   5.727   0.334  1.4294 -0.1373 -0.4612
   81MOL0     H10629   4.679   5.812   0.325  0.6327  1.8906  1.5825
   81MOL0     H10630   4.817   5.745   0.244 -0.4678 -1.7277  0.2324
   81MOL0     H10631   4.932   5.932   0.282 -1.4267 -0.1093 -1.2010
   81MOL0     H10632   4.928   5.922   0.447  0.9547  0.4816 -0.6596
   81MOL0     H10633   4.834   6.128   0.390  0.8562 -2.0468  2.2314
   81MOL0     H10634   4.691   6.035   0.443 -3.3353  0.5971 -3.0367
   81MOL0     H10635   4.763   6.034   0.153 -0.3133 -0.6776 -0.0475
   81MOL0     H10636   4.612   6.003   0.241 -2.2521  2.4176 -0.7119
   81MOL0     H10637   4.649   6.249   0.106 -0.2155  2.0522 -0.1343
   81MOL0     H10638   4.689   6.290   0.269 -2.5091 -0.3462  2.2714
   81MOL0     H10639   4.466   6.178   0.337 -3.4752  1.0041 -0.6552
   81MOL0     H10640   4.432   6.152   0.172 -1.1267 -0.3670  0.8493
   81MOL0     H10641   4.497   6.427   0.296 -1.1433 -0.9062  2.0809
   81MOL0     H10642   4.441   6.408   0.128 -0.8559 -0.2791  0.3644
   81MOL0     H10643   4.301   6.316   0.371  5.9683 -1.1671 -0.9986
   81MOL0     H10644   4.244   6.298   0.206  0.9709 -0.5849  0.2314
   81MOL0     H10645   4.355   6.607   0.441 -0.7956 -1.1233  0.8219
   81MOL0     H10646   4.288   6.895   0.400  0.7320 -2.3722 -0.0157
   81MOL0     H10647   4.162   6.819   0.503 -0.9970  0.3055  0.3445
   81MOL0     H10648   3.997   6.887   0.316  1.8347 -2.2366  0.6640
   81MOL0     H10649   4.129   6.972   0.242 -1.3846  1.2103 -1.6257
   81MOL0     H10650   4.024   7.014   0.524 -0.8956  1.4449  0.4119
   81MOL0     H10651   4.153   7.108   0.450 -1.3190  2.7103 -0.6918
   81MOL0     H10652   3.875   7.099   0.329  0.2782 -2.0673 -0.9036
   81MOL0     H10653   4.015   7.176   0.258  0.1686 -1.4329 -0.5474
   81MOL0     H10654   3.718   7.234   0.273  0.8646 -1.0037  1.6104
   81MOL0     H10655   3.547   7.408   0.249  0.8261 -0.1392 -1.2139
   81MOL0     H10656   3.410   7.906   0.338  0.3612  1.3601 -0.1775
   81MOL0     H10657   3.175   8.022   0.390  0.4747  1.1998 -0.8401
   81MOL0     H10658   3.016   7.956   0.767  2.5037  2.3646 -2.0726
   81MOL0     H10659   2.898   7.850   0.677  3.6279 -1.6989  0.4258
   81MOL0     H10660   2.767   8.062   0.626  0.0002 -1.1475  0.4361
   81MOL0     H10661   2.877   8.151   0.731 -0.3476  0.4544 -2.1254
   81MOL0     H10662   2.800   8.027   0.920 -0.7500 -0.0321  0.5938
   81MOL0     H10663   2.732   7.904   0.829 -1.8342  0.6205 -0.4234
   81MOL0     H10664   2.616   8.180   0.811 -0.2571 -0.5126 -0.3063
   81MOL0     H10665   2.557   8.042   0.728 -1.1239  1.2378  0.4412
   81MOL0     H10666   2.545   8.109   1.012  1.8762  1.1219 -0.9664
   81MOL0     H10667   2.547   7.934   0.959 -0.7096 -0.0060 -0.9904
   81MOL0     H10668   2.343   7.967   0.831  0.2341  0.8042  0.6975
   81MOL0     H10669   2.352   8.143   0.848  0.9408  1.0175  0.8934
   81MOL0     H10670   2.275   7.927   1.041  1.2076  0.0848  0.7225
   81MOL0     H10671   2.343   8.081   1.104 -2.1721  1.8214  0.6657
   81MOL0     H10672   2.176   8.209   0.960  0.7354  0.4307  0.4663
   81MOL0     H10673   2.085   8.123   1.083  0.6390 -2.5494  0.9089
   81MOL0     H10674   3.124   7.773   0.723  0.6483  0.7105  1.1506
   81MOL0     H10675   3.334   7.658   0.677 -1.2058 -1.5185 -1.5149
   81MOL0     H10676   3.745   7.648   0.543  0.5614  0.1528  0.0693
   81MOL0     H10677   3.942   7.512   0.527 -0.3761  0.2685  0.5664
   81MOL0     H10678   4.787   5.505   0.612  0.3762  2.6770  0.2604
   81MOL0     H10679   4.953   5.336   0.643 -1.0342  0.4112  0.4387
   81MOL0     H10680   5.137   4.921   0.425 -0.2621  1.0161 -0.7994
   81MOL0     H10681   5.329   4.766   0.473  4.0037 -0.9646  1.1263
   81MOL0     H10682   5.558   4.633   0.531 -0.8046  0.5897 -1.5013
   81MOL0     H10683   5.430   4.672   0.658  1.3240 -0.0930  0.5514
   81MOL0     H10684   5.713   4.703   0.730 -1.2389  3.1182  1.5707
   81MOL0     H10685   5.569   4.687   0.837 -0.9778  1.6227 -0.8184
   81MOL0     H10686   5.669   4.467   0.645  0.2596  0.9156 -0.3209
   81MOL0     H10687   5.546   4.450   0.778  1.1383 -0.2391  0.2563
   81MOL0     H10688   5.757   4.350   0.828  0.3607  0.7408 -0.2352
   81MOL0     H10689   5.848   4.488   0.813  0.1100 -0.9035 -1.7686
   81MOL0     H10690   5.739   4.572   1.195 -0.8925  2.7868 -0.8950
   81MOL0     H10691   5.549   5.066   0.646 -0.0489 -0.2534 -1.6179
   81MOL0     H10692   5.388   5.243   0.598  0.0851 -0.0624  0.0417
   82MOL0     O10693  10.330   9.107   6.325  0.0464 -0.8355 -0.3873
   82MOL0     C10694  10.419   9.060   6.394  0.0293  0.0834  1.0024
   82MOL0     O10695  10.406   8.942   6.469  0.0402  0.9255  0.1355
   82MOL0     C10696  10.289   8.867   6.465 -0.1317 -0.0650  0.1884
   82MOL0     C10697  10.210   8.852   6.351  0.9754 -0.0589  0.4198
   82MOL0     C10698  10.086   8.795   6.363  0.6021 -0.5744 -0.1726
   82MOL0     C10699  10.042   8.726   6.477  0.8225 -0.2619  0.0565
   82MOL0     O10700   9.918   8.672   6.464 -0.6476 -0.4175 -0.1516
   82MOL0     C10701   9.893   8.567   6.559  0.6868 -0.0181  0.1290
   82MOL0     C10702   9.766   8.498   6.511 -0.0278  0.0843 -0.3850
   82MOL0     C10703   9.712   8.410   6.621 -0.3459 -0.6081 -0.2510
   82MOL0     C10704   9.566   8.353   6.583  0.3230  0.5503 -0.9309
   82MOL0     C10705   9.526   8.244   6.680 -0.0978 -0.1979  0.1781
   82MOL0     C10706   9.405   8.165   6.616  0.1407 -0.3715 -0.6111
   82MOL0     C10707   9.381   8.044   6.707  0.3296 -0.0872 -0.0782
   82MOL0     C10708   9.312   8.061   6.842  0.0191 -0.3720 -0.8601
   82MOL0     N10709   9.162   8.096   6.829 -1.1261  0.1914  0.7889
   82MOL0     C10710   9.069   8.020   6.776  0.1702  0.4978  0.5602
   82MOL0     C10711   8.949   8.074   6.793 -0.1775 -0.4904  0.4705
   82MOL0     C10712   8.816   8.023   6.767 -0.7309 -0.3703 -0.7283
   82MOL0     C10713   8.734   8.017   6.895 -0.2266  0.4572 -0.8191
   82MOL0     C10714   8.589   7.971   6.873  0.3185  1.0374 -1.2893
   82MOL0     C10715   8.494   8.022   6.982 -0.1296 -0.7062  1.1964
   82MOL0     O10716   8.387   7.933   6.990  0.1525 -0.1716 -0.0072
   82MOL0     C10717   8.293   7.928   6.892 -0.2437  0.9950 -0.3885
   82MOL0     C10718   8.245   8.041   6.825  0.4408 -0.1932  0.4693
   82MOL0     C10719   8.134   8.035   6.738  0.1678  0.4314  0.3930
   82MOL0     C10720   8.063   7.917   6.713 -0.2198 -0.2384 -0.7921
   82MOL0     C10721   7.935   7.918   6.645 -0.8288 -0.6689  0.3499
   82MOL0     O10722   7.894   8.042   6.604  0.1163  0.7820  0.1582
   82MOL0     C10723   7.781   8.055   6.526 -0.0705  0.1958  0.7556
   82MOL0     C10724   7.789   8.061   6.382 -0.1626  0.7330  0.0237
   82MOL0     C10725   7.671   8.080   6.302  0.1784  0.3027  0.1003
   82MOL0     C10726   7.543   8.088   6.354 -0.9838  0.3880 -0.4620
   82MOL0     O10727   7.435   8.089   6.266  0.4178 -0.0525  0.0877
   82MOL0     C10728   7.304   8.109   6.317  0.0615 -0.0194 -0.1426
   82MOL0     C10729   7.197   8.082   6.210  0.7310  0.5113  0.1756
   82MOL0     C10730   7.205   8.186   6.101 -0.5133 -0.0341 -0.3216
   82MOL0     C10731   7.104   8.158   5.994 -0.0602 -0.1952  0.3624
   82MOL0     C10732   7.100   8.267   5.877 -0.2531 -0.0290 -0.3430
   82MOL0     C10733   7.238   8.317   5.838  0.3225 -0.5195 -0.1227
   82MOL0     C10734   7.320   8.212   5.759  1.0320  0.8855 -0.5060
   82MOL0     C10735   7.471   8.247   5.764  0.2002  0.2685  0.1348
   82MOL0    Cl10736   7.510   8.390   5.669 -0.2233 -0.4894 -0.2882
   82MOL0     C10737   7.540   8.086   6.500  0.4082 -0.0544  0.1257
   82MOL0     C10738   7.652   8.072   6.583 -1.1055 -0.1663 -0.0455
   82MOL0     O10739   7.871   7.818   6.618 -0.7751  0.2761 -0.1034
   82MOL0     C10740   8.112   7.803   6.776 -0.5642  0.9195 -0.0437
   82MOL0     C10741   8.224   7.808   6.860  0.0163 -0.1632  0.2480
   82MOL0     N10742   8.985   8.198   6.840  0.0287 -0.2943  0.4917
   82MOL0     N10743   9.109   8.213   6.850  0.3675  0.9114 -0.1595
   82MOL0     C10744  10.124   8.731   6.584 -0.0742  0.4118  0.0617
   82MOL0     C10745  10.241   8.811   6.581 -0.4167 -1.2515 -0.3612
   82MOL0     C10746  10.552   9.124   6.399  0.2956  0.6680 -0.9590
   82MOL0     C10747  10.648   9.056   6.479 -0.3743 -0.6141 -0.4950
   82MOL0     C10748  10.778   9.105   6.478  0.6384  0.3620 -0.2407
   82MOL0     C10749  10.819   9.228   6.410  1.3450  0.2433 -0.1229
   82MOL0     O10750  10.948   9.286   6.424 -0.7667  0.0167 -0.2411
   82MOL0     C10751  11.013   9.313   6.307 -0.1669  0.6848  0.6298
   82MOL0     C10752  11.148   9.349   6.341  0.2128 -0.6363  0.0469
   82MOL0     C10753  11.241   9.347   6.217 -0.8668  0.2233  0.6750
   82MOL0     C10754  11.351   9.449   6.226 -0.3539 -0.2622  0.8563
   82MOL0     C10755  11.431   9.419   6.346  0.1783 -0.0306 -0.4598
   82MOL0     C10756  11.491   9.416   6.448  0.5640  0.2306 -0.5242
   82MOL0     C10757  10.719   9.291   6.335 -0.9727 -0.0164  0.6174
   82MOL0     C10758  10.588   9.240   6.328  0.0214 -0.3521  0.4564
   82MOL0     H10759  10.244   8.892   6.256 -2.3547  0.5764 -0.6268
   82MOL0     H10760  10.018   8.795   6.278  1.8085 -1.8134 -1.1916
   82MOL0     H10761   9.881   8.608   6.660 -0.4325 -0.5986  0.2479
   82MOL0     H10762   9.969   8.490   6.567  2.3774  1.5282 -0.3281
   82MOL0     H10763   9.777   8.438   6.420  0.0993 -2.4339  1.1844
   82MOL0     H10764   9.689   8.574   6.496 -0.8487 -0.8871 -1.2866
   82MOL0     H10765   9.705   8.457   6.720  0.7448 -5.4387  2.4592
   82MOL0     H10766   9.776   8.324   6.642 -0.9400 -0.5720  1.9306
   82MOL0     H10767   9.490   8.431   6.581 -1.5306 -0.9092  2.9619
   82MOL0     H10768   9.575   8.310   6.483 -0.1213 -0.7804 -0.4192
   82MOL0     H10769   9.506   8.277   6.782  0.8509 -0.3043  0.4114
   82MOL0     H10770   9.598   8.162   6.687 -0.9777 -1.0097 -0.0656
   82MOL0     H10771   9.429   8.136   6.513 -3.7904  1.5386 -2.2739
   82MOL0     H10772   9.314   8.226   6.617  0.4628  0.1137  1.0370
   82MOL0     H10773   9.307   7.978   6.662 -1.2435 -0.3764  2.7113
   82MOL0     H10774   9.473   7.986   6.714 -0.5360 -1.6858 -1.2747
   82MOL0     H10775   9.364   8.138   6.900  0.1602 -1.3060  0.2994
   82MOL0     H10776   9.325   7.972   6.905 -0.2468  1.3862  1.8354
   82MOL0     H10777   9.086   7.920   6.737  0.2944  0.5359  0.5146
   82MOL0     H10778   8.826   7.922   6.725 -1.6443 -0.1713 -1.4507
   82MOL0     H10779   8.765   8.088   6.695  2.9318  0.3642 -2.8992
   82MOL0     H10780   8.734   8.124   6.919 -2.3454  1.3525 -4.0905
   82MOL0     H10781   8.768   7.965   6.985 -2.6585  1.7141  0.9646
   82MOL0     H10782   8.550   8.014   6.781 -0.8898 -1.0796 -1.8291
   82MOL0     H10783   8.578   7.862   6.866 -1.4524  0.9866  1.0797
   82MOL0     H10784   8.471   8.129   6.976 -1.9128 -1.1135 -3.2356
   82MOL0     H10785   8.544   8.012   7.079 -2.4316 -0.3889  2.4925
   82MOL0     H10786   8.297   8.136   6.837  0.4071  0.0949 -1.3644
   82MOL0     H10787   8.113   8.133   6.695  3.2867 -0.3894 -3.6154
   82MOL0     H10788   7.880   8.048   6.325 -0.2773  1.1520 -0.2580
   82MOL0     H10789   7.678   8.091   6.194  0.1710 -1.3618 -0.0863
   82MOL0     H10790   7.293   8.210   6.357 -0.7978 -0.2446  0.2343
   82MOL0     H10791   7.288   8.042   6.402 -3.5648  1.8254  0.8615
   82MOL0     H10792   7.101   8.087   6.262  0.2965 -1.3632 -0.3803
   82MOL0     H10793   7.210   7.985   6.161 -1.5904 -0.0772  0.6227
   82MOL0     H10794   7.302   8.177   6.050 -0.9198  2.6035 -1.7246
   82MOL0     H10795   7.186   8.289   6.129 -0.7340 -0.2777  0.4463
   82MOL0     H10796   7.112   8.058   5.950 -1.3299 -1.1648  2.2161
   82MOL0     H10797   7.007   8.155   6.043 -0.9259 -1.4845 -1.3297
   82MOL0     H10798   7.048   8.355   5.915  1.0662  1.2746 -1.4519
   82MOL0     H10799   7.041   8.225   5.796  2.3943 -0.8873 -1.9479
   82MOL0     H10800   7.287   8.354   5.929 -0.1079 -2.1777  0.8148
   82MOL0     H10801   7.236   8.408   5.777  0.5071  0.5808  1.4506
   82MOL0     H10802   7.294   8.110   5.790 -0.4696  0.5850 -2.5552
   82MOL0     H10803   7.299   8.210   5.652  2.2556 -0.5493 -0.7499
   82MOL0     H10804   7.537   8.166   5.731  0.9397  0.9357 -0.0558
   82MOL0     H10805   7.491   8.272   5.869  1.4172  0.7278 -0.1880
   82MOL0     H10806   7.447   8.089   6.556  1.4924  2.9952  1.9893
   82MOL0     H10807   7.642   8.067   6.691  0.9958  4.0541  0.5851
   82MOL0     H10808   8.056   7.715   6.748  0.0045  1.1936 -2.2507
   82MOL0     H10809   8.264   7.718   6.905  0.6228 -0.1296 -0.2088
   82MOL0     H10810  10.096   8.666   6.666  1.1190  0.8014  0.8101
   82MOL0     H10811  10.302   8.817   6.670 -1.6028  1.7267  0.3989
   82MOL0     H10812  10.623   8.974   6.545 -0.3954 -0.6571 -0.5565
   82MOL0     H10813  10.859   9.055   6.529  1.1492  0.5547 -0.8410
   82MOL0     H10814  10.967   9.396   6.252 -1.6688  0.0048  0.7999
   82MOL0     H10815  11.007   9.224   6.244  2.3178 -1.1839  2.8245
   82MOL0     H10816  11.157   9.447   6.389  4.2112 -0.4956 -0.6433
   82MOL0     H10817  11.188   9.275   6.412  0.0029 -0.4858  0.3246
   82MOL0     H10818  11.171   9.358   6.134 -1.7724  0.1671  1.4164
   82MOL0     H10819  11.289   9.250   6.200  0.2137  0.5442  1.7452
   82MOL0     H10820  11.415   9.442   6.138  2.5226  1.6758  2.5812
   82MOL0     H10821  11.309   9.550   6.234 -0.7978 -0.4447  0.8347
   82MOL0     H10822  11.535   9.411   6.546  2.2986 -0.5483 -1.2881
   82MOL0     H10823  10.743   9.390   6.298 -0.9475 -0.1101  0.3824
   82MOL0     H10824  10.512   9.298   6.278 -0.0984 -0.0242  1.0004
   83MOL0     O10825   9.493  10.654   2.775  0.3226  0.2048 -0.3676
   83MOL0     C10826   9.512  10.753   2.845 -0.6346  0.3900  0.2306
   83MOL0     O10827   9.415  10.847   2.873 -0.0526 -0.0811 -0.4461
   83MOL0     C10828   9.297  10.836   2.804 -0.1583 -0.1857 -0.2191
   83MOL0     C10829   9.269  10.934   2.706  1.0819  0.1489  0.1975
   83MOL0     C10830   9.147  10.945   2.636 -0.2885  0.1117  0.8936
   83MOL0     C10831   9.053  10.849   2.648  0.5681  0.2005  0.7555
   83MOL0     O10832   8.939  10.856   2.577 -0.7927 -0.6254  0.3045
   83MOL0     C10833   8.919  10.745   2.486  0.4660  0.3976  0.3423
   83MOL0     C10834   8.799  10.783   2.402  0.4803  0.2480  0.3571
   83MOL0     C10835   8.659  10.750   2.466 -0.9111 -0.6426 -0.0331
   83MOL0     C10836   8.549  10.763   2.362 -0.6733 -0.8157 -0.2994
   83MOL0     C10837   8.410  10.734   2.420  0.0640 -0.9949 -0.2890
   83MOL0     C10838   8.307  10.705   2.314 -0.8812  0.1590 -0.2185
   83MOL0     C10839   8.167  10.739   2.358 -0.1480 -0.1920  0.6485
   83MOL0     C10840   8.130  10.650   2.465 -0.4924  0.7266  0.6934
   83MOL0     N10841   7.999  10.660   2.518 -0.1249  0.2420 -0.8598
   83MOL0     C10842   7.961  10.752   2.616  0.1558  1.0459  0.6575
   83MOL0     C10843   7.834  10.701   2.640  0.1296 -0.4249 -0.0195
   83MOL0     C10844   7.744  10.754   2.759 -0.0946 -0.4244 -0.0186
   83MOL0     C10845   7.609  10.793   2.709  0.3665 -0.0385  0.2737
   83MOL0     C10846   7.506  10.812   2.825  0.7667 -0.4964 -0.0392
   83MOL0     C10847   7.364  10.856   2.781 -0.4081 -0.4418 -0.3488
   83MOL0     O10848   7.306  10.918   2.895 -0.0645  0.1812 -0.5437
   83MOL0     C10849   7.167  10.922   2.902 -0.6203 -0.1183 -0.1591
   83MOL0     C10850   7.075  10.866   2.811 -0.5368 -0.7404 -0.5663
   83MOL0     C10851   6.937  10.867   2.840 -0.0349 -0.4052 -0.3012
   83MOL0     C10852   6.895  10.929   2.960 -0.3599  0.3494  0.8533
   83MOL0     C10853   6.755  10.924   3.002 -0.6428  0.1327 -0.1066
   83MOL0     O10854   6.668  10.902   2.905  0.2404  0.1833 -0.0596
   83MOL0     C10855   6.539  10.870   2.937 -0.5965 -0.2113 -0.2283
   83MOL0     C10856   6.493  10.743   2.895  0.3605 -0.3789  0.5923
   83MOL0     C10857   6.363  10.713   2.927 -0.7283  0.2028  0.3648
   83MOL0     C10858   6.281  10.797   2.994  0.3381  0.6531  0.0152
   83MOL0     O10859   6.156  10.740   3.010 -1.2838 -0.7726  0.5091
   83MOL0     C10860   6.067  10.802   3.104  0.7740 -0.2560 -0.5935
   83MOL0     C10861   5.929  10.746   3.090 -0.3291  1.5330 -0.0497
   83MOL0     C10862   5.921  10.597   3.136 -0.1973 -0.2832 -0.3090
   83MOL0     C10863   5.805  10.559   3.220 -0.1887  0.0605  0.3963
   83MOL0     C10864   5.674  10.526   3.161  1.1503  0.0321  0.3709
   83MOL0     C10865   5.583  10.447   3.248  0.4541  0.4888 -0.4231
   83MOL0     C10866   5.448  10.432   3.180 -0.0050  0.2365  0.4009
   83MOL0     C10867   5.360  10.336   3.263  0.2880  0.2559 -0.1580
   83MOL0    Cl10868   5.329  10.402   3.435 -0.3776 -0.2988 -0.2310
   83MOL0     C10869   6.325  10.918   3.036 -0.5403  0.1461 -0.0811
   83MOL0     C10870   6.452  10.961   3.003 -0.6117  0.7820  0.4334
   83MOL0     O10871   6.732  10.939   3.118 -0.1041  0.2202 -0.4095
   83MOL0     C10872   6.988  10.982   3.049 -0.6526  0.5727 -0.5165
   83MOL0     C10873   7.123  10.985   3.009 -0.4389  0.1449 -0.4455
   83MOL0     N10874   7.790  10.608   2.548 -0.8037  0.2001  0.4138
   83MOL0     N10875   7.898  10.577   2.478  0.0228  1.1649 -0.1380
   83MOL0     C10876   9.078  10.750   2.750 -0.9314 -0.0817  0.9513
   83MOL0     C10877   9.196  10.739   2.831 -0.3302 -0.4109 -0.4156
   83MOL0     C10878   9.646  10.775   2.906 -0.7068 -0.7677  0.1299
   83MOL0     C10879   9.681  10.895   2.966  0.6123 -0.0849 -0.4105
   83MOL0     C10880   9.808  10.922   3.017  0.4616  0.7533 -0.4439
   83MOL0     C10881   9.910  10.835   3.011  0.2241 -0.5103  0.5535
   83MOL0     O10882  10.028  10.873   3.071  0.3260 -0.0871 -0.1452
   83MOL0     C10883  10.132  10.774   3.070 -0.2880 -0.0373 -0.0344
   83MOL0     C10884  10.260  10.827   3.124 -0.3647 -0.7177  0.1493
   83MOL0     C10885  10.378  10.726   3.117 -0.1431 -0.3680  0.3061
   83MOL0     C10886  10.432  10.696   2.971  0.2129  0.0771 -0.0950
   83MOL0     C10887  10.539  10.595   2.986 -0.1186 -0.4789  0.2511
   83MOL0     C10888  10.629  10.514   2.998 -0.4254 -0.3305 -0.7359
   83MOL0     C10889   9.883  10.713   2.946  0.7130 -0.2874 -0.1695
   83MOL0     C10890   9.751  10.683   2.895 -0.8100  0.4471  0.0968
   83MOL0     H10891   9.346  11.011   2.701  1.8538 -0.5511  0.9868
   83MOL0     H10892   9.129  11.020   2.560  0.6780  2.0474  2.4461
   83MOL0     H10893   8.897  10.647   2.529 -4.1741  1.4267  0.8475
   83MOL0     H10894   9.004  10.740   2.418 -0.8505 -0.4340 -1.3298
   83MOL0     H10895   8.806  10.726   2.308  1.0071 -0.1613  0.6389
   83MOL0     H10896   8.796  10.889   2.374 -0.7371  0.2642  0.4991
   83MOL0     H10897   8.639  10.832   2.535 -0.7509 -0.0821 -0.6413
   83MOL0     H10898   8.664  10.650   2.510 -3.2614 -0.6772  0.2556
   83MOL0     H10899   8.567  10.864   2.324  1.8754 -1.6919 -1.6774
   83MOL0     H10900   8.571  10.709   2.270  1.9009  1.6953 -1.3386
   83MOL0     H10901   8.400  10.824   2.481  2.4436 -2.4141  2.4417
   83MOL0     H10902   8.402  10.647   2.487 -0.1952 -0.2017  0.7430
   83MOL0     H10903   8.314  10.604   2.274  0.1552 -0.1254  0.6182
   83MOL0     H10904   8.320  10.767   2.225 -1.2119 -1.8198 -1.7040
   83MOL0     H10905   8.159  10.841   2.395 -0.4923  0.3652 -0.8772
   83MOL0     H10906   8.101  10.726   2.271 -1.4991  2.9050  1.0938
   83MOL0     H10907   8.196  10.663   2.552  1.2075 -1.7935 -0.0873
   83MOL0     H10908   8.138  10.547   2.429 -1.8339  1.4754 -1.9538
   83MOL0     H10909   8.025  10.821   2.671  0.7502  0.2096  1.0307
   83MOL0     H10910   7.782  10.843   2.811  5.1728 -1.7512 -1.0135
   83MOL0     H10911   7.728  10.667   2.823  1.5150 -0.7151  0.0501
   83MOL0     H10912   7.577  10.715   2.640  1.5468  0.9475 -1.4573
   83MOL0     H10913   7.611  10.891   2.659 -2.7316 -0.8291 -1.6343
   83MOL0     H10914   7.497  10.718   2.881  2.2758 -1.1429 -0.8310
   83MOL0     H10915   7.540  10.887   2.897 -2.7185  1.3155 -0.0711
   83MOL0     H10916   7.309  10.770   2.741  0.9968 -1.5329 -0.0603
   83MOL0     H10917   7.373  10.932   2.704 -0.7625  1.2178  1.1871
   83MOL0     H10918   7.107  10.820   2.718 -1.3541 -1.7556 -0.3704
   83MOL0     H10919   6.877  10.816   2.766 -0.3839  0.2471 -0.4706
   83MOL0     H10920   6.548  10.665   2.844  0.9537  0.1304  0.4443
   83MOL0     H10921   6.319  10.618   2.900  0.5713 -0.8932  1.9099
   83MOL0     H10922   6.058  10.908   3.081 -0.0453 -0.2410 -0.2700
   83MOL0     H10923   6.117  10.801   3.202  0.6375  3.2903 -0.3684
   83MOL0     H10924   5.898  10.756   2.986  0.7905  1.7135 -0.3870
   83MOL0     H10925   5.867  10.809   3.154  1.1968  0.7507  2.3433
   83MOL0     H10926   6.011  10.593   3.198 -0.3438 -0.2542 -0.0919
   83MOL0     H10927   5.940  10.528   3.054  0.8622 -1.1919  0.6510
   83MOL0     H10928   5.833  10.470   3.278 -1.8140 -0.8959 -0.2438
   83MOL0     H10929   5.798  10.636   3.298  3.5507 -0.1460  1.1412
   83MOL0     H10930   5.695  10.473   3.067 -0.2339  0.7458 -0.3741
   83MOL0     H10931   5.620  10.616   3.132  1.6675  1.0611  2.4173
   83MOL0     H10932   5.576  10.483   3.351  1.3556 -1.6879  0.4743
   83MOL0     H10933   5.628  10.348   3.263  0.5277  0.9911  4.1062
   83MOL0     H10934   5.402  10.530   3.168  1.0237  0.6226 -0.6604
   83MOL0     H10935   5.462  10.390   3.080 -3.0108  2.0012 -0.8933
   83MOL0     H10936   5.404  10.236   3.256  0.3260  0.2941 -0.4998
   83MOL0     H10937   5.257  10.317   3.230 -0.1060  0.8330  0.7093
   83MOL0     H10938   6.252  10.979   3.088 -2.1758 -0.6557 -1.3205
   83MOL0     H10939   6.495  11.059   3.024  0.8743 -0.0049  1.3017
   83MOL0     H10940   6.964  11.042   3.137  2.4245  0.8640  0.2222
   83MOL0     H10941   7.195  11.038   3.070  0.4051 -0.7615 -0.6287
   83MOL0     H10942   8.994  10.682   2.761 -0.7142 -0.7036 -0.9756
   83MOL0     H10943   9.208  10.669   2.913 -4.4212  0.5632  1.2422
   83MOL0     H10944   9.608  10.976   2.971 -0.8028 -1.3697  1.1794
   83MOL0     H10945   9.825  11.018   3.064 -1.9418  1.0655 -0.0639
   83MOL0     H10946  10.152  10.730   2.972  1.1849  2.8722 -1.1905
   83MOL0     H10947  10.102  10.696   3.140  1.3516 -0.9512 -0.3226
   83MOL0     H10948  10.296  10.919   3.076 -0.4448 -0.1258  1.1876
   83MOL0     H10949  10.246  10.853   3.230 -1.4713  1.0194 -0.3847
   83MOL0     H10950  10.344  10.631   3.159 -1.5929  0.0079  0.0558
   83MOL0     H10951  10.465  10.759   3.174  0.7576  0.2698 -1.3617
   83MOL0     H10952  10.353  10.642   2.918  0.0494 -1.1155  1.3016
   83MOL0     H10953  10.472  10.783   2.918  0.5462  0.4047  0.6760
   83MOL0     H10954  10.708  10.444   2.980 -1.5513 -1.1967 -2.5727
   83MOL0     H10955   9.951  10.629   2.941  0.4681 -0.5155  0.2267
   83MOL0     H10956   9.724  10.595   2.838 -1.0173  0.4176  0.2398
   84MOL0     O10957   1.154   3.378   3.096  0.3729 -0.3049 -0.5726
   84MOL0     C10958   1.132   3.402   2.977  0.0603 -0.2921 -0.0820
   84MOL0     O10959   1.015   3.419   2.918  0.3802 -0.6686  0.0277
   84MOL0     C10960   0.906   3.391   2.990 -1.0779 -1.4451  0.0696
   84MOL0     C10961   0.865   3.483   3.081  0.0857  0.0415 -0.2236
   84MOL0     C10962   0.736   3.460   3.147 -1.0797  0.2675 -0.0522
   84MOL0     C10963   0.664   3.342   3.117 -0.4943  0.0803  0.3021
   84MOL0     O10964   0.551   3.313   3.182 -0.0465 -0.7543 -0.0425
   84MOL0     C10965   0.485   3.188   3.165  0.2043  0.7345 -0.2505
   84MOL0     C10966   0.358   3.185   3.257 -0.4121 -0.7332  0.0973
   84MOL0     C10967   0.280   3.055   3.248 -0.0435 -0.2563  0.6595
   84MOL0     C10968   0.164   3.058   3.337 -0.2537 -0.5175  0.0673
   84MOL0     C10969   0.076   2.932   3.308 -0.2828 -0.7294 -0.4035
   84MOL0     C10970  -0.045   2.934   3.407  0.2832  0.1082  0.0866
   84MOL0     C10971  -0.142   2.814   3.388 -0.2987  0.3220  0.2786
   84MOL0     C10972  -0.271   2.830   3.469  0.0604  0.1616 -0.9536
   84MOL0     N10973  -0.362   2.721   3.432 -0.1172 -0.1081 -0.7529
   84MOL0     C10974  -0.309   2.590   3.412 -0.1306  0.6664  1.0474
   84MOL0     C10975  -0.399   2.531   3.327  0.2558 -1.2378  0.1860
   84MOL0     C10976  -0.404   2.386   3.274  0.8420  0.0009 -0.7809
   84MOL0     C10977  -0.481   2.293   3.372 -0.4087 -0.9114 -0.6019
   84MOL0     C10978  -0.505   2.151   3.310  0.2242 -0.3096  0.6025
   84MOL0     C10979  -0.619   2.165   3.212  0.1742  0.3603 -0.0914
   84MOL0     O10980  -0.652   2.032   3.161  0.4263 -0.2077  0.3447
   84MOL0     C10981  -0.764   1.998   3.094 -0.1510 -0.6778 -0.5031
   84MOL0     C10982  -0.859   2.093   3.059 -0.0844 -1.2263  0.0870
   84MOL0     C10983  -0.978   2.037   3.016  0.5612 -1.0946  0.6398
   84MOL0     C10984  -0.998   1.899   2.996 -0.3531 -0.4253 -0.0778
   84MOL0     C10985  -1.131   1.851   2.959  1.0464  1.0264  0.4590
   84MOL0     O10986  -1.156   1.714   2.945 -1.3997  0.8739 -0.1548
   84MOL0     C10987  -1.264   1.670   2.878 -0.2421  0.1670  0.3858
   84MOL0     C10988  -1.300   1.726   2.754 -0.0580  0.0961 -0.2197
   84MOL0     C10989  -1.405   1.674   2.671 -0.6603 -0.2058 -0.0626
   84MOL0     C10990  -1.484   1.566   2.714 -0.1580  0.2743 -0.4636
   84MOL0     O10991  -1.585   1.542   2.633  0.7423  0.0829 -0.3191
   84MOL0     C10992  -1.692   1.470   2.681  0.8082  0.7497  0.0096
   84MOL0     C10993  -1.780   1.433   2.567  0.5344  0.6089 -0.6823
   84MOL0     C10994  -1.884   1.336   2.631  0.0532  0.4447  0.1046
   84MOL0     C10995  -1.991   1.298   2.534 -0.2213 -0.0674  0.5787
   84MOL0     C10996  -2.087   1.206   2.610 -0.5138  0.1433 -0.0531
   84MOL0     C10997  -2.164   1.127   2.496  0.1442  0.0389 -0.6326
   84MOL0     C10998  -2.276   1.209   2.433 -0.1389 -0.0784 -0.1144
   84MOL0     C10999  -2.352   1.122   2.330 -0.3900  0.2869 -0.2758
   84MOL0    Cl11000  -2.444   0.992   2.421 -0.9951 -0.0698 -0.0319
   84MOL0     C11001  -1.447   1.502   2.836 -0.0106 -1.1093 -1.0341
   84MOL0     C11002  -1.343   1.552   2.914 -0.7392  0.4430  0.5120
   84MOL0     O11003  -1.222   1.932   2.943 -0.8373 -0.1946  0.2483
   84MOL0     C11004  -0.897   1.804   3.018 -0.6159  0.3977  0.1781
   84MOL0     C11005  -0.782   1.857   3.078 -0.0142 -0.3200 -0.3328
   84MOL0     N11006  -0.503   2.623   3.299 -0.0150 -0.3286  0.0711
   84MOL0     N11007  -0.479   2.735   3.356 -0.2039  0.9317 -1.0177
   84MOL0     C11008   0.721   3.253   3.031  0.3557 -0.9465 -0.4858
   84MOL0     C11009   0.838   3.273   2.963 -0.4348  0.1603  1.0400
   84MOL0     C11010   1.252   3.417   2.895  0.3879 -0.0087  0.3900
   84MOL0     C11011   1.235   3.421   2.752  0.3203  0.3498  0.4924
   84MOL0     C11012   1.347   3.432   2.678  0.0426  0.2188  0.6476
   84MOL0     C11013   1.484   3.432   2.726  0.1790  0.7177  0.0321
   84MOL0     O11014   1.606   3.452   2.655 -0.5629 -0.2803  0.2625
   84MOL0     C11015   1.595   3.455   2.509  0.5506 -0.4091 -0.0218
   84MOL0     C11016   1.727   3.516   2.457 -0.0216  1.0972  0.0359
   84MOL0     C11017   1.759   3.652   2.510 -0.5646 -0.7026 -0.5719
   84MOL0     C11018   1.885   3.718   2.451 -0.0791  0.9745 -0.4229
   84MOL0     C11019   2.004   3.643   2.487  0.8876 -0.5489 -0.5785
   84MOL0     C11020   2.101   3.570   2.509 -0.5447  0.0404  0.2705
   84MOL0     C11021   1.493   3.429   2.861 -0.1571 -0.2172  0.1883
   84MOL0     C11022   1.380   3.428   2.946 -0.8298  0.2017 -0.5156
   84MOL0     H11023   0.922   3.571   3.110 -1.3837  0.2147  2.5844
   84MOL0     H11024   0.701   3.522   3.229 -0.6916 -0.8469  0.9845
   84MOL0     H11025   0.552   3.106   3.192 -1.4407 -1.3339 -2.0624
   84MOL0     H11026   0.461   3.191   3.058 -0.3146  3.5524 -0.1356
   84MOL0     H11027   0.294   3.272   3.238 -0.2422 -0.6757 -0.2324
   84MOL0     H11028   0.395   3.195   3.359  1.1178 -0.7475 -0.4306
   84MOL0     H11029   0.354   2.979   3.276  1.7669  1.3881  0.5257
   84MOL0     H11030   0.238   3.046   3.148 -0.6751  0.3914  0.8630
   84MOL0     H11031   0.186   3.069   3.444  0.1444  2.4007 -0.2529
   84MOL0     H11032   0.108   3.147   3.310  0.5685 -0.4619 -1.5482
   84MOL0     H11033   0.139   2.845   3.324 -2.1593 -2.2222 -0.7575
   84MOL0     H11034   0.033   2.935   3.208  0.7144  2.7017 -0.8664
   84MOL0     H11035  -0.109   3.021   3.390  2.1132  1.6163  0.5913
   84MOL0     H11036  -0.011   2.933   3.511 -0.0616  0.4643  0.2080
   84MOL0     H11037  -0.173   2.804   3.284  2.0904  2.6877 -0.7776
   84MOL0     H11038  -0.081   2.727   3.413 -0.3847 -0.3554 -1.7068
   84MOL0     H11039  -0.324   2.924   3.451 -3.1758 -1.3892 -0.0795
   84MOL0     H11040  -0.240   2.821   3.573 -0.9044  1.8391 -0.4846
   84MOL0     H11041  -0.214   2.542   3.435 -0.2685 -0.3123 -0.2652
   84MOL0     H11042  -0.304   2.346   3.256 -0.4489 -3.1579 -1.7395
   84MOL0     H11043  -0.444   2.391   3.172 -1.7151  0.8022  0.1631
   84MOL0     H11044  -0.572   2.329   3.420 -0.3653  0.7652 -1.7122
   84MOL0     H11045  -0.415   2.275   3.458 -2.3517  1.7482  1.6550
   84MOL0     H11046  -0.418   2.105   3.263 -0.9250 -2.0178  0.0457
   84MOL0     H11047  -0.545   2.095   3.395 -2.7099 -0.8008 -0.9755
   84MOL0     H11048  -0.606   2.236   3.130 -2.2478  0.5252 -0.4077
   84MOL0     H11049  -0.701   2.208   3.270  0.8807  0.4200  0.8899
   84MOL0     H11050  -0.851   2.201   3.069 -1.9025 -1.0335 -0.1397
   84MOL0     H11051  -1.054   2.105   2.979  3.7765  2.1174 -0.6202
   84MOL0     H11052  -1.247   1.810   2.712 -0.1228 -0.3061 -1.1262
   84MOL0     H11053  -1.433   1.721   2.578  0.8755  1.1866  0.1420
   84MOL0     H11054  -1.738   1.533   2.758  1.1186  0.3651  0.5146
   84MOL0     H11055  -1.664   1.374   2.726  0.3155 -0.1790 -1.6152
   84MOL0     H11056  -1.717   1.384   2.492  1.3562  1.2042 -0.3937
   84MOL0     H11057  -1.820   1.526   2.527  0.7944  1.3168  0.6540
   84MOL0     H11058  -1.932   1.377   2.720  2.9483  2.3284  0.9469
   84MOL0     H11059  -1.828   1.249   2.664  0.9352  0.1959 -1.8673
   84MOL0     H11060  -2.044   1.387   2.499  1.9026  0.5806 -1.2147
   84MOL0     H11061  -1.938   1.254   2.449 -2.4365 -1.1974 -0.3076
   84MOL0     H11062  -2.145   1.270   2.677 -0.9012 -0.0243 -0.2191
   84MOL0     H11063  -2.032   1.133   2.669 -1.6607 -0.7151  0.0036
   84MOL0     H11064  -2.216   1.041   2.540 -0.0934  0.5394  0.0941
   84MOL0     H11065  -2.096   1.091   2.419  0.2137 -2.6078  0.5343
   84MOL0     H11066  -2.344   1.240   2.512  2.5325  2.6398  1.3272
   84MOL0     H11067  -2.241   1.302   2.388  0.0402 -0.2086 -0.2475
   84MOL0     H11068  -2.288   1.075   2.254 -0.8575 -1.0443  0.1297
   84MOL0     H11069  -2.421   1.183   2.272  0.2900  2.0122  0.6607
   84MOL0     H11070  -1.492   1.408   2.869 -0.2029 -0.4136  0.8083
   84MOL0     H11071  -1.323   1.501   3.008  0.8775 -0.3580 -0.2306
   84MOL0     H11072  -0.907   1.696   3.016  1.5464  0.1017  1.8776
   84MOL0     H11073  -0.713   1.790   3.127  3.4534  3.9274  1.2604
   84MOL0     H11074   0.674   3.161   2.997 -0.5688 -0.2662 -1.0601
   84MOL0     H11075   0.884   3.201   2.897  0.4084  1.2534  0.4098
   84MOL0     H11076   1.139   3.418   2.702  1.0349  0.2504 -0.9052
   84MOL0     H11077   1.337   3.444   2.571  0.0447  2.8744  0.8703
   84MOL0     H11078   1.503   3.502   2.471 -0.5819 -1.9384  0.7137
   84MOL0     H11079   1.582   3.348   2.490  1.5708 -0.6390  0.5481
   84MOL0     H11080   1.807   3.448   2.488  0.4816  0.5107 -2.3609
   84MOL0     H11081   1.733   3.517   2.348 -3.9078  2.9661 -0.3192
   84MOL0     H11082   1.766   3.660   2.619  1.4179  1.5385 -0.7755
   84MOL0     H11083   1.675   3.716   2.482 -1.2354 -1.5209 -0.4632
   84MOL0     H11084   1.889   3.712   2.341  2.9566 -1.3911 -0.3266
   84MOL0     H11085   1.895   3.825   2.474 -0.6775  0.9705 -0.1328
   84MOL0     H11086   2.185   3.506   2.526 -1.3859 -1.0456  0.4308
   84MOL0     H11087   1.590   3.417   2.908  0.5871  0.5009 -1.1190
   84MOL0     H11088   1.395   3.432   3.053 -1.5767 -0.2120 -0.3955
   85MOL0     O11089   6.287   7.729   4.737  0.5873  0.1079  0.1533
   85MOL0     C11090   6.345   7.628   4.711 -0.2925  0.1099  0.5238
   85MOL0     O11091   6.296   7.501   4.743 -0.2373  1.1436  0.0745
   85MOL0     C11092   6.168   7.482   4.764  0.5682  0.0480  0.0976
   85MOL0     C11093   6.122   7.515   4.894 -0.3460 -0.1659 -0.6675
   85MOL0     C11094   5.990   7.508   4.929 -0.4423  0.7385  1.5260
   85MOL0     C11095   5.898   7.469   4.831  0.8983 -0.7051  0.6465
   85MOL0     O11096   5.769   7.459   4.875 -0.4914  0.3163  0.6365
   85MOL0     C11097   5.672   7.399   4.792  0.4065 -0.3598  0.7313
   85MOL0     C11098   5.535   7.408   4.848  0.5675 -0.1729  0.4178
   85MOL0     C11099   5.422   7.390   4.746 -0.3424  0.0180  0.0550
   85MOL0     C11100   5.289   7.339   4.800 -0.2138  0.5219  0.6862
   85MOL0     C11101   5.208   7.448   4.874  0.0611  0.6545  0.5484
   85MOL0     C11102   5.058   7.399   4.898 -0.6936 -0.0687  0.3139
   85MOL0     C11103   5.047   7.285   5.004 -0.3889 -0.7663  0.1364
   85MOL0     C11104   4.936   7.180   4.965  0.3319 -0.1268  0.0501
   85MOL0     N11105   4.808   7.249   4.960  1.2020 -0.1142 -0.5189
   85MOL0     C11106   4.747   7.310   4.858 -0.1222  0.6974  0.7062
   85MOL0     C11107   4.628   7.348   4.907 -0.0975 -0.0108 -0.2325
   85MOL0     C11108   4.529   7.401   4.809  0.8997  0.5462  0.2413
   85MOL0     C11109   4.389   7.402   4.875 -0.7095 -0.5374  0.1987
   85MOL0     C11110   4.310   7.511   4.812  0.3791 -0.1262 -0.9012
   85MOL0     C11111   4.163   7.497   4.846  0.1309  0.4669  0.0351
   85MOL0     O11112   4.091   7.602   4.773 -0.0379  0.4590  0.5966
   85MOL0     C11113   3.965   7.631   4.810  0.6872 -0.1798  0.8052
   85MOL0     C11114   3.880   7.544   4.888  0.7757 -0.1659  1.0349
   85MOL0     C11115   3.747   7.585   4.908 -0.4740 -0.4690 -0.1000
   85MOL0     C11116   3.681   7.698   4.855  0.3296 -0.4113 -1.0364
   85MOL0     C11117   3.534   7.722   4.873  0.3485 -0.0230  0.6406
   85MOL0     O11118   3.470   7.815   4.789  0.0077  0.5546 -0.1847
   85MOL0     C11119   3.336   7.846   4.806 -0.2414 -0.0081 -0.3169
   85MOL0     C11120   3.299   7.980   4.835  1.4189 -0.3452  0.1887
   85MOL0     C11121   3.163   8.013   4.855 -0.3789 -0.2641  0.6678
   85MOL0     C11122   3.067   7.917   4.837 -0.7418 -0.7491  0.0041
   85MOL0     O11123   2.934   7.947   4.845  0.0505  0.8075 -0.5377
   85MOL0     C11124   2.894   8.044   4.935  0.1635 -0.1770  0.7381
   85MOL0     C11125   2.748   8.052   4.918  0.8500  0.0549 -0.1146
   85MOL0     C11126   2.690   8.161   5.001  0.6104 -0.7511 -1.1992
   85MOL0     C11127   2.540   8.166   4.977 -0.3655 -0.0100  0.5649
   85MOL0     C11128   2.477   8.275   5.063  0.3493 -0.2755  0.1062
   85MOL0     C11129   2.317   8.271   5.056  0.1282  0.2369  0.5602
   85MOL0     C11130   2.257   8.139   5.111  0.8729 -0.4359  0.8440
   85MOL0     C11131   2.109   8.149   5.117  0.6343  0.2762 -0.2550
   85MOL0    Cl11132   2.033   8.257   4.984  0.3127  0.2573  0.0025
   85MOL0     C11133   3.098   7.789   4.800  0.4048 -0.2646 -0.1385
   85MOL0     C11134   3.232   7.752   4.777 -0.3160 -0.5106  0.4658
   85MOL0     O11135   3.480   7.664   4.971  0.4188 -0.3405  0.0376
   85MOL0     C11136   3.766   7.773   4.772 -0.0310 -0.4503  0.1221
   85MOL0     C11137   3.901   7.737   4.747  0.1584  0.9246  0.0252
   85MOL0     N11138   4.622   7.321   5.041 -0.2020  0.8654  0.6770
   85MOL0     N11139   4.728   7.254   5.071  0.5166 -0.1295  0.2730
   85MOL0     C11140   5.946   7.447   4.701  0.2709  0.5599  0.1031
   85MOL0     C11141   6.074   7.449   4.670 -0.1872 -0.4053  0.5577
   85MOL0     C11142   6.479   7.639   4.658  0.3255  0.5233  0.8659
   85MOL0     C11143   6.561   7.529   4.627 -0.0126 -0.3365 -0.7719
   85MOL0     C11144   6.690   7.549   4.571  0.1040 -0.8549 -0.4450
   85MOL0     C11145   6.740   7.684   4.553 -0.2942  0.5169  0.2381
   85MOL0     O11146   6.871   7.705   4.513  0.1536 -0.6202 -0.1086
   85MOL0     C11147   6.932   7.831   4.528  0.1829 -0.5373  0.7032
   85MOL0     C11148   7.066   7.822   4.457  0.1469  0.5220 -0.1694
   85MOL0     C11149   7.165   7.916   4.520 -0.1668  0.2362 -0.3544
   85MOL0     C11150   7.296   7.893   4.439  1.1661  0.0104 -0.2072
   85MOL0     C11151   7.398   7.983   4.490  0.0184  0.4379  0.5289
   85MOL0     C11152   7.477   8.070   4.526 -0.3156  0.4624 -0.4807
   85MOL0     C11153   6.653   7.785   4.578  0.3338 -0.6352 -0.8408
   85MOL0     C11154   6.523   7.759   4.625  0.3079  0.0474  0.0439
   85MOL0     H11155   6.199   7.547   4.964 -2.0766 -0.7231  1.6121
   85MOL0     H11156   5.950   7.538   5.025 -1.3803  2.3717  0.6696
   85MOL0     H11157   5.681   7.291   4.776 -1.4832 -0.3917 -0.3396
   85MOL0     H11158   5.670   7.458   4.701  0.6088  0.4719  1.2592
   85MOL0     H11159   5.535   7.504   4.900  3.6886 -0.9385  2.0965
   85MOL0     H11160   5.526   7.327   4.921 -0.6693  0.8007  1.3998
   85MOL0     H11161   5.458   7.317   4.673  0.8252  0.4077  0.2211
   85MOL0     H11162   5.416   7.479   4.683  0.2890  0.0879  0.0829
   85MOL0     H11163   5.234   7.304   4.711 -1.1383 -1.0197  1.8151
   85MOL0     H11164   5.298   7.253   4.867 -2.9123 -0.8092 -0.4961
   85MOL0     H11165   5.196   7.539   4.815  0.6023 -0.8131 -1.9939
   85MOL0     H11166   5.257   7.473   4.969  0.9614 -1.0179  0.5603
   85MOL0     H11167   5.017   7.373   4.800  0.7477 -0.0562 -0.3253
   85MOL0     H11168   4.999   7.487   4.924 -2.5906 -1.5193  1.1773
   85MOL0     H11169   5.139   7.227   5.002  0.2085  0.1681 -1.3010
   85MOL0     H11170   5.020   7.326   5.101  2.4062  0.1341  0.5935
   85MOL0     H11171   4.925   7.103   5.042 -0.6252  1.3474  1.4618
   85MOL0     H11172   4.954   7.129   4.871 -1.6000 -1.0148  0.1151
   85MOL0     H11173   4.795   7.320   4.761  2.4575 -1.1891  1.6793
   85MOL0     H11174   4.521   7.336   4.721  1.2249 -0.5037  0.9784
   85MOL0     H11175   4.570   7.496   4.775  0.7789  0.3009 -0.6119
   85MOL0     H11176   4.405   7.443   4.975  0.1016  1.9012 -0.8524
   85MOL0     H11177   4.338   7.306   4.877  0.3869 -1.1489 -0.5027
   85MOL0     H11178   4.341   7.612   4.839 -2.2085  0.8360 -1.2917
   85MOL0     H11179   4.319   7.492   4.704 -0.3605 -0.4743 -0.9043
   85MOL0     H11180   4.143   7.520   4.951 -0.4873 -0.2787  0.0888
   85MOL0     H11181   4.133   7.397   4.814  2.3976  0.2736 -1.7475
   85MOL0     H11182   3.919   7.451   4.929 -0.4917 -0.6448  1.1906
   85MOL0     H11183   3.687   7.526   4.976 -2.1491  1.7690  0.4722
   85MOL0     H11184   3.374   8.054   4.860 -1.2148  1.7602  2.3924
   85MOL0     H11185   3.146   8.115   4.887 -1.2337 -0.0883 -0.3143
   85MOL0     H11186   2.927   8.144   4.906 -5.3415  0.9849 -3.2686
   85MOL0     H11187   2.918   8.021   5.039  1.5219  2.0809  0.9871
   85MOL0     H11188   2.699   7.956   4.938  2.1348 -0.6981 -0.4894
   85MOL0     H11189   2.725   8.063   4.812  1.8451 -1.2522 -0.4895
   85MOL0     H11190   2.726   8.258   4.965 -2.3079  0.1406 -1.9905
   85MOL0     H11191   2.711   8.145   5.107  0.2912  3.0497 -0.4193
   85MOL0     H11192   2.518   8.180   4.871  3.0035 -1.0113 -0.4040
   85MOL0     H11193   2.499   8.068   5.002  1.1918 -1.7215 -2.8496
   85MOL0     H11194   2.518   8.371   5.030  3.2834 -0.9438  1.4465
   85MOL0     H11195   2.501   8.258   5.168 -1.7720 -0.2534  0.6453
   85MOL0     H11196   2.285   8.269   4.951  0.3505 -1.5614  0.4968
   85MOL0     H11197   2.270   8.353   5.112  0.2419 -0.0883  1.1383
   85MOL0     H11198   2.278   8.061   5.037 -0.3021 -0.9408  1.0176
   85MOL0     H11199   2.292   8.110   5.210 -0.3566  0.4467  1.5670
   85MOL0     H11200   2.079   8.188   5.215  0.8436  0.3438 -0.2186
   85MOL0     H11201   2.072   8.046   5.116  1.0682  0.0454  1.8770
   85MOL0     H11202   3.013   7.722   4.801 -0.8595  1.2568 -0.8316
   85MOL0     H11203   3.266   7.649   4.766  0.0650 -0.3541  0.1435
   85MOL0     H11204   3.729   7.866   4.729  0.5808  0.3026  1.1743
   85MOL0     H11205   3.953   7.808   4.684  0.7918  0.3752 -0.0779
   85MOL0     H11206   5.879   7.414   4.623  1.3690  1.1085 -1.0951
   85MOL0     H11207   6.111   7.426   4.571 -0.1823 -2.9716  1.1032
   85MOL0     H11208   6.525   7.430   4.652 -1.1507  0.3036  0.2377
   85MOL0     H11209   6.756   7.475   4.526 -0.1718 -2.7027  1.9222
   85MOL0     H11210   6.948   7.857   4.633 -0.0644 -0.4289  0.7157
   85MOL0     H11211   6.872   7.912   4.484  0.1500 -1.5536 -1.2103
   85MOL0     H11212   7.102   7.718   4.456 -2.0667 -0.3120 -1.7457
   85MOL0     H11213   7.056   7.840   4.349  3.0800 -1.8446 -0.9980
   85MOL0     H11214   7.175   7.888   4.625  1.8200  0.6833 -0.3852
   85MOL0     H11215   7.129   8.019   4.514  1.0061  0.6430 -0.7775
   85MOL0     H11216   7.329   7.791   4.460 -0.6191 -0.3782  0.9458
   85MOL0     H11217   7.277   7.901   4.332  1.2515  1.7280 -0.1345
   85MOL0     H11218   7.543   8.149   4.556 -1.9034  0.9036  2.1843
   85MOL0     H11219   6.687   7.887   4.559  4.6408 -1.2385  2.1866
   85MOL0     H11220   6.459   7.844   4.644 -1.0646 -1.2920  1.7280
   86MOL0     O11221   2.722   1.824   7.524 -0.1662  0.1569  0.0200
   86MOL0     C11222   2.783   1.903   7.598 -0.4026  0.0383  0.1531
   86MOL0     O11223   2.739   1.973   7.707  0.1741 -0.5534  0.2620
   86MOL0     C11224   2.604   1.997   7.715 -0.1161 -0.0434 -0.1280
   86MOL0     C11225   2.533   2.075   7.620 -0.1135  0.0454 -0.7262
   86MOL0     C11226   2.394   2.092   7.649 -0.5154 -0.2826 -0.0538
   86MOL0     C11227   2.331   2.043   7.758 -0.3232  0.4070 -0.6646
   86MOL0     O11228   2.191   2.069   7.775 -0.1247 -0.0277  0.1712
   86MOL0     C11229   2.114   1.995   7.872  0.0348 -0.2325 -0.7148
   86MOL0     C11230   1.976   2.060   7.888 -0.3823 -0.4803  0.6664
   86MOL0     C11231   1.894   1.983   7.995  0.2402  0.6090 -0.4636
   86MOL0     C11232   1.799   2.073   8.090 -0.2421  1.1218 -0.4584
   86MOL0     C11233   1.652   2.019   8.076 -0.1456 -0.9082  0.2533
   86MOL0     C11234   1.564   2.085   8.193 -1.0303  0.6583  0.2938
   86MOL0     C11235   1.572   2.238   8.201  0.1060 -0.3344 -0.0460
   86MOL0     C11236   1.503   2.302   8.078 -0.7219  0.1225  0.0053
   86MOL0     N11237   1.358   2.292   8.080  0.1492  0.1759  0.6480
   86MOL0     C11238   1.269   2.359   8.161 -0.1164  0.6046 -0.1390
   86MOL0     C11239   1.149   2.304   8.149 -1.2060  0.6892  0.5836
   86MOL0     C11240   1.022   2.351   8.221 -0.1515  0.0920  0.5770
   86MOL0     C11241   0.913   2.371   8.119 -0.3090 -0.5745  0.4441
   86MOL0     C11242   0.780   2.396   8.197 -0.0321  0.1657 -0.5272
   86MOL0     C11243   0.671   2.448   8.103 -0.4991 -0.3500  0.3421
   86MOL0     O11244   0.577   2.538   8.167 -0.6237  0.2806 -0.1584
   86MOL0     C11245   0.463   2.573   8.095  0.3233  0.4210  0.0343
   86MOL0     C11246   0.343   2.587   8.166 -0.9465  0.0643 -0.0864
   86MOL0     C11247   0.224   2.631   8.105 -0.6436 -0.2745  0.1270
   86MOL0     C11248   0.225   2.671   7.968  0.4666  0.0574 -0.0262
   86MOL0     C11249   0.108   2.741   7.906  1.0175 -0.3757 -0.2131
   86MOL0     O11250  -0.014   2.716   7.962  0.2638 -0.4220 -0.1077
   86MOL0     C11251  -0.124   2.784   7.918  0.1793  0.1969 -0.0971
   86MOL0     C11252  -0.192   2.877   7.999 -0.3573  0.2403 -0.1994
   86MOL0     C11253  -0.288   2.962   7.934 -0.2937 -0.4344  0.4106
   86MOL0     C11254  -0.320   2.940   7.793 -0.1008  0.1003 -0.2266
   86MOL0     O11255  -0.406   3.028   7.741  0.4510  0.8605  0.0712
   86MOL0     C11256  -0.509   2.981   7.651  0.1798 -0.8898 -0.5907
   86MOL0     C11257  -0.615   3.088   7.628 -0.4556 -0.2135 -0.3312
   86MOL0     C11258  -0.752   3.018   7.571 -1.1320  0.7384 -0.1906
   86MOL0     C11259  -0.859   3.111   7.517  0.8734  0.2072 -0.8541
   86MOL0     C11260  -0.804   3.228   7.434  0.0849 -0.4462  0.1172
   86MOL0     C11261  -0.725   3.189   7.314 -0.0565  0.4376 -0.2534
   86MOL0     C11262  -0.671   3.320   7.242 -0.0319 -0.5130  0.4966
   86MOL0     C11263  -0.560   3.293   7.134 -0.9202 -0.0258  0.0538
   86MOL0    Cl11264  -0.410   3.264   7.215  0.0735  0.2221  0.3005
   86MOL0     C11265  -0.268   2.833   7.728  0.1259  0.0404  0.9682
   86MOL0     C11266  -0.166   2.757   7.790 -0.1565  0.4088  0.2966
   86MOL0     O11267   0.129   2.826   7.817  0.2157  0.1383 -0.1419
   86MOL0     C11268   0.344   2.649   7.896  0.2215 -0.0618  0.0884
   86MOL0     C11269   0.459   2.605   7.957  0.1196  0.2201  0.2162
   86MOL0     N11270   1.161   2.206   8.054  0.1805 -0.3211  0.5459
   86MOL0     N11271   1.283   2.197   8.012 -0.0821  0.6387 -1.0121
   86MOL0     C11272   2.406   1.966   7.846  0.8834 -1.1616  0.1866
   86MOL0     C11273   2.546   1.948   7.834  0.7091  0.6737 -0.2248
   86MOL0     C11274   2.929   1.921   7.568  0.2290  0.0842  0.0607
   86MOL0     C11275   3.005   2.029   7.625 -0.6278  0.4278 -0.5741
   86MOL0     C11276   3.138   2.042   7.591  0.0564  0.1886  0.4382
   86MOL0     C11277   3.202   1.946   7.497  0.1940 -0.7805  0.5578
   86MOL0     O11278   3.327   1.961   7.456 -0.5639  0.2505 -0.0408
   86MOL0     C11279   3.400   2.063   7.506 -0.3054  0.0477  0.1517
   86MOL0     C11280   3.550   2.053   7.472 -0.1222  0.2894  0.5264
   86MOL0     C11281   3.601   2.201   7.476  0.2304  1.1017  0.7428
   86MOL0     C11282   3.744   2.196   7.395 -1.0209 -0.4231  0.6027
   86MOL0     C11283   3.723   2.199   7.249 -0.2131 -1.1028  0.3701
   86MOL0     C11284   3.696   2.211   7.131  0.1650 -0.0851 -1.0778
   86MOL0     C11285   3.117   1.851   7.445 -0.1982 -0.6371  1.0798
   86MOL0     C11286   2.989   1.829   7.479  0.4313 -0.2708 -0.8178
   86MOL0     H11287   2.585   2.124   7.538  0.8452  3.2176  1.5912
   86MOL0     H11288   2.338   2.150   7.576 -1.8645  0.4595  1.5099
   86MOL0     H11289   2.166   1.997   7.968  0.9997  0.6413 -1.2304
   86MOL0     H11290   2.115   1.890   7.842  0.8740 -2.6278  6.0446
   86MOL0     H11291   1.924   2.060   7.792  0.2007 -3.0500  0.2758
   86MOL0     H11292   1.991   2.164   7.919  0.2688 -1.2436  3.1210
   86MOL0     H11293   1.964   1.932   8.062  1.5547 -0.4858 -2.5608
   86MOL0     H11294   1.830   1.907   7.949 -1.4130  1.0890  0.9476
   86MOL0     H11295   1.840   2.068   8.191 -0.3413  0.9257 -0.4277
   86MOL0     H11296   1.798   2.178   8.058 -0.7552  0.8191 -1.5005
   86MOL0     H11297   1.659   1.910   8.084  1.6562 -0.9153 -0.9129
   86MOL0     H11298   1.603   2.046   7.982 -1.6332 -0.9919  0.9766
   86MOL0     H11299   1.598   2.030   8.281 -1.1023 -1.9306 -1.2173
   86MOL0     H11300   1.459   2.065   8.168 -0.8904  1.0557 -0.6451
   86MOL0     H11301   1.517   2.268   8.290  0.1729 -0.9829  0.2195
   86MOL0     H11302   1.676   2.271   8.214  0.1931 -0.8209  0.5356
   86MOL0     H11303   1.532   2.252   7.985 -1.6395 -2.5420  1.0485
   86MOL0     H11304   1.537   2.406   8.083 -0.1165 -0.1265  2.7801
   86MOL0     H11305   1.291   2.439   8.230  2.4467  0.7763 -1.0283
   86MOL0     H11306   1.050   2.444   8.270  1.2130 -1.0465  2.0650
   86MOL0     H11307   0.994   2.289   8.307  2.1655 -1.0497  0.5757
   86MOL0     H11308   0.906   2.290   8.046  1.6583  0.5962 -1.1103
   86MOL0     H11309   0.933   2.463   8.064 -2.4174  1.5306  2.8805
   86MOL0     H11310   0.758   2.302   8.248  5.4614 -1.4444 -0.4811
   86MOL0     H11311   0.799   2.471   8.274  3.5416  0.8502 -1.8980
   86MOL0     H11312   0.618   2.360   8.066 -1.4638 -0.5906  2.1700
   86MOL0     H11313   0.715   2.501   8.018 -1.5493 -2.1563 -1.3936
   86MOL0     H11314   0.350   2.570   8.273  0.0444 -0.2160 -0.1874
   86MOL0     H11315   0.136   2.643   8.166 -0.2339 -0.7500  0.8218
   86MOL0     H11316  -0.160   2.894   8.102 -0.4517  1.1996 -0.3157
   86MOL0     H11317  -0.334   3.038   7.995  1.1950  0.7767  0.0828
   86MOL0     H11318  -0.549   2.885   7.686  0.6230 -0.5510  0.9528
   86MOL0     H11319  -0.452   2.960   7.560  3.4290 -1.6946  1.4665
   86MOL0     H11320  -0.572   3.156   7.554  0.9363  0.9198  1.4256
   86MOL0     H11321  -0.641   3.157   7.709 -0.8372 -0.0951 -0.5576
   86MOL0     H11322  -0.789   2.954   7.652  1.4172 -1.6320 -0.7464
   86MOL0     H11323  -0.730   2.943   7.495 -0.2341  1.5366 -0.7291
   86MOL0     H11324  -0.934   3.050   7.466 -1.2253  2.2856 -0.4399
   86MOL0     H11325  -0.900   3.162   7.605  3.7224 -0.7913  1.1966
   86MOL0     H11326  -0.749   3.283   7.510 -0.3421 -3.2262  2.6772
   86MOL0     H11327  -0.895   3.277   7.398  2.2202  2.3682 -1.8418
   86MOL0     H11328  -0.793   3.125   7.258  0.4959 -1.8661  1.5663
   86MOL0     H11329  -0.642   3.124   7.342 -0.4437 -0.0130 -0.1499
   86MOL0     H11330  -0.752   3.367   7.185  0.6091 -1.4530 -1.2426
   86MOL0     H11331  -0.632   3.390   7.317 -0.6121  1.4061 -0.9370
   86MOL0     H11332  -0.538   3.384   7.077  0.8086 -0.6416 -0.3059
   86MOL0     H11333  -0.595   3.211   7.071 -1.2636  0.4313 -0.3598
   86MOL0     H11334  -0.284   2.822   7.622  0.7288  1.9494  0.6408
   86MOL0     H11335  -0.112   2.681   7.735  0.4853 -1.2079  2.9897
   86MOL0     H11336   0.351   2.680   7.792  2.1246  2.5115  0.8811
   86MOL0     H11337   0.546   2.588   7.894 -0.7695 -2.1693 -0.4899
   86MOL0     H11338   2.348   1.914   7.921 -2.5813  1.1729 -0.6219
   86MOL0     H11339   2.603   1.894   7.909 -1.2239  1.3548  1.8251
   86MOL0     H11340   2.960   2.108   7.684 -0.2638  1.3968 -1.5608
   86MOL0     H11341   3.189   2.136   7.610  1.1705  0.4694 -3.1183
   86MOL0     H11342   3.386   2.064   7.615 -2.6602 -1.1222 -0.0671
   86MOL0     H11343   3.368   2.163   7.476  1.7664  0.9785  0.8480
   86MOL0     H11344   3.603   1.994   7.548 -2.2453 -1.4312  0.7873
   86MOL0     H11345   3.568   2.011   7.372  1.0206  0.4787  0.6459
   86MOL0     H11346   3.600   2.235   7.580  2.3003 -1.8621  1.8887
   86MOL0     H11347   3.543   2.268   7.413 -1.1274 -0.3324  0.4168
   86MOL0     H11348   3.798   2.290   7.413  0.0527 -0.8533 -0.2810
   86MOL0     H11349   3.812   2.120   7.435  1.0934  0.4665 -1.0751
   86MOL0     H11350   3.668   2.219   7.028  0.8778 -0.0122 -1.2712
   86MOL0     H11351   3.154   1.784   7.368 -2.6581 -2.5786  1.4583
   86MOL0     H11352   2.937   1.751   7.426 -0.8881 -0.6903  0.9948
   87MOL0     O11353   8.460   6.703   0.004  0.0213 -0.2451  0.0224
   87MOL0     C11354   8.530   6.594  -0.005 -0.2527 -0.3500  0.3094
   87MOL0     O11355   8.479   6.474   0.026 -0.0163 -0.0027  0.1632
   87MOL0     C11356   8.347   6.455   0.057  0.1605  0.3612  0.5929
   87MOL0     C11357   8.245   6.519  -0.020  0.6031 -0.5556  0.7050
   87MOL0     C11358   8.112   6.508   0.023 -0.1830  0.5841 -0.0400
   87MOL0     C11359   8.076   6.422   0.130  0.4106  0.0475  0.0032
   87MOL0     O11360   7.947   6.402   0.168  0.2173 -0.3178 -0.0113
   87MOL0     C11361   7.843   6.500   0.141  0.4548 -0.5110  0.0650
   87MOL0     C11362   7.706   6.452   0.182 -0.1014  0.4706 -0.2368
   87MOL0     C11363   7.659   6.319   0.110 -1.0020 -0.0294  0.5687
   87MOL0     C11364   7.535   6.256   0.161  0.7740 -0.1939 -0.3852
   87MOL0     C11365   7.468   6.146   0.079  0.4984  0.0689 -0.2822
   87MOL0     C11366   7.378   6.054   0.161 -0.2875 -0.5679  0.4362
   87MOL0     C11367   7.339   5.915   0.094  0.0782  0.4905 -1.0797
   87MOL0     C11368   7.239   5.949  -0.019 -0.0793  0.0688  0.3982
   87MOL0     N11369   7.205   5.828  -0.099  0.5635  0.1602 -0.2240
   87MOL0     C11370   7.095   5.744  -0.088  0.1009 -0.4466  0.6441
   87MOL0     C11371   7.099   5.676  -0.196 -0.1380 -0.3509  0.1554
   87MOL0     C11372   6.994   5.580  -0.227 -0.5738  0.4440 -0.4710
   87MOL0     C11373   6.899   5.636  -0.335 -0.0559 -0.2652 -0.4941
   87MOL0     C11374   6.818   5.747  -0.294  0.4542 -0.1630 -0.5421
   87MOL0     C11375   6.722   5.779  -0.401 -0.4436  0.0900  0.7633
   87MOL0     O11376   6.636   5.886  -0.352  0.1696 -0.1116 -0.5645
   87MOL0     C11377   6.524   5.906  -0.431  0.2684  0.2987  0.6109
   87MOL0     C11378   6.497   5.862  -0.564  0.1521  0.6750 -0.4460
   87MOL0     C11379   6.385   5.912  -0.637 -0.1774  0.9087  0.4276
   87MOL0     C11380   6.283   5.984  -0.568 -0.4813 -0.1324 -0.1059
   87MOL0     C11381   6.161   6.038  -0.633  0.6775  0.0077  1.0418
   87MOL0     O11382   6.107   5.973  -0.751  0.0101  0.2802  0.2629
   87MOL0     C11383   5.991   6.040  -0.799 -0.1046  0.1822  0.1149
   87MOL0     C11384   5.867   6.016  -0.749  0.4427 -0.6071  0.4510
   87MOL0     C11385   5.754   6.070  -0.793 -0.2501 -0.0418 -0.1179
   87MOL0     C11386   5.760   6.143  -0.911 -0.7269  1.1699 -0.9448
   87MOL0     O11387   5.637   6.184  -0.962  0.2857  0.2102 -1.0158
   87MOL0     C11388   5.628   6.251  -1.090  0.1011  0.7636 -0.0428
   87MOL0     C11389   5.490   6.305  -1.109  0.0653  0.0019 -0.8826
   87MOL0     C11390   5.474   6.393  -1.232 -0.0098 -0.3641 -0.7698
   87MOL0     C11391   5.334   6.451  -1.228  0.0463 -0.2333  0.7317
   87MOL0     C11392   5.234   6.346  -1.284 -0.0469 -0.1482  0.0219
   87MOL0     C11393   5.098   6.399  -1.292  0.2260 -0.5556 -0.8111
   87MOL0     C11394   4.994   6.291  -1.305  1.0639  0.6483  0.6920
   87MOL0     C11395   4.857   6.336  -1.280  0.0301  0.3937 -0.0428
   87MOL0    Cl11396   4.748   6.201  -1.299  0.0353 -0.1115 -0.1101
   87MOL0     C11397   5.884   6.171  -0.972 -0.1279  0.0004  0.1600
   87MOL0     C11398   6.002   6.119  -0.919 -0.2767  0.1846 -0.5941
   87MOL0     O11399   6.120   6.142  -0.588 -0.4522  0.4916  0.5156
   87MOL0     C11400   6.309   6.027  -0.434 -0.2640 -0.7442  0.0001
   87MOL0     C11401   6.429   5.990  -0.374 -0.1954 -0.2006  0.2859
   87MOL0     N11402   7.190   5.714  -0.283 -0.1778  0.3361  0.2555
   87MOL0     N11403   7.264   5.801  -0.223  0.2333 -0.1716  0.6363
   87MOL0     C11404   8.179   6.344   0.185  0.4810  0.2312 -0.5880
   87MOL0     C11405   8.311   6.366   0.151 -0.1080  0.0376  0.3352
   87MOL0     C11406   8.675   6.593  -0.026  0.4797 -0.1064 -0.2228
   87MOL0     C11407   8.735   6.711  -0.072  0.5079  1.1375 -1.3587
   87MOL0     C11408   8.866   6.709  -0.104  0.3308  0.2235  0.1986
   87MOL0     C11409   8.943   6.600  -0.088 -1.1906  0.4601  0.0021
   87MOL0     O11410   9.079   6.618  -0.122 -0.0434  0.4827  0.0839
   87MOL0     C11411   9.178   6.537  -0.057  0.2144  0.3788  0.0048
   87MOL0     C11412   9.286   6.511  -0.161 -0.0191  0.2046 -0.7040
   87MOL0     C11413   9.358   6.642  -0.207 -0.4263 -0.5585 -0.4091
   87MOL0     C11414   9.502   6.602  -0.261 -0.3494  0.4265  0.5617
   87MOL0     C11415   9.559   6.723  -0.315 -1.0023 -0.4979 -0.3006
   87MOL0     C11416   9.611   6.815  -0.373  0.1817  0.5124  0.1455
   87MOL0     C11417   8.886   6.483  -0.044  0.7269  0.3303  0.6610
   87MOL0     C11418   8.749   6.476  -0.017 -0.0128 -1.1991 -0.7178
   87MOL0     H11419   8.278   6.563  -0.114 -0.3681 -3.6669 -1.2174
   87MOL0     H11420   8.038   6.578  -0.017 -1.1596 -0.6539 -0.4658
   87MOL0     H11421   7.842   6.517   0.033 -0.5493 -0.4740  0.0770
   87MOL0     H11422   7.860   6.592   0.197 -3.5342  0.8124 -0.5617
   87MOL0     H11423   7.638   6.535   0.167 -0.5097 -0.2232 -2.5991
   87MOL0     H11424   7.709   6.435   0.290 -1.9357  0.8063 -0.1084
   87MOL0     H11425   7.737   6.243   0.120 -0.1883  0.6237 -0.5981
   87MOL0     H11426   7.657   6.352   0.006  3.4876  0.3494  0.3858
   87MOL0     H11427   7.553   6.224   0.264  1.8663  3.2352  0.6076
   87MOL0     H11428   7.466   6.341   0.167  0.3501 -0.6328  2.1108
   87MOL0     H11429   7.547   6.083   0.038 -0.3735 -2.5695  1.8259
   87MOL0     H11430   7.415   6.199  -0.002  2.0484 -0.8793 -1.9970
   87MOL0     H11431   7.289   6.112   0.187 -0.1884  1.1361 -2.5194
   87MOL0     H11432   7.437   6.030   0.249  0.7615 -0.9210 -0.3384
   87MOL0     H11433   7.428   5.858   0.066 -1.5022 -3.8413  1.7216
   87MOL0     H11434   7.290   5.848   0.165 -0.8281 -0.4307 -2.5329
   87MOL0     H11435   7.270   6.029  -0.087 -1.8331  1.1508  0.7913
   87MOL0     H11436   7.148   5.983   0.031  0.4663  0.6581  1.0081
   87MOL0     H11437   7.031   5.724  -0.002  1.0344 -1.3038  1.1743
   87MOL0     H11438   6.939   5.574  -0.132  3.5138  1.1116  2.2323
   87MOL0     H11439   7.033   5.482  -0.258  1.7467  1.1499 -0.0432
   87MOL0     H11440   6.832   5.550  -0.351  1.2842 -1.6984  1.1127
   87MOL0     H11441   6.947   5.658  -0.430 -1.9322  2.1340 -0.9842
   87MOL0     H11442   6.769   5.725  -0.198  1.5474 -1.3034 -0.2278
   87MOL0     H11443   6.882   5.834  -0.275  2.2233 -1.3139 -1.0415
   87MOL0     H11444   6.666   5.686  -0.418  0.4940 -0.4125  0.3561
   87MOL0     H11445   6.780   5.799  -0.491  3.9747 -0.7260  3.1516
   87MOL0     H11446   6.562   5.795  -0.619  2.9196  4.2367 -1.9093
   87MOL0     H11447   6.372   5.876  -0.738  0.7100 -0.8001  0.8865
   87MOL0     H11448   5.859   5.950  -0.663  2.5774  1.2974  2.2391
   87MOL0     H11449   5.659   6.057  -0.742  0.0006  2.0188  0.9953
   87MOL0     H11450   5.650   6.177  -1.168  0.7029  0.8211  0.0735
   87MOL0     H11451   5.713   6.319  -1.101 -0.6210  1.7091  0.1115
   87MOL0     H11452   5.472   6.370  -1.023  1.9602  0.3360 -0.6930
   87MOL0     H11453   5.417   6.224  -1.105  1.8874 -1.6643  0.1875
   87MOL0     H11454   5.493   6.338  -1.324 -2.4586  1.0741 -2.2346
   87MOL0     H11455   5.546   6.475  -1.221 -1.0606  0.4192  0.7049
   87MOL0     H11456   5.315   6.475  -1.123  4.9679  1.5415  1.4874
   87MOL0     H11457   5.331   6.546  -1.283  4.7519  2.2141  3.9913
   87MOL0     H11458   5.234   6.251  -1.231 -0.9363  0.2378  0.7460
   87MOL0     H11459   5.272   6.312  -1.381  0.4216 -1.1629  0.5523
   87MOL0     H11460   5.093   6.482  -1.363  0.4461  2.3292  2.3011
   87MOL0     H11461   5.082   6.431  -1.189 -1.7888 -3.6691 -0.0058
   87MOL0     H11462   5.000   6.251  -1.406 -0.7870 -2.4294  1.6841
   87MOL0     H11463   5.023   6.212  -1.236 -2.0233  0.2969  1.7351
   87MOL0     H11464   4.824   6.411  -1.352 -2.2433 -1.2337 -0.8270
   87MOL0     H11465   4.841   6.368  -1.177  2.6541 -2.9380  1.6418
   87MOL0     H11466   5.895   6.233  -1.061  0.3049  0.4589  0.5313
   87MOL0     H11467   6.100   6.131  -0.965 -0.8807  2.6361 -1.3936
   87MOL0     H11468   6.235   6.092  -0.387 -0.6113 -1.0295 -0.1476
   87MOL0     H11469   6.455   6.019  -0.273  0.1401 -2.5655  0.9438
   87MOL0     H11470   8.158   6.280   0.271  3.0190  0.4746  0.3304
   87MOL0     H11471   8.390   6.311   0.199  0.4144  0.4765 -0.0147
   87MOL0     H11472   8.673   6.800  -0.084 -1.2163 -0.1345 -2.2612
   87MOL0     H11473   8.905   6.802  -0.143 -1.0224  1.0584  0.7478
   87MOL0     H11474   9.136   6.442  -0.022  0.6116  1.0572  2.5431
   87MOL0     H11475   9.213   6.604   0.021 -1.0085  0.8343  0.1816
   87MOL0     H11476   9.359   6.441  -0.119  0.8992  0.4057 -1.9046
   87MOL0     H11477   9.236   6.451  -0.237 -2.9993 -1.4191  2.2564
   87MOL0     H11478   9.373   6.698  -0.114 -1.6654 -0.6415 -0.1431
   87MOL0     H11479   9.302   6.685  -0.290 -1.9269 -1.7327 -0.0485
   87MOL0     H11480   9.565   6.556  -0.184  2.0704 -0.2890 -1.6958
   87MOL0     H11481   9.495   6.524  -0.337 -0.1947 -0.8500  1.8061
   87MOL0     H11482   9.687   6.881  -0.410 -0.2930  0.5155 -0.8739
   87MOL0     H11483   8.944   6.391  -0.043  0.0856 -0.1244 -0.8326
   87MOL0     H11484   8.707   6.385   0.026 -0.3911 -0.5974  0.2245
   88MOL0     O11485   7.901   8.094   9.425  0.0188 -0.4105 -0.4429
   88MOL0     C11486   7.998   8.023   9.437 -0.7712  0.0935  1.0097
   88MOL0     O11487   8.000   7.887   9.422 -1.0707  0.4859  0.0140
   88MOL0     C11488   7.887   7.820   9.424 -0.1223  0.5316  0.0741
   88MOL0     C11489   7.884   7.685   9.464  0.0820 -1.2740 -0.4228
   88MOL0     C11490   7.765   7.610   9.461 -0.2755  0.1343 -0.1912
   88MOL0     C11491   7.639   7.661   9.427  0.0331  0.5576 -0.7881
   88MOL0     O11492   7.513   7.601   9.444  0.0990 -0.1789  0.4724
   88MOL0     C11493   7.509   7.477   9.519 -1.1644 -0.1527 -0.4083
   88MOL0     C11494   7.365   7.425   9.537 -0.4630 -0.4539 -0.2992
   88MOL0     C11495   7.298   7.421   9.394  0.6698  0.1201  0.0489
   88MOL0     C11496   7.161   7.354   9.419  0.1538  0.2712  0.1474
   88MOL0     C11497   7.095   7.311   9.291  0.3271 -0.3451 -0.2486
   88MOL0     C11498   6.982   7.212   9.310 -0.8772  0.0393  0.3832
   88MOL0     C11499   6.886   7.206   9.189  0.6812 -0.9762  0.0803
   88MOL0     C11500   6.758   7.128   9.226 -0.2567 -0.1160 -0.5056
   88MOL0     N11501   6.664   7.177   9.325  0.2687  0.3329 -0.1652
   88MOL0     C11502   6.655   7.305   9.364  0.4145 -0.4879  0.3949
   88MOL0     C11503   6.564   7.300   9.467 -0.5078  0.1815 -0.3416
   88MOL0     C11504   6.503   7.419   9.538  0.2833  0.2621 -0.5196
   88MOL0     C11505   6.361   7.460   9.483  0.7424  0.2191 -0.8141
   88MOL0     C11506   6.288   7.547   9.591 -0.6171  0.5519  0.1651
   88MOL0     C11507   6.157   7.609   9.554 -0.3796 -0.3953  0.4172
   88MOL0     O11508   6.113   7.697   9.663  0.2174  0.2172  0.5700
   88MOL0     C11509   5.996   7.758   9.654 -0.1760  0.3089  0.4450
   88MOL0     C11510   5.902   7.733   9.555 -0.0033 -0.3184 -0.6427
   88MOL0     C11511   5.776   7.799   9.562 -0.0397  0.1559  0.9600
   88MOL0     C11512   5.754   7.884   9.662  0.0805 -0.5982  0.3002
   88MOL0     C11513   5.624   7.958   9.676  0.9945  0.8193  0.3430
   88MOL0     O11514   5.549   7.937   9.567  0.3189 -0.0278  0.6021
   88MOL0     C11515   5.417   7.972   9.576 -0.2788 -0.3370  0.0952
   88MOL0     C11516   5.336   7.920   9.677 -0.4368  0.2850 -0.2455
   88MOL0     C11517   5.196   7.936   9.671  0.3960  0.0050 -0.0458
   88MOL0     C11518   5.141   8.020   9.570 -0.1504  0.6074 -0.0195
   88MOL0     O11519   5.003   8.043   9.565 -0.3618 -0.0328  0.3083
   88MOL0     C11520   4.959   8.170   9.609 -0.3374 -0.3084 -0.5611
   88MOL0     C11521   4.805   8.170   9.614  0.3559  0.2847 -0.4123
   88MOL0     C11522   4.747   8.157   9.472 -0.4988  0.1781  0.8130
   88MOL0     C11523   4.594   8.145   9.486 -0.1898  0.1599 -0.4757
   88MOL0     C11524   4.525   8.117   9.351 -0.2408  0.1474  0.0401
   88MOL0     C11525   4.371   8.097   9.380 -0.5133  0.0094  0.2117
   88MOL0     C11526   4.284   8.091   9.255 -0.1595  0.3968  0.0323
   88MOL0     C11527   4.165   8.008   9.286  0.7570  0.5225 -0.1946
   88MOL0    Cl11528   4.055   8.000   9.153  0.2995 -0.4183  0.2304
   88MOL0     C11529   5.224   8.067   9.468 -0.0232 -1.2915  0.1809
   88MOL0     C11530   5.354   8.038   9.465  0.0543  0.9294  0.2139
   88MOL0     O11531   5.602   8.026   9.777  0.6352 -0.0336  0.0502
   88MOL0     C11532   5.852   7.909   9.763 -0.4064  0.7945  0.4396
   88MOL0     C11533   5.974   7.848   9.755  0.1375 -0.3257 -0.3717
   88MOL0     N11534   6.508   7.171   9.479 -0.2098 -0.1564  0.6364
   88MOL0     N11535   6.575   7.101   9.390 -0.2952 -0.2655 -0.2729
   88MOL0     C11536   7.641   7.794   9.380  0.3151 -0.0204 -0.6435
   88MOL0     C11537   7.763   7.870   9.372  0.6005  0.3047  0.1563
   88MOL0     C11538   8.128   8.091   9.447 -0.0744  0.0552  0.7710
   88MOL0     C11539   8.246   8.022   9.467  0.8372 -0.5922  0.0120
   88MOL0     C11540   8.368   8.085   9.482 -0.0296 -0.2401 -0.2497
   88MOL0     C11541   8.380   8.225   9.464  0.1965  0.1722 -0.8126
   88MOL0     O11542   8.501   8.289   9.494 -0.0635 -0.7290  0.0707
   88MOL0     C11543   8.518   8.432   9.466  0.2276 -0.1514 -0.2275
   88MOL0     C11544   8.460   8.532   9.570  0.4602 -0.9854 -0.2866
   88MOL0     C11545   8.535   8.518   9.704  0.3046  0.3825  0.5990
   88MOL0     C11546   8.634   8.642   9.718  0.2077 -0.1116 -0.6056
   88MOL0     C11547   8.756   8.632   9.635 -0.4546  0.1299  0.7230
   88MOL0     C11548   8.835   8.612   9.544 -0.1531  0.2464  0.0481
   88MOL0     C11549   8.263   8.298   9.440  0.0187  0.4183 -0.2243
   88MOL0     C11550   8.141   8.230   9.429 -0.5046  0.2124 -0.4262
   88MOL0     H11551   7.972   7.636   9.503 -1.8317 -3.3564  1.5729
   88MOL0     H11552   7.769   7.502   9.477 -0.2385  0.0887 -0.4955
   88MOL0     H11553   7.554   7.489   9.617  0.1344  1.0719 -1.1159
   88MOL0     H11554   7.566   7.403   9.462 -1.4992 -1.7602  1.2916
   88MOL0     H11555   7.323   7.506   9.598  1.0441  0.0390  0.1329
   88MOL0     H11556   7.358   7.329   9.589 -1.0106  0.5403  1.5472
   88MOL0     H11557   7.367   7.365   9.330  0.1431  3.1074 -3.4513
   88MOL0     H11558   7.276   7.523   9.361 -3.4843 -0.5131  0.3027
   88MOL0     H11559   7.177   7.263   9.478  0.5103 -0.7060 -1.4111
   88MOL0     H11560   7.102   7.424   9.479  2.2637  1.2118  1.2279
   88MOL0     H11561   7.175   7.272   9.227 -0.2922 -1.8778 -0.1374
   88MOL0     H11562   7.042   7.396   9.247 -2.5750 -1.3406  1.0849
   88MOL0     H11563   6.936   7.240   9.405  0.2691 -3.1729  2.0369
   88MOL0     H11564   7.031   7.115   9.325  3.7221  1.5648 -2.5072
   88MOL0     H11565   6.855   7.305   9.153  0.8131 -0.2774  1.7794
   88MOL0     H11566   6.943   7.151   9.115  2.2920  0.1158  0.4599
   88MOL0     H11567   6.790   7.034   9.273  0.6100  0.6395  0.4606
   88MOL0     H11568   6.704   7.105   9.134  1.2257 -2.4315 -0.8758
   88MOL0     H11569   6.701   7.400   9.338 -1.2709  0.4085  0.5760
   88MOL0     H11570   6.577   7.498   9.529 -0.1406  0.5937 -1.2166
   88MOL0     H11571   6.496   7.397   9.645 -0.8799  1.7869 -0.2522
   88MOL0     H11572   6.314   7.362   9.475  4.5409 -2.3390  3.0527
   88MOL0     H11573   6.361   7.508   9.385  1.9933  0.4114 -0.7465
   88MOL0     H11574   6.279   7.492   9.685  0.2671 -3.0596 -1.6917
   88MOL0     H11575   6.363   7.625   9.608  1.2778 -0.4277 -2.9246
   88MOL0     H11576   6.088   7.527   9.531  0.0655 -0.1878 -1.8069
   88MOL0     H11577   6.164   7.675   9.468 -2.1372 -0.6582  0.0248
   88MOL0     H11578   5.917   7.660   9.475 -0.8249 -0.4858 -0.6522
   88MOL0     H11579   5.704   7.787   9.482  0.8080  0.5952  0.1136
   88MOL0     H11580   5.388   7.857   9.749  5.0761  2.6083 -1.6594
   88MOL0     H11581   5.139   7.881   9.746  1.2651 -0.8639 -0.0002
   88MOL0     H11582   4.994   8.238   9.531  2.7904  2.4081  2.8507
   88MOL0     H11583   5.003   8.196   9.705 -0.8450 -0.6891 -0.2177
   88MOL0     H11584   4.753   8.253   9.663 -2.8702 -1.1634 -1.0952
   88MOL0     H11585   4.783   8.079   9.670  1.2907 -0.9286 -1.9535
   88MOL0     H11586   4.778   8.064   9.424 -1.7668  0.9787 -1.7197
   88MOL0     H11587   4.775   8.243   9.411  0.3640 -0.4325  0.3455
   88MOL0     H11588   4.570   8.069   9.560 -0.5824 -1.7824 -2.5038
   88MOL0     H11589   4.543   8.233   9.527 -0.6093 -0.1557 -0.3228
   88MOL0     H11590   4.567   8.028   9.302 -0.7784  0.8806 -1.8432
   88MOL0     H11591   4.541   8.198   9.280  2.3178 -0.1062  0.2284
   88MOL0     H11592   4.333   8.182   9.437  0.6628 -0.5161  1.8528
   88MOL0     H11593   4.355   8.006   9.438 -0.4086  0.0918  0.3701
   88MOL0     H11594   4.264   8.198   9.238 -2.9705  0.3018  1.9928
   88MOL0     H11595   4.338   8.055   9.168  0.7411  1.7939 -0.0242
   88MOL0     H11596   4.119   8.060   9.371  0.6183  2.3046 -1.2940
   88MOL0     H11597   4.198   7.906   9.309 -0.0460  0.0505 -1.0871
   88MOL0     H11598   5.193   8.139   9.393  2.3386 -0.5384 -0.1641
   88MOL0     H11599   5.406   8.061   9.372  0.4155  2.1294  0.6911
   88MOL0     H11600   5.827   7.977   9.844  1.0762  1.3891  0.4312
   88MOL0     H11601   6.044   7.870   9.835 -0.9443 -0.6549  0.6831
   88MOL0     H11602   7.552   7.838   9.335  0.7905 -0.9549 -2.5896
   88MOL0     H11603   7.754   7.968   9.326 -1.2052  0.8881  1.6328
   88MOL0     H11604   8.235   7.914   9.463 -2.1182 -0.3146 -1.6597
   88MOL0     H11605   8.449   8.017   9.508 -0.0655 -0.2374 -0.1286
   88MOL0     H11606   8.472   8.460   9.371  3.1195  2.6114 -1.0029
   88MOL0     H11607   8.626   8.448   9.468  0.2369 -0.1918 -0.4219
   88MOL0     H11608   8.481   8.632   9.533 -0.5551 -0.2191  1.1008
   88MOL0     H11609   8.352   8.519   9.582 -0.1244  2.9308 -0.1671
   88MOL0     H11610   8.581   8.419   9.710  1.2562  0.6653 -1.2882
   88MOL0     H11611   8.455   8.517   9.778 -1.0421  0.4994 -0.8054
   88MOL0     H11612   8.572   8.728   9.690 -2.2296 -1.3843  0.5606
   88MOL0     H11613   8.661   8.657   9.823  0.0743  1.3868 -0.7579
   88MOL0     H11614   8.894   8.593   9.456 -1.6623 -0.5236 -0.8430
   88MOL0     H11615   8.239   8.404   9.432 -4.9442 -0.5906 -2.4463
   88MOL0     H11616   8.060   8.295   9.399  0.7811  1.2535 -1.7784
   89MOL0     O11617   8.340   2.793   1.882  0.0880  0.2462 -0.0155
   89MOL0     C11618   8.376   2.908   1.916  0.8824  0.0585  1.1248
   89MOL0     O11619   8.482   2.970   1.859  0.5176 -0.3127  0.0825
   89MOL0     C11620   8.567   2.914   1.767 -0.4692  0.4085  0.0179
   89MOL0     C11621   8.699   2.968   1.772 -0.5552 -0.5575 -0.6438
   89MOL0     C11622   8.789   2.930   1.667 -0.4380  0.6172  0.4256
   89MOL0     C11623   8.743   2.839   1.573  0.1182 -0.1244 -0.0160
   89MOL0     O11624   8.805   2.799   1.459 -0.6216  0.8133 -0.2144
   89MOL0     C11625   8.942   2.833   1.438 -0.7571  0.4603  0.6350
   89MOL0     C11626   9.022   2.748   1.340  0.3780 -0.3885  0.7354
   89MOL0     C11627   9.004   2.591   1.354  0.1565 -0.2655 -0.3192
   89MOL0     C11628   9.075   2.542   1.481  0.0879  0.3488 -0.1870
   89MOL0     C11629   9.016   2.412   1.538 -0.5376 -0.4450  1.1798
   89MOL0     C11630   9.031   2.297   1.443 -0.4179 -0.2124 -0.3018
   89MOL0     C11631   8.952   2.172   1.498 -0.0245 -0.3362  0.1002
   89MOL0     C11632   8.798   2.181   1.470  0.1120 -0.7060  0.3911
   89MOL0     N11633   8.749   2.046   1.499 -0.3993 -0.8669  0.8778
   89MOL0     C11634   8.661   1.976   1.418 -0.2671  0.1502  0.2603
   89MOL0     C11635   8.624   1.866   1.488  0.8110 -0.5406 -0.0008
   89MOL0     C11636   8.528   1.756   1.441  0.7392 -0.5089  0.5665
   89MOL0     C11637   8.381   1.813   1.446  0.2711  1.0079  0.9887
   89MOL0     C11638   8.279   1.701   1.400  0.2075  0.1613  0.0634
   89MOL0     C11639   8.139   1.735   1.418 -0.5029 -0.6636 -0.0488
   89MOL0     O11640   8.067   1.662   1.319 -0.0214 -0.1698  0.4592
   89MOL0     C11641   7.933   1.669   1.300 -0.1898  0.3503 -0.3529
   89MOL0     C11642   7.874   1.611   1.184 -0.3700  0.3691  0.0888
   89MOL0     C11643   7.739   1.616   1.167  0.5938 -0.6122 -0.2150
   89MOL0     C11644   7.653   1.674   1.258 -0.0820  0.9982 -0.8562
   89MOL0     C11645   7.508   1.672   1.233 -0.2535  0.2781  0.0485
   89MOL0     O11646   7.469   1.561   1.158 -0.2125 -0.4267  0.0593
   89MOL0     C11647   7.344   1.524   1.143 -0.8297  0.2056  0.4221
   89MOL0     C11648   7.331   1.387   1.131 -0.6600  1.1397 -0.0310
   89MOL0     C11649   7.202   1.327   1.107 -0.9576  0.2370 -0.7937
   89MOL0     C11650   7.090   1.412   1.104 -0.3686  0.1086  0.2055
   89MOL0     O11651   6.965   1.367   1.078  0.3037  0.8356 -0.1369
   89MOL0     C11652   6.941   1.225   1.033 -0.0376 -0.1186 -0.4079
   89MOL0     C11653   6.798   1.173   1.020 -0.0612 -0.1731  0.2985
   89MOL0     C11654   6.726   1.186   1.157  0.7076 -0.7680 -0.1384
   89MOL0     C11655   6.779   1.090   1.259  0.2597  0.9641  1.7181
   89MOL0     C11656   6.689   1.057   1.372 -0.1068  0.4372 -0.6099
   89MOL0     C11657   6.761   0.953   1.457  0.1025  0.2057 -0.4349
   89MOL0     C11658   6.690   0.937   1.596 -0.6277 -0.9250  0.7822
   89MOL0     C11659   6.540   0.897   1.587  0.1828 -0.4295 -0.2384
   89MOL0    Cl11660   6.515   0.714   1.583 -0.1098  0.0425 -0.1009
   89MOL0     C11661   7.100   1.554   1.117  0.2040  0.7701 -0.3028
   89MOL0     C11662   7.232   1.608   1.129  0.3237 -0.0475 -0.1137
   89MOL0     O11663   7.433   1.760   1.279 -0.0663  0.6310 -0.3440
   89MOL0     C11664   7.706   1.725   1.371 -0.0912 -0.6555  0.2735
   89MOL0     C11665   7.846   1.726   1.395 -0.0299 -0.3351  0.7592
   89MOL0     N11666   8.688   1.883   1.611 -0.3566  0.2011 -0.3617
   89MOL0     N11667   8.757   1.996   1.619  0.8510  0.2224  0.4902
   89MOL0     C11668   8.613   2.793   1.570  0.2948 -0.0845  0.0454
   89MOL0     C11669   8.522   2.834   1.663  0.0569 -0.3594 -0.2876
   89MOL0     C11670   8.307   2.963   2.036 -0.2905 -0.6354 -0.4218
   89MOL0     C11671   8.184   2.906   2.077  0.3685 -0.3218 -0.1166
   89MOL0     C11672   8.115   2.969   2.184  0.0461  0.6065  0.8678
   89MOL0     C11673   8.162   3.080   2.251 -0.3501 -0.0813 -0.2758
   89MOL0     O11674   8.085   3.146   2.351 -0.7806 -0.0894  0.1213
   89MOL0     C11675   7.944   3.112   2.374 -0.5485  0.0300  0.0343
   89MOL0     C11676   7.959   3.021   2.496 -0.2459  0.4312 -0.2097
   89MOL0     C11677   7.830   2.970   2.564  0.0599  0.0079  0.1997
   89MOL0     C11678   7.850   2.907   2.690 -0.5154  0.0426 -0.1806
   89MOL0     C11679   7.726   2.839   2.740 -0.2252  0.3919  0.3188
   89MOL0     C11680   7.625   2.785   2.772 -0.1033 -0.6391 -0.4483
   89MOL0     C11681   8.283   3.137   2.207 -0.1043 -0.5970  0.5995
   89MOL0     C11682   8.353   3.076   2.103  0.6887 -0.6488  0.6614
   89MOL0     H11683   8.722   3.038   1.851  1.5025 -1.2791 -0.5415
   89MOL0     H11684   8.894   2.957   1.670 -0.7904  2.0173  0.9916
   89MOL0     H11685   8.994   2.826   1.534  2.8369 -0.2283 -1.1799
   89MOL0     H11686   8.945   2.936   1.402 -0.9344 -0.4603 -2.3067
   89MOL0     H11687   9.127   2.777   1.350  0.2357 -0.1202  1.5780
   89MOL0     H11688   8.994   2.779   1.239 -1.2628 -0.0280  1.2602
   89MOL0     H11689   9.032   2.540   1.261 -2.1462 -2.4098  0.0778
   89MOL0     H11690   8.898   2.576   1.372  0.2889 -0.8550 -0.0003
   89MOL0     H11691   9.184   2.541   1.469  0.0123  0.1860 -0.9200
   89MOL0     H11692   9.041   2.620   1.549  0.1004 -0.9881  1.4046
   89MOL0     H11693   8.908   2.419   1.554 -0.6354  1.6359 -0.0184
   89MOL0     H11694   9.057   2.383   1.635  2.3870 -0.9368 -0.0784
   89MOL0     H11695   9.133   2.258   1.434 -0.7506 -0.5589 -3.4852
   89MOL0     H11696   8.994   2.324   1.344 -0.4942 -1.3843 -0.6029
   89MOL0     H11697   9.007   2.085   1.462  2.8827  0.9216  1.1830
   89MOL0     H11698   8.970   2.153   1.605  0.5052 -0.4529 -0.0063
   89MOL0     H11699   8.780   2.185   1.362 -0.7985 -3.2753  0.3879
   89MOL0     H11700   8.755   2.257   1.536  1.0083 -1.2508  1.6494
   89MOL0     H11701   8.633   2.009   1.318 -2.3955  1.6239  1.2513
   89MOL0     H11702   8.542   1.666   1.502  0.1608 -2.0743 -1.4891
   89MOL0     H11703   8.558   1.727   1.340  0.3007 -0.7822  0.5085
   89MOL0     H11704   8.366   1.905   1.390  1.8309  0.9906  0.4854
   89MOL0     H11705   8.362   1.818   1.554  0.0187 -1.1352  1.1009
   89MOL0     H11706   8.303   1.707   1.294 -0.4009 -0.0737 -0.0890
   89MOL0     H11707   8.305   1.597   1.424  0.2031 -0.7338 -3.3534
   89MOL0     H11708   8.124   1.842   1.398  0.5905 -0.8468 -2.1381
   89MOL0     H11709   8.110   1.702   1.518  1.9652 -2.2956  0.2192
   89MOL0     H11710   7.935   1.569   1.104  0.3150 -2.2858  1.8727
   89MOL0     H11711   7.686   1.575   1.082 -2.4804 -1.1023  1.8038
   89MOL0     H11712   7.419   1.324   1.132 -1.7128 -0.3933 -0.2442
   89MOL0     H11713   7.195   1.219   1.101  2.2532 -0.2127  1.3199
   89MOL0     H11714   7.002   1.161   1.097 -0.1225 -1.4280 -1.5999
   89MOL0     H11715   6.990   1.220   0.936  2.5093  2.8779  0.5325
   89MOL0     H11716   6.795   1.066   0.997 -0.0708  0.1316 -1.2307
   89MOL0     H11717   6.748   1.231   0.941 -1.8708  1.6359  2.6128
   89MOL0     H11718   6.622   1.160   1.140  0.1104  0.7942  0.8416
   89MOL0     H11719   6.734   1.288   1.196  0.0488 -1.2476  1.3418
   89MOL0     H11720   6.794   0.997   1.203  0.5329  1.5444  0.8116
   89MOL0     H11721   6.879   1.126   1.287  0.5969  1.8177 -0.4171
   89MOL0     H11722   6.591   1.023   1.340 -1.2903  1.8520  1.2758
   89MOL0     H11723   6.674   1.153   1.422 -0.4978  0.0868 -0.0503
   89MOL0     H11724   6.865   0.985   1.470  0.1523  1.0236 -2.4793
   89MOL0     H11725   6.753   0.854   1.410  2.7869  0.2617 -1.1797
   89MOL0     H11726   6.756   0.863   1.642  1.1331 -0.6271 -1.1173
   89MOL0     H11727   6.714   1.032   1.646 -1.0622 -0.5172  0.2337
   89MOL0     H11728   6.496   0.949   1.502  1.7884  3.8611  1.2485
   89MOL0     H11729   6.480   0.937   1.670 -0.7971  0.3897 -1.3139
   89MOL0     H11730   7.020   1.627   1.106  2.1523  3.1620  0.6305
   89MOL0     H11731   7.248   1.715   1.123 -0.3356  0.2261  1.9294
   89MOL0     H11732   7.649   1.783   1.443 -0.4447  0.1347 -0.6190
   89MOL0     H11733   7.886   1.769   1.486 -1.4253  3.7285 -0.3180
   89MOL0     H11734   8.584   2.733   1.485 -0.3552  0.2906 -0.0086
   89MOL0     H11735   8.417   2.811   1.653 -1.2648  4.0149  1.2725
   89MOL0     H11736   8.152   2.811   2.036  0.6982 -0.3154 -0.4008
   89MOL0     H11737   8.023   2.922   2.219  1.1286 -1.1410  1.5287
   89MOL0     H11738   7.887   3.059   2.297  0.2776 -2.8625  1.2481
   89MOL0     H11739   7.884   3.200   2.396 -0.8352 -1.0612  4.4910
   89MOL0     H11740   8.014   2.929   2.475 -1.0097  0.1247 -0.9217
   89MOL0     H11741   8.016   3.072   2.575  0.7786  0.3733 -0.8869
   89MOL0     H11742   7.784   2.903   2.491  0.6689 -1.0289  0.7509
   89MOL0     H11743   7.763   3.054   2.585 -1.1189 -0.8782  0.0931
   89MOL0     H11744   7.931   2.834   2.680 -0.8511 -0.0937 -2.3491
   89MOL0     H11745   7.882   2.978   2.768  0.4313  1.5903 -1.8950
   89MOL0     H11746   7.540   2.740   2.820 -0.6562  1.4093  0.6246
   89MOL0     H11747   8.321   3.229   2.250 -0.1703  0.7285 -1.9714
   89MOL0     H11748   8.444   3.120   2.061 -0.2712 -0.4047 -1.2896
   90MOL0     O11749   3.944   8.784  10.434 -0.0609  0.5596  0.8149
   90MOL0     C11750   4.033   8.859  10.474  0.3691  0.1339  0.1186
   90MOL0     O11751   4.028   8.991  10.497 -0.0566 -0.2240  0.1908
   90MOL0     C11752   3.902   9.051  10.501  0.5301 -0.2082  0.0950
   90MOL0     C11753   3.879   9.151  10.408  0.2624  0.0253 -0.1950
   90MOL0     C11754   3.764   9.223  10.409 -0.6789 -0.2185  0.3195
   90MOL0     C11755   3.662   9.192  10.504 -0.5441  0.1595 -0.7174
   90MOL0     O11756   3.547   9.265  10.514  0.4142  0.2559  0.0112
   90MOL0     C11757   3.502   9.329  10.393 -0.7592 -0.0963 -0.1950
   90MOL0     C11758   3.355   9.370  10.396  0.9673 -0.2703 -0.0729
   90MOL0     C11759   3.261   9.242  10.427  0.8684  0.1998 -0.1151
   90MOL0     C11760   3.103   9.280  10.432  0.1827 -0.0076  0.8836
   90MOL0     C11761   3.052   9.325  10.300 -0.6258 -0.0976 -0.0470
   90MOL0     C11762   2.900   9.324  10.286  0.0540  0.6214  0.6296
   90MOL0     C11763   2.832   9.444  10.358 -0.5085 -0.5928  0.4612
   90MOL0     C11764   2.682   9.457  10.340  0.1244  0.7116 -0.5260
   90MOL0     N11765   2.637   9.574  10.423 -0.2127 -0.0715 -0.4353
   90MOL0     C11766   2.606   9.569  10.553  0.3734  0.2028  0.7006
   90MOL0     C11767   2.546   9.691  10.578 -0.0132  0.7699 -0.1605
   90MOL0     C11768   2.492   9.728  10.710 -0.1493  0.0069  0.1679
   90MOL0     C11769   2.340   9.738  10.703  0.3663 -0.0193  0.2794
   90MOL0     C11770   2.275   9.784  10.835 -0.6897 -0.2574 -0.1416
   90MOL0     C11771   2.127   9.772  10.829  0.3957  0.0891  0.0435
   90MOL0     O11772   2.090   9.642  10.874  0.2354 -0.4426  0.4707
   90MOL0     C11773   1.961   9.627  10.926  0.6092 -0.3227  0.4961
   90MOL0     C11774   1.870   9.734  10.931  0.0530 -0.7416 -0.0324
   90MOL0     C11775   1.739   9.729  10.973  0.5673  0.8447 -0.9616
   90MOL0     C11776   1.694   9.609  11.024  0.2426 -0.0492 -0.5883
   90MOL0     C11777   1.550   9.592  11.066 -0.1420 -0.7791 -0.2837
   90MOL0     O11778   1.501   9.472  11.112  0.3132  0.1869 -0.0579
   90MOL0     C11779   1.367   9.456  11.132 -0.1997  0.7359 -0.1719
   90MOL0     C11780   1.327   9.381  11.244 -0.5216 -0.2708  0.0254
   90MOL0     C11781   1.193   9.363  11.285 -0.2913  0.2655 -1.2563
   90MOL0     C11782   1.096   9.423  11.207 -0.1558  0.9036  0.2027
   90MOL0     O11783   0.967   9.448  11.255 -0.0315  1.4267 -0.0621
   90MOL0     C11784   0.885   9.336  11.239  0.6011  0.4384  0.2598
   90MOL0     C11785   0.793   9.346  11.354 -0.6841  0.1018 -0.4417
   90MOL0     C11786   0.732   9.208  11.395 -0.6121  0.3381 -0.7803
   90MOL0     C11787   0.626   9.223  11.510 -0.1177 -0.0601  0.4084
   90MOL0     C11788   0.591   9.097  11.586 -0.6240  0.6434 -0.0654
   90MOL0     C11789   0.473   9.121  11.685  0.1341 -0.5965 -0.4152
   90MOL0     C11790   0.520   9.170  11.821  0.0102 -0.1689 -0.6024
   90MOL0     C11791   0.397   9.189  11.909  0.0885 -0.1895  0.7691
   90MOL0    Cl11792   0.440   9.215  12.082 -0.0398  0.2133  0.0875
   90MOL0     C11793   1.126   9.479  11.083 -0.2080 -0.0620  0.2509
   90MOL0     C11794   1.265   9.496  11.049  0.5069 -0.1549 -0.3979
   90MOL0     O11795   1.486   9.693  11.055 -0.1138 -0.0781 -0.1489
   90MOL0     C11796   1.787   9.498  11.026  0.2924 -0.2177 -0.1748
   90MOL0     C11797   1.915   9.511  10.974  0.0375  0.5066 -0.2243
   90MOL0     N11798   2.541   9.767  10.458  0.3076 -0.0167 -0.3942
   90MOL0     N11799   2.596   9.694  10.363 -0.4124 -0.3669 -0.0191
   90MOL0     C11800   3.683   9.089  10.594 -0.5540  0.3714  0.1611
   90MOL0     C11801   3.802   9.015  10.595 -0.3328  1.0066  0.1977
   90MOL0     C11802   4.159   8.802  10.505  0.2678 -0.0407  1.0183
   90MOL0     C11803   4.271   8.878  10.521  0.4109 -0.2868  0.1685
   90MOL0     C11804   4.391   8.829  10.571  0.4059 -1.4070  0.1976
   90MOL0     C11805   4.405   8.690  10.606  1.0268 -0.6693  0.4767
   90MOL0     O11806   4.515   8.635  10.661  0.4126 -0.1289 -1.0273
   90MOL0     C11807   4.607   8.718  10.735  0.2789 -0.3017 -0.1788
   90MOL0     C11808   4.693   8.637  10.833 -0.0332 -0.2307 -0.0956
   90MOL0     C11809   4.603   8.579  10.947 -0.0332  0.2337 -0.4983
   90MOL0     C11810   4.683   8.516  11.062 -0.5056  0.2160 -0.4371
   90MOL0     C11811   4.591   8.480  11.171  0.9502 -0.2943  0.1796
   90MOL0     C11812   4.522   8.452  11.269  0.5611 -0.2122  0.0623
   90MOL0     C11813   4.292   8.614  10.581 -0.2982 -0.5764  0.4066
   90MOL0     C11814   4.171   8.664  10.530  1.0158  0.2482 -0.1727
   90MOL0     H11815   3.957   9.174  10.335  3.4740  0.3840  3.0829
   90MOL0     H11816   3.755   9.300  10.333  0.2284 -0.3056  0.1087
   90MOL0     H11817   3.500   9.252  10.315  1.7059  0.6141 -1.0574
   90MOL0     H11818   3.571   9.408  10.363 -1.2831  2.2676  3.9957
   90MOL0     H11819   3.320   9.411  10.301 -2.1293  0.5200  1.2700
   90MOL0     H11820   3.338   9.450  10.468  1.0290 -0.4260  0.1157
   90MOL0     H11821   3.291   9.195  10.521 -0.3249 -1.5757 -0.5614
   90MOL0     H11822   3.280   9.166  10.351  1.8632  0.1001  0.2163
   90MOL0     H11823   3.059   9.186  10.465 -1.4699  0.6004  0.4712
   90MOL0     H11824   3.084   9.357  10.508 -0.8999  0.5720  0.0427
   90MOL0     H11825   3.098   9.266  10.220  0.5510 -1.4692  1.5685
   90MOL0     H11826   3.090   9.426  10.283  1.5999 -0.7287  0.8599
   90MOL0     H11827   2.856   9.236  10.333 -0.2936  0.9527  0.9339
   90MOL0     H11828   2.880   9.336  10.179  0.9820 -1.1576  0.2198
   90MOL0     H11829   2.843   9.437  10.467 -1.2459  1.1638  0.6855
   90MOL0     H11830   2.878   9.540  10.335  1.6237 -1.0229  2.5183
   90MOL0     H11831   2.633   9.365  10.374 -0.2354  1.2801  0.5645
   90MOL0     H11832   2.646   9.473  10.238  1.5799  2.9750 -0.7484
   90MOL0     H11833   2.622   9.491  10.626  1.4130  0.5089  0.8098
   90MOL0     H11834   2.534   9.824  10.744 -1.7018  0.2625  1.5181
   90MOL0     H11835   2.513   9.641  10.773  0.4442 -0.9444 -1.3052
   90MOL0     H11836   2.296   9.648  10.659  0.2511 -0.4769  1.2960
   90MOL0     H11837   2.318   9.819  10.634 -1.8776  1.5851  2.6932
   90MOL0     H11838   2.304   9.718  10.917  2.3724  0.3476 -0.6185
   90MOL0     H11839   2.311   9.885  10.855  1.2119 -0.8566 -0.3632
   90MOL0     H11840   2.076   9.793  10.735  0.4581  1.0111  0.2078
   90MOL0     H11841   2.098   9.849  10.900  0.6997  2.1222 -1.9094
   90MOL0     H11842   1.901   9.830  10.890  0.4084  0.2465  2.3871
   90MOL0     H11843   1.667   9.810  10.966 -1.5482 -0.9808 -1.3875
   90MOL0     H11844   1.414   9.360  11.306 -0.1002  1.3887  0.0237
   90MOL0     H11845   1.158   9.315  11.376 -0.0320  0.8651 -0.8322
   90MOL0     H11846   0.928   9.238  11.258  0.7835  0.2752 -0.9184
   90MOL0     H11847   0.829   9.346  11.146  0.4376 -0.3800  0.2627
   90MOL0     H11848   0.708   9.411  11.334 -0.4583  0.3749 -0.5077
   90MOL0     H11849   0.849   9.381  11.441  0.6294  0.3673 -1.3588
   90MOL0     H11850   0.811   9.149  11.442 -0.0147  2.2165  0.7204
   90MOL0     H11851   0.697   9.151  11.309 -1.6833 -0.6674  0.2766
   90MOL0     H11852   0.650   9.302  11.581  2.0484 -1.6850  1.6195
   90MOL0     H11853   0.537   9.253  11.455  0.5850  3.5032  0.9641
   90MOL0     H11854   0.676   9.044  11.631 -0.6972 -2.8425 -3.4857
   90MOL0     H11855   0.563   9.022  11.511 -0.4704  1.2823 -0.7778
   90MOL0     H11856   0.428   9.021  11.693  3.3848 -2.3080 -1.3502
   90MOL0     H11857   0.407   9.199  11.647  0.6277 -0.9197 -2.0138
   90MOL0     H11858   0.587   9.096  11.866 -1.7681 -1.8542 -0.5889
   90MOL0     H11859   0.571   9.267  11.815 -0.2138  0.0642  0.7476
   90MOL0     H11860   0.328   9.105  11.899 -0.1339  0.1722 -1.0170
   90MOL0     H11861   0.342   9.274  11.869  1.7641  1.3937  1.6768
   90MOL0     H11862   1.047   9.514  11.016  0.4409  0.7918 -0.0877
   90MOL0     H11863   1.290   9.552  10.959  0.0293 -1.3971 -1.3298
   90MOL0     H11864   1.751   9.405  11.069  0.7326 -1.5434 -2.5207
   90MOL0     H11865   1.965   9.417  10.953  0.0111  0.0401  1.6851
   90MOL0     H11866   3.607   9.081  10.670 -1.5931  0.5889 -0.8241
   90MOL0     H11867   3.822   8.949  10.678 -0.3957  1.3305  0.4710
   90MOL0     H11868   4.276   8.987  10.513  1.4534 -0.3182  0.2755
   90MOL0     H11869   4.469   8.899  10.598 -1.8164  2.4078 -2.3370
   90MOL0     H11870   4.560   8.802  10.787 -0.0761 -0.3144 -0.4723
   90MOL0     H11871   4.682   8.762  10.669  1.3239  0.0959  1.2483
   90MOL0     H11872   4.738   8.555  10.777 -0.3022  1.7336 -3.4453
   90MOL0     H11873   4.774   8.689  10.885  0.3184 -0.4291 -0.4460
   90MOL0     H11874   4.530   8.503  10.918 -1.4412  1.6137 -0.7436
   90MOL0     H11875   4.548   8.665  10.987  0.9780  1.5781 -1.8847
   90MOL0     H11876   4.750   8.434  11.033 -0.9007 -0.1808 -0.2456
   90MOL0     H11877   4.738   8.600  11.104 -3.7691  2.5431 -0.4762
   90MOL0     H11878   4.463   8.422  11.353 -1.0575  2.2395 -0.0886
   90MOL0     H11879   4.289   8.508  10.604 -1.3715 -0.7120 -0.2577
   90MOL0     H11880   4.090   8.593  10.527  0.8381  0.3687  0.9779
   91MOL0     O11881   3.088   4.814   2.676 -0.7850 -0.4633 -0.0028
   91MOL0     C11882   3.109   4.887   2.579 -0.9351  0.0703  0.6062
   91MOL0     O11883   3.027   4.973   2.524 -0.1192 -0.0602 -0.1653
   91MOL0     C11884   2.901   4.982   2.577 -0.0240  0.4822  0.5990
   91MOL0     C11885   2.792   4.916   2.526  0.1633 -0.3850  0.4913
   91MOL0     C11886   2.659   4.931   2.578 -1.2065 -0.6610 -0.2289
   91MOL0     C11887   2.635   5.008   2.696  0.3920  0.0975  0.6841
   91MOL0     O11888   2.510   5.026   2.751 -0.4509 -0.3909  0.5560
   91MOL0     C11889   2.484   5.056   2.884 -0.0780  0.1449 -0.2946
   91MOL0     C11890   2.334   5.086   2.882 -0.7856  0.2348  0.4817
   91MOL0     C11891   2.281   5.071   3.031 -0.2117 -0.1954  0.4371
   91MOL0     C11892   2.127   5.105   3.040  0.5269 -0.6628 -0.6583
   91MOL0     C11893   2.098   5.254   3.084 -0.2298  0.7181  0.3944
   91MOL0     C11894   1.979   5.245   3.175  0.5275 -0.5861 -0.4170
   91MOL0     C11895   1.925   5.389   3.202 -1.2520  0.8216  0.7141
   91MOL0     C11896   1.813   5.391   3.301  0.2080 -0.9775 -0.5781
   91MOL0     N11897   1.713   5.295   3.279  0.0215 -0.5309 -0.1264
   91MOL0     C11898   1.600   5.313   3.203 -0.8453 -0.5276 -0.0568
   91MOL0     C11899   1.529   5.200   3.224  0.5736  0.0806 -0.1884
   91MOL0     C11900   1.401   5.144   3.155  0.2749  0.2095  0.4474
   91MOL0     C11901   1.266   5.209   3.185  0.5524  0.1956  0.3128
   91MOL0     C11902   1.246   5.226   3.335  1.1047 -0.4625 -0.1176
   91MOL0     C11903   1.100   5.262   3.380 -0.3103  0.7702  0.5649
   91MOL0     O11904   1.005   5.202   3.296  0.7291 -0.6078  0.8108
   91MOL0     C11905   0.876   5.176   3.346 -0.3430  0.0670 -0.4834
   91MOL0     C11906   0.794   5.098   3.265 -0.0413 -0.8931 -0.7484
   91MOL0     C11907   0.670   5.053   3.318  1.0760  0.4660 -0.4053
   91MOL0     C11908   0.626   5.088   3.449 -0.1084  0.3806 -0.3265
   91MOL0     C11909   0.512   5.023   3.513  0.2308 -0.5193 -1.0567
   91MOL0     O11910   0.469   5.088   3.628  0.0177  0.2449 -0.1443
   91MOL0     C11911   0.374   5.021   3.707 -0.0378 -0.1656  0.7044
   91MOL0     C11912   0.239   5.017   3.666 -0.1565 -0.6530 -0.4217
   91MOL0     C11913   0.136   4.943   3.741 -0.6694  0.4547  0.5028
   91MOL0     C11914   0.182   4.868   3.851  0.1697  0.4564  0.4918
   91MOL0     O11915   0.094   4.787   3.922  0.5496 -0.6515  0.2671
   91MOL0     C11916   0.099   4.790   4.064  0.3140 -0.5675 -0.3687
   91MOL0     C11917  -0.005   4.696   4.124 -0.8619  0.3672  0.0287
   91MOL0     C11918  -0.137   4.769   4.134  0.2969  1.0352  0.4706
   91MOL0     C11919  -0.240   4.658   4.179  0.8851 -0.5103  0.1979
   91MOL0     C11920  -0.374   4.723   4.156  0.1557 -0.5984 -0.3738
   91MOL0     C11921  -0.491   4.617   4.189 -0.2348 -0.4388 -0.1833
   91MOL0     C11922  -0.636   4.673   4.164 -0.2978 -0.8862  0.0733
   91MOL0     C11923  -0.740   4.559   4.180 -0.7355 -0.7589 -0.1295
   91MOL0    Cl11924  -0.754   4.522   4.351 -0.1529  0.0352  0.3333
   91MOL0     C11925   0.319   4.875   3.891 -0.7943  0.1912  0.6741
   91MOL0     C11926   0.414   4.956   3.821  0.2259 -0.1753  0.4826
   91MOL0     O11927   0.461   4.923   3.466 -0.5141  0.2285  0.2156
   91MOL0     C11928   0.712   5.172   3.525 -0.5243  0.8150 -0.2181
   91MOL0     C11929   0.832   5.215   3.474  0.1934  0.0806 -0.9952
   91MOL0     N11930   1.605   5.116   3.307  1.0472  0.3509  0.4246
   91MOL0     N11931   1.710   5.170   3.335 -0.2161 -0.5697 -0.2543
   91MOL0     C11932   2.747   5.079   2.744  0.2868  1.0598 -0.2645
   91MOL0     C11933   2.874   5.073   2.681 -0.1814 -0.1693  0.0239
   91MOL0     C11934   3.246   4.880   2.530  0.4792 -0.0190 -0.4421
   91MOL0     C11935   3.279   4.942   2.403 -0.1279  0.6411  0.0206
   91MOL0     C11936   3.409   4.946   2.355  0.3469 -0.6287 -0.2167
   91MOL0     C11937   3.512   4.906   2.435 -0.4253 -0.1425 -0.2014
   91MOL0     O11938   3.638   4.927   2.380 -0.2524 -0.0789  0.7839
   91MOL0     C11939   3.758   4.899   2.455 -0.8176 -0.6606  0.7171
   91MOL0     C11940   3.883   4.894   2.378 -0.0932 -0.0540  0.5549
   91MOL0     C11941   3.911   5.022   2.286  0.4722  0.1414 -0.7741
   91MOL0     C11942   4.062   5.037   2.272 -0.5797  0.1831  0.2137
   91MOL0     C11943   4.102   5.083   2.137 -0.2033  0.3500 -0.2431
   91MOL0     C11944   4.158   5.101   2.027 -0.2538  0.8492  0.0434
   91MOL0     C11945   3.489   4.839   2.554  0.1321  0.5269 -1.1235
   91MOL0     C11946   3.356   4.825   2.607 -0.5349  0.6959  0.0468
   91MOL0     H11947   2.809   4.853   2.439  0.9241 -2.1180  1.8167
   91MOL0     H11948   2.581   4.878   2.525  0.4860 -1.8196 -1.6809
   91MOL0     H11949   2.536   5.149   2.909  0.5439 -0.9360  2.9864
   91MOL0     H11950   2.515   4.975   2.951 -0.1109 -1.0471 -1.6746
   91MOL0     H11951   2.295   5.003   2.822 -0.3985  0.4813 -0.1145
   91MOL0     H11952   2.317   5.188   2.847 -0.5642 -0.3538 -1.4657
   91MOL0     H11953   2.342   5.132   3.097  0.5928 -1.5493  1.0045
   91MOL0     H11954   2.297   4.970   3.071  0.1666 -0.5184 -0.4959
   91MOL0     H11955   2.084   5.099   2.940  3.3165  0.1566 -2.0051
   91MOL0     H11956   2.073   5.041   3.111 -3.1449  3.6118  0.8594
   91MOL0     H11957   2.086   5.317   2.995  3.9931  1.7311  0.3354
   91MOL0     H11958   2.184   5.295   3.138 -1.2322  0.4495  2.3023
   91MOL0     H11959   1.997   5.188   3.267 -3.0121 -1.7700 -0.3083
   91MOL0     H11960   1.903   5.186   3.123  1.2197  1.2625 -3.8340
   91MOL0     H11961   2.010   5.447   3.237 -0.3636 -0.9818  1.6768
   91MOL0     H11962   1.879   5.434   3.114 -0.7645  1.9797  1.0298
   91MOL0     H11963   1.772   5.492   3.290  2.0090 -0.0871  0.3280
   91MOL0     H11964   1.861   5.381   3.399  1.5955 -0.2409 -1.1464
   91MOL0     H11965   1.582   5.395   3.134  3.3348  0.8489  0.2205
   91MOL0     H11966   1.389   5.036   3.168 -0.7298  0.3879  1.0593
   91MOL0     H11967   1.409   5.168   3.048 -0.8129  2.8255  0.8751
   91MOL0     H11968   1.183   5.149   3.147 -2.4598  2.5290  2.6790
   91MOL0     H11969   1.259   5.304   3.130  4.1097  0.1994 -0.4075
   91MOL0     H11970   1.277   5.139   3.393  4.3517  1.6948  1.7374
   91MOL0     H11971   1.307   5.311   3.367  0.1369 -0.6006  2.3214
   91MOL0     H11972   1.103   5.371   3.367  1.6484  0.7314  0.4752
   91MOL0     H11973   1.089   5.235   3.485 -0.0933  2.8941  1.1791
   91MOL0     H11974   0.826   5.066   3.166  1.0699 -4.7683  0.6850
   91MOL0     H11975   0.612   4.986   3.255 -0.0675  2.2882 -1.3841
   91MOL0     H11976   0.217   5.074   3.576 -0.9607  0.4162  0.4307
   91MOL0     H11977   0.031   4.945   3.712 -0.5557  1.4489  0.1132
   91MOL0     H11978   0.079   4.896   4.085 -0.4321 -0.7016 -0.3768
   91MOL0     H11979   0.197   4.764   4.105  1.2854  0.7140 -1.7608
   91MOL0     H11980   0.033   4.665   4.222  2.7964  1.4903 -0.8898
   91MOL0     H11981  -0.017   4.604   4.066 -0.4909  1.3463 -1.6732
   91MOL0     H11982  -0.178   4.813   4.043 -0.2167 -0.0089  0.1746
   91MOL0     H11983  -0.134   4.848   4.209 -2.8339  2.6075 -0.8928
   91MOL0     H11984  -0.242   4.572   4.111 -1.4962 -0.6360  0.3340
   91MOL0     H11985  -0.217   4.631   4.282  0.8877 -2.1835 -0.2184
   91MOL0     H11986  -0.382   4.757   4.052 -2.8490  1.8070  0.4896
   91MOL0     H11987  -0.397   4.806   4.224 -2.1244  0.3904 -2.2076
   91MOL0     H11988  -0.474   4.582   4.291  2.9803 -0.5128 -0.6258
   91MOL0     H11989  -0.485   4.527   4.126 -1.8757 -0.8099  0.1379
   91MOL0     H11990  -0.650   4.759   4.230 -1.2231 -1.3093  0.4484
   91MOL0     H11991  -0.630   4.715   4.063 -0.6227 -1.2716 -0.1111
   91MOL0     H11992  -0.731   4.475   4.110 -0.1816  1.1963 -2.5748
   91MOL0     H11993  -0.827   4.615   4.145 -1.0849  0.0274  1.9081
   91MOL0     H11994   0.353   4.829   3.983 -0.7415 -0.5200  0.3084
   91MOL0     H11995   0.522   4.956   3.838  0.5164  1.6937 -1.0174
   91MOL0     H11996   0.686   5.199   3.627  1.1296 -1.6396  0.9514
   91MOL0     H11997   0.894   5.274   3.540  0.6537  0.3429 -1.6390
   91MOL0     H11998   2.754   5.152   2.824  1.1206  1.5471 -0.7808
   91MOL0     H11999   2.955   5.126   2.729  0.3040 -1.6550  0.9168
   91MOL0     H12000   3.198   4.964   2.334 -0.2625 -0.2611 -0.1182
   91MOL0     H12001   3.426   4.974   2.251 -1.8226 -0.2138 -0.5247
   91MOL0     H12002   3.746   4.798   2.495 -0.4009 -2.0505 -2.4084
   91MOL0     H12003   3.769   4.970   2.539  0.9123 -0.3451  0.2549
   91MOL0     H12004   3.967   4.881   2.447  0.9838  0.9861 -0.5020
   91MOL0     H12005   3.877   4.801   2.321 -1.7307  0.0184  0.5480
   91MOL0     H12006   3.873   5.108   2.343 -0.4939 -0.0287 -1.1500
   91MOL0     H12007   3.858   5.023   2.191 -1.1778  2.2392  0.0769
   91MOL0     H12008   4.098   5.102   2.353  2.6410 -2.4131  1.0822
   91MOL0     H12009   4.123   4.947   2.282  0.9799  0.9476 -1.7447
   91MOL0     H12010   4.218   5.120   1.940 -2.3176  2.0570 -1.1951
   91MOL0     H12011   3.571   4.798   2.611 -0.6567  1.2421  0.5787
   91MOL0     H12012   3.341   4.787   2.708 -0.1544  1.7808  0.5279
   92MOL0     O12013  10.469   6.117   5.914  0.7758  0.2830 -0.0593
   92MOL0     C12014  10.414   6.035   5.843  0.7760 -0.3680 -0.4354
   92MOL0     O12015  10.275   6.022   5.816  0.2324 -0.4736  0.4735
   92MOL0     C12016  10.184   6.110   5.868 -1.0865  0.1547 -0.2906
   92MOL0     C12017  10.172   6.143   6.000  0.1980  0.0711 -0.4299
   92MOL0     C12018  10.068   6.220   6.040  0.4932  0.2184 -0.9864
   92MOL0     C12019   9.977   6.275   5.952 -0.1645 -0.0558  0.1983
   92MOL0     O12020   9.879   6.365   5.999  0.1114 -0.6315  0.2008
   92MOL0     C12021   9.817   6.330   6.124 -0.9675  0.2314 -0.0901
   92MOL0     C12022   9.683   6.388   6.145 -0.7255  0.6876  0.7922
   92MOL0     C12023   9.582   6.323   6.044 -0.3685  0.3589 -0.7118
   92MOL0     C12024   9.443   6.388   6.076 -0.6059  0.4086 -0.6056
   92MOL0     C12025   9.329   6.313   5.999 -1.2388 -0.0742 -0.2664
   92MOL0     C12026   9.192   6.351   6.040 -0.0189 -0.7938 -0.3726
   92MOL0     C12027   9.098   6.271   5.963  0.2266 -0.9403  0.0336
   92MOL0     C12028   8.958   6.299   6.010  0.2618 -0.4876  1.0741
   92MOL0     N12029   8.869   6.269   5.894 -0.0620 -0.9475  0.6111
   92MOL0     C12030   8.805   6.360   5.808 -0.1892  0.3374  0.4683
   92MOL0     C12031   8.719   6.293   5.728  0.2232 -0.2572 -0.5046
   92MOL0     C12032   8.621   6.334   5.621  0.2934  0.0719 -0.3626
   92MOL0     C12033   8.484   6.398   5.674 -0.4245 -0.1942 -0.2627
   92MOL0     C12034   8.417   6.280   5.742 -0.6207  0.0475 -0.3989
   92MOL0     C12035   8.268   6.300   5.767 -0.1766  0.4186 -0.5799
   92MOL0     O12036   8.243   6.421   5.840 -0.2264  0.6514  0.3292
   92MOL0     C12037   8.119   6.472   5.817 -0.3389  1.0704  0.3898
   92MOL0     C12038   8.103   6.609   5.798 -0.5794  0.0389  0.2657
   92MOL0     C12039   7.978   6.675   5.791 -0.2690  0.3790 -0.0206
   92MOL0     C12040   7.863   6.596   5.780  0.3397 -0.0725  0.9621
   92MOL0     C12041   7.734   6.659   5.751 -0.8729 -1.2488  0.5429
   92MOL0     O12042   7.630   6.582   5.769  0.0319 -0.9167 -0.2719
   92MOL0     C12043   7.499   6.631   5.740 -0.3952 -0.1072 -0.3220
   92MOL0     C12044   7.459   6.639   5.608  1.0956  0.1954 -0.0402
   92MOL0     C12045   7.323   6.629   5.571  0.5175 -0.0739 -0.2629
   92MOL0     C12046   7.223   6.641   5.671  0.0764 -0.3269  0.4098
   92MOL0     O12047   7.096   6.663   5.643  0.7935 -0.2786  0.4235
   92MOL0     C12048   7.053   6.633   5.508  0.1016 -0.1345 -1.0915
   92MOL0     C12049   6.900   6.626   5.503  0.8894 -0.1260  0.3005
   92MOL0     C12050   6.838   6.546   5.627 -0.7230  0.0690  1.2695
   92MOL0     C12051   6.678   6.555   5.621  0.7634  0.8508 -0.1598
   92MOL0     C12052   6.635   6.485   5.753 -0.2414 -0.5384 -0.5957
   92MOL0     C12053   6.491   6.480   5.784 -0.3131 -0.0585 -0.3283
   92MOL0     C12054   6.425   6.374   5.699  0.2070 -0.3388  0.1892
   92MOL0     C12055   6.283   6.341   5.741  0.2266  0.1867 -0.4384
   92MOL0    Cl12056   6.174   6.479   5.703 -0.2520  0.2006  0.2153
   92MOL0     C12057   7.265   6.657   5.805 -0.1030 -1.1163 -0.1624
   92MOL0     C12058   7.403   6.652   5.838  0.2404  0.1251  0.4746
   92MOL0     O12059   7.737   6.776   5.721  0.6316  0.1150 -0.2363
   92MOL0     C12060   7.871   6.455   5.789  0.6347  0.8957  0.0252
   92MOL0     C12061   7.999   6.391   5.804 -0.5603  0.0605 -0.2753
   92MOL0     N12062   8.732   6.166   5.771 -0.7255 -0.0082  0.7517
   92MOL0     N12063   8.821   6.146   5.865  0.2239  0.8482  0.2009
   92MOL0     C12064   9.979   6.228   5.819 -0.2271  0.0653 -0.4078
   92MOL0     C12065  10.086   6.145   5.777  0.2415 -0.4059 -0.7412
   92MOL0     C12066  10.500   5.929   5.783  0.3673  0.8831 -0.6288
   92MOL0     C12067  10.622   5.910   5.841  0.0096  0.0371  0.4701
   92MOL0     C12068  10.710   5.801   5.803 -0.6782  0.0048 -0.1188
   92MOL0     C12069  10.675   5.710   5.707 -0.4462  0.4200 -0.0322
   92MOL0     O12070  10.760   5.616   5.660  0.1013 -0.4244  0.2498
   92MOL0     C12071  10.793   5.508   5.742 -1.7305 -0.3755  0.4749
   92MOL0     C12072  10.943   5.471   5.721  0.3740  0.5709 -0.6571
   92MOL0     C12073  11.037   5.593   5.738  0.5413  0.0413  0.4718
   92MOL0     C12074  11.173   5.552   5.687  0.9509  1.3517 -0.2159
   92MOL0     C12075  11.268   5.666   5.697 -0.6174  0.6532 -0.3054
   92MOL0     C12076  11.350   5.755   5.698 -0.1901 -0.3676  0.8442
   92MOL0     C12077  10.541   5.726   5.655 -0.0779  0.5502 -0.5761
   92MOL0     C12078  10.457   5.827   5.694 -0.7153  0.1297 -0.3725
   92MOL0     H12079  10.237   6.101   6.076  1.0491  1.2100 -0.4923
   92MOL0     H12080  10.069   6.241   6.147 -1.3751 -0.0322 -0.8788
   92MOL0     H12081   9.871   6.362   6.213  0.7248 -0.9439 -0.6466
   92MOL0     H12082   9.808   6.221   6.133 -0.5704  0.1470 -0.6957
   92MOL0     H12083   9.684   6.497   6.136  2.4218  0.6071 -1.6210
   92MOL0     H12084   9.646   6.364   6.246  1.7652  1.1322  1.8946
   92MOL0     H12085   9.579   6.219   6.076 -2.2455  0.5642 -0.1516
   92MOL0     H12086   9.617   6.330   5.941 -0.3743  0.3326 -0.7151
   92MOL0     H12087   9.412   6.365   6.178 -3.4509 -1.5758 -1.7790
   92MOL0     H12088   9.444   6.496   6.060  0.2662  0.6023  0.6149
   92MOL0     H12089   9.343   6.204   5.999  0.4034  0.1183 -0.2130
   92MOL0     H12090   9.347   6.339   5.894  4.2698  0.7149  0.5905
   92MOL0     H12091   9.174   6.456   6.014  2.0701 -0.6898 -1.6002
   92MOL0     H12092   9.179   6.340   6.148 -1.0485  1.5962 -0.1965
   92MOL0     H12093   9.104   6.297   5.857 -0.9692  3.2911  0.7966
   92MOL0     H12094   9.117   6.165   5.979  0.0765 -0.5803  3.2112
   92MOL0     H12095   8.940   6.403   6.039  1.9128 -0.4497  2.0997
   92MOL0     H12096   8.942   6.237   6.099  1.1999  0.5887  2.0213
   92MOL0     H12097   8.809   6.468   5.801 -1.1527  0.2791 -1.6503
   92MOL0     H12098   8.609   6.264   5.538  0.1607 -1.3321  0.7855
   92MOL0     H12099   8.669   6.420   5.573 -1.0894  0.8418 -0.4199
   92MOL0     H12100   8.421   6.442   5.596 -0.3028 -1.8990 -1.3842
   92MOL0     H12101   8.508   6.466   5.756  0.1182 -0.4358 -0.2138
   92MOL0     H12102   8.436   6.194   5.677  0.4362  0.0545 -0.1166
   92MOL0     H12103   8.462   6.240   5.833 -1.9002 -4.1008 -1.3991
   92MOL0     H12104   8.237   6.212   5.825 -1.9979  0.0902 -1.9636
   92MOL0     H12105   8.214   6.296   5.672 -2.5257 -0.3761  0.6926
   92MOL0     H12106   8.199   6.661   5.795 -0.7973  0.4048 -0.7487
   92MOL0     H12107   7.981   6.780   5.761 -0.0475  0.2450 -0.4844
   92MOL0     H12108   7.523   6.638   5.521 -0.4939 -0.2657 -1.2501
   92MOL0     H12109   7.307   6.627   5.463 -2.3751 -1.4324  0.0856
   92MOL0     H12110   7.090   6.533   5.480  1.0266  0.3459 -1.6408
   92MOL0     H12111   7.098   6.705   5.440  1.0613  1.1974  0.8548
   92MOL0     H12112   6.864   6.575   5.413  0.2277 -0.1005  0.5443
   92MOL0     H12113   6.863   6.729   5.506  2.4184  0.4268  0.9682
   92MOL0     H12114   6.889   6.577   5.719 -1.2739  2.3636  0.8777
   92MOL0     H12115   6.859   6.439   5.616  1.7829  0.4007  2.1890
   92MOL0     H12116   6.647   6.660   5.622 -0.2106  0.6075 -1.5744
   92MOL0     H12117   6.624   6.500   5.543 -2.7516  2.0781  1.1936
   92MOL0     H12118   6.687   6.543   5.830  0.6855 -2.2621  0.1540
   92MOL0     H12119   6.666   6.380   5.753 -1.1163 -0.8110  0.2319
   92MOL0     H12120   6.446   6.579   5.777 -0.7177 -0.1598  0.6269
   92MOL0     H12121   6.481   6.459   5.891  0.6329 -0.2927 -0.2713
   92MOL0     H12122   6.432   6.422   5.601  1.1462  2.6361  1.5672
   92MOL0     H12123   6.481   6.281   5.709  3.4431  1.5971  2.0797
   92MOL0     H12124   6.277   6.310   5.846  2.7563 -0.2455 -0.3490
   92MOL0     H12125   6.252   6.251   5.686  1.2168  0.8961 -2.2182
   92MOL0     H12126   7.191   6.650   5.884 -0.7955 -2.4732 -0.8933
   92MOL0     H12127   7.436   6.642   5.941  0.9338 -0.4618  0.2020
   92MOL0     H12128   7.784   6.392   5.779  0.9433  0.7404 -2.1452
   92MOL0     H12129   8.011   6.283   5.806  0.5056  0.1791  0.1040
   92MOL0     H12130   9.914   6.269   5.743  0.7660 -0.9510 -1.8654
   92MOL0     H12131  10.082   6.116   5.673 -2.1107  2.5576 -1.6303
   92MOL0     H12132  10.663   5.980   5.913  2.3949  1.6054 -2.1981
   92MOL0     H12133  10.810   5.805   5.844 -0.3140  0.8896 -1.0413
   92MOL0     H12134  10.731   5.419   5.727  0.5731 -1.6734 -2.2926
   92MOL0     H12135  10.773   5.529   5.847  0.7978  0.8923  0.7798
   92MOL0     H12136  10.972   5.404   5.802 -0.4862  2.6558  1.4962
   92MOL0     H12137  10.949   5.420   5.624 -0.4443  0.8351 -0.8578
   92MOL0     H12138  11.037   5.617   5.845 -2.9399  0.9265  0.4163
   92MOL0     H12139  10.999   5.688   5.699 -0.2522 -0.3565  0.2376
   92MOL0     H12140  11.203   5.461   5.740 -3.7450  0.6943  1.8087
   92MOL0     H12141  11.160   5.533   5.580  0.3005 -1.0297  0.2328
   92MOL0     H12142  11.407   5.844   5.681 -0.4910 -0.3992 -0.3772
   92MOL0     H12143  10.503   5.651   5.585 -0.1399 -1.1082  1.1500
   92MOL0     H12144  10.356   5.832   5.653 -0.4092  1.8751 -1.0364
   93MOL0     O12145   9.457   6.645  10.562  0.6542 -0.1426 -0.3632
   93MOL0     C12146   9.414   6.735  10.490 -0.3970  0.7663  0.2870
   93MOL0     O12147   9.282   6.769  10.470 -0.2429  0.1980  0.0851
   93MOL0     C12148   9.171   6.710  10.529  0.2082  1.2792  0.1893
   93MOL0     C12149   9.048   6.727  10.467 -1.6010  1.0227 -0.0862
   93MOL0     C12150   8.930   6.677  10.525 -0.2139 -0.2777  0.3014
   93MOL0     C12151   8.928   6.611  10.646 -0.0440 -0.1796 -0.6065
   93MOL0     O12152   8.810   6.563  10.705 -0.1059 -0.5449  0.1128
   93MOL0     C12153   8.679   6.605  10.657 -0.8526  0.0465 -0.0846
   93MOL0     C12154   8.565   6.574  10.756  0.3995  0.0737  0.1417
   93MOL0     C12155   8.438   6.634  10.711 -0.3241  0.0287  0.0166
   93MOL0     C12156   8.332   6.638  10.824  0.2943 -0.5204 -0.4251
   93MOL0     C12157   8.205   6.716  10.778 -0.0172  0.7288  0.1494
   93MOL0     C12158   8.133   6.654  10.649 -0.2139 -0.6399  0.2642
   93MOL0     C12159   8.060   6.525  10.678 -0.1234  0.6297 -0.0345
   93MOL0     C12160   7.988   6.467  10.558  0.1729 -0.0880 -0.3663
   93MOL0     N12161   7.844   6.503  10.549  0.1065  0.3563 -0.2877
   93MOL0     C12162   7.729   6.440  10.577  0.4542 -1.0771  0.1012
   93MOL0     C12163   7.631   6.528  10.550  0.1461  1.2586  0.3196
   93MOL0     C12164   7.486   6.493  10.570 -0.0288  0.3835  0.0266
   93MOL0     C12165   7.387   6.595  10.504 -0.8618  0.6702  0.3031
   93MOL0     C12166   7.251   6.551  10.533 -0.0402  0.4097  0.0479
   93MOL0     C12167   7.152   6.662  10.492 -0.2543  0.0107  0.1877
   93MOL0     O12168   7.164   6.772  10.586 -0.0160  0.3318 -0.2971
   93MOL0     C12169   7.086   6.885  10.575  0.0664  0.1051  0.5159
   93MOL0     C12170   6.964   6.900  10.504 -0.5132  0.2661 -0.9825
   93MOL0     C12171   6.890   7.015  10.514  1.0452  0.5516 -0.5856
   93MOL0     C12172   6.930   7.118  10.590  0.1186 -0.0186  0.8658
   93MOL0     C12173   6.846   7.239  10.597  0.0203  0.7066  0.1222
   93MOL0     O12174   6.737   7.243  10.524 -0.5007  0.0513 -0.7448
   93MOL0     C12175   6.649   7.346  10.526 -0.3294 -0.0872  0.0404
   93MOL0     C12176   6.623   7.429  10.639  0.3936  0.0457  0.5272
   93MOL0     C12177   6.517   7.513  10.638  0.6797  0.1137 -0.6276
   93MOL0     C12178   6.444   7.536  10.515 -0.1468  0.2105  0.6637
   93MOL0     O12179   6.341   7.616  10.505 -0.3334 -0.4588  0.0189
   93MOL0     C12180   6.262   7.658  10.621 -1.0554  0.3105  0.2535
   93MOL0     C12181   6.143   7.731  10.568 -0.1753 -0.2659  0.0142
   93MOL0     C12182   6.070   7.810  10.679  1.1384  0.7715  0.1049
   93MOL0     C12183   5.936   7.865  10.613  0.1441 -0.7469  0.0708
   93MOL0     C12184   5.967   7.998  10.539  0.4021  0.4205  0.1576
   93MOL0     C12185   5.834   8.065  10.503 -0.0988  0.1360 -0.2930
   93MOL0     C12186   5.765   8.014  10.380 -0.4706  0.1784  1.2874
   93MOL0     C12187   5.856   8.040  10.252  0.7292  0.2566  0.2471
   93MOL0    Cl12188   5.768   8.030  10.104  0.3432 -0.4011  0.5985
   93MOL0     C12189   6.466   7.455  10.402  0.1063 -0.3241 -0.0819
   93MOL0     C12190   6.572   7.366  10.407 -0.1916  0.3345 -0.3377
   93MOL0     O12191   6.878   7.329  10.684 -0.5680  0.4046  0.7804
   93MOL0     C12192   7.044   7.110  10.677 -1.5486  0.5957  0.4693
   93MOL0     C12193   7.119   6.989  10.662 -0.3051  0.4087  0.1131
   93MOL0     N12194   7.690   6.641  10.526 -0.1062  0.2503  0.4175
   93MOL0     N12195   7.815   6.628  10.496 -0.7938  0.0463 -0.6244
   93MOL0     C12196   9.049   6.592  10.710  0.5580 -0.7333 -0.1199
   93MOL0     C12197   9.172   6.644  10.654  0.3426  0.4253 -1.1177
   93MOL0     C12198   9.509   6.822  10.420 -0.5861 -0.5568  0.3968
   93MOL0     C12199   9.461   6.920  10.326  0.2207  0.4340 -0.3629
   93MOL0     C12200   9.553   7.018  10.269  0.5255 -0.0195  0.0522
   93MOL0     C12201   9.685   7.018  10.305 -0.9489 -0.2023 -0.2493
   93MOL0     O12202   9.753   7.129  10.278  0.0176  0.1224 -0.5141
   93MOL0     C12203   9.881   7.143  10.339 -0.8945 -0.1264 -0.1019
   93MOL0     C12204   9.935   7.278  10.303  0.4207  0.4039  0.3457
   93MOL0     C12205  10.081   7.288  10.348  1.3385 -0.1268  1.2558
   93MOL0     C12206  10.144   7.420  10.298  0.0026 -0.8513  1.0979
   93MOL0     C12207  10.086   7.535  10.361 -0.5678  0.0194  1.0125
   93MOL0     C12208  10.033   7.638  10.411  0.1544 -0.3766 -0.9479
   93MOL0     C12209   9.731   6.911  10.385 -0.2806  0.5975  0.0515
   93MOL0     C12210   9.643   6.819  10.446  0.3135  0.3772 -0.3571
   93MOL0     H12211   9.049   6.772  10.368  1.1185 -0.7187 -0.9484
   93MOL0     H12212   8.835   6.681  10.472  0.7503 -0.5558 -1.5528
   93MOL0     H12213   8.640   6.562  10.564 -0.7945 -0.2550  0.0295
   93MOL0     H12214   8.685   6.714  10.652  0.9506  0.0074  0.6617
   93MOL0     H12215   8.586   6.618  10.854 -2.2947  0.4735  0.6110
   93MOL0     H12216   8.549   6.466  10.763 -1.0529  0.3827  2.3286
   93MOL0     H12217   8.400   6.581  10.624 -0.4624  0.9335 -0.4829
   93MOL0     H12218   8.464   6.732  10.669  2.0408 -1.0193 -1.1514
   93MOL0     H12219   8.296   6.541  10.859 -1.6263  0.7954  1.4932
   93MOL0     H12220   8.366   6.690  10.914  0.4042 -1.2879 -0.0183
   93MOL0     H12221   8.234   6.818  10.753  5.0354 -0.9765 -2.2868
   93MOL0     H12222   8.132   6.707  10.859 -1.8645  1.0279 -1.4006
   93MOL0     H12223   8.203   6.623  10.572  0.3296 -2.6946  1.5170
   93MOL0     H12224   8.065   6.728  10.607  0.8791 -1.2234 -2.7365
   93MOL0     H12225   8.139   6.452  10.698 -1.1422  0.0180  1.9458
   93MOL0     H12226   8.004   6.527  10.772  2.7689  2.4159  1.8291
   93MOL0     H12227   7.993   6.357  10.559  3.6699 -0.0406  0.7293
   93MOL0     H12228   8.044   6.490  10.467 -1.0793 -0.2601 -1.2067
   93MOL0     H12229   7.729   6.336  10.606  0.4041 -1.6608 -1.8289
   93MOL0     H12230   7.466   6.497  10.678  0.8538  1.2537  0.1677
   93MOL0     H12231   7.474   6.397  10.518  1.5624 -1.3753  2.6748
   93MOL0     H12232   7.405   6.587  10.397  3.3698 -1.0658  0.9315
   93MOL0     H12233   7.422   6.693  10.537  2.9205 -0.6807  0.9110
   93MOL0     H12234   7.236   6.463  10.470  3.0781  0.3353 -0.7586
   93MOL0     H12235   7.236   6.517  10.636 -1.5277 -4.6476 -1.5315
   93MOL0     H12236   7.054   6.618  10.508  0.6377 -1.8352  0.8781
   93MOL0     H12237   7.164   6.693  10.387 -2.1272  1.1397  0.2669
   93MOL0     H12238   6.944   6.825  10.428 -0.5349 -0.4434 -0.2919
   93MOL0     H12239   6.795   7.011  10.460  1.0306 -1.5672 -0.4977
   93MOL0     H12240   6.677   7.414  10.732 -0.5071 -2.9211  0.6423
   93MOL0     H12241   6.504   7.565  10.732  0.1299  0.2223 -0.7611
   93MOL0     H12242   6.331   7.721  10.678  0.9703 -1.7506  0.2441
   93MOL0     H12243   6.235   7.568  10.676  1.7336 -3.9895 -4.5559
   93MOL0     H12244   6.074   7.664  10.516  1.3080 -1.0676 -0.9951
   93MOL0     H12245   6.187   7.796  10.492  1.7641 -1.2968  0.2093
   93MOL0     H12246   6.139   7.885  10.720  0.3905  1.9390 -0.7027
   93MOL0     H12247   6.042   7.746  10.763  0.6391 -0.7206 -1.1565
   93MOL0     H12248   5.884   7.794  10.549  1.8996 -0.8464 -1.3073
   93MOL0     H12249   5.882   7.884  10.707  1.3806 -0.7859  0.8051
   93MOL0     H12250   6.029   7.983  10.449 -0.4486  1.7548 -0.6891
   93MOL0     H12251   6.023   8.063  10.607 -2.0072  2.4801  0.3257
   93MOL0     H12252   5.840   8.174  10.498  4.6621  0.1496  1.0671
   93MOL0     H12253   5.777   8.046  10.594  1.3192 -0.0504  0.5944
   93MOL0     H12254   5.759   7.905  10.389  0.7831  0.1292  1.6961
   93MOL0     H12255   5.667   8.063  10.371 -1.0194 -1.0238  0.4153
   93MOL0     H12256   5.935   7.964  10.257 -0.3745 -0.9136  0.2335
   93MOL0     H12257   5.889   8.143  10.235 -0.4957  0.4099 -1.6057
   93MOL0     H12258   6.398   7.446  10.318 -1.7168 -1.4920  1.4197
   93MOL0     H12259   6.596   7.299  10.325  0.7774 -1.6822  1.5011
   93MOL0     H12260   7.071   7.189  10.746 -1.8801  1.0461  0.0925
   93MOL0     H12261   7.202   6.978  10.731 -0.5921  1.2215  0.6011
   93MOL0     H12262   9.050   6.558  10.813  1.2023  0.2191  0.2051
   93MOL0     H12263   9.264   6.623  10.708  0.2013  1.0473 -0.6205
   93MOL0     H12264   9.354   6.937  10.317 -0.2316 -0.1826  2.6656
   93MOL0     H12265   9.507   7.093  10.205 -0.9053 -0.2720  0.7482
   93MOL0     H12266   9.945   7.063  10.301 -0.9894  0.2090 -0.9888
   93MOL0     H12267   9.867   7.136  10.447 -0.3137 -1.3483 -0.0886
   93MOL0     H12268   9.920   7.302  10.198 -1.4245 -0.8616  0.2767
   93MOL0     H12269   9.865   7.348  10.350 -0.8949  0.1898 -1.1981
   93MOL0     H12270  10.137   7.206  10.302  0.3369  0.2814 -0.8290
   93MOL0     H12271  10.085   7.283  10.457 -2.8619  1.7752  1.7243
   93MOL0     H12272  10.248   7.419  10.334 -0.3643 -0.8808  2.2091
   93MOL0     H12273  10.148   7.422  10.189  0.3281  0.0834  1.1175
   93MOL0     H12274   9.986   7.726  10.450  0.7682 -0.2326 -0.5293
   93MOL0     H12275   9.838   6.907  10.404 -0.3338  1.2321  0.5176
   93MOL0     H12276   9.691   6.740  10.503 -0.3927 -0.1688 -0.4959
   94MOL0     O12277   1.218   3.997   5.343  0.2584  0.2565  0.3817
   94MOL0     C12278   1.295   3.955   5.430  0.4826  0.4179  0.2292
   94MOL0     O12279   1.264   3.922   5.557 -0.2553 -0.0292 -0.3454
   94MOL0     C12280   1.128   3.918   5.596 -0.0612 -0.0480  0.6408
   94MOL0     C12281   1.012   3.874   5.534 -0.4607  0.0395 -0.0263
   94MOL0     C12282   0.881   3.888   5.591 -0.2665 -0.0579  0.6657
   94MOL0     C12283   0.866   3.951   5.721 -0.3503  0.8461  0.0373
   94MOL0     O12284   0.751   3.964   5.801  0.9651 -0.0561 -0.3362
   94MOL0     C12285   0.631   3.938   5.738  0.0148 -0.8301  1.1688
   94MOL0     C12286   0.577   4.080   5.692  0.0522  0.1734 -0.7161
   94MOL0     C12287   0.429   4.075   5.666  0.0403  0.3191 -0.3853
   94MOL0     C12288   0.347   4.047   5.794 -0.4211 -0.6652 -0.0781
   94MOL0     C12289   0.193   4.062   5.770  0.5083 -0.1240  0.3833
   94MOL0     C12290   0.139   3.982   5.654  1.0043 -0.7717  0.4930
   94MOL0     C12291  -0.015   3.968   5.653 -0.0071 -0.1859  0.0087
   94MOL0     C12292  -0.057   3.878   5.529  0.8613  0.2547 -0.8074
   94MOL0     N12293  -0.196   3.894   5.500 -0.0217 -0.0375  0.1091
   94MOL0     C12294  -0.238   4.010   5.429 -0.3129 -0.4337 -0.2278
   94MOL0     C12295  -0.368   3.980   5.413  0.8172 -0.4499  0.0477
   94MOL0     C12296  -0.471   4.078   5.330  0.4263  0.5269 -0.3081
   94MOL0     C12297  -0.616   4.032   5.380 -0.6029  0.3242  0.0877
   94MOL0     C12298  -0.730   4.090   5.296 -0.6777  0.0995  0.0432
   94MOL0     C12299  -0.868   4.038   5.334  0.0092  0.3279  0.3743
   94MOL0     O12300  -0.958   4.102   5.238  0.1780  0.1289  0.1262
   94MOL0     C12301  -1.085   4.118   5.279  0.7171  0.0758 -0.0300
   94MOL0     C12302  -1.145   4.048   5.387  0.0629 -0.0124  0.6326
   94MOL0     C12303  -1.277   4.069   5.422 -0.1091 -0.5885 -0.3852
   94MOL0     C12304  -1.364   4.155   5.344 -0.5159 -0.1326 -0.0168
   94MOL0     C12305  -1.506   4.194   5.377  0.1461  0.8796  0.1277
   94MOL0     O12306  -1.572   4.286   5.296 -1.0052  0.0043 -0.2453
   94MOL0     C12307  -1.703   4.309   5.333 -0.3127  0.6979  0.2025
   94MOL0     C12308  -1.732   4.421   5.400 -0.1999  0.9893 -0.0390
   94MOL0     C12309  -1.867   4.451   5.426 -0.0440 -1.1621  1.0074
   94MOL0     C12310  -1.974   4.372   5.386  0.1173  0.9318 -0.1108
   94MOL0     O12311  -2.103   4.418   5.404 -0.3156  0.0874  0.3376
   94MOL0     C12312  -2.129   4.450   5.546 -0.4496 -0.1399 -0.1534
   94MOL0     C12313  -2.283   4.434   5.566  0.1466  0.8792 -0.1194
   94MOL0     C12314  -2.365   4.552   5.522  0.2898 -1.5668  0.9323
   94MOL0     C12315  -2.513   4.544   5.558  0.5759 -0.9028 -0.0754
   94MOL0     C12316  -2.603   4.661   5.516  0.7886 -1.1175  0.1305
   94MOL0     C12317  -2.591   4.693   5.365  0.1429 -0.8801 -0.8784
   94MOL0     C12318  -2.701   4.795   5.315 -0.3220  0.4524  0.4340
   94MOL0     C12319  -2.696   4.928   5.399 -0.5479 -0.2283 -0.1225
   94MOL0    Cl12320  -2.779   5.054   5.312 -0.0746 -0.3123  0.4071
   94MOL0     C12321  -1.937   4.256   5.330 -0.6905  0.1134  0.4003
   94MOL0     C12322  -1.803   4.220   5.305  0.1312 -0.4377  0.3734
   94MOL0     O12323  -1.555   4.128   5.465 -0.5623 -0.1465 -0.0956
   94MOL0     C12324  -1.306   4.223   5.237  0.0911 -0.0180  0.3463
   94MOL0     C12325  -1.174   4.190   5.204 -0.6227 -1.4580 -0.6848
   94MOL0     N12326  -0.390   3.847   5.447  0.6961  0.4839  0.5293
   94MOL0     N12327  -0.288   3.795   5.510 -0.0633 -0.2582  0.7072
   94MOL0     C12328   0.990   3.986   5.789  0.0135 -0.1275 -0.0873
   94MOL0     C12329   1.112   3.973   5.727 -0.6703 -0.9930 -0.8812
   94MOL0     C12330   1.433   3.929   5.392 -0.5709 -0.4138 -0.3072
   94MOL0     C12331   1.481   3.956   5.268 -0.6661 -0.9742 -0.5220
   94MOL0     C12332   1.612   3.918   5.234  0.4426  0.2145  0.9548
   94MOL0     C12333   1.700   3.849   5.326  0.6689  0.3464  0.0775
   94MOL0     O12334   1.827   3.811   5.301  0.1679  0.0292  0.2024
   94MOL0     C12335   1.851   3.783   5.165 -0.1183 -0.6084  0.3776
   94MOL0     C12336   1.995   3.714   5.158 -0.0476  0.9215  0.1745
   94MOL0     C12337   2.109   3.786   5.240  0.2823  0.9665  0.5027
   94MOL0     C12338   2.249   3.748   5.220  0.3323  0.0598  0.0149
   94MOL0     C12339   2.286   3.768   5.080 -0.1773 -0.2269  0.1512
   94MOL0     C12340   2.317   3.778   4.963 -0.4378 -0.9406  0.0533
   94MOL0     C12341   1.656   3.830   5.455  0.2534 -0.3646 -0.3048
   94MOL0     C12342   1.520   3.869   5.487 -0.9523  0.2138  0.5610
   94MOL0     H12343   1.021   3.839   5.431  0.6709 -0.9354  0.3852
   94MOL0     H12344   0.802   3.858   5.523  1.5643 -1.8075 -0.8204
   94MOL0     H12345   0.561   3.899   5.812  0.3342  0.3051  2.0978
   94MOL0     H12346   0.625   3.864   5.658  0.3220  0.0944  0.2628
   94MOL0     H12347   0.609   4.112   5.593  0.0404 -0.0170 -0.7805
   94MOL0     H12348   0.603   4.157   5.766  0.8372 -1.4301  0.7405
   94MOL0     H12349   0.402   3.994   5.597 -3.1502 -1.3356  2.5217
   94MOL0     H12350   0.402   4.169   5.617 -1.7759 -0.8196 -1.7702
   94MOL0     H12351   0.363   3.951   5.843 -2.6969 -2.5262 -2.6777
   94MOL0     H12352   0.382   4.114   5.873  1.3825  0.2579 -1.5652
   94MOL0     H12353   0.172   4.167   5.748  0.8006 -0.3116 -0.8577
   94MOL0     H12354   0.138   4.037   5.862  1.5404  1.5589  1.4978
   94MOL0     H12355   0.178   3.879   5.648  0.7623 -0.8474  0.1582
   94MOL0     H12356   0.164   4.033   5.560  2.3116 -2.5121 -0.1736
   94MOL0     H12357  -0.045   3.900   5.734 -0.6568 -0.2368 -0.2651
   94MOL0     H12358  -0.068   4.062   5.670  0.1314 -0.3622  1.5223
   94MOL0     H12359  -0.029   3.774   5.548  1.4326  0.6348  0.5089
   94MOL0     H12360   0.002   3.921   5.447  1.8710  3.2944  1.3502
   94MOL0     H12361  -0.193   4.105   5.401 -0.7521 -0.1596 -0.0091
   94MOL0     H12362  -0.446   4.078   5.224  0.0272  3.5703 -0.5046
   94MOL0     H12363  -0.483   4.179   5.369 -0.1500  0.0104  0.8978
   94MOL0     H12364  -0.640   4.065   5.481 -1.1853  0.8470 -0.2134
   94MOL0     H12365  -0.629   3.923   5.376  0.8148 -0.0072  2.5173
   94MOL0     H12366  -0.732   4.199   5.303 -0.9533  0.0510  0.7537
   94MOL0     H12367  -0.695   4.071   5.194  2.2750  1.3785  0.7229
   94MOL0     H12368  -0.886   4.073   5.437 -0.7914  1.2380 -0.0571
   94MOL0     H12369  -0.866   3.929   5.326 -1.1791  0.3322 -0.1148
   94MOL0     H12370  -1.094   3.977   5.452  0.2905 -1.8819 -1.4895
   94MOL0     H12371  -1.309   4.037   5.520  1.4588 -0.7300  0.1040
   94MOL0     H12372  -1.659   4.494   5.432  2.6105 -1.7985  0.4369
   94MOL0     H12373  -1.896   4.543   5.476 -0.8404 -0.4329 -0.6879
   94MOL0     H12374  -2.098   4.550   5.577  0.2816 -1.4220  3.8104
   94MOL0     H12375  -2.079   4.377   5.611  0.4473  0.1330 -0.5242
   94MOL0     H12376  -2.302   4.418   5.673  0.4611  0.5603 -0.1072
   94MOL0     H12377  -2.311   4.348   5.504 -0.2761 -0.4013  1.7557
   94MOL0     H12378  -2.345   4.570   5.416  3.2495  3.0326  1.9413
   94MOL0     H12379  -2.330   4.640   5.577 -2.8321 -0.5231  1.4248
   94MOL0     H12380  -2.555   4.450   5.524 -0.1540 -1.2428  1.6471
   94MOL0     H12381  -2.530   4.534   5.666 -0.2838  1.3098  0.0419
   94MOL0     H12382  -2.568   4.747   5.573  1.2659  1.0708 -3.1880
   94MOL0     H12383  -2.699   4.628   5.558  2.1880 -1.4961  3.3416
   94MOL0     H12384  -2.606   4.598   5.314 -1.1203 -1.3761  0.3304
   94MOL0     H12385  -2.488   4.723   5.348  0.3449 -0.9376  0.1738
   94MOL0     H12386  -2.669   4.826   5.215  1.2421  1.1325  1.1005
   94MOL0     H12387  -2.799   4.747   5.316 -0.5897  1.0021  1.0973
   94MOL0     H12388  -2.593   4.950   5.428 -0.2940 -1.6220  0.1000
   94MOL0     H12389  -2.759   4.918   5.489  0.9204 -2.8579  0.7156
   94MOL0     H12390  -2.001   4.182   5.283 -1.0990 -0.1202  1.3163
   94MOL0     H12391  -1.795   4.118   5.270  0.8141 -0.7669  1.4278
   94MOL0     H12392  -1.355   4.301   5.179 -1.8628 -2.9611 -2.2685
   94MOL0     H12393  -1.140   4.249   5.120  1.1484 -2.1701 -0.5119
   94MOL0     H12394   0.996   4.031   5.888  2.1048 -0.2339 -0.1132
   94MOL0     H12395   1.196   4.017   5.780 -0.0906 -2.6991 -0.3013
   94MOL0     H12396   1.417   4.001   5.193  0.5591  1.6963 -0.1133
   94MOL0     H12397   1.632   3.944   5.130  2.2317 -0.1823  1.1644
   94MOL0     H12398   1.854   3.875   5.107  2.2555 -0.9642 -0.1746
   94MOL0     H12399   1.771   3.718   5.128 -0.4111 -1.8606  2.9536
   94MOL0     H12400   1.985   3.615   5.203 -1.6899  0.6154 -0.7502
   94MOL0     H12401   2.021   3.701   5.052  0.8200 -0.7416  0.5489
   94MOL0     H12402   2.097   3.771   5.348 -0.0538  4.3078  1.0200
   94MOL0     H12403   2.107   3.894   5.226  0.2887  0.8077 -0.8276
   94MOL0     H12404   2.317   3.812   5.277  1.0312  0.9847 -1.7997
   94MOL0     H12405   2.267   3.647   5.259  3.7968  0.4372 -0.2810
   94MOL0     H12406   2.350   3.777   4.861  1.0526  0.3716  0.4828
   94MOL0     H12407   1.721   3.788   5.531 -0.2643  0.9692  0.9282
   94MOL0     H12408   1.483   3.848   5.587  1.4356 -0.3880  1.3791
   95MOL0     O12409   8.343   1.002   3.599  0.4593 -0.3890  0.3007
   95MOL0     C12410   8.328   1.127   3.602  0.2402  0.5589 -0.1182
   95MOL0     O12411   8.211   1.196   3.568  0.2659 -0.2654 -0.0607
   95MOL0     C12412   8.097   1.118   3.535 -0.3192 -0.6361  0.3868
   95MOL0     C12413   8.040   1.018   3.616 -0.4062  0.3772  0.2883
   95MOL0     C12414   7.943   0.927   3.565  0.2302  0.0884 -0.1941
   95MOL0     C12415   7.895   0.961   3.437  0.8132  1.0694  0.9732
   95MOL0     O12416   7.769   0.914   3.391 -0.6003  0.2089  0.3262
   95MOL0     C12417   7.669   0.854   3.482 -0.3439  0.4826 -0.3336
   95MOL0     C12418   7.692   0.701   3.495  0.0128 -0.6924 -0.8429
   95MOL0     C12419   7.585   0.666   3.592 -0.2194 -0.2410 -0.5390
   95MOL0     C12420   7.585   0.518   3.636  0.1447  0.3348  0.0773
   95MOL0     C12421   7.442   0.470   3.689 -0.6455  0.4756 -0.3390
   95MOL0     C12422   7.405   0.508   3.829  0.3806  0.3765  0.1296
   95MOL0     C12423   7.269   0.442   3.865  0.1943  0.3164 -0.2910
   95MOL0     C12424   7.258   0.411   4.016 -0.4800  0.3090 -0.0554
   95MOL0     N12425   7.242   0.544   4.091  0.9151  0.0045 -0.0561
   95MOL0     C12426   7.143   0.635   4.074  0.1702 -0.0109  0.5235
   95MOL0     C12427   7.181   0.732   4.165 -0.4807  0.2797  0.4544
   95MOL0     C12428   7.111   0.864   4.190  0.1613 -0.0149  0.0279
   95MOL0     C12429   6.979   0.851   4.258 -0.1743  0.2754 -0.2712
   95MOL0     C12430   6.866   0.836   4.160 -0.4861 -0.2729 -0.3500
   95MOL0     C12431   6.723   0.837   4.219 -0.1920  0.2663 -0.2521
   95MOL0     O12432   6.726   0.767   4.345  0.1177 -0.2482 -0.2124
   95MOL0     C12433   6.613   0.747   4.416 -0.5181  0.0885  0.3189
   95MOL0     C12434   6.620   0.662   4.531 -0.6729  0.1718  0.3271
   95MOL0     C12435   6.512   0.635   4.604  0.3169  0.7800 -0.1548
   95MOL0     C12436   6.381   0.686   4.574 -0.0411  0.0469 -0.4217
   95MOL0     C12437   6.265   0.669   4.656 -0.0941 -0.1823 -0.3259
   95MOL0     O12438   6.151   0.747   4.629  0.2891  0.3153  0.2822
   95MOL0     C12439   6.023   0.704   4.678  0.2150 -0.4895  0.1952
   95MOL0     C12440   5.929   0.798   4.718 -0.3935  0.3002  1.3821
   95MOL0     C12441   5.810   0.765   4.772 -0.0876 -0.3123 -0.2041
   95MOL0     C12442   5.789   0.632   4.794  0.2489  0.3689 -0.4338
   95MOL0     O12443   5.683   0.605   4.864  0.7121 -0.4280 -0.1450
   95MOL0     C12444   5.632   0.472   4.903  0.4723 -0.2252 -0.5104
   95MOL0     C12445   5.501   0.481   4.982  0.1525 -0.4533 -0.7009
   95MOL0     C12446   5.390   0.570   4.918  0.0413 -0.7275  0.4577
   95MOL0     C12447   5.268   0.594   5.010  0.0997 -0.2020 -0.1852
   95MOL0     C12448   5.154   0.655   4.926 -0.0766 -0.2487  0.4999
   95MOL0     C12449   5.049   0.697   5.024  0.3887 -0.5619 -0.6984
   95MOL0     C12450   4.955   0.810   4.964 -0.1750  0.4951 -0.3115
   95MOL0     C12451   4.840   0.854   5.057 -0.4597  0.1854  0.7295
   95MOL0    Cl12452   4.730   0.980   4.977 -0.0335 -0.0739 -0.1324
   95MOL0     C12453   5.872   0.531   4.747 -0.1216  0.2778 -0.3362
   95MOL0     C12454   5.994   0.571   4.687  0.0261  0.4141 -0.3922
   95MOL0     O12455   6.278   0.581   4.740 -0.0480 -0.3153 -0.2187
   95MOL0     C12456   6.367   0.774   4.469  0.1321 -0.2437 -0.2311
   95MOL0     C12457   6.479   0.795   4.381 -0.1672 -0.2302 -0.0729
   95MOL0     N12458   7.297   0.695   4.232  0.0752  0.2534 -0.7110
   95MOL0     N12459   7.328   0.580   4.183 -0.2166 -0.2716  0.1564
   95MOL0     C12460   7.944   1.065   3.366  0.2164  0.4623  0.5649
   95MOL0     C12461   8.052   1.143   3.406 -0.2222  0.0661 -0.6530
   95MOL0     C12462   8.446   1.204   3.630  0.3450 -0.7767  1.3424
   95MOL0     C12463   8.553   1.159   3.709 -0.2698 -0.3192 -0.5253
   95MOL0     C12464   8.660   1.241   3.735 -0.2392 -0.3593 -0.0708
   95MOL0     C12465   8.665   1.369   3.687  0.0806 -0.4405 -0.4961
   95MOL0     O12466   8.762   1.454   3.714 -0.1017 -0.5710  0.2095
   95MOL0     C12467   8.887   1.414   3.776 -0.2088  0.0469 -0.8925
   95MOL0     C12468   8.978   1.532   3.750 -0.5072 -0.4058 -0.2040
   95MOL0     C12469   9.120   1.513   3.803  0.3341 -0.4727  0.1393
   95MOL0     C12470   9.196   1.652   3.827 -0.0441  0.5351 -0.1747
   95MOL0     C12471   9.338   1.616   3.856 -0.2097 -0.1315  0.0459
   95MOL0     C12472   9.445   1.567   3.889  0.3364  0.5773 -0.0849
   95MOL0     C12473   8.555   1.421   3.615 -0.3223  0.2186 -0.1093
   95MOL0     C12474   8.445   1.339   3.587 -0.3761 -0.2420  0.3430
   95MOL0     H12475   8.090   1.009   3.711 -0.1653  1.6617  0.3012
   95MOL0     H12476   7.896   0.850   3.625 -0.6406  0.6693 -0.1183
   95MOL0     H12477   7.570   0.867   3.437 -1.4508  0.5051  1.9884
   95MOL0     H12478   7.667   0.912   3.575  0.3488 -0.7202  0.4521
   95MOL0     H12479   7.793   0.677   3.528 -0.1109 -0.0761  0.0024
   95MOL0     H12480   7.672   0.640   3.406 -2.5606 -1.5024  0.1733
   95MOL0     H12481   7.491   0.692   3.543 -1.5521  0.7065  2.2894
   95MOL0     H12482   7.586   0.717   3.689 -0.2479 -0.8468 -0.2139
   95MOL0     H12483   7.606   0.451   3.551  2.5226  1.5410 -0.3875
   95MOL0     H12484   7.661   0.498   3.713  0.5551 -0.8017 -0.5863
   95MOL0     H12485   7.431   0.362   3.677  3.0449 -0.3403  2.0637
   95MOL0     H12486   7.365   0.509   3.622 -1.6371 -0.0608  0.4497
   95MOL0     H12487   7.393   0.615   3.846 -1.2660  0.6380 -2.3149
   95MOL0     H12488   7.489   0.473   3.890  1.8820  0.7654 -1.6308
   95MOL0     H12489   7.181   0.505   3.846 -0.5047 -0.2514  0.9523
   95MOL0     H12490   7.253   0.344   3.821  0.0361  0.5939 -0.8594
   95MOL0     H12491   7.353   0.363   4.040  0.9379  0.7114 -4.1921
   95MOL0     H12492   7.179   0.335   4.025 -0.5851  0.4018 -0.1924
   95MOL0     H12493   7.061   0.629   4.003 -0.2288  1.1403  0.8690
   95MOL0     H12494   7.092   0.907   4.091 -0.0593  0.4777  0.2803
   95MOL0     H12495   7.172   0.939   4.242  1.6705  0.0193 -1.6800
   95MOL0     H12496   6.973   0.941   4.320 -0.4990 -1.5215  2.5034
   95MOL0     H12497   6.987   0.765   4.324  3.0611  0.8975  0.3498
   95MOL0     H12498   6.866   0.922   4.092  1.8314 -0.5654 -0.8160
   95MOL0     H12499   6.882   0.742   4.106 -2.9983  0.3110 -2.3086
   95MOL0     H12500   6.656   0.791   4.147 -0.4024 -0.6177  0.4817
   95MOL0     H12501   6.700   0.942   4.235 -0.0953  0.2538 -0.0198
   95MOL0     H12502   6.705   0.599   4.556 -3.8612 -4.3271  1.0654
   95MOL0     H12503   6.515   0.560   4.683  0.0323  0.2961 -0.5925
   95MOL0     H12504   5.950   0.904   4.722  2.7861 -0.2754  2.1884
   95MOL0     H12505   5.757   0.847   4.820  0.0826  0.8488 -1.9052
   95MOL0     H12506   5.716   0.426   4.956 -0.9890 -2.7001 -0.1953
   95MOL0     H12507   5.616   0.416   4.811 -0.0634  1.3136 -1.3813
   95MOL0     H12508   5.522   0.498   5.088  1.8354 -0.0621 -1.0664
   95MOL0     H12509   5.452   0.383   4.980 -0.2009 -0.2708 -1.9601
   95MOL0     H12510   5.369   0.522   4.822  0.3644 -0.2790  0.1611
   95MOL0     H12511   5.426   0.672   4.905 -1.7840 -0.0443  0.5262
   95MOL0     H12512   5.244   0.502   5.064  0.8022 -0.0605  0.3847
   95MOL0     H12513   5.299   0.674   5.078 -1.8334  0.7830 -0.3784
   95MOL0     H12514   5.107   0.581   4.860 -2.2069  2.2712 -0.9715
   95MOL0     H12515   5.185   0.742   4.869 -1.3971 -0.1347 -0.0837
   95MOL0     H12516   5.095   0.736   5.115  1.3618 -1.8411 -0.6142
   95MOL0     H12517   4.990   0.610   5.055 -2.0547  1.1499 -0.2109
   95MOL0     H12518   5.027   0.892   4.965 -2.2099  2.3898  1.9674
   95MOL0     H12519   4.924   0.789   4.860  1.8812  0.0149 -0.8702
   95MOL0     H12520   4.877   0.894   5.152  0.9270 -1.0097  0.7246
   95MOL0     H12521   4.772   0.770   5.074  1.5260 -1.2633  1.8934
   95MOL0     H12522   5.849   0.426   4.765  0.0437  0.1798 -0.6832
   95MOL0     H12523   6.072   0.501   4.659 -0.2141  0.7719 -2.1030
   95MOL0     H12524   6.276   0.825   4.440 -0.2502  0.1963  1.6168
   95MOL0     H12525   6.466   0.872   4.305  1.5167  1.1745  0.9932
   95MOL0     H12526   7.915   1.075   3.262  1.7720 -0.4686  0.0045
   95MOL0     H12527   8.095   1.214   3.336 -1.1055  1.2359 -0.0449
   95MOL0     H12528   8.545   1.057   3.743 -0.5267 -0.8659 -2.1232
   95MOL0     H12529   8.740   1.201   3.796  0.1886 -0.1914 -0.5131
   95MOL0     H12530   8.936   1.326   3.735 -1.2478 -0.5119 -0.9715
   95MOL0     H12531   8.877   1.406   3.884 -0.2240 -1.2145 -0.9765
   95MOL0     H12532   8.975   1.551   3.642 -3.0170 -2.7775 -0.6793
   95MOL0     H12533   8.937   1.621   3.797  0.5274 -1.4082  2.8173
   95MOL0     H12534   9.173   1.445   3.737 -0.6454 -1.2519  0.1326
   95MOL0     H12535   9.103   1.452   3.892 -1.2506  0.3279  0.4335
   95MOL0     H12536   9.191   1.723   3.744 -0.4562 -0.7476 -1.2827
   95MOL0     H12537   9.147   1.697   3.914 -0.8878 -0.3232 -0.1954
   95MOL0     H12538   9.530   1.521   3.934  2.0954  0.7154 -2.9842
   95MOL0     H12539   8.567   1.521   3.573  0.2734  0.4716  0.6460
   95MOL0     H12540   8.364   1.383   3.528  1.2055 -0.6551 -2.3267
   96MOL0     O12541   7.976   2.079   8.316  0.1488  0.1759  0.1826
   96MOL0     C12542   7.918   2.123   8.215 -0.5192 -0.1426 -0.6918
   96MOL0     O12543   7.780   2.129   8.190  0.3723 -0.1494 -0.2699
   96MOL0     C12544   7.697   2.092   8.295 -0.0354 -0.3712  0.5655
   96MOL0     C12545   7.574   2.021   8.261  0.5633 -0.6244  0.6700
   96MOL0     C12546   7.480   1.995   8.363 -0.2576  0.3014 -0.1951
   96MOL0     C12547   7.501   2.034   8.495 -0.2363 -0.4237  0.6814
   96MOL0     O12548   7.403   2.031   8.595  0.1539  0.2027 -0.2591
   96MOL0     C12549   7.270   1.988   8.567 -0.2502  0.5872 -0.3221
   96MOL0     C12550   7.177   2.086   8.491 -0.2642 -0.7118  0.2970
   96MOL0     C12551   7.147   2.222   8.568  0.6068  0.3890 -0.1210
   96MOL0     C12552   7.059   2.198   8.685 -0.7790 -0.1593 -0.6420
   96MOL0     C12553   7.054   2.325   8.780  0.4209  0.5642  0.1398
   96MOL0     C12554   6.952   2.312   8.895 -0.0017 -0.0863 -0.0461
   96MOL0     C12555   6.805   2.303   8.839 -0.6217  0.2050 -0.3866
   96MOL0     C12556   6.704   2.278   8.941  0.8128 -1.1752  0.0733
   96MOL0     N12557   6.694   2.150   9.010  0.6213 -0.0496  0.0272
   96MOL0     C12558   6.651   2.030   8.953  1.0562  0.2115  0.4592
   96MOL0     C12559   6.674   1.933   9.047 -0.0078 -1.1131  0.4003
   96MOL0     C12560   6.653   1.788   9.032 -0.2914 -0.2239  0.0001
   96MOL0     C12561   6.526   1.730   9.105  0.1264  0.5242  0.7167
   96MOL0     C12562   6.392   1.755   9.033 -0.2477  0.0648  0.1933
   96MOL0     C12563   6.404   1.698   8.886  0.5748 -0.1494 -0.2130
   96MOL0     O12564   6.278   1.693   8.812 -0.3604  0.1027  0.8245
   96MOL0     C12565   6.183   1.592   8.842  0.2037  0.5108  0.1084
   96MOL0     C12566   6.199   1.484   8.936 -0.3024 -0.9785  0.3438
   96MOL0     C12567   6.097   1.390   8.961 -0.0941  0.5778  0.2774
   96MOL0     C12568   5.982   1.400   8.894  1.1665  0.4071 -0.4928
   96MOL0     C12569   5.868   1.306   8.916  0.3142 -0.3424  0.5714
   96MOL0     O12570   5.740   1.330   8.868  0.0018 -0.6465  0.5026
   96MOL0     C12571   5.631   1.258   8.912  0.7567 -0.2581  1.4627
   96MOL0     C12572   5.603   1.211   9.040  0.0099  0.4583  0.2689
   96MOL0     C12573   5.469   1.168   9.077 -0.4538 -0.5406 -0.7549
   96MOL0     C12574   5.368   1.162   8.979  0.1765  1.0552  0.1547
   96MOL0     O12575   5.243   1.122   8.998  0.5314  0.2081  0.5805
   96MOL0     C12576   5.230   1.056   9.123 -0.0605 -0.6567  0.5361
   96MOL0     C12577   5.084   0.996   9.138 -0.3121  0.3349 -0.4525
   96MOL0     C12578   5.072   0.918   9.267 -0.0347  0.2535 -0.2485
   96MOL0     C12579   4.925   0.854   9.280 -0.0258 -0.7053  0.6977
   96MOL0     C12580   4.914   0.790   9.418 -0.2869 -0.2194 -0.2622
   96MOL0     C12581   4.771   0.773   9.468 -0.1528  0.3560 -0.0260
   96MOL0     C12582   4.787   0.706   9.605  0.2034 -0.4829 -0.6550
   96MOL0     C12583   4.658   0.691   9.685 -0.6173 -0.0946 -0.3666
   96MOL0    Cl12584   4.539   0.610   9.593  0.1781  0.5275  0.3290
   96MOL0     C12585   5.403   1.208   8.854  0.8550  0.2700 -0.7518
   96MOL0     C12586   5.523   1.265   8.820  0.1880 -0.5770  0.0721
   96MOL0     O12587   5.895   1.212   8.987  0.6308 -0.4398  0.2046
   96MOL0     C12588   5.970   1.502   8.792 -0.2384  0.5212 -0.0381
   96MOL0     C12589   6.070   1.590   8.760 -0.1930 -0.6793 -1.5646
   96MOL0     N12590   6.732   1.992   9.158 -0.0366  0.0339  0.0710
   96MOL0     N12591   6.735   2.115   9.133  0.2478 -0.1299 -0.1157
   96MOL0     C12592   7.627   2.088   8.520  0.3014 -1.2959  0.0011
   96MOL0     C12593   7.722   2.130   8.426  0.3753  0.5686 -0.5540
   96MOL0     C12594   8.007   2.149   8.101 -0.5001  0.8191  0.5302
   96MOL0     C12595   7.953   2.153   7.965  0.4881  0.4209 -0.2254
   96MOL0     C12596   8.029   2.209   7.870 -0.2519 -0.4602 -0.1456
   96MOL0     C12597   8.163   2.246   7.882 -0.3871  0.3994 -0.3129
   96MOL0     O12598   8.245   2.313   7.788  0.6009 -0.1694  0.2517
   96MOL0     C12599   8.197   2.375   7.669  0.4406 -0.6879 -0.3535
   96MOL0     C12600   8.232   2.532   7.666  0.2033 -0.1681  0.0912
   96MOL0     C12601   8.168   2.618   7.550 -0.1932  0.9058 -0.5365
   96MOL0     C12602   8.187   2.768   7.556 -0.8012 -0.5353  0.1417
   96MOL0     C12603   8.322   2.811   7.590  0.0072 -0.1311  0.3219
   96MOL0     C12604   8.435   2.855   7.603 -0.6851 -0.1002  0.5927
   96MOL0     C12605   8.224   2.229   8.009 -0.7946  0.5673 -0.4649
   96MOL0     C12606   8.150   2.195   8.121  0.6130  0.1935  0.7528
   96MOL0     H12607   7.544   1.999   8.159 -2.1095  1.7828  0.8129
   96MOL0     H12608   7.384   1.949   8.344 -0.8496  1.2603  0.4022
   96MOL0     H12609   7.223   1.964   8.663 -0.3784  2.6765  0.1889
   96MOL0     H12610   7.276   1.895   8.510 -0.2979  2.1443 -3.0432
   96MOL0     H12611   7.080   2.044   8.464  0.0337 -0.7122 -0.8232
   96MOL0     H12612   7.226   2.122   8.400  0.8756  1.0753  1.5330
   96MOL0     H12613   7.101   2.293   8.499 -0.5838 -0.2259  0.0111
   96MOL0     H12614   7.240   2.273   8.595 -0.0962  1.1318  0.9943
   96MOL0     H12615   6.962   2.168   8.646 -1.2610  0.4083  0.0849
   96MOL0     H12616   7.091   2.117   8.751 -2.0784  0.1200  0.3663
   96MOL0     H12617   7.027   2.414   8.722 -2.8339 -0.2226  0.2136
   96MOL0     H12618   7.151   2.332   8.830 -0.1105 -5.0688  2.7913
   96MOL0     H12619   6.962   2.394   8.967  2.0598 -0.9003  0.6617
   96MOL0     H12620   6.985   2.228   8.957  3.2051  1.1350  0.0871
   96MOL0     H12621   6.783   2.400   8.794 -2.3139  0.7643  1.4678
   96MOL0     H12622   6.791   2.228   8.761 -0.2462  0.5605 -0.7950
   96MOL0     H12623   6.611   2.293   8.885  1.0698 -1.1495 -0.3526
   96MOL0     H12624   6.720   2.354   9.018  1.9043 -1.7901  0.4679
   96MOL0     H12625   6.622   2.003   8.852 -2.3873  0.9510  1.1112
   96MOL0     H12626   6.738   1.746   9.087 -1.1722 -0.9375  0.8553
   96MOL0     H12627   6.661   1.750   8.930  0.0506 -0.4962  0.1236
   96MOL0     H12628   6.524   1.778   9.203 -1.6123  0.3988  0.7730
   96MOL0     H12629   6.532   1.623   9.126 -0.9577  0.5212  1.0629
   96MOL0     H12630   6.315   1.701   9.089  0.3517 -1.0794 -0.0388
   96MOL0     H12631   6.371   1.862   9.036  0.5647  0.2856 -1.1919
   96MOL0     H12632   6.451   1.600   8.886 -0.1164 -0.4928 -0.9143
   96MOL0     H12633   6.465   1.765   8.825  0.6559 -1.7029 -1.9132
   96MOL0     H12634   6.295   1.478   8.986 -1.4638 -0.8770  2.7772
   96MOL0     H12635   6.104   1.312   9.037 -0.9536 -1.2858 -1.4736
   96MOL0     H12636   5.679   1.225   9.116 -0.4568 -0.3126  0.8967
   96MOL0     H12637   5.451   1.140   9.180 -1.0445 -1.0658 -0.9925
   96MOL0     H12638   5.246   1.120   9.210  1.0460 -0.9208  0.5420
   96MOL0     H12639   5.304   0.976   9.130 -0.1353 -0.5760  3.3598
   96MOL0     H12640   5.060   0.932   9.052 -0.6955 -0.3323  0.1354
   96MOL0     H12641   5.009   1.076   9.139 -0.4541  0.2002 -0.1932
   96MOL0     H12642   5.095   0.978   9.356 -0.4494  0.7057 -0.4421
   96MOL0     H12643   5.148   0.840   9.268 -0.6500 -0.5218  3.8462
   96MOL0     H12644   4.863   0.943   9.264  0.6230 -0.4307 -0.4613
   96MOL0     H12645   4.922   0.770   9.210  1.7263 -1.8154  1.8888
   96MOL0     H12646   4.976   0.846   9.489  2.5208 -2.2349 -0.9519
   96MOL0     H12647   4.955   0.688   9.417 -1.4832 -0.8334  2.7392
   96MOL0     H12648   4.722   0.707   9.396 -2.9365  0.8996  1.2424
   96MOL0     H12649   4.711   0.865   9.465 -0.6137  0.1592  2.0656
   96MOL0     H12650   4.815   0.603   9.582  1.6392 -0.1490 -0.4798
   96MOL0     H12651   4.860   0.760   9.667  0.1251  2.7052 -3.1073
   96MOL0     H12652   4.617   0.791   9.702 -0.7321  0.0961 -1.6110
   96MOL0     H12653   4.684   0.639   9.777 -0.5696 -2.3290 -1.5588
   96MOL0     H12654   5.325   1.213   8.778  0.0217 -0.5489  0.0254
   96MOL0     H12655   5.531   1.329   8.733 -3.7583  1.8453  1.2692
   96MOL0     H12656   5.876   1.500   8.737 -2.0030 -1.6770  2.7306
   96MOL0     H12657   6.067   1.664   8.681  0.0327  0.2654 -0.7146
   96MOL0     H12658   7.639   2.105   8.627 -2.2802 -2.8470  0.6271
   96MOL0     H12659   7.809   2.188   8.457  0.6229 -1.0885  2.1985
   96MOL0     H12660   7.852   2.119   7.946  0.5040 -0.7067  1.4751
   96MOL0     H12661   7.993   2.213   7.768  2.4688  1.2239 -1.1502
   96MOL0     H12662   8.089   2.364   7.659  0.3006  1.6238 -2.2591
   96MOL0     H12663   8.240   2.324   7.582 -0.7162 -0.1071 -1.2966
   96MOL0     H12664   8.206   2.556   7.769  1.1565 -2.2932  0.8876
   96MOL0     H12665   8.340   2.527   7.649 -0.0323 -2.0932 -1.0519
   96MOL0     H12666   8.060   2.601   7.552  0.0060 -0.5775  1.4225
   96MOL0     H12667   8.211   2.588   7.455 -0.8794 -1.9597 -0.0338
   96MOL0     H12668   8.142   2.814   7.468 -1.3431 -0.6154  0.3731
   96MOL0     H12669   8.123   2.805   7.637 -2.6092 -0.7991 -1.1006
   96MOL0     H12670   8.538   2.884   7.613 -0.9115  0.7134  0.6189
   96MOL0     H12671   8.327   2.262   8.018 -1.1926  1.5709  0.6241
   96MOL0     H12672   8.189   2.205   8.222  0.7929 -1.3937  0.8620
   97MOL0     O12673   3.266   7.011   6.060 -0.0130 -0.2370 -0.0964
   97MOL0     C12674   3.234   6.917   5.984 -0.8603 -0.2407  0.3606
   97MOL0     O12675   3.103   6.868   5.968  0.4562  0.1711  0.0255
   97MOL0     C12676   2.998   6.931   6.034 -0.1847  0.5107  0.0241
   97MOL0     C12677   2.980   7.069   6.022  0.5561  0.3965  0.0118
   97MOL0     C12678   2.874   7.127   6.079  0.1150  0.2009  1.0557
   97MOL0     C12679   2.787   7.062   6.163  0.1721  0.2636 -0.0398
   97MOL0     O12680   2.681   7.118   6.220  0.1481 -0.1175  0.4069
   97MOL0     C12681   2.638   7.250   6.184 -0.0637  0.9776  0.4992
   97MOL0     C12682   2.516   7.291   6.270 -0.7076  1.0206  0.3984
   97MOL0     C12683   2.445   7.414   6.204 -0.4440  0.2426  0.0910
   97MOL0     C12684   2.328   7.459   6.296 -0.0188  0.0712 -1.1629
   97MOL0     C12685   2.208   7.370   6.238 -0.8974  0.6715 -0.4925
   97MOL0     C12686   2.094   7.388   6.343 -0.8179 -0.5061 -0.4333
   97MOL0     C12687   2.032   7.536   6.324  0.1300  0.9862  0.6022
   97MOL0     C12688   1.916   7.566   6.416 -0.7429  0.5687  0.2669
   97MOL0     N12689   1.789   7.486   6.372 -0.8498  0.3038  0.4091
   97MOL0     C12690   1.725   7.482   6.248  0.6905 -0.8895 -0.1825
   97MOL0     C12691   1.621   7.402   6.276  0.3419 -0.3324  0.5324
   97MOL0     C12692   1.517   7.350   6.174 -0.2166 -0.2247 -0.1060
   97MOL0     C12693   1.380   7.416   6.210  1.0977  0.0671  0.0741
   97MOL0     C12694   1.382   7.561   6.161  0.8091  0.9296  0.1338
   97MOL0     C12695   1.254   7.638   6.183  0.1700 -0.3386  0.2816
   97MOL0     O12696   1.202   7.634   6.311 -0.4828  0.3312 -0.5759
   97MOL0     C12697   1.066   7.670   6.329 -0.7649  0.0639  0.1463
   97MOL0     C12698   1.003   7.664   6.459  0.5981  0.6744  0.0214
   97MOL0     C12699   0.871   7.688   6.473  0.6858  0.4054 -0.4307
   97MOL0     C12700   0.792   7.727   6.362 -0.3194  0.0173 -0.7843
   97MOL0     C12701   0.644   7.753   6.375  0.1882  0.6515 -0.0118
   97MOL0     O12702   0.571   7.813   6.282 -0.3891 -0.0998  0.1239
   97MOL0     C12703   0.432   7.823   6.296  0.5922 -0.2370 -1.3361
   97MOL0     C12704   0.359   7.839   6.417  0.0535  0.4131 -0.9277
   97MOL0     C12705   0.225   7.851   6.411  0.3990  0.7466 -0.3981
   97MOL0     C12706   0.152   7.832   6.289  0.3028  0.1663 -1.1277
   97MOL0     O12707   0.019   7.826   6.305  1.0895 -0.5863 -0.8102
   97MOL0     C12708  -0.068   7.871   6.195 -0.2055  0.0740  0.1594
   97MOL0     C12709  -0.165   7.760   6.147  1.0569  0.2987  0.2076
   97MOL0     C12710  -0.302   7.742   6.235 -1.9042  0.4739  0.2735
   97MOL0     C12711  -0.403   7.854   6.226  0.1714 -0.8514  0.1976
   97MOL0     C12712  -0.514   7.848   6.326  0.3995  0.2474 -0.0853
   97MOL0     C12713  -0.605   7.974   6.320 -0.3992 -0.4503 -0.0386
   97MOL0     C12714  -0.671   7.991   6.177  0.2265 -0.1064 -0.5282
   97MOL0     C12715  -0.775   8.104   6.183 -0.1538  1.1586  0.4818
   97MOL0    Cl12716  -0.699   8.262   6.194 -0.2018  0.3333  0.6218
   97MOL0     C12717   0.222   7.816   6.176 -0.0969 -0.4460 -0.3607
   97MOL0     C12718   0.361   7.820   6.174  0.7363  0.2977 -0.0596
   97MOL0     O12719   0.597   7.711   6.483 -0.1629 -0.1894  0.0945
   97MOL0     C12720   0.861   7.757   6.237  0.6017 -0.3703 -0.5115
   97MOL0     C12721   0.990   7.725   6.214  0.6685 -0.0458  0.2229
   97MOL0     N12722   1.617   7.373   6.407 -0.0138 -0.0699 -0.1025
   97MOL0     N12723   1.727   7.404   6.463 -0.2291 -1.0348  0.2215
   97MOL0     C12724   2.807   6.926   6.185  0.1763  0.2440 -0.0224
   97MOL0     C12725   2.909   6.859   6.117  0.7032  0.5846 -0.0946
   97MOL0     C12726   3.342   6.850   5.913 -0.3384  0.6889  0.3205
   97MOL0     C12727   3.474   6.875   5.938 -0.6341 -0.0811  0.0186
   97MOL0     C12728   3.574   6.812   5.873  0.5139  0.7914 -0.7904
   97MOL0     C12729   3.546   6.708   5.772 -0.8631  0.3869 -0.1640
   97MOL0     O12730   3.651   6.641   5.721 -0.1276  0.5981  0.1167
   97MOL0     C12731   3.626   6.520   5.641  0.6784 -0.7279 -0.3289
   97MOL0     C12732   3.752   6.434   5.649  0.4533  0.3091 -0.5904
   97MOL0     C12733   3.860   6.458   5.550  0.6897 -0.1247 -0.3096
   97MOL0     C12734   3.976   6.370   5.569 -0.8123  0.3594  0.8524
   97MOL0     C12735   4.082   6.417   5.470  0.1890 -0.6074 -0.6209
   97MOL0     C12736   4.172   6.449   5.396  0.4761  0.4732 -0.6388
   97MOL0     C12737   3.416   6.670   5.753  0.0761 -0.0796 -0.1741
   97MOL0     C12738   3.319   6.747   5.812  0.9177  0.2446 -0.3549
   97MOL0     H12739   3.056   7.118   5.962  1.1083  0.3395  0.6512
   97MOL0     H12740   2.846   7.232   6.073 -0.0089  0.4947  4.5919
   97MOL0     H12741   2.605   7.266   6.081  2.5212  0.0322 -0.5693
   97MOL0     H12742   2.723   7.317   6.201  0.1664  1.1186 -1.0615
   97MOL0     H12743   2.546   7.318   6.371 -2.2319  3.1671  0.3377
   97MOL0     H12744   2.447   7.206   6.263  1.0578 -0.4796  0.4802
   97MOL0     H12745   2.405   7.386   6.105 -1.4430 -0.8991  0.7874
   97MOL0     H12746   2.519   7.493   6.194 -1.7184  1.4608 -0.0406
   97MOL0     H12747   2.357   7.439   6.400  1.3958  0.4962 -1.4512
   97MOL0     H12748   2.310   7.567   6.294 -1.4756  0.0043  2.0108
   97MOL0     H12749   2.232   7.264   6.230 -0.1574  0.9568 -2.8419
   97MOL0     H12750   2.175   7.396   6.138 -0.2257 -1.1515 -1.2209
   97MOL0     H12751   2.128   7.372   6.446  0.5692  1.6833 -0.4793
   97MOL0     H12752   2.019   7.310   6.326 -1.4181 -0.7758  2.8461
   97MOL0     H12753   2.113   7.609   6.332 -1.4540  2.9957 -0.7633
   97MOL0     H12754   1.994   7.531   6.222  0.4925  0.4808  0.4863
   97MOL0     H12755   1.902   7.674   6.419  0.3588  0.7011  1.2448
   97MOL0     H12756   1.950   7.527   6.513 -0.3479 -0.7477 -0.3739
   97MOL0     H12757   1.756   7.513   6.149  0.2373 -1.5174 -0.5256
   97MOL0     H12758   1.505   7.242   6.185 -0.1524 -0.2009  0.2089
   97MOL0     H12759   1.558   7.370   6.075 -1.3162 -1.7204 -0.9030
   97MOL0     H12760   1.356   7.399   6.315 -1.9311  0.8101 -0.4003
   97MOL0     H12761   1.308   7.358   6.151 -0.5429  0.2832  1.7601
   97MOL0     H12762   1.466   7.615   6.206  1.6514 -0.0126 -0.2716
   97MOL0     H12763   1.407   7.561   6.054  0.0231 -1.4372 -0.1021
   97MOL0     H12764   1.181   7.591   6.116 -0.4859 -0.6981  1.2321
   97MOL0     H12765   1.280   7.740   6.152  2.1626 -0.0382  2.6218
   97MOL0     H12766   1.071   7.634   6.537  0.9238  2.7400  0.5905
   97MOL0     H12767   0.829   7.677   6.573  1.0100  1.3517 -0.1733
   97MOL0     H12768   0.410   7.860   6.511  2.3953  0.8726 -2.2292
   97MOL0     H12769   0.172   7.867   6.504  0.8700  2.4740 -0.3967
   97MOL0     H12770  -0.011   7.910   6.110  1.8750  1.0297  1.8746
   97MOL0     H12771  -0.118   7.957   6.240  1.5990  1.1754  0.1591
   97MOL0     H12772  -0.110   7.667   6.166  0.7264  0.2352  0.8819
   97MOL0     H12773  -0.191   7.762   6.041 -0.5558  1.2230  0.5864
   97MOL0     H12774  -0.278   7.716   6.339  0.1534  1.4208  0.1040
   97MOL0     H12775  -0.347   7.662   6.177 -1.4234  0.9883 -0.8344
   97MOL0     H12776  -0.352   7.951   6.232  1.3800 -1.4947  0.6504
   97MOL0     H12777  -0.439   7.847   6.123  2.2194 -1.9227 -0.4815
   97MOL0     H12778  -0.472   7.834   6.427 -1.4777 -1.8076  0.5033
   97MOL0     H12779  -0.573   7.760   6.299 -1.5815  1.3938  0.3587
   97MOL0     H12780  -0.548   8.066   6.331  1.8099 -1.5665 -1.4727
   97MOL0     H12781  -0.680   7.966   6.400 -0.4644 -2.3152 -0.2424
   97MOL0     H12782  -0.590   8.016   6.108  1.0664 -0.1589  0.4141
   97MOL0     H12783  -0.730   7.902   6.155 -1.3072  0.7386 -0.0574
   97MOL0     H12784  -0.841   8.076   6.265 -2.9400 -0.0621 -2.0060
   97MOL0     H12785  -0.829   8.098   6.088  3.6892  1.4051 -1.9532
   97MOL0     H12786   0.170   7.794   6.083 -0.7262 -1.4526  0.2037
   97MOL0     H12787   0.423   7.821   6.085 -0.9497  2.6269 -1.3183
   97MOL0     H12788   0.810   7.803   6.153 -0.2428 -2.3795 -1.1557
   97MOL0     H12789   1.036   7.733   6.116  0.1729 -0.7254 -0.0779
   97MOL0     H12790   2.748   6.868   6.255  1.6340 -0.3322  0.7759
   97MOL0     H12791   2.926   6.755   6.142 -2.7251 -0.4328 -1.3068
   97MOL0     H12792   3.503   6.944   6.017  0.6084 -1.7502  1.0801
   97MOL0     H12793   3.679   6.830   5.893  0.2819 -1.2602  3.7028
   97MOL0     H12794   3.593   6.550   5.541 -0.2619  2.1282  0.7290
   97MOL0     H12795   3.552   6.455   5.688  2.3923  0.1323  4.0569
   97MOL0     H12796   3.797   6.441   5.748  0.9129 -2.7561 -0.4713
   97MOL0     H12797   3.719   6.331   5.632 -0.3074  0.7323 -1.8799
   97MOL0     H12798   3.890   6.559   5.581 -2.4194  0.3105  1.7189
   97MOL0     H12799   3.832   6.441   5.446  2.3175 -2.5211 -0.4302
   97MOL0     H12800   4.027   6.369   5.667  1.4411  1.1310 -0.2382
   97MOL0     H12801   3.967   6.263   5.548 -0.3396  0.7260 -1.4220
   97MOL0     H12802   4.240   6.493   5.326 -1.2551  0.8837 -2.1545
   97MOL0     H12803   3.391   6.584   5.692 -1.2149  0.3860 -0.3329
   97MOL0     H12804   3.213   6.740   5.790  0.7839  0.6282  0.1331
   98MOL0     O12805   6.998  10.529   4.727  0.1540 -0.1866 -0.2044
   98MOL0     C12806   7.001  10.618   4.808 -0.1801  0.4595  0.3946
   98MOL0     O12807   6.924  10.729   4.810  0.0333 -0.3178 -0.4076
   98MOL0     C12808   6.806  10.738   4.727 -0.5964 -0.2645 -0.1581
   98MOL0     C12809   6.768  10.856   4.662  0.0865 -0.1247  0.2892
   98MOL0     C12810   6.648  10.858   4.583  0.5396  0.3531 -0.3106
   98MOL0     C12811   6.560  10.742   4.580  0.0433  1.0638  0.2764
   98MOL0     O12812   6.445  10.716   4.498  0.4616 -0.2338 -0.6745
   98MOL0     C12813   6.409  10.818   4.411 -0.0910 -0.4129  0.3316
   98MOL0     C12814   6.261  10.806   4.369  0.2357  0.3989 -0.1957
   98MOL0     C12815   6.167  10.807   4.488 -0.0372  1.0990  0.3387
   98MOL0     C12816   6.026  10.829   4.438  0.2610 -0.4802 -0.1489
   98MOL0     C12817   5.919  10.782   4.539 -0.4205 -0.6766  0.3345
   98MOL0     C12818   5.900  10.890   4.650 -0.0781 -0.0452 -0.0937
   98MOL0     C12819   5.770  10.869   4.718  0.5307  0.0129  0.2194
   98MOL0     C12820   5.746  10.996   4.800 -0.4191  0.1209  0.3940
   98MOL0     N12821   5.640  10.969   4.895 -0.2551 -0.9411 -0.2934
   98MOL0     C12822   5.505  10.961   4.882 -0.4264  0.7451  0.5000
   98MOL0     C12823   5.450  10.922   5.003  0.6907  0.9648  0.2327
   98MOL0     C12824   5.297  10.906   5.014 -0.9405  0.6107  0.3593
   98MOL0     C12825   5.260  10.775   5.089 -0.0803  0.5074 -0.1763
   98MOL0     C12826   5.121  10.750   5.144 -0.2357 -0.6432  0.2172
   98MOL0     C12827   5.009  10.792   5.054 -0.4678  0.2262 -1.2457
   98MOL0     O12828   4.891  10.766   5.122  0.3582  0.1605  0.1893
   98MOL0     C12829   4.769  10.795   5.067  0.4980  0.9280 -0.1777
   98MOL0     C12830   4.656  10.758   5.141 -0.4496 -0.6131 -1.0181
   98MOL0     C12831   4.531  10.806   5.098 -0.0909  0.2127 -0.3105
   98MOL0     C12832   4.513  10.890   4.981 -0.5459  0.7364  0.4061
   98MOL0     C12833   4.388  10.945   4.934 -0.4689 -0.6738  1.0129
   98MOL0     O12834   4.373  10.985   4.798  0.3730 -0.0519 -0.2469
   98MOL0     C12835   4.254  10.987   4.728  0.1762 -0.1790  0.3190
   98MOL0     C12836   4.139  10.909   4.765 -0.1895  0.5722 -0.0720
   98MOL0     C12837   4.021  10.920   4.698 -0.3914 -0.5705 -0.0959
   98MOL0     C12838   4.005  11.010   4.596 -0.4513  0.7165  0.6925
   98MOL0     O12839   3.888  11.049   4.541 -0.0346 -0.9930  0.4403
   98MOL0     C12840   3.768  10.972   4.545 -0.7686  0.4988 -0.1838
   98MOL0     C12841   3.665  11.048   4.465  0.1085  0.1430 -0.1884
   98MOL0     C12842   3.630  11.180   4.531 -0.4552 -0.8560 -0.4669
   98MOL0     C12843   3.564  11.165   4.668  0.7612  0.2587 -0.6229
   98MOL0     C12844   3.504  11.290   4.721  0.5150 -0.3067  0.2073
   98MOL0     C12845   3.601  11.399   4.741 -0.2189  0.3564  0.2222
   98MOL0     C12846   3.541  11.519   4.800  0.8185  0.1186  0.3725
   98MOL0     C12847   3.635  11.630   4.850  0.1443  0.2453 -0.4095
   98MOL0    Cl12848   3.555  11.773   4.926  0.0593 -0.1014 -0.2305
   98MOL0     C12849   4.118  11.082   4.555  0.2862  0.1150 -0.8977
   98MOL0     C12850   4.244  11.069   4.615  0.3746 -0.1007  0.0975
   98MOL0     O12851   4.300  10.955   5.021 -0.0787 -0.0079 -0.1712
   98MOL0     C12852   4.631  10.915   4.904 -0.0335  0.2358 -0.2092
   98MOL0     C12853   4.755  10.872   4.948 -0.4502 -0.3217  0.6829
   98MOL0     N12854   5.551  10.910   5.093  0.5871 -0.4096  0.9076
   98MOL0     N12855   5.665  10.926   5.027 -0.5719 -0.2317  0.0052
   98MOL0     C12856   6.598  10.627   4.656 -0.3660  0.5546  0.1877
   98MOL0     C12857   6.720  10.629   4.732 -0.2616  0.5176 -0.0677
   98MOL0     C12858   7.113  10.620   4.904  0.1041  0.5314  0.1695
   98MOL0     C12859   7.110  10.714   5.014  0.3241  0.2535  0.3189
   98MOL0     C12860   7.224  10.718   5.094  0.0480 -0.3780 -0.9418
   98MOL0     C12861   7.327  10.631   5.081 -0.3065 -0.0577  0.5600
   98MOL0     O12862   7.423  10.639   5.178 -0.3457 -0.3067  0.1692
   98MOL0     C12863   7.466  10.506   5.211 -0.8635  0.4939 -0.1952
   98MOL0     C12864   7.528  10.516   5.359  0.2985  0.3705 -0.3565
   98MOL0     C12865   7.669  10.583   5.374  0.5825  0.8300 -0.6474
   98MOL0     C12866   7.719  10.564   5.518  0.3899 -0.6489 -0.2242
   98MOL0     C12867   7.643  10.654   5.603  0.2007  0.6056 -0.2585
   98MOL0     C12868   7.582  10.727   5.676 -0.1306  0.3916 -0.3480
   98MOL0     C12869   7.336  10.553   4.967  0.2638  0.8937  0.4713
   98MOL0     C12870   7.230  10.543   4.878 -0.0117  0.4534 -0.0110
   98MOL0     H12871   6.838  10.938   4.672  0.8179 -0.8335  1.0680
   98MOL0     H12872   6.631  10.937   4.510 -0.1832  0.8157  0.3435
   98MOL0     H12873   6.480  10.826   4.328  2.1250 -1.1719  2.0516
   98MOL0     H12874   6.415  10.911   4.468  0.4049 -2.2879  3.6544
   98MOL0     H12875   6.237  10.718   4.307 -0.3549  0.7026 -0.4056
   98MOL0     H12876   6.245  10.895   4.307 -2.4161  0.4041  0.4142
   98MOL0     H12877   6.216  10.871   4.562  3.7238 -2.2329  1.0978
   98MOL0     H12878   6.169  10.708   4.534  2.0615  0.5211 -0.8525
   98MOL0     H12879   6.005  10.935   4.418 -1.5869 -0.5378  1.2635
   98MOL0     H12880   6.018  10.773   4.344  2.8462 -1.2151 -0.0242
   98MOL0     H12881   5.949  10.686   4.582  0.4985 -0.1776  0.8358
   98MOL0     H12882   5.822  10.775   4.488 -0.1351  3.4516 -1.1575
   98MOL0     H12883   5.896  10.992   4.610 -1.6464 -0.4730 -1.1539
   98MOL0     H12884   5.983  10.893   4.720 -0.6414  2.7577  0.6037
   98MOL0     H12885   5.686  10.852   4.650 -0.0563 -1.4464  1.2438
   98MOL0     H12886   5.774  10.779   4.781  0.7089  0.0973  0.3283
   98MOL0     H12887   5.716  11.074   4.729  1.4220 -1.2468 -2.0702
   98MOL0     H12888   5.832  11.025   4.860  0.0348  1.8373 -0.9965
   98MOL0     H12889   5.450  10.989   4.793  1.2072 -0.3773 -0.9229
   98MOL0     H12890   5.264  10.894   4.910  1.7032 -0.6773 -0.3999
   98MOL0     H12891   5.248  10.996   5.053  0.1762  1.0325  0.8359
   98MOL0     H12892   5.337  10.772   5.167  2.4209 -0.5030 -2.5004
   98MOL0     H12893   5.285  10.687   5.028 -1.8341  0.1041 -0.3566
   98MOL0     H12894   5.106  10.649   5.183 -2.0051 -0.3471  0.3843
   98MOL0     H12895   5.112  10.820   5.227 -1.6656 -1.4986  0.8336
   98MOL0     H12896   5.014  10.734   4.962  2.5216 -1.0738 -0.4057
   98MOL0     H12897   5.016  10.898   5.028  0.5757  0.4627 -0.1388
   98MOL0     H12898   4.662  10.712   5.239  1.4458 -0.5777 -1.0914
   98MOL0     H12899   4.445  10.767   5.150 -2.2273  1.2604 -2.8321
   98MOL0     H12900   4.150  10.843   4.851  1.1586  0.0994 -0.5803
   98MOL0     H12901   3.931  10.870   4.732 -1.2665  1.6562  1.0631
   98MOL0     H12902   3.732  10.942   4.644  0.0931  0.1742  0.0422
   98MOL0     H12903   3.783  10.880   4.488 -0.1837 -0.0222  0.7857
   98MOL0     H12904   3.573  10.988   4.463 -0.1935  0.5437  0.9414
   98MOL0     H12905   3.710  11.073   4.369 -1.4449  0.7308 -0.7991
   98MOL0     H12906   3.563  11.234   4.464 -1.6564 -1.1451  0.4648
   98MOL0     H12907   3.722  11.238   4.544  0.2612 -1.9874 -0.2866
   98MOL0     H12908   3.489  11.088   4.653 -1.5473  2.1172  0.7119
   98MOL0     H12909   3.616  11.129   4.757 -1.3918  2.7753  1.8238
   98MOL0     H12910   3.459  11.269   4.819 -0.4371 -2.9749 -0.7143
   98MOL0     H12911   3.434  11.323   4.644  1.2831  0.4800 -0.1719
   98MOL0     H12912   3.639  11.416   4.640  0.2067 -2.2724 -0.1402
   98MOL0     H12913   3.689  11.372   4.801  0.2930 -0.1988 -0.7656
   98MOL0     H12914   3.468  11.561   4.729 -0.5235 -0.5442  1.3378
   98MOL0     H12915   3.480  11.492   4.886  0.5301 -0.3678  0.0200
   98MOL0     H12916   3.697  11.680   4.775 -1.1534  2.8881  0.1828
   98MOL0     H12917   3.706  11.584   4.919  1.0584  1.4931 -0.4776
   98MOL0     H12918   4.104  11.145   4.468 -0.5972  0.7624 -0.2948
   98MOL0     H12919   4.332  11.120   4.576  1.9505 -0.7770  2.5355
   98MOL0     H12920   4.631  10.964   4.807 -0.7068 -1.0942 -0.9254
   98MOL0     H12921   4.833  10.914   4.885 -1.6206 -2.2583 -2.2511
   98MOL0     H12922   6.559  10.526   4.665  1.0518  0.0957  1.5801
   98MOL0     H12923   6.751  10.543   4.790 -1.0014 -0.1356 -0.6158
   98MOL0     H12924   7.023  10.777   5.031 -1.2480 -0.8936 -2.7861
   98MOL0     H12925   7.233  10.778   5.185  2.1130 -2.0579  0.0567
   98MOL0     H12926   7.544  10.470   5.144 -0.2271 -1.3613  1.4439
   98MOL0     H12927   7.384  10.434   5.209 -0.4098 -0.0069 -1.1958
   98MOL0     H12928   7.455  10.574   5.417  1.9604  1.4621  0.7196
   98MOL0     H12929   7.529  10.409   5.385  0.8024  0.1904 -1.0988
   98MOL0     H12930   7.658  10.686   5.339 -0.8528 -0.1920 -3.4736
   98MOL0     H12931   7.754  10.536   5.323  0.6461 -0.4516  0.5641
   98MOL0     H12932   7.714  10.461   5.553 -0.5432 -1.8125 -3.5039
   98MOL0     H12933   7.826  10.582   5.531 -0.0404  0.1816  3.7678
   98MOL0     H12934   7.537  10.798   5.743  0.8628  0.1355  0.6150
   98MOL0     H12935   7.424  10.494   4.944  0.9755  2.3764 -0.7138
   98MOL0     H12936   7.245  10.499   4.780  2.6119  1.9999 -0.4023
   99MOL0     O12937   8.350   6.199   1.010  0.3884 -0.1820 -0.0449
   99MOL0     C12938   8.410   6.293   1.061 -0.7084 -0.0556  0.1469
   99MOL0     O12939   8.364   6.417   1.109 -0.9744 -0.1544  0.0002
   99MOL0     C12940   8.229   6.446   1.101 -0.4581 -0.6153 -0.6121
   99MOL0     C12941   8.178   6.527   1.004  0.8904  0.0097 -0.0709
   99MOL0     C12942   8.035   6.540   0.999 -0.1911  0.7045 -0.3133
   99MOL0     C12943   7.953   6.472   1.095  0.8322  0.3850  0.1823
   99MOL0     O12944   7.822   6.503   1.086  0.1422  0.1775 -0.2132
   99MOL0     C12945   7.724   6.430   1.157  0.2758 -0.1274 -0.3136
   99MOL0     C12946   7.580   6.461   1.116  0.0403 -1.0137  0.2385
   99MOL0     C12947   7.468   6.376   1.175  0.2641 -0.0152 -0.4493
   99MOL0     C12948   7.336   6.364   1.094 -0.6125 -0.4665 -0.5113
   99MOL0     C12949   7.280   6.493   1.042 -0.9898 -0.2134  0.5117
   99MOL0     C12950   7.145   6.471   0.998  1.1599  0.5185  0.4119
   99MOL0     C12951   7.090   6.592   0.915 -0.6391 -0.2816 -0.0256
   99MOL0     C12952   7.043   6.703   1.005  0.6559  0.5496 -0.0033
   99MOL0     N12953   6.894   6.686   1.036 -0.5471 -0.3204 -0.0136
   99MOL0     C12954   6.801   6.691   0.945  0.3073  0.1213  0.4548
   99MOL0     C12955   6.685   6.696   1.009 -0.2140 -1.1325  0.1748
   99MOL0     C12956   6.544   6.705   0.952  0.4240 -0.2751  0.1297
   99MOL0     C12957   6.451   6.594   1.001 -0.1422  0.1151 -0.4228
   99MOL0     C12958   6.348   6.564   0.894  0.5895  0.1401  0.6979
   99MOL0     C12959   6.239   6.463   0.942  0.5320 -0.6382  0.4945
   99MOL0     O12960   6.295   6.335   0.988  0.5309 -0.0786  0.8701
   99MOL0     C12961   6.217   6.252   1.063  0.0643 -0.5551 -0.7856
   99MOL0     C12962   6.279   6.162   1.143 -0.0508 -0.3616  0.7580
   99MOL0     C12963   6.205   6.073   1.227 -0.1776 -0.3267 -0.5327
   99MOL0     C12964   6.063   6.079   1.232  0.3397 -1.1506 -1.0558
   99MOL0     C12965   5.985   5.984   1.314  0.2883  0.6488 -0.0741
   99MOL0     O12966   5.846   5.980   1.319 -0.8107  0.5582  0.2131
   99MOL0     C12967   5.782   5.922   1.424 -0.0617 -0.8033  0.6265
   99MOL0     C12968   5.752   6.010   1.526 -0.3100 -0.1590  0.4589
   99MOL0     C12969   5.696   5.965   1.645  0.6149 -0.3620 -0.4312
   99MOL0     C12970   5.663   5.824   1.659  0.7875 -0.3054  0.3798
   99MOL0     O12971   5.602   5.787   1.785 -0.4690 -0.1870  0.3244
   99MOL0     C12972   5.518   5.674   1.772 -0.8114 -0.1784 -0.7814
   99MOL0     C12973   5.450   5.655   1.912 -0.0486 -0.2911 -0.1205
   99MOL0     C12974   5.381   5.528   1.916 -0.3446  0.5693 -1.0740
   99MOL0     C12975   5.305   5.502   2.048 -0.5568 -0.3921  0.1434
   99MOL0     C12976   5.227   5.621   2.103  0.0846 -0.0329 -0.1561
   99MOL0     C12977   5.138   5.597   2.230 -0.0887  0.2461  0.1970
   99MOL0     C12978   5.022   5.498   2.204  0.0820 -0.6072  0.5066
   99MOL0     C12979   4.946   5.455   2.324  0.7079  0.2593 -0.6232
   99MOL0    Cl12980   4.854   5.589   2.398 -0.0423  0.2527 -0.2232
   99MOL0     C12981   5.702   5.738   1.556  0.1659 -1.7491 -0.5520
   99MOL0     C12982   5.753   5.790   1.437  0.0115  0.6605  1.1824
   99MOL0     O12983   6.055   5.912   1.390  0.4017 -0.7631  0.1975
   99MOL0     C12984   5.999   6.167   1.147  0.2732 -0.0370  0.4820
   99MOL0     C12985   6.073   6.246   1.058  0.1063 -0.2776  0.0231
   99MOL0     N12986   6.715   6.673   1.140  0.2482 -0.0624 -0.8178
   99MOL0     N12987   6.838   6.671   1.161 -0.4719  0.1463  0.3688
   99MOL0     C12988   8.009   6.387   1.184 -0.4930  0.0811  0.1369
   99MOL0     C12989   8.147   6.364   1.180 -0.1419  0.4425 -0.9699
   99MOL0     C12990   8.561   6.282   1.075 -0.6545 -0.2127 -0.3154
   99MOL0     C12991   8.624   6.364   1.168 -0.4063 -0.4659 -0.1970
   99MOL0     C12992   8.768   6.375   1.160  0.5732 -0.6542  0.4887
   99MOL0     C12993   8.844   6.297   1.075  0.2529  0.9729  0.6251
   99MOL0     O12994   8.979   6.301   1.078 -0.4051 -0.6247 -0.1381
   99MOL0     C12995   9.040   6.410   1.005  0.4930  0.0225  0.3092
   99MOL0     C12996   9.076   6.359   0.865 -0.1283  0.5602  0.1197
   99MOL0     C12997   9.150   6.230   0.850  0.2401 -0.1806  1.1047
   99MOL0     C12998   9.283   6.210   0.921  0.2198  0.2196  0.5807
   99MOL0     C12999   9.381   6.290   0.852  0.3104  0.0882  0.2536
   99MOL0     C13000   9.469   6.368   0.817 -0.9632 -0.1923  0.3848
   99MOL0     C13001   8.777   6.205   0.989 -0.2374  0.5707 -0.5389
   99MOL0     C13002   8.639   6.200   0.988 -0.5807 -0.4910 -0.0684
   99MOL0     H13003   8.233   6.597   0.942  0.8559 -1.6566 -2.1025
   99MOL0     H13004   7.996   6.623   0.941 -1.8781  0.9377  1.0542
   99MOL0     H13005   7.730   6.449   1.265 -1.0800  2.1024 -0.5617
   99MOL0     H13006   7.742   6.324   1.139  0.5535 -0.0503 -0.4970
   99MOL0     H13007   7.576   6.455   1.007  1.2818 -0.2274  0.1198
   99MOL0     H13008   7.552   6.566   1.130 -2.0135 -1.1770 -2.0718
   99MOL0     H13009   7.436   6.428   1.266  1.4213 -0.3340  0.1522
   99MOL0     H13010   7.505   6.275   1.195 -0.6898 -1.1122 -3.6162
   99MOL0     H13011   7.352   6.291   1.014 -0.7670 -2.2609  1.0150
   99MOL0     H13012   7.258   6.316   1.155 -0.7815  0.6405  0.1682
   99MOL0     H13013   7.341   6.518   0.954 -2.5893 -1.2919 -0.9723
   99MOL0     H13014   7.293   6.573   1.115  0.6598 -1.2329  1.4037
   99MOL0     H13015   7.078   6.448   1.081  0.1552  1.2444 -0.1767
   99MOL0     H13016   7.143   6.380   0.937  1.1876  1.7348 -1.4781
   99MOL0     H13017   7.170   6.620   0.845 -0.3786  0.4523  0.5407
   99MOL0     H13018   7.012   6.553   0.849 -1.8529  0.3525  0.9913
   99MOL0     H13019   7.067   6.799   0.959 -0.7735  1.8366  1.7893
   99MOL0     H13020   7.092   6.700   1.103  2.0068  2.3139 -0.5771
   99MOL0     H13021   6.824   6.715   0.841  4.0912 -0.4176  1.0500
   99MOL0     H13022   6.555   6.702   0.844 -2.3783 -2.2114 -0.1864
   99MOL0     H13023   6.490   6.798   0.976  4.2310  1.6343  2.4763
   99MOL0     H13024   6.398   6.614   1.095 -0.6973 -1.9241 -0.2591
   99MOL0     H13025   6.510   6.504   1.020 -1.2062 -0.6301 -0.5872
   99MOL0     H13026   6.300   6.653   0.853 -0.5841 -0.1031  1.5084
   99MOL0     H13027   6.406   6.516   0.814  1.6720 -1.7741  2.5362
   99MOL0     H13028   6.160   6.457   0.867 -1.2149 -0.6959  2.2433
   99MOL0     H13029   6.186   6.506   1.027 -1.6362 -1.8794 -0.1519
   99MOL0     H13030   6.387   6.167   1.142  0.0099  0.5318 -2.6818
   99MOL0     H13031   6.267   6.012   1.291 -0.6990 -0.4166 -0.1083
   99MOL0     H13032   5.789   6.107   1.494  2.9984 -2.4680 -3.6745
   99MOL0     H13033   5.682   6.030   1.731  1.3418  0.1425 -0.6911
   99MOL0     H13034   5.572   5.582   1.746 -0.1379  0.6327 -2.3554
   99MOL0     H13035   5.447   5.689   1.690  0.9901  3.6200 -1.8780
   99MOL0     H13036   5.385   5.737   1.943  2.9196  1.0041  3.5648
   99MOL0     H13037   5.534   5.642   1.982 -0.5131 -1.4819  0.2387
   99MOL0     H13038   5.450   5.444   1.909 -1.5239 -0.6722  0.9670
   99MOL0     H13039   5.315   5.513   1.830 -1.6321  1.5728 -0.3152
   99MOL0     H13040   5.231   5.427   2.020 -0.2671 -0.1764 -1.2640
   99MOL0     H13041   5.357   5.462   2.136  0.4241  1.8748  0.6723
   99MOL0     H13042   5.161   5.645   2.018 -1.5971 -1.8692  0.5474
   99MOL0     H13043   5.298   5.698   2.134  0.9909  0.5609 -3.3643
   99MOL0     H13044   5.110   5.698   2.263 -0.2262  1.0668 -2.2122
   99MOL0     H13045   5.204   5.560   2.309 -0.2438  0.0339  0.2254
   99MOL0     H13046   4.955   5.538   2.127  0.8933  0.7332  0.4577
   99MOL0     H13047   5.066   5.407   2.161 -0.3899 -0.2553 -0.7665
   99MOL0     H13048   5.015   5.422   2.403  0.6125  1.5755  0.0253
   99MOL0     H13049   4.880   5.371   2.298  1.5197 -0.6315  0.1091
   99MOL0     H13050   5.691   5.630   1.556 -1.5849 -1.7776  3.5746
   99MOL0     H13051   5.779   5.719   1.360 -2.0511  2.4955 -1.3848
   99MOL0     H13052   5.891   6.168   1.140  0.1860  0.2053  1.6116
   99MOL0     H13053   6.006   6.301   0.992  3.2207 -1.0750 -4.1914
   99MOL0     H13054   7.955   6.325   1.255  0.9238 -3.5323 -1.6687
   99MOL0     H13055   8.190   6.296   1.253 -1.4590 -1.3398 -1.7973
   99MOL0     H13056   8.564   6.424   1.235 -0.9150  1.4271 -2.2415
   99MOL0     H13057   8.817   6.436   1.236  0.9836  0.0314 -0.3050
   99MOL0     H13058   9.130   6.442   1.058  1.4456 -1.2360 -0.4877
   99MOL0     H13059   8.975   6.498   1.005  0.0232 -0.2885  1.9178
   99MOL0     H13060   8.981   6.351   0.811 -0.0791 -0.8371  0.2217
   99MOL0     H13061   9.133   6.436   0.811 -0.2894  1.6649  1.4553
   99MOL0     H13062   9.150   6.216   0.742 -3.5801 -1.3908  1.1154
   99MOL0     H13063   9.081   6.151   0.880  0.1658 -0.4380  0.2763
   99MOL0     H13064   9.265   6.251   1.021  1.6085 -1.7949  1.7138
   99MOL0     H13065   9.308   6.105   0.939 -1.4368 -0.1932  0.6815
   99MOL0     H13066   9.546   6.439   0.794  0.8677 -2.1873 -0.0200
   99MOL0     H13067   8.848   6.140   0.938  0.5495 -0.6279  1.9241
   99MOL0     H13068   8.575   6.131   0.934 -1.5907 -1.2607  2.0222
  100MOL0     O13069   6.574  10.003   3.472  0.1035 -0.0241  0.1332
  100MOL0     C13070   6.600   9.899   3.417  0.3940 -0.4417  0.2303
  100MOL0     O13071   6.712   9.822   3.445  0.7191 -0.0060 -0.2840
  100MOL0     C13072   6.786   9.860   3.557  0.4045 -0.8149  0.4766
  100MOL0     C13073   6.911   9.919   3.537  0.2902  0.0943  0.1353
  100MOL0     C13074   6.971   9.973   3.656 -1.1751 -0.3936 -0.0243
  100MOL0     C13075   6.920   9.953   3.788  1.0648  0.1309 -0.6224
  100MOL0     O13076   6.983  10.015   3.892  0.6873  0.9786 -0.7095
  100MOL0     C13077   6.912  10.078   4.001  0.3993  0.2935 -0.7054
  100MOL0     C13078   6.969  10.209   4.029 -0.5040 -0.1667  0.7110
  100MOL0     C13079   6.960  10.315   3.916  0.2725  0.2378  0.7238
  100MOL0     C13080   7.010  10.450   3.967  0.6141 -0.1431 -0.0496
  100MOL0     C13081   7.066  10.509   3.833  0.6661  0.5989 -1.0259
  100MOL0     C13082   6.983  10.529   3.707 -0.1925 -0.4029  0.1872
  100MOL0     C13083   6.861  10.612   3.726 -0.4984  0.2525  0.3455
  100MOL0     C13084   6.879  10.761   3.743  0.7225 -0.1356  0.1468
  100MOL0     N13085   6.744  10.815   3.739 -0.8187  0.1450  0.5889
  100MOL0     C13086   6.672  10.820   3.621  0.2725 -0.4888  0.2885
  100MOL0     C13087   6.556  10.890   3.663  0.1788 -0.0819  0.2738
  100MOL0     C13088   6.428  10.930   3.587  0.2214 -0.2163  0.6035
  100MOL0     C13089   6.300  10.873   3.644  0.2212 -0.0543  0.1097
  100MOL0     C13090   6.266  10.918   3.783  0.4597 -0.0949  0.2006
  100MOL0     C13091   6.130  10.868   3.833 -0.2272  0.1689  0.5096
  100MOL0     O13092   6.022  10.913   3.756 -0.4310 -0.5381  0.2506
  100MOL0     C13093   5.898  10.886   3.803  0.4431 -0.0723 -0.5142
  100MOL0     C13094   5.875  10.793   3.916 -0.3811 -0.0556 -0.6380
  100MOL0     C13095   5.738  10.771   3.961 -0.2689 -0.7459 -0.4389
  100MOL0     C13096   5.635  10.842   3.891  0.1346 -0.2098 -0.8959
  100MOL0     C13097   5.497  10.830   3.936  0.8114  0.5964  0.8040
  100MOL0     O13098   5.403  10.906   3.874  0.1027 -0.1343  0.0070
  100MOL0     C13099   5.275  10.913   3.911  0.5085 -0.5117 -0.8031
  100MOL0     C13100   5.229  10.904   4.051 -0.2390 -0.0036  0.7043
  100MOL0     C13101   5.095  10.929   4.077 -0.2929  0.4726 -0.5575
  100MOL0     C13102   5.006  10.977   3.983  0.3116  0.2592 -0.0743
  100MOL0     O13103   4.882  11.009   4.030 -0.1058 -0.5673 -0.1073
  100MOL0     C13104   4.804  11.112   3.970  0.1643 -0.0561 -0.0327
  100MOL0     C13105   4.666  11.106   4.030  0.5096 -0.2161 -0.6683
  100MOL0     C13106   4.591  10.980   3.996  1.0730  1.1500  0.1189
  100MOL0     C13107   4.444  10.976   4.030  1.0282 -0.2616 -0.4939
  100MOL0     C13108   4.407  11.007   4.175 -0.2105  0.3840 -0.3737
  100MOL0     C13109   4.260  10.984   4.213  1.4531  0.3068  0.6098
  100MOL0     C13110   4.172  11.084   4.134  0.4699  0.7646  0.1325
  100MOL0     C13111   4.051  11.019   4.075  0.4601  0.6671 -0.0449
  100MOL0    Cl13112   3.960  10.941   4.205  0.1374 -0.2090 -0.1675
  100MOL0     C13113   5.050  10.975   3.847  1.4415  0.0914  0.3509
  100MOL0     C13114   5.180  10.949   3.812  0.1218  0.3438 -0.6937
  100MOL0     O13115   5.477  10.760   4.038  0.7653  0.3829 -0.1371
  100MOL0     C13116   5.664  10.925   3.782  0.7524  0.7413 -0.0281
  100MOL0     C13117   5.792  10.951   3.740 -0.1227  0.6711  0.1331
  100MOL0     N13118   6.574  10.931   3.793 -0.0163  0.1731  0.2890
  100MOL0     N13119   6.684  10.881   3.839 -0.6853 -0.8092  0.2838
  100MOL0     C13120   6.799   9.884   3.804  0.0411 -0.8569 -0.2179
  100MOL0     C13121   6.729   9.840   3.688 -0.5112  0.7371 -0.2309
  100MOL0     C13122   6.497   9.858   3.320 -0.3561 -0.4599  0.3377
  100MOL0     C13123   6.364   9.912   3.322  0.5360  0.4310 -0.6640
  100MOL0     C13124   6.272   9.871   3.224  0.7400 -0.2281 -0.2945
  100MOL0     C13125   6.307   9.782   3.121  0.3599  0.0343  0.0981
  100MOL0     O13126   6.199   9.751   3.038  0.3236 -0.4279  0.0547
  100MOL0     C13127   6.233   9.669   2.931  0.5341 -0.2764 -0.3065
  100MOL0     C13128   6.126   9.661   2.820  0.1073 -0.2157 -0.4029
  100MOL0     C13129   6.006   9.580   2.875 -0.7697 -0.2167  0.9748
  100MOL0     C13130   5.882   9.567   2.785 -0.0236 -0.1508  0.1957
  100MOL0     C13131   5.846   9.701   2.751  1.1072 -0.8167 -0.8034
  100MOL0     C13132   5.821   9.818   2.714  0.2340 -0.0792 -0.7111
  100MOL0     C13133   6.435   9.728   3.122 -0.4321 -0.0699  0.8444
  100MOL0     C13134   6.527   9.770   3.217 -0.4720  1.1090  0.7227
  100MOL0     H13135   6.960   9.929   3.441  1.6840 -0.8725  0.7236
  100MOL0     H13136   7.059  10.035   3.644 -1.5281  0.0708 -0.2795
  100MOL0     H13137   6.926  10.014   4.089  0.6580  1.1712 -0.0946
  100MOL0     H13138   6.804  10.090   3.988  0.3322  0.1145 -0.3197
  100MOL0     H13139   7.077  10.202   4.044 -0.2970 -1.6571 -1.0361
  100MOL0     H13140   6.930  10.269   4.111 -2.8945 -0.1142 -0.3812
  100MOL0     H13141   6.858  10.321   3.878  0.7881  0.4882 -0.7241
  100MOL0     H13142   7.009  10.274   3.827 -1.0394 -0.9021  0.4990
  100MOL0     H13143   6.927  10.507   4.010 -1.1996 -0.5678 -2.7018
  100MOL0     H13144   7.094  10.440   4.037 -0.0067 -1.0634  0.5836
  100MOL0     H13145   7.155  10.454   3.800  1.1132  1.0060 -0.5233
  100MOL0     H13146   7.094  10.613   3.851 -0.5146  0.8380 -0.4564
  100MOL0     H13147   6.956  10.432   3.665  3.6401 -1.6658  0.1970
  100MOL0     H13148   7.046  10.573   3.628  0.0742 -2.7893 -1.0386
  100MOL0     H13149   6.821  10.596   3.625 -0.9016 -2.4201  0.8528
  100MOL0     H13150   6.795  10.578   3.806 -0.8105  1.1092  0.4591
  100MOL0     H13151   6.934  10.812   3.663 -1.0823  1.8886  0.0902
  100MOL0     H13152   6.933  10.771   3.838 -1.1055  0.3920  1.1778
  100MOL0     H13153   6.682  10.773   3.524 -3.9317  0.6910 -0.9209
  100MOL0     H13154   6.442  10.905   3.481 -0.3660  0.8135  0.2736
  100MOL0     H13155   6.425  11.038   3.602 -2.4276 -0.2321  0.5749
  100MOL0     H13156   6.286  10.766   3.631 -1.7074 -0.0147  1.4964
  100MOL0     H13157   6.230  10.928   3.580 -0.8704 -3.1744 -1.5612
  100MOL0     H13158   6.342  10.890   3.856  1.2932  1.8890  0.1767
  100MOL0     H13159   6.265  11.028   3.791  1.7112  0.0139 -0.9105
  100MOL0     H13160   6.108  10.900   3.935  1.2316 -1.4263  1.3674
  100MOL0     H13161   6.144  10.759   3.835 -0.2664  0.1711  1.2130
  100MOL0     H13162   5.947  10.728   3.965 -0.8097 -0.9935 -1.2098
  100MOL0     H13163   5.720  10.695   4.037 -1.4233  0.2835  0.3586
  100MOL0     H13164   5.296  10.878   4.132 -1.9037 -0.1073  2.0875
  100MOL0     H13165   5.075  10.932   4.184 -3.0920  2.5411 -1.0388
  100MOL0     H13166   4.802  11.100   3.862  2.6667 -0.4159 -0.0950
  100MOL0     H13167   4.846  11.211   3.988  1.1959  0.0198 -2.4926
  100MOL0     H13168   4.602  11.190   4.000 -0.0125  0.3405  1.7733
  100MOL0     H13169   4.678  11.128   4.136  1.1743  2.5314 -1.2246
  100MOL0     H13170   4.646  10.893   4.032  0.9982  1.4162  0.9000
  100MOL0     H13171   4.606  10.969   3.888  4.9540 -1.8172  0.7256
  100MOL0     H13172   4.393  11.036   3.954  1.9495 -0.1718 -1.0534
  100MOL0     H13173   4.413  10.874   4.007  2.4946 -0.4298 -1.9076
  100MOL0     H13174   4.445  11.105   4.206  0.5045 -0.1937  0.6491
  100MOL0     H13175   4.460  10.936   4.238 -0.9663 -1.1711 -1.4295
  100MOL0     H13176   4.251  10.999   4.322 -1.8459  2.2496  0.2062
  100MOL0     H13177   4.226  10.883   4.192 -0.2222  1.1792 -1.2189
  100MOL0     H13178   4.152  11.176   4.191 -0.4880  0.5154  0.2154
  100MOL0     H13179   4.230  11.118   4.048  0.5174  1.1353  0.3072
  100MOL0     H13180   4.073  10.944   3.999 -1.6021  1.3959 -1.4163
  100MOL0     H13181   3.986  11.090   4.024  2.1501  1.1532 -1.6267
  100MOL0     H13182   4.982  11.011   3.770  0.2317 -1.2897  0.7235
  100MOL0     H13183   5.207  10.944   3.707 -2.4530 -4.4246 -1.3867
  100MOL0     H13184   5.580  10.977   3.738 -0.8191 -0.6964  1.1142
  100MOL0     H13185   5.812  11.025   3.663 -3.1621  1.0921 -0.3628
  100MOL0     H13186   6.754   9.877   3.902  0.5203 -0.8662  0.0044
  100MOL0     H13187   6.630   9.799   3.700 -0.3575  0.3299 -0.3643
  100MOL0     H13188   6.335   9.966   3.411 -1.5535  0.1132 -1.1057
  100MOL0     H13189   6.173   9.905   3.252  1.1422 -0.9810  2.1983
  100MOL0     H13190   6.249   9.569   2.972 -1.3467 -0.9978 -1.2202
  100MOL0     H13191   6.323   9.706   2.880  0.0390 -2.8479 -3.4080
  100MOL0     H13192   6.103   9.765   2.792  2.6676  0.0409 -1.9358
  100MOL0     H13193   6.172   9.616   2.732  1.4808 -0.7964  0.5652
  100MOL0     H13194   5.976   9.631   2.968  2.0109  0.6521  1.4985
  100MOL0     H13195   6.036   9.478   2.900 -0.5709 -0.2157  0.7426
  100MOL0     H13196   5.907   9.511   2.694  0.5189 -1.8499  1.3314
  100MOL0     H13197   5.800   9.513   2.834 -0.3842 -0.7067 -0.9844
  100MOL0     H13198   5.818   9.920   2.682  1.6831 -0.3503 -1.8235
  100MOL0     H13199   6.457   9.658   3.042 -4.1892  0.5098 -0.9007
  100MOL0     H13200   6.627   9.727   3.219 -0.4400  1.0849 -0.5627
  101MOL0     O13201   3.499   0.713   9.341 -0.2755 -0.2605  0.1004
  101MOL0     C13202   3.502   0.820   9.285 -0.1735 -0.4152 -0.6458
  101MOL0     O13203   3.616   0.887   9.246  0.4233 -0.2099 -0.6526
  101MOL0     C13204   3.734   0.832   9.275 -0.9864 -0.0737  0.1537
  101MOL0     C13205   3.769   0.785   9.402 -0.4940 -0.1935 -0.2370
  101MOL0     C13206   3.900   0.749   9.436  0.0642  0.1684  0.0531
  101MOL0     C13207   3.999   0.753   9.337  0.3551  0.0108 -0.2557
  101MOL0     O13208   4.129   0.714   9.350  1.1983  0.5110 -1.1202
  101MOL0     C13209   4.177   0.683   9.482  0.2519  0.4299 -0.0794
  101MOL0     C13210   4.163   0.537   9.526 -0.6389  0.5968  0.2981
  101MOL0     C13211   4.193   0.430   9.416  0.2367 -0.4542 -0.1861
  101MOL0     C13212   4.192   0.293   9.480 -0.0717  0.2025  0.2601
  101MOL0     C13213   4.042   0.254   9.505  0.5206  0.7556 -0.1310
  101MOL0     C13214   4.033   0.113   9.564  0.8721 -0.1833  0.3880
  101MOL0     C13215   3.877   0.076   9.572 -0.2227  0.5987  0.0444
  101MOL0     C13216   3.861  -0.049   9.662  0.5758 -0.6741  0.3776
  101MOL0     N13217   3.726  -0.067   9.719 -0.6612  0.3164 -0.0769
  101MOL0     C13218   3.615  -0.098   9.641 -0.5366 -1.0378  0.1863
  101MOL0     C13219   3.516  -0.097   9.721 -0.2695  0.2776 -0.9994
  101MOL0     C13220   3.374  -0.110   9.679  0.2437  0.0913  0.4664
  101MOL0     C13221   3.265  -0.023   9.738  0.6729 -0.0977  0.3046
  101MOL0     C13222   3.219  -0.053   9.876 -0.4917 -1.1579  0.2675
  101MOL0     C13223   3.207  -0.193   9.891 -0.9558 -0.2133 -0.7591
  101MOL0     O13224   3.123  -0.259   9.791  0.3671 -0.6061 -0.7011
  101MOL0     C13225   2.987  -0.244   9.828  0.2060  0.0888  0.2108
  101MOL0     C13226   2.935  -0.361   9.879 -0.4587 -0.8049 -0.4247
  101MOL0     C13227   2.806  -0.371   9.916  0.5678 -0.5659  0.6159
  101MOL0     C13228   2.724  -0.254   9.903  0.4191  0.2171 -0.2013
  101MOL0     C13229   2.584  -0.245   9.957  0.1633  0.4108 -0.2062
  101MOL0     O13230   2.524  -0.127   9.977 -0.4920  0.2308 -0.7102
  101MOL0     C13231   2.398  -0.110  10.028  0.3296  0.2203  0.6859
  101MOL0     C13232   2.308  -0.044   9.952  0.1549 -0.1025  0.1750
  101MOL0     C13233   2.184  -0.011  10.007  0.3244  0.7698 -0.2281
  101MOL0     C13234   2.147  -0.055  10.138  0.1232  0.4359 -1.0975
  101MOL0     O13235   2.021  -0.034  10.190  0.2532 -0.2130  0.0212
  101MOL0     C13236   1.914  -0.018  10.101  0.1942  0.6105 -0.7606
  101MOL0     C13237   1.785  -0.002  10.183  0.2253 -0.3095  0.1894
  101MOL0     C13238   1.740  -0.133  10.245 -0.1300  0.3434  0.0350
  101MOL0     C13239   1.608  -0.126  10.326  0.3236  0.7117 -0.3423
  101MOL0     C13240   1.545  -0.260  10.370  0.8484 -0.6451 -0.0956
  101MOL0     C13241   1.407  -0.252  10.442 -0.6332  0.3259 -0.0868
  101MOL0     C13242   1.409  -0.179  10.571  0.0858 -0.1887 -0.0477
  101MOL0     C13243   1.483  -0.267  10.676  0.9611  1.2467  0.2285
  101MOL0    Cl13244   1.395  -0.416  10.729  0.2502 -0.1848 -0.3776
  101MOL0     C13245   2.240  -0.120  10.211  0.3397  0.4107 -0.0979
  101MOL0     C13246   2.365  -0.153  10.156  0.6096  0.1296  0.2308
  101MOL0     O13247   2.537  -0.354   9.993 -0.3983 -1.2705  0.4031
  101MOL0     C13248   2.776  -0.141   9.832  0.9149  0.2473  0.6207
  101MOL0     C13249   2.912  -0.132   9.795 -0.4471  0.5257  0.4528
  101MOL0     N13250   3.562  -0.052   9.847 -0.2788  0.4008 -0.0836
  101MOL0     N13251   3.690  -0.037   9.844 -0.3618 -0.5383 -0.1087
  101MOL0     C13252   3.969   0.796   9.205 -0.0906 -1.0583 -0.5304
  101MOL0     C13253   3.835   0.840   9.173  0.3902  0.6480  0.4229
  101MOL0     C13254   3.366   0.881   9.276 -0.5936  0.0496 -0.2684
  101MOL0     C13255   3.253   0.810   9.321  0.2027  0.6857 -0.0982
  101MOL0     C13256   3.123   0.850   9.286 -0.0291  0.0160 -0.8532
  101MOL0     C13257   3.110   0.976   9.227  0.0133 -1.0462  0.0698
  101MOL0     O13258   2.989   1.026   9.180 -0.8574 -0.4427  0.2912
  101MOL0     C13259   2.871   0.956   9.232  0.1872  0.1752  0.6604
  101MOL0     C13260   2.739   1.031   9.196  0.4341 -0.0626  0.9525
  101MOL0     C13261   2.624   0.938   9.223 -0.3942 -0.7562 -0.4836
  101MOL0     C13262   2.489   1.016   9.203 -0.4924  0.1877 -0.9121
  101MOL0     C13263   2.373   0.935   9.233  0.3321  0.1318 -0.2439
  101MOL0     C13264   2.274   0.870   9.250  0.7493 -0.1820 -0.4188
  101MOL0     C13265   3.226   1.051   9.197 -0.0751 -0.5314  0.2546
  101MOL0     C13266   3.352   0.999   9.205  0.2622 -0.2051  0.3461
  101MOL0     H13267   3.694   0.781   9.481 -0.4493 -1.6438 -0.2379
  101MOL0     H13268   3.917   0.719   9.539  1.2553 -3.4378 -1.0335
  101MOL0     H13269   4.129   0.748   9.555 -3.2499  1.1412 -2.7350
  101MOL0     H13270   4.284   0.707   9.480  0.7746 -1.5651 -2.9427
  101MOL0     H13271   4.060   0.525   9.560 -0.4735 -3.1542 -0.1238
  101MOL0     H13272   4.218   0.513   9.618 -0.3973 -0.7814 -0.1853
  101MOL0     H13273   4.296   0.451   9.385 -0.1509  0.2114 -1.0583
  101MOL0     H13274   4.140   0.446   9.321  0.5537 -1.3961 -0.5404
  101MOL0     H13275   4.233   0.218   9.411  2.3997  5.0522 -4.2418
  101MOL0     H13276   4.261   0.293   9.565  0.0933  0.3586  0.1288
  101MOL0     H13277   3.977   0.265   9.417  0.8673  0.8414 -0.3764
  101MOL0     H13278   3.998   0.321   9.580 -0.4937 -0.0789  0.0422
  101MOL0     H13279   4.071   0.100   9.666 -0.6806 -1.9434  0.8029
  101MOL0     H13280   4.084   0.032   9.510 -0.1717 -1.7813  1.6985
  101MOL0     H13281   3.814   0.152   9.620  0.8132  0.5806  1.5047
  101MOL0     H13282   3.840   0.060   9.471 -0.4950  0.3672  0.1797
  101MOL0     H13283   3.932  -0.035   9.743  2.9501 -1.8631 -1.3687
  101MOL0     H13284   3.898  -0.133   9.601  2.1170 -0.4940  1.0292
  101MOL0     H13285   3.614  -0.114   9.533  0.3445 -1.4735  0.2316
  101MOL0     H13286   3.351  -0.216   9.692  0.6645 -0.1233 -0.4046
  101MOL0     H13287   3.368  -0.086   9.572 -2.2088  1.3534  0.8231
  101MOL0     H13288   3.178  -0.044   9.675  2.2304 -1.0650 -1.6329
  101MOL0     H13289   3.294   0.083   9.740  0.4354 -0.0292  3.0208
  101MOL0     H13290   3.295  -0.009   9.942 -0.8502  0.8702 -0.5870
  101MOL0     H13291   3.124  -0.001   9.894 -0.5803 -1.2103 -0.0395
  101MOL0     H13292   3.166  -0.201   9.992 -0.1219  0.5360 -0.3416
  101MOL0     H13293   3.309  -0.234   9.896 -0.7534  0.3934  0.9007
  101MOL0     H13294   3.003  -0.446   9.885  1.1007  0.4704  0.7459
  101MOL0     H13295   2.766  -0.463   9.959 -1.6882  0.8732  1.7538
  101MOL0     H13296   2.347  -0.010   9.857  2.9198 -3.9297 -0.2739
  101MOL0     H13297   2.114   0.057   9.960 -1.6480  0.0409  1.4842
  101MOL0     H13298   1.913  -0.100  10.028  0.1106 -1.4783  1.4534
  101MOL0     H13299   1.930   0.082  10.059 -1.1659  2.1084  2.0494
  101MOL0     H13300   1.710   0.039  10.116  2.0762  0.4597 -1.5296
  101MOL0     H13301   1.814   0.073  10.258  0.9677  0.5767 -0.9441
  101MOL0     H13302   1.821  -0.169  10.310  1.2321 -2.0136 -2.7222
  101MOL0     H13303   1.727  -0.203  10.162 -1.9601  1.7810 -0.9530
  101MOL0     H13304   1.637  -0.076  10.418  3.2002 -1.0401 -0.1522
  101MOL0     H13305   1.533  -0.079  10.262 -0.7411 -0.5195 -0.0383
  101MOL0     H13306   1.621  -0.299  10.438 -1.0580 -1.3068  1.7434
  101MOL0     H13307   1.532  -0.327  10.284  3.7414 -0.8506 -0.4705
  101MOL0     H13308   1.376  -0.357  10.444  1.2636 -0.3681 -2.3307
  101MOL0     H13309   1.334  -0.198  10.381 -0.6294 -1.9312 -2.2473
  101MOL0     H13310   1.460  -0.082  10.567 -1.9490  0.9650  0.6677
  101MOL0     H13311   1.309  -0.154  10.609  0.7883  1.3617  0.8947
  101MOL0     H13312   1.496  -0.217  10.773 -1.0279  1.0315  0.6691
  101MOL0     H13313   1.584  -0.289  10.641 -0.6828 -1.2566 -3.6349
  101MOL0     H13314   2.213  -0.154  10.310 -0.4957  0.2805 -0.3637
  101MOL0     H13315   2.431  -0.216  10.216 -1.2780  0.7426  3.1681
  101MOL0     H13316   2.709  -0.064   9.795  2.2313 -1.0905 -5.7033
  101MOL0     H13317   2.952  -0.044   9.745 -2.5315  2.3678  1.8310
  101MOL0     H13318   4.042   0.801   9.126  0.9719 -1.4791  0.3970
  101MOL0     H13319   3.809   0.875   9.074 -0.9063 -0.7804  0.2344
  101MOL0     H13320   3.272   0.717   9.372  1.9093  1.6603  1.1475
  101MOL0     H13321   3.037   0.790   9.314  1.9439 -2.5572  0.0425
  101MOL0     H13322   2.870   0.949   9.341 -0.1570  1.2361  0.7316
  101MOL0     H13323   2.871   0.852   9.196 -0.0948  0.9595 -1.7565
  101MOL0     H13324   2.735   1.129   9.244 -2.9321  1.2298 -1.5195
  101MOL0     H13325   2.731   1.056   9.090  0.0256  1.2709  1.2741
  101MOL0     H13326   2.633   0.893   9.322  1.7755  0.1725 -0.2115
  101MOL0     H13327   2.620   0.864   9.142 -0.7095 -1.2412 -0.0340
  101MOL0     H13328   2.492   1.105   9.266 -1.6413 -0.4301  0.0644
  101MOL0     H13329   2.481   1.053   9.101  1.1312  1.2927 -0.6769
  101MOL0     H13330   2.186   0.815   9.279  0.5808 -0.1149 -0.7944
  101MOL0     H13331   3.207   1.146   9.147 -1.0182 -0.0286  1.5006
  101MOL0     H13332   3.433   1.056   9.161  2.3072 -2.2839  1.2563
  102MOL0     O13333   3.881   6.055   1.071  0.7352 -0.0071  0.1226
  102MOL0     C13334   3.817   6.162   1.076  0.1108 -0.4673 -1.0485
  102MOL0     O13335   3.875   6.278   1.128 -0.6285  0.4559  0.1866
  102MOL0     C13336   4.011   6.289   1.159 -0.9125 -0.0268 -1.0989
  102MOL0     C13337   4.088   6.196   1.227  0.9358 -0.1004 -0.0560
  102MOL0     C13338   4.227   6.215   1.247 -0.1843 -0.0545  0.4066
  102MOL0     C13339   4.297   6.326   1.197  0.4427  0.1673  0.7584
  102MOL0     O13340   4.430   6.327   1.232 -0.3590 -0.3454  0.5809
  102MOL0     C13341   4.516   6.380   1.132 -0.5031 -0.6878 -0.1278
  102MOL0     C13342   4.547   6.532   1.125  0.3621  0.4801  0.1981
  102MOL0     C13343   4.627   6.611   1.233  0.5948  0.2030  0.0728
  102MOL0     C13344   4.583   6.566   1.368 -0.2259 -0.5218  0.4726
  102MOL0     C13345   4.444   6.609   1.414  0.1389 -0.0057  0.3711
  102MOL0     C13346   4.403   6.527   1.536  0.2449  0.5478  0.0312
  102MOL0     C13347   4.253   6.550   1.575 -0.2991 -0.3119 -0.1125
  102MOL0     C13348   4.220   6.682   1.628  0.1343  0.4548 -0.5763
  102MOL0     N13349   4.086   6.681   1.700  0.2110 -0.6545 -0.0865
  102MOL0     C13350   4.057   6.611   1.819  0.3058 -0.2076 -0.1982
  102MOL0     C13351   3.923   6.620   1.834  0.1599  0.2418  0.3064
  102MOL0     C13352   3.853   6.553   1.955 -0.2562 -0.4223  0.3712
  102MOL0     C13353   3.710   6.501   1.910 -0.1747  0.1341 -0.3745
  102MOL0     C13354   3.611   6.604   1.967 -0.6669  0.1723  0.2450
  102MOL0     C13355   3.467   6.562   1.946 -0.3026 -0.3248 -0.7205
  102MOL0     O13356   3.443   6.462   2.034  0.1371  0.3654  0.1768
  102MOL0     C13357   3.349   6.382   1.976 -0.0761  0.1829  0.5629
  102MOL0     C13358   3.214   6.422   1.949 -0.2774  0.2364  0.0822
  102MOL0     C13359   3.123   6.321   1.904  0.6416  0.2804 -0.2539
  102MOL0     C13360   3.165   6.189   1.884 -0.0617  1.0863  0.0549
  102MOL0     C13361   3.066   6.088   1.833 -0.8677  0.1881 -0.0497
  102MOL0     O13362   2.938   6.102   1.880  0.4835  0.5421  0.6172
  102MOL0     C13363   2.830   6.049   1.819 -0.3276  0.5262 -1.5150
  102MOL0     C13364   2.826   5.981   1.699  0.2227 -0.5689  0.2212
  102MOL0     C13365   2.706   5.932   1.641  0.4181  0.0543  0.4754
  102MOL0     C13366   2.577   5.948   1.706  0.0819  0.7285 -0.3787
  102MOL0     O13367   2.459   5.896   1.664  0.6341  0.1218  0.1498
  102MOL0     C13368   2.471   5.813   1.540 -0.1015  0.0219 -0.4633
  102MOL0     C13369   2.344   5.764   1.480 -0.1495 -0.0043  0.4416
  102MOL0     C13370   2.278   5.654   1.555 -0.7329  0.2697  0.0523
  102MOL0     C13371   2.156   5.607   1.470  0.0103 -0.4892  0.2473
  102MOL0     C13372   2.096   5.480   1.538 -0.2977 -0.5505 -0.3317
  102MOL0     C13373   1.974   5.425   1.453 -0.0256  0.1111 -0.4670
  102MOL0     C13374   1.920   5.302   1.534 -0.3996 -0.6131 -0.3035
  102MOL0     C13375   1.773   5.268   1.499 -0.1400 -0.1553 -0.6308
  102MOL0    Cl13376   1.738   5.228   1.320  0.0407  0.0315 -0.1767
  102MOL0     C13377   2.588   6.001   1.838 -0.2327 -0.3804 -0.2330
  102MOL0     C13378   2.706   6.060   1.886  0.2821 -0.1877 -0.2121
  102MOL0     O13379   3.106   6.003   1.750  0.1206  0.3586 -0.3033
  102MOL0     C13380   3.295   6.158   1.904 -0.0565  0.1449 -0.6018
  102MOL0     C13381   3.386   6.252   1.952  0.6137 -0.4542  0.7983
  102MOL0     N13382   3.881   6.698   1.720  0.0118  0.4853  0.4792
  102MOL0     N13383   3.977   6.742   1.650 -0.7032  0.2833  0.2705
  102MOL0     C13384   4.218   6.419   1.133 -0.0712 -0.8443 -0.2186
  102MOL0     C13385   4.085   6.402   1.117  0.5070 -0.1000  0.0473
  102MOL0     C13386   3.672   6.155   1.070 -0.0753 -0.4791 -0.3470
  102MOL0     C13387   3.597   6.039   1.042  0.1379  0.1454 -0.3159
  102MOL0     C13388   3.460   6.047   1.033  0.0366  0.2716 -0.1125
  102MOL0     C13389   3.384   6.164   1.050  0.1296 -0.3400  0.1466
  102MOL0     O13390   3.249   6.171   1.025  0.8184  0.5777 -0.5951
  102MOL0     C13391   3.188   6.059   0.972 -0.1691  0.6108  0.0330
  102MOL0     C13392   3.049   6.111   0.918  0.5007 -0.1143 -0.7110
  102MOL0     C13393   2.933   6.016   0.955  0.3036 -0.7067  0.5322
  102MOL0     C13394   2.813   6.059   0.878 -0.2135 -0.3732  0.0339
  102MOL0     C13395   2.692   6.003   0.941 -0.6449 -0.5618 -0.3097
  102MOL0     C13396   2.587   5.984   1.003  0.3377 -0.1980  0.0274
  102MOL0     C13397   3.455   6.284   1.074  0.7053 -0.7719 -0.4079
  102MOL0     C13398   3.596   6.278   1.088 -0.1919 -0.2186  0.2471
  102MOL0     H13399   4.031   6.120   1.279 -0.0208  0.3428 -0.4217
  102MOL0     H13400   4.280   6.142   1.306  1.0580  0.7029  0.2562
  102MOL0     H13401   4.486   6.345   1.033 -1.8444  2.4197 -0.9533
  102MOL0     H13402   4.613   6.333   1.150  0.8248  1.2185 -1.7689
  102MOL0     H13403   4.453   6.587   1.115 -0.2545 -0.5501  0.1704
  102MOL0     H13404   4.606   6.538   1.032  0.4418  0.0775  0.2246
  102MOL0     H13405   4.609   6.719   1.227  3.0386  0.6098 -1.5571
  102MOL0     H13406   4.733   6.590   1.212  0.6111  1.3061 -1.0873
  102MOL0     H13407   4.605   6.459   1.379 -0.9479 -0.6537  0.7373
  102MOL0     H13408   4.651   6.619   1.434  0.0818  2.7740 -2.2071
  102MOL0     H13409   4.360   6.593   1.346 -1.0378 -1.0609  2.0133
  102MOL0     H13410   4.439   6.715   1.440 -0.8976 -0.2703  1.3475
  102MOL0     H13411   4.467   6.540   1.623  0.2787  5.2916 -0.4503
  102MOL0     H13412   4.411   6.426   1.495 -0.9050  1.1646 -1.8145
  102MOL0     H13413   4.186   6.529   1.491  1.1258  0.5924 -1.5301
  102MOL0     H13414   4.238   6.477   1.655 -3.1097 -0.1223 -0.3769
  102MOL0     H13415   4.213   6.748   1.542 -0.2143 -1.7027 -2.2764
  102MOL0     H13416   4.290   6.712   1.707 -1.1984  0.0033  0.8276
  102MOL0     H13417   4.127   6.563   1.887 -0.7114  0.2037  1.1881
  102MOL0     H13418   3.844   6.620   2.042  2.8390  0.2260  0.2742
  102MOL0     H13419   3.902   6.460   1.984 -2.2668 -2.0082 -0.9825
  102MOL0     H13420   3.683   6.410   1.964 -0.4018 -1.0686 -2.4375
  102MOL0     H13421   3.701   6.483   1.803 -3.2278 -1.8094  0.1061
  102MOL0     H13422   3.632   6.622   2.072  1.8881 -1.9488  0.2196
  102MOL0     H13423   3.621   6.695   1.906  0.1393 -0.8581 -1.2348
  102MOL0     H13424   3.456   6.520   1.845  0.3470 -2.0643 -0.0950
  102MOL0     H13425   3.398   6.646   1.962 -2.0855 -1.7982 -0.3308
  102MOL0     H13426   3.176   6.521   1.975 -2.2267 -0.5420  0.3854
  102MOL0     H13427   3.021   6.339   1.872 -0.8056 -2.6106  2.2205
  102MOL0     H13428   2.906   5.970   1.627  0.1345 -1.3321  0.2269
  102MOL0     H13429   2.720   5.882   1.546 -0.9949 -1.3299  0.9449
  102MOL0     H13430   2.545   5.736   1.564 -0.3366  0.7738  3.2762
  102MOL0     H13431   2.515   5.882   1.467 -0.3862 -0.3460 -0.9840
  102MOL0     H13432   2.372   5.730   1.381 -1.9168 -3.0068  0.8436
  102MOL0     H13433   2.265   5.840   1.475 -2.1288 -1.4632  4.6587
  102MOL0     H13434   2.250   5.689   1.655  0.7909 -1.5184  1.1676
  102MOL0     H13435   2.344   5.569   1.576  0.6346  1.6654  1.6951
  102MOL0     H13436   2.079   5.685   1.477  0.5414  0.0874 -0.1964
  102MOL0     H13437   2.195   5.587   1.369  0.9014  0.7830  0.3073
  102MOL0     H13438   2.067   5.515   1.637 -0.2614  1.3325 -0.9488
  102MOL0     H13439   2.174   5.404   1.551  2.3958  2.3328  1.8651
  102MOL0     H13440   2.008   5.403   1.351 -2.4554  2.1085 -1.8187
  102MOL0     H13441   1.895   5.501   1.450 -0.2893 -0.1122  0.5766
  102MOL0     H13442   1.988   5.218   1.517 -1.2947 -1.6497  0.9419
  102MOL0     H13443   1.918   5.337   1.638 -0.8437  0.4080 -0.6408
  102MOL0     H13444   1.712   5.356   1.525  0.6788  1.3835 -3.4363
  102MOL0     H13445   1.750   5.184   1.564  1.1834  0.3946  0.6018
  102MOL0     H13446   2.496   6.007   1.896 -0.2483  1.0263 -0.3761
  102MOL0     H13447   2.708   6.112   1.981 -0.5993 -0.5953  0.0345
  102MOL0     H13448   3.339   6.060   1.892  2.3006  0.8620  1.3507
  102MOL0     H13449   3.490   6.223   1.953  1.4370  1.8165 -2.6196
  102MOL0     H13450   4.269   6.511   1.103  0.4034 -0.7489  0.8287
  102MOL0     H13451   4.024   6.483   1.079 -1.9064 -1.5171  0.6240
  102MOL0     H13452   3.644   5.941   1.036  1.6980  0.9518 -2.1105
  102MOL0     H13453   3.409   5.952   1.025 -0.6509  0.7774 -2.2291
  102MOL0     H13454   3.174   5.985   1.051 -1.0536 -0.2764 -0.9171
  102MOL0     H13455   3.249   6.008   0.898  1.0510  0.1018  1.3546
  102MOL0     H13456   3.025   6.212   0.952 -2.0921  0.3104 -3.3572
  102MOL0     H13457   3.056   6.126   0.810  0.9358  1.0094 -0.5309
  102MOL0     H13458   2.910   6.015   1.062 -1.3587 -2.8261  0.2311
  102MOL0     H13459   2.952   5.912   0.926 -0.8922 -1.0398  0.8614
  102MOL0     H13460   2.814   6.169   0.876  2.1470 -0.3346  0.3101
  102MOL0     H13461   2.819   6.016   0.778  0.6921 -0.7504  0.2345
  102MOL0     H13462   2.488   5.980   1.044  0.1714 -3.6778 -0.4555
  102MOL0     H13463   3.404   6.379   1.069  1.1026 -0.5412 -0.1248
  102MOL0     H13464   3.650   6.370   1.107  0.6050 -0.5305 -0.5050
  103MOL0     O13465  10.639   9.129   1.310 -0.2126 -0.6253 -0.0927
  103MOL0     C13466  10.686   9.027   1.260  0.7285  0.4207 -0.6879
  103MOL0     O13467  10.616   8.925   1.197 -0.6991 -0.3377  0.4972
  103MOL0     C13468  10.475   8.921   1.191 -0.9425  0.4801 -0.0857
  103MOL0     C13469  10.415   8.866   1.076  0.7520  0.0235 -0.0300
  103MOL0     C13470  10.283   8.867   1.054  0.6136 -0.4731  0.3181
  103MOL0     C13471  10.192   8.926   1.143 -1.0140  0.4087 -0.6606
  103MOL0     O13472  10.053   8.941   1.132  0.0862  0.0587 -0.4311
  103MOL0     C13473   9.995   8.865   1.031  0.1106  0.1320 -0.7007
  103MOL0     C13474   9.845   8.878   1.050 -0.2601  0.3818  0.2232
  103MOL0     C13475   9.768   8.805   0.936  0.0029  0.2339  0.0264
  103MOL0     C13476   9.619   8.803   0.967 -0.0208 -0.0653 -0.5907
  103MOL0     C13477   9.529   8.721   0.869  0.0613  0.8284  0.5861
  103MOL0     C13478   9.384   8.753   0.872 -0.6962 -0.9360 -0.4261
  103MOL0     C13479   9.308   8.743   1.012  0.6899  0.2073  0.2840
  103MOL0     C13480   9.288   8.598   1.058 -0.2882 -1.2570 -0.3922
  103MOL0     N13481   9.202   8.525   0.965  0.0027  0.9182 -0.3138
  103MOL0     C13482   9.065   8.525   0.966  0.2988  1.2579 -0.3100
  103MOL0     C13483   9.033   8.471   0.843 -0.8873  0.1913 -0.8261
  103MOL0     C13484   8.896   8.459   0.783  0.8310 -0.8247  0.5447
  103MOL0     C13485   8.821   8.334   0.841  0.2432 -0.1162  0.3922
  103MOL0     C13486   8.858   8.203   0.771  0.4056 -0.4257 -0.1969
  103MOL0     C13487   8.804   8.196   0.623  0.4801  0.3452  0.4194
  103MOL0     O13488   8.870   8.098   0.548  0.4668 -0.3845  0.3408
  103MOL0     C13489   8.990   8.122   0.497 -0.6480 -0.7761  0.5451
  103MOL0     C13490   9.062   8.006   0.447  0.2508  0.0156 -0.1261
  103MOL0     C13491   9.181   8.028   0.386 -0.3019 -0.9135  0.4895
  103MOL0     C13492   9.249   8.156   0.391  0.3946  0.1090  0.1673
  103MOL0     C13493   9.382   8.171   0.327  0.0028 -0.9875  0.1978
  103MOL0     O13494   9.444   8.060   0.272  0.3217  0.4267 -0.0220
  103MOL0     C13495   9.580   8.063   0.259 -0.0849  0.8728  0.6374
  103MOL0     C13496   9.628   8.137   0.154  0.0632  0.3216 -0.2369
  103MOL0     C13497   9.766   8.114   0.123  0.1447 -1.0815  0.1435
  103MOL0     C13498   9.857   8.044   0.195  0.1479  0.3981 -0.2576
  103MOL0     O13499   9.987   8.034   0.154  0.2822 -0.1770 -0.6670
  103MOL0     C13500   9.981   7.942   0.039  0.2895  0.3187  0.4436
  103MOL0     C13501  10.096   7.964  -0.046  0.5819  0.0897  0.7212
  103MOL0     C13502  10.108   8.116  -0.086  0.1039 -0.7761  0.8949
  103MOL0     C13503  10.227   8.162  -0.183  0.3406  0.3012 -0.0456
  103MOL0     C13504  10.355   8.185  -0.099 -0.3371 -0.2999  0.1571
  103MOL0     C13505  10.474   8.183  -0.192 -0.0406 -0.4342 -0.4165
  103MOL0     C13506  10.605   8.191  -0.127 -0.5888 -0.0685 -0.3321
  103MOL0     C13507  10.720   8.219  -0.230 -0.6015  0.8801 -0.1870
  103MOL0    Cl13508  10.753   8.070  -0.326  0.1460 -0.1719 -0.0357
  103MOL0     C13509   9.802   7.986   0.313 -0.3601  0.1557  0.4476
  103MOL0     C13510   9.668   7.998   0.345  0.0009 -0.1110  0.8124
  103MOL0     O13511   9.440   8.278   0.343 -0.0418 -0.4019 -0.3218
  103MOL0     C13512   9.184   8.261   0.453  0.3134  0.1890  0.1390
  103MOL0     C13513   9.053   8.245   0.493  0.0037  0.0899 -1.2917
  103MOL0     N13514   9.147   8.411   0.793  0.2265  0.2080  0.4591
  103MOL0     N13515   9.241   8.465   0.850  0.6010  0.4941 -0.5736
  103MOL0     C13516  10.251   8.992   1.257 -1.0286 -0.1904 -0.3797
  103MOL0     C13517  10.390   8.982   1.287 -0.5891  0.2951  0.3572
  103MOL0     C13518  10.833   9.002   1.283  0.2481 -0.0977 -0.1530
  103MOL0     C13519  10.902   8.905   1.215 -0.3838  0.2457  0.2471
  103MOL0     C13520  11.040   8.886   1.235 -0.4311 -0.8860  0.8396
  103MOL0     C13521  11.115   8.968   1.317 -0.2152 -0.2590 -0.9759
  103MOL0     O13522  11.252   8.956   1.323  0.4695  0.3185 -0.4920
  103MOL0     C13523  11.323   9.041   1.403 -1.3480 -0.5374  0.8054
  103MOL0     C13524  11.407   9.146   1.330  1.0713 -0.1386 -0.8143
  103MOL0     C13525  11.319   9.237   1.251  0.5510 -0.0373  0.8261
  103MOL0     C13526  11.396   9.340   1.167  0.0548 -0.5615 -0.2385
  103MOL0     C13527  11.510   9.414   1.225  0.5992  0.1971 -0.4238
  103MOL0     C13528  11.595   9.481   1.293 -0.2098  0.5407 -0.1005
  103MOL0     C13529  11.046   9.070   1.384 -0.1330 -1.1337  0.0601
  103MOL0     C13530  10.904   9.077   1.365 -0.2774 -0.5161 -0.1496
  103MOL0     H13531  10.483   8.826   1.001  0.5686  1.7177 -1.1733
  103MOL0     H13532  10.248   8.833   0.957 -0.0420 -1.7478  0.9647
  103MOL0     H13533  10.025   8.760   1.035  2.6882  0.8387  1.9172
  103MOL0     H13534  10.018   8.910   0.934  0.1115  4.5567  1.1146
  103MOL0     H13535   9.832   8.986   1.057 -0.2223  0.4392 -0.5631
  103MOL0     H13536   9.810   8.841   1.147 -1.8361  1.0551 -0.0492
  103MOL0     H13537   9.794   8.699   0.929  0.0088  0.0020  2.5008
  103MOL0     H13538   9.793   8.854   0.842  2.0971 -1.0556 -0.1719
  103MOL0     H13539   9.598   8.761   1.065 -1.5581  0.5301 -0.6327
  103MOL0     H13540   9.581   8.905   0.959  0.6809  0.2261 -0.3282
  103MOL0     H13541   9.553   8.614   0.876  1.6721  1.2481  2.6435
  103MOL0     H13542   9.561   8.748   0.768  3.7730  0.5822  1.5384
  103MOL0     H13543   9.334   8.691   0.796  1.2402 -1.7008 -1.1217
  103MOL0     H13544   9.378   8.858   0.842  0.0246 -0.7350  0.1113
  103MOL0     H13545   9.368   8.804   1.080  1.1102 -1.5035  1.4955
  103MOL0     H13546   9.205   8.782   1.003  0.4090 -0.1597  1.7216
  103MOL0     H13547   9.231   8.602   1.151  0.9891  0.3465  0.3597
  103MOL0     H13548   9.386   8.551   1.068  0.7458  0.3936 -2.1485
  103MOL0     H13549   8.998   8.569   1.039 -3.3824 -1.8729 -1.4540
  103MOL0     H13550   8.900   8.441   0.676 -1.1978 -1.7064  0.5817
  103MOL0     H13551   8.836   8.547   0.809  0.8800 -0.3677 -0.8183
  103MOL0     H13552   8.712   8.342   0.834  0.2832  0.1693  0.0663
  103MOL0     H13553   8.852   8.322   0.945 -1.3453  1.5680  1.1159
  103MOL0     H13554   8.967   8.202   0.771  0.4145 -0.2902  0.4636
  103MOL0     H13555   8.822   8.117   0.829  0.6928 -0.8403 -0.6290
  103MOL0     H13556   8.814   8.288   0.564  2.8891 -1.0664 -1.5740
  103MOL0     H13557   8.699   8.166   0.635  0.9791 -1.7266 -0.0232
  103MOL0     H13558   9.020   7.906   0.452  0.0587  0.1709  1.7961
  103MOL0     H13559   9.238   7.946   0.342 -0.9451 -0.9921 -0.2197
  103MOL0     H13560   9.562   8.190   0.085  0.1760 -1.0980 -1.4852
  103MOL0     H13561   9.796   8.165   0.033 -3.7691 -0.7582 -1.1700
  103MOL0     H13562   9.888   7.939  -0.018  0.5625 -0.4766  0.0156
  103MOL0     H13563   9.983   7.839   0.076 -3.0926  0.3940  1.1457
  103MOL0     H13564  10.096   7.893  -0.130  2.0693 -1.2059  1.7502
  103MOL0     H13565  10.187   7.940   0.009  0.4310  0.8581  1.3270
  103MOL0     H13566  10.116   8.180   0.003  0.2270 -0.0178  0.3458
  103MOL0     H13567  10.012   8.137  -0.133  1.4512  2.2271 -0.8463
  103MOL0     H13568  10.246   8.078  -0.251  1.0293  0.3720  0.0504
  103MOL0     H13569  10.215   8.246  -0.251 -0.8968 -0.5036 -0.8507
  103MOL0     H13570  10.363   8.104  -0.026 -1.0590 -1.4263 -0.9836
  103MOL0     H13571  10.356   8.278  -0.042 -1.4779 -0.3130  0.2198
  103MOL0     H13572  10.480   8.267  -0.262 -1.1462  1.0173  1.1732
  103MOL0     H13573  10.466   8.084  -0.239 -1.2967  0.1357 -1.4593
  103MOL0     H13574  10.593   8.273  -0.056 -0.4307  0.0007 -0.3850
  103MOL0     H13575  10.628   8.095  -0.079 -1.0197 -1.0544 -1.9954
  103MOL0     H13576  10.815   8.255  -0.188 -1.2092  0.6076  1.4730
  103MOL0     H13577  10.688   8.297  -0.300  0.3299  0.0878 -1.5558
  103MOL0     H13578   9.869   7.938   0.384 -1.4436  0.5274  1.7562
  103MOL0     H13579   9.630   7.948   0.434 -1.0035 -1.0354 -0.0966
  103MOL0     H13580   9.237   8.356   0.450  4.8141 -1.9607  2.5316
  103MOL0     H13581   9.010   8.333   0.541 -0.5167 -0.3999 -0.8462
  103MOL0     H13582  10.189   9.050   1.326  2.6118  2.9600  0.5810
  103MOL0     H13583  10.424   9.050   1.365 -1.8214  1.3123  0.0438
  103MOL0     H13584  10.864   8.847   1.131 -2.8739  1.4185  0.4747
  103MOL0     H13585  11.103   8.820   1.176  1.1910  1.5358 -0.3132
  103MOL0     H13586  11.400   8.975   1.445 -0.3380  0.9584  1.3836
  103MOL0     H13587  11.272   9.093   1.484  1.5251  3.5441  0.3313
  103MOL0     H13588  11.461   9.205   1.404 -0.0518 -0.5410  0.3610
  103MOL0     H13589  11.470   9.099   1.254 -2.3498 -0.2746 -3.8393
  103MOL0     H13590  11.250   9.285   1.321  2.3682  0.0638  2.6616
  103MOL0     H13591  11.262   9.176   1.182 -1.1570  0.0482  2.0967
  103MOL0     H13592  11.428   9.298   1.072 -0.4718  1.5497 -1.4002
  103MOL0     H13593  11.318   9.415   1.150  1.0626  0.7310  0.5618
  103MOL0     H13594  11.669   9.540   1.344  1.1810  0.8803 -2.3708
  103MOL0     H13595  11.087   9.159   1.431  0.0146 -2.5197  2.7000
  103MOL0     H13596  10.854   9.165   1.405  2.2317  1.3697 -0.9441
  104MOL0     O13597   0.228   6.034   3.846  0.3309  0.2707 -0.7888
  104MOL0     C13598   0.217   6.119   3.755 -0.0230  0.4337  0.1177
  104MOL0     O13599   0.104   6.157   3.694 -0.2150 -0.0157  0.5226
  104MOL0     C13600   0.002   6.095   3.755  0.5876 -0.2291 -0.1968
  104MOL0     C13601  -0.065   6.154   3.862 -1.0193 -0.2516  1.0449
  104MOL0     C13602  -0.170   6.095   3.926  0.1336 -0.0582 -0.3988
  104MOL0     C13603  -0.214   5.969   3.886  0.5423  0.9691 -0.5058
  104MOL0     O13604  -0.316   5.918   3.956  0.0633 -0.3856 -1.0834
  104MOL0     C13605  -0.389   5.810   3.904 -0.2456  0.0114 -0.0014
  104MOL0     C13606  -0.520   5.812   3.986  0.0595 -0.2422 -0.4004
  104MOL0     C13607  -0.612   5.703   3.932  0.5383 -0.0987  0.1429
  104MOL0     C13608  -0.745   5.711   4.012  0.5682  0.4640 -0.1818
  104MOL0     C13609  -0.873   5.633   3.948 -0.5372 -0.1109 -0.5124
  104MOL0     C13610  -0.997   5.652   4.038 -0.7671 -0.7045  0.9768
  104MOL0     C13611  -1.118   5.574   3.993  0.2317 -0.0650 -0.2286
  104MOL0     C13612  -1.173   5.623   3.859  0.2274  0.5118 -0.2376
  104MOL0     N13613  -1.297   5.543   3.831  0.4873 -0.2129  0.2065
  104MOL0     C13614  -1.300   5.430   3.752  0.0291 -0.3537  0.4571
  104MOL0     C13615  -1.430   5.387   3.773 -0.3578 -0.3252 -0.5685
  104MOL0     C13616  -1.499   5.270   3.716 -0.4186  0.8114  0.3108
  104MOL0     C13617  -1.477   5.268   3.570 -0.3135  0.8224 -0.5619
  104MOL0     C13618  -1.523   5.389   3.471 -0.1194 -0.2084 -0.1457
  104MOL0     C13619  -1.663   5.435   3.502  0.4510 -0.2898 -0.9514
  104MOL0     O13620  -1.720   5.489   3.386  0.1516 -0.3546 -0.3656
  104MOL0     C13621  -1.856   5.523   3.387  0.0790 -0.2634  0.8969
  104MOL0     C13622  -1.905   5.591   3.276  0.1069  0.2199 -0.1032
  104MOL0     C13623  -2.044   5.606   3.250 -0.5405  0.8398  0.0509
  104MOL0     C13624  -2.134   5.562   3.349  0.6800 -0.0310 -0.2473
  104MOL0     C13625  -2.273   5.595   3.335  0.1539 -0.3788  0.0040
  104MOL0     O13626  -2.313   5.636   3.207 -0.0801 -0.4676  0.1279
  104MOL0     C13627  -2.450   5.643   3.174  0.6217 -0.2710 -0.5590
  104MOL0     C13628  -2.533   5.729   3.238  0.4074 -0.0670 -0.8766
  104MOL0     C13629  -2.666   5.748   3.204  0.5912 -0.3083 -0.3159
  104MOL0     C13630  -2.710   5.681   3.090 -0.1116 -0.7051  1.6088
  104MOL0     O13631  -2.836   5.687   3.026 -0.5326  0.1847  0.0231
  104MOL0     C13632  -2.916   5.791   3.077  0.0513  0.7340 -1.0490
  104MOL0     C13633  -3.063   5.773   3.031  0.2321  0.4245 -0.0817
  104MOL0     C13634  -3.124   5.651   3.081 -0.0250  0.0209  0.1653
  104MOL0     C13635  -3.244   5.612   2.998  1.2859 -1.3801  0.2443
  104MOL0     C13636  -3.383   5.656   3.043  0.9860 -0.4905 -0.2594
  104MOL0     C13637  -3.490   5.627   2.932  0.0887  0.2711 -0.2671
  104MOL0     C13638  -3.626   5.693   2.942  0.2770  0.0842 -0.6886
  104MOL0     C13639  -3.690   5.698   3.081  0.0355 -0.8748  0.2559
  104MOL0    Cl13640  -3.703   5.544   3.151 -0.1128 -0.3596 -0.2799
  104MOL0     C13641  -2.629   5.603   3.022 -0.3964  0.0136  0.2247
  104MOL0     C13642  -2.499   5.581   3.064 -0.3755 -0.0666  0.5475
  104MOL0     O13643  -2.347   5.584   3.430  0.0060 -0.5352  0.5320
  104MOL0     C13644  -2.089   5.494   3.462  0.9404  0.3619 -0.4434
  104MOL0     C13645  -1.954   5.483   3.484 -0.1573  0.0190  0.3407
  104MOL0     N13646  -1.493   5.483   3.854 -0.1676  0.3268 -0.1524
  104MOL0     N13647  -1.417   5.576   3.888 -0.2510 -0.9877  0.1026
  104MOL0     C13648  -0.151   5.899   3.779 -0.6757  0.1827  0.3617
  104MOL0     C13649  -0.059   5.973   3.702 -0.7678 -0.4707 -0.8264
  104MOL0     C13650   0.339   6.180   3.715 -0.4953  0.3492 -0.3323
  104MOL0     C13651   0.459   6.178   3.788 -0.1733  0.1837  0.7805
  104MOL0     C13652   0.585   6.220   3.736 -0.5697  0.1453 -0.1109
  104MOL0     C13653   0.599   6.278   3.604  0.4729 -0.1713  1.1914
  104MOL0     O13654   0.710   6.316   3.536  0.2635  0.6879 -0.4494
  104MOL0     C13655   0.834   6.296   3.600  1.0474 -0.1709 -0.5190
  104MOL0     C13656   0.850   6.425   3.682 -0.2307 -0.0011 -0.1718
  104MOL0     C13657   0.956   6.415   3.792 -0.5564  0.1668 -0.6463
  104MOL0     C13658   1.102   6.384   3.735 -0.4192 -0.3029  0.3078
  104MOL0     C13659   1.197   6.394   3.844 -0.6732  0.4934  0.1454
  104MOL0     C13660   1.276   6.422   3.934 -1.1937 -1.1001 -0.0949
  104MOL0     C13661   0.478   6.298   3.538 -0.3907  0.1423 -0.5260
  104MOL0     C13662   0.354   6.246   3.590  0.3647 -0.3274  0.2111
  104MOL0     H13663  -0.027   6.250   3.896 -0.5767 -0.2819  0.6487
  104MOL0     H13664  -0.209   6.142   4.015  2.9366 -0.6131  1.2491
  104MOL0     H13665  -0.335   5.715   3.906  1.0556  0.7459  0.6652
  104MOL0     H13666  -0.412   5.831   3.799  0.8853  0.7661 -0.1210
  104MOL0     H13667  -0.553   5.916   3.984  1.4522  0.2172 -2.5439
  104MOL0     H13668  -0.503   5.795   4.093  1.1879 -0.3560 -0.5761
  104MOL0     H13669  -0.581   5.598   3.940 -2.6449 -1.0139  3.0357
  104MOL0     H13670  -0.635   5.727   3.828 -2.2361 -1.0764  0.4562
  104MOL0     H13671  -0.731   5.656   4.106  0.5668  1.6515  0.5280
  104MOL0     H13672  -0.759   5.818   4.029  1.4786  0.4491  0.7703
  104MOL0     H13673  -0.850   5.526   3.945 -1.5177 -0.6160  3.7431
  104MOL0     H13674  -0.893   5.669   3.846 -0.3449 -0.2033 -0.5816
  104MOL0     H13675  -1.012   5.759   4.052  1.3899  0.0282 -1.4938
  104MOL0     H13676  -0.970   5.623   4.140  0.7525 -0.9359  0.5413
  104MOL0     H13677  -1.086   5.469   3.987 -0.2915 -0.1944 -0.8383
  104MOL0     H13678  -1.197   5.582   4.068 -2.0734  0.1200 -2.5245
  104MOL0     H13679  -1.098   5.585   3.789  0.0584  0.0639 -0.1811
  104MOL0     H13680  -1.179   5.732   3.855  4.3917  0.9706  0.9658
  104MOL0     H13681  -1.228   5.390   3.681 -0.9584 -0.9823 -0.2199
  104MOL0     H13682  -1.607   5.284   3.724 -0.3505  1.4499  0.1495
  104MOL0     H13683  -1.462   5.175   3.757 -2.7782  0.4386  1.7247
  104MOL0     H13684  -1.536   5.180   3.539  0.1396 -0.0437  0.9486
  104MOL0     H13685  -1.374   5.231   3.562 -0.5722  0.2561 -1.5199
  104MOL0     H13686  -1.457   5.474   3.487 -1.3104  1.4747 -3.2726
  104MOL0     H13687  -1.521   5.360   3.365 -0.2812  1.2905 -0.5766
  104MOL0     H13688  -1.648   5.513   3.577 -0.6214  0.2991 -1.3387
  104MOL0     H13689  -1.722   5.350   3.537  1.6104 -1.3030 -1.3692
  104MOL0     H13690  -1.842   5.627   3.194 -1.3969 -1.0421 -1.8946
  104MOL0     H13691  -2.088   5.664   3.170 -1.9206  1.8257  1.4650
  104MOL0     H13692  -2.496   5.796   3.315 -1.0554 -0.4774  0.2318
  104MOL0     H13693  -2.728   5.809   3.268 -0.7657 -0.7470 -1.1699
  104MOL0     H13694  -2.875   5.890   3.054  1.3523  0.8585  1.4452
  104MOL0     H13695  -2.923   5.792   3.186 -0.6755 -1.3620 -1.0352
  104MOL0     H13696  -3.065   5.774   2.921  0.3993  0.0730 -0.0871
  104MOL0     H13697  -3.119   5.857   3.075  2.4575  1.4279  0.9947
  104MOL0     H13698  -3.155   5.652   3.186  0.3032 -3.2940  0.3951
  104MOL0     H13699  -3.061   5.562   3.077 -0.3502 -0.2556  0.9717
  104MOL0     H13700  -3.227   5.642   2.894 -1.1984  1.3813  0.4841
  104MOL0     H13701  -3.244   5.503   3.008  1.5889 -1.3073  1.1242
  104MOL0     H13702  -3.380   5.762   3.072 -0.0593  0.2595 -2.6547
  104MOL0     H13703  -3.429   5.605   3.127 -0.9888 -0.0242 -1.0064
  104MOL0     H13704  -3.505   5.522   2.909  4.4875 -1.1832  2.2925
  104MOL0     H13705  -3.454   5.668   2.837  2.1295 -3.3870 -1.2333
  104MOL0     H13706  -3.619   5.800   2.922 -4.3149  0.7450 -0.0009
  104MOL0     H13707  -3.692   5.646   2.868  1.3067 -2.6269 -0.0309
  104MOL0     H13708  -3.785   5.753   3.076  0.3510 -0.3001  0.3898
  104MOL0     H13709  -3.627   5.750   3.154 -0.4681 -0.0804  0.1376
  104MOL0     H13710  -2.667   5.551   2.935 -0.9050  1.7443 -0.6443
  104MOL0     H13711  -2.435   5.509   3.015 -1.4349 -2.3025  2.2714
  104MOL0     H13712  -2.166   5.460   3.532 -1.4513  1.8807 -2.1647
  104MOL0     H13713  -1.937   5.427   3.576 -2.1467  0.3090  0.9356
  104MOL0     H13714  -0.177   5.796   3.755 -1.7929  0.2152  1.3630
  104MOL0     H13715  -0.023   5.925   3.612  0.1102  2.0889 -1.9213
  104MOL0     H13716   0.459   6.120   3.879 -2.8977 -1.2307 -0.0271
  104MOL0     H13717   0.671   6.196   3.798 -0.6416 -1.4213 -0.5629
  104MOL0     H13718   0.919   6.285   3.531  1.1093 -1.2798 -0.2954
  104MOL0     H13719   0.834   6.204   3.659 -2.1461  0.7834  1.1917
  104MOL0     H13720   0.875   6.510   3.617  1.2252  2.6775  3.5231
  104MOL0     H13721   0.756   6.448   3.734 -1.2566 -1.4630 -1.2957
  104MOL0     H13722   0.920   6.346   3.869  0.8836 -0.0372 -0.1315
  104MOL0     H13723   0.972   6.509   3.846  1.1608 -0.7281  0.5041
  104MOL0     H13724   1.095   6.281   3.699  1.1165  0.0979 -1.2482
  104MOL0     H13725   1.127   6.446   3.649 -1.6125  2.1027  1.5719
  104MOL0     H13726   1.330   6.462   4.017 -0.3239  2.9519 -2.3453
  104MOL0     H13727   0.475   6.340   3.438 -3.6004 -0.7648 -0.9321
  104MOL0     H13728   0.269   6.240   3.522  0.1055 -2.5003  0.6466
  105MOL0     O13729   1.351   2.623   6.627 -0.7885  0.0036 -0.6430
  105MOL0     C13730   1.307   2.535   6.701  0.0259  0.1772 -0.1935
  105MOL0     O13731   1.179   2.528   6.741  0.2136 -0.6130  0.8121
  105MOL0     C13732   1.082   2.618   6.729  1.0299 -0.0014 -0.4101
  105MOL0     C13733   0.950   2.591   6.779 -0.0386  0.5827  0.5809
  105MOL0     C13734   0.849   2.670   6.760 -0.1420  0.4602  0.1209
  105MOL0     C13735   0.868   2.791   6.693  0.6685 -0.2542  0.2795
  105MOL0     O13736   0.764   2.881   6.681  0.5074 -0.2050 -0.9410
  105MOL0     C13737   0.630   2.821   6.668  0.7578  0.6404 -0.6976
  105MOL0     C13738   0.524   2.927   6.651  0.1754 -0.7131  0.4076
  105MOL0     C13739   0.536   2.994   6.516  0.2356 -1.1526  0.4333
  105MOL0     C13740   0.456   2.920   6.399 -0.6794 -0.3852  0.0764
  105MOL0     C13741   0.304   2.903   6.424 -0.2059 -0.0531 -0.1732
  105MOL0     C13742   0.226   3.034   6.446 -0.2371  0.2346 -0.6832
  105MOL0     C13743   0.087   3.001   6.484 -0.4557  0.6446  0.4995
  105MOL0     C13744   0.008   3.124   6.536 -0.1476  0.3940 -0.4351
  105MOL0     N13745  -0.066   3.211   6.440  0.4585 -0.5793 -0.0056
  105MOL0     C13746  -0.170   3.180   6.355 -0.5585  0.2779  0.1619
  105MOL0     C13747  -0.203   3.288   6.296  0.1461 -0.3120  0.1774
  105MOL0     C13748  -0.311   3.297   6.188  0.6198  0.2268  0.4195
  105MOL0     C13749  -0.443   3.231   6.235 -0.1853 -0.1342 -0.3322
  105MOL0     C13750  -0.549   3.228   6.125 -0.4111 -0.3009  0.3029
  105MOL0     C13751  -0.687   3.221   6.189  0.2559 -0.3062  0.6913
  105MOL0     O13752  -0.785   3.256   6.090  0.2604  0.3226 -0.0441
  105MOL0     C13753  -0.914   3.266   6.133 -0.8671 -0.2790  0.2679
  105MOL0     C13754  -1.004   3.285   6.026  0.1464 -0.3577  0.5172
  105MOL0     C13755  -1.141   3.280   6.058  0.1416 -0.6073  0.1520
  105MOL0     C13756  -1.196   3.269   6.188 -0.2210  0.3336  0.4739
  105MOL0     C13757  -1.344   3.260   6.216  0.6056 -0.0432 -0.4226
  105MOL0     O13758  -1.434   3.266   6.110 -0.3102  0.6413  0.1584
  105MOL0     C13759  -1.565   3.283   6.141 -0.1366  0.2936  0.5065
  105MOL0     C13760  -1.649   3.203   6.069 -0.6417 -0.2812  0.3255
  105MOL0     C13761  -1.792   3.212   6.088  0.9520  0.0428  0.8275
  105MOL0     C13762  -1.848   3.311   6.167  0.1372 -0.9347 -0.3131
  105MOL0     O13763  -1.979   3.328   6.189  0.3833 -0.0598  0.7912
  105MOL0     C13764  -2.076   3.249   6.107 -0.5707  0.0251 -0.3267
  105MOL0     C13765  -2.119   3.115   6.170 -0.3925 -0.8110  0.2002
  105MOL0     C13766  -2.271   3.090   6.165 -0.2496  0.5454  0.0195
  105MOL0     C13767  -2.325   3.088   6.021 -0.4110 -0.0551  0.2621
  105MOL0     C13768  -2.479   3.088   5.998  0.6991  0.0982 -0.3587
  105MOL0     C13769  -2.561   2.972   6.069 -0.1245  1.0117  0.0495
  105MOL0     C13770  -2.507   2.839   6.017  0.0457  1.0481 -0.0284
  105MOL0     C13771  -2.570   2.715   6.077 -0.8010  0.6098 -0.5299
  105MOL0    Cl13772  -2.485   2.679   6.232 -0.1462 -0.0089  0.2730
  105MOL0     C13773  -1.757   3.397   6.241 -1.0560 -0.3539 -0.2121
  105MOL0     C13774  -1.615   3.372   6.231 -0.2759 -1.3942 -0.5847
  105MOL0     O13775  -1.371   3.227   6.331  0.1303  0.2485 -0.8423
  105MOL0     C13776  -1.099   3.250   6.290 -0.5028  0.1814 -0.4826
  105MOL0     C13777  -0.960   3.252   6.265  0.3696 -0.1075  0.0744
  105MOL0     N13778  -0.127   3.390   6.340 -0.0041  0.2463 -0.4695
  105MOL0     N13779  -0.045   3.341   6.424 -0.2114 -0.3250 -0.3041
  105MOL0     C13780   0.990   2.830   6.640 -0.0494 -0.2985  0.7998
  105MOL0     C13781   1.097   2.745   6.670 -0.3170  0.6320  0.0801
  105MOL0     C13782   1.408   2.423   6.728  0.7630 -0.0145  0.6891
  105MOL0     C13783   1.372   2.308   6.798  0.1587 -0.6705 -0.7115
  105MOL0     C13784   1.469   2.216   6.841  0.2885  0.3269 -0.4639
  105MOL0     C13785   1.606   2.231   6.818  0.0050  0.3758 -0.5229
  105MOL0     O13786   1.695   2.142   6.878 -0.3175  0.2753 -0.5388
  105MOL0     C13787   1.839   2.152   6.869 -0.3924  0.2158  0.4671
  105MOL0     C13788   1.902   2.025   6.931 -0.9746 -0.2265  0.3787
  105MOL0     C13789   2.057   2.028   6.937 -0.0066 -0.6122  0.1122
  105MOL0     C13790   2.111   1.890   6.982  0.2146 -0.5834  0.4976
  105MOL0     C13791   2.257   1.889   6.969 -0.3634 -0.2380 -1.3971
  105MOL0     C13792   2.371   1.930   6.968 -0.5536 -0.2012 -0.2655
  105MOL0     C13793   1.646   2.343   6.739 -0.0439  0.9287 -0.5035
  105MOL0     C13794   1.544   2.432   6.691 -0.5825 -0.2149 -0.3066
  105MOL0     H13795   0.939   2.495   6.828  0.4450  0.3908  0.3131
  105MOL0     H13796   0.755   2.644   6.807  1.7886 -3.0342  2.5795
  105MOL0     H13797   0.596   2.772   6.760  1.8442 -1.4089 -1.3172
  105MOL0     H13798   0.628   2.744   6.590  0.7282 -1.2760  1.0921
  105MOL0     H13799   0.523   3.000   6.732  0.4854  0.3898 -0.5648
  105MOL0     H13800   0.425   2.883   6.665  0.4680 -1.4063  0.3667
  105MOL0     H13801   0.638   3.029   6.495  0.0512  0.9925  2.7102
  105MOL0     H13802   0.478   3.083   6.541  1.0285 -1.3763  3.3886
  105MOL0     H13803   0.475   2.978   6.308 -1.1718 -1.8648 -1.0001
  105MOL0     H13804   0.499   2.819   6.394 -0.3552 -0.3819  2.1675
  105MOL0     H13805   0.278   2.839   6.509 -1.1983 -1.0535 -1.2048
  105MOL0     H13806   0.268   2.845   6.339  0.5695 -1.6749  0.5561
  105MOL0     H13807   0.243   3.095   6.357 -0.6092 -0.5714 -1.3226
  105MOL0     H13808   0.261   3.084   6.536  1.5191 -2.1475  0.0632
  105MOL0     H13809   0.045   2.982   6.385  0.0344  3.1370 -0.2756
  105MOL0     H13810   0.084   2.917   6.554  2.9585  0.0219  0.0725
  105MOL0     H13811   0.072   3.188   6.597  0.1093  0.4079 -0.7131
  105MOL0     H13812  -0.075   3.083   6.594 -1.5514  1.6418 -1.4747
  105MOL0     H13813  -0.208   3.080   6.337 -0.0592  0.4068 -1.7241
  105MOL0     H13814  -0.269   3.256   6.096  2.6155 -0.1831  1.4557
  105MOL0     H13815  -0.324   3.401   6.155  0.1661 -0.2008 -0.7784
  105MOL0     H13816  -0.475   3.276   6.329 -0.8276 -2.4001  0.5996
  105MOL0     H13817  -0.420   3.126   6.257  1.3087  0.4135  0.9234
  105MOL0     H13818  -0.553   3.322   6.068  0.0625 -0.0078  0.7497
  105MOL0     H13819  -0.529   3.149   6.053 -0.6328  0.7980 -1.0106
  105MOL0     H13820  -0.679   3.290   6.274  3.7835  0.2437  0.0912
  105MOL0     H13821  -0.704   3.119   6.224  1.2172 -0.4898  0.6377
  105MOL0     H13822  -0.952   3.290   5.931  0.3860  1.1512  0.6961
  105MOL0     H13823  -1.209   3.298   5.975 -1.1584 -0.8471  1.1490
  105MOL0     H13824  -1.594   3.134   6.006  1.5123 -0.0112  1.8025
  105MOL0     H13825  -1.839   3.134   6.028  1.8372 -1.3478  1.8776
  105MOL0     H13826  -2.047   3.234   6.003 -1.4784  3.3537 -1.1908
  105MOL0     H13827  -2.167   3.308   6.105 -0.7710 -0.3139 -1.6813
  105MOL0     H13828  -2.085   3.120   6.274  1.7973  0.9152 -0.5173
  105MOL0     H13829  -2.058   3.036   6.126  2.4361  1.7612 -0.8954
  105MOL0     H13830  -2.327   3.169   6.217 -0.7091 -0.5194  1.1825
  105MOL0     H13831  -2.298   2.993   6.206  0.0376 -0.0875 -1.2234
  105MOL0     H13832  -2.287   3.176   5.969  2.9580 -0.1818  2.2098
  105MOL0     H13833  -2.282   3.002   5.968  3.4312  0.4914  2.1410
  105MOL0     H13834  -2.510   3.087   5.893 -2.8396  0.3296  0.5662
  105MOL0     H13835  -2.513   3.181   6.045  1.2822 -0.4566  1.2165
  105MOL0     H13836  -2.669   2.981   6.052  0.1671  2.7908 -1.1755
  105MOL0     H13837  -2.561   2.993   6.177  0.4447  3.1724 -0.3126
  105MOL0     H13838  -2.520   2.846   5.909  0.3073  1.1581 -0.0536
  105MOL0     H13839  -2.401   2.836   6.044  0.0684 -0.2373 -0.2116
  105MOL0     H13840  -2.564   2.629   6.009 -0.3085  1.5745 -1.7387
  105MOL0     H13841  -2.677   2.719   6.100 -0.3683  1.5598  1.5047
  105MOL0     H13842  -1.801   3.471   6.306 -0.8519  0.5916 -1.1217
  105MOL0     H13843  -1.542   3.428   6.289 -1.1229 -0.4045 -0.4353
  105MOL0     H13844  -1.134   3.244   6.393 -0.3306 -0.8210 -0.4694
  105MOL0     H13845  -0.888   3.234   6.345  1.3665 -2.2249 -1.1938
  105MOL0     H13846   1.001   2.925   6.590 -0.9592 -0.6297 -0.0671
  105MOL0     H13847   1.193   2.783   6.635  0.1692  1.3746  2.0774
  105MOL0     H13848   1.268   2.300   6.827 -0.1265  2.1580 -0.6104
  105MOL0     H13849   1.436   2.136   6.906  0.7918  0.0343 -0.5636
  105MOL0     H13850   1.875   2.238   6.927 -3.2121  0.2328  2.3908
  105MOL0     H13851   1.878   2.151   6.767  1.7772 -4.3473  1.0792
  105MOL0     H13852   1.859   2.017   7.031  0.8607 -1.3312  1.1412
  105MOL0     H13853   1.874   1.937   6.872  0.2252 -0.1024 -0.4192
  105MOL0     H13854   2.080   2.108   7.007  2.3156  0.8859 -2.1694
  105MOL0     H13855   2.099   2.060   6.841  0.8197 -0.2762  0.5781
  105MOL0     H13856   2.086   1.869   7.086  1.2553 -2.4818  0.4094
  105MOL0     H13857   2.075   1.824   6.902  0.7351 -1.2830  0.8285
  105MOL0     H13858   2.475   1.954   6.976 -0.3290 -0.9197 -0.9293
  105MOL0     H13859   1.753   2.348   6.721  0.0037  0.6783 -0.2904
  105MOL0     H13860   1.575   2.521   6.637  0.7732 -2.1034 -2.8551
  106MOL0     O13861   4.334   3.301  10.823 -0.8425  0.4154 -0.4084
  106MOL0     C13862   4.359   3.401  10.894 -0.1728  0.2917 -0.5241
  106MOL0     O13863   4.262   3.485  10.936  0.3301  0.1828  0.1147
  106MOL0     C13864   4.142   3.483  10.879 -0.1839 -1.0942 -0.1099
  106MOL0     C13865   4.115   3.568  10.770 -0.2756 -0.1829 -0.1028
  106MOL0     C13866   3.991   3.580  10.713 -0.2052  0.0495  0.0052
  106MOL0     C13867   3.880   3.521  10.774  0.2395  0.2955  0.0703
  106MOL0     O13868   3.755   3.536  10.720 -0.9849 -0.0841  0.2624
  106MOL0     C13869   3.718   3.423  10.656  0.4996  0.3613  0.2496
  106MOL0     C13870   3.642   3.445  10.525 -0.6550  0.1667 -0.5577
  106MOL0     C13871   3.590   3.317  10.460  0.3380  0.3238  0.0454
  106MOL0     C13872   3.447   3.279  10.505 -0.3403 -0.4694 -0.6644
  106MOL0     C13873   3.412   3.151  10.435 -0.8096 -0.5317 -0.3564
  106MOL0     C13874   3.277   3.109  10.489  0.1338 -1.2484 -1.0382
  106MOL0     C13875   3.185   3.047  10.392 -0.2659  0.9905 -0.5570
  106MOL0     C13876   3.115   3.130  10.284 -0.1233  0.3586 -0.8337
  106MOL0     N13877   3.020   3.215  10.351  0.5544 -0.5212 -0.2234
  106MOL0     C13878   2.904   3.178  10.423  0.6451 -0.0067  0.4893
  106MOL0     C13879   2.832   3.293  10.426  0.6733 -0.0695  0.2570
  106MOL0     C13880   2.704   3.338  10.483 -0.5170  0.7547  0.1344
  106MOL0     C13881   2.608   3.216  10.513  0.2939  0.4752 -0.0748
  106MOL0     C13882   2.479   3.270  10.574 -0.3412 -0.2310  0.0580
  106MOL0     C13883   2.356   3.182  10.576 -0.7858 -0.3715 -0.3813
  106MOL0     O13884   2.243   3.238  10.640 -0.0639 -0.8047  0.0677
  106MOL0     C13885   2.121   3.157  10.631 -0.0612 -0.7861 -0.6477
  106MOL0     C13886   2.014   3.205  10.708  0.1028  0.1658  0.6997
  106MOL0     C13887   1.887   3.149  10.685 -0.2032 -0.5863 -0.0186
  106MOL0     C13888   1.870   3.041  10.595  0.8756  0.1922  0.0990
  106MOL0     C13889   1.735   2.996  10.567  0.4664  0.1578  1.2463
  106MOL0     O13890   1.632   3.043  10.646  0.5326 -0.0161  0.5812
  106MOL0     C13891   1.500   3.040  10.610 -0.3042  0.5772  1.0451
  106MOL0     C13892   1.410   2.972  10.694 -0.6339 -0.7391 -0.4528
  106MOL0     C13893   1.271   2.980  10.669  0.4751 -0.2600  0.4154
  106MOL0     C13894   1.225   3.041  10.554  0.0635 -0.0255  0.7616
  106MOL0     O13895   1.085   3.027  10.530  0.2124 -0.2213  0.0920
  106MOL0     C13896   1.020   3.138  10.466  0.0207  0.4603  0.0717
  106MOL0     C13897   0.869   3.148  10.513  0.4091 -0.4949 -0.5093
  106MOL0     C13898   0.771   3.040  10.472  0.5662 -0.0380  0.0633
  106MOL0     C13899   0.623   3.087  10.450  0.2203  0.2805 -0.1265
  106MOL0     C13900   0.523   2.969  10.425 -1.0675 -0.5576  0.0408
  106MOL0     C13901   0.470   2.898  10.555 -0.4121 -0.1708 -0.2754
  106MOL0     C13902   0.373   2.994  10.635  0.2051  0.3516 -0.2181
  106MOL0     C13903   0.361   2.947  10.781  0.4495 -0.3566  0.3335
  106MOL0    Cl13904   0.255   3.076  10.858  0.3099 -0.1395  0.3486
  106MOL0     C13905   1.318   3.095  10.472  0.0644  0.0017 -0.4029
  106MOL0     C13906   1.453   3.106  10.498  0.6889  0.8752 -0.7895
  106MOL0     O13907   1.719   2.926  10.463  0.3778 -0.1403 -0.8527
  106MOL0     C13908   1.975   2.985  10.534 -0.6023  0.7325 -0.2399
  106MOL0     C13909   2.104   3.040  10.556  0.4397  0.7996  0.4764
  106MOL0     N13910   2.906   3.397  10.377 -0.1990 -0.4464  0.5252
  106MOL0     N13911   3.008   3.346  10.310 -0.4612 -0.4832 -0.5809
  106MOL0     C13912   3.900   3.434  10.881  0.7234 -0.2567 -0.2561
  106MOL0     C13913   4.030   3.409  10.927  0.2458  0.4006 -0.8961
  106MOL0     C13914   4.497   3.447  10.904 -0.4915 -0.3296  0.1632
  106MOL0     C13915   4.524   3.569  10.967 -0.4696  0.0132  0.0278
  106MOL0     C13916   4.651   3.624  10.965  0.5245 -0.2261 -0.2493
  106MOL0     C13917   4.754   3.551  10.909 -0.9191 -0.9566  0.2360
  106MOL0     O13918   4.890   3.582  10.925 -0.1655  0.3811  0.0637
  106MOL0     C13919   4.929   3.649  11.050  0.4020  0.1444 -0.4677
  106MOL0     C13920   4.964   3.553  11.172  0.2591  0.0563  0.1227
  106MOL0     C13921   5.076   3.444  11.131  0.6243 -0.5681 -0.3048
  106MOL0     C13922   5.218   3.500  11.158  0.0949 -0.0476 -1.1260
  106MOL0     C13923   5.267   3.517  11.293 -0.1533  0.4792 -0.2720
  106MOL0     C13924   5.315   3.527  11.403 -0.1222  0.3174  0.6839
  106MOL0     C13925   4.732   3.425  10.851 -0.1486 -0.5743 -0.5321
  106MOL0     C13926   4.603   3.378  10.850 -0.4714 -0.3336  0.1911
  106MOL0     H13927   4.187   3.641  10.733 -1.2113  0.8890  0.1280
  106MOL0     H13928   3.980   3.640  10.623 -3.5739  0.6910  0.7165
  106MOL0     H13929   3.654   3.373  10.730  0.8574  1.9356  1.6729
  106MOL0     H13930   3.803   3.357  10.634  1.2257  1.6897 -1.0427
  106MOL0     H13931   3.717   3.484  10.456  0.1378 -2.1989 -1.1333
  106MOL0     H13932   3.560   3.516  10.540 -0.4263  0.3739 -0.2667
  106MOL0     H13933   3.653   3.230  10.478 -2.3223 -1.6291  0.6207
  106MOL0     H13934   3.577   3.346  10.355  0.5604  1.2283  0.2554
  106MOL0     H13935   3.454   3.263  10.613 -0.6493 -0.9721 -0.7158
  106MOL0     H13936   3.367   3.353  10.495  0.3455  0.6692  1.5417
  106MOL0     H13937   3.484   3.071  10.450  0.8980  1.1031  0.5762
  106MOL0     H13938   3.402   3.162  10.326 -0.3938 -0.1058 -0.3565
  106MOL0     H13939   3.223   3.198  10.523 -0.7000 -2.4667  1.0090
  106MOL0     H13940   3.282   3.051  10.582 -3.5374  1.3362  1.0315
  106MOL0     H13941   3.241   2.974  10.333 -0.4259  0.1293  0.3350
  106MOL0     H13942   3.111   2.988  10.447  0.9793 -1.1990 -1.1218
  106MOL0     H13943   3.068   3.054  10.222  0.5043  0.6361 -1.6758
  106MOL0     H13944   3.190   3.180  10.222  1.6215 -0.3615  0.5907
  106MOL0     H13945   2.867   3.087  10.471 -0.9447  0.2992 -0.0720
  106MOL0     H13946   2.666   3.412  10.412  1.1884  1.0742 -0.4947
  106MOL0     H13947   2.717   3.384  10.582 -2.1375 -2.0644  1.7832
  106MOL0     H13948   2.659   3.145  10.580  1.5800  0.4240 -1.0655
  106MOL0     H13949   2.585   3.151  10.428  1.9428 -1.4386  0.8378
  106MOL0     H13950   2.498   3.313  10.672  0.0613 -0.9555  0.3005
  106MOL0     H13951   2.462   3.364  10.519 -1.9804 -0.2284  0.5053
  106MOL0     H13952   2.380   3.084  10.617  0.8730 -0.8205 -2.2906
  106MOL0     H13953   2.326   3.155  10.474  0.9677  0.3669 -1.1330
  106MOL0     H13954   2.012   3.289  10.777  0.1169 -0.4421  1.4500
  106MOL0     H13955   1.789   3.180  10.722 -2.2141 -2.9380 -2.8352
  106MOL0     H13956   1.449   2.927  10.785 -0.7104  1.0519  0.5311
  106MOL0     H13957   1.201   2.940  10.742  0.0256 -1.0526 -0.4315
  106MOL0     H13958   1.033   3.147  10.358 -1.1249 -1.3943 -0.2696
  106MOL0     H13959   1.067   3.230  10.501  2.3918 -0.1978 -1.1412
  106MOL0     H13960   0.832   3.240  10.467  1.6272  0.5548  0.5605
  106MOL0     H13961   0.861   3.168  10.620 -0.4809 -1.4814 -0.3704
  106MOL0     H13962   0.787   2.969  10.554 -2.5903 -0.8150  0.1487
  106MOL0     H13963   0.810   2.983  10.387  0.6274  1.1478 -0.7199
  106MOL0     H13964   0.592   3.148  10.536  0.9276 -1.1114  1.1379
  106MOL0     H13965   0.625   3.138  10.353 -0.3004  0.6163  0.0343
  106MOL0     H13966   0.576   2.904  10.355 -2.2608 -0.1133 -1.3253
  106MOL0     H13967   0.431   3.004  10.378  0.5427  1.6194 -1.6885
  106MOL0     H13968   0.549   2.858  10.618 -0.6868 -1.5888 -0.8060
  106MOL0     H13969   0.415   2.808  10.526  0.0782 -1.3256  2.1699
  106MOL0     H13970   0.406   3.097  10.622  2.2852 -0.2673 -0.2623
  106MOL0     H13971   0.271   2.990  10.596 -0.2224 -0.2348  0.9064
  106MOL0     H13972   0.458   2.947  10.832  0.7469  1.2291 -0.1610
  106MOL0     H13973   0.321   2.845  10.783  0.9604 -0.5855 -0.5214
  106MOL0     H13974   1.281   3.134  10.378 -0.9474 -0.7916 -0.3528
  106MOL0     H13975   1.510   3.163  10.425  1.5481 -1.8084 -2.3627
  106MOL0     H13976   1.973   2.905  10.461  1.6156  1.2456 -0.9422
  106MOL0     H13977   2.176   3.005  10.482  0.2766 -0.0499  0.7043
  106MOL0     H13978   3.815   3.376  10.914  1.7562 -2.7960 -1.7857
  106MOL0     H13979   4.042   3.337  11.007 -2.4256  0.2355 -0.5791
  106MOL0     H13980   4.437   3.611  11.016  0.2349 -2.0443  3.4106
  106MOL0     H13981   4.668   3.725  11.001  0.6242 -0.6871  1.0166
  106MOL0     H13982   4.855   3.720  11.087 -0.0552 -1.9642  3.0842
  106MOL0     H13983   5.024   3.694  11.019  1.5548 -1.1148  1.0631
  106MOL0     H13984   5.006   3.604  11.260  0.4736  1.6919 -0.8961
  106MOL0     H13985   4.869   3.517  11.212  0.9776 -0.9686  0.9941
  106MOL0     H13986   5.062   3.426  11.024 -0.7764 -2.4567  0.1424
  106MOL0     H13987   5.064   3.347  11.179  0.1038 -2.3161 -3.7034
  106MOL0     H13988   5.282   3.431  11.100 -0.0055 -1.5735  0.4955
  106MOL0     H13989   5.225   3.599  11.113 -1.5276  0.7048  0.2163
  106MOL0     H13990   5.359   3.550  11.498 -0.3721 -2.5556  1.5737
  106MOL0     H13991   4.822   3.370  10.826  0.4385 -1.2379  2.5445
  106MOL0     H13992   4.579   3.280  10.808  0.7134 -0.4614 -0.2135
  107MOL0     O13993   3.947   4.935   3.019  0.4486 -0.1610 -0.6426
  107MOL0     C13994   3.939   4.921   2.898 -0.4662  0.9300  0.4840
  107MOL0     O13995   3.829   4.894   2.823  0.5401  0.8358  0.1900
  107MOL0     C13996   3.707   4.901   2.883 -0.3737 -1.1241 -0.3394
  107MOL0     C13997   3.661   5.024   2.949  0.0111  0.1040  0.7156
  107MOL0     C13998   3.528   5.028   3.005 -0.6884  0.0398  0.2224
  107MOL0     C13999   3.458   4.908   3.018  0.0889  0.0780 -0.7754
  107MOL0     O14000   3.336   4.921   3.082 -0.0258  0.6961 -0.0761
  107MOL0     C14001   3.223   4.857   3.023 -0.2679  0.1272 -0.1619
  107MOL0     C14002   3.088   4.889   3.086  0.6890 -0.0151  0.2634
  107MOL0     C14003   2.970   4.831   2.999  0.2924 -0.4087 -0.7267
  107MOL0     C14004   2.963   4.680   3.009 -0.0138 -0.8680  0.0947
  107MOL0     C14005   2.888   4.626   2.885  0.8910  0.8257  0.5301
  107MOL0     C14006   2.753   4.685   2.868  0.0860  0.4706  0.8349
  107MOL0     C14007   2.676   4.622   2.743  0.8343  0.8474 -0.5051
  107MOL0     C14008   2.529   4.656   2.757  0.7436 -0.0251 -0.2084
  107MOL0     N14009   2.439   4.630   2.641  0.3310  0.2051 -0.5841
  107MOL0     C14010   2.454   4.537   2.545 -0.1098  0.2154 -0.1330
  107MOL0     C14011   2.367   4.572   2.449  0.1444 -0.0236  0.7739
  107MOL0     C14012   2.346   4.511   2.315 -0.5555  0.0363  0.0266
  107MOL0     C14013   2.453   4.555   2.212 -0.0662  0.4903 -0.0229
  107MOL0     C14014   2.559   4.648   2.264  0.6023 -0.6749 -0.1154
  107MOL0     C14015   2.651   4.675   2.147 -0.2276 -0.2492  0.0683
  107MOL0     O14016   2.768   4.732   2.198  0.1184  0.0369  0.2254
  107MOL0     C14017   2.888   4.683   2.143  0.0337 -0.0277  0.6282
  107MOL0     C14018   2.980   4.776   2.174 -0.3293 -0.2821  0.8099
  107MOL0     C14019   3.112   4.753   2.131 -0.5846  0.0060 -0.6407
  107MOL0     C14020   3.150   4.628   2.088  0.1705 -0.3344  1.0008
  107MOL0     C14021   3.290   4.602   2.042 -0.3931  0.5198  0.3078
  107MOL0     O14022   3.385   4.707   2.054 -0.0594  0.2011  0.6273
  107MOL0     C14023   3.515   4.698   2.019 -1.0176 -0.1320  0.6058
  107MOL0     C14024   3.579   4.587   1.961  0.8074  0.3332  0.1798
  107MOL0     C14025   3.724   4.579   1.935  0.6837 -0.9473 -0.6989
  107MOL0     C14026   3.802   4.685   1.969 -0.3982  0.0377 -0.7027
  107MOL0     O14027   3.941   4.660   1.959  0.0426 -0.9795  0.6451
  107MOL0     C14028   4.042   4.743   2.016  0.3037  0.5046 -0.0476
  107MOL0     C14029   4.173   4.680   1.968 -0.4205  0.6988  0.4294
  107MOL0     C14030   4.292   4.762   1.980 -0.8539 -0.3616 -0.0871
  107MOL0     C14031   4.345   4.772   2.125  0.5852 -0.6099  0.4332
  107MOL0     C14032   4.448   4.887   2.155 -0.0185 -0.2339  0.2254
  107MOL0     C14033   4.577   4.890   2.074 -0.4283 -0.4946 -0.0334
  107MOL0     C14034   4.670   4.765   2.073  0.3508  0.1772 -0.3355
  107MOL0     C14035   4.762   4.739   1.963  0.5122  0.0425 -0.3322
  107MOL0    Cl14036   4.658   4.686   1.821 -0.0816  0.0669  0.1322
  107MOL0     C14037   3.748   4.797   2.028  0.0274 -0.6131 -0.3319
  107MOL0     C14038   3.603   4.805   2.048  0.3661 -0.4880  0.0053
  107MOL0     O14039   3.298   4.499   1.981 -0.3273  0.1300 -0.9832
  107MOL0     C14040   3.053   4.529   2.058 -0.1246 -0.6532  0.4520
  107MOL0     C14041   2.920   4.562   2.083 -0.4572  0.6106 -0.2168
  107MOL0     N14042   2.289   4.677   2.502 -0.2103 -0.1742  0.0129
  107MOL0     N14043   2.338   4.721   2.611  0.4999 -0.5553  0.3528
  107MOL0     C14044   3.501   4.792   2.944  0.2943 -0.6050  0.4152
  107MOL0     C14045   3.621   4.797   2.872 -0.1445  1.1280 -0.0481
  107MOL0     C14046   4.064   4.916   2.823  0.1572 -0.4101 -0.0633
  107MOL0     C14047   4.075   4.950   2.688  0.2581  0.6888 -0.9140
  107MOL0     C14048   4.199   4.944   2.625  0.6541  0.1889  0.3305
  107MOL0     C14049   4.324   4.922   2.694  0.5443 -0.2147  0.9985
  107MOL0     O14050   4.442   4.909   2.624  0.1902  0.0392  0.2023
  107MOL0     C14051   4.562   4.891   2.702 -0.0040  1.5212  0.3009
  107MOL0     C14052   4.695   4.901   2.623  0.2645  0.5270  1.5530
  107MOL0     C14053   4.694   4.801   2.499  0.1591 -0.6823  0.8682
  107MOL0     C14054   4.691   4.655   2.542 -0.6881 -0.3839  0.4695
  107MOL0     C14055   4.807   4.611   2.617  0.0706  0.3549 -0.7056
  107MOL0     C14056   4.909   4.590   2.674 -0.3673  0.1997 -1.3057
  107MOL0     C14057   4.309   4.897   2.826  0.1151 -0.2632 -0.2885
  107MOL0     C14058   4.183   4.890   2.888 -0.1161 -0.1531  1.0677
  107MOL0     H14059   3.724   5.112   2.959  1.3921 -0.7471 -0.2946
  107MOL0     H14060   3.485   5.115   3.054 -1.9798  0.6666 -1.8886
  107MOL0     H14061   3.236   4.749   3.035  2.6008  0.3177 -0.8327
  107MOL0     H14062   3.226   4.887   2.918 -3.1990  2.1183  0.2211
  107MOL0     H14063   3.081   4.998   3.091  0.4967  0.1591 -2.4789
  107MOL0     H14064   3.086   4.850   3.189  0.2761  0.1802  0.3302
  107MOL0     H14065   2.996   4.873   2.901  2.9184  0.2647  0.1768
  107MOL0     H14066   2.871   4.865   3.031  0.7770 -1.3478  2.0393
  107MOL0     H14067   3.064   4.639   2.996  1.3215  2.5434 -1.6607
  107MOL0     H14068   2.929   4.653   3.109  1.1699  1.1605  1.1276
  107MOL0     H14069   2.877   4.518   2.900  0.4055  1.1108  2.5360
  107MOL0     H14070   2.941   4.631   2.789 -2.7184 -0.5307 -1.7734
  107MOL0     H14071   2.763   4.793   2.853 -1.0100  0.3291 -1.3690
  107MOL0     H14072   2.688   4.653   2.950 -1.6208 -1.0073 -0.9754
  107MOL0     H14073   2.720   4.667   2.654  1.5713  1.6112  0.2226
  107MOL0     H14074   2.682   4.513   2.745 -1.5873  0.6638  1.8598
  107MOL0     H14075   2.524   4.762   2.785  3.4880  0.2952 -0.6399
  107MOL0     H14076   2.485   4.598   2.838 -1.3562 -1.1696 -2.0380
  107MOL0     H14077   2.525   4.454   2.547  0.5611  0.7828  1.4898
  107MOL0     H14078   2.246   4.515   2.271 -0.1922 -1.2626 -0.9919
  107MOL0     H14079   2.358   4.403   2.329  0.2841 -0.0157 -1.0001
  107MOL0     H14080   2.397   4.592   2.125  0.6070 -0.2862 -0.8117
  107MOL0     H14081   2.502   4.469   2.164  0.4222  0.3297  0.7518
  107MOL0     H14082   2.515   4.742   2.296  1.5993 -0.6213  1.1930
  107MOL0     H14083   2.603   4.616   2.359 -3.2305  1.2269  2.5547
  107MOL0     H14084   2.601   4.749   2.082 -0.3339 -0.9458 -0.6543
  107MOL0     H14085   2.668   4.585   2.087  0.7880 -0.6310  0.9038
  107MOL0     H14086   2.968   4.876   2.214  0.8649 -0.1212  0.8095
  107MOL0     H14087   3.197   4.819   2.146 -0.6212 -0.3166  1.3612
  107MOL0     H14088   3.525   4.501   1.923 -0.3551  1.5563 -1.0730
  107MOL0     H14089   3.765   4.484   1.903  2.0967 -0.5321 -0.1859
  107MOL0     H14090   4.047   4.749   2.126 -1.1908 -2.4353  0.2809
  107MOL0     H14091   4.020   4.839   1.968 -1.1474  0.5247  0.6188
  107MOL0     H14092   4.156   4.663   1.861  0.4214  2.3631 -0.0084
  107MOL0     H14093   4.193   4.588   2.022 -0.4249  1.2774  1.4326
  107MOL0     H14094   4.264   4.863   1.948  0.8060  0.2061  0.1871
  107MOL0     H14095   4.381   4.721   1.931 -1.3073  0.0160 -1.2730
  107MOL0     H14096   4.267   4.790   2.199 -0.6631 -2.8147 -0.2509
  107MOL0     H14097   4.396   4.679   2.150  1.2406 -0.8049 -1.4414
  107MOL0     H14098   4.479   4.885   2.260 -1.1473  1.0150  0.6141
  107MOL0     H14099   4.393   4.981   2.146 -0.7204 -0.6880 -0.3244
  107MOL0     H14100   4.631   4.979   2.107 -1.7064  0.6500 -0.9190
  107MOL0     H14101   4.540   4.912   1.973  0.0879 -0.6620 -0.2676
  107MOL0     H14102   4.721   4.757   2.169 -0.7436 -0.1895  0.2334
  107MOL0     H14103   4.594   4.686   2.074 -1.4461  1.7176  3.3570
  107MOL0     H14104   4.828   4.654   1.981  0.3122 -0.5824 -2.2511
  107MOL0     H14105   4.830   4.820   1.934 -1.0329  1.3296 -0.5058
  107MOL0     H14106   3.805   4.882   2.065 -1.6775  0.7684 -0.7186
  107MOL0     H14107   3.559   4.896   2.089  2.9383  0.7524  0.2098
  107MOL0     H14108   3.089   4.429   2.036  1.3199 -0.2397  0.8379
  107MOL0     H14109   2.853   4.478   2.065 -0.6398  0.6059  0.4634
  107MOL0     H14110   3.438   4.704   2.935 -0.4018 -0.0011 -0.8099
  107MOL0     H14111   3.663   4.712   2.818 -0.1159  1.3880 -0.4350
  107MOL0     H14112   3.983   4.978   2.638 -0.4219  0.4591  0.1567
  107MOL0     H14113   4.204   4.948   2.516 -0.7293 -2.9839  0.0110
  107MOL0     H14114   4.554   4.790   2.745 -2.4777  0.8785 -1.4320
  107MOL0     H14115   4.583   4.971   2.773  0.5041  1.2862  0.4251
  107MOL0     H14116   4.709   5.001   2.580  2.3640 -0.5147 -0.4434
  107MOL0     H14117   4.789   4.896   2.679  2.5731  3.3974 -1.6073
  107MOL0     H14118   4.781   4.822   2.437  0.5662 -1.6879  1.0745
  107MOL0     H14119   4.606   4.807   2.434 -0.4378 -0.6265  1.6588
  107MOL0     H14120   4.598   4.634   2.595 -1.3285 -0.9613 -0.8350
  107MOL0     H14121   4.689   4.595   2.450 -3.7165 -0.6542  0.6064
  107MOL0     H14122   5.003   4.571   2.721 -1.9362  0.2354  2.0888
  107MOL0     H14123   4.391   4.861   2.887  1.3920 -0.0445 -1.8016
  107MOL0     H14124   4.181   4.879   2.996 -0.1060  3.5343  1.5813
  108MOL0     O14125   3.203   0.391   6.854  0.4477 -0.5877 -0.2894
  108MOL0     C14126   3.278   0.386   6.758  0.5425 -0.0302  0.0034
  108MOL0     O14127   3.249   0.437   6.631  0.3156  0.1310 -0.0030
  108MOL0     C14128   3.124   0.452   6.573 -0.2354 -0.0271  0.0388
  108MOL0     C14129   3.135   0.526   6.453 -0.0997  0.2693 -0.4142
  108MOL0     C14130   3.027   0.545   6.375 -0.1966  0.1189 -0.2307
  108MOL0     C14131   2.907   0.494   6.418  0.4356 -0.3474 -0.0480
  108MOL0     O14132   2.799   0.521   6.345  0.5485 -0.2068 -0.1323
  108MOL0     C14133   2.807   0.520   6.201 -0.1738 -0.2414  0.0004
  108MOL0     C14134   2.692   0.430   6.158  0.7143 -0.5346  0.5212
  108MOL0     C14135   2.675   0.426   6.007  0.7053 -0.5419  0.2084
  108MOL0     C14136   2.592   0.296   5.978  1.2225 -0.6688 -0.1898
  108MOL0     C14137   2.485   0.310   5.863  0.0547  0.1248 -0.9153
  108MOL0     C14138   2.387   0.197   5.858  0.1626 -0.6402  0.3423
  108MOL0     C14139   2.315   0.196   5.724  0.0674 -0.1302 -0.5165
  108MOL0     C14140   2.216   0.316   5.699 -0.3955  0.5304  0.7810
  108MOL0     N14141   2.140   0.362   5.812  0.0946 -0.2851 -0.5350
  108MOL0     C14142   2.046   0.282   5.879 -0.7334  0.5157  0.4100
  108MOL0     C14143   2.023   0.348   5.986 -0.1305 -0.4745  0.5459
  108MOL0     C14144   1.929   0.302   6.097  0.2775 -0.0906 -0.9031
  108MOL0     C14145   1.791   0.262   6.046  0.2385  0.1857 -0.3108
  108MOL0     C14146   1.693   0.270   6.168 -0.0381 -0.7706  0.4674
  108MOL0     C14147   1.545   0.273   6.144  0.1181  0.4441 -0.5503
  108MOL0     O14148   1.518   0.154   6.063 -0.1046 -0.4336 -0.2586
  108MOL0     C14149   1.388   0.153   6.016 -0.4204  0.4548 -0.0493
  108MOL0     C14150   1.320   0.029   6.027  0.7690 -0.2388 -0.7175
  108MOL0     C14151   1.195   0.017   5.977 -0.3771  0.7642  0.5965
  108MOL0     C14152   1.129   0.126   5.916  0.1563  0.1724  0.4799
  108MOL0     C14153   0.999   0.123   5.847  0.7589 -0.1808 -0.7806
  108MOL0     O14154   0.966  -0.002   5.791 -0.1689 -0.1826  0.0992
  108MOL0     C14155   0.845  -0.037   5.732 -0.1880 -1.1539  0.6218
  108MOL0     C14156   0.726   0.034   5.718  0.0327 -0.7415  0.1611
  108MOL0     C14157   0.610  -0.030   5.677 -0.6649  0.5505  0.7416
  108MOL0     C14158   0.621  -0.162   5.634 -0.2871 -0.1441  0.1353
  108MOL0     O14159   0.498  -0.214   5.583  0.7202  0.2479 -0.1198
  108MOL0     C14160   0.492  -0.345   5.520 -0.0081  0.3817  0.1091
  108MOL0     C14161   0.348  -0.397   5.490 -0.2524 -0.6069  0.2834
  108MOL0     C14162   0.266  -0.293   5.413 -0.2087 -0.0497 -0.7917
  108MOL0     C14163   0.119  -0.364   5.418  0.4604 -0.2668  0.6033
  108MOL0     C14164  -0.003  -0.289   5.364  0.7911  0.4869  0.0378
  108MOL0     C14165   0.029  -0.249   5.217 -0.6836 -0.6697 -0.6487
  108MOL0     C14166  -0.101  -0.181   5.168 -0.7635  0.3859 -0.2409
  108MOL0     C14167  -0.097  -0.135   5.026  0.4179 -0.5295  1.2664
  108MOL0    Cl14168  -0.259  -0.060   5.001  0.3562  0.2066 -0.1717
  108MOL0     C14169   0.741  -0.233   5.645 -0.3050 -0.6146 -0.6237
  108MOL0     C14170   0.852  -0.167   5.688 -0.1248  1.0203 -0.1381
  108MOL0     O14171   0.925   0.221   5.841  1.0405 -0.2887  0.0557
  108MOL0     C14172   1.201   0.245   5.889 -0.4026 -0.4625 -0.0522
  108MOL0     C14173   1.332   0.261   5.942 -0.9301  0.4252 -0.0240
  108MOL0     N14174   2.091   0.466   5.988 -0.4793 -0.3308  0.1512
  108MOL0     N14175   2.167   0.475   5.883 -0.3804 -0.6004 -0.1100
  108MOL0     C14176   2.894   0.425   6.537 -0.1165  0.6283 -0.3248
  108MOL0     C14177   3.003   0.400   6.618 -0.2168 -0.3963  0.7696
  108MOL0     C14178   3.420   0.354   6.785 -0.1300  0.0245  1.0966
  108MOL0     C14179   3.512   0.354   6.677  0.4911 -0.6287  0.1571
  108MOL0     C14180   3.643   0.315   6.696  0.7688  0.0913 -0.0093
  108MOL0     C14181   3.683   0.250   6.823 -0.0511  0.0151  0.0267
  108MOL0     O14182   3.804   0.189   6.851  0.6226  0.0946  0.4476
  108MOL0     C14183   3.899   0.183   6.743  0.0559  0.1956  0.1902
  108MOL0     C14184   4.042   0.142   6.781  0.0365  0.4028 -0.0547
  108MOL0     C14185   4.040   0.001   6.839  0.4455 -0.1238  1.4696
  108MOL0     C14186   4.180  -0.046   6.868  0.8311 -0.1895 -0.6791
  108MOL0     C14187   4.213  -0.041   7.015  0.7298 -0.3668  0.1767
  108MOL0     C14188   4.264  -0.040   7.125 -0.0994 -0.3290 -0.1644
  108MOL0     C14189   3.583   0.251   6.924 -0.4916 -0.0387  0.4281
  108MOL0     C14190   3.457   0.308   6.905  0.2362  1.0793 -0.1632
  108MOL0     H14191   3.231   0.573   6.431 -0.0943  1.4766  1.8716
  108MOL0     H14192   3.040   0.614   6.292  0.5103  0.7746  0.4126
  108MOL0     H14193   2.894   0.468   6.160  0.1661 -0.1377  0.5709
  108MOL0     H14194   2.792   0.619   6.158  1.2432 -0.8560 -2.0514
  108MOL0     H14195   2.603   0.479   6.199 -2.2722 -1.5188 -4.0825
  108MOL0     H14196   2.707   0.329   6.198 -4.3937 -2.2342 -1.0326
  108MOL0     H14197   2.776   0.413   5.967  0.1045 -2.0784 -0.8811
  108MOL0     H14198   2.633   0.521   5.972  1.0736 -0.5038 -0.1343
  108MOL0     H14199   2.653   0.205   5.978  1.1917 -0.7216  1.4979
  108MOL0     H14200   2.521   0.283   6.060  0.3461  4.2035  0.0943
  108MOL0     H14201   2.531   0.312   5.763 -3.4564  3.6213 -2.7622
  108MOL0     H14202   2.436   0.406   5.877 -0.1448  0.0424 -1.0531
  108MOL0     H14203   2.309   0.198   5.934 -3.2159  0.3075 -2.8363
  108MOL0     H14204   2.448   0.107   5.872  1.3634  0.0428 -0.3301
  108MOL0     H14205   2.395   0.200   5.649  0.3872 -0.4459 -0.2042
  108MOL0     H14206   2.256   0.104   5.714  0.5237 -0.6833  1.4155
  108MOL0     H14207   2.156   0.305   5.608 -0.4780 -1.5468  1.0361
  108MOL0     H14208   2.282   0.400   5.677  1.4246 -1.0599 -0.1452
  108MOL0     H14209   2.009   0.185   5.847  1.3176 -0.2292  0.1586
  108MOL0     H14210   1.924   0.386   6.167 -2.1368 -1.9089  1.3091
  108MOL0     H14211   1.968   0.220   6.158 -1.2917  1.7284  2.8722
  108MOL0     H14212   1.805   0.162   6.004  2.1343  0.7530 -1.1589
  108MOL0     H14213   1.754   0.328   5.967 -2.6261  0.8247  1.4116
  108MOL0     H14214   1.700   0.178   6.227 -0.2226 -0.9873  0.1547
  108MOL0     H14215   1.711   0.367   6.215  0.7815  0.4519 -2.1751
  108MOL0     H14216   1.502   0.369   6.117  0.7411  1.2862  1.2779
  108MOL0     H14217   1.510   0.249   6.245  0.0455 -0.5609 -0.8019
  108MOL0     H14218   1.371  -0.061   6.061  6.2505  2.4871 -0.6686
  108MOL0     H14219   1.149  -0.080   5.991  1.9955 -0.2820  1.5981
  108MOL0     H14220   0.728   0.140   5.742  3.4691 -1.2556  3.0542
  108MOL0     H14221   0.520   0.025   5.652 -0.1876  2.0002  2.0424
  108MOL0     H14222   0.539  -0.420   5.585  2.0110  1.4175 -0.0718
  108MOL0     H14223   0.557  -0.332   5.433 -0.2790  0.5175 -0.0750
  108MOL0     H14224   0.303  -0.417   5.588  0.1949  0.5114  0.7307
  108MOL0     H14225   0.368  -0.491   5.437  2.8748  0.7102 -1.1471
  108MOL0     H14226   0.298  -0.284   5.309 -4.0653  0.3319 -2.1186
  108MOL0     H14227   0.269  -0.199   5.468 -1.8440 -0.8830  0.8463
  108MOL0     H14228   0.122  -0.454   5.356 -0.2196  1.2746 -1.7485
  108MOL0     H14229   0.087  -0.400   5.516  0.1339  1.0195  0.9832
  108MOL0     H14230  -0.024  -0.207   5.434  0.3153 -0.4418  1.0311
  108MOL0     H14231  -0.094  -0.351   5.357  2.1537 -1.6853  0.5829
  108MOL0     H14232   0.063  -0.336   5.160  1.3084 -0.0749 -0.4608
  108MOL0     H14233   0.114  -0.180   5.211 -1.7594  1.1864  2.6691
  108MOL0     H14234  -0.177  -0.260   5.169  0.0782 -0.4755 -1.6768
  108MOL0     H14235  -0.129  -0.104   5.241 -1.5453  1.1872 -1.3589
  108MOL0     H14236  -0.084  -0.215   4.953 -1.4215  1.5270 -1.4948
  108MOL0     H14237  -0.011  -0.073   4.999 -2.1715  2.1548 -1.4615
  108MOL0     H14238   0.751  -0.336   5.613 -1.6968 -1.7940  2.2759
  108MOL0     H14239   0.949  -0.213   5.700 -0.5449  0.5680  1.8859
  108MOL0     H14240   1.158   0.327   5.833 -1.2599  0.6616  2.1141
  108MOL0     H14241   1.394   0.349   5.927 -1.1875  0.7128  0.5627
  108MOL0     H14242   2.798   0.380   6.564  0.4735 -0.1144  0.5904
  108MOL0     H14243   2.992   0.335   6.704  1.6745 -3.6428 -1.2105
  108MOL0     H14244   3.481   0.417   6.594  0.6003  1.2516  1.4782
  108MOL0     H14245   3.709   0.339   6.614 -0.5105  2.4334 -0.4412
  108MOL0     H14246   3.907   0.276   6.686  0.6171  0.2647  0.3701
  108MOL0     H14247   3.859   0.111   6.672  0.4870  0.2207 -0.0778
  108MOL0     H14248   4.104   0.148   6.691  1.8974  0.6451  1.2171
  108MOL0     H14249   4.073   0.212   6.859 -0.3056  1.3914 -0.7855
  108MOL0     H14250   3.994  -0.071   6.771  3.9684 -0.3752 -0.8846
  108MOL0     H14251   3.975   0.008   6.927 -0.0075 -0.6560  1.1798
  108MOL0     H14252   4.192  -0.148   6.831 -0.4908 -0.9072  0.7214
  108MOL0     H14253   4.252   0.008   6.806 -3.1183  3.9015 -2.2844
  108MOL0     H14254   4.296  -0.030   7.227 -1.2129  1.4704  0.0581
  108MOL0     H14255   3.616   0.215   7.021  1.0488  0.2486  0.0343
  108MOL0     H14256   3.392   0.280   6.987 -0.8285 -3.0352 -2.1430
  109MOL0     O14257   9.015   7.697   9.470  0.6537 -0.1445  0.4358
  109MOL0     C14258   9.039   7.729   9.354  0.4881  0.3299 -0.0912
  109MOL0     O14259   8.956   7.701   9.241 -0.4587  0.3346  0.4034
  109MOL0     C14260   8.821   7.666   9.252  0.1411 -0.3944 -1.0917
  109MOL0     C14261   8.771   7.578   9.157 -0.1252 -0.1762 -0.8491
  109MOL0     C14262   8.643   7.542   9.159  0.1854  1.2395  0.2090
  109MOL0     C14263   8.555   7.582   9.254  0.3331 -0.3275  0.4888
  109MOL0     O14264   8.422   7.545   9.281  0.0545 -0.5671 -0.2490
  109MOL0     C14265   8.354   7.450   9.200  0.4876  0.7071  0.3869
  109MOL0     C14266   8.200   7.440   9.234 -0.1719  0.3675 -0.1839
  109MOL0     C14267   8.105   7.453   9.121  0.3256 -0.2276 -0.5708
  109MOL0     C14268   7.957   7.469   9.174  0.1804 -0.6158  0.1735
  109MOL0     C14269   7.861   7.441   9.053 -0.0947 -0.2794  0.1909
  109MOL0     C14270   7.717   7.420   9.101 -0.2670 -0.3519  0.4578
  109MOL0     C14271   7.625   7.382   8.989  0.4292  0.1894 -0.7952
  109MOL0     C14272   7.507   7.306   9.064 -0.8237  0.5598  0.6486
  109MOL0     N14273   7.407   7.280   8.966  0.5329  0.8000 -0.4943
  109MOL0     C14274   7.294   7.358   8.954  0.4392 -0.3510  0.0528
  109MOL0     C14275   7.224   7.289   8.860  0.7522 -0.7769 -0.2837
  109MOL0     C14276   7.107   7.339   8.787  0.2347 -0.6029  0.2015
  109MOL0     C14277   6.981   7.277   8.855  0.6258  0.1408  0.3104
  109MOL0     C14278   6.853   7.312   8.779 -0.4878 -0.7752  0.3313
  109MOL0     C14279   6.718   7.284   8.841  0.4119 -0.4774 -0.2703
  109MOL0     O14280   6.701   7.343   8.967 -0.2862 -0.1023 -0.0029
  109MOL0     C14281   6.575   7.372   9.015  0.5820 -0.1809  0.4322
  109MOL0     C14282   6.462   7.295   8.981  0.3824  0.5491 -0.2898
  109MOL0     C14283   6.333   7.327   9.033 -0.5176 -0.1636  0.5456
  109MOL0     C14284   6.305   7.448   9.101  0.0071 -0.0954  0.5618
  109MOL0     C14285   6.173   7.487   9.154 -0.6382 -0.3651 -0.5229
  109MOL0     O14286   6.081   7.388   9.160 -0.7962  0.3218 -0.4256
  109MOL0     C14287   5.968   7.392   9.232 -0.9031  0.4707 -0.3751
  109MOL0     C14288   5.874   7.478   9.188  0.0812 -0.8735 -0.3896
  109MOL0     C14289   5.747   7.493   9.242  0.2642  0.3140 -1.4067
  109MOL0     C14290   5.725   7.420   9.363  0.3486 -0.4739  0.2107
  109MOL0     O14291   5.608   7.450   9.430  0.2031 -0.0986  0.2307
  109MOL0     C14292   5.561   7.374   9.545 -0.1549  0.6205  0.1344
  109MOL0     C14293   5.409   7.387   9.581 -1.0390  0.5774 -0.1290
  109MOL0     C14294   5.365   7.522   9.603 -0.1253 -0.4097  0.2538
  109MOL0     C14295   5.230   7.534   9.685 -0.2084  0.0824  0.4884
  109MOL0     C14296   5.123   7.584   9.595 -0.0969  0.4469 -0.0605
  109MOL0     C14297   4.994   7.590   9.677  0.5013  0.3658  0.2936
  109MOL0     C14298   4.871   7.587   9.582 -0.5639 -0.8151  0.3226
  109MOL0     C14299   4.855   7.712   9.499  0.4884 -0.1240  0.8719
  109MOL0    Cl14300   4.683   7.733   9.457 -0.0767  0.4822 -0.3349
  109MOL0     C14301   5.823   7.330   9.413 -0.6175 -0.2864  0.3072
  109MOL0     C14302   5.945   7.319   9.342 -0.0503  0.1382 -0.3321
  109MOL0     O14303   6.156   7.607   9.187  0.0167  0.3533  0.3075
  109MOL0     C14304   6.428   7.521   9.122  0.9862 -0.9026 -0.6847
  109MOL0     C14305   6.555   7.480   9.091  0.4353 -0.7846 -0.5004
  109MOL0     N14306   7.280   7.167   8.832 -1.1655 -0.5833  0.2864
  109MOL0     N14307   7.394   7.164   8.897 -0.1496 -0.0373  0.0697
  109MOL0     C14308   8.602   7.680   9.339  0.7935 -0.1792  0.2364
  109MOL0     C14309   8.728   7.721   9.341 -1.0595 -0.4385 -0.4841
  109MOL0     C14310   9.162   7.805   9.328  0.1441 -0.3426 -1.3398
  109MOL0     C14311   9.212   7.820   9.196  0.6799 -0.2877  0.6402
  109MOL0     C14312   9.323   7.896   9.180 -0.0626 -0.7252 -0.3000
  109MOL0     C14313   9.388   7.954   9.289 -0.5189 -0.1379  0.1049
  109MOL0     O14314   9.488   8.043   9.277 -0.7596  0.5519 -0.3712
  109MOL0     C14315   9.527   8.085   9.143 -0.7360  0.1278 -0.2960
  109MOL0     C14316   9.596   8.228   9.151  0.1080 -0.0174  0.5183
  109MOL0     C14317   9.712   8.225   9.243  0.2159 -0.3656 -0.5004
  109MOL0     C14318   9.838   8.172   9.172  0.1366 -0.8533 -0.0880
  109MOL0     C14319   9.962   8.202   9.235 -0.1266 -0.3854  0.8218
  109MOL0     C14320  10.066   8.241   9.273  0.4176 -1.4044  0.1174
  109MOL0     C14321   9.351   7.935   9.417  0.7933 -0.3184  0.2359
  109MOL0     C14322   9.228   7.869   9.440 -1.4286 -0.7265  0.3438
  109MOL0     H14323   8.835   7.534   9.082 -0.5092  0.9625 -1.8820
  109MOL0     H14324   8.620   7.470   9.082  2.0848  1.6666 -0.8095
  109MOL0     H14325   8.393   7.348   9.207  1.0037  0.8419 -0.3825
  109MOL0     H14326   8.362   7.487   9.097 -1.9813  0.4741  0.0533
  109MOL0     H14327   8.171   7.525   9.297 -0.7285 -1.0798  1.5919
  109MOL0     H14328   8.175   7.355   9.298  1.9203 -2.1123 -2.4636
  109MOL0     H14329   8.123   7.367   9.055  2.1433  0.6144 -1.2269
  109MOL0     H14330   8.121   7.553   9.081  1.4854  1.0355  2.7742
  109MOL0     H14331   7.933   7.405   9.259 -1.6500 -1.3732 -0.8331
  109MOL0     H14332   7.929   7.566   9.216  1.0861  0.2323 -1.0876
  109MOL0     H14333   7.893   7.361   8.986 -0.5112  0.0147 -0.3661
  109MOL0     H14334   7.872   7.533   8.995  0.5908  1.4076  2.8147
  109MOL0     H14335   7.683   7.518   9.136  0.9914 -0.1829  1.2826
  109MOL0     H14336   7.728   7.342   9.177  3.8261 -1.6743 -1.2074
  109MOL0     H14337   7.586   7.456   8.918 -2.4600  0.0222  0.4630
  109MOL0     H14338   7.680   7.306   8.933 -0.5591 -0.9918 -0.2111
  109MOL0     H14339   7.471   7.364   9.150 -2.0315  1.5842 -0.4900
  109MOL0     H14340   7.549   7.213   9.102 -0.3865  0.5632  0.1993
  109MOL0     H14341   7.286   7.464   8.974 -1.5575 -0.3105 -0.7204
  109MOL0     H14342   7.105   7.316   8.680 -0.4796  0.5452 -0.0348
  109MOL0     H14343   7.096   7.447   8.789 -2.6935 -0.7791 -1.4056
  109MOL0     H14344   6.976   7.317   8.957  0.2526 -0.0875  0.3805
  109MOL0     H14345   6.995   7.168   8.858 -0.2241 -0.0367 -1.2543
  109MOL0     H14346   6.858   7.420   8.761 -1.3377 -0.7096  0.4617
  109MOL0     H14347   6.864   7.260   8.683  1.3587  0.8919 -0.4334
  109MOL0     H14348   6.702   7.175   8.844 -1.1523 -0.4449 -3.3567
  109MOL0     H14349   6.639   7.315   8.773 -1.6470 -3.1538  0.6902
  109MOL0     H14350   6.474   7.200   8.930  5.7354  0.9109 -0.2793
  109MOL0     H14351   6.251   7.259   9.013  0.7025 -1.5975  0.2165
  109MOL0     H14352   5.888   7.538   9.099 -2.9892  1.1998  0.3715
  109MOL0     H14353   5.662   7.555   9.215 -0.2098 -0.0253 -0.7124
  109MOL0     H14354   5.621   7.399   9.633  0.8254  0.6915 -0.5391
  109MOL0     H14355   5.573   7.267   9.529 -2.0936  0.2727  0.7531
  109MOL0     H14356   5.399   7.323   9.669  0.7629  0.7374  0.2291
  109MOL0     H14357   5.348   7.331   9.509 -0.4445  0.4858 -0.5692
  109MOL0     H14358   5.355   7.565   9.503  2.0709  2.0337  0.9698
  109MOL0     H14359   5.448   7.577   9.648  1.3681 -0.1864 -2.5955
  109MOL0     H14360   5.206   7.437   9.729  1.0251 -0.6050 -0.3263
  109MOL0     H14361   5.230   7.602   9.771 -0.5173  0.5983  0.0867
  109MOL0     H14362   5.105   7.512   9.515  0.6032 -1.8316  1.7482
  109MOL0     H14363   5.148   7.678   9.545 -1.5240  0.4083 -0.9078
  109MOL0     H14364   4.999   7.686   9.731 -0.3634  0.7603 -0.3020
  109MOL0     H14365   4.985   7.514   9.755  1.1013  1.1983  1.1984
  109MOL0     H14366   4.871   7.489   9.534  2.0380 -1.5504  1.6072
  109MOL0     H14367   4.780   7.580   9.642 -0.1131  0.5390  1.2420
  109MOL0     H14368   4.916   7.706   9.409  1.1443 -0.0321  1.3021
  109MOL0     H14369   4.873   7.807   9.551  0.7358  0.0734  0.4252
  109MOL0     H14370   5.810   7.273   9.505  1.4097 -1.6968 -0.2123
  109MOL0     H14371   6.018   7.250   9.382  1.7389  0.7337 -2.3665
  109MOL0     H14372   6.428   7.612   9.181  0.3823 -2.0354  1.1327
  109MOL0     H14373   6.640   7.531   9.135  0.0234  0.5453 -1.1900
  109MOL0     H14374   8.541   7.723   9.418  1.8159  2.2915 -0.2268
  109MOL0     H14375   8.762   7.790   9.418 -0.2615  0.4014 -1.5500
  109MOL0     H14376   9.158   7.780   9.111 -0.0040 -2.6618  2.0795
  109MOL0     H14377   9.347   7.915   9.076  0.8229  1.1797  0.2040
  109MOL0     H14378   9.434   8.096   9.085 -2.2199  2.8837  2.3431
  109MOL0     H14379   9.594   8.012   9.097  0.2882 -0.3764  1.8932
  109MOL0     H14380   9.636   8.262   9.055  1.4426 -1.0330  0.6908
  109MOL0     H14381   9.513   8.295   9.173 -0.8010  0.0812 -2.6613
  109MOL0     H14382   9.692   8.167   9.333 -0.9426  0.4869 -0.1917
  109MOL0     H14383   9.727   8.331   9.266  0.3573  0.3476 -3.4122
  109MOL0     H14384   9.813   8.065   9.176 -3.4696 -0.3666 -3.3854
  109MOL0     H14385   9.854   8.199   9.068  3.6611 -1.1152  0.2649
  109MOL0     H14386  10.160   8.274   9.311  0.7583  1.4818 -2.7998
  109MOL0     H14387   9.405   7.983   9.498 -1.4497  2.0481  0.4742
  109MOL0     H14388   9.199   7.845   9.542 -0.1415  1.2752  1.2552
  110MOL0     O14389  10.113   6.745   4.793  0.5887 -0.6406  0.0542
  110MOL0     C14390  10.195   6.741   4.877 -0.0349 -0.8741  0.1392
  110MOL0     O14391  10.180   6.690   4.999  0.2464  0.5457  0.4912
  110MOL0     C14392  10.067   6.614   5.014  0.1307  0.3047  1.0170
  110MOL0     C14393   9.986   6.649   5.123  0.3507  0.7484  0.1671
  110MOL0     C14394   9.874   6.574   5.144  0.5560  0.0405 -0.4306
  110MOL0     C14395   9.843   6.460   5.067  0.4329  0.1093 -0.1185
  110MOL0     O14396   9.751   6.360   5.100 -0.1321 -0.6524  0.4279
  110MOL0     C14397   9.664   6.394   5.204  0.1825 -0.2317 -0.3687
  110MOL0     C14398   9.548   6.295   5.208  0.3782  0.0883  0.0771
  110MOL0     C14399   9.439   6.349   5.301  0.1313 -0.9392  0.0571
  110MOL0     C14400   9.340   6.427   5.215 -0.2394 -0.2909 -0.2957
  110MOL0     C14401   9.233   6.495   5.304 -1.2460  1.3556 -0.3887
  110MOL0     C14402   9.146   6.582   5.213 -1.4224  0.2332 -0.4471
  110MOL0     C14403   9.063   6.679   5.293  0.4443 -0.2699 -0.0879
  110MOL0     C14404   8.947   6.736   5.221  0.2383  0.2108 -0.2704
  110MOL0     N14405   8.853   6.630   5.178 -0.0109 -0.7606  0.1385
  110MOL0     C14406   8.749   6.587   5.248  0.4173 -0.0673 -0.0914
  110MOL0     C14407   8.699   6.492   5.159 -0.3787  0.0720 -1.2588
  110MOL0     C14408   8.604   6.378   5.202 -0.0352 -0.0673  0.0044
  110MOL0     C14409   8.466   6.431   5.220  0.4727 -0.3634 -0.4013
  110MOL0     C14410   8.386   6.343   5.313  0.8244 -0.2775 -0.3774
  110MOL0     C14411   8.253   6.414   5.356  0.6241  0.1549  0.0585
  110MOL0     O14412   8.176   6.462   5.241 -0.4476 -0.0671 -0.0778
  110MOL0     C14413   8.039   6.480   5.252 -1.6357  0.8970  0.3133
  110MOL0     C14414   7.973   6.487   5.376 -0.2150 -0.3899 -0.0489
  110MOL0     C14415   7.831   6.497   5.377  0.3348  0.5077  0.1378
  110MOL0     C14416   7.760   6.486   5.261  0.1304  0.2643  0.3343
  110MOL0     C14417   7.608   6.460   5.252  0.1792 -0.8184  0.1575
  110MOL0     O14418   7.544   6.512   5.147  0.5105  0.2795  0.2110
  110MOL0     C14419   7.411   6.499   5.134 -0.4108 -0.6868  0.4122
  110MOL0     C14420   7.345   6.612   5.073 -0.9064 -0.1793  0.1349
  110MOL0     C14421   7.206   6.609   5.036  0.7168 -0.6961  0.0190
  110MOL0     C14422   7.131   6.493   5.052  0.1250  0.6767  0.4948
  110MOL0     O14423   7.000   6.479   5.018  0.0097 -0.0893  0.0805
  110MOL0     C14424   6.924   6.600   5.043 -0.2581  0.2002  0.5238
  110MOL0     C14425   6.799   6.563   5.127  0.1211 -0.5727 -0.7384
  110MOL0     C14426   6.701   6.479   5.055  0.0235 -1.0125  0.0298
  110MOL0     C14427   6.580   6.457   5.140  0.2361 -0.2608  0.5268
  110MOL0     C14428   6.466   6.394   5.057 -0.2323 -1.3947  0.1023
  110MOL0     C14429   6.345   6.355   5.156  0.3633 -0.2689  0.9995
  110MOL0     C14430   6.236   6.308   5.066  0.1349  0.1041 -0.2241
  110MOL0     C14431   6.110   6.265   5.137 -0.1399 -0.3020  0.1502
  110MOL0    Cl14432   6.139   6.092   5.176 -0.2373  0.0702 -0.4414
  110MOL0     C14433   7.193   6.386   5.114 -0.0694  0.3580 -0.8104
  110MOL0     C14434   7.328   6.389   5.157 -0.4962 -1.1207 -0.0994
  110MOL0     O14435   7.564   6.393   5.343 -0.3138  0.2049  0.0218
  110MOL0     C14436   7.829   6.486   5.134  0.5586  0.7460 -0.0581
  110MOL0     C14437   7.964   6.479   5.132  0.5968  0.5737 -0.2656
  110MOL0     N14438   8.752   6.492   5.039 -0.8059 -0.8632  0.0156
  110MOL0     N14439   8.847   6.583   5.053 -0.4270  0.0092 -0.3862
  110MOL0     C14440   9.925   6.434   4.957 -0.0974 -0.2598  0.3849
  110MOL0     C14441  10.035   6.508   4.927 -0.3885 -0.6206  0.6913
  110MOL0     C14442  10.322   6.803   4.836  0.4601  0.3613 -0.2990
  110MOL0     C14443  10.431   6.800   4.923 -0.4915 -0.1545  0.2284
  110MOL0     C14444  10.561   6.837   4.875  0.8418 -0.0519  0.3273
  110MOL0     C14445  10.576   6.890   4.742 -0.6135 -0.8727  0.3826
  110MOL0     O14446  10.683   6.941   4.686 -0.1010  0.4209 -0.4944
  110MOL0     C14447  10.808   6.939   4.759  0.3144 -0.5494 -0.3097
  110MOL0     C14448  10.927   6.960   4.670  0.3505  1.1564 -0.3448
  110MOL0     C14449  10.934   6.850   4.572  0.0239 -0.3858  0.8953
  110MOL0     C14450  11.068   6.815   4.513  0.4148  0.0627  0.7466
  110MOL0     C14451  11.134   6.924   4.448  0.3660 -0.2400 -0.3414
  110MOL0     C14452  11.182   7.018   4.391  0.1765 -1.0776 -0.1711
  110MOL0     C14453  10.463   6.895   4.667 -0.0808  0.3854 -0.1785
  110MOL0     C14454  10.341   6.854   4.710  0.5087 -0.1633 -0.0453
  110MOL0     H14455  10.005   6.732   5.190 -3.8181 -0.1215  2.7839
  110MOL0     H14456   9.816   6.602   5.232 -0.2472  0.9905 -1.2470
  110MOL0     H14457   9.626   6.495   5.190 -1.3039 -0.6040  0.6725
  110MOL0     H14458   9.713   6.400   5.301  0.1007 -1.4208 -0.2378
  110MOL0     H14459   9.583   6.200   5.250 -1.3417 -0.8521 -0.5141
  110MOL0     H14460   9.504   6.270   5.111  0.3871 -2.4685  0.6569
  110MOL0     H14461   9.482   6.412   5.379 -0.5516  0.1678 -0.4459
  110MOL0     H14462   9.397   6.261   5.352  0.2756 -0.8812  0.2784
  110MOL0     H14463   9.392   6.503   5.156 -0.7927 -0.2124 -0.6911
  110MOL0     H14464   9.281   6.357   5.155 -1.4088  0.3070  0.1011
  110MOL0     H14465   9.284   6.555   5.380  0.6764  1.3779 -1.6081
  110MOL0     H14466   9.175   6.420   5.359  0.9892  2.2621  3.6280
  110MOL0     H14467   9.090   6.518   5.144  1.1570 -1.5108 -1.0961
  110MOL0     H14468   9.220   6.643   5.160 -0.1169 -0.1531  0.8593
  110MOL0     H14469   9.022   6.621   5.377  1.5481 -0.3878  0.3972
  110MOL0     H14470   9.126   6.760   5.332  0.5488 -0.3805 -0.0252
  110MOL0     H14471   8.972   6.801   5.137 -0.8430 -0.6223 -1.2747
  110MOL0     H14472   8.894   6.798   5.294 -0.2773  0.5159 -0.9009
  110MOL0     H14473   8.720   6.608   5.350 -1.0809  0.9947 -0.6861
  110MOL0     H14474   8.650   6.341   5.295  0.6516 -0.7230 -0.5819
  110MOL0     H14475   8.595   6.304   5.122  1.5570 -0.2195 -0.0780
  110MOL0     H14476   8.420   6.454   5.124 -1.1027 -1.4698  0.0522
  110MOL0     H14477   8.480   6.531   5.262 -1.3050  0.6547 -2.0744
  110MOL0     H14478   8.364   6.245   5.271 -2.3741  0.2424 -0.1959
  110MOL0     H14479   8.443   6.314   5.402  2.1434 -1.0740 -1.4391
  110MOL0     H14480   8.275   6.500   5.421  1.3067 -0.4178  0.6096
  110MOL0     H14481   8.208   6.337   5.419  2.1151  0.5904  1.7766
  110MOL0     H14482   8.022   6.497   5.472  0.1329 -1.4836 -0.1055
  110MOL0     H14483   7.776   6.497   5.471  1.8095  1.7849  1.0457
  110MOL0     H14484   7.410   6.694   5.044  3.9114 -3.2654  1.0205
  110MOL0     H14485   7.161   6.699   4.996 -1.3560 -0.8028  1.9351
  110MOL0     H14486   6.908   6.662   4.954  1.1464  1.3260  1.0043
  110MOL0     H14487   6.974   6.660   5.120  0.0353  2.2328 -1.1533
  110MOL0     H14488   6.752   6.659   5.146  1.4824  0.5769 -2.7673
  110MOL0     H14489   6.843   6.521   5.218  1.3518  1.9107 -0.1142
  110MOL0     H14490   6.753   6.385   5.036  1.5476 -0.3399  0.6814
  110MOL0     H14491   6.674   6.527   4.960 -0.7866  1.4760  1.4259
  110MOL0     H14492   6.602   6.389   5.223 -2.6785 -1.4948  0.4193
  110MOL0     H14493   6.548   6.556   5.172 -1.0036 -0.9015  1.3838
  110MOL0     H14494   6.499   6.311   4.995 -1.7329 -1.2007 -1.0168
  110MOL0     H14495   6.437   6.470   4.984 -1.0684 -2.0227 -0.2434
  110MOL0     H14496   6.316   6.435   5.225  0.9089 -0.6727  1.7125
  110MOL0     H14497   6.366   6.267   5.218 -0.7917 -1.3856 -0.1244
  110MOL0     H14498   6.204   6.389   5.000 -0.0632  1.4159  1.4061
  110MOL0     H14499   6.281   6.228   5.007  1.4828  1.6187 -1.3488
  110MOL0     H14500   6.019   6.294   5.084 -0.0491  0.3629  0.3414
  110MOL0     H14501   6.097   6.328   5.226  3.3463 -0.9354  1.2694
  110MOL0     H14502   7.137   6.294   5.125 -0.0449  0.3568 -0.6939
  110MOL0     H14503   7.354   6.303   5.218 -1.9411 -1.0485  0.6652
  110MOL0     H14504   7.771   6.486   5.042  0.8978 -1.9276 -0.3349
  110MOL0     H14505   8.007   6.485   5.033  0.1775 -0.4776 -0.5273
  110MOL0     H14506   9.895   6.357   4.886 -0.4219  1.2367 -1.1934
  110MOL0     H14507  10.101   6.470   4.849 -1.7289  0.9109 -1.2831
  110MOL0     H14508  10.428   6.751   5.019  2.1441  2.0071  1.5593
  110MOL0     H14509  10.640   6.836   4.950 -1.4603  1.4218  2.9833
  110MOL0     H14510  10.817   6.850   4.822 -1.5272 -0.2333  0.4716
  110MOL0     H14511  10.805   7.019   4.833 -0.4773 -0.6818 -0.1836
  110MOL0     H14512  10.938   7.060   4.629  0.6635  1.8348  1.3307
  110MOL0     H14513  11.011   6.944   4.738  0.1359 -1.1654 -0.5226
  110MOL0     H14514  10.871   6.892   4.493  1.5269  3.1424  1.3756
  110MOL0     H14515  10.892   6.759   4.614  0.4832 -1.9503 -1.7961
  110MOL0     H14516  11.130   6.781   4.597  1.4448 -1.2040 -0.4868
  110MOL0     H14517  11.059   6.734   4.440  0.4517 -0.2235  1.0542
  110MOL0     H14518  11.215   7.094   4.324  0.8778 -2.9589 -2.0396
  110MOL0     H14519  10.465   6.941   4.568  1.2527 -2.9065 -1.8333
  110MOL0     H14520  10.261   6.850   4.637  0.3497  0.7567  0.0568
  111MOL0     O14521   6.099   5.940   6.812 -0.3015  0.4658  0.4315
  111MOL0     C14522   6.184   5.979   6.741 -0.3292 -0.5321  0.3473
  111MOL0     O14523   6.165   6.054   6.618  0.0317  0.0562 -0.5832
  111MOL0     C14524   6.037   6.049   6.557 -0.2456 -0.4918  0.1394
  111MOL0     C14525   5.923   6.065   6.631  0.0026  0.4220  0.4010
  111MOL0     C14526   5.796   6.049   6.566  0.0849  0.3447 -0.3156
  111MOL0     C14527   5.791   6.012   6.430 -0.0265  0.2718  0.1059
  111MOL0     O14528   5.676   5.985   6.359 -0.1855 -0.1078  0.1203
  111MOL0     C14529   5.598   5.872   6.406  0.3431  0.4904  1.2605
  111MOL0     C14530   5.458   5.884   6.357 -0.2191  0.4453 -0.5794
  111MOL0     C14531   5.373   5.786   6.447  0.1642 -0.1062 -0.1775
  111MOL0     C14532   5.232   5.768   6.392  0.2871 -0.8368 -0.0994
  111MOL0     C14533   5.145   5.670   6.462  0.0551 -0.3677  0.1619
  111MOL0     C14534   5.001   5.684   6.408 -1.0518 -0.2717 -0.3795
  111MOL0     C14535   4.903   5.611   6.483 -0.3042 -0.3492 -1.3591
  111MOL0     C14536   4.771   5.630   6.413 -0.1558  0.3494  0.0420
  111MOL0     N14537   4.754   5.558   6.284  0.0282 -0.9089 -0.1219
  111MOL0     C14538   4.781   5.422   6.276  0.7695 -0.3848  0.0700
  111MOL0     C14539   4.752   5.394   6.143  0.4590  0.5516 -0.4647
  111MOL0     C14540   4.786   5.265   6.073 -0.6378  0.1219  0.5519
  111MOL0     C14541   4.695   5.147   6.109  0.2313 -0.0114 -0.4234
  111MOL0     C14542   4.691   5.107   6.256  0.9870  0.6470 -0.2738
  111MOL0     C14543   4.554   5.033   6.282 -0.3735 -0.1721  0.3050
  111MOL0     O14544   4.546   5.005   6.421  0.3342 -0.6190 -0.3716
  111MOL0     C14545   4.420   4.993   6.471 -0.4000 -0.2898  0.2791
  111MOL0     C14546   4.407   5.022   6.606  0.4150  0.6855 -0.5573
  111MOL0     C14547   4.280   5.022   6.670 -0.9538  0.3213 -0.4728
  111MOL0     C14548   4.163   5.002   6.592  0.8457 -1.0814  0.4720
  111MOL0     C14549   4.025   5.030   6.637 -0.2669  0.4190 -0.8324
  111MOL0     O14550   3.931   5.026   6.545 -0.4212 -0.6296  0.4485
  111MOL0     C14551   3.810   5.081   6.574  0.9311 -0.2121 -0.3376
  111MOL0     C14552   3.796   5.215   6.604  0.1430  0.1715  0.3054
  111MOL0     C14553   3.681   5.280   6.632 -0.1557 -0.3195  0.1827
  111MOL0     C14554   3.562   5.207   6.626 -0.2032 -0.4039 -0.3467
  111MOL0     O14555   3.444   5.261   6.656  0.2105  0.2042 -0.8998
  111MOL0     C14556   3.391   5.334   6.545  0.3151 -0.4474 -0.5888
  111MOL0     C14557   3.262   5.404   6.587 -0.0662  0.8128  0.1219
  111MOL0     C14558   3.271   5.487   6.717  0.4844 -0.0421  0.9354
  111MOL0     C14559   3.167   5.598   6.731  0.3545  0.7526 -0.0733
  111MOL0     C14560   3.124   5.618   6.877  0.1995 -0.3901  0.1294
  111MOL0     C14561   3.015   5.530   6.937  0.0304  0.3840  0.1314
  111MOL0     C14562   2.968   5.584   7.081  0.2241 -0.1748 -0.0414
  111MOL0     C14563   2.893   5.483   7.174 -0.6215  0.0994  0.1220
  111MOL0    Cl14564   3.023   5.369   7.233 -0.2281  0.5079  0.1183
  111MOL0     C14565   3.567   5.069   6.606 -0.6725  0.1841 -0.1051
  111MOL0     C14566   3.691   5.007   6.583  0.3398  0.6259  0.9311
  111MOL0     O14567   4.010   5.047   6.760  0.6376 -0.1873 -0.3169
  111MOL0     C14568   4.182   4.977   6.453  0.6835  0.6195 -0.3617
  111MOL0     C14569   4.306   4.970   6.397 -0.6928  0.0176 -0.1972
  111MOL0     N14570   4.701   5.503   6.085 -0.7115 -0.7875  0.1285
  111MOL0     N14571   4.695   5.598   6.168  0.7776 -0.7412 -0.3182
  111MOL0     C14572   5.907   6.003   6.362  0.2951 -0.7210 -0.2732
  111MOL0     C14573   6.028   6.025   6.424 -0.8083 -0.0086  0.2898
  111MOL0     C14574   6.331   5.984   6.793  0.0372  0.2803 -0.3879
  111MOL0     C14575   6.431   6.074   6.736  0.1920 -0.3955  0.2890
  111MOL0     C14576   6.557   6.074   6.803  0.2103 -0.1444  0.2666
  111MOL0     C14577   6.587   6.002   6.912 -0.2729 -0.1887 -0.4249
  111MOL0     O14578   6.720   6.012   6.956  0.0613  0.2372 -0.9098
  111MOL0     C14579   6.774   5.934   7.057  0.3358 -0.6983  0.9194
  111MOL0     C14580   6.733   5.988   7.194 -0.3798 -0.4668  0.2365
  111MOL0     C14581   6.762   6.133   7.207  0.2101  0.3165 -0.5925
  111MOL0     C14582   6.734   6.192   7.353 -1.3554 -0.0062 -0.1982
  111MOL0     C14583   6.764   6.332   7.370  0.4735  0.2429 -0.1960
  111MOL0     C14584   6.781   6.450   7.369  0.0222 -0.2439 -0.4897
  111MOL0     C14585   6.494   5.921   6.970  0.2035  0.6331  0.3677
  111MOL0     C14586   6.368   5.911   6.911  0.6055 -0.5235 -0.2074
  111MOL0     H14587   5.928   6.080   6.738  0.6602 -1.6886  0.7022
  111MOL0     H14588   5.698   6.057   6.612 -0.4413 -1.6409 -0.9745
  111MOL0     H14589   5.602   5.848   6.512  0.2233  1.8919  1.6008
  111MOL0     H14590   5.650   5.789   6.358 -1.4379 -0.3047  0.6324
  111MOL0     H14591   5.461   5.844   6.256 -1.4599  0.7979 -0.7681
  111MOL0     H14592   5.422   5.987   6.355  0.7791  0.8422 -3.7649
  111MOL0     H14593   5.367   5.825   6.549 -0.8703 -0.4696 -0.0878
  111MOL0     H14594   5.422   5.690   6.459 -0.0790 -0.2694 -0.4733
  111MOL0     H14595   5.189   5.867   6.403  3.3752  0.5042  0.8909
  111MOL0     H14596   5.234   5.749   6.284 -1.0605  2.1557 -0.7359
  111MOL0     H14597   5.146   5.686   6.570  0.5007 -0.0774  0.1159
  111MOL0     H14598   5.188   5.572   6.437 -0.0425  0.0299 -1.7491
  111MOL0     H14599   5.012   5.648   6.305 -4.6354  1.0545 -1.4061
  111MOL0     H14600   4.971   5.789   6.395 -3.3393 -0.8461 -0.1374
  111MOL0     H14601   4.927   5.505   6.483 -1.0189 -0.5186 -1.7332
  111MOL0     H14602   4.897   5.637   6.590  0.0318 -1.3502 -1.0884
  111MOL0     H14603   4.754   5.737   6.407 -1.3804  0.1693 -0.0092
  111MOL0     H14604   4.690   5.598   6.480 -0.2182  3.1327  1.4278
  111MOL0     H14605   4.829   5.354   6.345 -1.4514 -0.2128  1.9003
  111MOL0     H14606   4.892   5.245   6.092  0.2424  2.1286 -1.6224
  111MOL0     H14607   4.779   5.280   5.965  1.1996  0.7925  0.4891
  111MOL0     H14608   4.741   5.068   6.049 -0.3564  0.5798 -1.6778
  111MOL0     H14609   4.596   5.167   6.069  0.3773  2.2057  0.1830
  111MOL0     H14610   4.777   5.040   6.268  0.5224 -0.2195 -1.6183
  111MOL0     H14611   4.697   5.197   6.318 -3.1060  0.6424  0.3846
  111MOL0     H14612   4.545   4.937   6.230 -1.8164 -0.0751  0.3277
  111MOL0     H14613   4.472   5.086   6.232  0.1060 -2.2930 -3.1152
  111MOL0     H14614   4.495   5.037   6.667 -0.3484  0.3962  0.6481
  111MOL0     H14615   4.281   5.031   6.778  1.5710 -0.6852 -0.3380
  111MOL0     H14616   3.881   5.281   6.601 -1.3084  2.0974 -1.6166
  111MOL0     H14617   3.690   5.388   6.641  0.8171 -0.3179 -0.6009
  111MOL0     H14618   3.371   5.273   6.456 -1.1690  2.6840 -2.6194
  111MOL0     H14619   3.466   5.409   6.519  1.1392  0.2086  3.1885
  111MOL0     H14620   3.186   5.327   6.604 -1.7902  2.2595 -0.7084
  111MOL0     H14621   3.217   5.471   6.512 -0.9973  0.5000  0.3908
  111MOL0     H14622   3.363   5.545   6.718 -0.3206  1.9844 -4.6720
  111MOL0     H14623   3.273   5.416   6.801 -0.1501 -0.2855  0.7590
  111MOL0     H14624   3.189   5.694   6.683 -1.6232  1.9104  1.1757
  111MOL0     H14625   3.079   5.563   6.677 -0.7693  2.3511  0.6359
  111MOL0     H14626   3.081   5.718   6.870  1.1499 -0.0865 -2.4074
  111MOL0     H14627   3.213   5.617   6.941  1.3490  1.0284 -1.3714
  111MOL0     H14628   3.064   5.433   6.950 -0.0781 -0.5372 -4.6293
  111MOL0     H14629   2.936   5.517   6.862  1.2324 -0.4432 -1.0334
  111MOL0     H14630   3.055   5.620   7.138  0.8136 -3.0027  1.0169
  111MOL0     H14631   2.909   5.675   7.076  1.4531  0.6386 -0.2377
  111MOL0     H14632   2.813   5.428   7.124  0.5433 -3.4022  1.8067
  111MOL0     H14633   2.855   5.542   7.258 -0.6601  0.9918 -0.5062
  111MOL0     H14634   3.475   5.013   6.618 -0.0744 -0.3245  3.5799
  111MOL0     H14635   3.699   4.900   6.571  0.0352  0.7216 -0.1907
  111MOL0     H14636   4.098   4.952   6.389  1.1880  1.0348 -1.1901
  111MOL0     H14637   4.301   4.934   6.295  0.4870  1.1513 -0.6918
  111MOL0     H14638   5.900   5.994   6.254 -1.0164  0.1726 -0.2807
  111MOL0     H14639   6.116   6.028   6.361 -0.0708 -1.9210  1.1445
  111MOL0     H14640   6.417   6.135   6.647  0.4513  0.7619  1.0115
  111MOL0     H14641   6.637   6.128   6.752  0.0965  0.8799  1.1394
  111MOL0     H14642   6.883   5.933   7.046  0.3018  0.8551  0.1173
  111MOL0     H14643   6.739   5.830   7.046 -0.5031 -0.3963  0.6481
  111MOL0     H14644   6.629   5.966   7.218 -0.9741  2.0313  0.2316
  111MOL0     H14645   6.806   5.945   7.263  0.1800 -0.5542 -0.3933
  111MOL0     H14646   6.706   6.202   7.143  1.0986 -0.0542 -1.7988
  111MOL0     H14647   6.868   6.160   7.198  1.2094 -2.5372  1.2401
  111MOL0     H14648   6.633   6.161   7.382 -1.0190 -0.7253  0.2145
  111MOL0     H14649   6.797   6.131   7.417 -2.2121  0.7267  1.3977
  111MOL0     H14650   6.808   6.553   7.366  0.4142 -0.0559  3.6725
  111MOL0     H14651   6.509   5.851   7.052 -1.5009 -0.9910 -0.6288
  111MOL0     H14652   6.295   5.849   6.961 -0.1775 -0.1887 -0.9053
  112MOL0     O14653   6.822   5.735  10.468  0.6374  0.0129 -0.3533
  112MOL0     C14654   6.866   5.628  10.421  0.3280  0.5286  0.0882
  112MOL0     O14655   6.795   5.541  10.344  0.3894  0.0660  0.5304
  112MOL0     C14656   6.663   5.536  10.371 -0.5019 -0.7237 -0.5176
  112MOL0     C14657   6.569   5.539  10.271  0.1134 -0.0339  0.3360
  112MOL0     C14658   6.430   5.537  10.294  0.4528  0.0968 -0.2847
  112MOL0     C14659   6.393   5.508  10.423 -0.2580  0.3113 -0.3848
  112MOL0     O14660   6.260   5.497  10.457  0.2217  0.4353 -0.7517
  112MOL0     C14661   6.155   5.555  10.379  0.3728 -0.3830  0.5149
  112MOL0     C14662   6.013   5.533  10.428 -0.3061 -0.0317  0.4619
  112MOL0     C14663   5.997   5.649  10.526 -0.1575  0.0015 -0.4985
  112MOL0     C14664   5.868   5.664  10.612  0.8671  0.3220 -0.2243
  112MOL0     C14665   5.839   5.536  10.704 -0.2793 -0.6342 -0.1090
  112MOL0     C14666   5.747   5.434  10.638  0.1718  0.4064 -0.7824
  112MOL0     C14667   5.601   5.465  10.686 -0.0278  0.0833  0.6579
  112MOL0     C14668   5.544   5.593  10.624  0.6347  0.2485  0.0340
  112MOL0     N14669   5.395   5.592  10.649  0.2770 -1.2388 -0.4682
  112MOL0     C14670   5.334   5.612  10.769  0.1095  0.1196 -0.7400
  112MOL0     C14671   5.205   5.616  10.747  0.3946 -0.6200 -0.2072
  112MOL0     C14672   5.086   5.652  10.840 -0.2285 -0.0684  0.3299
  112MOL0     C14673   5.093   5.575  10.976 -0.5259 -0.3882 -0.2162
  112MOL0     C14674   5.012   5.637  11.088 -0.2287  0.2671  0.0126
  112MOL0     C14675   4.864   5.610  11.067 -1.1625 -0.2443  1.0159
  112MOL0     O14676   4.765   5.690  11.139  0.1959 -0.3209  0.1997
  112MOL0     C14677   4.635   5.667  11.131 -0.2757  0.2465  0.1860
  112MOL0     C14678   4.550   5.760  11.187  0.0690  0.2441 -1.0299
  112MOL0     C14679   4.410   5.742  11.188  0.9021  0.1756  0.5058
  112MOL0     C14680   4.361   5.629  11.129  0.1630 -0.8549  0.7209
  112MOL0     C14681   4.215   5.608  11.120  0.4319 -0.1812  0.2139
  112MOL0     O14682   4.156   5.521  11.033  0.6099  0.2167 -0.3421
  112MOL0     C14683   4.015   5.503  11.022  0.3977 -0.6915 -0.2389
  112MOL0     C14684   3.940   5.467  11.140  0.8715  0.0200  0.5806
  112MOL0     C14685   3.803   5.438  11.107 -0.1209 -0.3457 -0.0285
  112MOL0     C14686   3.743   5.449  10.982  0.4308 -0.2969 -0.8211
  112MOL0     O14687   3.607   5.455  10.955  0.3921 -0.4906  0.4273
  112MOL0     C14688   3.514   5.432  11.057  0.5022 -0.1690  0.4648
  112MOL0     C14689   3.383   5.420  10.990 -0.1748  0.7987 -0.2265
  112MOL0     C14690   3.264   5.377  11.073  0.2459 -0.6523  0.2866
  112MOL0     C14691   3.288   5.267  11.172  0.8247 -0.9891 -0.2450
  112MOL0     C14692   3.170   5.169  11.182  0.0198  0.0914 -0.1227
  112MOL0     C14693   3.140   5.105  11.040 -0.2604  0.2608 -1.0253
  112MOL0     C14694   3.097   4.959  11.056  0.2155  1.3321 -0.3379
  112MOL0     C14695   3.011   4.919  10.938  0.1040 -0.2363  0.9644
  112MOL0    Cl14696   2.913   4.777  10.986 -0.6739  0.1283  0.0616
  112MOL0     C14697   3.817   5.485  10.873 -0.5369 -0.5548 -0.0200
  112MOL0     C14698   3.954   5.504  10.890  0.3498  0.2846 -0.4856
  112MOL0     O14699   4.155   5.693  11.185  0.8372 -0.0003 -0.5390
  112MOL0     C14700   4.447   5.535  11.072 -0.5385 -1.1244 -0.5637
  112MOL0     C14701   4.584   5.556  11.072 -0.5425  0.4280 -0.0033
  112MOL0     N14702   5.185   5.602  10.616  0.0319 -0.5805  0.0751
  112MOL0     N14703   5.293   5.596  10.553 -0.5379  0.0401 -0.0056
  112MOL0     C14704   6.489   5.490  10.525 -0.8291  0.1024  0.0919
  112MOL0     C14705   6.627   5.505  10.500 -0.1670 -0.2488  0.4958
  112MOL0     C14706   7.013   5.597  10.431  0.6004 -0.0141  0.7901
  112MOL0     C14707   7.083   5.485  10.376  0.1787  0.2498  0.6209
  112MOL0     C14708   7.215   5.472  10.403 -1.0268 -0.2689  0.5758
  112MOL0     C14709   7.290   5.553  10.491 -0.3296  0.6203 -0.4328
  112MOL0     O14710   7.430   5.541  10.507  0.0587  0.7706  0.3446
  112MOL0     C14711   7.492   5.416  10.468 -0.7584  0.4556 -0.5970
  112MOL0     C14712   7.635   5.397  10.526 -0.3783 -0.0211  0.3685
  112MOL0     C14713   7.629   5.402  10.686 -0.6977 -0.3996  0.3992
  112MOL0     C14714   7.766   5.373  10.767  0.3063 -0.2352 -0.5361
  112MOL0     C14715   7.866   5.464  10.719  0.2857 -0.5124  0.4922
  112MOL0     C14716   7.939   5.560  10.681  0.7524  0.3168  0.4215
  112MOL0     C14717   7.229   5.672  10.534  0.2080  0.6805 -0.4876
  112MOL0     C14718   7.089   5.695  10.511  0.2695 -0.4472  0.4183
  112MOL0     H14719   6.594   5.545  10.166 -2.1534  0.2026 -0.2494
  112MOL0     H14720   6.361   5.540  10.209 -0.1738 -0.1229  0.2028
  112MOL0     H14721   6.150   5.506  10.282  1.5025  3.6435 -1.8049
  112MOL0     H14722   6.171   5.658  10.347  0.1543 -0.5459 -0.1281
  112MOL0     H14723   6.001   5.433  10.470  1.3399 -0.0353  0.9991
  112MOL0     H14724   5.938   5.546  10.349 -0.5182  0.7758  0.7868
  112MOL0     H14725   6.015   5.737  10.463  1.8703  0.4436  0.6096
  112MOL0     H14726   6.083   5.641  10.593 -0.3693 -2.4121 -0.4471
  112MOL0     H14727   5.874   5.754  10.673 -1.6153  0.8659 -0.6573
  112MOL0     H14728   5.779   5.685  10.552  1.8486  1.6958 -1.2396
  112MOL0     H14729   5.789   5.566  10.796  2.8154 -4.0973  3.0480
  112MOL0     H14730   5.935   5.488  10.726  1.9016  3.4601  0.4014
  112MOL0     H14731   5.768   5.336  10.681 -0.7144  0.8434  0.7532
  112MOL0     H14732   5.754   5.430  10.529  2.0018 -1.4478 -0.6530
  112MOL0     H14733   5.529   5.402  10.633 -2.5036  2.6970  0.6546
  112MOL0     H14734   5.586   5.466  10.795 -2.6807  1.9577  0.3872
  112MOL0     H14735   5.566   5.614  10.520  1.4990  0.2950  0.2199
  112MOL0     H14736   5.591   5.674  10.681 -2.3662  0.6861  2.1750
  112MOL0     H14737   5.385   5.631  10.862 -0.9823  0.6546 -0.2350
  112MOL0     H14738   4.994   5.634  10.784 -0.0398  2.3194 -0.8528
  112MOL0     H14739   5.099   5.757  10.868 -2.3215 -0.0191  1.3183
  112MOL0     H14740   5.199   5.565  11.003 -0.0621  2.1101 -0.8597
  112MOL0     H14741   5.063   5.474  10.945  2.8054 -1.1415 -1.4020
  112MOL0     H14742   5.048   5.588  11.179  0.2123 -1.0107 -0.8132
  112MOL0     H14743   5.028   5.745  11.082  0.4510  0.1754  0.0728
  112MOL0     H14744   4.855   5.503  11.086  1.6881 -0.9779 -1.0813
  112MOL0     H14745   4.842   5.617  10.960 -0.2765  0.5119  0.8645
  112MOL0     H14746   4.596   5.846  11.235 -1.7180  2.1841 -2.5961
  112MOL0     H14747   4.347   5.813  11.240  0.3071 -0.2362  0.3555
  112MOL0     H14748   3.981   5.448  11.239  1.6267  0.9410  0.4542
  112MOL0     H14749   3.732   5.400  11.180 -1.6721  0.8893 -0.8272
  112MOL0     H14750   3.514   5.513  11.130  2.8300  0.2834  0.0415
  112MOL0     H14751   3.531   5.341  11.115 -2.6009 -1.8465 -1.0099
  112MOL0     H14752   3.394   5.351  10.906 -1.7761 -0.6284  0.7019
  112MOL0     H14753   3.358   5.520  10.953 -0.0316  2.0711  2.8408
  112MOL0     H14754   3.177   5.354  11.011 -0.8989 -0.4102  1.7466
  112MOL0     H14755   3.226   5.460  11.134 -2.1307 -0.2947 -1.5331
  112MOL0     H14756   3.381   5.220  11.138  0.8706 -1.1986  0.1684
  112MOL0     H14757   3.303   5.306  11.273  0.3507 -1.7561  0.1276
  112MOL0     H14758   3.078   5.216  11.217 -1.0620 -0.9507 -1.4250
  112MOL0     H14759   3.194   5.090  11.254 -0.0261  1.3123  1.2712
  112MOL0     H14760   3.225   5.115  10.973  1.4070  2.1610  1.1980
  112MOL0     H14761   3.055   5.162  11.004 -0.7412  0.3299  0.1708
  112MOL0     H14762   3.184   4.895  11.068 -0.4225  0.6152  0.6292
  112MOL0     H14763   3.028   4.959  11.141  1.2442 -0.2721  0.5468
  112MOL0     H14764   3.070   4.900  10.848  0.1477  0.8004  0.7633
  112MOL0     H14765   2.962   5.010  10.901 -2.2227 -0.2786  3.6623
  112MOL0     H14766   3.765   5.502  10.780  2.3366  1.9420 -1.3406
  112MOL0     H14767   4.018   5.528  10.806  0.0428 -0.3948 -0.9192
  112MOL0     H14768   4.408   5.447  11.023  0.3385 -1.7623 -0.1368
  112MOL0     H14769   4.653   5.478  11.042 -1.3293 -0.0337 -0.6668
  112MOL0     H14770   6.459   5.452  10.622 -2.8769  0.2363 -0.4421
  112MOL0     H14771   6.698   5.480  10.578  0.4250  2.3550  0.8912
  112MOL0     H14772   7.032   5.417  10.309  0.4977 -2.0230  2.5743
  112MOL0     H14773   7.266   5.389  10.354  0.4040 -1.0274  3.1688
  112MOL0     H14774   7.498   5.387  10.363  2.3690  0.6981 -0.5831
  112MOL0     H14775   7.437   5.336  10.519  0.3116  0.1134  0.0447
  112MOL0     H14776   7.686   5.310  10.483  1.8076  0.0063  2.6775
  112MOL0     H14777   7.688   5.481  10.480 -1.3225 -0.2754 -1.2889
  112MOL0     H14778   7.551   5.332  10.716 -1.4412 -0.1128 -0.7835
  112MOL0     H14779   7.594   5.504  10.706 -0.5361  0.1278 -1.6893
  112MOL0     H14780   7.752   5.384  10.875  0.5813 -3.1965 -0.1268
  112MOL0     H14781   7.794   5.275  10.729  3.6257  0.9059 -1.4223
  112MOL0     H14782   7.990   5.630  10.617 -0.4821  0.5702 -0.3148
  112MOL0     H14783   7.285   5.746  10.591  1.2215 -1.1443  0.9914
  112MOL0     H14784   7.039   5.775  10.564 -0.9146 -1.9611  1.6715
  113MOL0     O14785   2.006   0.859   6.677  0.5445 -0.1256 -0.6471
  113MOL0     C14786   1.903   0.852   6.743 -0.1507  0.6875 -0.1424
  113MOL0     O14787   1.895   0.814   6.872 -0.7571 -0.5026 -0.2401
  113MOL0     C14788   2.013   0.784   6.936  0.5945 -0.5274  0.1258
  113MOL0     C14789   2.121   0.873   6.944 -0.8962  0.5923  0.8641
  113MOL0     C14790   2.229   0.838   7.021  0.0529 -0.2394  0.3504
  113MOL0     C14791   2.227   0.721   7.093  0.0203 -0.0304  0.2055
  113MOL0     O14792   2.328   0.703   7.185 -0.0355 -0.3573 -0.0158
  113MOL0     C14793   2.362   0.572   7.224  0.3004 -0.1544 -0.3487
  113MOL0     C14794   2.471   0.576   7.330 -0.3955 -0.3334 -0.3021
  113MOL0     C14795   2.476   0.444   7.410  0.5339 -0.5776 -0.2403
  113MOL0     C14796   2.547   0.327   7.331  0.2884 -0.3568 -0.3223
  113MOL0     C14797   2.532   0.197   7.411  0.3802 -0.2233  0.0972
  113MOL0     C14798   2.603   0.075   7.367  0.5885  0.4239  1.0549
  113MOL0     C14799   2.599  -0.039   7.469  0.1095 -0.1859  0.6560
  113MOL0     C14800   2.610  -0.178   7.398  0.4507 -0.1382 -0.3525
  113MOL0     N14801   2.723  -0.191   7.296  0.2869  0.0557  0.4077
  113MOL0     C14802   2.858  -0.205   7.326 -0.3647 -0.5038  0.8218
  113MOL0     C14803   2.918  -0.207   7.206  0.2445 -0.3508 -0.3608
  113MOL0     C14804   3.057  -0.237   7.165 -0.5014  0.5048 -0.5266
  113MOL0     C14805   3.115  -0.113   7.087 -0.1816  0.1536 -0.6209
  113MOL0     C14806   3.224  -0.033   7.167  0.1311 -0.0064 -0.0539
  113MOL0     C14807   3.158   0.068   7.251 -0.9656  0.2182  0.7327
  113MOL0     O14808   3.103   0.009   7.369 -1.0188  0.1698 -0.3814
  113MOL0     C14809   3.026   0.083   7.454 -0.0854 -0.8724 -0.5670
  113MOL0     C14810   2.998   0.216   7.440  0.1102 -0.5731 -0.5830
  113MOL0     C14811   2.917   0.287   7.529  0.6925  0.1892  0.4390
  113MOL0     C14812   2.862   0.209   7.639 -0.4204  0.4562  0.8178
  113MOL0     C14813   2.775   0.284   7.727  0.1826 -0.0142 -0.3249
  113MOL0     O14814   2.708   0.205   7.815  0.7046  0.1787  0.2869
  113MOL0     C14815   2.613   0.262   7.890 -0.0869 -0.4123  0.0025
  113MOL0     C14816   2.634   0.273   8.026  0.5911 -0.4284 -0.8305
  113MOL0     C14817   2.541   0.333   8.110 -0.2024  0.1717 -0.1913
  113MOL0     C14818   2.415   0.368   8.057  0.1549  0.3595 -0.1341
  113MOL0     O14819   2.309   0.419   8.129  0.5232 -0.4589 -0.5143
  113MOL0     C14820   2.327   0.413   8.275 -0.0777  0.5335  0.3092
  113MOL0     C14821   2.196   0.456   8.360  0.1189 -0.5821 -0.7080
  113MOL0     C14822   2.069   0.371   8.337 -0.2821  0.6312 -0.2483
  113MOL0     C14823   2.002   0.416   8.207  0.1382 -0.0021 -0.5196
  113MOL0     C14824   1.850   0.380   8.200  0.2131 -0.2626  0.4276
  113MOL0     C14825   1.774   0.459   8.306 -0.0759  0.0485 -0.5101
  113MOL0     C14826   1.620   0.452   8.291  0.5876 -0.7464  0.2328
  113MOL0     C14827   1.552   0.371   8.396 -0.5604 -0.2497  0.4215
  113MOL0    Cl14828   1.614   0.195   8.397  0.3497 -0.4705  0.4794
  113MOL0     C14829   2.391   0.360   7.923  0.2772  0.2766 -0.1442
  113MOL0     C14830   2.495   0.314   7.833  0.3801  0.6141 -0.6123
  113MOL0     O14831   2.771   0.407   7.721  0.7831 -0.0068  0.1540
  113MOL0     C14832   2.903   0.078   7.659  0.3278  0.1047 -0.4230
  113MOL0     C14833   2.984   0.023   7.570 -0.7038  0.2203  0.2197
  113MOL0     N14834   2.817  -0.201   7.105  0.1399 -0.3003 -0.2814
  113MOL0     N14835   2.695  -0.200   7.161 -0.5253  0.1194  0.0800
  113MOL0     C14836   2.126   0.630   7.080  0.5046 -0.0916  0.3542
  113MOL0     C14837   2.010   0.666   7.006  0.1413 -0.4354 -0.7802
  113MOL0     C14838   1.777   0.899   6.684  0.2172 -0.7014  0.4027
  113MOL0     C14839   1.673   0.949   6.764  0.3106  0.3992  0.6666
  113MOL0     C14840   1.540   0.963   6.712 -0.1104 -0.3693 -0.4445
  113MOL0     C14841   1.523   0.946   6.577 -0.4145 -0.3598 -0.8663
  113MOL0     O14842   1.397   0.973   6.520 -0.2569 -0.1793  0.0506
  113MOL0     C14843   1.314   1.085   6.569 -0.6139  0.0978 -0.2044
  113MOL0     C14844   1.176   1.026   6.591 -0.4918  0.1673 -0.2964
  113MOL0     C14845   1.078   1.139   6.621  0.4819  0.1558  0.5234
  113MOL0     C14846   0.939   1.069   6.640  0.0413 -0.4512 -0.1018
  113MOL0     C14847   0.832   1.170   6.646 -0.2267  0.3563 -0.5615
  113MOL0     C14848   0.760   1.268   6.628  0.3351 -0.1890  0.6041
  113MOL0     C14849   1.633   0.917   6.488  0.6515 -1.0371  0.6168
  113MOL0     C14850   1.757   0.891   6.543 -0.7888 -0.6674  0.0328
  113MOL0     H14851   2.120   0.964   6.885  0.0844  0.6620  0.9364
  113MOL0     H14852   2.313   0.903   7.044  0.9651 -0.0349 -3.0600
  113MOL0     H14853   2.404   0.515   7.141 -0.4393 -0.2397 -0.6678
  113MOL0     H14854   2.277   0.527   7.276  0.3697  0.6838  0.5234
  113MOL0     H14855   2.459   0.664   7.394  0.1481 -0.2487 -0.3133
  113MOL0     H14856   2.563   0.600   7.276 -0.0389  3.5445  1.6758
  113MOL0     H14857   2.371   0.416   7.422  0.5415 -0.8482 -0.8088
  113MOL0     H14858   2.520   0.458   7.510  0.9841 -0.8189 -0.4045
  113MOL0     H14859   2.506   0.319   7.230  3.5562 -2.5130 -1.6357
  113MOL0     H14860   2.651   0.360   7.324 -0.1502  1.0183 -0.7722
  113MOL0     H14861   2.426   0.171   7.421  0.0245  0.5509 -1.4548
  113MOL0     H14862   2.574   0.222   7.509  0.9500  0.8747 -0.4072
  113MOL0     H14863   2.708   0.102   7.350  1.0508 -0.8737  1.6812
  113MOL0     H14864   2.562   0.045   7.270 -0.4001  2.2324  0.8745
  113MOL0     H14865   2.668  -0.035   7.554 -0.5293 -1.7072  1.2880
  113MOL0     H14866   2.499  -0.033   7.514 -0.3648  2.1412 -0.5421
  113MOL0     H14867   2.516  -0.204   7.347  1.1835 -1.1975 -1.2215
  113MOL0     H14868   2.628  -0.244   7.483  1.4100 -1.0244 -1.2176
  113MOL0     H14869   2.900  -0.237   7.421 -1.1734 -0.7746  1.0994
  113MOL0     H14870   3.076  -0.326   7.104  4.0894  0.4107  0.6888
  113MOL0     H14871   3.109  -0.267   7.256  0.5043 -1.1318 -1.5764
  113MOL0     H14872   3.040  -0.049   7.040 -0.9942 -0.3179  0.0037
  113MOL0     H14873   3.177  -0.148   7.004  0.7178 -2.1949  0.9139
  113MOL0     H14874   3.286  -0.094   7.233 -2.3207 -2.4291  0.1807
  113MOL0     H14875   3.290   0.023   7.100 -0.1117  1.9300  1.2514
  113MOL0     H14876   3.074   0.106   7.192  0.6398  0.2250 -1.6975
  113MOL0     H14877   3.222   0.151   7.282 -0.2245 -0.0794  0.0189
  113MOL0     H14878   3.017   0.272   7.349 -1.7763  1.3503  0.1231
  113MOL0     H14879   2.886   0.388   7.507  0.0186 -0.4416 -1.7785
  113MOL0     H14880   2.731   0.247   8.066  1.4722  3.3227 -0.1754
  113MOL0     H14881   2.583   0.366   8.205 -1.1545  0.6808  0.0708
  113MOL0     H14882   2.413   0.470   8.311  0.8568 -1.8283  2.0504
  113MOL0     H14883   2.338   0.306   8.298  1.8031  0.4578 -0.6878
  113MOL0     H14884   2.179   0.558   8.324 -1.7715 -0.9897 -1.0908
  113MOL0     H14885   2.225   0.456   8.465  1.1202  0.8108 -0.9526
  113MOL0     H14886   2.005   0.386   8.425 -0.2520 -2.4140  0.3952
  113MOL0     H14887   2.099   0.266   8.329 -1.5112  0.2398 -0.0441
  113MOL0     H14888   2.023   0.522   8.192  1.3801 -0.1025  0.3714
  113MOL0     H14889   2.046   0.371   8.118 -2.7699  1.4370 -2.8671
  113MOL0     H14890   1.844   0.274   8.226  0.0551 -0.6558 -1.1293
  113MOL0     H14891   1.824   0.397   8.095  0.9696  2.3394  0.5782
  113MOL0     H14892   1.812   0.561   8.294 -0.5231 -0.0374 -3.5064
  113MOL0     H14893   1.794   0.425   8.408 -1.6030 -0.7713 -0.4420
  113MOL0     H14894   1.576   0.549   8.315  0.9577 -0.6746  0.6325
  113MOL0     H14895   1.585   0.426   8.190 -0.3784  1.6337 -0.1254
  113MOL0     H14896   1.442   0.368   8.393 -0.7181 -0.6687  3.6168
  113MOL0     H14897   1.570   0.413   8.495  1.4147 -1.3562  0.5652
  113MOL0     H14898   2.298   0.390   7.878  1.1799  0.6828 -1.8261
  113MOL0     H14899   2.469   0.302   7.729 -2.3478  0.1078  0.0525
  113MOL0     H14900   2.866   0.029   7.748 -0.7213  2.7028  0.6943
  113MOL0     H14901   3.016  -0.079   7.592 -1.1455  0.4426  2.0346
  113MOL0     H14902   2.110   0.541   7.139  0.8290 -1.5913 -1.7352
  113MOL0     H14903   1.917   0.610   7.005 -0.3963  0.3699  0.8964
  113MOL0     H14904   1.697   0.959   6.870 -0.3130  0.9766  0.7608
  113MOL0     H14905   1.461   0.999   6.777  0.9633  2.0260 -0.3456
  113MOL0     H14906   1.311   1.154   6.484  3.6236  1.6477  0.6991
  113MOL0     H14907   1.363   1.135   6.652 -0.9197 -1.0166  0.6865
  113MOL0     H14908   1.144   0.960   6.510 -0.3745 -2.2421  1.5023
  113MOL0     H14909   1.181   0.963   6.680 -0.4890 -2.0294 -1.7672
  113MOL0     H14910   1.087   1.214   6.542  0.5640 -0.8032 -0.3992
  113MOL0     H14911   1.111   1.189   6.712  2.7960 -2.3824  1.2319
  113MOL0     H14912   0.914   1.006   6.554 -0.1666  0.6647 -0.8821
  113MOL0     H14913   0.948   1.008   6.731 -2.7086 -1.2703 -0.3096
  113MOL0     H14914   0.711   1.363   6.617 -2.5284 -1.5741  0.5842
  113MOL0     H14915   1.612   0.922   6.382  1.0336  0.8780  0.5974
  113MOL0     H14916   1.832   0.874   6.466 -2.5289 -0.8240 -1.7152
  114MOL0     O14917   7.175   0.400   9.730  0.0487  0.2711 -0.4850
  114MOL0     C14918   7.265   0.479   9.757 -0.0826 -0.2222 -0.2381
  114MOL0     O14919   7.254   0.605   9.811 -0.1313  0.1413  0.0065
  114MOL0     C14920   7.137   0.658   9.845  0.7067  0.0013 -0.3302
  114MOL0     C14921   7.115   0.799   9.816  0.5456  0.4111 -0.7225
  114MOL0     C14922   6.988   0.852   9.851  0.1392 -0.2221  0.8766
  114MOL0     C14923   6.884   0.772   9.899  0.0172  0.4000 -0.1853
  114MOL0     O14924   6.755   0.817   9.919  0.6317  0.5540 -0.4429
  114MOL0     C14925   6.696   0.925   9.858 -0.0467 -0.2787  0.6362
  114MOL0     C14926   6.650   1.025   9.978 -0.3931  0.3510 -0.1445
  114MOL0     C14927   6.527   0.977  10.060 -0.2377 -0.6798  0.8371
  114MOL0     C14928   6.527   1.059  10.192  0.6428  0.7651  0.0642
  114MOL0     C14929   6.384   1.055  10.253 -0.9805  0.1147  0.6391
  114MOL0     C14930   6.380   1.145  10.376 -0.1998  0.2742 -0.0408
  114MOL0     C14931   6.238   1.144  10.436 -0.2632  0.7845 -0.2030
  114MOL0     C14932   6.247   1.194  10.577  0.0536  0.0200 -0.5183
  114MOL0     N14933   6.112   1.187  10.637 -0.7784 -0.7748  0.3147
  114MOL0     C14934   6.010   1.271  10.603 -0.6086  0.0842  0.4653
  114MOL0     C14935   5.904   1.232  10.680  0.3243 -0.0728  0.5541
  114MOL0     C14936   5.753   1.269  10.686  0.0516 -0.2984  0.6422
  114MOL0     C14937   5.717   1.335  10.817 -0.3877 -0.2491 -0.3923
  114MOL0     C14938   5.563   1.360  10.821  0.5783  0.0053  0.2761
  114MOL0     C14939   5.518   1.387  10.966  0.2056  0.0497  0.6011
  114MOL0     O14940   5.391   1.455  10.961  1.0667  0.2918 -0.0292
  114MOL0     C14941   5.284   1.369  10.974  0.4002 -0.7716 -0.5772
  114MOL0     C14942   5.156   1.435  10.985 -0.1493  0.0339  0.7081
  114MOL0     C14943   5.037   1.361  10.985  0.3298  0.3692  0.3905
  114MOL0     C14944   5.033   1.222  10.981  0.3851 -0.0479 -0.4481
  114MOL0     C14945   4.908   1.152  10.983  0.5450 -0.3013 -0.1114
  114MOL0     O14946   4.793   1.224  10.968  0.5645 -0.8148  0.7297
  114MOL0     C14947   4.668   1.173  11.000  0.2169 -0.1211 -0.0831
  114MOL0     C14948   4.636   1.090  11.109  0.1209  0.3355  0.7474
  114MOL0     C14949   4.497   1.044  11.136  0.4537  0.2077 -0.4952
  114MOL0     C14950   4.389   1.077  11.047 -0.6541 -0.0346 -1.3294
  114MOL0     O14951   4.256   1.043  11.068 -0.1472 -0.2941  0.4304
  114MOL0     C14952   4.217   1.050  11.204  0.1011 -0.2269  0.0326
  114MOL0     C14953   4.069   1.087  11.205  0.0479  0.2195  0.1773
  114MOL0     C14954   3.983   0.959  11.211 -0.0881 -0.1442  0.1583
  114MOL0     C14955   3.843   1.006  11.264 -0.6152 -0.1569  0.5650
  114MOL0     C14956   3.747   0.886  11.271  0.5652  0.0688  0.7078
  114MOL0     C14957   3.711   0.804  11.143  0.4202 -0.1487 -0.0618
  114MOL0     C14958   3.623   0.884  11.041 -1.0692  1.0436  0.2649
  114MOL0     C14959   3.560   0.786  10.945  0.6227  0.3790 -0.2187
  114MOL0    Cl14960   3.456   0.647  11.029 -0.0611 -0.5348  0.2341
  114MOL0     C14961   4.425   1.148  10.930 -0.3437 -0.0867  0.5519
  114MOL0     C14962   4.561   1.191  10.904  1.6087 -1.0399 -1.0452
  114MOL0     O14963   4.903   1.031  11.001  0.1602  0.6147  0.5958
  114MOL0     C14964   5.158   1.158  10.982  0.2772 -0.8446  0.6496
  114MOL0     C14965   5.279   1.229  10.980 -1.1543 -0.7601 -0.0187
  114MOL0     N14966   5.952   1.143  10.776 -0.0421 -0.1719 -0.3264
  114MOL0     N14967   6.074   1.116  10.743 -0.6655  0.6913 -0.3264
  114MOL0     C14968   6.908   0.637   9.938 -0.2782  0.1788  0.0838
  114MOL0     C14969   7.038   0.589   9.916  0.4904  1.0797  0.0170
  114MOL0     C14970   7.405   0.436   9.719 -0.0928 -0.5074  0.0733
  114MOL0     C14971   7.432   0.306   9.667 -0.3420  0.3445 -0.0112
  114MOL0     C14972   7.558   0.259   9.643 -0.1794 -0.7005  0.5996
  114MOL0     C14973   7.667   0.337   9.670  0.7363  0.0905 -0.3144
  114MOL0     O14974   7.786   0.285   9.646 -0.1372  0.3227 -0.1768
  114MOL0     C14975   7.896   0.368   9.624 -0.2681  0.3740  0.2652
  114MOL0     C14976   7.987   0.307   9.520 -1.3215  0.4834  0.0941
  114MOL0     C14977   8.124   0.382   9.521 -0.6493 -0.4213 -0.0335
  114MOL0     C14978   8.239   0.326   9.430 -0.7331  0.1150 -0.5432
  114MOL0     C14979   8.270   0.190   9.466  0.2031 -0.5864 -1.4674
  114MOL0     C14980   8.299   0.077   9.488 -0.4607  0.4866 -0.2287
  114MOL0     C14981   7.645   0.452   9.744  0.5563  0.0848  0.7515
  114MOL0     C14982   7.516   0.502   9.770 -0.3676 -0.0681  0.1725
  114MOL0     H14983   7.196   0.860   9.778 -0.7484  0.3711 -3.8738
  114MOL0     H14984   6.975   0.956   9.822  4.5879  0.4064  0.3510
  114MOL0     H14985   6.608   0.895   9.800 -0.0468 -0.5585  0.7823
  114MOL0     H14986   6.771   0.972   9.794 -0.0726  0.7322  1.3226
  114MOL0     H14987   6.638   1.120   9.925  2.6545 -0.1847 -2.0800
  114MOL0     H14988   6.730   1.042  10.050 -0.0656 -0.0815 -0.4019
  114MOL0     H14989   6.541   0.872  10.087 -0.3814 -1.4694 -1.8300
  114MOL0     H14990   6.440   0.995   9.996  1.0380  1.9523 -0.3144
  114MOL0     H14991   6.601   1.023  10.265 -0.2482  1.3631  1.3004
  114MOL0     H14992   6.547   1.165  10.175  0.8644  0.9229  1.2394
  114MOL0     H14993   6.367   0.952  10.288 -2.2305 -0.3427 -1.1989
  114MOL0     H14994   6.302   1.074  10.184 -2.6556 -2.2869  1.8164
  114MOL0     H14995   6.402   1.247  10.345 -0.7696  0.4407  0.0953
  114MOL0     H14996   6.451   1.105  10.450 -0.6739  1.8689  1.3229
  114MOL0     H14997   6.170   1.210  10.381  2.2308  2.0932 -1.8479
  114MOL0     H14998   6.204   1.041  10.451  2.0035  0.4039  4.0179
  114MOL0     H14999   6.297   1.292  10.581  1.8461 -0.8774  1.3034
  114MOL0     H15000   6.313   1.130  10.637 -0.6663 -1.4961 -1.2838
  114MOL0     H15001   5.996   1.328  10.512 -2.5387  0.5086  0.9962
  114MOL0     H15002   5.700   1.174  10.683  0.1735 -0.3912  1.2924
  114MOL0     H15003   5.729   1.338  10.605  0.6370  0.9337  1.4803
  114MOL0     H15004   5.787   1.416  10.836 -0.1204 -0.5260 -0.1734
  114MOL0     H15005   5.748   1.255  10.885  3.7010 -0.1619 -1.9097
  114MOL0     H15006   5.549   1.452  10.763  2.7817  0.6102  0.5959
  114MOL0     H15007   5.500   1.278  10.786 -0.2461  0.7076  0.0965
  114MOL0     H15008   5.582   1.461  11.014 -0.6698  1.8490 -0.8942
  114MOL0     H15009   5.514   1.299  11.031  1.1991 -0.8622 -0.5286
  114MOL0     H15010   5.153   1.543  10.980  0.1386  0.0051 -0.7496
  114MOL0     H15011   4.939   1.406  10.992  0.6263  0.9202  1.1095
  114MOL0     H15012   4.714   1.061  11.179  0.5557  1.6709  0.8377
  114MOL0     H15013   4.476   0.978  11.220 -1.8558  1.6759  0.1740
  114MOL0     H15014   4.272   1.131  11.253  2.1040 -1.4886 -0.0119
  114MOL0     H15015   4.219   0.956  11.261 -3.1803 -0.0912  0.6136
  114MOL0     H15016   4.038   1.159  11.128  2.1986  0.9716 -0.0802
  114MOL0     H15017   4.057   1.150  11.294 -1.1428 -0.6273  0.6329
  114MOL0     H15018   4.022   0.882  11.279  0.9616 -1.1677 -1.5257
  114MOL0     H15019   3.961   0.922  11.111 -2.0259 -1.4849  1.0139
  114MOL0     H15020   3.854   1.047  11.365 -1.3030 -0.4600  0.7672
  114MOL0     H15021   3.797   1.083  11.201  0.7106  0.6960  0.6006
  114MOL0     H15022   3.653   0.924  11.312 -0.1287  1.2708 -1.7626
  114MOL0     H15023   3.797   0.810  11.331  0.3496 -0.6009  0.0438
  114MOL0     H15024   3.655   0.716  11.175 -0.0360 -0.3714 -1.3905
  114MOL0     H15025   3.804   0.767  11.100 -0.5378 -1.1572 -1.3624
  114MOL0     H15026   3.544   0.937  11.096 -0.7477 -0.1337  1.9420
  114MOL0     H15027   3.685   0.949  10.980 -2.0561 -0.1351 -2.1225
  114MOL0     H15028   3.634   0.736  10.882  0.9198 -0.5286  0.8078
  114MOL0     H15029   3.492   0.841  10.879 -0.3391 -1.2078 -0.5972
  114MOL0     H15030   4.347   1.183  10.863  1.6072 -1.7770 -2.8660
  114MOL0     H15031   4.578   1.249  10.814 -0.3117 -1.0147 -1.4389
  114MOL0     H15032   5.157   1.049  10.976  0.4523 -1.0236  2.8945
  114MOL0     H15033   5.367   1.167  10.983 -0.3456  0.3894  2.7083
  114MOL0     H15034   6.829   0.575   9.981 -0.6220 -0.0968 -0.9094
  114MOL0     H15035   7.062   0.489   9.949  0.9594  1.3889  0.6358
  114MOL0     H15036   7.353   0.234   9.650  0.2791 -0.2246 -0.5673
  114MOL0     H15037   7.573   0.158   9.607  0.0869 -1.1261  1.8556
  114MOL0     H15038   7.954   0.376   9.716 -0.5881 -0.5031  0.5551
  114MOL0     H15039   7.862   0.466   9.592 -2.6733  0.5919  3.1005
  114MOL0     H15040   8.006   0.200   9.535 -0.5683  0.9070  2.6784
  114MOL0     H15041   7.951   0.308   9.417 -0.0532 -2.6509 -0.4862
  114MOL0     H15042   8.156   0.392   9.625 -1.7893  1.3872  0.2027
  114MOL0     H15043   8.107   0.485   9.488  2.3803  0.2915  0.3874
  114MOL0     H15044   8.212   0.327   9.324 -0.9814  1.2626 -0.4771
  114MOL0     H15045   8.328   0.388   9.444 -1.3460  0.4055  2.6899
  114MOL0     H15046   8.319  -0.027   9.499 -2.6622 -0.3671 -2.9899
  114MOL0     H15047   7.735   0.503   9.776  1.7086  0.1369 -2.2854
  114MOL0     H15048   7.499   0.592   9.829  1.7626 -1.1643  2.6173
  115MOL0     O15049   4.938   7.160   8.833 -0.3222  0.8336 -0.6716
  115MOL0     C15050   4.951   7.268   8.775 -0.2596  0.5330 -0.2255
  115MOL0     O15051   4.851   7.355   8.730 -0.1564 -0.4685 -0.0208
  115MOL0     C15052   4.715   7.337   8.746 -0.1486  0.1402  0.0006
  115MOL0     C15053   4.644   7.220   8.788 -0.9743  0.6515  0.1508
  115MOL0     C15054   4.507   7.219   8.779 -0.2073  0.0348  0.2424
  115MOL0     C15055   4.442   7.344   8.744  0.7332  0.4917  0.7204
  115MOL0     O15056   4.298   7.352   8.742  0.0875  0.1780  0.1843
  115MOL0     C15057   4.224   7.278   8.836 -0.9661  0.0529 -0.8246
  115MOL0     C15058   4.084   7.342   8.867  0.5346  1.1606 -0.6814
  115MOL0     C15059   4.011   7.381   8.733 -0.3342  0.6975 -0.4215
  115MOL0     C15060   3.863   7.391   8.749  0.5678 -0.0363 -0.2929
  115MOL0     C15061   3.792   7.427   8.615  0.0860  0.4326 -0.4926
  115MOL0     C15062   3.644   7.454   8.628 -0.0615 -0.2535 -0.3432
  115MOL0     C15063   3.567   7.338   8.697 -0.8662 -0.3991  0.2624
  115MOL0     C15064   3.421   7.331   8.680 -0.8417  0.1578  0.0256
  115MOL0     N15065   3.359   7.225   8.754 -0.2403 -0.4965  0.0108
  115MOL0     C15066   3.246   7.248   8.826  0.0036 -0.4627  0.6641
  115MOL0     C15067   3.213   7.125   8.865 -0.0425  0.5991  0.4684
  115MOL0     C15068   3.080   7.086   8.933 -0.0505  0.3696 -0.3531
  115MOL0     C15069   3.070   6.944   8.998 -0.0722 -0.7004 -0.4148
  115MOL0     C15070   2.938   6.912   9.069 -0.1699 -0.4417 -0.3413
  115MOL0     C15071   2.939   7.015   9.194  0.4307  0.0608 -0.2157
  115MOL0     O15072   2.862   7.131   9.171  1.0769 -0.6641 -0.3208
  115MOL0     C15073   2.734   7.127   9.206 -0.1033 -0.3904 -0.4882
  115MOL0     C15074   2.656   7.016   9.243 -0.5823  0.8995 -0.2595
  115MOL0     C15075   2.523   7.027   9.276 -0.5976 -0.3936 -0.1222
  115MOL0     C15076   2.461   7.153   9.262  0.3392  0.4143 -0.7266
  115MOL0     C15077   2.315   7.164   9.272 -0.2116 -0.5255 -0.0237
  115MOL0     O15078   2.264   7.279   9.225 -0.4062 -0.1281  0.2043
  115MOL0     C15079   2.132   7.300   9.259  0.2031  0.5701 -0.9740
  115MOL0     C15080   2.097   7.359   9.384  0.3022 -0.0999  0.1365
  115MOL0     C15081   1.959   7.380   9.411 -0.2853  0.2307  0.0596
  115MOL0     C15082   1.864   7.354   9.315  0.3060 -0.2895 -0.2354
  115MOL0     O15083   1.741   7.385   9.353  0.2736 -0.0878 -0.0726
  115MOL0     C15084   1.658   7.443   9.254 -1.3319  0.2814 -0.1361
  115MOL0     C15085   1.527   7.479   9.315 -0.4151  0.4210 -0.0513
  115MOL0     C15086   1.421   7.530   9.221  0.5222  0.2104  0.5216
  115MOL0     C15087   1.301   7.598   9.279 -0.8171  0.3521 -0.2555
  115MOL0     C15088   1.168   7.593   9.199 -0.3733 -0.1745  0.3466
  115MOL0     C15089   1.064   7.662   9.278 -0.0210  0.6762  0.8071
  115MOL0     C15090   0.933   7.617   9.230 -0.7963  0.5776  0.0300
  115MOL0     C15091   0.805   7.705   9.270 -0.0719 -0.6819 -0.9321
  115MOL0    Cl15092   0.817   7.750   9.450  0.1400 -0.2663  0.3600
  115MOL0     C15093   1.893   7.298   9.188  0.3064 -0.3997 -0.3209
  115MOL0     C15094   2.031   7.265   9.164 -0.3357 -0.1247  0.0535
  115MOL0     O15095   2.259   7.075   9.331  0.2890  0.1759  0.4665
  115MOL0     C15096   2.539   7.269   9.246 -0.4001 -0.4047  0.4617
  115MOL0     C15097   2.674   7.253   9.212  0.5374 -0.1981 -0.9142
  115MOL0     N15098   3.316   7.032   8.823  0.0795 -0.1733  0.1968
  115MOL0     N15099   3.404   7.099   8.759 -0.1589 -0.4771 -0.2625
  115MOL0     C15100   4.510   7.453   8.695  0.1021  0.3874 -0.6467
  115MOL0     C15101   4.648   7.452   8.700  1.3832  0.1940  0.0286
  115MOL0     C15102   5.092   7.315   8.758  0.6070 -0.2747  0.1632
  115MOL0     C15103   5.125   7.439   8.700 -0.4236  0.2714  0.7974
  115MOL0     C15104   5.253   7.488   8.699 -0.3737  0.7440 -0.5689
  115MOL0     C15105   5.365   7.412   8.756 -0.0450  0.3449  0.7861
  115MOL0     O15106   5.495   7.470   8.743  0.3624 -0.1017 -0.3168
  115MOL0     C15107   5.591   7.442   8.850 -0.3644 -0.0682  0.3996
  115MOL0     C15108   5.722   7.420   8.770 -0.2464 -0.2893  0.5186
  115MOL0     C15109   5.750   7.267   8.751 -0.0232  0.1831 -0.4866
  115MOL0     C15110   5.885   7.225   8.684  0.0327 -0.2432 -0.0395
  115MOL0     C15111   6.006   7.292   8.741  0.0571  0.6068  0.5789
  115MOL0     C15112   6.109   7.355   8.771  0.3794  0.7432  0.9476
  115MOL0     C15113   5.334   7.284   8.812 -0.6435 -0.3103 -0.3107
  115MOL0     C15114   5.195   7.241   8.818 -1.1635  0.0258  0.4548
  115MOL0     H15115   4.695   7.130   8.819 -0.6853  0.5361 -0.6527
  115MOL0     H15116   4.449   7.131   8.803 -1.4342  1.5307  3.2196
  115MOL0     H15117   4.284   7.270   8.928 -2.8818 -0.8824  0.4178
  115MOL0     H15118   4.217   7.176   8.797  0.3291  0.0913 -1.1803
  115MOL0     H15119   4.098   7.424   8.939 -1.6031  1.2437 -0.3057
  115MOL0     H15120   4.022   7.272   8.923  0.6799 -0.0979 -2.0407
  115MOL0     H15121   4.030   7.299   8.662 -0.5408 -2.1517  2.5740
  115MOL0     H15122   4.055   7.471   8.688 -0.7573  2.1581  1.9327
  115MOL0     H15123   3.823   7.297   8.788 -0.5764  0.4860 -0.1624
  115MOL0     H15124   3.851   7.461   8.831  0.5942  3.0540 -2.7277
  115MOL0     H15125   3.796   7.343   8.545 -2.7857 -0.5486  0.3960
  115MOL0     H15126   3.840   7.517   8.574  1.4305  0.2779  0.6777
  115MOL0     H15127   3.610   7.472   8.526  0.3594  1.5424 -0.2172
  115MOL0     H15128   3.621   7.544   8.687 -2.3584 -0.7084 -0.4749
  115MOL0     H15129   3.609   7.241   8.668 -1.4831 -1.0693  1.5231
  115MOL0     H15130   3.586   7.336   8.805  3.5169 -0.8179 -0.3178
  115MOL0     H15131   3.390   7.319   8.575 -2.3163 -1.8773  0.6245
  115MOL0     H15132   3.378   7.427   8.709  0.9199  0.1600  3.0154
  115MOL0     H15133   3.186   7.338   8.834 -1.1031 -1.3194  2.8041
  115MOL0     H15134   3.001   7.085   8.858 -1.5546 -2.3297  1.1434
  115MOL0     H15135   3.048   7.167   8.999  0.6655  2.5714 -2.5445
  115MOL0     H15136   3.153   6.938   9.069  0.3893  0.4850 -0.8241
  115MOL0     H15137   3.093   6.875   8.917  0.9803  0.2606 -0.9565
  115MOL0     H15138   2.851   6.919   9.004 -2.1891  0.6677  2.3037
  115MOL0     H15139   2.941   6.806   9.097  0.1786 -0.6981 -1.2943
  115MOL0     H15140   3.040   7.044   9.222  0.9787 -0.4898 -1.5495
  115MOL0     H15141   2.907   6.963   9.285  2.6615 -1.9636 -0.4845
  115MOL0     H15142   2.697   6.916   9.240  0.1054  0.9866  3.0319
  115MOL0     H15143   2.470   6.936   9.303  1.7259 -1.2133  2.1062
  115MOL0     H15144   2.175   7.385   9.455  1.0067  0.7597 -0.9206
  115MOL0     H15145   1.922   7.414   9.507  2.4165 -0.7217  1.5476
  115MOL0     H15146   1.638   7.377   9.170 -0.3868  0.0485 -0.1929
  115MOL0     H15147   1.710   7.529   9.211  0.6337 -0.9508 -0.3762
  115MOL0     H15148   1.543   7.555   9.392  0.6149 -5.0641  5.9712
  115MOL0     H15149   1.492   7.396   9.377  1.9431  0.3053  1.2365
  115MOL0     H15150   1.389   7.439   9.169 -0.3154  1.4402 -1.1951
  115MOL0     H15151   1.456   7.589   9.135 -0.0028  1.1415  0.9340
  115MOL0     H15152   1.286   7.553   9.378  0.6564  0.7489  0.1732
  115MOL0     H15153   1.325   7.700   9.311 -0.8323 -0.6612  3.5652
  115MOL0     H15154   1.143   7.489   9.177 -1.8257  0.2356 -0.0995
  115MOL0     H15155   1.189   7.636   9.101 -0.9995 -0.8243 -0.0859
  115MOL0     H15156   1.078   7.771   9.279  2.5161  0.4643 -1.1857
  115MOL0     H15157   1.074   7.626   9.381  0.0753 -2.4063 -0.1758
  115MOL0     H15158   0.940   7.616   9.121 -0.5789  0.9275  0.0401
  115MOL0     H15159   0.896   7.522   9.271 -2.4124  1.5030  0.8251
  115MOL0     H15160   0.709   7.653   9.263 -0.3196 -0.5235  0.8177
  115MOL0     H15161   0.811   7.795   9.207  0.7224 -0.8506 -1.1051
  115MOL0     H15162   1.816   7.284   9.113 -3.7557  0.1177  3.3117
  115MOL0     H15163   2.055   7.211   9.073 -3.8519  1.6309 -2.1116
  115MOL0     H15164   2.498   7.370   9.246  2.3268  0.8017  0.2641
  115MOL0     H15165   2.727   7.342   9.180 -1.8821  2.2421  1.3875
  115MOL0     H15166   4.459   7.536   8.646  3.4271  1.7819 -2.0334
  115MOL0     H15167   4.701   7.541   8.669 -1.4157  0.9979 -2.9007
  115MOL0     H15168   5.045   7.485   8.644 -0.7738  0.0153  1.0866
  115MOL0     H15169   5.280   7.574   8.639  3.0764  0.1095 -0.1667
  115MOL0     H15170   5.563   7.354   8.909 -0.4497  1.0229  2.0494
  115MOL0     H15171   5.608   7.529   8.914  1.5909 -0.4796  0.4913
  115MOL0     H15172   5.712   7.465   8.671  0.4285  0.9363  0.9853
  115MOL0     H15173   5.804   7.470   8.822  0.3028  1.8167 -2.1943
  115MOL0     H15174   5.662   7.227   8.700 -1.3996 -0.0203  1.8577
  115MOL0     H15175   5.747   7.227   8.853 -3.2533 -1.5521 -1.1245
  115MOL0     H15176   5.893   7.116   8.686 -0.6410 -0.2905  0.3068
  115MOL0     H15177   5.880   7.266   8.583  0.7559  1.0511  0.4196
  115MOL0     H15178   6.185   7.428   8.789 -1.4196  2.7145  0.9483
  115MOL0     H15179   5.398   7.226   8.877 -1.3366 -0.9833 -0.2153
  115MOL0     H15180   5.165   7.153   8.874 -2.3406 -0.1841 -0.4893
  116MOL0     O15181   3.185   6.390  10.540  0.4583 -0.4697  0.6578
  116MOL0     C15182   3.142   6.503  10.531 -0.3751  0.2126 -0.3579
  116MOL0     O15183   3.218   6.612  10.534  0.1784  0.0942 -0.0695
  116MOL0     C15184   3.353   6.604  10.518  0.7920 -0.4994  0.5037
  116MOL0     C15185   3.439   6.664  10.610  0.7497  0.3855 -0.2449
  116MOL0     C15186   3.570   6.662  10.588 -0.4831 -0.0371  0.1072
  116MOL0     C15187   3.634   6.594  10.482 -0.4018 -0.1739 -0.0562
  116MOL0     O15188   3.770   6.582  10.479  0.5887  0.2850 -0.3105
  116MOL0     C15189   3.839   6.603  10.351  0.1743  0.4981  0.6286
  116MOL0     C15190   3.989   6.570  10.359  0.2359  0.0157 -1.0212
  116MOL0     C15191   4.067   6.604  10.235  0.4120  0.1443 -0.4900
  116MOL0     C15192   4.220   6.589  10.268  0.1076  0.2454  0.1086
  116MOL0     C15193   4.317   6.647  10.171 -0.4327  0.0652  0.9491
  116MOL0     C15194   4.342   6.567  10.043  0.4556 -0.0250 -0.4146
  116MOL0     C15195   4.458   6.648   9.967  0.6490  0.3639  0.1054
  116MOL0     C15196   4.514   6.558   9.860  0.0955 -0.8111  0.7138
  116MOL0     N15197   4.419   6.499   9.765 -0.2192  0.0783 -0.4218
  116MOL0     C15198   4.356   6.380   9.793  0.0121  0.2442 -1.3394
  116MOL0     C15199   4.302   6.335   9.678 -1.1573 -0.4016 -0.5628
  116MOL0     C15200   4.232   6.206   9.658  0.3633 -0.1031 -0.4378
  116MOL0     C15201   4.332   6.090   9.633 -0.0018 -0.4769  0.0938
  116MOL0     C15202   4.364   6.008   9.755  0.4409  1.1375 -0.2775
  116MOL0     C15203   4.456   5.898   9.729 -0.2087 -0.3738 -0.0486
  116MOL0     O15204   4.512   5.860   9.851 -0.0609  0.2665 -0.1675
  116MOL0     C15205   4.632   5.794   9.849 -0.2225  0.0481 -0.4339
  116MOL0     C15206   4.698   5.761   9.971  0.3254 -0.0739  0.5694
  116MOL0     C15207   4.818   5.700   9.970 -0.1679 -0.6415  0.1381
  116MOL0     C15208   4.881   5.667   9.852 -1.0177 -0.0870  0.3729
  116MOL0     C15209   5.008   5.595   9.853  1.0722  0.4167  0.5419
  116MOL0     O15210   5.089   5.592   9.744 -0.1781 -0.4368 -0.1850
  116MOL0     C15211   5.221   5.550   9.752 -0.2608  1.2124 -0.3906
  116MOL0     C15212   5.270   5.466   9.649  0.3540 -0.3805 -0.0845
  116MOL0     C15213   5.403   5.424   9.653  0.8072  0.0237 -0.2948
  116MOL0     C15214   5.485   5.461   9.764  0.0959 -0.0049  0.7675
  116MOL0     O15215   5.613   5.411   9.769 -0.3589 -0.2313 -0.1602
  116MOL0     C15216   5.655   5.308   9.677  0.1191  0.5462 -0.0562
  116MOL0     C15217   5.798   5.253   9.691  1.1357 -0.0464  0.2615
  116MOL0     C15218   5.801   5.126   9.778  0.3828 -0.0068  0.0239
  116MOL0     C15219   5.950   5.085   9.809 -0.4607 -1.1153  0.8511
  116MOL0     C15220   6.013   4.985   9.707  0.0564  0.3795 -0.2748
  116MOL0     C15221   6.164   4.984   9.730  0.0058  0.1064 -0.7252
  116MOL0     C15222   6.231   4.866   9.669  0.5762  0.2164 -0.6207
  116MOL0     C15223   6.202   4.849   9.517 -0.3087  0.0392  0.2927
  116MOL0    Cl15224   6.247   4.685   9.462  0.2693  0.1847 -0.5297
  116MOL0     C15225   5.443   5.550   9.859 -0.1632 -0.2386 -1.1078
  116MOL0     C15226   5.313   5.599   9.854 -0.1163  0.1217  0.6010
  116MOL0     O15227   5.039   5.553   9.963  0.8502  0.0711 -0.3558
  116MOL0     C15228   4.816   5.701   9.730  0.6341 -0.0075 -0.6110
  116MOL0     C15229   4.691   5.756   9.734  0.5509  0.7709  0.2814
  116MOL0     N15230   4.350   6.420   9.578 -0.4140 -0.2009 -0.2416
  116MOL0     N15231   4.400   6.528   9.635  0.0075  0.7889 -0.1864
  116MOL0     C15232   3.552   6.527  10.386 -1.2778 -0.7784  0.8830
  116MOL0     C15233   3.414   6.540  10.410  0.4343 -0.4676  0.1917
  116MOL0     C15234   2.998   6.518  10.558  0.0772 -0.0027 -0.6663
  116MOL0     C15235   2.917   6.587  10.475  0.6687  0.9191 -0.3470
  116MOL0     C15236   2.789   6.612  10.515  0.0779 -0.1168  0.5097
  116MOL0     C15237   2.737   6.556  10.634  0.7624 -0.1934  0.6074
  116MOL0     O15238   2.607   6.574  10.657 -0.0071 -0.1786 -0.0141
  116MOL0     C15239   2.546   6.549  10.787  0.0781  0.1966  0.1778
  116MOL0     C15240   2.390   6.554  10.786  0.4389 -0.8867 -0.3542
  116MOL0     C15241   2.335   6.694  10.770  0.1889  0.2596  0.1997
  116MOL0     C15242   2.340   6.788  10.894 -0.4119 -0.4115 -0.0734
  116MOL0     C15243   2.252   6.729  11.007  0.2893 -0.6309 -0.3399
  116MOL0     C15244   2.154   6.693  11.075 -0.1047  0.1120 -0.3527
  116MOL0     C15245   2.819   6.470  10.710 -0.0306 -0.2011 -0.8517
  116MOL0     C15246   2.958   6.463  10.684 -0.6172 -0.8124  0.0220
  116MOL0     H15247   3.409   6.706  10.705  0.5850 -0.7998  0.2315
  116MOL0     H15248   3.644   6.713  10.648  1.5603 -3.4475  0.7680
  116MOL0     H15249   3.836   6.705  10.313 -2.3458  0.5358  0.7528
  116MOL0     H15250   3.798   6.538  10.274  1.9399  1.4159 -1.1806
  116MOL0     H15251   4.003   6.463  10.376  0.4055  0.3475  1.1406
  116MOL0     H15252   4.033   6.614  10.449 -2.0233 -2.6028  1.5472
  116MOL0     H15253   4.049   6.704  10.195  1.7053 -0.4906 -2.8170
  116MOL0     H15254   4.041   6.528  10.161 -0.2864 -1.0297  0.8922
  116MOL0     H15255   4.244   6.633  10.366  3.0555 -0.8877 -0.0179
  116MOL0     H15256   4.228   6.480  10.277 -0.9930  0.0134 -1.3951
  116MOL0     H15257   4.412   6.636  10.224  0.5188  0.8943 -0.5256
  116MOL0     H15258   4.294   6.750  10.143 -1.2218 -0.9557 -2.8057
  116MOL0     H15259   4.251   6.573   9.982 -0.3557  1.7836  0.8800
  116MOL0     H15260   4.370   6.464  10.067  1.9875  0.5655  0.4925
  116MOL0     H15261   4.417   6.740   9.924 -0.3399 -0.1172 -0.0005
  116MOL0     H15262   4.534   6.676  10.041  1.9633  0.9243 -1.4113
  116MOL0     H15263   4.569   6.477   9.910 -0.8766 -0.6414  2.1129
  116MOL0     H15264   4.580   6.618   9.798 -2.6784  3.5098  1.5197
  116MOL0     H15265   4.352   6.334   9.891  0.5390  4.7732  1.0755
  116MOL0     H15266   4.176   6.224   9.567  0.6597 -1.1708 -0.8502
  116MOL0     H15267   4.157   6.180   9.734  0.4676 -0.8037 -0.5687
  116MOL0     H15268   4.423   6.136   9.594  0.3661 -1.1625  0.1265
  116MOL0     H15269   4.299   6.017   9.559 -0.9716 -0.3002  0.3425
  116MOL0     H15270   4.418   6.082   9.815  0.7257 -0.1211  1.0842
  116MOL0     H15271   4.271   5.981   9.806  0.0956  1.5125 -0.7014
  116MOL0     H15272   4.525   5.941   9.655 -2.6876  0.7482 -1.8440
  116MOL0     H15273   4.409   5.812   9.681  1.4673  0.2936 -3.2232
  116MOL0     H15274   4.655   5.780  10.069 -0.9151  1.5858 -0.2437
  116MOL0     H15275   4.864   5.665  10.062  2.5527 -0.9017 -1.2111
  116MOL0     H15276   5.200   5.431   9.573  0.0463  0.7201 -0.3198
  116MOL0     H15277   5.436   5.362   9.569 -1.0726 -1.1090 -0.2740
  116MOL0     H15278   5.673   5.354   9.579 -0.5394 -0.9232 -0.9034
  116MOL0     H15279   5.576   5.233   9.666 -0.7093  1.6911 -2.8866
  116MOL0     H15280   5.866   5.335   9.718  1.4555  0.6667 -2.4018
  116MOL0     H15281   5.834   5.220   9.594 -1.6832  0.3023 -1.0018
  116MOL0     H15282   5.748   5.049   9.721 -1.9281  1.2756  0.2994
  116MOL0     H15283   5.741   5.137   9.869 -0.4990 -1.3309 -0.3664
  116MOL0     H15284   6.010   5.176   9.816  0.3833 -1.3084 -2.1722
  116MOL0     H15285   5.952   5.039   9.908 -2.5159 -0.2711  1.3326
  116MOL0     H15286   5.993   5.010   9.602  0.7111 -0.0802 -0.5124
  116MOL0     H15287   5.970   4.886   9.728  2.2898 -0.3875  0.9596
  116MOL0     H15288   6.189   4.977   9.837  2.4407  0.5897 -1.2070
  116MOL0     H15289   6.210   5.079   9.700 -0.2249  0.4070 -0.1413
  116MOL0     H15290   6.339   4.883   9.672  1.5360 -3.7597 -3.3338
  116MOL0     H15291   6.192   4.784   9.731 -0.5749  0.0486 -1.5266
  116MOL0     H15292   6.264   4.928   9.474 -1.2455 -0.1513 -1.4954
  116MOL0     H15293   6.100   4.875   9.489  0.6283  0.9279 -2.5817
  116MOL0     H15294   5.494   5.579   9.950 -1.3395  2.1952 -1.1436
  116MOL0     H15295   5.281   5.669   9.931  0.1878 -2.1067  2.8534
  116MOL0     H15296   4.863   5.678   9.635  1.0356 -1.1329 -0.1537
  116MOL0     H15297   4.642   5.765   9.637  0.0235 -0.8280  0.3734
  116MOL0     H15298   3.586   6.460  10.307  2.0022 -0.2703  1.7085
  116MOL0     H15299   3.343   6.489  10.345  0.5769  1.9370 -2.0514
  116MOL0     H15300   2.954   6.637  10.386 -1.3430  3.3127  0.0642
  116MOL0     H15301   2.721   6.666  10.450 -2.0783 -1.9710  1.0798
  116MOL0     H15302   2.576   6.617  10.868 -1.6317 -0.6049  1.5494
  116MOL0     H15303   2.573   6.447  10.814 -0.1872 -0.0575 -0.4934
  116MOL0     H15304   2.360   6.489  10.703 -2.1202 -3.6272  2.4653
  116MOL0     H15305   2.346   6.515  10.878 -0.1086 -1.2882 -0.7796
  116MOL0     H15306   2.230   6.682  10.742  0.0899  1.1196  0.1901
  116MOL0     H15307   2.379   6.738  10.680 -2.5802 -0.6919 -1.7661
  116MOL0     H15308   2.443   6.789  10.930 -0.3429 -1.5151 -0.1901
  116MOL0     H15309   2.309   6.886  10.858 -2.3128 -1.3215 -1.0638
  116MOL0     H15310   2.073   6.655  11.134 -1.6362  3.6477  0.1154
  116MOL0     H15311   2.785   6.416  10.798  1.5341  2.0344  1.2361
  116MOL0     H15312   3.023   6.403  10.747 -2.1044 -0.2887  2.2061
  117MOL0     O15313   0.508   8.948   5.585  0.4613  0.3145 -1.0168
  117MOL0     C15314   0.533   9.033   5.498 -0.0370  0.4261 -0.6473
  117MOL0     O15315   0.457   9.143   5.482  0.4962  0.3337  0.0731
  117MOL0     C15316   0.358   9.161   5.565  1.1440 -1.1178 -0.0906
  117MOL0     C15317   0.367   9.264   5.668  0.0105  0.0839  0.8341
  117MOL0     C15318   0.259   9.281   5.749  0.0027  0.4014 -0.3676
  117MOL0     C15319   0.140   9.215   5.726  1.4951  0.3819 -1.7122
  117MOL0     O15320   0.045   9.246   5.818 -0.0976 -0.3487 -0.2562
  117MOL0     C15321  -0.091   9.203   5.789  0.3942  0.6336  0.6003
  117MOL0     C15322  -0.178   9.289   5.886 -0.0613 -0.2851  0.6459
  117MOL0     C15323  -0.318   9.306   5.831  0.2046  0.3341 -0.3557
  117MOL0     C15324  -0.414   9.369   5.929  0.3677 -0.0019 -0.1981
  117MOL0     C15325  -0.544   9.402   5.860  0.3173  0.3673 -0.0040
  117MOL0     C15326  -0.638   9.482   5.950  0.7024  0.3269 -0.6682
  117MOL0     C15327  -0.787   9.478   5.896  0.1491  0.3660  0.0407
  117MOL0     C15328  -0.881   9.544   5.998 -0.1429 -0.2468  0.0175
  117MOL0     N15329  -1.023   9.551   5.951  0.1603 -0.2044  0.3560
  117MOL0     C15330  -1.125   9.621   6.015  0.1497  0.5714  1.0615
  117MOL0     C15331  -1.238   9.585   5.951 -0.8321 -0.5243  0.1543
  117MOL0     C15332  -1.380   9.633   5.970 -0.0871  0.3799  0.3254
  117MOL0     C15333  -1.396   9.761   5.873  0.0953  0.7419 -0.3416
  117MOL0     C15334  -1.540   9.811   5.880 -0.0818 -0.2458 -0.0081
  117MOL0     C15335  -1.642   9.722   5.802 -0.0648 -0.0969 -0.3098
  117MOL0     O15336  -1.680   9.603   5.879  0.6023 -0.3462  0.7335
  117MOL0     C15337  -1.791   9.624   5.960 -0.0400  0.4579  0.5922
  117MOL0     C15338  -1.918   9.656   5.917  0.4639 -0.0899  0.0255
  117MOL0     C15339  -2.026   9.680   5.998 -0.6871  0.5269 -0.3999
  117MOL0     C15340  -2.001   9.684   6.144  0.5204 -0.0691  0.2497
  117MOL0     C15341  -2.107   9.708   6.237  0.2908  0.3712  0.1412
  117MOL0     O15342  -2.082   9.701   6.368 -0.3842 -0.7897  0.1440
  117MOL0     C15343  -2.178   9.709   6.470 -0.0234  0.3243  0.6741
  117MOL0     C15344  -2.310   9.673   6.469  0.4162 -0.2283  1.1317
  117MOL0     C15345  -2.402   9.701   6.569 -0.0358  0.2155  0.2700
  117MOL0     C15346  -2.346   9.752   6.685  0.5469  0.0964  0.8714
  117MOL0     O15347  -2.414   9.792   6.797  0.1320 -0.0345  0.0978
  117MOL0     C15348  -2.561   9.776   6.803  0.1181 -0.6518  0.7783
  117MOL0     C15349  -2.609   9.862   6.921 -0.9440  0.7331 -0.3146
  117MOL0     C15350  -2.756   9.856   6.939  0.4533 -0.5945  0.0821
  117MOL0     C15351  -2.819   9.948   6.835 -0.3911 -0.2541 -0.0011
  117MOL0     C15352  -2.964   9.957   6.848 -0.3232  0.4752 -0.1039
  117MOL0     C15353  -3.024  10.040   6.732  0.8660 -0.0969  0.4703
  117MOL0     C15354  -3.059   9.946   6.616  0.4459 -0.2404  0.7907
  117MOL0     C15355  -3.192   9.869   6.641 -0.7341 -0.0485 -0.0822
  117MOL0    Cl15356  -3.343   9.976   6.615  0.1553 -0.0635 -0.4075
  117MOL0     C15357  -2.206   9.766   6.700 -0.6632 -0.3339  0.0557
  117MOL0     C15358  -2.129   9.754   6.587 -0.8889 -0.2166 -0.0948
  117MOL0     O15359  -2.222   9.705   6.193  0.9569 -0.0978 -0.1228
  117MOL0     C15360  -1.874   9.658   6.189 -0.7666 -0.6650 -0.5986
  117MOL0     C15361  -1.768   9.623   6.098  0.2224  0.4914  0.0548
  117MOL0     N15362  -1.207   9.492   5.857 -0.6861 -0.9073  0.0763
  117MOL0     N15363  -1.084   9.476   5.862  0.2130  0.0048  0.0644
  117MOL0     C15364   0.127   9.118   5.623 -0.1804 -0.5930 -0.7912
  117MOL0     C15365   0.239   9.084   5.544  0.0152 -1.1691 -0.9414
  117MOL0     C15366   0.655   9.016   5.422 -0.2627  0.3572 -0.0401
  117MOL0     C15367   0.749   9.116   5.429 -0.3319  0.3914  0.1956
  117MOL0     C15368   0.877   9.100   5.368 -0.3013  0.1517  0.3804
  117MOL0     C15369   0.905   8.982   5.304  0.8811 -0.9046 -0.5965
  117MOL0     O15370   1.039   8.969   5.263  0.1382 -0.6056 -0.3470
  117MOL0     C15371   1.059   8.846   5.189 -0.4438  0.2509 -0.1096
  117MOL0     C15372   1.204   8.849   5.122 -0.1939 -0.3176  0.2702
  117MOL0     C15373   1.239   8.730   5.036 -0.2332  0.1097  0.3644
  117MOL0     C15374   1.360   8.756   4.934  0.1192  1.2207 -0.3942
  117MOL0     C15375   1.482   8.765   5.011 -0.2512  0.3264 -0.0565
  117MOL0     C15376   1.585   8.779   5.072 -0.5601  0.0993 -0.6294
  117MOL0     C15377   0.805   8.882   5.302  0.4305 -0.8337 -0.1198
  117MOL0     C15378   0.682   8.895   5.358 -0.0097 -0.1606  0.1666
  117MOL0     H15379   0.459   9.319   5.686  0.6534 -1.5670  3.2216
  117MOL0     H15380   0.259   9.342   5.839 -0.9342  0.5131 -0.4245
  117MOL0     H15381  -0.094   9.098   5.820  1.6379  1.3530  3.5278
  117MOL0     H15382  -0.114   9.212   5.682  0.9120  1.1671  0.5300
  117MOL0     H15383  -0.144   9.393   5.894 -0.7658  0.0067 -0.0927
  117MOL0     H15384  -0.183   9.251   5.988  3.5776  1.2340  1.5767
  117MOL0     H15385  -0.351   9.204   5.808  2.2719 -0.0978 -1.7672
  117MOL0     H15386  -0.312   9.366   5.740 -0.4257 -0.3298 -0.8450
  117MOL0     H15387  -0.424   9.300   6.013  0.1184  0.0843 -0.1559
  117MOL0     H15388  -0.364   9.458   5.969  2.7480 -1.5255  0.4383
  117MOL0     H15389  -0.601   9.312   5.833 -2.3996  1.6463  1.1058
  117MOL0     H15390  -0.518   9.462   5.773  1.3143  0.4881  0.3611
  117MOL0     H15391  -0.615   9.588   5.966 -0.1617  0.2922  1.0574
  117MOL0     H15392  -0.645   9.437   6.049 -2.9911 -1.4920 -1.6053
  117MOL0     H15393  -0.788   9.547   5.812 -1.2915  0.4546  0.1013
  117MOL0     H15394  -0.805   9.376   5.863 -0.6178  0.8612 -1.1185
  117MOL0     H15395  -0.855   9.648   6.019  3.4777 -0.5187 -2.2443
  117MOL0     H15396  -0.883   9.482   6.087  1.8503 -0.2115  0.1385
  117MOL0     H15397  -1.111   9.704   6.084 -1.9810  0.7094  1.4041
  117MOL0     H15398  -1.405   9.649   6.075  1.7331  2.1712  0.5531
  117MOL0     H15399  -1.441   9.549   5.935 -0.1432 -0.9977  3.4240
  117MOL0     H15400  -1.352   9.735   5.777  4.4853  1.4973  1.2200
  117MOL0     H15401  -1.334   9.840   5.919 -0.3046  0.3261  0.9573
  117MOL0     H15402  -1.573   9.799   5.984  0.4969  0.6017  0.2837
  117MOL0     H15403  -1.540   9.918   5.859  0.1284 -0.0935  0.7330
  117MOL0     H15404  -1.584   9.690   5.715  0.2977 -0.7629  0.1657
  117MOL0     H15405  -1.731   9.779   5.775  0.0237  2.4822  4.0284
  117MOL0     H15406  -1.933   9.658   5.810 -0.1812 -0.3755  0.1069
  117MOL0     H15407  -2.127   9.696   5.961 -0.2066  3.1707 -0.7928
  117MOL0     H15408  -2.361   9.616   6.391 -1.1299 -1.4610  2.9677
  117MOL0     H15409  -2.507   9.676   6.560  0.4495 -2.0136  0.1006
  117MOL0     H15410  -2.596   9.673   6.815 -2.5693  0.2241  1.0420
  117MOL0     H15411  -2.615   9.809   6.713 -0.4901 -1.8142  0.7029
  117MOL0     H15412  -2.562   9.958   6.896 -0.0827  0.2324 -0.6290
  117MOL0     H15413  -2.572   9.829   7.018 -0.3431  1.6853 -0.2122
  117MOL0     H15414  -2.771   9.893   7.040  1.7491 -0.2007  0.1506
  117MOL0     H15415  -2.799   9.755   6.942  0.8101 -0.7245  0.9219
  117MOL0     H15416  -2.785  10.050   6.854 -0.1973 -0.3223  0.0237
  117MOL0     H15417  -2.789   9.917   6.734 -0.6888 -0.6096  0.0183
  117MOL0     H15418  -2.982  10.024   6.932 -0.6559  0.4546 -0.1574
  117MOL0     H15419  -3.013   9.861   6.863  0.6120 -0.0682 -0.4358
  117MOL0     H15420  -2.959  10.123   6.704 -1.5543  1.7590  0.0346
  117MOL0     H15421  -3.119  10.085   6.760  0.3871 -1.0710  0.4418
  117MOL0     H15422  -3.078  10.009   6.528 -2.0168 -0.7723  0.8821
  117MOL0     H15423  -2.974   9.882   6.590  1.3796  1.0521  0.5237
  117MOL0     H15424  -3.199   9.816   6.737 -2.2019  0.8520  0.3545
  117MOL0     H15425  -3.205   9.790   6.566  1.0809  1.5434 -2.2146
  117MOL0     H15426  -2.175   9.807   6.795  4.8755 -2.6622 -0.3429
  117MOL0     H15427  -2.025   9.782   6.598 -0.1838 -2.6754 -0.0179
  117MOL0     H15428  -1.852   9.669   6.295 -0.0838  2.0634 -0.9549
  117MOL0     H15429  -1.673   9.612   6.149  0.9774  0.3056 -1.3389
  117MOL0     H15430   0.036   9.063   5.601  1.2129 -3.1088 -0.7242
  117MOL0     H15431   0.224   9.006   5.470  1.4305 -1.4925 -0.9190
  117MOL0     H15432   0.712   9.207   5.475 -0.6873 -1.0644  3.0580
  117MOL0     H15433   0.965   9.163   5.364  0.2230 -0.6054 -0.2205
  117MOL0     H15434   0.987   8.842   5.108  1.9113 -1.4536 -2.2908
  117MOL0     H15435   1.042   8.762   5.257 -1.5054  0.9417  0.4996
  117MOL0     H15436   1.203   8.934   5.053 -1.3708 -1.2295 -0.8966
  117MOL0     H15437   1.280   8.867   5.199 -0.4413 -0.9839  0.6816
  117MOL0     H15438   1.148   8.711   4.979 -0.8616  2.2556  0.5626
  117MOL0     H15439   1.250   8.644   5.101 -0.8430 -1.9793 -2.1278
  117MOL0     H15440   1.370   8.664   4.875  0.7312 -0.2769  1.8760
  117MOL0     H15441   1.338   8.840   4.868  1.8389  0.3211 -2.2484
  117MOL0     H15442   1.682   8.789   5.114  0.3335  1.4438 -2.8342
  117MOL0     H15443   0.819   8.784   5.257  2.2535 -0.6275 -0.0753
  117MOL0     H15444   0.611   8.814   5.368 -0.0813 -0.3473 -1.6295
  118MOL0     O15445  10.491   5.437   6.560 -0.0577  0.2655  0.1329
  118MOL0     C15446  10.541   5.535   6.612  0.1466 -0.8839 -0.3785
  118MOL0     O15447  10.467   5.640   6.680 -0.7485 -0.1266 -0.1070
  118MOL0     C15448  10.329   5.648   6.689  0.2756  0.8090 -1.1285
  118MOL0     C15449  10.249   5.536   6.712 -0.6503  0.6898  1.0933
  118MOL0     C15450  10.110   5.542   6.702 -0.1806 -0.2272  0.6124
  118MOL0     C15451  10.057   5.669   6.698  0.5487  0.6433  0.4401
  118MOL0     O15452   9.918   5.667   6.703 -0.6716  0.2280  0.8465
  118MOL0     C15453   9.843   5.791   6.708 -0.5567 -0.3643 -0.7414
  118MOL0     C15454   9.700   5.770   6.759 -1.1521  0.8878 -0.1328
  118MOL0     C15455   9.626   5.665   6.671 -0.3520  0.3814 -0.0360
  118MOL0     C15456   9.476   5.673   6.717  0.1992 -1.0898  0.2525
  118MOL0     C15457   9.390   5.562   6.648 -0.1085 -0.3748 -0.1792
  118MOL0     C15458   9.240   5.592   6.670 -0.6404 -0.4717  0.6871
  118MOL0     C15459   9.178   5.467   6.609 -0.1983 -0.6342 -0.2483
  118MOL0     C15460   9.031   5.476   6.613  0.5052  0.0512  0.5393
  118MOL0     N15461   8.975   5.363   6.534 -0.5528 -0.0142 -0.4269
  118MOL0     C15462   8.884   5.275   6.567 -0.8016 -0.4802 -0.2517
  118MOL0     C15463   8.855   5.203   6.452 -0.4088 -0.0998  0.6325
  118MOL0     C15464   8.752   5.094   6.424 -0.2364  0.4043 -0.0920
  118MOL0     C15465   8.795   4.994   6.309  0.1869 -0.0410 -0.0496
  118MOL0     C15466   8.683   4.889   6.282 -0.5911 -0.5513  0.0891
  118MOL0     C15467   8.627   4.827   6.409 -0.1077 -0.3215  1.1797
  118MOL0     O15468   8.567   4.698   6.376  0.2102  0.4074 -0.2804
  118MOL0     C15469   8.440   4.694   6.318 -0.4814  0.4293  0.2129
  118MOL0     C15470   8.414   4.575   6.253 -0.3521  0.5880  0.3815
  118MOL0     C15471   8.289   4.563   6.183  0.1577 -0.2503 -0.5961
  118MOL0     C15472   8.198   4.672   6.172 -0.4348 -0.0883  0.8964
  118MOL0     C15473   8.082   4.659   6.079 -0.4177  0.4765  0.1274
  118MOL0     O15474   8.010   4.773   6.044  0.6577  0.6609  0.0298
  118MOL0     C15475   7.905   4.764   5.961  1.0308  0.0480 -0.7562
  118MOL0     C15476   7.795   4.671   5.983  0.1337 -0.6084  0.4360
  118MOL0     C15477   7.691   4.673   5.892 -0.3211  0.0534 -0.1578
  118MOL0     C15478   7.675   4.770   5.796  0.1892 -0.2433  0.2448
  118MOL0     O15479   7.571   4.790   5.707  0.3221  0.0603  0.4805
  118MOL0     C15480   7.443   4.722   5.728 -0.4657  0.3430  0.0316
  118MOL0     C15481   7.341   4.787   5.627  0.2314 -0.1491  0.9545
  118MOL0     C15482   7.208   4.704   5.607 -0.2368  0.0395 -0.0550
  118MOL0     C15483   7.227   4.575   5.531 -0.9676 -0.3660  0.5061
  118MOL0     C15484   7.109   4.485   5.540 -0.3818  0.3300  0.3323
  118MOL0     C15485   6.986   4.539   5.466 -0.7536 -0.1019 -0.0052
  118MOL0     C15486   6.880   4.442   5.479 -0.1448  0.0718 -0.8265
  118MOL0     C15487   6.759   4.486   5.408  0.6475 -0.1369 -0.2680
  118MOL0    Cl15488   6.653   4.343   5.370  0.0962 -0.5003 -0.1672
  118MOL0     C15489   7.782   4.868   5.776  0.3437  0.0557 -0.0617
  118MOL0     C15490   7.899   4.861   5.858 -0.0679  0.6140  0.0358
  118MOL0     O15491   8.053   4.542   6.042  0.0824  0.2626 -0.7975
  118MOL0     C15492   8.234   4.790   6.232  0.3839 -0.3989 -0.4738
  118MOL0     C15493   8.358   4.802   6.308 -0.2873  0.0246  0.8773
  118MOL0     N15494   8.934   5.253   6.352 -0.5003 -0.0194  0.1591
  118MOL0     N15495   9.008   5.339   6.407 -1.1060 -0.3090 -0.1000
  118MOL0     C15496  10.133   5.785   6.687  0.2677  0.4864  0.4371
  118MOL0     C15497  10.273   5.778   6.686  0.2189  0.0770 -0.2550
  118MOL0     C15498  10.687   5.550   6.608 -1.0045  0.1383 -0.3874
  118MOL0     C15499  10.756   5.668   6.654  0.6590 -0.4651  0.1263
  118MOL0     C15500  10.890   5.680   6.656 -0.1998 -0.3805 -0.8029
  118MOL0     C15501  10.965   5.573   6.621 -0.2557 -0.3830  0.0593
  118MOL0     O15502  11.097   5.602   6.649  0.1013  0.4852  0.3192
  118MOL0     C15503  11.179   5.484   6.643 -0.5528  1.0262  0.4545
  118MOL0     C15504  11.313   5.518   6.708  1.0163  0.2335 -0.1539
  118MOL0     C15505  11.387   5.627   6.624  0.2779 -0.0577  0.4917
  118MOL0     C15506  11.513   5.659   6.695 -0.4613  0.0062 -0.3770
  118MOL0     C15507  11.605   5.547   6.722 -0.9453  0.6416 -0.1694
  118MOL0     C15508  11.664   5.445   6.737  0.5609  0.0719 -0.3905
  118MOL0     C15509  10.908   5.448   6.586  0.2463 -0.1436  0.0861
  118MOL0     C15510  10.771   5.439   6.584  0.0981  0.0705  0.5603
  118MOL0     H15511  10.285   5.433   6.717  1.1317  1.0624 -1.6717
  118MOL0     H15512  10.046   5.455   6.713 -0.7223 -0.6146 -3.7577
  118MOL0     H15513   9.845   5.845   6.613 -1.1624 -0.6079 -0.8989
  118MOL0     H15514   9.904   5.850   6.778  1.2226 -1.7013 -1.0871
  118MOL0     H15515   9.639   5.861   6.754 -4.1000 -1.0226 -1.5294
  118MOL0     H15516   9.704   5.731   6.861  1.7491 -1.2582 -0.9296
  118MOL0     H15517   9.652   5.559   6.681 -0.3978  0.3128 -0.6578
  118MOL0     H15518   9.639   5.686   6.565  0.7402 -0.9503 -0.1940
  118MOL0     H15519   9.462   5.667   6.826 -0.3907 -2.1068  0.1361
  118MOL0     H15520   9.441   5.773   6.691  3.7411 -0.0753 -1.1731
  118MOL0     H15521   9.420   5.479   6.714 -0.6059 -0.9520 -0.6775
  118MOL0     H15522   9.412   5.548   6.542  0.3429  1.2153 -0.3123
  118MOL0     H15523   9.204   5.685   6.626 -1.3911 -1.0107  0.1354
  118MOL0     H15524   9.208   5.600   6.774 -2.8653  2.9087 -0.1055
  118MOL0     H15525   9.213   5.467   6.505 -0.9357 -3.1716 -0.5856
  118MOL0     H15526   9.202   5.370   6.654  1.3737  0.0558  0.4300
  118MOL0     H15527   8.982   5.557   6.558  0.7154 -1.7684 -2.5554
  118MOL0     H15528   8.981   5.465   6.709 -0.7150  0.2460 -0.0580
  118MOL0     H15529   8.840   5.259   6.664 -0.6502  1.2289  0.1290
  118MOL0     H15530   8.657   5.142   6.400  0.0009  1.0179  0.1783
  118MOL0     H15531   8.731   5.048   6.521 -2.2371  0.7771 -0.3010
  118MOL0     H15532   8.887   4.945   6.342 -1.1268 -0.4037  3.6020
  118MOL0     H15533   8.812   5.051   6.217 -0.1616 -0.3881 -0.3291
  118MOL0     H15534   8.593   4.933   6.239 -0.2080 -1.8958 -2.2647
  118MOL0     H15535   8.718   4.815   6.209 -0.7456  1.1496 -1.7870
  118MOL0     H15536   8.567   4.897   6.467  0.9256 -0.1523  2.0837
  118MOL0     H15537   8.712   4.812   6.477  1.3916 -0.9565 -0.7324
  118MOL0     H15538   8.475   4.486   6.260 -0.8808  0.2570  0.9531
  118MOL0     H15539   8.266   4.470   6.133 -0.9742 -1.3230  1.8003
  118MOL0     H15540   7.794   4.590   6.055 -2.9405 -1.6301 -0.5968
  118MOL0     H15541   7.603   4.612   5.905  0.5661 -1.0413  0.9019
  118MOL0     H15542   7.412   4.744   5.831  1.0351 -1.6182  0.9557
  118MOL0     H15543   7.447   4.615   5.708 -0.1545  0.8281 -2.9378
  118MOL0     H15544   7.399   4.805   5.536 -0.2739 -0.6550  0.5220
  118MOL0     H15545   7.319   4.882   5.676  3.2007 -0.5812  3.4237
  118MOL0     H15546   7.139   4.761   5.545 -0.0891  1.3244  0.9244
  118MOL0     H15547   7.173   4.683   5.708 -0.3578  1.9982  0.3379
  118MOL0     H15548   7.245   4.600   5.426 -0.0266  3.3480  1.4102
  118MOL0     H15549   7.319   4.527   5.565 -2.0818 -1.6789  1.7692
  118MOL0     H15550   7.088   4.455   5.643 -1.5716  0.4157  0.1204
  118MOL0     H15551   7.150   4.396   5.490 -3.1984 -0.8105 -0.0982
  118MOL0     H15552   7.008   4.536   5.359 -0.9696  0.2616 -0.0595
  118MOL0     H15553   6.960   4.639   5.501 -1.3922  0.4107 -1.8778
  118MOL0     H15554   6.904   4.347   5.430  2.0500 -0.4098  1.0145
  118MOL0     H15555   6.856   4.426   5.585  1.7718  1.6149 -0.1097
  118MOL0     H15556   6.790   4.537   5.316  0.9563  1.7238  0.8090
  118MOL0     H15557   6.705   4.559   5.470 -0.6864 -0.8267 -0.5768
  118MOL0     H15558   7.769   4.945   5.701 -1.0413  1.8431  1.9006
  118MOL0     H15559   7.987   4.924   5.847  1.1712 -1.1080 -0.3746
  118MOL0     H15560   8.181   4.885   6.224  2.3253  0.8420  0.6502
  118MOL0     H15561   8.388   4.901   6.342  1.0724 -0.2288  0.4830
  118MOL0     H15562  10.085   5.881   6.677 -2.9218 -0.9684  0.7101
  118MOL0     H15563  10.345   5.858   6.672  2.3192 -1.7349 -0.4547
  118MOL0     H15564  10.691   5.751   6.681  1.4272 -0.1004  0.9040
  118MOL0     H15565  10.930   5.771   6.699 -1.3629 -0.2136 -0.0497
  118MOL0     H15566  11.195   5.453   6.539 -0.7356  2.3993 -0.0031
  118MOL0     H15567  11.139   5.403   6.704  4.1068 -2.4786 -0.5483
  118MOL0     H15568  11.284   5.557   6.806 -1.5064  0.5321 -0.9250
  118MOL0     H15569  11.380   5.433   6.718  1.8043  0.8998  0.4081
  118MOL0     H15570  11.316   5.703   6.591 -1.7894 -2.0650  0.0767
  118MOL0     H15571  11.426   5.583   6.531  2.2505  0.2079  1.1489
  118MOL0     H15572  11.571   5.728   6.633 -3.0865  1.6888 -1.1350
  118MOL0     H15573  11.491   5.717   6.785  0.5033 -0.4266  0.1500
  118MOL0     H15574  11.704   5.346   6.729 -2.4606 -1.4258  0.9466
  118MOL0     H15575  10.970   5.360   6.573 -0.8964 -1.2679  1.8498
  118MOL0     H15576  10.730   5.340   6.566  1.7249 -0.3455 -1.1081
  119MOL0     O15577   9.251   6.306   2.545 -0.4584 -0.8167 -0.5237
  119MOL0     C15578   9.296   6.315   2.656 -0.2060 -0.1816  0.0063
  119MOL0     O15579   9.225   6.374   2.762  0.4043  0.4394 -0.2106
  119MOL0     C15580   9.094   6.403   2.729 -0.2815  0.2494 -0.7350
  119MOL0     C15581   9.063   6.529   2.702  0.2029  0.2499 -0.8762
  119MOL0     C15582   8.944   6.567   2.652 -0.1366 -0.0344 -0.0028
  119MOL0     C15583   8.847   6.467   2.631  0.5548 -0.8051 -0.4749
  119MOL0     O15584   8.724   6.506   2.594 -0.4532  0.0265  0.3964
  119MOL0     C15585   8.714   6.597   2.483 -0.2386 -0.7138 -0.8116
  119MOL0     C15586   8.591   6.692   2.509  0.2010  0.3276 -0.5623
  119MOL0     C15587   8.450   6.625   2.503  0.1706  0.2359  0.5999
  119MOL0     C15588   8.339   6.711   2.548 -0.2176 -1.5379 -0.1667
  119MOL0     C15589   8.205   6.654   2.539 -0.1941  0.0386  0.2198
  119MOL0     C15590   8.095   6.734   2.616 -0.3204 -0.6271  0.4142
  119MOL0     C15591   7.966   6.661   2.623  0.3939  0.5397 -0.5676
  119MOL0     C15592   7.927   6.589   2.490  0.1071  0.8710  0.0377
  119MOL0     N15593   7.789   6.543   2.508  0.0999 -0.6306  0.0516
  119MOL0     C15594   7.738   6.416   2.521 -0.4319 -0.5121  0.2165
  119MOL0     C15595   7.603   6.434   2.499  0.0688  0.3019 -0.1445
  119MOL0     C15596   7.495   6.327   2.494  0.0885  0.0242  0.5153
  119MOL0     C15597   7.549   6.215   2.400  0.3241  0.5044  0.7025
  119MOL0     C15598   7.466   6.086   2.412 -0.2052  0.5153  0.1480
  119MOL0     C15599   7.323   6.057   2.352  0.2576  0.6240 -0.1266
  119MOL0     O15600   7.326   6.096   2.210 -0.0047 -0.0181 -0.1442
  119MOL0     C15601   7.201   6.081   2.146 -1.0685  0.3465  0.7167
  119MOL0     C15602   7.163   6.175   2.044 -0.3472  0.3951 -0.3963
  119MOL0     C15603   7.043   6.167   1.969 -0.5597 -0.0737 -0.3088
  119MOL0     C15604   6.959   6.055   2.001 -0.0672  0.2659  0.1433
  119MOL0     C15605   6.824   6.038   1.936 -0.1259 -0.5807  0.8099
  119MOL0     O15606   6.774   6.144   1.857  0.5278  0.1809  0.1054
  119MOL0     C15607   6.643   6.134   1.803  1.1161 -0.1157 -0.2685
  119MOL0     C15608   6.575   6.252   1.801 -0.6502 -0.1514 -0.1989
  119MOL0     C15609   6.438   6.273   1.761  0.8164  0.8431 -0.9693
  119MOL0     C15610   6.370   6.153   1.727  0.2322 -0.6725  0.4453
  119MOL0     O15611   6.233   6.166   1.719  0.6137  0.4370 -0.4028
  119MOL0     C15612   6.156   6.076   1.643 -0.0997 -0.0718 -0.7749
  119MOL0     C15613   6.071   5.985   1.742 -0.0514 -1.0946 -0.2008
  119MOL0     C15614   5.989   6.055   1.853  0.1047  0.4257 -0.0744
  119MOL0     C15615   5.923   5.942   1.938 -0.0187 -0.7609 -0.1277
  119MOL0     C15616   5.801   5.983   2.028  0.0060 -0.6523  0.1936
  119MOL0     C15617   5.762   5.860   2.110  0.2072 -0.1262 -0.1577
  119MOL0     C15618   5.645   5.896   2.193 -0.9579  0.0545  0.5359
  119MOL0     C15619   5.586   5.771   2.261 -0.8418 -0.1055 -0.5227
  119MOL0    Cl15620   5.464   5.812   2.382 -0.2541  0.6010 -0.5201
  119MOL0     C15621   6.431   6.027   1.734 -0.0414 -1.1741  0.8297
  119MOL0     C15622   6.570   6.021   1.765  0.8878  0.8077  0.1320
  119MOL0     O15623   6.752   5.953   1.988 -0.6918 -0.3291 -0.0196
  119MOL0     C15624   7.001   5.959   2.096 -0.9209 -0.1736  0.2001
  119MOL0     C15625   7.119   5.973   2.166 -0.0475 -0.5808 -0.9510
  119MOL0     N15626   7.577   6.565   2.450 -0.4355 -0.2026  0.1654
  119MOL0     N15627   7.686   6.627   2.464 -0.4543  0.5700  0.0468
  119MOL0     C15628   8.870   6.343   2.664 -0.2391  0.8299 -0.9500
  119MOL0     C15629   8.994   6.301   2.714 -0.6829 -0.4384  0.5260
  119MOL0     C15630   9.431   6.279   2.666 -0.1232  0.7136 -0.9541
  119MOL0     C15631   9.516   6.348   2.755  0.1739  0.2903  0.6940
  119MOL0     C15632   9.652   6.308   2.762 -0.8637 -0.0560 -0.3364
  119MOL0     C15633   9.708   6.206   2.685  0.5603 -0.5449 -0.9001
  119MOL0     O15634   9.825   6.135   2.718  0.4312  1.0676 -0.1979
  119MOL0     C15635   9.918   6.191   2.820  0.2927  0.0869  0.4206
  119MOL0     C15636  10.013   6.289   2.754  1.1559 -0.3240 -0.1128
  119MOL0     C15637  10.119   6.218   2.658  0.3206 -0.2687 -0.7608
  119MOL0     C15638  10.212   6.328   2.607  1.3915 -0.0325 -0.0959
  119MOL0     C15639  10.318   6.262   2.528  0.3846 -0.1527 -0.6958
  119MOL0     C15640  10.398   6.204   2.466 -0.4795  0.1252 -0.3751
  119MOL0     C15641   9.619   6.136   2.601 -0.4424  0.1724 -0.4419
  119MOL0     C15642   9.483   6.169   2.593 -0.7121  0.0580 -0.2224
  119MOL0     H15643   9.139   6.602   2.725  0.8288  0.5495 -3.5300
  119MOL0     H15644   8.929   6.671   2.627  1.3633  0.1052 -0.4436
  119MOL0     H15645   8.695   6.536   2.394 -3.6009 -0.2568 -0.5148
  119MOL0     H15646   8.804   6.657   2.467 -0.1052 -0.8901 -0.7271
  119MOL0     H15647   8.599   6.762   2.425  1.3827  2.0357  0.8968
  119MOL0     H15648   8.598   6.744   2.605 -1.1847  0.6159 -0.6023
  119MOL0     H15649   8.458   6.537   2.567  3.2960 -1.2266 -1.5333
  119MOL0     H15650   8.429   6.578   2.406 -1.0289  0.7811  0.5819
  119MOL0     H15651   8.360   6.730   2.654  1.7927 -0.3271 -0.7203
  119MOL0     H15652   8.343   6.809   2.500  1.0831 -1.5034 -0.0050
  119MOL0     H15653   8.204   6.554   2.585 -0.7090 -0.5918 -1.0965
  119MOL0     H15654   8.180   6.639   2.434 -3.0776  1.4883  0.6191
  119MOL0     H15655   8.088   6.829   2.562 -1.2906 -1.0787 -0.2942
  119MOL0     H15656   8.131   6.752   2.718  0.4803 -2.3331  0.4688
  119MOL0     H15657   7.980   6.582   2.698  1.0975 -0.3833 -1.6412
  119MOL0     H15658   7.887   6.730   2.655  1.4936  1.0256  1.2811
  119MOL0     H15659   7.986   6.498   2.477 -2.2767 -0.7785 -0.0036
  119MOL0     H15660   7.927   6.644   2.396 -3.7604  1.7669  0.3573
  119MOL0     H15661   7.778   6.317   2.541  3.0363  1.1123  2.2080
  119MOL0     H15662   7.403   6.367   2.451  1.3058  2.3135 -0.1483
  119MOL0     H15663   7.471   6.301   2.597  1.0101  2.9913  1.5819
  119MOL0     H15664   7.651   6.194   2.432 -0.0996 -1.1079  1.0650
  119MOL0     H15665   7.538   6.254   2.298 -0.6727  1.4727  1.1663
  119MOL0     H15666   7.533   6.010   2.371  0.2554  0.8374  0.2905
  119MOL0     H15667   7.456   6.069   2.520 -2.0416 -0.5158 -0.1489
  119MOL0     H15668   7.250   6.126   2.396  1.4423  1.3848  0.7207
  119MOL0     H15669   7.286   5.956   2.369  1.2645  0.4788  1.3907
  119MOL0     H15670   7.230   6.259   2.030  0.3067 -0.3079 -1.6132
  119MOL0     H15671   7.015   6.245   1.898 -1.3573 -3.8361 -4.5355
  119MOL0     H15672   6.642   6.335   1.821  1.5358 -2.1505  1.2949
  119MOL0     H15673   6.390   6.369   1.770 -0.7428  0.1654 -1.7089
  119MOL0     H15674   6.219   6.010   1.582 -0.6138 -0.4656 -0.8872
  119MOL0     H15675   6.093   6.136   1.578  0.2386  0.1352 -0.9171
  119MOL0     H15676   6.139   5.917   1.795  0.0982 -0.4435  0.4661
  119MOL0     H15677   5.995   5.936   1.680 -0.8595  0.2911 -0.3542
  119MOL0     H15678   5.914   6.124   1.814  0.6527  1.1162  0.0695
  119MOL0     H15679   6.057   6.106   1.922  0.5831 -0.9389  0.5090
  119MOL0     H15680   5.885   5.871   1.864 -1.8531  1.5939 -1.5732
  119MOL0     H15681   6.006   5.909   2.002  1.3197  2.1817 -0.2262
  119MOL0     H15682   5.719   6.019   1.966 -3.3954 -2.5400  3.2407
  119MOL0     H15683   5.839   6.058   2.098  2.4514 -2.4456  0.9419
  119MOL0     H15684   5.848   5.819   2.164  0.2088 -1.8324 -1.3897
  119MOL0     H15685   5.712   5.782   2.052 -0.6660 -0.6004  1.1799
  119MOL0     H15686   5.669   5.976   2.264 -0.3009  0.8282 -0.5206
  119MOL0     H15687   5.562   5.937   2.134  0.8682  2.4328 -0.5364
  119MOL0     H15688   5.669   5.720   2.310 -0.5113  1.1194  0.2502
  119MOL0     H15689   5.547   5.693   2.195 -1.6725 -0.2394  0.1057
  119MOL0     H15690   6.364   5.943   1.722 -1.1267 -0.1471 -0.5951
  119MOL0     H15691   6.615   5.922   1.756 -4.3371 -1.8498 -0.9132
  119MOL0     H15692   6.937   5.873   2.117 -2.8305  1.2101  0.3202
  119MOL0     H15693   7.143   5.891   2.233  2.4169 -1.0121 -2.2648
  119MOL0     H15694   8.798   6.265   2.641  1.3124 -1.2725  0.8223
  119MOL0     H15695   9.028   6.199   2.726  1.5855 -0.0260 -1.6359
  119MOL0     H15696   9.484   6.438   2.806 -1.2078  1.4280 -1.9495
  119MOL0     H15697   9.709   6.361   2.838 -0.9485 -3.9536  2.7613
  119MOL0     H15698   9.978   6.110   2.862 -0.3328  0.5912  2.3993
  119MOL0     H15699   9.860   6.227   2.905 -0.4109 -0.9312  0.3858
  119MOL0     H15700   9.956   6.374   2.716 -2.2144 -1.2660  2.3554
  119MOL0     H15701  10.073   6.333   2.835  3.3922 -2.3282 -0.5637
  119MOL0     H15702  10.062   6.175   2.575  0.8375 -1.5699 -0.4585
  119MOL0     H15703  10.174   6.135   2.702 -1.8997 -1.2146  0.3997
  119MOL0     H15704  10.158   6.388   2.533  2.9715  1.7517  0.1263
  119MOL0     H15705  10.235   6.407   2.679  0.3498  1.3369 -1.1987
  119MOL0     H15706  10.481   6.159   2.416  1.0651  4.1756 -1.8111
  119MOL0     H15707   9.664   6.052   2.550 -1.7465 -0.4118 -0.6686
  119MOL0     H15708   9.418   6.095   2.548 -1.2273 -0.7120  1.6995
  120MOL0     O15709   1.861   1.465   6.681  0.5405 -0.6587 -0.1906
  120MOL0     C15710   1.880   1.350   6.643 -0.7249 -0.1988 -0.5548
  120MOL0     O15711   1.788   1.256   6.621 -0.4950 -0.1582 -0.0369
  120MOL0     C15712   1.660   1.292   6.653  0.2733 -0.7735  0.1672
  120MOL0     C15713   1.603   1.281   6.778  0.5376  0.7495 -0.0185
  120MOL0     C15714   1.474   1.321   6.812 -0.1921 -0.6123 -0.4520
  120MOL0     C15715   1.397   1.387   6.720  0.2648 -0.8626 -0.3418
  120MOL0     O15716   1.263   1.425   6.756 -0.4231 -0.0949 -0.3174
  120MOL0     C15717   1.182   1.494   6.651  0.2388  0.6642  0.6760
  120MOL0     C15718   1.030   1.501   6.678 -0.0686  0.1480 -0.1574
  120MOL0     C15719   0.939   1.560   6.568 -0.2633  0.1848  0.1132
  120MOL0     C15720   0.989   1.687   6.499 -0.9457  0.7719  0.8181
  120MOL0     C15721   0.877   1.777   6.457 -0.0675 -0.2118 -0.1857
  120MOL0     C15722   0.826   1.740   6.314 -0.9706 -0.1011 -0.2032
  120MOL0     C15723   0.737   1.858   6.264  1.0191  0.4677  0.0983
  120MOL0     C15724   0.602   1.848   6.346 -0.5959  1.0099  0.8341
  120MOL0     N15725   0.551   1.973   6.407 -0.8937 -0.0460 -0.2560
  120MOL0     C15726   0.618   2.088   6.429  0.5512  0.3530  0.5020
  120MOL0     C15727   0.528   2.183   6.469 -0.2496 -0.1378  0.5055
  120MOL0     C15728   0.567   2.326   6.500 -0.5291 -0.3968 -0.0642
  120MOL0     C15729   0.451   2.396   6.579 -0.1423  0.4796 -0.1637
  120MOL0     C15730   0.339   2.455   6.490  0.8238 -0.5027 -0.1393
  120MOL0     C15731   0.226   2.517   6.578 -0.0783 -0.6248  0.2749
  120MOL0     O15732   0.128   2.572   6.488  0.2310 -0.0252 -0.2553
  120MOL0     C15733   0.015   2.642   6.535 -0.0267  0.2964  0.5532
  120MOL0     C15734  -0.009   2.685   6.670  0.8259 -0.6325 -0.5484
  120MOL0     C15735  -0.118   2.765   6.699 -0.4322 -0.2668 -0.6159
  120MOL0     C15736  -0.218   2.784   6.606 -0.0501 -0.0577 -0.0711
  120MOL0     C15737  -0.331   2.873   6.639  0.3409 -0.5853  0.2960
  120MOL0     O15738  -0.445   2.867   6.558 -0.0162  0.0867  0.3903
  120MOL0     C15739  -0.537   2.963   6.559  0.3855 -0.6385 -0.1965
  120MOL0     C15740  -0.677   2.928   6.575 -0.1668  1.0482  0.3500
  120MOL0     C15741  -0.779   3.025   6.585  0.3490  0.7946  0.1217
  120MOL0     C15742  -0.749   3.157   6.588  0.1823  0.0147  0.4157
  120MOL0     O15743  -0.825   3.256   6.617  0.5284 -0.3078 -0.4651
  120MOL0     C15744  -0.898   3.231   6.738 -0.3882  0.6267  0.0843
  120MOL0     C15745  -0.982   3.352   6.769 -0.2179  0.5076  0.1385
  120MOL0     C15746  -1.055   3.356   6.902  0.0527 -0.0124 -0.4845
  120MOL0     C15747  -0.964   3.399   7.011  1.3101 -0.4214 -0.4592
  120MOL0     C15748  -1.051   3.426   7.131 -0.2845 -0.5738 -0.4006
  120MOL0     C15749  -1.146   3.314   7.171  0.2890 -0.1834 -0.4114
  120MOL0     C15750  -1.223   3.360   7.310 -0.0633 -0.0179  0.8316
  120MOL0     C15751  -1.303   3.236   7.363  0.0874  0.3997 -0.2034
  120MOL0    Cl15752  -1.408   3.295   7.495 -0.0979  0.3971  0.0892
  120MOL0     C15753  -0.613   3.192   6.573  0.2717  0.2246  0.6157
  120MOL0     C15754  -0.506   3.102   6.561  0.1489  0.0392  0.5362
  120MOL0     O15755  -0.317   2.954   6.724 -0.8159  0.0072 -0.5205
  120MOL0     C15756  -0.203   2.728   6.479  0.1878 -0.4358 -0.2658
  120MOL0     C15757  -0.090   2.658   6.441 -0.0420  0.0706  0.7027
  120MOL0     N15758   0.404   2.128   6.463  0.1564 -0.0388  0.6119
  120MOL0     N15759   0.416   1.999   6.440 -0.4407 -0.0339  0.7807
  120MOL0     C15760   1.452   1.393   6.590  0.2730  0.1974  0.4236
  120MOL0     C15761   1.577   1.348   6.560  0.5014  0.3483  0.2333
  120MOL0     C15762   2.024   1.321   6.592  0.1149 -0.9183 -0.5328
  120MOL0     C15763   2.064   1.187   6.579  0.0781  0.1473  0.2067
  120MOL0     C15764   2.192   1.156   6.544 -0.2370  0.2732  0.6727
  120MOL0     C15765   2.290   1.255   6.529 -0.4862  0.5969  0.4069
  120MOL0     O15766   2.421   1.231   6.487  0.2831 -0.1038  0.2413
  120MOL0     C15767   2.455   1.095   6.452 -0.7178 -0.4516  0.2250
  120MOL0     C15768   2.590   1.085   6.384  0.4862 -0.1021 -0.3311
  120MOL0     C15769   2.697   1.102   6.490 -0.5055  0.4272  0.7490
  120MOL0     C15770   2.839   1.067   6.435 -0.0345 -0.3392  0.4031
  120MOL0     C15771   2.955   1.082   6.528 -0.1866 -0.5070 -0.6721
  120MOL0     C15772   3.043   1.103   6.614  0.6870 -0.2076  0.5454
  120MOL0     C15773   2.258   1.389   6.551 -0.3660 -0.1777  0.8539
  120MOL0     C15774   2.118   1.419   6.579  0.1947  0.4110  0.0958
  120MOL0     H15775   1.666   1.247   6.859 -0.0431  1.2701  0.6659
  120MOL0     H15776   1.423   1.304   6.907 -0.7682  1.2412 -0.3958
  120MOL0     H15777   1.200   1.441   6.556  0.5203  0.7687  0.6711
  120MOL0     H15778   1.217   1.597   6.636 -1.2305  1.0001 -0.8534
  120MOL0     H15779   1.028   1.571   6.762  2.4359  1.5943 -1.1931
  120MOL0     H15780   0.990   1.405   6.712 -2.1098  1.3623  1.0841
  120MOL0     H15781   0.837   1.571   6.604 -0.8815 -2.0277 -0.8210
  120MOL0     H15782   0.922   1.483   6.492 -0.0486 -1.1462  1.3658
  120MOL0     H15783   1.047   1.752   6.564 -1.5020  2.1866 -0.0646
  120MOL0     H15784   1.053   1.665   6.413 -0.2627 -0.3299  1.5785
  120MOL0     H15785   0.915   1.880   6.462  0.5621 -0.5027  2.4560
  120MOL0     H15786   0.802   1.777   6.536  0.1614  1.2998  0.0565
  120MOL0     H15787   0.771   1.645   6.302 -0.9171  0.1878 -3.8610
  120MOL0     H15788   0.913   1.736   6.248 -0.2690  0.8979  0.6478
  120MOL0     H15789   0.785   1.956   6.268  0.4179  0.8475 -1.4295
  120MOL0     H15790   0.711   1.842   6.159  2.7874  1.3203 -0.5138
  120MOL0     H15791   0.611   1.770   6.422  1.1367  1.0875  0.7564
  120MOL0     H15792   0.533   1.806   6.273 -0.3442  0.3256  0.9827
  120MOL0     H15793   0.725   2.102   6.434  0.4172  1.5233  0.3822
  120MOL0     H15794   0.583   2.385   6.409 -1.2471 -1.3781 -0.8579
  120MOL0     H15795   0.654   2.324   6.566 -0.1466  0.0367 -0.5515
  120MOL0     H15796   0.481   2.478   6.645  2.8368  0.3480 -1.1977
  120MOL0     H15797   0.406   2.317   6.641 -0.8945 -0.5094 -1.9118
  120MOL0     H15798   0.367   2.528   6.413 -2.2268 -0.1896 -1.0943
  120MOL0     H15799   0.290   2.381   6.427  3.3848 -0.0167 -2.9320
  120MOL0     H15800   0.260   2.593   6.649  0.7423 -2.1853  1.6035
  120MOL0     H15801   0.171   2.439   6.631  0.1949 -0.2999  1.0493
  120MOL0     H15802   0.064   2.662   6.747 -0.7758 -0.8622  0.9671
  120MOL0     H15803  -0.138   2.809   6.796 -0.7390 -1.7290  0.0164
  120MOL0     H15804  -0.703   2.822   6.581  1.0838  0.7308  0.5307
  120MOL0     H15805  -0.884   2.997   6.591  0.2521  0.0059 -3.0542
  120MOL0     H15806  -0.829   3.222   6.823 -0.6565  1.5323  0.4094
  120MOL0     H15807  -0.960   3.141   6.728 -1.3347  1.0631  1.6676
  120MOL0     H15808  -1.052   3.350   6.685 -1.0623  1.2126  0.8136
  120MOL0     H15809  -0.914   3.437   6.757  1.5349 -0.6514  1.2787
  120MOL0     H15810  -1.103   3.261   6.926 -2.3542  1.3833  0.5556
  120MOL0     H15811  -1.136   3.429   6.897 -0.9605 -1.1104 -0.4420
  120MOL0     H15812  -0.898   3.312   7.020 -0.2122 -1.4488  1.6096
  120MOL0     H15813  -0.906   3.490   6.991  1.4263  1.0725  4.9643
  120MOL0     H15814  -1.114   3.512   7.107  2.5360  1.4809 -0.9872
  120MOL0     H15815  -0.973   3.456   7.202 -0.2148 -2.7911  0.5403
  120MOL0     H15816  -1.104   3.215   7.191 -3.5034 -1.8893 -0.0169
  120MOL0     H15817  -1.220   3.309   7.090 -0.8761  2.4921  0.3987
  120MOL0     H15818  -1.159   3.399   7.389  0.5747  0.2464  0.1987
  120MOL0     H15819  -1.294   3.440   7.286  0.0129 -0.0592  0.4599
  120MOL0     H15820  -1.250   3.150   7.407 -2.5607 -1.3282 -0.1950
  120MOL0     H15821  -1.362   3.193   7.282  0.2618 -1.6841  0.7303
  120MOL0     H15822  -0.595   3.298   6.588  0.3391  0.3078 -0.0192
  120MOL0     H15823  -0.405   3.143   6.561  0.5552 -0.8487  2.1973
  120MOL0     H15824  -0.286   2.745   6.411 -0.5309  0.3842  0.7984
  120MOL0     H15825  -0.079   2.615   6.342  0.6250  0.5831  0.5425
  120MOL0     H15826   1.402   1.437   6.504 -0.9698 -0.1349  0.9548
  120MOL0     H15827   1.611   1.359   6.457 -0.6910 -0.3255 -0.2522
  120MOL0     H15828   1.983   1.116   6.594  0.2035 -0.1060 -0.3072
  120MOL0     H15829   2.221   1.052   6.535  2.0811  0.9235 -0.1150
  120MOL0     H15830   2.381   1.048   6.387 -1.1183  0.3921  0.0548
  120MOL0     H15831   2.448   1.032   6.541  2.7503 -1.3448  0.0157
  120MOL0     H15832   2.601   0.987   6.336 -3.3536 -0.7587 -0.1964
  120MOL0     H15833   2.594   1.164   6.309 -2.4747  0.0851 -0.4124
  120MOL0     H15834   2.673   1.046   6.580 -1.5277 -2.4532 -1.1651
  120MOL0     H15835   2.696   1.208   6.515 -1.5532  0.9131 -1.1375
  120MOL0     H15836   2.827   0.961   6.412  0.3488 -0.7787  2.0459
  120MOL0     H15837   2.854   1.135   6.351  1.2497  0.2371  1.0675
  120MOL0     H15838   3.126   1.124   6.679  0.4926  0.9755  0.4311
  120MOL0     H15839   2.336   1.464   6.543 -0.0834 -0.5422  0.0640
  120MOL0     H15840   2.099   1.524   6.598  0.9739  0.5090  0.3602
  121MOL0     O15841   3.929   9.375  10.149 -0.5919  0.2940  0.0133
  121MOL0     C15842   3.976   9.467  10.080 -0.6245 -0.4122  0.4702
  121MOL0     O15843   3.902   9.551   9.996 -0.6479  0.0441  0.4688
  121MOL0     C15844   3.765   9.544   9.994 -0.6925 -0.1177  0.6300
  121MOL0     C15845   3.694   9.419   9.985  0.3522 -0.3791 -0.3891
  121MOL0     C15846   3.560   9.426   9.978 -0.2375 -0.6713 -0.6246
  121MOL0     C15847   3.488   9.544   9.994 -0.7368  0.0491 -0.3955
  121MOL0     O15848   3.353   9.531  10.014 -0.5950  0.6907  0.4985
  121MOL0     C15849   3.264   9.635   9.971  0.5234 -0.0579 -0.8058
  121MOL0     C15850   3.207   9.622   9.825  0.0297  0.6048 -0.5430
  121MOL0     C15851   3.118   9.499   9.813 -0.4475 -0.3395  0.2343
  121MOL0     C15852   3.007   9.497   9.916  0.7325  0.9842  0.6953
  121MOL0     C15853   2.905   9.609   9.897  0.4606 -0.3354  0.1042
  121MOL0     C15854   2.827   9.631  10.030 -0.2964 -0.4050 -0.2743
  121MOL0     C15855   2.705   9.702  10.000 -0.2187 -0.3269  0.3442
  121MOL0     C15856   2.595   9.619   9.928 -0.0486  0.6258  0.7100
  121MOL0     N15857   2.484   9.574  10.010  0.0082 -0.0520  0.3882
  121MOL0     C15858   2.407   9.654  10.096 -0.0074 -0.3494  0.7447
  121MOL0     C15859   2.350   9.567  10.185  0.6992 -0.4890  0.8811
  121MOL0     C15860   2.254   9.575  10.293  0.0544  0.3764  0.5732
  121MOL0     C15861   2.142   9.672  10.258 -0.2306 -0.1996 -0.9903
  121MOL0     C15862   2.033   9.677  10.373  0.5515  0.1038 -0.2362
  121MOL0     C15863   1.985   9.544  10.429  0.0563  0.6134 -0.0041
  121MOL0     O15864   1.887   9.573  10.523  0.0414 -0.0747 -0.4265
  121MOL0     C15865   1.783   9.487  10.539 -0.2024  1.0332  0.1155
  121MOL0     C15866   1.677   9.537  10.626 -0.1003 -0.5854 -0.8561
  121MOL0     C15867   1.570   9.465  10.654 -1.2724  0.2974 -0.1370
  121MOL0     C15868   1.549   9.342  10.577  0.2290  0.0374  0.1486
  121MOL0     C15869   1.421   9.268  10.600  0.1776  0.1797 -0.2883
  121MOL0     O15870   1.320   9.342  10.646 -0.3321  0.3725  0.1860
  121MOL0     C15871   1.201   9.294  10.694  0.5432  0.2570 -0.0916
  121MOL0     C15872   1.169   9.159  10.720  0.0660 -0.3021  0.3915
  121MOL0     C15873   1.056   9.126  10.797 -0.2368  0.0177  0.0580
  121MOL0     C15874   0.959   9.217  10.829  0.9487  0.3796  0.2972
  121MOL0     O15875   0.830   9.180  10.882 -1.0170 -0.1922 -0.2745
  121MOL0     C15876   0.720   9.211  10.800 -0.3560  0.0841  0.3092
  121MOL0     C15877   0.589   9.157  10.865  0.4216 -0.1572 -0.0109
  121MOL0     C15878   0.559   9.231  10.992 -0.0805 -0.0629 -0.4431
  121MOL0     C15879   0.435   9.184  11.075  1.0733  0.2052 -0.0836
  121MOL0     C15880   0.296   9.226  11.022  0.6183  0.3471  0.9123
  121MOL0     C15881   0.180   9.211  11.118 -0.8578 -0.3290 -0.0193
  121MOL0     C15882   0.127   9.070  11.096 -0.5822  0.0618  0.4294
  121MOL0     C15883   0.024   9.035  11.203  0.1349  1.2973  0.6093
  121MOL0    Cl15884   0.075   9.020  11.377  0.2715  0.4235 -0.0288
  121MOL0     C15885   0.995   9.351  10.813 -0.4046 -0.3831 -0.1868
  121MOL0     C15886   1.113   9.387  10.750 -0.1796  0.0286 -0.1872
  121MOL0     O15887   1.410   9.148  10.565 -0.0150  0.0503 -0.0921
  121MOL0     C15888   1.648   9.291  10.490 -0.1688 -0.3909  0.4490
  121MOL0     C15889   1.767   9.358  10.471 -0.5168 -0.3930 -0.5378
  121MOL0     N15890   2.394   9.441  10.150 -0.1184 -0.7785  0.2880
  121MOL0     N15891   2.473   9.451  10.052  0.0197  0.1968 -0.1038
  121MOL0     C15892   3.554   9.663  10.018  0.3472  0.1908 -0.2298
  121MOL0     C15893   3.691   9.661  10.024 -0.4016  0.5058  0.4034
  121MOL0     C15894   4.120   9.472  10.067  0.2348 -0.2525  0.0566
  121MOL0     C15895   4.201   9.422  10.168  0.1441  0.1890  0.0958
  121MOL0     C15896   4.338   9.419  10.150 -0.2888  0.6033  0.0607
  121MOL0     C15897   4.401   9.469  10.031  0.4302 -0.0436 -0.6011
  121MOL0     O15898   4.536   9.477  10.027  0.3087  0.6238 -0.5975
  121MOL0     C15899   4.587   9.588   9.955  0.6496 -0.5877 -0.6473
  121MOL0     C15900   4.741   9.586   9.937 -0.0707 -0.1022  0.2738
  121MOL0     C15901   4.800   9.660  10.057  0.2077  0.2038 -0.2064
  121MOL0     C15902   4.954   9.686  10.044  0.3639 -0.5812  0.3198
  121MOL0     C15903   5.034   9.569  10.044  0.5797  0.4223  0.3536
  121MOL0     C15904   5.094   9.462  10.035  0.1513  0.1438 -0.0037
  121MOL0     C15905   4.316   9.508   9.928  0.0470 -0.4396 -0.2347
  121MOL0     C15906   4.180   9.519   9.946 -0.1214 -0.2624 -0.4308
  121MOL0     H15907   3.735   9.320   9.970 -2.6215 -1.4821 -2.0946
  121MOL0     H15908   3.498   9.339   9.964  1.0296 -1.3693 -2.2309
  121MOL0     H15909   3.316   9.731   9.969  0.8584 -0.1434  1.2242
  121MOL0     H15910   3.175   9.639  10.034  0.7385 -0.1261 -0.4910
  121MOL0     H15911   3.294   9.600   9.762 -1.1377  0.8089 -2.2756
  121MOL0     H15912   3.155   9.712   9.790 -1.4636 -1.1001 -3.0126
  121MOL0     H15913   3.190   9.417   9.818  2.4440  1.9765 -0.4674
  121MOL0     H15914   3.083   9.491   9.709 -0.6171 -1.7673  0.3923
  121MOL0     H15915   2.946   9.406   9.914  0.5569  1.0900  1.0903
  121MOL0     H15916   3.033   9.506  10.022  1.2311  0.0630  0.6570
  121MOL0     H15917   2.840   9.595   9.810  0.5485  0.6031 -0.1269
  121MOL0     H15918   2.949   9.706   9.875  0.2827 -0.5751 -1.4712
  121MOL0     H15919   2.889   9.695  10.094  0.9319 -0.2335 -1.6098
  121MOL0     H15920   2.808   9.532  10.074  0.8169 -1.9864 -3.1070
  121MOL0     H15921   2.662   9.737  10.093  2.4823 -0.2606  1.6677
  121MOL0     H15922   2.730   9.779   9.927  0.0490 -1.3375 -0.6685
  121MOL0     H15923   2.625   9.532   9.869 -1.5756  1.9408 -2.2044
  121MOL0     H15924   2.546   9.672   9.845  2.1425 -0.0870 -1.1609
  121MOL0     H15925   2.407   9.762  10.091 -0.0681 -0.3649  0.3613
  121MOL0     H15926   2.303   9.592  10.389  1.7089  0.2827 -0.2207
  121MOL0     H15927   2.203   9.479  10.302  2.2866 -1.0384 -0.8584
  121MOL0     H15928   2.102   9.658  10.157 -1.2145  0.8310 -0.7584
  121MOL0     H15929   2.184   9.772  10.254 -0.4446 -0.0905 -0.5434
  121MOL0     H15930   2.076   9.731  10.458 -0.3261  0.7803 -0.2050
  121MOL0     H15931   1.949   9.741  10.344  1.3353  1.4884  0.4364
  121MOL0     H15932   2.062   9.484  10.478  0.6880  0.4533 -1.1479
  121MOL0     H15933   1.945   9.492  10.341 -0.1196  1.0134 -0.1633
  121MOL0     H15934   1.690   9.634  10.672  2.0785 -1.8559  1.4694
  121MOL0     H15935   1.495   9.488  10.730  1.5843 -1.1067  3.3928
  121MOL0     H15936   1.230   9.076  10.685 -0.2966 -0.4301  0.0610
  121MOL0     H15937   1.025   9.023  10.815  0.4861 -0.3757 -0.8375
  121MOL0     H15938   0.742   9.164  10.704  0.9215 -1.9309  1.5016
  121MOL0     H15939   0.717   9.319  10.786 -0.9731  0.1007  0.5503
  121MOL0     H15940   0.607   9.051  10.888  1.2674 -0.1293 -0.5016
  121MOL0     H15941   0.502   9.170  10.800 -1.0697  0.6559  2.0445
  121MOL0     H15942   0.550   9.338  10.971 -0.6086  0.0673  0.4075
  121MOL0     H15943   0.652   9.218  11.049  1.9352 -0.0985 -3.5051
  121MOL0     H15944   0.442   9.077  11.093 -1.4044 -0.2804 -1.5593
  121MOL0     H15945   0.454   9.231  11.172  3.4898 -0.1694 -0.3159
  121MOL0     H15946   0.276   9.156  10.941 -1.0462 -0.8829  2.3138
  121MOL0     H15947   0.304   9.331  10.991 -0.1928  0.6347  1.6237
  121MOL0     H15948   0.109   9.290  11.088  1.3432  1.2345 -1.4093
  121MOL0     H15949   0.216   9.240  11.217 -0.7314 -0.9171  0.1110
  121MOL0     H15950   0.083   9.063  10.996  0.9498 -0.2285 -0.2422
  121MOL0     H15951   0.201   8.992  11.115 -0.5532  0.4823  2.2598
  121MOL0     H15952  -0.018   8.941  11.165  0.2602  1.0991  0.9568
  121MOL0     H15953  -0.058   9.106  11.197  1.3643  2.6931 -0.4577
  121MOL0     H15954   0.924   9.424  10.848 -1.7269 -0.6554 -2.1266
  121MOL0     H15955   1.139   9.492  10.735  1.0413 -0.4315 -1.3835
  121MOL0     H15956   1.628   9.203  10.430  2.3249 -0.3049 -0.6136
  121MOL0     H15957   1.838   9.312  10.403 -0.1598 -0.4081 -0.1551
  121MOL0     H15958   3.496   9.753  10.038 -5.1060 -2.8619 -0.4277
  121MOL0     H15959   3.740   9.756  10.041 -0.5431  0.7473 -0.4849
  121MOL0     H15960   4.181   9.386  10.269  1.4951 -0.9730 -0.0162
  121MOL0     H15961   4.401   9.379  10.228  0.7947  1.5145 -0.3149
  121MOL0     H15962   4.558   9.679  10.007  1.6638  0.3530 -1.6856
  121MOL0     H15963   4.562   9.590   9.849 -0.0616  0.9894 -0.4689
  121MOL0     H15964   4.776   9.482   9.946 -1.9751 -0.6043  3.5395
  121MOL0     H15965   4.772   9.626   9.840 -0.8492 -1.1812 -0.4512
  121MOL0     H15966   4.783   9.601  10.147  5.2551 -1.6011 -0.1061
  121MOL0     H15967   4.752   9.757  10.072 -0.3363  0.2160 -1.8908
  121MOL0     H15968   4.973   9.725   9.944 -0.2961  0.1960  0.4817
  121MOL0     H15969   4.992   9.760  10.116 -2.1037  2.0845 -0.8886
  121MOL0     H15970   5.160   9.379  10.023  1.6476  1.3244 -0.1493
  121MOL0     H15971   4.356   9.542   9.833 -0.4044 -2.4259 -1.1940
  121MOL0     H15972   4.118   9.554   9.864 -1.0493 -2.3022 -0.6651
  122MOL0     O15973   7.363   2.893   6.356  0.3669 -0.7361  0.2553
  122MOL0     C15974   7.309   2.851   6.455 -0.2725  0.5016  0.3978
  122MOL0     O15975   7.245   2.731   6.469 -0.3334 -0.1726 -0.0094
  122MOL0     C15976   7.238   2.654   6.355  0.6821  0.5020 -0.3488
  122MOL0     C15977   7.350   2.591   6.299 -0.7313  0.4015 -0.5181
  122MOL0     C15978   7.340   2.502   6.197 -0.6740 -0.0216 -0.1952
  122MOL0     C15979   7.211   2.478   6.140 -0.3852 -0.1114 -0.2969
  122MOL0     O15980   7.183   2.407   6.029  0.1125 -0.2859  0.5832
  122MOL0     C15981   7.292   2.360   5.946  0.4401  0.1299  0.0354
  122MOL0     C15982   7.352   2.227   6.006 -0.8595 -0.4266 -0.5474
  122MOL0     C15983   7.249   2.127   6.068 -0.6810 -0.4218 -0.7402
  122MOL0     C15984   7.315   1.993   6.073  0.2920 -1.0093 -0.6871
  122MOL0     C15985   7.213   1.889   6.127 -0.1289  0.0703  0.1632
  122MOL0     C15986   7.233   1.889   6.283  0.8500 -0.0120  0.3489
  122MOL0     C15987   7.121   1.816   6.367  0.2295  0.3577  1.2291
  122MOL0     C15988   7.131   1.660   6.357 -1.1432  0.3383  0.1663
  122MOL0     N15989   7.221   1.600   6.456  0.4967 -0.0467 -0.4750
  122MOL0     C15990   7.191   1.610   6.591 -0.0787  0.4285  0.7064
  122MOL0     C15991   7.296   1.561   6.656 -0.4756 -0.0506 -0.5225
  122MOL0     C15992   7.316   1.551   6.804  0.7911  0.1100 -0.0668
  122MOL0     C15993   7.361   1.674   6.882 -0.7943  0.0721 -0.4194
  122MOL0     C15994   7.368   1.643   7.038  0.1191 -1.1882  0.8307
  122MOL0     C15995   7.444   1.743   7.118 -0.3048 -0.3095 -0.2740
  122MOL0     O15996   7.589   1.746   7.086  0.5073  0.6519 -0.1355
  122MOL0     C15997   7.650   1.845   7.011 -0.2950 -0.2441  0.3305
  122MOL0     C15998   7.589   1.948   6.941  0.1206  0.4771 -0.3238
  122MOL0     C15999   7.658   2.051   6.881 -0.2835  0.1294 -0.6271
  122MOL0     C16000   7.794   2.054   6.894 -0.6147 -0.2261 -0.2095
  122MOL0     C16001   7.873   2.156   6.827 -0.4796  0.3170 -0.2504
  122MOL0     O16002   8.010   2.175   6.864  0.4326  1.0542 -0.0748
  122MOL0     C16003   8.089   2.280   6.814 -0.1612  0.2711  0.2351
  122MOL0     C16004   8.041   2.413   6.798 -0.4104 -0.6044  0.7451
  122MOL0     C16005   8.127   2.524   6.762  1.0927  0.8335 -0.0605
  122MOL0     C16006   8.264   2.499   6.752  0.0556 -0.1146  0.1394
  122MOL0     O16007   8.353   2.597   6.722  0.1596 -0.5202 -0.0119
  122MOL0     C16008   8.344   2.658   6.592  0.1186  0.3504  0.3115
  122MOL0     C16009   8.434   2.594   6.486  0.1248 -0.2991 -0.1770
  122MOL0     C16010   8.391   2.460   6.430 -0.2171  0.3066 -0.6101
  122MOL0     C16011   8.263   2.456   6.358 -0.5696 -0.0424 -0.4054
  122MOL0     C16012   8.213   2.308   6.324 -0.1204  0.2208  0.0575
  122MOL0     C16013   8.172   2.222   6.444  0.2466  0.1265  0.7518
  122MOL0     C16014   8.129   2.087   6.379  0.1028 -0.6432 -0.7526
  122MOL0     C16015   8.066   1.991   6.487  0.5229  0.3644 -0.3157
  122MOL0    Cl16016   8.174   1.978   6.637 -0.5743 -0.1415 -0.1231
  122MOL0     C16017   8.315   2.371   6.781 -1.1091 -0.3671  0.1769
  122MOL0     C16018   8.225   2.265   6.807  0.3702  0.2881 -0.1680
  122MOL0     O16019   7.821   2.217   6.735 -0.2578  0.6044  0.0138
  122MOL0     C16020   7.854   1.962   6.978 -0.8588 -0.2637  0.9673
  122MOL0     C16021   7.785   1.854   7.031  0.6811 -0.5154 -0.0803
  122MOL0     N16022   7.378   1.506   6.556  0.8302 -0.1331  0.3837
  122MOL0     N16023   7.332   1.532   6.438  0.3083  0.5538  0.4432
  122MOL0     C16024   7.098   2.541   6.190 -0.5086  0.6069  0.4407
  122MOL0     C16025   7.110   2.625   6.300 -0.4214  0.1584  0.1666
  122MOL0     C16026   7.354   2.920   6.582  0.4456 -0.5059 -0.2475
  122MOL0     C16027   7.280   2.899   6.704  0.4069  0.3065  0.4465
  122MOL0     C16028   7.310   2.962   6.822  0.3133  0.4062  0.0459
  122MOL0     C16029   7.411   3.062   6.818 -0.0172 -0.5734  0.1832
  122MOL0     O16030   7.429   3.131   6.938  0.2899  0.2041  0.2667
  122MOL0     C16031   7.529   3.226   6.943 -0.0121 -0.7193  0.0938
  122MOL0     C16032   7.521   3.293   7.080 -0.2581  0.3046  0.4986
  122MOL0     C16033   7.587   3.434   7.069  0.2632 -0.3431  0.4132
  122MOL0     C16034   7.554   3.527   7.183 -0.0941  0.6984 -0.9739
  122MOL0     C16035   7.425   3.598   7.173 -0.5603 -0.4303  0.2641
  122MOL0     C16036   7.317   3.650   7.175  0.9653  0.0534  1.4463
  122MOL0     C16037   7.481   3.081   6.699 -0.1628 -0.8754  0.5709
  122MOL0     C16038   7.449   3.020   6.584  0.0861  1.1534 -0.0701
  122MOL0     H16039   7.449   2.620   6.333 -0.8626  1.6227 -1.1487
  122MOL0     H16040   7.426   2.457   6.149  1.0169 -0.0606  2.6805
  122MOL0     H16041   7.364   2.439   5.926  0.5686  0.3828  1.4201
  122MOL0     H16042   7.244   2.334   5.851  0.4797 -0.6574  0.2203
  122MOL0     H16043   7.429   2.244   6.082 -0.5620  0.4111 -1.0236
  122MOL0     H16044   7.395   2.171   5.922 -1.3793 -1.1341 -0.3555
  122MOL0     H16045   7.161   2.116   6.003  0.0807 -1.1983 -1.6696
  122MOL0     H16046   7.233   2.173   6.166  4.2606  2.3849 -0.8830
  122MOL0     H16047   7.341   1.965   5.970 -2.9745 -0.3337 -1.8163
  122MOL0     H16048   7.407   1.998   6.132 -0.3322 -1.2138  0.3126
  122MOL0     H16049   7.247   1.794   6.086 -2.5544 -1.8468  2.2799
  122MOL0     H16050   7.111   1.907   6.094 -0.7461 -1.9095  0.8794
  122MOL0     H16051   7.227   1.993   6.316  2.4049  0.3915 -0.5373
  122MOL0     H16052   7.328   1.845   6.313  3.1666  3.1022 -1.7479
  122MOL0     H16053   7.125   1.846   6.472 -1.4942  0.0779  1.4070
  122MOL0     H16054   7.019   1.847   6.343 -0.7941 -2.8383  1.0345
  122MOL0     H16055   7.168   1.643   6.255  0.7768 -0.3043  0.9219
  122MOL0     H16056   7.032   1.613   6.360 -1.4782  1.0145 -0.1822
  122MOL0     H16057   7.103   1.658   6.633  0.8056  1.6645  1.1893
  122MOL0     H16058   7.396   1.480   6.827  1.8275  1.2925  0.0823
  122MOL0     H16059   7.216   1.522   6.838  0.5869  1.1283  0.2274
  122MOL0     H16060   7.299   1.763   6.868 -1.1761  0.1741  1.5827
  122MOL0     H16061   7.462   1.703   6.853 -0.9557  0.1283 -0.9298
  122MOL0     H16062   7.266   1.646   7.079 -0.1672 -0.0428  0.0846
  122MOL0     H16063   7.406   1.541   7.048  1.8148 -0.7102 -0.4328
  122MOL0     H16064   7.442   1.718   7.224  1.0794 -0.4393 -0.2658
  122MOL0     H16065   7.397   1.841   7.107 -1.3708 -0.8582 -0.7619
  122MOL0     H16066   7.484   1.928   6.925 -0.9793  2.2565  3.5110
  122MOL0     H16067   7.600   2.110   6.810 -0.5716  1.4448  0.6633
  122MOL0     H16068   7.935   2.433   6.799 -0.6567 -1.7922 -0.0563
  122MOL0     H16069   8.084   2.621   6.743 -0.8034  0.4550  1.8594
  122MOL0     H16070   8.367   2.765   6.593 -0.3247  0.6308 -3.5362
  122MOL0     H16071   8.238   2.659   6.564 -1.0257  0.7043  4.1050
  122MOL0     H16072   8.535   2.588   6.528 -1.4972 -0.1348  4.2883
  122MOL0     H16073   8.449   2.666   6.405  3.1496 -0.0486  0.5024
  122MOL0     H16074   8.393   2.389   6.513 -1.7891 -2.1234 -2.5066
  122MOL0     H16075   8.469   2.420   6.365  0.2543  1.7619 -0.9800
  122MOL0     H16076   8.189   2.509   6.420  1.9042  1.3800  1.5100
  122MOL0     H16077   8.285   2.515   6.268  0.6815 -1.8159 -1.3232
  122MOL0     H16078   8.290   2.249   6.274 -1.0250 -0.3022 -0.7474
  122MOL0     H16079   8.135   2.319   6.248 -0.6220 -0.8375  0.3927
  122MOL0     H16080   8.101   2.274   6.509  0.1427  1.1714 -0.1523
  122MOL0     H16081   8.269   2.216   6.494  1.5654  0.5699 -1.5693
  122MOL0     H16082   8.054   2.113   6.303  3.6932  0.1475 -4.3619
  122MOL0     H16083   8.209   2.033   6.329 -0.2402 -1.4803 -0.4145
  122MOL0     H16084   8.058   1.895   6.436 -1.5691  1.5219 -2.3745
  122MOL0     H16085   7.962   2.018   6.508  0.7533  1.8786 -0.9195
  122MOL0     H16086   8.422   2.355   6.795 -0.5170  2.6657 -0.1775
  122MOL0     H16087   8.265   2.166   6.826  2.0356  0.9087 -0.2859
  122MOL0     H16088   7.960   1.966   7.004 -0.6943 -1.0053  0.4661
  122MOL0     H16089   7.838   1.783   7.094  1.2913 -0.6110 -0.6911
  122MOL0     H16090   7.001   2.506   6.155 -0.0975  0.2728 -0.3788
  122MOL0     H16091   7.031   2.681   6.348 -0.0194  0.5876  0.3375
  122MOL0     H16092   7.196   2.831   6.699  0.2848  0.4516  0.5219
  122MOL0     H16093   7.260   2.931   6.913  1.2856 -1.2246  0.0673
  122MOL0     H16094   7.529   3.293   6.856  1.4856 -0.3685  0.3316
  122MOL0     H16095   7.624   3.173   6.934  0.3113  0.0784 -1.7063
  122MOL0     H16096   7.413   3.304   7.090 -0.2820  0.5666  0.0141
  122MOL0     H16097   7.557   3.231   7.162  0.7574 -1.0508 -0.9118
  122MOL0     H16098   7.555   3.487   6.979  0.5296  0.5060  0.8037
  122MOL0     H16099   7.696   3.421   7.065  0.1903 -1.2441  1.0523
  122MOL0     H16100   7.565   3.468   7.275 -2.1598 -0.2883 -1.3180
  122MOL0     H16101   7.635   3.601   7.187 -0.5879  1.1878  0.4496
  122MOL0     H16102   7.221   3.699   7.170  1.1653  0.7100  3.2253
  122MOL0     H16103   7.556   3.158   6.683  0.4910 -1.7165 -0.6138
  122MOL0     H16104   7.497   3.045   6.490 -0.3116  1.3169 -0.2330
  123MOL0     O16105   5.126   9.641   9.309 -0.5656 -0.2979 -0.1874
  123MOL0     C16106   5.212   9.546   9.304 -0.5892  0.7813 -0.0731
  123MOL0     O16107   5.190   9.420   9.342 -0.3815  0.6515 -0.0285
  123MOL0     C16108   5.067   9.364   9.353  0.1493 -0.6931  0.3874
  123MOL0     C16109   5.059   9.242   9.412 -0.2476  0.5306  0.9736
  123MOL0     C16110   4.942   9.167   9.399 -0.5553 -0.2569 -0.9819
  123MOL0     C16111   4.829   9.205   9.323 -0.5076  0.3911 -0.7209
  123MOL0     O16112   4.721   9.115   9.323 -0.2016  0.4387 -0.2740
  123MOL0     C16113   4.605   9.143   9.240  0.3370 -0.3950  0.1767
  123MOL0     C16114   4.518   9.018   9.239  0.0452 -0.0622  0.6490
  123MOL0     C16115   4.442   8.992   9.375  0.6079 -0.6171  0.6395
  123MOL0     C16116   4.526   8.963   9.504  0.2601  0.3659  0.5258
  123MOL0     C16117   4.604   8.829   9.504 -0.4389  0.0307  0.1324
  123MOL0     C16118   4.700   8.802   9.623 -0.4793 -1.0268 -0.2513
  123MOL0     C16119   4.805   8.685   9.597  0.5538 -0.3868  0.3828
  123MOL0     C16120   4.749   8.543   9.587 -0.3816  0.0912 -0.1831
  123MOL0     N16121   4.694   8.515   9.453  0.0261  0.5325 -0.5619
  123MOL0     C16122   4.569   8.480   9.412  0.5982  0.5180  0.0379
  123MOL0     C16123   4.559   8.489   9.282  0.6303  0.0456  0.0252
  123MOL0     C16124   4.431   8.448   9.210  0.1275 -0.0106 -0.3330
  123MOL0     C16125   4.355   8.570   9.157  0.3283 -0.0752 -0.5036
  123MOL0     C16126   4.434   8.645   9.059 -0.2456  0.2292  0.3300
  123MOL0     C16127   4.360   8.771   8.996 -0.5621  0.9589  1.1576
  123MOL0     O16128   4.254   8.726   8.907 -0.0288  0.5719 -0.2712
  123MOL0     C16129   4.125   8.692   8.940 -0.1623  0.3049 -0.1951
  123MOL0     C16130   4.060   8.603   8.860 -0.5189  0.5532 -0.3736
  123MOL0     C16131   3.925   8.566   8.884  0.2375 -0.6724 -0.2898
  123MOL0     C16132   3.848   8.633   8.986 -0.1882 -0.2041 -0.5372
  123MOL0     C16133   3.714   8.595   9.024  0.0644 -0.0866  0.2448
  123MOL0     O16134   3.652   8.658   9.128  0.5012 -0.6173 -0.1960
  123MOL0     C16135   3.517   8.632   9.157 -0.4803 -0.1424 -0.5060
  123MOL0     C16136   3.480   8.692   9.282 -0.3884  0.3343 -0.2129
  123MOL0     C16137   3.347   8.692   9.327  0.9649 -0.3276 -1.3913
  123MOL0     C16138   3.252   8.630   9.242  0.4379 -0.3487  0.0651
  123MOL0     O16139   3.114   8.649   9.278 -1.0436 -0.1579 -0.6995
  123MOL0     C16140   3.072   8.531   9.353  0.3935 -0.1319 -0.7731
  123MOL0     C16141   3.011   8.432   9.257 -0.6359 -0.0222 -0.3948
  123MOL0     C16142   2.889   8.503   9.197 -0.1604 -0.8663 -0.2089
  123MOL0     C16143   2.786   8.412   9.148 -0.0313  0.0608 -0.7983
  123MOL0     C16144   2.652   8.487   9.140 -0.3435 -0.3907 -0.0846
  123MOL0     C16145   2.597   8.527   9.280  0.5076  0.0767 -0.0704
  123MOL0     C16146   2.447   8.574   9.270  0.0279 -0.0034  0.6756
  123MOL0     C16147   2.343   8.495   9.350  0.1939  0.0419  0.3755
  123MOL0    Cl16148   2.196   8.587   9.386  0.5312  0.1485 -0.0043
  123MOL0     C16149   3.287   8.575   9.120  0.3845  0.0007 -0.7832
  123MOL0     C16150   3.419   8.575   9.079 -0.7464  0.4986  0.2601
  123MOL0     O16151   3.666   8.506   8.953  0.3370  0.7278 -0.6397
  123MOL0     C16152   3.917   8.723   9.062 -0.2897 -0.4086 -1.1057
  123MOL0     C16153   4.051   8.750   9.043  0.1791  0.0005  0.0073
  123MOL0     N16154   4.688   8.518   9.233 -0.3991  0.3363  0.6995
  123MOL0     N16155   4.767   8.535   9.337  0.3893 -0.4445  0.5607
  123MOL0     C16156   4.835   9.332   9.271  0.0222  0.5891 -0.8474
  123MOL0     C16157   4.945   9.415   9.291  0.0794  0.4729 -0.1008
  123MOL0     C16158   5.348   9.581   9.273  0.1750  0.1939 -0.1086
  123MOL0     C16159   5.443   9.478   9.278 -0.6861 -0.2386  0.3883
  123MOL0     C16160   5.582   9.499   9.270 -0.1236  0.1450  0.0704
  123MOL0     C16161   5.634   9.624   9.237 -0.0578  0.1891 -0.5477
  123MOL0     O16162   5.764   9.656   9.204 -0.1311 -0.1430 -0.0822
  123MOL0     C16163   5.861   9.553   9.204  0.1958  0.4290 -0.1722
  123MOL0     C16164   5.992   9.591   9.155  0.3154 -0.4975  0.6861
  123MOL0     C16165   6.092   9.627   9.265 -0.4612 -0.4590 -0.1798
  123MOL0     C16166   6.235   9.648   9.215  0.3521  0.6356 -0.7735
  123MOL0     C16167   6.245   9.772   9.128  1.0571  0.0809 -0.2614
  123MOL0     C16168   6.271   9.858   9.046 -0.2561 -0.2852  0.4303
  123MOL0     C16169   5.541   9.727   9.236 -0.4707 -0.1197  1.1386
  123MOL0     C16170   5.405   9.707   9.257  0.4960 -0.2599 -1.4743
  123MOL0     H16171   5.147   9.200   9.458  0.1836 -0.6591 -0.8451
  123MOL0     H16172   4.933   9.076   9.458 -1.1478 -0.0440 -0.7405
  123MOL0     H16173   4.630   9.164   9.136 -3.0708 -0.3465 -0.7246
  123MOL0     H16174   4.561   9.230   9.289  1.7762 -0.2541  1.3061
  123MOL0     H16175   4.586   8.936   9.213  1.9304  1.2116  1.3651
  123MOL0     H16176   4.441   9.032   9.163  0.5341 -1.0935 -0.0634
  123MOL0     H16177   4.374   8.909   9.353  2.4550 -2.0173 -0.0952
  123MOL0     H16178   4.390   9.085   9.399  0.7370 -0.6823  1.1906
  123MOL0     H16179   4.598   9.041   9.528  0.4510 -0.3345  2.4052
  123MOL0     H16180   4.460   8.970   9.591 -0.9237 -3.5843  0.1469
  123MOL0     H16181   4.670   8.827   9.418 -0.6050 -0.5161  0.0093
  123MOL0     H16182   4.535   8.745   9.489 -0.5171 -0.1038  1.1383
  123MOL0     H16183   4.639   8.764   9.706 -0.5648 -0.9543 -0.2807
  123MOL0     H16184   4.746   8.899   9.641 -0.6703 -0.7661 -1.1432
  123MOL0     H16185   4.867   8.707   9.510 -0.1387  3.7022  0.6927
  123MOL0     H16186   4.866   8.692   9.688  0.2749  0.4308  0.5171
  123MOL0     H16187   4.667   8.532   9.659 -0.8488 -2.1942 -0.9715
  123MOL0     H16188   4.829   8.474   9.616  1.5496  3.1894  2.4978
  123MOL0     H16189   4.494   8.448   9.484  3.1584  2.1985  3.7973
  123MOL0     H16190   4.369   8.391   9.280  1.2089 -1.3496 -0.4179
  123MOL0     H16191   4.456   8.374   9.134 -2.6032 -2.0340  0.5793
  123MOL0     H16192   4.318   8.631   9.239 -1.4148  1.5228 -2.3876
  123MOL0     H16193   4.269   8.520   9.110 -1.4951  0.8569  1.7052
  123MOL0     H16194   4.532   8.682   9.091 -0.9047  0.4541  2.1884
  123MOL0     H16195   4.450   8.569   8.982 -1.5763 -0.4024  0.6408
  123MOL0     H16196   4.425   8.837   8.938  0.0109 -1.1637 -0.7511
  123MOL0     H16197   4.314   8.835   9.072  1.2194 -0.1166  3.2389
  123MOL0     H16198   4.111   8.558   8.776 -0.3360  1.4881 -0.7812
  123MOL0     H16199   3.885   8.489   8.819  1.8643 -0.8700 -1.0902
  123MOL0     H16200   3.557   8.742   9.341  0.2581 -0.2733 -0.5241
  123MOL0     H16201   3.320   8.749   9.416  0.0693  1.4740 -2.7546
  123MOL0     H16202   2.999   8.554   9.432  1.9312  0.5200  0.5070
  123MOL0     H16203   3.160   8.492   9.404 -1.0454 -1.1352  1.0677
  123MOL0     H16204   2.981   8.339   9.305  3.4105 -3.4723 -3.7271
  123MOL0     H16205   3.086   8.400   9.184 -0.5478  0.1929 -0.3998
  123MOL0     H16206   2.923   8.573   9.120 -1.1374 -0.4826 -0.2957
  123MOL0     H16207   2.848   8.561   9.280 -2.0706 -1.5491 -0.6206
  123MOL0     H16208   2.821   8.366   9.055  1.1586 -1.9160  0.5651
  123MOL0     H16209   2.773   8.323   9.210 -2.0900 -0.3531 -1.7481
  123MOL0     H16210   2.580   8.417   9.096 -0.0495 -1.2343  0.7593
  123MOL0     H16211   2.662   8.568   9.067  2.6993  0.4986  1.1766
  123MOL0     H16212   2.655   8.614   9.311  1.9110  0.0540 -2.4381
  123MOL0     H16213   2.608   8.455   9.362 -0.9230  0.0695  0.1380
  123MOL0     H16214   2.444   8.678   9.303  1.5355 -0.2525  1.7172
  123MOL0     H16215   2.411   8.569   9.167  1.0724  0.7701  0.2541
  123MOL0     H16216   2.382   8.463   9.447  2.1440  0.0910 -0.3461
  123MOL0     H16217   2.312   8.404   9.298  1.5315 -0.0273 -0.3359
  123MOL0     H16218   3.204   8.540   9.060 -1.4188  1.0207  0.9983
  123MOL0     H16219   3.436   8.536   8.979 -0.0489 -1.0654  0.9555
  123MOL0     H16220   3.869   8.771   9.147 -0.8983 -5.3660  1.7005
  123MOL0     H16221   4.096   8.818   9.115  0.5773  1.9549 -1.9762
  123MOL0     H16222   4.750   9.362   9.211 -0.5988 -0.1046 -0.3341
  123MOL0     H16223   4.940   9.508   9.236  1.0130 -1.0420 -2.9099
  123MOL0     H16224   5.421   9.374   9.297 -0.7896 -0.3392 -0.2701
  123MOL0     H16225   5.644   9.411   9.288 -0.4615  0.2225  1.8012
  123MOL0     H16226   5.826   9.470   9.142 -0.7904  0.0131  0.9138
  123MOL0     H16227   5.870   9.516   9.306  0.0150  1.4700  0.2289
  123MOL0     H16228   6.030   9.501   9.105  0.9146  0.7647 -1.2495
  123MOL0     H16229   5.986   9.670   9.080  0.7194 -0.1319  1.0354
  123MOL0     H16230   6.092   9.543   9.335 -2.7466 -1.3454 -1.1396
  123MOL0     H16231   6.061   9.720   9.314  0.9410  1.8680 -3.2960
  123MOL0     H16232   6.313   9.644   9.292 -0.4071  0.1662 -0.0153
  123MOL0     H16233   6.258   9.570   9.142 -0.2612  2.2303 -2.7547
  123MOL0     H16234   6.277   9.937   8.974  0.1542 -2.7393 -2.4003
  123MOL0     H16235   5.581   9.824   9.210  0.6347 -0.5415  1.1881
  123MOL0     H16236   5.344   9.796   9.271 -1.1515 -1.3945 -1.1227
  124MOL0     O16237   4.792   1.895   0.851  0.1414  0.5011  0.2259
  124MOL0     C16238   4.900   1.846   0.831  0.3292  0.0207  0.3890
  124MOL0     O16239   4.925   1.716   0.791 -0.1041 -0.2383  1.0096
  124MOL0     C16240   4.820   1.653   0.728  0.4610  0.4087 -0.2301
  124MOL0     C16241   4.742   1.548   0.788 -0.4091  0.0585  1.1123
  124MOL0     C16242   4.642   1.487   0.710  0.0857 -0.4185  0.1667
  124MOL0     C16243   4.606   1.540   0.587  0.4870 -0.7666  0.2547
  124MOL0     O16244   4.498   1.494   0.521 -0.5556  0.2563  0.0663
  124MOL0     C16245   4.452   1.363   0.553  0.2191  1.4350  0.9835
  124MOL0     C16246   4.360   1.311   0.444  0.8219  0.8382 -0.0984
  124MOL0     C16247   4.276   1.187   0.498  0.3101 -0.2836  0.3943
  124MOL0     C16248   4.168   1.134   0.391 -1.3041  0.1443  0.5585
  124MOL0     C16249   4.061   1.034   0.421 -0.6011  0.6877  0.1870
  124MOL0     C16250   3.981   1.062   0.550 -0.2319 -0.2378  0.2875
  124MOL0     C16251   3.852   0.975   0.555 -0.7332 -0.5808 -0.3771
  124MOL0     C16252   3.752   1.010   0.657 -0.0276  0.4142  0.0328
  124MOL0     N16253   3.648   0.909   0.669  0.5298 -0.1680 -0.0428
  124MOL0     C16254   3.529   0.909   0.605 -0.3710 -0.2390 -0.1755
  124MOL0     C16255   3.468   0.800   0.652  0.2749  1.0259  0.4539
  124MOL0     C16256   3.328   0.767   0.605  0.0265  0.0146 -0.8906
  124MOL0     C16257   3.248   0.713   0.725 -0.0970 -0.3971  0.5886
  124MOL0     C16258   3.253   0.795   0.860 -0.1443 -0.0858 -0.7638
  124MOL0     C16259   3.127   0.766   0.948  0.0989  0.8236 -0.1303
  124MOL0     O16260   3.010   0.813   0.877  0.2739 -0.4538  0.0022
  124MOL0     C16261   2.885   0.821   0.938 -0.9492  0.1815 -0.6187
  124MOL0     C16262   2.863   0.775   1.070  0.5804 -0.0397  0.6242
  124MOL0     C16263   2.734   0.785   1.127 -0.4044 -0.1784  0.5933
  124MOL0     C16264   2.633   0.863   1.066 -0.6850  0.4697  0.4620
  124MOL0     C16265   2.512   0.869   1.131  0.0067  0.0513 -0.1600
  124MOL0     O16266   2.424   0.967   1.098 -0.1092 -0.6965  0.4489
  124MOL0     C16267   2.307   0.996   1.161 -0.1800  0.2787 -0.6184
  124MOL0     C16268   2.197   1.033   1.092  0.2168  0.0896 -0.2848
  124MOL0     C16269   2.073   1.075   1.146  0.0966  0.3320  0.0348
  124MOL0     C16270   2.052   1.078   1.281  0.2039  0.2586 -0.5160
  124MOL0     O16271   1.932   1.123   1.328 -0.5106 -0.1113 -0.5072
  124MOL0     C16272   1.930   1.158   1.471 -0.6173 -0.9850 -0.6023
  124MOL0     C16273   1.807   1.232   1.523 -0.6104 -0.7596 -0.6665
  124MOL0     C16274   1.677   1.151   1.516 -0.2283  0.8883  0.1318
  124MOL0     C16275   1.572   1.238   1.580 -0.3690 -0.0300  0.9172
  124MOL0     C16276   1.424   1.189   1.567 -0.4231 -0.1105  0.1701
  124MOL0     C16277   1.353   1.188   1.429 -0.0532  0.4179  0.7108
  124MOL0     C16278   1.207   1.139   1.439  0.5673  0.4325  0.1556
  124MOL0     C16279   1.147   1.131   1.301 -0.0604  0.1139 -0.2018
  124MOL0    Cl16280   0.972   1.104   1.305  0.1324 -0.0973 -0.1377
  124MOL0     C16281   2.165   1.051   1.356  0.3060  0.5024 -0.0468
  124MOL0     C16282   2.295   1.017   1.302  0.1872  0.6241  0.5806
  124MOL0     O16283   2.482   0.779   1.218 -0.3372 -0.3485  0.1143
  124MOL0     C16284   2.653   0.905   0.939 -0.5647 -0.3115  0.2312
  124MOL0     C16285   2.771   0.878   0.873 -0.1942  0.1191  0.5111
  124MOL0     N16286   3.551   0.729   0.733 -0.6485 -0.3667 -0.7145
  124MOL0     N16287   3.659   0.796   0.745 -0.0731  1.2898  0.4039
  124MOL0     C16288   4.692   1.638   0.533 -0.1734  0.4152 -0.3809
  124MOL0     C16289   4.795   1.692   0.599  0.0606  0.1386  0.9043
  124MOL0     C16290   5.024   1.925   0.855  0.7549  0.0144  0.3465
  124MOL0     C16291   5.148   1.869   0.810 -0.1055 -0.4519 -0.6434
  124MOL0     C16292   5.274   1.926   0.835  0.1613 -0.4743  0.2734
  124MOL0     C16293   5.285   2.046   0.906 -0.9483 -0.3723 -0.2724
  124MOL0     O16294   5.405   2.095   0.956 -0.0212  0.6396 -0.2372
  124MOL0     C16295   5.529   2.027   0.909  0.4154 -0.6617  0.3642
  124MOL0     C16296   5.652   2.112   0.969  0.8086 -0.2693  0.3257
  124MOL0     C16297   5.773   2.062   0.891 -0.2815 -0.7502  1.3795
  124MOL0     C16298   5.888   2.165   0.916 -0.0087  0.2907 -0.0960
  124MOL0     C16299   6.005   2.129   0.840  0.4286  0.0377  0.0892
  124MOL0     C16300   6.099   2.075   0.777  0.0965  0.5643  0.9761
  124MOL0     C16301   5.164   2.107   0.941  0.1257 -0.0960  0.0161
  124MOL0     C16302   5.035   2.047   0.916  0.2834  0.4514 -0.4570
  124MOL0     H16303   4.755   1.518   0.891 -2.4596 -0.9524  1.1148
  124MOL0     H16304   4.577   1.414   0.758 -2.0722  0.0019 -1.9906
  124MOL0     H16305   4.402   1.369   0.650  2.1657 -0.7379  2.2122
  124MOL0     H16306   4.540   1.298   0.558  0.3113  1.5151  0.4864
  124MOL0     H16307   4.421   1.271   0.363 -1.1621 -1.4298 -0.5917
  124MOL0     H16308   4.290   1.388   0.408  1.7721  1.2666 -1.0706
  124MOL0     H16309   4.229   1.213   0.594  1.4958  2.0395  0.4266
  124MOL0     H16310   4.342   1.101   0.509  1.3746  0.6914  2.1040
  124MOL0     H16311   4.102   1.215   0.357 -3.7925 -2.6416 -1.8198
  124MOL0     H16312   4.224   1.109   0.301  1.6425  1.8268  1.7910
  124MOL0     H16313   4.105   0.934   0.425  1.8268  1.6813  0.3012
  124MOL0     H16314   3.994   1.034   0.335  0.1868  0.6092 -0.4421
  124MOL0     H16315   3.944   1.165   0.555  0.0174 -0.1504  0.3557
  124MOL0     H16316   4.048   1.050   0.636 -0.8069  0.2719  0.8185
  124MOL0     H16317   3.800   0.991   0.460 -1.8683  0.3892  0.3708
  124MOL0     H16318   3.874   0.869   0.567  0.0962 -0.4209 -0.4096
  124MOL0     H16319   3.693   1.095   0.621 -0.6689 -0.0612 -0.0563
  124MOL0     H16320   3.791   1.039   0.755  3.4029  2.4538 -1.7265
  124MOL0     H16321   3.498   0.972   0.523 -0.0757 -0.0652 -0.1568
  124MOL0     H16322   3.331   0.686   0.532 -0.0741  0.5212 -1.4721
  124MOL0     H16323   3.273   0.849   0.557 -2.2615  0.0374  1.5273
  124MOL0     H16324   3.282   0.612   0.749  1.6941 -0.0308 -0.2484
  124MOL0     H16325   3.145   0.704   0.692 -0.1761  1.4316  0.2215
  124MOL0     H16326   3.339   0.760   0.918  1.6930  0.9413 -2.7539
  124MOL0     H16327   3.262   0.903   0.849 -0.0057  0.0212  0.2933
  124MOL0     H16328   3.134   0.815   1.046 -0.2026 -0.1641  0.3997
  124MOL0     H16329   3.119   0.657   0.956  3.6060  0.3777 -1.0407
  124MOL0     H16330   2.941   0.717   1.119  1.5372  0.2889 -0.4796
  124MOL0     H16331   2.709   0.733   1.218 -3.1694 -0.7964 -0.4317
  124MOL0     H16332   2.208   1.027   0.984  2.0038 -1.4571 -0.0670
  124MOL0     H16333   1.994   1.112   1.083 -0.5057  1.3989  1.3652
  124MOL0     H16334   2.022   1.212   1.493 -0.3503 -1.8625  0.5440
  124MOL0     H16335   1.938   1.064   1.526 -0.8019 -0.0569  1.0686
  124MOL0     H16336   1.805   1.329   1.471  2.6534  0.0347  0.4449
  124MOL0     H16337   1.826   1.252   1.628 -0.0876 -2.6061 -0.3699
  124MOL0     H16338   1.673   1.053   1.564  0.1322 -0.3175 -2.1945
  124MOL0     H16339   1.669   1.141   1.408 -2.9739  0.2245  0.3476
  124MOL0     H16340   1.609   1.259   1.681  2.6841 -0.6424  0.0488
  124MOL0     H16341   1.583   1.332   1.526  1.0823 -0.7468 -0.0959
  124MOL0     H16342   1.358   1.238   1.640  0.9896  1.4188  0.5031
  124MOL0     H16343   1.432   1.085   1.599 -2.5428 -0.3732 -0.0110
  124MOL0     H16344   1.421   1.131   1.365  1.6560  1.3963  1.5792
  124MOL0     H16345   1.346   1.289   1.387  0.9212 -0.0208 -0.6008
  124MOL0     H16346   1.192   1.043   1.489 -3.7961  1.1085  0.5202
  124MOL0     H16347   1.145   1.206   1.499 -0.8851 -2.4162  2.0938
  124MOL0     H16348   1.195   1.053   1.241  3.2555  1.7272  0.1758
  124MOL0     H16349   1.162   1.226   1.249  0.4062  1.1071  1.6639
  124MOL0     H16350   2.156   1.057   1.464 -1.7420  0.5103 -0.1826
  124MOL0     H16351   2.382   0.998   1.364  2.3278  4.1531 -1.0764
  124MOL0     H16352   2.575   0.957   0.883  0.0026 -0.0126 -0.3041
  124MOL0     H16353   2.794   0.899   0.769  0.7669 -1.2557  0.4162
  124MOL0     H16354   4.656   1.683   0.440 -0.3491  0.0286 -0.5020
  124MOL0     H16355   4.829   1.783   0.551 -1.6620 -0.5293 -1.7962
  124MOL0     H16356   5.154   1.773   0.761  0.5314 -0.1391 -1.2009
  124MOL0     H16357   5.358   1.884   0.782 -0.6594  1.2010 -2.5502
  124MOL0     H16358   5.535   2.025   0.800 -1.8046  0.0745  0.1736
  124MOL0     H16359   5.535   1.927   0.955 -1.0560  0.2076  2.6381
  124MOL0     H16360   5.636   2.218   0.946 -1.5226 -0.4387  0.9135
  124MOL0     H16361   5.660   2.091   1.076 -1.2988  0.1780  0.6164
  124MOL0     H16362   5.757   2.056   0.783  2.6143  1.8240  0.6408
  124MOL0     H16363   5.812   1.963   0.916 -0.7977 -1.1147  0.7664
  124MOL0     H16364   5.864   2.267   0.887  2.8447  0.5921 -1.8025
  124MOL0     H16365   5.911   2.180   1.022  1.6175 -1.9718 -0.0338
  124MOL0     H16366   6.179   2.044   0.712  0.1391  1.8295  0.3890
  124MOL0     H16367   5.172   2.209   0.978 -0.4227  1.9354 -4.8257
  124MOL0     H16368   4.945   2.098   0.949 -0.6834 -0.8118 -1.0420
  125MOL0     O16369   6.325   1.183   2.786  0.3487 -0.2361 -0.3233
  125MOL0     C16370   6.370   1.189   2.675 -0.1852  0.5285 -0.1491
  125MOL0     O16371   6.299   1.158   2.560 -0.2717 -0.0196 -0.8286
  125MOL0     C16372   6.180   1.097   2.581  0.7387  0.0378  0.6619
  125MOL0     C16373   6.174   0.972   2.641  0.3759  0.2278  0.6438
  125MOL0     C16374   6.053   0.906   2.658  0.5612  0.0700  0.4179
  125MOL0     C16375   5.934   0.951   2.598 -0.2591  0.3321  0.7771
  125MOL0     O16376   5.827   0.861   2.607 -0.2074 -0.7491  0.0752
  125MOL0     C16377   5.696   0.914   2.574 -0.3147  0.5204 -0.4574
  125MOL0     C16378   5.596   0.818   2.615  0.4908  0.5485 -0.4198
  125MOL0     C16379   5.563   0.712   2.513 -0.3744  0.2146  0.9713
  125MOL0     C16380   5.437   0.628   2.534  0.6027 -0.4882 -0.6066
  125MOL0     C16381   5.415   0.514   2.437  0.0689  0.4895 -0.0613
  125MOL0     C16382   5.280   0.443   2.469 -0.1477 -0.2629  0.0784
  125MOL0     C16383   5.246   0.315   2.390  0.5073 -0.1298  0.1019
  125MOL0     C16384   5.252   0.317   2.236 -0.2510  0.7289 -0.4308
  125MOL0     N16385   5.388   0.331   2.184  0.0998  0.0919  0.1898
  125MOL0     C16386   5.500   0.262   2.229  0.7659 -0.2300 -0.4565
  125MOL0     C16387   5.606   0.317   2.169  0.0450 -0.4605  0.0517
  125MOL0     C16388   5.746   0.274   2.207  0.2725  0.3591  0.5401
  125MOL0     C16389   5.826   0.371   2.301 -0.4705 -0.2322 -0.0219
  125MOL0     C16390   5.879   0.486   2.214 -0.4574  0.1454 -0.4061
  125MOL0     C16391   5.961   0.589   2.285  0.0681  0.1625 -0.6724
  125MOL0     O16392   6.087   0.529   2.305 -0.0302  0.6002  0.5053
  125MOL0     C16393   6.197   0.608   2.314  0.2149 -0.6266 -0.0263
  125MOL0     C16394   6.208   0.743   2.354 -0.0117  0.0172  0.5820
  125MOL0     C16395   6.328   0.813   2.346  0.5763  0.1252 -0.4273
  125MOL0     C16396   6.444   0.761   2.302  0.5543  0.6175 -0.0998
  125MOL0     C16397   6.568   0.838   2.295 -0.4013  0.1379 -0.3716
  125MOL0     O16398   6.681   0.765   2.266  0.0723  0.4059 -0.0458
  125MOL0     C16399   6.800   0.820   2.273 -0.6018 -0.5556  0.4718
  125MOL0     C16400   6.893   0.815   2.167  0.0056 -0.7511  0.0446
  125MOL0     C16401   7.024   0.878   2.174  0.0558 -0.5749  0.2379
  125MOL0     C16402   7.066   0.922   2.302 -0.2598 -0.1627 -0.0350
  125MOL0     O16403   7.189   0.982   2.308  0.1115 -0.0689  0.2994
  125MOL0     C16404   7.283   0.901   2.379 -0.7370 -0.4101 -0.0841
  125MOL0     C16405   7.426   0.964   2.376  0.4306  0.0384 -0.2302
  125MOL0     C16406   7.534   0.892   2.458 -0.0904  0.0478  0.1183
  125MOL0     C16407   7.570   0.757   2.396  0.6728 -0.7965 -0.1745
  125MOL0     C16408   7.663   0.688   2.490 -0.4863 -0.3602 -1.0694
  125MOL0     C16409   7.769   0.593   2.423  1.0661 -0.4966 -0.6901
  125MOL0     C16410   7.850   0.521   2.522  0.0288  0.2900  0.5003
  125MOL0     C16411   7.914   0.388   2.458  0.8453 -1.0015 -0.3715
  125MOL0    Cl16412   8.044   0.446   2.345 -0.2003 -0.3203  0.2722
  125MOL0     C16413   6.977   0.906   2.415 -0.8482  0.0650  0.1891
  125MOL0     C16414   6.847   0.863   2.399  0.0001 -0.7802  0.1087
  125MOL0     O16415   6.570   0.959   2.320 -0.3422 -0.1236  0.5548
  125MOL0     C16416   6.445   0.627   2.267  0.1100 -0.0568 -0.4333
  125MOL0     C16417   6.322   0.549   2.281  0.1822 -0.6463 -0.1771
  125MOL0     N16418   5.564   0.416   2.085 -0.5162 -0.3080  0.1890
  125MOL0     N16419   5.434   0.422   2.090  0.1036 -0.1167 -0.6025
  125MOL0     C16420   5.935   1.076   2.532 -0.5840 -0.2332 -0.7461
  125MOL0     C16421   6.058   1.150   2.532 -0.1621 -1.0302 -0.0296
  125MOL0     C16422   6.505   1.236   2.655 -0.3789 -0.5737 -0.1679
  125MOL0     C16423   6.571   1.215   2.531  0.0800  0.3650 -0.6931
  125MOL0     C16424   6.706   1.233   2.515  0.6450  0.3088  0.9259
  125MOL0     C16425   6.792   1.280   2.608 -1.5053  0.3538  0.7134
  125MOL0     O16426   6.931   1.288   2.588 -0.1571  0.8672  0.3211
  125MOL0     C16427   6.989   1.258   2.457 -0.3296 -0.1902  0.0504
  125MOL0     C16428   7.145   1.248   2.479  1.0203  0.2756  0.6391
  125MOL0     C16429   7.207   1.376   2.525 -0.3946 -0.4449 -0.1397
  125MOL0     C16430   7.360   1.383   2.538  0.0181  0.3629 -0.2067
  125MOL0     C16431   7.413   1.271   2.617 -0.1215 -0.1076  0.5696
  125MOL0     C16432   7.458   1.178   2.686 -0.4181 -0.4377  0.3495
  125MOL0     C16433   6.728   1.315   2.731 -0.1268  0.0320 -0.5092
  125MOL0     C16434   6.591   1.290   2.754 -0.4029 -0.1674 -1.1855
  125MOL0     H16435   6.275   0.939   2.662  0.7752  0.7913 -0.3000
  125MOL0     H16436   6.045   0.810   2.707  1.3654 -0.2179  0.0098
  125MOL0     H16437   5.699   0.943   2.469  1.0953  0.5890 -0.4150
  125MOL0     H16438   5.682   1.004   2.636 -2.1863 -0.8960  1.3232
  125MOL0     H16439   5.499   0.869   2.626  0.3792  0.4295 -0.8156
  125MOL0     H16440   5.622   0.771   2.710  0.3779  0.7876 -0.2722
  125MOL0     H16441   5.647   0.644   2.498 -0.5998  0.5004 -2.1873
  125MOL0     H16442   5.551   0.764   2.418 -1.4793  0.8329  1.4258
  125MOL0     H16443   5.430   0.583   2.633  2.6356 -1.3551 -0.8172
  125MOL0     H16444   5.355   0.700   2.521  1.6323  0.8882  0.2644
  125MOL0     H16445   5.496   0.442   2.445  0.7183  1.3003  0.9299
  125MOL0     H16446   5.411   0.554   2.335 -0.7412  3.0287  0.8775
  125MOL0     H16447   5.199   0.512   2.445 -0.6856 -0.9269 -0.0494
  125MOL0     H16448   5.285   0.422   2.576  1.1164  0.1437  0.1218
  125MOL0     H16449   5.312   0.232   2.417 -1.6698 -2.2555 -0.7909
  125MOL0     H16450   5.142   0.288   2.412  0.5114 -1.1972 -1.1053
  125MOL0     H16451   5.186   0.396   2.200 -0.8820  0.9235  1.0760
  125MOL0     H16452   5.221   0.222   2.193  3.0642  0.1724 -1.9114
  125MOL0     H16453   5.491   0.179   2.298 -1.9629  0.0214 -0.4011
  125MOL0     H16454   5.807   0.257   2.117  2.8235  0.2369  2.2098
  125MOL0     H16455   5.736   0.179   2.261  2.1471 -1.2137 -1.6316
  125MOL0     H16456   5.912   0.327   2.351  0.2824 -1.4271 -2.2321
  125MOL0     H16457   5.752   0.412   2.371 -1.2879  0.3743 -1.1894
  125MOL0     H16458   5.933   0.433   2.135  0.0944  0.7466 -0.4393
  125MOL0     H16459   5.804   0.549   2.165  1.5086  2.7112 -0.3172
  125MOL0     H16460   5.909   0.627   2.373  1.4814  0.3821  0.0978
  125MOL0     H16461   5.979   0.681   2.228 -0.0485  0.8141  0.3045
  125MOL0     H16462   6.119   0.794   2.390  0.8407  1.9350  0.0615
  125MOL0     H16463   6.328   0.916   2.378 -1.3940  0.0266  0.0360
  125MOL0     H16464   6.863   0.774   2.071  2.5901  0.3652 -1.3631
  125MOL0     H16465   7.091   0.867   2.090  0.5129  3.1352 -0.0621
  125MOL0     H16466   7.273   0.800   2.337 -0.2005  0.4467 -2.4035
  125MOL0     H16467   7.262   0.906   2.486 -0.7911  2.0062 -0.1688
  125MOL0     H16468   7.413   1.070   2.401  0.6613  0.0775 -0.2694
  125MOL0     H16469   7.467   0.964   2.274  2.2974 -1.4827  0.4512
  125MOL0     H16470   7.495   0.879   2.559 -1.7421 -2.6002 -0.7610
  125MOL0     H16471   7.624   0.956   2.459 -1.2765  1.9884 -2.6266
  125MOL0     H16472   7.484   0.692   2.379  0.4402 -0.9213  1.3775
  125MOL0     H16473   7.621   0.778   2.301  4.1271  3.3931  2.2612
  125MOL0     H16474   7.610   0.628   2.564  1.6274  0.1423  0.9727
  125MOL0     H16475   7.721   0.755   2.554 -2.5436 -0.9238  1.5515
  125MOL0     H16476   7.823   0.653   2.350  0.3708  1.5982  0.4474
  125MOL0     H16477   7.715   0.518   2.364 -0.2170 -1.3796  1.5131
  125MOL0     H16478   7.944   0.570   2.550  0.0479  1.0872 -0.8906
  125MOL0     H16479   7.783   0.491   2.604 -2.4822 -1.0905 -1.8750
  125MOL0     H16480   7.836   0.338   2.399 -2.2030  1.9389  0.8040
  125MOL0     H16481   7.952   0.321   2.535  0.5798  1.4984  2.1008
  125MOL0     H16482   7.015   0.928   2.514  1.0177  0.3813 -0.5561
  125MOL0     H16483   6.777   0.863   2.482 -1.0807  1.7774 -0.7080
  125MOL0     H16484   6.533   0.581   2.225 -0.0496  0.8285 -1.8129
  125MOL0     H16485   6.321   0.444   2.252  1.3151 -0.6414 -0.2717
  125MOL0     H16486   5.843   1.117   2.491 -0.0343  0.8211 -0.9591
  125MOL0     H16487   6.059   1.244   2.478  1.1710 -1.8028 -1.4377
  125MOL0     H16488   6.518   1.170   2.448 -0.2216 -0.8202  0.1117
  125MOL0     H16489   6.748   1.209   2.418 -0.9141 -0.1779  0.3432
  125MOL0     H16490   6.963   1.343   2.393  1.9182 -1.2683 -2.4963
  125MOL0     H16491   6.948   1.166   2.416  2.3461 -1.5075  0.0973
  125MOL0     H16492   7.175   1.168   2.547  2.7976  1.4011  1.2605
  125MOL0     H16493   7.193   1.216   2.386  0.6854 -0.4074  0.6924
  125MOL0     H16494   7.155   1.403   2.618  2.1438  2.1796  0.6630
  125MOL0     H16495   7.202   1.458   2.454  1.3807 -1.1660 -1.1478
  125MOL0     H16496   7.406   1.378   2.439  2.8664  2.0195  0.9107
  125MOL0     H16497   7.390   1.474   2.592  1.9827  0.5446 -1.4854
  125MOL0     H16498   7.503   1.102   2.746  0.9284  1.4271  1.8537
  125MOL0     H16499   6.798   1.356   2.803 -0.8709  0.5157 -0.0454
  125MOL0     H16500   6.541   1.294   2.851 -1.8054  0.3441 -1.9041
  126MOL0     O16501   5.786   5.083   0.538  0.4762  0.0710  0.1394
  126MOL0     C16502   5.745   5.034   0.430  0.1547  0.8070 -0.1436
  126MOL0     O16503   5.806   4.937   0.354  0.1606 -0.2691  0.1416
  126MOL0     C16504   5.922   4.883   0.409  0.0993 -0.2502  0.1224
  126MOL0     C16505   6.036   4.966   0.396  0.3353 -0.4891 -0.2399
  126MOL0     C16506   6.162   4.914   0.424 -0.1250  0.1364 -0.5248
  126MOL0     C16507   6.173   4.785   0.477 -0.0057 -0.4416  0.4131
  126MOL0     O16508   6.293   4.717   0.507 -0.2148  1.0618 -0.2316
  126MOL0     C16509   6.413   4.771   0.439 -0.4816  0.3461 -0.0354
  126MOL0     C16510   6.548   4.705   0.479 -0.0794  0.8253 -0.0081
  126MOL0     C16511   6.614   4.717   0.624  0.6618  0.3081  1.0632
  126MOL0     C16512   6.646   4.862   0.666 -0.0121 -0.0681 -0.1445
  126MOL0     C16513   6.713   4.884   0.804 -0.0375  0.0909 -0.1627
  126MOL0     C16514   6.728   5.031   0.844 -0.3253 -0.2178 -0.4380
  126MOL0     C16515   6.850   5.094   0.766  0.0004  0.5037 -0.5247
  126MOL0     C16516   6.860   5.245   0.787 -0.5392  0.6445  0.1746
  126MOL0     N16517   6.897   5.266   0.927  0.2069 -0.4578 -0.9541
  126MOL0     C16518   7.016   5.245   0.989  0.2121 -0.3323 -0.3684
  126MOL0     C16519   6.987   5.261   1.125  0.2702 -0.7361  0.4110
  126MOL0     C16520   7.074   5.263   1.250 -0.3247 -0.6641  0.4496
  126MOL0     C16521   7.183   5.371   1.240 -0.6215 -0.4804  0.4333
  126MOL0     C16522   7.276   5.364   1.369  0.3811 -0.7344  0.3138
  126MOL0     C16523   7.371   5.479   1.390 -0.1496 -0.1416 -0.5714
  126MOL0     O16524   7.444   5.507   1.269  0.5362  0.6649 -0.1515
  126MOL0     C16525   7.555   5.579   1.296 -0.1604  0.5466  0.0812
  126MOL0     C16526   7.560   5.683   1.394  0.0128  0.3737  0.7714
  126MOL0     C16527   7.659   5.782   1.398 -0.4664  0.7837  0.4907
  126MOL0     C16528   7.769   5.771   1.313  0.2706 -0.2127  1.2640
  126MOL0     C16529   7.894   5.856   1.330  0.4385 -0.4014 -0.1365
  126MOL0     O16530   8.009   5.829   1.256 -0.2853  0.2144 -0.5549
  126MOL0     C16531   8.128   5.892   1.303  0.0532 -0.3905 -0.3115
  126MOL0     C16532   8.179   5.850   1.426 -0.5511 -0.3169  0.0587
  126MOL0     C16533   8.276   5.920   1.486 -0.2733 -0.6897 -0.2103
  126MOL0     C16534   8.353   6.014   1.426 -0.5013  0.0705 -0.4755
  126MOL0     O16535   8.463   6.070   1.490 -0.1632 -0.0018 -0.4491
  126MOL0     C16536   8.573   6.127   1.424 -0.3171 -0.4340  0.5697
  126MOL0     C16537   8.707   6.103   1.503  0.3202 -0.0818  0.9469
  126MOL0     C16538   8.826   6.159   1.421  0.3474 -0.8718  0.9112
  126MOL0     C16539   8.965   6.103   1.456  0.9404 -0.1053 -0.0473
  126MOL0     C16540   9.074   6.142   1.355 -0.1191 -0.3815 -0.2942
  126MOL0     C16541   9.214   6.073   1.378 -0.7938 -0.2833 -0.3977
  126MOL0     C16542   9.306   6.105   1.260  0.1903  0.7224 -0.6178
  126MOL0     C16543   9.429   6.021   1.258 -0.2046 -0.3246  0.2815
  126MOL0    Cl16544   9.388   5.838   1.273  0.0423  0.0402 -0.0457
  126MOL0     C16545   8.318   6.045   1.287  0.1655 -0.0753 -0.2195
  126MOL0     C16546   8.203   5.989   1.228  0.8124 -0.3178 -0.4481
  126MOL0     O16547   7.876   5.951   1.411 -0.3672  0.3313 -0.6946
  126MOL0     C16548   7.767   5.669   1.223  0.1269 -0.4283 -0.3377
  126MOL0     C16549   7.666   5.573   1.209  0.6650 -0.1385  0.4414
  126MOL0     N16550   6.854   5.303   1.141  0.2914 -0.2930 -0.5989
  126MOL0     N16551   6.803   5.299   1.025 -0.3109  0.6550  0.6562
  126MOL0     C16552   6.056   4.712   0.506 -0.3893  0.2768  0.0761
  126MOL0     C16553   5.933   4.752   0.460  0.0197  0.0006  0.2433
  126MOL0     C16554   5.622   5.102   0.372 -0.4615 -0.8495 -0.3758
  126MOL0     C16555   5.602   5.243   0.388 -0.6089 -1.2959 -0.8808
  126MOL0     C16556   5.498   5.299   0.316  0.4753 -0.9236  0.5043
  126MOL0     C16557   5.407   5.233   0.240 -0.4574 -0.2566 -0.4558
  126MOL0     O16558   5.313   5.304   0.171 -0.7170 -0.2062 -0.1356
  126MOL0     C16559   5.186   5.253   0.136 -0.0395 -0.2300  1.0503
  126MOL0     C16560   5.152   5.273  -0.009  0.1916  0.7514 -0.5410
  126MOL0     C16561   5.005   5.250  -0.047 -0.1045  0.0024 -0.8636
  126MOL0     C16562   4.943   5.110  -0.023  0.0068 -0.2625  0.1273
  126MOL0     C16563   5.012   5.003  -0.093  0.6366  0.6279  0.7597
  126MOL0     C16564   5.069   4.926  -0.169  0.1203  0.0072 -0.4031
  126MOL0     C16565   5.426   5.098   0.231  0.9673  0.1963  0.9011
  126MOL0     C16566   5.537   5.034   0.289  0.4321 -0.1755  0.1101
  126MOL0     H16567   6.029   5.068   0.358 -0.2108 -0.4030  0.0792
  126MOL0     H16568   6.247   4.972   0.389 -1.5903  1.9474 -1.2460
  126MOL0     H16569   6.426   4.878   0.459 -2.0859  0.6044 -0.2085
  126MOL0     H16570   6.403   4.760   0.330  0.3688  2.2737 -0.3540
  126MOL0     H16571   6.614   4.746   0.402  0.1825  0.9806  0.3023
  126MOL0     H16572   6.521   4.599   0.466 -1.9539  1.3349 -0.5920
  126MOL0     H16573   6.693   4.643   0.640 -1.9116 -2.5626  1.5231
  126MOL0     H16574   6.536   4.682   0.693  1.0553 -0.7659  0.9804
  126MOL0     H16575   6.701   4.904   0.582 -3.8669  0.8574 -2.4491
  126MOL0     H16576   6.553   4.920   0.659  0.9214  1.3891 -0.7994
  126MOL0     H16577   6.815   4.848   0.796 -0.7116 -2.0218  0.2658
  126MOL0     H16578   6.669   4.823   0.884  1.8995  0.2562  1.0847
  126MOL0     H16579   6.755   5.034   0.950  2.5701  0.6131 -1.0959
  126MOL0     H16580   6.635   5.083   0.823 -1.1304 -1.7009 -0.6617
  126MOL0     H16581   6.947   5.049   0.792 -0.5534  1.1705  3.2854
  126MOL0     H16582   6.830   5.099   0.659  1.6277  1.4394 -0.8210
  126MOL0     H16583   6.760   5.283   0.765 -1.1907  0.8748  3.1514
  126MOL0     H16584   6.938   5.291   0.725  1.6831 -1.0880  1.5210
  126MOL0     H16585   7.109   5.207   0.947  0.6187 -0.1467  0.3467
  126MOL0     H16586   7.131   5.169   1.255  0.8347 -0.0418 -0.4081
  126MOL0     H16587   7.013   5.269   1.340  0.3913 -2.9166  1.1555
  126MOL0     H16588   7.140   5.471   1.232  1.6509  0.5839  0.7273
  126MOL0     H16589   7.234   5.366   1.144 -0.8721 -0.4138  0.2947
  126MOL0     H16590   7.217   5.352   1.460  0.4636  0.0234  0.4791
  126MOL0     H16591   7.326   5.269   1.347 -3.2316 -2.3958 -1.5294
  126MOL0     H16592   7.437   5.442   1.469  2.7911  4.4460 -0.4817
  126MOL0     H16593   7.324   5.572   1.424  1.2432  0.0871  0.8695
  126MOL0     H16594   7.489   5.688   1.477  1.7514 -1.8374  2.5458
  126MOL0     H16595   7.648   5.859   1.475  4.2343  1.0631  1.1798
  126MOL0     H16596   8.137   5.770   1.485 -3.7364  1.9552  1.1772
  126MOL0     H16597   8.314   5.906   1.587  0.3103  2.5798  0.1438
  126MOL0     H16598   8.556   6.232   1.399 -0.0069 -0.6601 -0.6466
  126MOL0     H16599   8.579   6.063   1.335 -1.7733  2.4159 -1.7542
  126MOL0     H16600   8.723   5.996   1.518 -0.2568 -0.3819 -0.4593
  126MOL0     H16601   8.699   6.155   1.599 -1.2624 -1.4825  1.6217
  126MOL0     H16602   8.820   6.268   1.413 -2.5983 -1.1003 -2.8353
  126MOL0     H16603   8.815   6.131   1.315 -0.6652  0.2985  0.6935
  126MOL0     H16604   8.993   6.125   1.560 -1.5585 -0.2541  0.7163
  126MOL0     H16605   8.943   5.997   1.448 -3.9737  0.8103 -1.7473
  126MOL0     H16606   9.089   6.250   1.347  1.6013 -0.5314  0.3709
  126MOL0     H16607   9.046   6.119   1.252 -0.2453  0.8892 -0.5645
  126MOL0     H16608   9.195   5.966   1.390 -0.5882 -0.0773  2.5777
  126MOL0     H16609   9.267   6.103   1.469  1.1154  0.5156 -1.7218
  126MOL0     H16610   9.250   6.066   1.175  0.6235 -0.3074 -0.4498
  126MOL0     H16611   9.332   6.211   1.261  1.4702  0.4348  0.7251
  126MOL0     H16612   9.501   6.055   1.334  0.0030 -0.7324  0.2715
  126MOL0     H16613   9.480   6.036   1.162  3.7706  0.4419  2.2818
  126MOL0     H16614   8.363   6.130   1.237 -2.4613  0.3293 -2.0452
  126MOL0     H16615   8.196   6.023   1.125  1.4832  1.0593 -0.0615
  126MOL0     H16616   7.835   5.665   1.139  0.5953  2.0150 -0.1392
  126MOL0     H16617   7.671   5.501   1.127  1.1830 -0.1382  0.4690
  126MOL0     H16618   6.068   4.615   0.552 -0.2256  0.0952 -0.3465
  126MOL0     H16619   5.851   4.683   0.475  0.4122 -0.1945  1.5932
  126MOL0     H16620   5.659   5.305   0.457  1.9022 -1.2651 -2.8466
  126MOL0     H16621   5.481   5.406   0.322  1.1356 -0.7470 -0.5085
  126MOL0     H16622   5.113   5.309   0.196 -2.8502 -0.4184 -1.9096
  126MOL0     H16623   5.180   5.148   0.166 -0.4573  0.0076  1.8253
  126MOL0     H16624   5.180   5.378  -0.025 -0.3872  0.9185 -0.4821
  126MOL0     H16625   5.217   5.206  -0.067 -1.1812 -0.5688 -0.6116
  126MOL0     H16626   5.003   5.279  -0.153  0.1713  0.8085 -0.6590
  126MOL0     H16627   4.937   5.316   0.007 -1.0269 -1.4580 -0.1718
  126MOL0     H16628   4.958   5.080   0.081  0.7720 -2.5848 -0.5879
  126MOL0     H16629   4.839   5.112  -0.057  0.3326  1.6918 -0.9177
  126MOL0     H16630   5.119   4.849  -0.224  3.0064  1.2935  0.2686
  126MOL0     H16631   5.363   5.038   0.165  2.6487 -1.7005  0.9337
  126MOL0     H16632   5.559   4.928   0.287  1.5626  0.0554 -1.2642
  127MOL0     O16633   3.737  10.693   0.955 -0.4911  0.2512  0.4040
  127MOL0     C16634   3.745  10.568   0.948 -0.4102 -0.8633  0.0562
  127MOL0     O16635   3.675  10.477   1.024  0.6228 -0.2285  0.1944
  127MOL0     C16636   3.569  10.510   1.107 -0.3079 -0.0594  0.4078
  127MOL0     C16637   3.561  10.450   1.237  0.0859 -0.4637 -0.1979
  127MOL0     C16638   3.450  10.481   1.314 -0.5414  0.8076  0.1976
  127MOL0     C16639   3.345  10.565   1.276 -0.3602 -0.1603  0.1951
  127MOL0     O16640   3.216  10.570   1.336  0.1111 -0.9747 -0.5720
  127MOL0     C16641   3.169  10.448   1.394  0.0680 -0.7784  0.2438
  127MOL0     C16642   3.018  10.462   1.413  1.4095 -0.0961 -0.8218
  127MOL0     C16643   2.968  10.574   1.512 -0.7930 -0.2111  0.6457
  127MOL0     C16644   2.821  10.557   1.537 -0.1136 -0.1975  0.9147
  127MOL0     C16645   2.787  10.641   1.664  0.0322 -0.7495  0.6252
  127MOL0     C16646   2.631  10.643   1.699  0.4399  0.2500 -0.3541
  127MOL0     C16647   2.542  10.723   1.602  0.2037  0.6918  0.4717
  127MOL0     C16648   2.422  10.804   1.653 -0.0284 -0.0318  0.0829
  127MOL0     N16649   2.304  10.718   1.680 -0.0784 -0.1413 -0.2391
  127MOL0     C16650   2.245  10.694   1.799 -0.5753  0.4090  0.6875
  127MOL0     C16651   2.153  10.602   1.773  0.1457 -0.0355 -0.4211
  127MOL0     C16652   2.090  10.504   1.875 -1.0415  0.5333 -0.4859
  127MOL0     C16653   1.938  10.497   1.869  0.2541  0.0355  0.9767
  127MOL0     C16654   1.883  10.629   1.936 -0.1137  0.6908 -0.5345
  127MOL0     C16655   1.728  10.630   1.920  0.3787  1.0891  0.2899
  127MOL0     O16656   1.666  10.539   2.019 -0.3394  0.3941  0.0147
  127MOL0     C16657   1.529  10.551   2.043 -0.2373  1.1893  0.7952
  127MOL0     C16658   1.478  10.463   2.137  0.5831 -0.6095  1.0828
  127MOL0     C16659   1.342  10.466   2.172 -1.2264 -0.2468 -0.0053
  127MOL0     C16660   1.255  10.560   2.114 -0.4386 -0.5635  0.0592
  127MOL0     C16661   1.114  10.574   2.160 -0.2912 -0.0980  0.1416
  127MOL0     O16662   1.051  10.694   2.130 -0.1697  0.3505  0.3082
  127MOL0     C16663   0.917  10.721   2.148 -0.3718 -0.7876  0.1112
  127MOL0     C16664   0.868  10.840   2.091  0.0851  0.0950 -0.0267
  127MOL0     C16665   0.733  10.873   2.092 -0.5614  0.5025 -0.0512
  127MOL0     C16666   0.636  10.787   2.148  0.0236  0.2955 -0.5126
  127MOL0     O16667   0.500  10.822   2.145  0.3673  0.4865  0.0343
  127MOL0     C16668   0.453  10.959   2.141 -0.1786 -0.1973  0.0442
  127MOL0     C16669   0.300  10.969   2.132 -0.1715 -0.0816 -0.2584
  127MOL0     C16670   0.265  11.113   2.128  0.2032 -0.4251  0.0088
  127MOL0     C16671   0.114  11.145   2.106  0.0498  0.5422 -1.0322
  127MOL0     C16672   0.092  11.260   2.012 -0.2141  0.3210  0.1498
  127MOL0     C16673   0.151  11.402   2.061  0.0853 -0.7589  0.5258
  127MOL0     C16674   0.080  11.466   2.189  0.9643  0.2251  0.8523
  127MOL0     C16675  -0.074  11.487   2.160 -0.0122  0.6349 -0.4448
  127MOL0    Cl16676  -0.126  11.602   2.285  0.3238  0.1336  0.0301
  127MOL0     C16677   0.681  10.670   2.207 -0.0395  0.7258  0.2993
  127MOL0     C16678   0.819  10.635   2.208  0.1657  0.2207 -0.2719
  127MOL0     O16679   1.072  10.478   2.223 -0.4796  0.0269  0.6278
  127MOL0     C16680   1.308  10.648   2.011  0.6689 -0.0668 -0.0685
  127MOL0     C16681   1.442  10.642   1.978 -1.0413  0.5690 -0.0655
  127MOL0     N16682   2.143  10.589   1.637  0.1524  0.0500  0.1020
  127MOL0     N16683   2.228  10.656   1.579 -0.2973  0.4122 -0.1962
  127MOL0     C16684   3.353  10.626   1.153 -0.5635  0.7654  0.4648
  127MOL0     C16685   3.473  10.602   1.075  0.9804  0.0038 -0.2967
  127MOL0     C16686   3.841  10.510   0.856  0.4612 -0.1410  0.2461
  127MOL0     C16687   3.933  10.599   0.790 -0.0311  0.7333  0.7315
  127MOL0     C16688   4.035  10.544   0.716  0.2678 -0.3661  1.0387
  127MOL0     C16689   4.034  10.405   0.687  0.4052  0.0431  0.0687
  127MOL0     O16690   4.121  10.355   0.594 -0.3497  0.3066  0.2685
  127MOL0     C16691   4.154  10.214   0.586 -0.0802  0.4888 -1.7525
  127MOL0     C16692   4.246  10.185   0.475 -0.2908 -0.1080 -0.8167
  127MOL0     C16693   4.390  10.199   0.512 -0.3385  0.1003  0.3468
  127MOL0     C16694   4.490  10.198   0.395  0.1154 -0.1913  0.0067
  127MOL0     C16695   4.491  10.326   0.331 -0.8452  0.0686  0.5768
  127MOL0     C16696   4.500  10.434   0.268 -0.4516  0.3411 -0.8186
  127MOL0     C16697   3.942  10.323   0.749 -0.5919  0.1118  0.6521
  127MOL0     C16698   3.846  10.373   0.832  0.7041 -0.1094  0.6645
  127MOL0     H16699   3.635  10.379   1.272 -0.3392 -0.6339  0.3705
  127MOL0     H16700   3.458  10.436   1.413  2.3133  0.8269  0.0542
  127MOL0     H16701   3.214  10.436   1.493  0.5866 -1.7002 -0.0860
  127MOL0     H16702   3.187  10.360   1.331 -1.9580 -0.5436 -0.7214
  127MOL0     H16703   2.968  10.366   1.431 -1.0350  1.4222  1.2064
  127MOL0     H16704   2.965  10.480   1.319 -0.8334 -2.0447 -0.0305
  127MOL0     H16705   2.984  10.674   1.473 -0.5703 -1.2270 -2.1059
  127MOL0     H16706   3.033  10.568   1.600 -2.3700  1.2247  1.9810
  127MOL0     H16707   2.758  10.599   1.458  0.3463  0.4263  0.8611
  127MOL0     H16708   2.789  10.453   1.537  2.8997 -1.2707 -1.3709
  127MOL0     H16709   2.834  10.736   1.638 -3.9929  0.7904 -2.0002
  127MOL0     H16710   2.831  10.583   1.746  0.9994  0.2658  0.8459
  127MOL0     H16711   2.612  10.687   1.797 -0.3805 -1.1611  0.1560
  127MOL0     H16712   2.597  10.540   1.711 -0.2008  0.3933 -0.9043
  127MOL0     H16713   2.617  10.794   1.566  0.8989 -0.8933 -1.3900
  127MOL0     H16714   2.523  10.660   1.515  0.5899 -1.2651  1.7415
  127MOL0     H16715   2.401  10.872   1.570  2.0426  0.0353 -0.4236
  127MOL0     H16716   2.448  10.861   1.742  1.4659  2.6448 -1.9446
  127MOL0     H16717   2.275  10.725   1.898  0.1361  0.6991  0.3893
  127MOL0     H16718   2.115  10.529   1.979  0.2566 -2.7109  0.1048
  127MOL0     H16719   2.128  10.402   1.861 -1.6734  0.2495 -0.1586
  127MOL0     H16720   1.902  10.412   1.928  2.5210 -1.5713  0.1677
  127MOL0     H16721   1.906  10.482   1.766  0.4768  0.9297  0.7743
  127MOL0     H16722   1.906  10.611   2.042 -0.5242 -3.1155 -0.9397
  127MOL0     H16723   1.923  10.722   1.895 -1.6330  0.2798 -3.1414
  127MOL0     H16724   1.716  10.605   1.814  3.4643 -1.5183  0.4069
  127MOL0     H16725   1.692  10.733   1.935 -0.5871  1.2559 -2.4502
  127MOL0     H16726   1.541  10.387   2.182 -1.4335 -1.1880  3.1158
  127MOL0     H16727   1.306  10.395   2.246 -1.1664 -0.0092  0.2542
  127MOL0     H16728   0.938  10.910   2.047 -1.5635  0.9354 -1.4500
  127MOL0     H16729   0.707  10.957   2.029  1.0508  1.2682  0.2437
  127MOL0     H16730   0.499  11.001   2.051  3.3916 -1.9057  0.8907
  127MOL0     H16731   0.499  11.014   2.223  1.7605 -1.2921 -0.2609
  127MOL0     H16732   0.248  10.917   2.213 -0.2055 -0.3936 -0.4766
  127MOL0     H16733   0.268  10.926   2.036 -0.9803  3.6285 -1.8144
  127MOL0     H16734   0.321  11.155   2.044 -0.1161  0.8358  0.4012
  127MOL0     H16735   0.289  11.158   2.225 -2.1636 -1.8388  1.3462
  127MOL0     H16736   0.058  11.059   2.069 -1.6094  0.8802  0.5251
  127MOL0     H16737   0.060  11.161   2.200 -1.7342 -0.2473 -1.8670
  127MOL0     H16738  -0.008  11.272   1.969  0.1571 -2.0301 -1.6139
  127MOL0     H16739   0.156  11.239   1.926 -0.5830 -2.0775  0.3696
  127MOL0     H16740   0.126  11.462   1.973 -2.4964 -1.0269  1.0041
  127MOL0     H16741   0.260  11.400   2.071  0.8864  2.9273 -3.9535
  127MOL0     H16742   0.091  11.397   2.273  1.7269 -2.3722 -1.2147
  127MOL0     H16743   0.129  11.562   2.206  0.7286 -0.0931  3.7013
  127MOL0     H16744  -0.131  11.394   2.161  0.9406 -0.0612 -2.6186
  127MOL0     H16745  -0.105  11.529   2.063 -3.3120  0.6961  0.5148
  127MOL0     H16746   0.614  10.607   2.264 -0.2941  0.2765 -0.4674
  127MOL0     H16747   0.847  10.545   2.262  1.6335  0.3279 -0.7876
  127MOL0     H16748   1.248  10.735   1.988  2.7204  1.9649  1.7352
  127MOL0     H16749   1.484  10.719   1.914  1.5334 -1.5346 -1.0398
  127MOL0     H16750   3.269  10.677   1.108 -0.3015  0.1719 -0.7422
  127MOL0     H16751   3.478  10.653   0.979 -0.5982  2.1498  0.6835
  127MOL0     H16752   3.941  10.701   0.828  0.5503 -0.5892  4.6517
  127MOL0     H16753   4.108  10.606   0.665  0.4185 -1.2616  0.1106
  127MOL0     H16754   4.067  10.150   0.569 -0.2678  0.3931 -0.5821
  127MOL0     H16755   4.197  10.183   0.682 -1.1338 -0.0781 -1.4363
  127MOL0     H16756   4.232  10.080   0.449 -0.9968  0.5968 -3.7128
  127MOL0     H16757   4.226  10.247   0.387  0.9045  2.1167  0.4016
  127MOL0     H16758   4.430  10.125   0.581 -0.2081 -1.1590 -1.0428
  127MOL0     H16759   4.386  10.297   0.560  0.7698 -0.0274  0.7294
  127MOL0     H16760   4.587  10.183   0.444 -0.5825 -0.6410  1.3101
  127MOL0     H16761   4.485  10.119   0.320 -1.8686 -1.8118  1.7339
  127MOL0     H16762   4.500  10.518   0.200 -0.6298 -2.8499 -5.1959
  127MOL0     H16763   3.925  10.215   0.752  2.3917 -0.4452  3.3097
  127MOL0     H16764   3.768  10.305   0.863 -2.0293  1.6766 -1.7895
  128MOL0     O16765   4.041   3.786   5.989 -0.2181 -0.2748  0.2578
  128MOL0     C16766   4.063   3.902   5.949 -0.3449  0.5655 -0.2384
  128MOL0     O16767   3.969   3.998   5.919  0.3520  0.2877  0.5196
  128MOL0     C16768   3.840   3.954   5.943  0.6946  1.3649  0.5159
  128MOL0     C16769   3.784   3.839   5.886 -0.3205 -0.2569  0.2342
  128MOL0     C16770   3.662   3.794   5.922 -0.2266  0.2224 -0.3319
  128MOL0     C16771   3.585   3.858   6.009  0.2129 -0.1687  1.1345
  128MOL0     O16772   3.456   3.815   6.035 -0.2364  0.2880 -0.0151
  128MOL0     C16773   3.443   3.707   6.139  0.3467 -1.3513 -0.4351
  128MOL0     C16774   3.352   3.738   6.261 -0.2295  0.3421 -0.2699
  128MOL0     C16775   3.210   3.774   6.205 -0.0234  0.0530  0.4356
  128MOL0     C16776   3.108   3.814   6.307 -0.3699 -0.3970  0.2123
  128MOL0     C16777   3.163   3.940   6.380 -0.1013  0.0786  0.1371
  128MOL0     C16778   3.082   3.967   6.502 -0.0979 -0.6807 -0.0358
  128MOL0     C16779   2.932   3.986   6.470  0.5825 -0.1021  0.0656
  128MOL0     C16780   2.917   4.102   6.374  0.4399  0.1238  0.2403
  128MOL0     N16781   2.775   4.109   6.341 -0.7606  0.0623 -0.5789
  128MOL0     C16782   2.699   4.030   6.261  0.4265  0.4192  0.0246
  128MOL0     C16783   2.575   4.080   6.267  0.6880  0.2648 -0.1780
  128MOL0     C16784   2.455   4.029   6.183 -0.0890  1.1076 -0.0389
  128MOL0     C16785   2.416   4.114   6.062 -0.1116  0.6606  0.0390
  128MOL0     C16786   2.312   4.225   6.081  0.1285  0.2807  0.1062
  128MOL0     C16787   2.173   4.159   6.087  0.5272 -0.5516 -0.4066
  128MOL0     O16788   2.081   4.258   6.150 -0.3166  0.3087  0.5732
  128MOL0     C16789   1.953   4.220   6.180 -0.2420 -0.2718 -0.2476
  128MOL0     C16790   1.910   4.086   6.169 -0.1443  0.1062 -0.9340
  128MOL0     C16791   1.770   4.071   6.199  0.6958 -0.4331  0.5009
  128MOL0     C16792   1.691   4.171   6.260  0.7167  0.6610 -1.2132
  128MOL0     C16793   1.561   4.139   6.323 -0.3063  0.5542 -0.8452
  128MOL0     O16794   1.493   4.249   6.355  0.1030 -0.3988 -0.1314
  128MOL0     C16795   1.369   4.243   6.412  0.1375 -0.1172 -0.2984
  128MOL0     C16796   1.299   4.361   6.400  0.3616  0.3855 -0.2202
  128MOL0     C16797   1.165   4.382   6.444 -0.0382 -0.1878  1.3215
  128MOL0     C16798   1.104   4.274   6.497  0.4338  0.2597 -0.5649
  128MOL0     O16799   0.966   4.290   6.536 -0.4844 -0.5291  0.2005
  128MOL0     C16800   0.956   4.285   6.676 -0.9990 -0.1009  0.4193
  128MOL0     C16801   0.842   4.379   6.702 -0.1182  0.0774 -0.0725
  128MOL0     C16802   0.794   4.378   6.844  0.0307  0.2390 -0.5385
  128MOL0     C16803   0.693   4.271   6.871 -0.5029 -0.2019  0.1422
  128MOL0     C16804   0.644   4.281   7.020  0.4210  0.4944  0.3421
  128MOL0     C16805   0.566   4.410   7.052  0.9714 -0.9135 -0.6302
  128MOL0     C16806   0.512   4.404   7.192 -0.1089 -0.2928  0.7452
  128MOL0     C16807   0.499   4.545   7.248  0.0486  0.4956 -0.8121
  128MOL0    Cl16808   0.378   4.645   7.153 -0.0621  0.0446 -0.5934
  128MOL0     C16809   1.166   4.158   6.520  0.1873  0.1263  0.0832
  128MOL0     C16810   1.297   4.139   6.475 -1.1307  0.4360 -0.7798
  128MOL0     O16811   1.533   4.021   6.348 -0.2350  0.7572 -0.2831
  128MOL0     C16812   1.755   4.292   6.282  0.8053  0.7443 -0.1944
  128MOL0     C16813   1.882   4.323   6.240 -0.0232 -0.2552 -0.1552
  128MOL0     N16814   2.572   4.183   6.355 -0.0576 -0.1286  0.5123
  128MOL0     N16815   2.696   4.214   6.378 -0.0594 -0.0424  1.4800
  128MOL0     C16816   3.636   3.969   6.062  0.2932  0.0939 -0.8155
  128MOL0     C16817   3.758   4.021   6.033 -0.1076 -1.0845 -0.8756
  128MOL0     C16818   4.205   3.938   5.925 -0.5247 -0.4550 -0.3726
  128MOL0     C16819   4.247   4.056   5.852  0.6410  0.5647 -0.4671
  128MOL0     C16820   4.383   4.063   5.819  0.3145 -0.0610 -0.5584
  128MOL0     C16821   4.479   3.973   5.859 -0.4163 -0.6312 -0.0257
  128MOL0     O16822   4.613   3.980   5.829 -0.1905 -0.1947 -0.3343
  128MOL0     C16823   4.661   4.077   5.735  0.3610 -0.5063 -0.8311
  128MOL0     C16824   4.799   4.048   5.681  0.5236  1.1538 -0.2954
  128MOL0     C16825   4.817   3.917   5.621  0.3674 -0.0997 -0.4575
  128MOL0     C16826   4.887   3.813   5.714 -0.2317 -0.0344 -0.1837
  128MOL0     C16827   5.024   3.831   5.751  0.3043  0.5334  0.2090
  128MOL0     C16828   5.136   3.855   5.793  0.5465 -0.0782  0.2699
  128MOL0     C16829   4.432   3.856   5.932 -1.0186  0.5626  0.2139
  128MOL0     C16830   4.302   3.836   5.957  0.7508  0.1940 -0.6212
  128MOL0     H16831   3.851   3.788   5.817 -1.2017 -0.1516 -0.7400
  128MOL0     H16832   3.630   3.700   5.877  0.0591 -0.7800  1.4758
  128MOL0     H16833   3.539   3.679   6.185  0.3247  0.4908  0.8229
  128MOL0     H16834   3.402   3.617   6.092 -0.9089 -0.3830 -1.2620
  128MOL0     H16835   3.395   3.822   6.316  4.5885 -1.3708 -0.9598
  128MOL0     H16836   3.346   3.649   6.324 -1.6344  0.5238 -0.1212
  128MOL0     H16837   3.179   3.690   6.143  1.1045  0.6924 -1.0691
  128MOL0     H16838   3.218   3.860   6.139 -0.7190 -0.0788  0.1734
  128MOL0     H16839   3.012   3.831   6.256  0.3491  1.5748 -0.5934
  128MOL0     H16840   3.095   3.733   6.380  0.7263 -2.2370 -1.5312
  128MOL0     H16841   3.158   4.028   6.316  0.1630 -0.1621 -0.2186
  128MOL0     H16842   3.269   3.945   6.403  0.1639  1.6349 -1.2367
  128MOL0     H16843   3.120   4.056   6.553 -1.0083 -0.9137  1.0677
  128MOL0     H16844   3.088   3.890   6.578  0.6763 -1.1679 -0.5722
  128MOL0     H16845   2.881   3.895   6.438  1.6523 -0.3297 -1.0645
  128MOL0     H16846   2.870   4.008   6.558  0.4576  3.1848 -0.6943
  128MOL0     H16847   2.976   4.077   6.285  0.9972  0.8197  0.4058
  128MOL0     H16848   2.958   4.189   6.424 -0.7196  0.8691 -0.0637
  128MOL0     H16849   2.730   3.953   6.191  2.4951  0.5029  0.7614
  128MOL0     H16850   2.369   4.012   6.249  1.9642  2.3094  3.1614
  128MOL0     H16851   2.480   3.932   6.139 -2.1365 -0.3667  1.8154
  128MOL0     H16852   2.376   4.041   5.991 -0.9911  0.3569  0.8246
  128MOL0     H16853   2.502   4.153   6.005  1.6428 -1.9369  0.7452
  128MOL0     H16854   2.329   4.285   6.171 -2.9454 -0.8042  1.5568
  128MOL0     H16855   2.311   4.283   5.989 -0.4286  1.1003  0.6120
  128MOL0     H16856   2.183   4.067   6.147 -0.6913 -0.2798  0.2431
  128MOL0     H16857   2.148   4.121   5.988 -0.3096  1.1438 -0.8892
  128MOL0     H16858   1.962   3.994   6.142 -2.0745 -1.7191  1.1536
  128MOL0     H16859   1.730   3.975   6.169 -1.8932  0.6266  0.3275
  128MOL0     H16860   1.350   4.454   6.377  0.8282 -0.4923 -3.0576
  128MOL0     H16861   1.100   4.468   6.432  1.0107  0.3553 -1.0499
  128MOL0     H16862   1.048   4.321   6.722  1.4259 -2.9682 -1.8356
  128MOL0     H16863   0.935   4.188   6.722  2.1864  1.0300  4.9254
  128MOL0     H16864   0.763   4.337   6.638  2.0066  0.9234 -3.4450
  128MOL0     H16865   0.867   4.478   6.665 -2.3228  1.2828  1.4358
  128MOL0     H16866   0.742   4.473   6.861 -1.0394 -0.4596  0.2104
  128MOL0     H16867   0.885   4.364   6.903  1.0999  0.4246 -2.0877
  128MOL0     H16868   0.608   4.289   6.806 -0.6765  1.4545  0.7918
  128MOL0     H16869   0.739   4.173   6.853 -0.4739 -0.0154 -0.8278
  128MOL0     H16870   0.734   4.280   7.082  2.1855 -1.3052 -2.0313
  128MOL0     H16871   0.598   4.187   7.054  1.7919 -0.0404  0.7808
  128MOL0     H16872   0.487   4.424   6.978 -0.6853 -2.1344  0.8325
  128MOL0     H16873   0.620   4.505   7.056 -1.0598  0.3375 -1.4335
  128MOL0     H16874   0.417   4.353   7.177 -0.5004  0.6615 -0.1433
  128MOL0     H16875   0.572   4.344   7.261 -1.4663 -0.7827  1.5374
  128MOL0     H16876   0.595   4.597   7.241 -0.2245  1.3280  1.0316
  128MOL0     H16877   0.468   4.541   7.353 -0.4562  1.7957 -0.8939
  128MOL0     H16878   1.112   4.079   6.571  0.7267  0.7205  1.6297
  128MOL0     H16879   1.345   4.042   6.486 -0.1763  1.0559  0.8595
  128MOL0     H16880   1.702   4.371   6.335  1.0435  1.0140 -0.3557
  128MOL0     H16881   1.929   4.420   6.248 -1.4659  0.4060  0.7645
  128MOL0     H16882   3.574   4.025   6.131  1.2650  1.2067 -0.8248
  128MOL0     H16883   3.789   4.108   6.090  0.9312 -2.3374  0.5423
  128MOL0     H16884   4.171   4.128   5.822  0.8205  0.4033 -1.3321
  128MOL0     H16885   4.425   4.148   5.767  0.9553  0.3849  0.6435
  128MOL0     H16886   4.658   4.177   5.779 -2.3453 -1.1727  0.7371
  128MOL0     H16887   4.593   4.089   5.651  0.4879  1.1170 -0.7292
  128MOL0     H16888   4.822   4.119   5.600 -0.2601 -0.3824 -1.9505
  128MOL0     H16889   4.880   4.063   5.753  0.4013 -0.5377  0.2414
  128MOL0     H16890   4.869   3.909   5.525 -0.1056  0.4724 -0.7689
  128MOL0     H16891   4.717   3.877   5.602 -1.4946  1.3624  4.6428
  128MOL0     H16892   4.826   3.809   5.805 -1.0189  2.1138 -0.5518
  128MOL0     H16893   4.878   3.715   5.667  0.3807 -0.3957  0.4252
  128MOL0     H16894   5.233   3.877   5.834  0.9961  0.2295 -0.8948
  128MOL0     H16895   4.506   3.784   5.966 -0.5352  1.1579  0.4563
  128MOL0     H16896   4.276   3.754   6.024  0.0128  2.2473  1.7415
  129MOL0     O16897  10.956   0.084   3.049 -0.4052 -0.8506  0.5489
  129MOL0     C16898  10.915   0.204   3.072 -0.1668  0.7010  0.6013
  129MOL0     O16899  10.795   0.247   3.040  0.0826 -0.2053 -0.4478
  129MOL0     C16900  10.704   0.161   2.989  0.4004  0.3011  0.3503
  129MOL0     C16901  10.676   0.045   3.060 -0.6280  0.2714 -0.5084
  129MOL0     C16902  10.559  -0.035   3.038  1.1831 -0.4668  0.4794
  129MOL0     C16903  10.487  -0.006   2.919  0.0383 -0.3535  0.7066
  129MOL0     O16904  10.393  -0.101   2.893  0.2226  0.2810 -0.2285
  129MOL0     C16905  10.321  -0.091   2.768 -0.7309  0.9044 -0.5653
  129MOL0     C16906  10.207  -0.197   2.793 -0.4533  0.3109 -0.1623
  129MOL0     C16907  10.137  -0.217   2.660 -0.0129 -0.0182 -0.0687
  129MOL0     C16908  10.017  -0.313   2.676  0.2484  0.4176  0.1469
  129MOL0     C16909   9.951  -0.356   2.547  0.6200 -0.3284  0.8681
  129MOL0     C16910   9.825  -0.439   2.567 -0.3938 -0.4172  0.1597
  129MOL0     C16911   9.769  -0.484   2.426 -0.4312  0.6831  0.5101
  129MOL0     C16912   9.627  -0.540   2.439  0.6578  0.1642 -0.9002
  129MOL0     N16913   9.559  -0.584   2.323  0.4150 -0.2591  0.3147
  129MOL0     C16914   9.483  -0.501   2.252 -0.1180  0.6748  0.1413
  129MOL0     C16915   9.417  -0.581   2.172 -0.5278 -0.1085  0.1336
  129MOL0     C16916   9.326  -0.526   2.069 -0.0262  0.2150 -0.3683
  129MOL0     C16917   9.171  -0.537   2.106 -0.3274  0.2683 -0.1160
  129MOL0     C16918   9.127  -0.686   2.134 -0.4226  0.7859  0.2613
  129MOL0     C16919   8.985  -0.716   2.086  0.8965 -0.2583 -0.4648
  129MOL0     O16920   8.881  -0.675   2.180  0.3012 -0.0743  0.0033
  129MOL0     C16921   8.754  -0.723   2.143  0.5368 -0.8689  0.4053
  129MOL0     C16922   8.708  -0.723   2.012 -0.5681 -0.4387  0.3338
  129MOL0     C16923   8.571  -0.755   1.979 -0.4204 -0.3073 -0.6034
  129MOL0     C16924   8.475  -0.778   2.085 -1.1727  1.2798 -0.3219
  129MOL0     C16925   8.336  -0.820   2.047 -0.5045  1.1887  0.4782
  129MOL0     O16926   8.276  -0.870   2.159  0.3761 -0.1687  0.0471
  129MOL0     C16927   8.147  -0.913   2.137  0.5009  1.1396 -0.8444
  129MOL0     C16928   8.044  -0.820   2.169  0.5262 -0.0003 -0.3391
  129MOL0     C16929   7.901  -0.846   2.150 -0.3834 -0.2943 -0.6370
  129MOL0     C16930   7.869  -0.975   2.106  0.3859  0.2709 -0.1857
  129MOL0     O16931   7.735  -1.012   2.078 -0.0619 -0.1863 -0.5439
  129MOL0     C16932   7.634  -0.966   2.166  0.3527  0.2995 -0.7192
  129MOL0     C16933   7.498  -1.036   2.157 -1.3426 -1.0769  1.0956
  129MOL0     C16934   7.503  -1.178   2.218  0.3001 -0.6307  0.7545
  129MOL0     C16935   7.378  -1.263   2.210 -0.2135 -0.3832 -0.9999
  129MOL0     C16936   7.267  -1.200   2.294 -0.6095 -0.2615  1.1618
  129MOL0     C16937   7.124  -1.246   2.287  0.3194 -0.6250 -0.7366
  129MOL0     C16938   7.058  -1.214   2.160  0.4485 -0.3868  0.8322
  129MOL0     C16939   6.919  -1.254   2.163  0.6030  0.6254  0.2114
  129MOL0    Cl16940   6.841  -1.150   2.042 -0.1946 -0.5819 -0.1685
  129MOL0     C16941   7.966  -1.061   2.065  0.0091  0.4347 -0.2876
  129MOL0     C16942   8.101  -1.033   2.081  0.1531  0.6344  0.1879
  129MOL0     O16943   8.293  -0.817   1.933 -0.6904 -0.0558 -0.4014
  129MOL0     C16944   8.520  -0.769   2.213  0.1419  0.8263  0.4705
  129MOL0     C16945   8.656  -0.746   2.244 -0.5042  0.4152  0.0734
  129MOL0     N16946   9.463  -0.712   2.189  0.4224  0.4718 -0.0263
  129MOL0     N16947   9.549  -0.706   2.281 -0.4028  0.1885 -0.2413
  129MOL0     C16948  10.525   0.098   2.832 -0.7064 -0.2348 -0.1170
  129MOL0     C16949  10.629   0.185   2.872  0.3232  0.1041 -0.4784
  129MOL0     C16950  10.992   0.310   3.140 -0.2168 -0.6429  0.3185
  129MOL0     C16951  11.133   0.297   3.151  0.2675 -0.4794  0.1999
  129MOL0     C16952  11.213   0.387   3.208 -0.0115 -0.0033 -0.3768
  129MOL0     C16953  11.166   0.506   3.257  1.0492 -0.2484 -0.3795
  129MOL0     O16954  11.256   0.604   3.304 -0.1618 -0.4975 -0.2242
  129MOL0     C16955  11.212   0.739   3.352  0.3376 -0.4922 -0.2230
  129MOL0     C16956  11.321   0.839   3.401  0.7445  0.0967  0.5444
  129MOL0     C16957  11.290   0.949   3.497  0.1439  0.1185 -1.0692
  129MOL0     C16958  11.273   0.900   3.639 -0.5050 -0.2928  0.0164
  129MOL0     C16959  11.288   1.009   3.736 -0.3437  1.1344 -0.0300
  129MOL0     C16960  11.294   1.087   3.827  0.2248 -0.6631 -0.1716
  129MOL0     C16961  11.026   0.530   3.252  0.1177 -0.0745  0.3503
  129MOL0     C16962  10.941   0.430   3.190 -0.5986  0.2778  0.0765
  129MOL0     H16963  10.751   0.012   3.131 -0.1573 -0.8061 -1.4763
  129MOL0     H16964  10.544  -0.128   3.093  2.8377  0.2076  2.1838
  129MOL0     H16965  10.387  -0.114   2.684  1.4654  2.3611  0.6751
  129MOL0     H16966  10.270   0.005   2.755 -1.6481  0.0362 -4.8234
  129MOL0     H16967  10.146  -0.148   2.870  2.0145 -0.2485  2.3038
  129MOL0     H16968  10.252  -0.289   2.832  1.0561  1.8464  1.9227
  129MOL0     H16969  10.216  -0.252   2.593 -0.0857  0.6373 -0.5114
  129MOL0     H16970  10.092  -0.130   2.611 -1.8391 -2.0910 -2.3627
  129MOL0     H16971  10.055  -0.404   2.724 -0.4909 -1.1984 -2.1872
  129MOL0     H16972   9.940  -0.276   2.744  0.1366  2.0181 -0.8161
  129MOL0     H16973  10.021  -0.416   2.487 -0.9421  0.4860 -1.9739
  129MOL0     H16974   9.937  -0.262   2.492 -0.3703 -0.8862  0.1445
  129MOL0     H16975   9.753  -0.385   2.629 -0.6131  2.9559 -2.7087
  129MOL0     H16976   9.852  -0.532   2.618  3.2335  0.5318  0.2513
  129MOL0     H16977   9.756  -0.398   2.361 -2.3913  0.5584  0.6752
  129MOL0     H16978   9.838  -0.559   2.386  0.7086  1.5572  0.7941
  129MOL0     H16979   9.570  -0.457   2.483  0.9253 -0.2887  0.3352
  129MOL0     H16980   9.634  -0.620   2.513 -1.4460  0.1396 -0.6633
  129MOL0     H16981   9.474  -0.393   2.252 -1.8303  0.5918 -1.4065
  129MOL0     H16982   9.353  -0.585   1.982  4.0079 -0.7605  1.3175
  129MOL0     H16983   9.354  -0.421   2.055  1.9814 -0.1439  0.5784
  129MOL0     H16984   9.120  -0.486   2.024  0.4828  2.5445  0.7335
  129MOL0     H16985   9.147  -0.488   2.200  0.8576 -0.2309  0.4685
  129MOL0     H16986   9.182  -0.753   2.067 -4.8840 -2.4406 -0.6443
  129MOL0     H16987   9.146  -0.712   2.239  1.5479  3.0792  0.5768
  129MOL0     H16988   8.975  -0.822   2.064  0.8733 -0.2513 -0.4904
  129MOL0     H16989   8.974  -0.663   1.990  1.4360 -0.0965 -0.4416
  129MOL0     H16990   8.777  -0.702   1.931 -1.8000  1.6557 -0.2588
  129MOL0     H16991   8.546  -0.765   1.874 -1.2690  1.8899 -0.6716
  129MOL0     H16992   8.083  -0.731   2.218 -2.3341  0.1001  2.0585
  129MOL0     H16993   7.821  -0.776   2.171  1.1913  1.2298  0.5707
  129MOL0     H16994   7.613  -0.864   2.131 -0.1032 -0.0911 -1.6065
  129MOL0     H16995   7.675  -0.953   2.267  1.2041 -1.5608 -0.7813
  129MOL0     H16996   7.480  -1.042   2.050 -0.2549 -0.0044  0.8325
  129MOL0     H16997   7.415  -0.972   2.188 -0.9765  0.4566 -0.9164
  129MOL0     H16998   7.538  -1.162   2.320 -0.3432  3.0568  0.5267
  129MOL0     H16999   7.584  -1.232   2.168  0.4438  1.1643 -1.0571
  129MOL0     H17000   7.346  -1.264   2.105 -0.3721  1.2108 -0.9867
  129MOL0     H17001   7.397  -1.365   2.245 -1.2340  0.3290  1.9302
  129MOL0     H17002   7.271  -1.093   2.270  0.7623 -1.3016 -4.8899
  129MOL0     H17003   7.304  -1.224   2.395  0.1873 -2.4248  0.4231
  129MOL0     H17004   7.064  -1.203   2.368 -1.2769 -0.4685 -1.9562
  129MOL0     H17005   7.127  -1.355   2.299  3.1208 -0.5773 -0.2990
  129MOL0     H17006   7.070  -1.107   2.141  0.6320 -0.7822 -1.5842
  129MOL0     H17007   7.113  -1.248   2.072 -1.5877  1.6164 -1.3777
  129MOL0     H17008   6.870  -1.229   2.257  2.5795  1.4242  1.0796
  129MOL0     H17009   6.914  -1.361   2.141 -2.5881  0.4127  1.5211
  129MOL0     H17010   7.940  -1.153   2.015 -0.5628  0.8567 -0.7945
  129MOL0     H17011   8.175  -1.102   2.043  2.9268  2.8433  1.2070
  129MOL0     H17012   8.444  -0.799   2.284  0.9578  1.4057  1.6152
  129MOL0     H17013   8.695  -0.728   2.344 -0.0506  2.3152 -0.4080
  129MOL0     H17014  10.472   0.133   2.744  1.7446  0.3620 -1.4399
  129MOL0     H17015  10.658   0.256   2.795  0.9740  0.2609 -0.0939
  129MOL0     H17016  11.167   0.208   3.099  1.1101  0.8123 -1.5678
  129MOL0     H17017  11.318   0.362   3.197 -0.4972 -1.8271 -1.2709
  129MOL0     H17018  11.147   0.729   3.439  0.7638  1.2039  0.3274
  129MOL0     H17019  11.148   0.784   3.276 -2.2874 -2.7496  0.5200
  129MOL0     H17020  11.401   0.780   3.446 -0.7559 -1.1886  1.6361
  129MOL0     H17021  11.369   0.894   3.320 -2.3606  1.9753 -0.1734
  129MOL0     H17022  11.196   0.997   3.468 -0.2824  0.8990  1.4102
  129MOL0     H17023  11.370   1.023   3.497  0.2960 -0.0376 -1.5400
  129MOL0     H17024  11.173   0.857   3.643 -0.6995  0.0542 -0.7831
  129MOL0     H17025  11.347   0.824   3.667 -1.3480 -0.7450  1.0562
  129MOL0     H17026  11.293   1.147   3.915  0.5905 -1.7707  0.6057
  129MOL0     H17027  10.978   0.624   3.277 -1.5747 -0.7753 -0.1809
  129MOL0     H17028  10.835   0.448   3.177 -0.6111  0.7480  0.7520
  130MOL0     O17029   1.356   4.139   8.217  0.5070  0.5601  0.1201
  130MOL0     C17030   1.387   4.167   8.331  0.8466 -0.2774 -0.2507
  130MOL0     O17031   1.299   4.216   8.424 -0.5294 -0.0769 -0.0311
  130MOL0     C17032   1.166   4.210   8.399 -0.1945  0.0151  0.4285
  130MOL0     C17033   1.090   4.304   8.463  0.6468 -0.4601 -0.1518
  130MOL0     C17034   0.954   4.310   8.446  0.7178 -0.4661  0.5146
  130MOL0     C17035   0.887   4.210   8.368 -0.0385 -0.5955 -0.3135
  130MOL0     O17036   0.749   4.210   8.351  0.1757 -0.4990  0.1073
  130MOL0     C17037   0.672   4.330   8.379 -0.2162  0.1735  0.3287
  130MOL0     C17038   0.522   4.300   8.353  0.3629  0.0728 -0.7424
  130MOL0     C17039   0.442   4.428   8.335 -0.4140  0.2851 -0.2795
  130MOL0     C17040   0.301   4.379   8.302  0.3238 -0.0838 -0.4683
  130MOL0     C17041   0.225   4.507   8.262  0.3682  0.4516 -0.1262
  130MOL0     C17042   0.172   4.585   8.391  0.6289  0.6215 -0.2330
  130MOL0     C17043   0.080   4.701   8.348  0.3436  0.3781  0.8354
  130MOL0     C17044  -0.022   4.734   8.458  0.4393  0.2323  0.0756
  130MOL0     N17045   0.044   4.780   8.582  0.8420  1.5103  0.2683
  130MOL0     C17046   0.141   4.874   8.603 -0.8923  0.3885 -0.4794
  130MOL0     C17047   0.175   4.870   8.733  0.2729  0.1476 -1.4244
  130MOL0     C17048   0.293   4.949   8.791 -0.0322 -0.0536 -0.7516
  130MOL0     C17049   0.421   4.909   8.731  0.4148 -0.9421  0.2173
  130MOL0     C17050   0.447   4.755   8.730  0.0415 -1.3068  1.2426
  130MOL0     C17051   0.589   4.728   8.696 -0.3388  0.3285 -0.0583
  130MOL0     O17052   0.626   4.767   8.566  0.1842  0.6303  0.2894
  130MOL0     C17053   0.759   4.745   8.526  0.5406  0.4841 -0.7363
  130MOL0     C17054   0.784   4.782   8.396 -0.1230 -0.0860  0.4190
  130MOL0     C17055   0.911   4.782   8.350 -0.2915 -0.6583 -0.0084
  130MOL0     C17056   1.018   4.745   8.433 -0.3657  0.1890  0.3172
  130MOL0     C17057   1.158   4.753   8.383  0.0277  0.8813 -0.8946
  130MOL0     O17058   1.258   4.706   8.468 -0.4270 -0.9547 -0.6220
  130MOL0     C17059   1.389   4.707   8.429  0.2454 -0.2499  1.2177
  130MOL0     C17060   1.455   4.815   8.366 -0.4160 -1.0916 -0.0916
  130MOL0     C17061   1.594   4.792   8.330  0.0700 -0.0628 -0.2664
  130MOL0     C17062   1.656   4.664   8.339  0.3278 -0.4032  0.7022
  130MOL0     O17063   1.779   4.647   8.285 -0.1390  0.1366  0.1659
  130MOL0     C17064   1.840   4.520   8.294 -0.6755 -0.1396 -0.0138
  130MOL0     C17065   1.970   4.527   8.216  0.1728  0.4373  0.6993
  130MOL0     C17066   2.084   4.621   8.269 -0.2379 -0.0203 -0.2352
  130MOL0     C17067   2.175   4.539   8.364  1.0487 -0.6628 -0.7133
  130MOL0     C17068   2.231   4.639   8.469  0.0159  0.4286  0.4114
  130MOL0     C17069   2.351   4.712   8.409  0.5734  0.3569  0.3595
  130MOL0     C17070   2.464   4.607   8.371  0.4825  0.2171 -1.2525
  130MOL0     C17071   2.611   4.654   8.393 -0.0851 -0.0765 -0.5891
  130MOL0    Cl17072   2.644   4.769   8.266 -0.5603 -0.1457 -0.6241
  130MOL0     C17073   1.577   4.558   8.396 -0.7464 -0.5895 -0.7836
  130MOL0     C17074   1.454   4.585   8.439  0.9528  0.3040 -0.2813
  130MOL0     O17075   1.175   4.788   8.269 -0.0476  0.5644  0.0247
  130MOL0     C17076   0.995   4.702   8.564 -0.1594  0.0393  0.0383
  130MOL0     C17077   0.863   4.708   8.612 -0.4238 -0.0810 -0.1449
  130MOL0     N17078   0.105   4.764   8.793 -0.6008  0.1471 -0.3546
  130MOL0     N17079   0.036   4.710   8.703 -0.0318 -0.3235  0.0125
  130MOL0     C17080   0.965   4.109   8.310  0.1408 -0.2416  0.1049
  130MOL0     C17081   1.100   4.106   8.325 -0.3364 -0.8755  0.4231
  130MOL0     C17082   1.534   4.160   8.374  0.3944  0.1477  0.6044
  130MOL0     C17083   1.625   4.097   8.291 -0.5207 -0.6110  0.8613
  130MOL0     C17084   1.757   4.081   8.329 -0.1150 -0.2950 -0.7171
  130MOL0     C17085   1.801   4.126   8.456 -0.0573  0.8053  0.8392
  130MOL0     O17086   1.936   4.128   8.495 -0.1473 -0.0734 -0.6244
  130MOL0     C17087   2.040   4.083   8.405 -0.0781  0.0346  0.2080
  130MOL0     C17088   2.175   4.086   8.467 -0.2362  0.0694  0.1713
  130MOL0     C17089   2.178   4.022   8.617  0.5280  0.2426  0.1847
  130MOL0     C17090   2.093   3.898   8.628 -1.0943 -0.5100 -0.5439
  130MOL0     C17091   2.128   3.833   8.755 -1.4102 -0.0845  0.0738
  130MOL0     C17092   2.151   3.766   8.856  0.4366  0.0588  0.4593
  130MOL0     C17093   1.713   4.188   8.545  0.5646 -0.4484 -0.7761
  130MOL0     C17094   1.575   4.205   8.500 -0.3903 -0.1498  0.0211
  130MOL0     H17095   1.140   4.374   8.529  3.4782 -2.5027  0.0355
  130MOL0     H17096   0.903   4.390   8.499  1.6423  0.1322  0.5190
  130MOL0     H17097   0.709   4.412   8.316 -1.2036  2.0812  2.0889
  130MOL0     H17098   0.697   4.364   8.480  1.7058 -1.0780  0.3187
  130MOL0     H17099   0.486   4.235   8.434  4.3165 -0.2880  0.9517
  130MOL0     H17100   0.515   4.239   8.262 -0.0623 -0.1576 -0.5604
  130MOL0     H17101   0.474   4.488   8.250  0.9970  0.4339  0.3355
  130MOL0     H17102   0.445   4.479   8.432  0.2671  0.3745 -0.3449
  130MOL0     H17103   0.305   4.303   8.224 -3.5238 -2.8247  1.5956
  130MOL0     H17104   0.258   4.336   8.393  0.4819  0.0609 -0.3258
  130MOL0     H17105   0.138   4.469   8.208 -0.7665  1.6561  0.7844
  130MOL0     H17106   0.281   4.576   8.198  1.6920 -0.2322  0.2380
  130MOL0     H17107   0.264   4.619   8.440  0.9183  0.6548 -0.7918
  130MOL0     H17108   0.114   4.520   8.458  0.5739 -0.0941 -0.9555
  130MOL0     H17109   0.152   4.780   8.327  2.1502 -1.3505  0.2172
  130MOL0     H17110   0.026   4.689   8.254  0.5944 -1.1639  0.8634
  130MOL0     H17111  -0.086   4.652   8.490 -0.4526  1.3443  1.2456
  130MOL0     H17112  -0.091   4.816   8.435 -3.2504 -0.3309  6.6959
  130MOL0     H17113   0.184   4.938   8.526 -0.9341 -0.7769 -1.5038
  130MOL0     H17114   0.304   4.935   8.899 -0.0590  0.4470 -0.6812
  130MOL0     H17115   0.276   5.057   8.780 -0.4264  0.2858  2.3413
  130MOL0     H17116   0.494   4.966   8.789  0.7575  0.1176 -1.1933
  130MOL0     H17117   0.431   4.953   8.631 -0.1302 -0.5068  0.3497
  130MOL0     H17118   0.419   4.710   8.826  2.4008 -1.6751  1.8194
  130MOL0     H17119   0.392   4.698   8.654  0.4885  0.9794 -0.9156
  130MOL0     H17120   0.588   4.619   8.706 -2.6023  0.3445  0.5798
  130MOL0     H17121   0.645   4.777   8.776 -1.9496  1.7554  0.2536
  130MOL0     H17122   0.702   4.807   8.329  1.8672  2.9362 -1.0816
  130MOL0     H17123   0.927   4.822   8.250  0.0009 -0.4377  0.1242
  130MOL0     H17124   1.410   4.914   8.367  1.3307 -0.2447 -0.4076
  130MOL0     H17125   1.655   4.879   8.305  0.0818  0.2959  0.9538
  130MOL0     H17126   1.774   4.445   8.251 -0.4498  0.1972 -0.9881
  130MOL0     H17127   1.863   4.501   8.399 -0.1286  2.6461  0.4538
  130MOL0     H17128   1.951   4.548   8.110  2.4674 -0.8202 -0.0271
  130MOL0     H17129   2.015   4.427   8.221 -1.5622 -0.5197 -1.1216
  130MOL0     H17130   2.045   4.708   8.323  0.0556  0.1968 -0.3701
  130MOL0     H17131   2.148   4.661   8.190  2.8282  0.2102  2.1301
  130MOL0     H17132   2.112   4.468   8.417 -0.1391  0.1200 -1.0452
  130MOL0     H17133   2.263   4.488   8.321  3.1108 -0.6960  3.1201
  130MOL0     H17134   2.265   4.586   8.559  1.0014  0.1417 -0.1163
  130MOL0     H17135   2.161   4.710   8.515  1.9735  2.9427 -0.2433
  130MOL0     H17136   2.387   4.792   8.474  0.2963  0.6228  0.1906
  130MOL0     H17137   2.317   4.759   8.315  0.4405 -2.9876 -1.4118
  130MOL0     H17138   2.450   4.524   8.442 -0.3502  0.8427 -0.6715
  130MOL0     H17139   2.443   4.565   8.272 -0.6290  0.2407 -1.0377
  130MOL0     H17140   2.680   4.569   8.387  1.1047  0.8064  0.2394
  130MOL0     H17141   2.640   4.704   8.485 -1.0773  2.9347 -1.7857
  130MOL0     H17142   1.610   4.455   8.409 -1.3337 -0.7277 -0.3371
  130MOL0     H17143   1.390   4.519   8.497 -0.1028  1.0382 -0.5786
  130MOL0     H17144   1.072   4.671   8.633  0.4132 -0.1329 -0.6657
  130MOL0     H17145   0.842   4.675   8.713  1.9840 -0.0442  0.4213
  130MOL0     H17146   0.921   4.029   8.251  0.7481  0.3158 -1.1458
  130MOL0     H17147   1.154   4.019   8.290 -0.3941 -0.6416 -0.2611
  130MOL0     H17148   1.590   4.067   8.193  1.7109  1.1060 -0.5653
  130MOL0     H17149   1.831   4.029   8.269 -0.1786  0.2551 -1.2883
  130MOL0     H17150   2.033   4.142   8.313  0.5767 -0.1089  0.0632
  130MOL0     H17151   2.021   3.978   8.381 -2.4480  0.1892  1.1851
  130MOL0     H17152   2.251   4.037   8.406 -0.4944 -1.2472  0.8474
  130MOL0     H17153   2.211   4.188   8.478  1.1812 -0.2565 -1.1761
  130MOL0     H17154   2.145   4.096   8.690 -0.2563  1.4655 -1.3389
  130MOL0     H17155   2.278   3.988   8.642 -0.6477 -2.9486  1.0447
  130MOL0     H17156   1.986   3.920   8.626 -0.2940  4.8219 -2.6515
  130MOL0     H17157   2.118   3.833   8.544  0.0113 -0.3718 -0.3409
  130MOL0     H17158   2.182   3.705   8.938 -0.0796 -0.2501  0.4272
  130MOL0     H17159   1.743   4.229   8.641  1.0719  1.9008 -1.8660
  130MOL0     H17160   1.513   4.245   8.580  3.1323  0.7732  2.5683
  131MOL0     O17161   5.964   5.292   1.982 -0.1532 -0.1435  0.3208
  131MOL0     C17162   5.919   5.384   1.913 -0.4555 -0.3893  0.6400
  131MOL0     O17163   5.791   5.412   1.905 -0.1038 -0.3351  0.3002
  131MOL0     C17164   5.714   5.351   1.997 -0.5688  0.0488 -0.3948
  131MOL0     C17165   5.628   5.235   1.980  0.0697 -0.9815  0.9085
  131MOL0     C17166   5.549   5.198   2.088  0.1410  0.8170 -0.0324
  131MOL0     C17167   5.554   5.264   2.214  0.4965  0.3064  0.2273
  131MOL0     O17168   5.474   5.209   2.309 -0.3136 -0.4147 -0.3297
  131MOL0     C17169   5.463   5.266   2.441  0.2096 -0.1240  0.2350
  131MOL0     C17170   5.373   5.193   2.543  0.3328  0.4983 -0.0078
  131MOL0     C17171   5.224   5.212   2.506  0.1675 -0.4162 -0.2476
  131MOL0     C17172   5.116   5.136   2.589 -0.7847 -0.4366  0.2953
  131MOL0     C17173   5.120   5.150   2.733  0.2022  0.3225 -1.1582
  131MOL0     C17174   4.983   5.084   2.783  0.6112 -0.0678 -0.3496
  131MOL0     C17175   4.991   5.074   2.944  0.3235 -0.0955 -0.1306
  131MOL0     C17176   4.882   4.976   2.989 -0.1485  0.0824 -0.2008
  131MOL0     N17177   4.877   4.970   3.136 -1.1398  0.6831  0.3103
  131MOL0     C17178   4.834   5.070   3.216 -0.8781 -0.4803  0.0517
  131MOL0     C17179   4.899   5.036   3.338  0.3392 -0.9105 -0.2332
  131MOL0     C17180   4.893   5.116   3.462  0.6358  0.1957  0.1272
  131MOL0     C17181   4.748   5.120   3.521 -0.6475 -0.2835  0.4007
  131MOL0     C17182   4.691   4.988   3.568  0.7714 -1.0313  0.4109
  131MOL0     C17183   4.582   5.011   3.663 -0.0276  0.1528  0.1816
  131MOL0     O17184   4.514   4.886   3.650  0.0305 -0.4257 -0.8385
  131MOL0     C17185   4.388   4.877   3.705 -0.1511  0.0064  0.2936
  131MOL0     C17186   4.322   4.964   3.790  0.0936  0.3360  0.3282
  131MOL0     C17187   4.193   4.948   3.844 -0.5860  0.3545  0.8959
  131MOL0     C17188   4.129   4.830   3.808  0.4401  0.3093  0.2633
  131MOL0     C17189   3.998   4.793   3.859  1.0641 -0.1307  0.3971
  131MOL0     O17190   3.913   4.890   3.912  0.0413  0.1582 -0.6930
  131MOL0     C17191   3.776   4.875   3.924  0.5228 -0.0833 -0.1615
  131MOL0     C17192   3.714   4.983   3.986 -0.3050  0.9293  0.0861
  131MOL0     C17193   3.577   5.005   3.986 -0.4131 -0.5793  0.4586
  131MOL0     C17194   3.491   4.904   3.951 -0.2350 -0.0532 -0.5322
  131MOL0     O17195   3.354   4.922   3.941 -0.6334  0.3681 -0.9629
  131MOL0     C17196   3.280   4.797   3.970  0.1702  0.0363  0.0734
  131MOL0     C17197   3.132   4.841   3.987 -0.6188 -0.1686  0.0541
  131MOL0     C17198   3.040   4.741   4.052  0.3631  1.0669 -0.3295
  131MOL0     C17199   2.902   4.800   4.086 -0.3935  0.5752  0.2009
  131MOL0     C17200   2.816   4.706   4.168  0.8828 -0.3344 -0.7582
  131MOL0     C17201   2.668   4.750   4.178  0.3547  0.4210  0.5914
  131MOL0     C17202   2.585   4.638   4.244  0.0621  0.0465  0.6981
  131MOL0     C17203   2.440   4.684   4.271 -0.0659 -0.0598 -0.3965
  131MOL0    Cl17204   2.387   4.736   4.105  0.4521  0.1646  0.2364
  131MOL0     C17205   3.552   4.790   3.898  0.0524 -0.8017  0.1515
  131MOL0     C17206   3.691   4.772   3.876  0.3048 -0.2841  0.4873
  131MOL0     O17207   3.965   4.675   3.848 -0.5489  0.1205  0.5705
  131MOL0     C17208   4.187   4.740   3.715 -0.4382  0.2804  0.2846
  131MOL0     C17209   4.319   4.760   3.660  0.5771 -1.2417 -0.4702
  131MOL0     N17210   4.957   4.911   3.327 -0.4436 -0.2106  0.6413
  131MOL0     N17211   4.949   4.874   3.203  0.4379 -0.3851 -0.0229
  131MOL0     C17212   5.644   5.370   2.233 -1.1339 -1.0026 -0.1445
  131MOL0     C17213   5.717   5.416   2.119 -0.0209 -1.1734 -0.0545
  131MOL0     C17214   6.013   5.472   1.837  0.0102 -0.8120 -0.1959
  131MOL0     C17215   6.150   5.457   1.830 -0.8160 -0.2542 -0.4592
  131MOL0     C17216   6.232   5.542   1.758 -0.0798  0.2061  0.8508
  131MOL0     C17217   6.171   5.641   1.680 -0.1030 -0.1973 -0.2696
  131MOL0     O17218   6.231   5.737   1.600  0.0769 -0.6866  0.3113
  131MOL0     C17219   6.371   5.711   1.562  0.1124 -0.1324  0.0185
  131MOL0     C17220   6.423   5.807   1.453  0.5962 -0.0024 -0.4545
  131MOL0     C17221   6.578   5.825   1.448 -0.1670 -0.3485  0.0132
  131MOL0     C17222   6.600   5.961   1.382 -0.5386  0.1274  0.5731
  131MOL0     C17223   6.603   5.952   1.242  0.6315  0.1928  0.3620
  131MOL0     C17224   6.602   5.961   1.121 -0.2672 -0.9870 -0.2252
  131MOL0     C17225   6.037   5.663   1.692 -0.3392 -0.5011  0.0176
  131MOL0     C17226   5.956   5.579   1.765 -0.7715  0.0945  0.3126
  131MOL0     H17227   5.631   5.176   1.889  1.6322  0.5654 -0.0895
  131MOL0     H17228   5.496   5.107   2.061  2.1402 -1.1720  2.2329
  131MOL0     H17229   5.421   5.367   2.434 -2.1968 -0.9136  1.9405
  131MOL0     H17230   5.567   5.264   2.476  0.6933 -0.4086 -1.1823
  131MOL0     H17231   5.394   5.238   2.640 -4.7176  1.8824  0.7441
  131MOL0     H17232   5.386   5.084   2.542 -0.8622  0.3059  1.6075
  131MOL0     H17233   5.204   5.195   2.400 -2.5892  1.2817 -0.0955
  131MOL0     H17234   5.209   5.321   2.509  0.1198 -0.3862 -1.3251
  131MOL0     H17235   5.018   5.163   2.549  0.0376  0.7448 -1.0282
  131MOL0     H17236   5.129   5.031   2.564  0.2537 -0.1163 -0.6270
  131MOL0     H17237   5.123   5.257   2.756  0.0296  0.2792 -0.9308
  131MOL0     H17238   5.200   5.094   2.781 -2.5229 -1.3687  1.8389
  131MOL0     H17239   4.981   4.982   2.744  1.3074 -0.9886  1.8680
  131MOL0     H17240   4.904   5.147   2.741  1.3314  0.6468 -0.6555
  131MOL0     H17241   5.094   5.048   2.966  0.6249  1.3804  0.3133
  131MOL0     H17242   4.980   5.171   2.994 -0.2132  0.7975 -1.8918
  131MOL0     H17243   4.903   4.878   2.944  0.5124  0.1074  0.0369
  131MOL0     H17244   4.786   5.009   2.947  0.5954  1.5131 -0.8479
  131MOL0     H17245   4.776   5.155   3.181 -1.4084 -0.7112  0.3525
  131MOL0     H17246   4.928   5.217   3.436  0.5830  0.8093  2.2549
  131MOL0     H17247   4.973   5.089   3.531  0.4991  1.5454  0.8573
  131MOL0     H17248   4.687   5.146   3.434  1.8678 -0.3624 -1.5278
  131MOL0     H17249   4.735   5.197   3.598  0.6243  1.2035 -0.8003
  131MOL0     H17250   4.665   4.923   3.483  0.3913  0.0254 -0.3043
  131MOL0     H17251   4.770   4.928   3.615  1.6367 -0.6970 -0.5633
  131MOL0     H17252   4.515   5.088   3.623  1.0946  0.0383 -2.0899
  131MOL0     H17253   4.634   5.043   3.753  2.3635 -1.2618 -0.6088
  131MOL0     H17254   4.375   5.055   3.814 -2.9334  1.9496  1.5028
  131MOL0     H17255   4.139   5.006   3.918 -0.8766  1.2741 -0.0150
  131MOL0     H17256   3.776   5.062   4.027 -1.7462  0.8205  2.7115
  131MOL0     H17257   3.533   5.102   4.006 -3.1386 -1.2930 -1.6447
  131MOL0     H17258   3.310   4.748   4.063 -2.4441  2.5826  2.4447
  131MOL0     H17259   3.282   4.737   3.878 -0.3190  3.3169 -2.2543
  131MOL0     H17260   3.093   4.867   3.888 -0.5322  2.1211  0.5582
  131MOL0     H17261   3.139   4.929   4.053  1.2071 -1.0305  1.0783
  131MOL0     H17262   3.088   4.708   4.145  0.7583  1.2429 -0.4654
  131MOL0     H17263   3.039   4.656   3.984  1.2833  1.0779 -0.3780
  131MOL0     H17264   2.909   4.899   4.133 -1.1593  0.3111  0.8946
  131MOL0     H17265   2.847   4.805   3.991 -0.0042 -3.0600 -0.3702
  131MOL0     H17266   2.858   4.705   4.269  0.8405  1.1328 -0.7079
  131MOL0     H17267   2.823   4.607   4.121  0.8051  0.0460 -1.5991
  131MOL0     H17268   2.627   4.770   4.079 -1.0899  1.0009  1.2669
  131MOL0     H17269   2.662   4.842   4.237  4.0630  1.3706 -0.2972
  131MOL0     H17270   2.590   4.550   4.180  2.1714 -0.8370  1.9392
  131MOL0     H17271   2.629   4.612   4.341  0.0875  0.3314  0.7638
  131MOL0     H17272   2.423   4.759   4.349 -1.0238 -0.9776  0.3049
  131MOL0     H17273   2.396   4.592   4.309  1.8738  0.2683  3.1302
  131MOL0     H17274   3.488   4.720   3.845 -0.2450  1.6819 -3.0090
  131MOL0     H17275   3.734   4.688   3.823 -0.1773 -0.0344 -0.3236
  131MOL0     H17276   4.130   4.654   3.680  1.1409 -0.4327 -0.6444
  131MOL0     H17277   4.357   4.697   3.580 -2.0946 -1.1375 -1.9527
  131MOL0     H17278   5.650   5.435   2.320 -0.5848  0.3973 -1.1941
  131MOL0     H17279   5.779   5.505   2.126 -1.1743 -0.3055 -0.4845
  131MOL0     H17280   6.192   5.376   1.889  0.8746  1.3490  0.6321
  131MOL0     H17281   6.339   5.522   1.761 -0.3014 -1.3840 -0.1502
  131MOL0     H17282   6.383   5.608   1.527  0.5727 -0.7630  1.9223
  131MOL0     H17283   6.434   5.724   1.651 -0.2227 -0.4142  0.2987
  131MOL0     H17284   6.395   5.758   1.359  1.9135 -0.7348 -0.4907
  131MOL0     H17285   6.368   5.902   1.452 -1.7688 -1.2790 -2.2301
  131MOL0     H17286   6.617   5.739   1.393 -2.2684 -0.9570 -0.6259
  131MOL0     H17287   6.622   5.826   1.548  0.7994  0.8456 -0.4007
  131MOL0     H17288   6.529   6.042   1.401  0.2662  0.9090  0.3013
  131MOL0     H17289   6.704   5.990   1.401 -0.2122  0.8685 -2.0644
  131MOL0     H17290   6.601   5.977   1.015 -0.8073 -1.4518 -0.2967
  131MOL0     H17291   5.983   5.721   1.618 -0.8486 -1.2405 -0.1946
  131MOL0     H17292   5.852   5.611   1.765 -0.9737 -0.5447  0.0496
  132MOL0     O17293   1.198   2.316   3.243  0.1253  0.0736  0.4959
  132MOL0     C17294   1.192   2.436   3.217 -0.1071 -0.1163 -1.3524
  132MOL0     O17295   1.076   2.512   3.245 -0.4894  0.2909 -0.4173
  132MOL0     C17296   0.978   2.452   3.319  0.8797 -0.4664  0.0733
  132MOL0     C17297   0.845   2.468   3.275 -0.0551  0.0960  0.2018
  132MOL0     C17298   0.748   2.407   3.348  0.5295 -0.5091 -0.0317
  132MOL0     C17299   0.778   2.364   3.484  0.3972 -0.5344  0.9878
  132MOL0     O17300   0.678   2.303   3.563  0.6947  0.3529  0.5007
  132MOL0     C17301   0.541   2.310   3.526 -0.2888  0.5277  0.6893
  132MOL0     C17302   0.457   2.225   3.615 -0.2925  0.5049  0.2274
  132MOL0     C17303   0.309   2.236   3.587  0.0586 -0.0389 -0.1253
  132MOL0     C17304   0.225   2.152   3.687  0.4108 -0.5744  0.8928
  132MOL0     C17305   0.242   2.214   3.823  0.2029  0.1577 -0.2143
  132MOL0     C17306   0.164   2.150   3.945 -1.1198  0.5290 -0.2384
  132MOL0     C17307   0.014   2.179   3.952  0.4157 -0.1150  1.2602
  132MOL0     C17308  -0.048   2.102   4.070  0.3937  0.3089  0.1353
  132MOL0     N17309  -0.029   1.951   4.074  0.4201 -0.2406  0.3370
  132MOL0     C17310  -0.131   1.859   4.047  0.1624 -0.4176  0.1509
  132MOL0     C17311  -0.087   1.745   4.099  0.4362  0.2014 -0.5338
  132MOL0     C17312  -0.155   1.605   4.082  0.8583  0.1473 -0.3359
  132MOL0     C17313  -0.181   1.565   3.933 -0.3945 -0.6043  0.6174
  132MOL0     C17314  -0.050   1.538   3.857  0.2990 -0.4287  0.2857
  132MOL0     C17315  -0.077   1.457   3.727  0.0982  0.4563  0.5370
  132MOL0     O17316  -0.125   1.318   3.754  0.3386  0.4001 -0.0598
  132MOL0     C17317  -0.220   1.252   3.684  1.9556 -0.3719  0.0653
  132MOL0     C17318  -0.308   1.324   3.596 -0.1401  0.2647 -0.6493
  132MOL0     C17319  -0.412   1.271   3.537 -0.0707 -0.5873  0.5115
  132MOL0     C17320  -0.445   1.136   3.559 -0.1709  0.0059  0.2692
  132MOL0     C17321  -0.573   1.074   3.508 -0.4561 -0.4622  0.4336
  132MOL0     O17322  -0.659   1.156   3.441 -0.1936 -0.3365 -0.4413
  132MOL0     C17323  -0.776   1.094   3.404  0.2104 -1.2973  0.0047
  132MOL0     C17324  -0.879   1.070   3.487 -0.8292 -0.0763 -0.3924
  132MOL0     C17325  -0.998   1.020   3.432 -0.0951 -0.1734 -0.8852
  132MOL0     C17326  -1.006   0.974   3.303 -0.5366  0.8518  0.3885
  132MOL0     O17327  -1.123   0.895   3.264  0.4033 -0.2999  0.2362
  132MOL0     C17328  -1.098   0.791   3.168  0.1890  0.0871 -0.6358
  132MOL0     C17329  -1.213   0.707   3.124  0.0378 -0.5060 -0.3071
  132MOL0     C17330  -1.305   0.652   3.239  0.3921  0.2822  0.5644
  132MOL0     C17331  -1.407   0.557   3.183  0.3497  0.3267  0.1274
  132MOL0     C17332  -1.499   0.505   3.296 -0.3584  0.1051  0.0155
  132MOL0     C17333  -1.609   0.403   3.241 -1.3729 -0.5320 -0.7740
  132MOL0     C17334  -1.694   0.340   3.358 -0.5419  0.4510  0.0067
  132MOL0     C17335  -1.833   0.308   3.297  0.2347  0.1032 -0.4080
  132MOL0    Cl17336  -1.935   0.260   3.431  0.2459 -0.0823  0.1818
  132MOL0     C17337  -0.896   0.989   3.225 -0.2124  0.3358  0.0775
  132MOL0     C17338  -0.785   1.063   3.272 -0.2441  0.1791  0.4832
  132MOL0     O17339  -0.593   0.953   3.535  0.2141  0.1504  0.4986
  132MOL0     C17340  -0.357   1.057   3.646  0.4905  0.2245 -0.4764
  132MOL0     C17341  -0.239   1.117   3.701 -0.3320  0.0977 -0.5165
  132MOL0     N17342   0.045   1.752   4.142 -0.2618 -0.3323 -0.6589
  132MOL0     N17343   0.079   1.883   4.126 -0.6058 -0.1919 -0.0848
  132MOL0     C17344   0.907   2.352   3.529 -0.0526  0.4056  0.3633
  132MOL0     C17345   1.003   2.396   3.442  0.5606 -0.7113  0.2112
  132MOL0     C17346   1.313   2.504   3.161  1.1616  0.1886 -0.5542
  132MOL0     C17347   1.287   2.626   3.094  0.3957  0.2897 -0.1720
  132MOL0     C17348   1.389   2.704   3.059 -0.6239  1.2752  0.4460
  132MOL0     C17349   1.522   2.666   3.077 -0.8731  0.2322  0.3123
  132MOL0     O17350   1.619   2.753   3.041 -0.2605  0.7546 -0.0354
  132MOL0     C17351   1.759   2.714   3.065  0.4589  0.4751  0.2168
  132MOL0     C17352   1.810   2.635   2.942 -0.7545 -0.0845  0.1518
  132MOL0     C17353   1.959   2.593   2.956 -0.4034  0.3335 -0.9113
  132MOL0     C17354   1.997   2.491   2.850 -0.2391  0.9243  0.3890
  132MOL0     C17355   2.121   2.409   2.882 -0.1487  0.6907 -0.1206
  132MOL0     C17356   2.228   2.353   2.901 -0.4369 -0.3426  0.5514
  132MOL0     C17357   1.548   2.537   3.133 -0.2367  0.0465  0.3803
  132MOL0     C17358   1.447   2.460   3.185  0.1226  0.2533  0.1707
  132MOL0     H17359   0.819   2.507   3.178 -2.6142  0.4230  0.9575
  132MOL0     H17360   0.646   2.406   3.310 -0.3173  3.3247  1.6399
  132MOL0     H17361   0.528   2.288   3.420  0.4904  1.1834  0.4461
  132MOL0     H17362   0.500   2.410   3.543 -1.1137  0.2169  0.5283
  132MOL0     H17363   0.484   2.261   3.715  1.3148 -2.0923  0.8261
  132MOL0     H17364   0.488   2.120   3.605 -2.1068 -0.1108  0.7104
  132MOL0     H17365   0.288   2.210   3.483 -1.1089  0.8478 -0.1357
  132MOL0     H17366   0.277   2.340   3.592 -0.3934 -0.0386 -2.2112
  132MOL0     H17367   0.120   2.153   3.659  1.3393 -0.9536 -3.2793
  132MOL0     H17368   0.260   2.049   3.689  0.0493 -0.6910  1.9269
  132MOL0     H17369   0.221   2.320   3.812 -1.7416 -0.4170 -2.7792
  132MOL0     H17370   0.350   2.202   3.839  0.4759 -2.1294 -3.0061
  132MOL0     H17371   0.215   2.200   4.028 -1.1771  3.3236 -1.7974
  132MOL0     H17372   0.186   2.043   3.941  1.7446  1.0552 -0.4165
  132MOL0     H17373   0.003   2.288   3.944  1.5917 -0.1242 -3.5221
  132MOL0     H17374  -0.046   2.123   3.880 -0.9441  0.8384  1.6197
  132MOL0     H17375  -0.155   2.119   4.084 -0.1981 -2.2366 -0.8179
  132MOL0     H17376  -0.001   2.144   4.160  1.8984  0.6479 -0.7732
  132MOL0     H17377  -0.227   1.871   3.998  0.8646 -1.7169 -1.6404
  132MOL0     H17378  -0.254   1.617   4.127  1.4383 -0.9942  1.3399
  132MOL0     H17379  -0.088   1.539   4.137 -0.6911  0.9496  2.7335
  132MOL0     H17380  -0.229   1.651   3.886 -0.8257 -1.2711 -0.1712
  132MOL0     H17381  -0.234   1.470   3.936  0.9823 -1.5441 -1.9613
  132MOL0     H17382   0.001   1.628   3.820 -1.1722  0.2990 -0.0323
  132MOL0     H17383   0.014   1.485   3.928  0.2718  0.7084  1.2031
  132MOL0     H17384   0.014   1.451   3.666 -0.1963  1.6949 -0.0664
  132MOL0     H17385  -0.149   1.509   3.664 -0.0913  1.5847  1.6350
  132MOL0     H17386  -0.291   1.424   3.558  0.5069 -0.4241 -2.2850
  132MOL0     H17387  -0.465   1.328   3.461  1.6189  1.7888  0.9875
  132MOL0     H17388  -0.878   1.112   3.587  0.1272 -0.3559 -0.2728
  132MOL0     H17389  -1.083   1.015   3.499  0.7215 -0.3315  0.1640
  132MOL0     H17390  -1.039   0.713   3.217 -2.5148 -1.7677 -0.1080
  132MOL0     H17391  -1.039   0.829   3.084  0.4149  1.5481  0.1624
  132MOL0     H17392  -1.167   0.619   3.077 -0.6818 -0.0795 -1.8611
  132MOL0     H17393  -1.274   0.757   3.049  1.8072 -0.3128 -1.6841
  132MOL0     H17394  -1.347   0.737   3.294  0.2605  0.0241  0.8690
  132MOL0     H17395  -1.250   0.590   3.311  0.6853 -1.1347 -0.8315
  132MOL0     H17396  -1.471   0.601   3.106 -1.5454 -0.4418  1.1725
  132MOL0     H17397  -1.363   0.473   3.128 -1.6468 -0.5030 -0.2942
  132MOL0     H17398  -1.538   0.599   3.337  0.2248  0.6533 -0.6781
  132MOL0     H17399  -1.440   0.445   3.367  0.8442  1.4785  0.2123
  132MOL0     H17400  -1.569   0.326   3.175  1.0289 -1.6071  1.7373
  132MOL0     H17401  -1.666   0.473   3.178 -0.4429  0.7704 -0.2257
  132MOL0     H17402  -1.647   0.252   3.402  0.7366  0.2069 -1.7261
  132MOL0     H17403  -1.711   0.411   3.440 -1.0281  2.2221 -1.5600
  132MOL0     H17404  -1.826   0.222   3.230  2.7470 -0.1812  0.1112
  132MOL0     H17405  -1.881   0.392   3.246 -0.1364 -0.8384 -1.6456
  132MOL0     H17406  -0.899   0.967   3.119  0.2117  3.0689 -0.5706
  132MOL0     H17407  -0.706   1.094   3.203 -0.7168  2.2555  0.8180
  132MOL0     H17408  -0.386   0.956   3.672  1.8545  0.5818  3.0792
  132MOL0     H17409  -0.173   1.072   3.775  0.2750 -0.6432 -1.4792
  132MOL0     H17410   0.918   2.305   3.626 -1.7103  0.9411  0.8538
  132MOL0     H17411   1.101   2.393   3.488  0.9994 -1.6246 -0.7419
  132MOL0     H17412   1.185   2.658   3.076 -0.4307 -3.2578 -2.9048
  132MOL0     H17413   1.361   2.795   3.007 -0.3551  2.0787  1.6692
  132MOL0     H17414   1.775   2.663   3.160 -0.4997 -0.4586 -0.1149
  132MOL0     H17415   1.816   2.808   3.074  2.5302 -0.9500  5.1725
  132MOL0     H17416   1.752   2.547   2.916  0.2113 -0.6108 -0.2711
  132MOL0     H17417   1.799   2.700   2.855  1.3567  1.4609  0.9241
  132MOL0     H17418   1.986   2.558   3.057 -0.8550 -0.3289 -1.0136
  132MOL0     H17419   2.023   2.680   2.943 -0.8985  0.7130 -0.8351
  132MOL0     H17420   1.914   2.421   2.843 -2.0182  2.9816 -0.1569
  132MOL0     H17421   2.021   2.547   2.759  2.9115 -0.1881  0.4098
  132MOL0     H17422   2.318   2.297   2.917 -1.7514 -3.0481 -0.8514
  132MOL0     H17423   1.651   2.508   3.152  0.1866 -0.0056 -1.7175
  132MOL0     H17424   1.470   2.368   3.237  0.6819 -0.4700 -1.3322
  133MOL0     O17425   7.122   8.843   6.221  0.7495  1.0390 -0.5285
  133MOL0     C17426   7.134   8.828   6.342  0.4725  0.1199  0.2104
  133MOL0     O17427   7.039   8.773   6.427 -0.6104  0.1209 -0.0761
  133MOL0     C17428   6.942   8.702   6.365  0.3163 -0.7307  0.4760
  133MOL0     C17429   6.925   8.573   6.407  0.2854  0.4747 -0.4326
  133MOL0     C17430   6.834   8.491   6.339 -0.6645 -0.5117 -0.2708
  133MOL0     C17431   6.749   8.545   6.236  0.0519 -0.0205 -0.3056
  133MOL0     O17432   6.658   8.458   6.181 -0.3015  0.4323  0.8751
  133MOL0     C17433   6.644   8.469   6.038  0.7820  0.1680 -0.2460
  133MOL0     C17434   6.586   8.342   5.983 -0.2798 -0.1044 -0.5380
  133MOL0     C17435   6.686   8.231   6.000  0.0122  0.2995 -0.7439
  133MOL0     C17436   6.650   8.103   5.913 -0.4382 -0.4172  0.8135
  133MOL0     C17437   6.774   8.014   5.907 -0.5160  0.7170 -0.6421
  133MOL0     C17438   6.759   7.890   5.816 -1.0042 -0.0185  0.6570
  133MOL0     C17439   6.682   7.785   5.899  0.6137  0.3661  0.6844
  133MOL0     C17440   6.647   7.670   5.806 -0.3575  0.4733 -0.0488
  133MOL0     N17441   6.598   7.565   5.890  0.5966  0.1175  0.1002
  133MOL0     C17442   6.532   7.574   6.007  1.2669 -0.3799 -0.2918
  133MOL0     C17443   6.525   7.452   6.060 -0.0753 -0.2739  0.3353
  133MOL0     C17444   6.464   7.422   6.196  0.6160  0.9188  0.4803
  133MOL0     C17445   6.339   7.337   6.194 -0.5192 -0.3336  0.3724
  133MOL0     C17446   6.306   7.290   6.334 -0.5414 -1.0221 -0.3787
  133MOL0     C17447   6.175   7.209   6.320 -0.8799 -0.0595  0.8623
  133MOL0     O17448   6.134   7.191   6.459 -0.4822 -0.2454 -0.4115
  133MOL0     C17449   6.001   7.212   6.495  0.0708 -0.4596 -1.1363
  133MOL0     C17450   5.886   7.191   6.418 -0.3837 -0.2235  0.6754
  133MOL0     C17451   5.757   7.215   6.474 -0.3056  0.1117 -0.5964
  133MOL0     C17452   5.740   7.266   6.601  0.0202  0.1378 -0.5005
  133MOL0     C17453   5.615   7.308   6.665 -0.3560 -0.7655  0.2577
  133MOL0     O17454   5.623   7.364   6.792 -0.4180 -0.4781  0.1718
  133MOL0     C17455   5.500   7.383   6.859  0.1000 -0.6720 -0.5921
  133MOL0     C17456   5.432   7.507   6.865 -0.0959  0.3912  0.3180
  133MOL0     C17457   5.309   7.514   6.935  0.8184 -0.1237  0.8683
  133MOL0     C17458   5.254   7.403   6.996  0.4003 -0.5686  0.2817
  133MOL0     O17459   5.141   7.416   7.062  0.8203  0.3323 -0.9813
  133MOL0     C17460   5.068   7.298   7.087 -0.7089  0.3192 -1.1944
  133MOL0     C17461   4.926   7.334   7.120  0.1068 -0.1750 -0.4772
  133MOL0     C17462   4.849   7.360   6.994 -0.5145  0.5937  0.1275
  133MOL0     C17463   4.710   7.417   7.028  0.4922 -0.3230  0.1982
  133MOL0     C17464   4.594   7.388   6.927 -0.3117 -0.2905 -0.1759
  133MOL0     C17465   4.506   7.274   6.967 -0.1042 -0.1939  0.8218
  133MOL0     C17466   4.401   7.292   7.078 -0.6589  0.2172 -0.2205
  133MOL0     C17467   4.307   7.405   7.048 -0.5418 -0.5824 -0.0539
  133MOL0    Cl17468   4.201   7.406   7.186 -0.2871 -0.3976  0.3669
  133MOL0     C17469   5.327   7.291   6.999  1.0998  0.2400 -0.0552
  133MOL0     C17470   5.448   7.278   6.925 -0.6134  1.0242  0.9360
  133MOL0     O17471   5.511   7.289   6.600  0.0144  0.1685 -0.2885
  133MOL0     C17472   5.859   7.284   6.675  0.2464 -0.4411 -0.6679
  133MOL0     C17473   5.985   7.259   6.628  0.5222 -0.0793  0.0328
  133MOL0     N17474   6.592   7.367   5.976 -0.4312  1.0362  0.9623
  133MOL0     N17475   6.632   7.436   5.876  0.3133  0.0336  0.0655
  133MOL0     C17476   6.757   8.678   6.205  0.4428 -0.1412  0.1317
  133MOL0     C17477   6.859   8.756   6.271  0.6105 -0.1943 -0.1780
  133MOL0     C17478   7.264   8.874   6.405  0.1479 -0.0198  1.0786
  133MOL0     C17479   7.302   8.838   6.539 -0.9005  0.4335 -0.0316
  133MOL0     C17480   7.432   8.861   6.588  0.0835 -0.5537  0.2339
  133MOL0     C17481   7.535   8.913   6.512 -0.1067 -0.8806 -0.0422
  133MOL0     O17482   7.661   8.947   6.565 -0.5011  0.0005 -0.3164
  133MOL0     C17483   7.774   8.968   6.475  0.3720  0.7017 -0.3810
  133MOL0     C17484   7.818   8.844   6.394 -0.1493 -0.1066 -0.2498
  133MOL0     C17485   7.923   8.865   6.286 -0.6833  0.8200  0.0849
  133MOL0     C17486   7.900   8.770   6.171 -0.1730 -0.0938 -0.0174
  133MOL0     C17487   8.016   8.791   6.076  0.7092  0.0546 -0.1421
  133MOL0     C17488   8.109   8.799   5.996 -0.1755  0.3214 -0.0459
  133MOL0     C17489   7.494   8.951   6.382 -0.9479  0.0935  0.0806
  133MOL0     C17490   7.366   8.932   6.330 -0.2169  0.3986 -0.3128
  133MOL0     H17491   6.996   8.531   6.477  1.3255  2.2208 -0.3733
  133MOL0     H17492   6.837   8.384   6.359  1.9373 -0.5707 -0.6504
  133MOL0     H17493   6.736   8.487   5.982 -0.1801  1.4428 -1.4807
  133MOL0     H17494   6.578   8.553   6.014  1.9882  1.1927 -0.1333
  133MOL0     H17495   6.555   8.350   5.878  0.3216 -0.7039 -0.7721
  133MOL0     H17496   6.499   8.330   6.048  0.2185 -3.2865 -0.2817
  133MOL0     H17497   6.708   8.202   6.103 -1.9314 -0.0133 -0.3752
  133MOL0     H17498   6.775   8.281   5.959 -0.3117  1.6322  0.1244
  133MOL0     H17499   6.560   8.062   5.961  0.3333 -0.3111  2.4067
  133MOL0     H17500   6.631   8.129   5.808  2.4367 -3.3250 -0.5934
  133MOL0     H17501   6.804   7.979   6.006  1.1187 -2.4190 -2.1018
  133MOL0     H17502   6.853   8.081   5.872  0.9684 -0.0817  1.0150
  133MOL0     H17503   6.858   7.860   5.782 -1.7030 -1.4351 -0.2289
  133MOL0     H17504   6.706   7.905   5.721 -1.1615  1.6921  0.9759
  133MOL0     H17505   6.745   7.748   5.980  0.7239 -0.5329  0.1979
  133MOL0     H17506   6.594   7.836   5.941  0.0168 -0.8282  0.9299
  133MOL0     H17507   6.738   7.635   5.756 -0.4049 -2.3848  1.6171
  133MOL0     H17508   6.567   7.698   5.737 -1.0246 -1.4284 -0.1171
  133MOL0     H17509   6.481   7.663   6.041 -2.2961 -1.5259 -2.1170
  133MOL0     H17510   6.459   7.507   6.264  1.7916  0.7029  0.8599
  133MOL0     H17511   6.535   7.350   6.237 -0.5128  0.2320  1.2770
  133MOL0     H17512   6.362   7.253   6.127 -1.8058 -1.3581  1.1733
  133MOL0     H17513   6.253   7.400   6.170  0.3033  1.0305  0.9164
  133MOL0     H17514   6.385   7.236   6.387  0.4258 -0.2670 -1.0308
  133MOL0     H17515   6.284   7.382   6.388 -0.6011 -1.8847  1.1462
  133MOL0     H17516   6.192   7.112   6.272 -2.1996 -2.1318  4.2161
  133MOL0     H17517   6.103   7.272   6.267 -1.0283  0.1783  1.3400
  133MOL0     H17518   5.885   7.153   6.317 -1.5496 -2.2165  1.3825
  133MOL0     H17519   5.665   7.201   6.417 -1.9821  1.2018  1.6433
  133MOL0     H17520   5.477   7.583   6.802 -1.6799  1.4285  0.3901
  133MOL0     H17521   5.272   7.616   6.943 -3.8421 -1.3401 -1.2522
  133MOL0     H17522   5.119   7.244   7.167 -2.1051 -2.8142 -2.2560
  133MOL0     H17523   5.063   7.224   7.007  0.7137 -1.8471  0.6006
  133MOL0     H17524   4.928   7.426   7.179  1.1006 -0.7555  0.4203
  133MOL0     H17525   4.884   7.255   7.183 -2.2679  1.0450 -0.3813
  133MOL0     H17526   4.827   7.259   6.960 -1.5422  0.4745  1.0860
  133MOL0     H17527   4.913   7.415   6.925  0.6683 -0.5639  0.2733
  133MOL0     H17528   4.678   7.391   7.129  0.9287 -0.4032  0.3197
  133MOL0     H17529   4.713   7.526   7.017 -1.3225 -0.4045 -1.6007
  133MOL0     H17530   4.651   7.357   6.839  3.1175  0.1848  1.6543
  133MOL0     H17531   4.528   7.470   6.899 -0.6593 -0.6821 -0.5074
  133MOL0     H17532   4.568   7.193   7.006 -2.2495 -1.9851  0.6772
  133MOL0     H17533   4.457   7.243   6.874  1.0429 -0.7124  0.3724
  133MOL0     H17534   4.346   7.198   7.092  0.6902 -0.1813  3.9656
  133MOL0     H17535   4.457   7.307   7.171  0.3748  3.2833 -1.2072
  133MOL0     H17536   4.240   7.384   6.964 -3.2195  2.0008  1.2682
  133MOL0     H17537   4.355   7.503   7.036 -1.3271 -0.1676  0.1559
  133MOL0     H17538   5.292   7.205   7.056 -0.1410  1.0682  0.4860
  133MOL0     H17539   5.500   7.183   6.913 -0.9362  0.9074  0.4292
  133MOL0     H17540   5.850   7.326   6.774 -0.9079 -1.3543 -0.3620
  133MOL0     H17541   6.076   7.266   6.687  0.3879  0.2249  0.2097
  133MOL0     H17542   6.685   8.723   6.137  0.7781 -0.1181 -0.2117
  133MOL0     H17543   6.859   8.864   6.266  1.4252 -0.1723  0.1847
  133MOL0     H17544   7.228   8.794   6.605 -0.5426  0.1063  0.1528
  133MOL0     H17545   7.454   8.834   6.691  0.4743 -2.3901 -0.2906
  133MOL0     H17546   7.859   9.000   6.537  1.4397 -1.4700 -0.6361
  133MOL0     H17547   7.738   9.051   6.412 -3.6943  0.7743  1.7239
  133MOL0     H17548   7.862   8.772   6.463 -1.8935 -0.6385  0.3702
  133MOL0     H17549   7.728   8.790   6.362 -1.2039  2.5687 -2.1616
  133MOL0     H17550   8.021   8.853   6.333 -0.3749  2.7826  0.0266
  133MOL0     H17551   7.932   8.968   6.252  1.7772  0.5921 -0.1705
  133MOL0     H17552   7.896   8.663   6.194  2.4622 -0.1755  0.3673
  133MOL0     H17553   7.806   8.793   6.120 -1.4728  1.1721  2.7327
  133MOL0     H17554   8.180   8.824   5.919  2.7694 -0.3217  2.2540
  133MOL0     H17555   7.568   8.998   6.317  0.0614  0.7183  1.6359
  133MOL0     H17556   7.346   8.953   6.225 -0.4653 -1.5059 -0.6827
  134MOL0     O17557   4.540   4.293   6.001  0.2714  0.1693 -0.4376
  134MOL0     C17558   4.506   4.243   6.113 -0.0424 -0.4559 -0.1283
  134MOL0     O17559   4.588   4.185   6.203 -0.3158 -0.4081 -0.8436
  134MOL0     C17560   4.718   4.162   6.181 -0.2315  0.1730  0.4587
  134MOL0     C17561   4.803   4.273   6.155 -0.8695 -0.7561  0.2433
  134MOL0     C17562   4.935   4.257   6.113 -0.4865 -0.3371  0.5654
  134MOL0     C17563   4.990   4.127   6.102 -0.3575  0.6192  0.1145
  134MOL0     O17564   5.121   4.111   6.062  0.1429 -0.1215  0.2535
  134MOL0     C17565   5.199   4.008   6.137 -0.1582  0.0022 -0.3006
  134MOL0     C17566   5.212   4.044   6.289 -0.4265 -0.1545  0.3015
  134MOL0     C17567   5.269   4.184   6.320 -1.0019  0.6605  0.2043
  134MOL0     C17568   5.418   4.191   6.275 -0.4790 -0.6024  0.3282
  134MOL0     C17569   5.505   4.296   6.350  0.2119  0.6147  0.2111
  134MOL0     C17570   5.643   4.248   6.402 -0.3394 -0.2620 -0.2092
  134MOL0     C17571   5.737   4.212   6.284 -0.3389  0.3750  0.0338
  134MOL0     C17572   5.870   4.155   6.324 -1.3908 -0.2202 -0.1849
  134MOL0     N17573   5.857   4.031   6.401  0.2055 -0.4341 -0.2514
  134MOL0     C17574   5.960   3.967   6.464  0.0193  0.7275  0.2072
  134MOL0     C17575   5.928   3.837   6.463  0.4309  0.1406  0.5465
  134MOL0     C17576   6.015   3.723   6.513  0.2838  0.1156 -0.5191
  134MOL0     C17577   5.975   3.666   6.647  0.0741 -0.8075  0.6983
  134MOL0     C17578   6.067   3.558   6.691  0.3169  0.2983 -0.1636
  134MOL0     C17579   6.018   3.513   6.824 -0.2872  0.6497  0.4443
  134MOL0     O17580   5.877   3.476   6.828  0.7109 -0.3360 -0.0151
  134MOL0     C17581   5.802   3.455   6.939 -0.2628  0.4263  0.3940
  134MOL0     C17582   5.855   3.401   7.064 -0.5921 -0.8989  0.6851
  134MOL0     C17583   5.775   3.409   7.183 -0.3645  0.4765 -0.1441
  134MOL0     C17584   5.637   3.444   7.175 -0.2904 -0.6331  0.8148
  134MOL0     C17585   5.546   3.430   7.286  0.4339 -0.5355  0.2611
  134MOL0     O17586   5.422   3.474   7.266 -0.4301 -0.3668  0.1473
  134MOL0     C17587   5.326   3.453   7.366  0.4207 -0.0968  0.7242
  134MOL0     C17588   5.193   3.424   7.326 -0.1431 -0.3739  0.0426
  134MOL0     C17589   5.090   3.426   7.422 -0.8503 -0.6955  0.0178
  134MOL0     C17590   5.129   3.435   7.565  0.2340  0.5483  0.4034
  134MOL0     O17591   5.031   3.434   7.665 -0.2702 -0.1776 -0.2523
  134MOL0     C17592   4.897   3.406   7.633 -0.7464 -0.2412 -0.0055
  134MOL0     C17593   4.807   3.439   7.756 -0.4441 -0.4586  0.5631
  134MOL0     C17594   4.674   3.364   7.754 -0.5457 -0.5492 -0.1342
  134MOL0     C17595   4.590   3.428   7.869  0.4407  0.5168 -0.1228
  134MOL0     C17596   4.446   3.379   7.855  0.6370 -1.0044 -0.7293
  134MOL0     C17597   4.356   3.424   7.971 -0.4734  0.3596 -0.9654
  134MOL0     C17598   4.369   3.349   8.107 -0.0948 -0.3782  0.1749
  134MOL0     C17599   4.322   3.422   8.232 -0.0913  0.1959 -0.2310
  134MOL0    Cl17600   4.151   3.477   8.217 -0.3257  0.0570  0.2663
  134MOL0     C17601   5.263   3.452   7.606 -0.1624 -0.0316  0.0232
  134MOL0     C17602   5.355   3.474   7.500 -1.1876 -0.3388 -0.2417
  134MOL0     O17603   5.591   3.385   7.389 -0.1379  0.0147  0.1932
  134MOL0     C17604   5.586   3.469   7.044  0.0527 -0.1711  0.0117
  134MOL0     C17605   5.667   3.482   6.931 -0.1821  0.0870 -0.5936
  134MOL0     N17606   5.802   3.825   6.410  0.0524  0.2597  0.6982
  134MOL0     N17607   5.765   3.938   6.367 -0.6732  0.0881 -0.1659
  134MOL0     C17608   4.908   4.016   6.130  0.6023  0.2437  0.0929
  134MOL0     C17609   4.776   4.030   6.174 -0.6838  0.0045 -0.8144
  134MOL0     C17610   4.368   4.222   6.156  0.2080  0.3552 -0.2023
  134MOL0     C17611   4.272   4.305   6.099  0.7752 -0.0922  0.6081
  134MOL0     C17612   4.146   4.296   6.146 -0.0859  1.0989 -0.0724
  134MOL0     C17613   4.105   4.204   6.250  0.3740  0.0744  0.1305
  134MOL0     O17614   3.971   4.196   6.272 -0.0563 -0.1712 -0.3646
  134MOL0     C17615   3.921   4.168   6.404  0.3675  0.1430  0.1209
  134MOL0     C17616   3.771   4.192   6.409 -0.2410  0.7398  0.4307
  134MOL0     C17617   3.713   4.172   6.546 -0.4582  0.2190 -0.7285
  134MOL0     C17618   3.558   4.140   6.546 -0.0615 -0.7914  0.3685
  134MOL0     C17619   3.498   4.117   6.683  0.9093  0.1201  0.2675
  134MOL0     C17620   3.433   4.068   6.777 -0.0134  0.4762  0.5900
  134MOL0     C17621   4.201   4.110   6.287 -0.5506 -0.0699  0.1022
  134MOL0     C17622   4.336   4.116   6.245  0.5907 -0.7683 -0.0952
  134MOL0     H17623   4.760   4.371   6.172  0.9102  0.0559  0.1964
  134MOL0     H17624   5.006   4.335   6.087 -1.7383  0.8765  0.6802
  134MOL0     H17625   5.294   4.008   6.083  0.2672  2.5270  0.3186
  134MOL0     H17626   5.162   3.905   6.132 -0.2973  0.0627 -0.5252
  134MOL0     H17627   5.267   3.969   6.348 -0.6793  1.9011  3.3926
  134MOL0     H17628   5.111   4.047   6.330 -1.3392  5.4857 -1.4832
  134MOL0     H17629   5.270   4.193   6.429 -1.0395 -0.7536  0.3326
  134MOL0     H17630   5.217   4.268   6.272  1.2313  1.5615 -0.7762
  134MOL0     H17631   5.464   4.093   6.293  0.9157 -0.0740 -0.2203
  134MOL0     H17632   5.428   4.206   6.167 -2.4304  0.2865  0.2307
  134MOL0     H17633   5.442   4.329   6.434  1.9559 -0.3762  1.9811
  134MOL0     H17634   5.527   4.385   6.290  2.6329  0.7326  1.1518
  134MOL0     H17635   5.619   4.163   6.466  1.2515 -0.5568  0.0221
  134MOL0     H17636   5.684   4.331   6.460 -2.4426  0.6112  0.1300
  134MOL0     H17637   5.686   4.142   6.217  0.1986  0.6694 -0.6967
  134MOL0     H17638   5.753   4.306   6.230 -0.2034  0.4016  0.1192
  134MOL0     H17639   5.934   4.219   6.386  1.7691 -1.5066 -1.8784
  134MOL0     H17640   5.930   4.139   6.234 -1.7441  0.1629 -0.4921
  134MOL0     H17641   6.049   4.019   6.498  0.2116  1.4117 -1.2790
  134MOL0     H17642   6.121   3.751   6.506 -0.3123  2.3081 -1.9362
  134MOL0     H17643   6.000   3.646   6.437  1.9654  0.0611 -0.8343
  134MOL0     H17644   5.871   3.636   6.636 -0.1337  0.4423 -1.6608
  134MOL0     H17645   5.980   3.748   6.719  0.1745  1.5118 -1.7822
  134MOL0     H17646   6.076   3.471   6.625  0.9854  0.3506 -0.1455
  134MOL0     H17647   6.166   3.603   6.706  2.0930 -3.3884  0.3071
  134MOL0     H17648   6.036   3.594   6.895 -0.7703 -0.2555  1.6187
  134MOL0     H17649   6.076   3.425   6.851 -1.4474 -0.6056 -0.9406
  134MOL0     H17650   5.960   3.375   7.056  1.0265  4.0283  2.4992
  134MOL0     H17651   5.820   3.397   7.281  0.1362  3.6387  0.1229
  134MOL0     H17652   5.163   3.399   7.225  1.6050  2.6955 -1.3812
  134MOL0     H17653   4.985   3.422   7.396 -1.5970  0.0253  2.6460
  134MOL0     H17654   4.889   3.300   7.610  0.5185 -0.3447  0.0054
  134MOL0     H17655   4.855   3.464   7.550  0.4495  2.4204  1.1218
  134MOL0     H17656   4.807   3.548   7.763 -0.2753 -0.4699  0.7820
  134MOL0     H17657   4.861   3.404   7.845 -0.8407 -0.4139  0.8211
  134MOL0     H17658   4.687   3.256   7.766  1.9849 -0.8784 -4.1318
  134MOL0     H17659   4.627   3.380   7.657 -1.0201 -0.6284  0.0749
  134MOL0     H17660   4.631   3.398   7.966  0.7723  0.4347 -0.2882
  134MOL0     H17661   4.590   3.536   7.851 -1.1766 -0.2094 -8.4876
  134MOL0     H17662   4.460   3.270   7.849  0.6118 -1.1735  1.2885
  134MOL0     H17663   4.410   3.417   7.759  1.5388  0.2260 -0.6106
  134MOL0     H17664   4.254   3.424   7.931  0.4919 -2.0094 -3.7514
  134MOL0     H17665   4.382   3.526   8.001  0.0625 -0.5792  2.1226
  134MOL0     H17666   4.323   3.250   8.101  0.3478 -0.5839  0.0910
  134MOL0     H17667   4.475   3.322   8.117  0.1589 -1.0635 -3.1584
  134MOL0     H17668   4.391   3.506   8.250  0.8602 -1.1661  3.5485
  134MOL0     H17669   4.331   3.355   8.319 -0.5970  2.7101  1.9015
  134MOL0     H17670   5.293   3.465   7.710  0.2952  2.7775 -0.3673
  134MOL0     H17671   5.449   3.515   7.537 -0.2756 -1.6544 -1.0009
  134MOL0     H17672   5.479   3.481   7.033 -0.3697 -2.1371  1.3015
  134MOL0     H17673   5.626   3.531   6.843 -0.6147  1.9416  0.5790
  134MOL0     H17674   4.931   3.911   6.132 -2.0870 -0.4068  1.2078
  134MOL0     H17675   4.718   3.942   6.200  2.7757 -2.3150 -0.2706
  134MOL0     H17676   4.300   4.383   6.028  3.1265  0.6878  2.2713
  134MOL0     H17677   4.071   4.364   6.108  1.7348  2.4232 -1.4586
  134MOL0     H17678   3.975   4.234   6.472 -0.2550  0.7176  0.0702
  134MOL0     H17679   3.947   4.067   6.437 -0.4525 -0.3331 -0.6347
  134MOL0     H17680   3.753   4.296   6.381 -2.0551  0.3088 -0.1022
  134MOL0     H17681   3.718   4.122   6.344  0.2666  0.9936 -0.2726
  134MOL0     H17682   3.743   4.256   6.609  3.0407 -0.5990 -1.1168
  134MOL0     H17683   3.756   4.085   6.596 -2.1909 -0.3853 -0.2022
  134MOL0     H17684   3.492   4.206   6.489 -0.1489 -2.7611 -2.0063
  134MOL0     H17685   3.557   4.042   6.497  0.6229  0.9249 -3.5271
  134MOL0     H17686   3.391   4.001   6.850 -0.1221  1.1784  1.1877
  134MOL0     H17687   4.160   4.031   6.349 -0.2679 -0.0989  0.2530
  134MOL0     H17688   4.409   4.041   6.270  0.1865 -0.7496  1.1949
  135MOL0     O17689   8.394   3.903  10.341  0.5499 -0.1388  0.4399
  135MOL0     C17690   8.383   3.790  10.303 -0.6234  0.3082 -0.4874
  135MOL0     O17691   8.275   3.704  10.315  0.1051  0.0453 -0.4680
  135MOL0     C17692   8.169   3.739  10.392  0.2090  0.3769  0.1938
  135MOL0     C17693   8.177   3.807  10.515 -0.2160  0.4833 -1.4509
  135MOL0     C17694   8.061   3.824  10.601  0.0642  0.0730  0.4777
  135MOL0     C17695   7.935   3.788  10.561 -1.4017 -0.1305 -1.0142
  135MOL0     O17696   7.836   3.820  10.646  0.0111  0.9069 -0.0878
  135MOL0     C17697   7.717   3.847  10.572  0.0811  0.6173 -0.1284
  135MOL0     C17698   7.620   3.909  10.670  0.3893  0.4655 -0.3091
  135MOL0     C17699   7.649   3.863  10.818 -0.0688 -0.2885  0.0543
  135MOL0     C17700   7.532   3.910  10.900 -0.7507 -0.0904 -0.1413
  135MOL0     C17701   7.546   3.872  11.057 -0.8406  0.2454  0.8420
  135MOL0     C17702   7.415   3.908  11.125  0.2613 -0.4185 -0.1539
  135MOL0     C17703   7.313   3.789  11.126  0.2160  0.0945  0.3900
  135MOL0     C17704   7.190   3.817  11.219  0.1270  1.4643  0.5815
  135MOL0     N17705   7.135   3.946  11.173  0.6945  0.7034 -0.3896
  135MOL0     C17706   7.111   4.050  11.260 -0.3263 -0.3070  0.0380
  135MOL0     C17707   7.029   4.137  11.191 -1.0579 -0.7414  0.0897
  135MOL0     C17708   6.989   4.281  11.245 -0.1009 -0.2347  0.0992
  135MOL0     C17709   7.058   4.396  11.159  0.0837 -0.3618 -0.4934
  135MOL0     C17710   7.025   4.527  11.238  0.0927 -0.3496  0.4198
  135MOL0     C17711   7.108   4.537  11.368 -0.4015 -0.3260  0.5273
  135MOL0     O17712   7.032   4.590  11.486  0.2674 -0.8237 -0.8251
  135MOL0     C17713   7.097   4.667  11.578 -0.1137  0.0426 -0.3508
  135MOL0     C17714   7.019   4.757  11.652 -0.7381  0.0669  0.1402
  135MOL0     C17715   7.073   4.839  11.750  0.3349  0.3357  0.2056
  135MOL0     C17716   7.212   4.837  11.778 -0.3069  0.4202 -0.9056
  135MOL0     C17717   7.276   4.929  11.868  0.7065 -0.9525 -0.7579
  135MOL0     O17718   7.418   4.927  11.859  0.5755 -0.1558 -0.3350
  135MOL0     C17719   7.494   5.008  11.948  0.3947 -0.1200 -0.0405
  135MOL0     C17720   7.624   5.023  11.898  0.4949 -0.1963 -0.3389
  135MOL0     C17721   7.714   5.112  11.964  0.4960 -0.4147  0.0508
  135MOL0     C17722   7.666   5.177  12.077 -0.5293  0.2798 -0.4192
  135MOL0     O17723   7.737   5.266  12.156  0.5229  0.1376 -0.6624
  135MOL0     C17724   7.863   5.304  12.098 -0.3389  0.4161 -0.1446
  135MOL0     C17725   7.926   5.408  12.186  0.0899 -0.0512 -0.2257
  135MOL0     C17726   8.064   5.448  12.141  0.7351 -0.4836 -0.3133
  135MOL0     C17727   8.142   5.525  12.255 -0.0519 -1.2777 -0.5552
  135MOL0     C17728   8.292   5.541  12.239 -0.2986 -1.2135 -0.0433
  135MOL0     C17729   8.351   5.669  12.305  0.1533  0.2687 -0.0802
  135MOL0     C17730   8.498   5.687  12.275  0.2749  0.3121 -0.0913
  135MOL0     C17731   8.556   5.819  12.317  1.1261 -0.7972  0.4613
  135MOL0    Cl17732   8.722   5.844  12.253 -0.1278  0.1497 -0.0781
  135MOL0     C17733   7.544   5.146  12.137 -0.5321 -0.0525 -0.2358
  135MOL0     C17734   7.464   5.052  12.080 -0.0061 -0.4405 -0.3202
  135MOL0     O17735   7.206   5.002  11.938  0.1386 -0.7501 -0.2165
  135MOL0     C17736   7.296   4.752  11.703  0.3019 -0.0054  0.2837
  135MOL0     C17737   7.236   4.661  11.621  0.3264  0.3019  0.4859
  135MOL0     N17738   6.995   4.074  11.073 -1.0908  0.0353  0.9341
  135MOL0     N17739   7.057   3.961  11.056 -0.2342 -0.5247 -0.6661
  135MOL0     C17740   7.923   3.732  10.436  0.1812  0.8615  0.6178
  135MOL0     C17741   8.038   3.704  10.357  0.6772  0.5609  0.6681
  135MOL0     C17742   8.499   3.728  10.234  0.2854 -1.2822  0.4514
  135MOL0     C17743   8.628   3.792  10.217  0.7365 -0.2013 -0.0770
  135MOL0     C17744   8.716   3.756  10.127 -0.0888 -0.0684  0.8668
  135MOL0     C17745   8.699   3.645  10.042 -0.3371  0.3756  0.6875
  135MOL0     O17746   8.795   3.597   9.961  0.0280 -0.2925  0.0434
  135MOL0     C17747   8.933   3.649   9.962  0.7039 -0.7924  0.5688
  135MOL0     C17748   9.005   3.597  10.079  0.1583  1.4273  0.3630
  135MOL0     C17749   9.149   3.650  10.071 -0.7262 -0.1788  0.4805
  135MOL0     C17750   9.170   3.793  10.121 -0.0164  0.5926 -0.2353
  135MOL0     C17751   9.090   3.839  10.225  0.5853 -0.1793  0.2450
  135MOL0     C17752   9.021   3.863  10.322  0.0834 -1.3651  0.2130
  135MOL0     C17753   8.581   3.576  10.055  0.1592  0.2384 -0.4026
  135MOL0     C17754   8.484   3.616  10.150  0.6151 -0.1609  0.1194
  135MOL0     H17755   8.267   3.847  10.560  2.4305 -3.5846 -2.5876
  135MOL0     H17756   8.074   3.875  10.696  3.6492 -0.3510  0.3468
  135MOL0     H17757   7.682   3.747  10.543  4.0574 -1.5286  1.6458
  135MOL0     H17758   7.731   3.902  10.478 -0.5469 -0.3223 -0.7834
  135MOL0     H17759   7.516   3.882  10.649  0.6144 -2.2224  1.5551
  135MOL0     H17760   7.632   4.018  10.663 -0.2911  0.5714  0.0669
  135MOL0     H17761   7.743   3.899  10.862 -0.3120  1.1349 -0.5449
  135MOL0     H17762   7.649   3.754  10.830 -3.1443 -0.1730  2.2705
  135MOL0     H17763   7.520   4.019  10.900 -1.4573 -0.1607  0.1711
  135MOL0     H17764   7.437   3.872  10.862 -2.0946  2.3240  0.6079
  135MOL0     H17765   7.627   3.924  11.110  0.2460  1.3498 -1.7623
  135MOL0     H17766   7.567   3.765  11.069 -1.6835 -0.1468 -0.9532
  135MOL0     H17767   7.383   3.998  11.073 -1.4415 -1.1865 -0.5019
  135MOL0     H17768   7.419   3.932  11.232 -1.2001  1.1713 -0.4123
  135MOL0     H17769   7.272   3.795  11.025  1.0166  0.7936  0.0885
  135MOL0     H17770   7.354   3.689  11.146 -0.2566 -0.4905 -1.3876
  135MOL0     H17771   7.211   3.832  11.325  0.3203  0.0250  0.7572
  135MOL0     H17772   7.118   3.736  11.210  0.3246  1.0156  2.6380
  135MOL0     H17773   7.166   4.067  11.352  1.0843 -1.9655 -0.4544
  135MOL0     H17774   7.022   4.284  11.349 -0.7476  4.6562  0.3976
  135MOL0     H17775   6.881   4.294  11.232 -0.0652  0.6441  0.6189
  135MOL0     H17776   7.014   4.395  11.059 -0.9664 -0.8055 -0.0488
  135MOL0     H17777   7.161   4.363  11.142 -0.2609  0.0246 -3.8973
  135MOL0     H17778   7.071   4.603  11.175 -2.1023  0.8579  0.1842
  135MOL0     H17779   6.919   4.543  11.261  0.5591  2.5150  0.9470
  135MOL0     H17780   7.198   4.598  11.352 -0.0751 -0.9829 -0.2350
  135MOL0     H17781   7.158   4.441  11.387  2.0361  0.9061  0.8535
  135MOL0     H17782   6.912   4.761  11.631 -0.6950  1.2121  0.0828
  135MOL0     H17783   7.003   4.910  11.794 -0.3170 -1.4021  2.1588
  135MOL0     H17784   7.648   4.965  11.810 -0.1602 -2.4532  0.8663
  135MOL0     H17785   7.814   5.128  11.925  0.0067 -1.7056 -1.8844
  135MOL0     H17786   7.860   5.348  11.997  0.0989 -1.5517 -1.0523
  135MOL0     H17787   7.923   5.213  12.090 -1.5792 -0.3978 -0.5581
  135MOL0     H17788   7.936   5.360  12.284 -1.1167  1.2968  0.6074
  135MOL0     H17789   7.874   5.504  12.185  1.4902  0.7380 -0.8781
  135MOL0     H17790   8.052   5.519  12.058 -2.0160  0.9842  1.1867
  135MOL0     H17791   8.125   5.360  12.118  0.3538 -0.8917  0.2143
  135MOL0     H17792   8.091   5.622  12.265  2.4353 -0.0814  2.6622
  135MOL0     H17793   8.124   5.479  12.353 -0.8137 -0.0835 -0.0982
  135MOL0     H17794   8.324   5.549  12.135  1.0083 -0.0962  0.4087
  135MOL0     H17795   8.340   5.446  12.264  1.0972 -1.3869 -2.9973
  135MOL0     H17796   8.333   5.656  12.412  1.3855 -2.7125 -0.1315
  135MOL0     H17797   8.301   5.760  12.272  1.6333  1.4960  0.9457
  135MOL0     H17798   8.553   5.612  12.333  1.3087  0.9211 -0.2745
  135MOL0     H17799   8.512   5.685  12.167 -0.1109  3.2581 -0.2616
  135MOL0     H17800   8.549   5.838  12.424  0.0736  3.5621 -0.1864
  135MOL0     H17801   8.499   5.906  12.281 -0.3063 -0.5534  3.0448
  135MOL0     H17802   7.505   5.205  12.219 -1.2128 -1.4257  0.4689
  135MOL0     H17803   7.375   5.028  12.137  0.1995 -0.2301  0.0950
  135MOL0     H17804   7.402   4.741  11.725  0.0238 -2.7639  0.6493
  135MOL0     H17805   7.300   4.584  11.578  1.6338  0.6025  1.8046
  135MOL0     H17806   7.826   3.712  10.392 -0.3368 -0.3134  2.2277
  135MOL0     H17807   8.029   3.666  10.256  0.6009  0.0142  0.8823
  135MOL0     H17808   8.643   3.887  10.269 -0.7110 -0.1649  0.3080
  135MOL0     H17809   8.802   3.823  10.118 -1.1345  1.0627 -1.7027
  135MOL0     H17810   8.934   3.759   9.966 -3.0060 -0.5977 -0.4163
  135MOL0     H17811   8.970   3.614   9.865  0.1993 -0.7350  0.3506
  135MOL0     H17812   8.963   3.632  10.174 -2.4616  1.6583 -0.8009
  135MOL0     H17813   9.006   3.488  10.075  2.2673  1.3148  2.2078
  135MOL0     H17814   9.183   3.654   9.967  1.9049  1.2909  1.2870
  135MOL0     H17815   9.204   3.573  10.127  0.0020  0.0995  0.1649
  135MOL0     H17816   9.277   3.806  10.140  0.3430 -1.6115 -0.4424
  135MOL0     H17817   9.161   3.872  10.045  1.5895  2.0057  0.9720
  135MOL0     H17818   8.970   3.886  10.413  1.0511 -1.3583  0.7599
  135MOL0     H17819   8.563   3.492   9.989 -0.3232 -0.3971  0.5168
  135MOL0     H17820   8.388   3.565  10.149 -0.3183  1.4763 -2.3138
  136MOL0     O17821   6.201   8.801   1.341  0.3844  0.0304 -0.0642
  136MOL0     C17822   6.198   8.917   1.303  0.0922  1.1084 -0.4406
  136MOL0     O17823   6.112   9.014   1.349 -0.2898  0.8291  0.3319
  136MOL0     C17824   6.018   8.982   1.441  0.0476  0.5383 -0.0827
  136MOL0     C17825   5.883   8.963   1.400 -0.6065  0.3056  0.1954
  136MOL0     C17826   5.789   8.932   1.498 -0.4226 -0.8196  0.2236
  136MOL0     C17827   5.823   8.925   1.631  0.2749  0.1994 -0.0241
  136MOL0     O17828   5.722   8.891   1.717 -0.6644 -0.7076  0.5938
  136MOL0     C17829   5.735   8.907   1.860  0.6019 -0.1367 -0.0773
  136MOL0     C17830   5.589   8.908   1.914 -0.2778  0.2120  0.5617
  136MOL0     C17831   5.575   8.902   2.065  0.7953  0.2625  0.4480
  136MOL0     C17832   5.420   8.914   2.089  0.2500 -0.3875  0.9062
  136MOL0     C17833   5.378   8.890   2.237  0.1338 -0.3012 -0.5263
  136MOL0     C17834   5.228   8.878   2.269 -0.0150 -0.2837 -0.2438
  136MOL0     C17835   5.201   8.859   2.414 -0.1812 -1.1086  1.0184
  136MOL0     C17836   5.050   8.839   2.444  0.0752 -0.1030  0.0392
  136MOL0     N17837   5.042   8.800   2.585  0.0097 -0.4707 -0.1370
  136MOL0     C17838   5.064   8.892   2.685 -0.1441  0.5702  0.2366
  136MOL0     C17839   5.053   8.815   2.801  0.0223 -1.5317  0.0854
  136MOL0     C17840   5.048   8.892   2.934 -0.3992 -0.8840  0.4156
  136MOL0     C17841   4.899   8.890   2.974  0.2004 -1.1943  0.0121
  136MOL0     C17842   4.878   8.968   3.108  0.8343 -0.2996  0.1316
  136MOL0     C17843   4.728   8.973   3.156  0.3554  0.6576  0.2637
  136MOL0     O17844   4.718   9.016   3.286  1.0930 -0.5268 -0.3657
  136MOL0     C17845   4.590   9.021   3.346 -0.4939  0.4673  0.4410
  136MOL0     C17846   4.590   9.023   3.485 -0.2813  0.1800 -0.7207
  136MOL0     C17847   4.476   9.028   3.565  0.3017 -0.2420  0.4971
  136MOL0     C17848   4.352   9.030   3.497 -0.1162 -0.1412 -0.0947
  136MOL0     C17849   4.235   9.042   3.580 -0.1096 -0.0446 -0.0255
  136MOL0     O17850   4.122   9.034   3.520  0.2206  0.2520  0.6263
  136MOL0     C17851   4.004   9.087   3.575 -0.5501 -0.6691  0.6100
  136MOL0     C17852   3.973   9.215   3.533  0.2393  1.0290  0.8083
  136MOL0     C17853   3.852   9.270   3.562 -0.6005  0.8133 -0.4467
  136MOL0     C17854   3.752   9.202   3.618 -0.8312  0.1176  0.4227
  136MOL0     O17855   3.629   9.266   3.631 -0.5630 -0.5385  0.6960
  136MOL0     C17856   3.519   9.181   3.665 -0.4178 -0.8861  0.4043
  136MOL0     C17857   3.396   9.267   3.657  0.6200  1.2292  0.2740
  136MOL0     C17858   3.351   9.303   3.515 -1.1185 -0.3101 -0.5449
  136MOL0     C17859   3.207   9.370   3.514  0.6627  0.6850 -0.1782
  136MOL0     C17860   3.100   9.278   3.573  0.7787  0.0457 -0.8075
  136MOL0     C17861   2.960   9.314   3.537 -0.6422 -1.0499 -0.1895
  136MOL0     C17862   2.854   9.249   3.631 -0.0386  0.8134  0.1098
  136MOL0     C17863   2.715   9.315   3.628 -0.3546  0.4221 -0.4809
  136MOL0    Cl17864   2.598   9.195   3.705 -0.5248 -0.4349  0.6283
  136MOL0     C17865   3.775   9.072   3.667 -0.0366  0.0042  0.5580
  136MOL0     C17866   3.900   9.012   3.642 -1.0638 -0.8579 -0.7050
  136MOL0     O17867   4.250   9.079   3.697  0.1736 -0.5429 -0.0688
  136MOL0     C17868   4.347   9.035   3.360  0.5985  0.1884 -0.1447
  136MOL0     C17869   4.463   9.031   3.281  0.3203  0.6419 -0.4872
  136MOL0     N17870   5.032   8.684   2.766 -0.5790 -0.0364 -0.7132
  136MOL0     N17871   5.039   8.673   2.635 -0.0319  0.0207  0.2386
  136MOL0     C17872   5.952   8.933   1.668 -0.9824 -0.4932  0.7666
  136MOL0     C17873   6.051   8.969   1.577  0.1995  0.1413 -0.4404
  136MOL0     C17874   6.293   8.947   1.191 -0.4620 -0.1966  0.5292
  136MOL0     C17875   6.278   9.071   1.116  0.5842  0.5924  1.0614
  136MOL0     C17876   6.375   9.098   1.015 -0.3045 -0.2815 -0.2473
  136MOL0     C17877   6.497   9.028   1.011 -1.0038  0.0034  0.2468
  136MOL0     O17878   6.606   9.060   0.931  0.0129  0.0428 -0.3986
  136MOL0     C17879   6.600   9.160   0.832 -0.1094 -0.1558  0.5078
  136MOL0     C17880   6.649   9.093   0.704  0.2085 -0.7610 -0.0249
  136MOL0     C17881   6.683   9.191   0.590  0.0694  0.2480 -0.3336
  136MOL0     C17882   6.570   9.275   0.550 -0.1799 -0.4076  0.2988
  136MOL0     C17883   6.596   9.361   0.438 -0.5976  0.7868 -0.1587
  136MOL0     C17884   6.612   9.444   0.349 -0.5063  0.3693 -0.9508
  136MOL0     C17885   6.520   8.918   1.090 -0.1573  0.1158 -0.8930
  136MOL0     C17886   6.416   8.877   1.174  0.3790  0.6853 -0.8459
  136MOL0     H17887   5.858   8.989   1.298  1.3731 -2.6252 -1.1868
  136MOL0     H17888   5.690   8.908   1.461 -0.5664  0.4472 -0.2575
  136MOL0     H17889   5.763   9.010   1.885 -3.9593  1.3110 -0.0087
  136MOL0     H17890   5.800   8.831   1.904 -0.0179  0.3916  1.8350
  136MOL0     H17891   5.526   8.827   1.875 -0.0439  0.1471  0.3174
  136MOL0     H17892   5.538   8.996   1.875 -2.4721  0.1382  3.0098
  136MOL0     H17893   5.633   8.974   2.123 -1.7721  0.6991  2.6569
  136MOL0     H17894   5.595   8.802   2.104 -0.5233  1.0645  3.5131
  136MOL0     H17895   5.393   9.012   2.050  0.1269  0.5414  3.1747
  136MOL0     H17896   5.362   8.834   2.042  1.0835 -2.5259  3.2826
  136MOL0     H17897   5.416   8.971   2.300 -0.5363 -0.8616  0.6304
  136MOL0     H17898   5.419   8.801   2.285 -0.9153  0.8056  2.6893
  136MOL0     H17899   5.191   8.800   2.201  1.0585 -0.2244 -0.9287
  136MOL0     H17900   5.171   8.966   2.239 -3.3693 -2.2507 -0.0584
  136MOL0     H17901   5.269   8.779   2.443 -2.1707 -3.1073  0.4530
  136MOL0     H17902   5.227   8.953   2.464 -3.9114  0.4256  0.3582
  136MOL0     H17903   5.009   8.759   2.383  0.0762  0.9098 -1.3314
  136MOL0     H17904   4.993   8.929   2.418 -0.0901 -0.4580 -0.8303
  136MOL0     H17905   5.069   9.000   2.678  1.4132  0.5156  0.2403
  136MOL0     H17906   5.086   8.994   2.921  2.5800 -1.7720  1.3062
  136MOL0     H17907   5.107   8.838   3.009  0.9864  0.7203  0.5447
  136MOL0     H17908   4.850   8.792   2.984 -1.7484 -0.2787 -0.1483
  136MOL0     H17909   4.854   8.946   2.892  1.6236  0.9754  0.6502
  136MOL0     H17910   4.941   8.935   3.191  1.5484  0.5180 -0.0726
  136MOL0     H17911   4.910   9.072   3.110 -3.5550  1.2906 -0.8800
  136MOL0     H17912   4.678   8.877   3.141  0.9540  0.5594 -1.2685
  136MOL0     H17913   4.685   9.039   3.080  2.5776  0.9045 -0.8548
  136MOL0     H17914   4.689   9.040   3.526 -0.3568  0.4236 -0.6410
  136MOL0     H17915   4.492   9.034   3.672 -1.0575  1.6377  0.6560
  136MOL0     H17916   4.045   9.267   3.471  1.5488  1.7171  2.8316
  136MOL0     H17917   3.821   9.372   3.540 -0.6645  1.3642  1.9027
  136MOL0     H17918   3.532   9.157   3.771 -0.1502  1.3675  0.9267
  136MOL0     H17919   3.523   9.093   3.599  3.3386 -1.3683  1.0922
  136MOL0     H17920   3.416   9.362   3.707  1.3881  2.3233 -2.0191
  136MOL0     H17921   3.321   9.211   3.714  2.1190 -1.5297 -0.2637
  136MOL0     H17922   3.362   9.212   3.456  0.3166  0.7800 -2.0078
  136MOL0     H17923   3.423   9.375   3.476  1.7755 -1.3780  2.3158
  136MOL0     H17924   3.198   9.466   3.565 -1.1329  0.0280  0.8052
  136MOL0     H17925   3.178   9.377   3.409 -1.7960 -1.0330  0.2884
  136MOL0     H17926   3.112   9.299   3.680 -1.1342 -0.1025 -0.5253
  136MOL0     H17927   3.099   9.170   3.555 -1.0278  0.0098 -0.6270
  136MOL0     H17928   2.953   9.282   3.433  1.4307 -0.2655 -0.6323
  136MOL0     H17929   2.947   9.423   3.529 -1.6127 -1.2495 -1.5893
  136MOL0     H17930   2.836   9.144   3.606 -0.0197  0.8580 -0.0891
  136MOL0     H17931   2.888   9.254   3.735 -1.0144 -2.3636  0.6838
  136MOL0     H17932   2.687   9.344   3.527 -1.4906 -0.9740 -0.6152
  136MOL0     H17933   2.721   9.411   3.679 -0.0625  0.5471 -0.7542
  136MOL0     H17934   3.700   9.018   3.724  0.0450  1.5669  2.2366
  136MOL0     H17935   3.917   8.908   3.669  2.3884  0.1954  1.7712
  136MOL0     H17936   4.248   9.055   3.321 -0.6028 -0.9194  2.1705
  136MOL0     H17937   4.450   9.042   3.174  1.6173 -0.7279 -0.8345
  136MOL0     H17938   5.981   8.910   1.770  0.9336 -2.8099 -0.2246
  136MOL0     H17939   6.155   8.982   1.606  0.3316 -2.6910  0.6556
  136MOL0     H17940   6.189   9.133   1.120  1.2018  1.5211  0.5522
  136MOL0     H17941   6.366   9.190   0.959  3.6360 -0.9764 -2.3360
  136MOL0     H17942   6.671   9.237   0.864 -0.9733  1.1278 -0.5753
  136MOL0     H17943   6.503   9.205   0.808  0.3563  0.3750 -0.4464
  136MOL0     H17944   6.742   9.037   0.718  0.6217 -0.3850 -1.0790
  136MOL0     H17945   6.570   9.023   0.678  2.2712 -3.1568 -0.2152
  136MOL0     H17946   6.711   9.130   0.503 -0.2690  2.7540 -2.3188
  136MOL0     H17947   6.763   9.263   0.608  1.6168 -1.4986  0.0937
  136MOL0     H17948   6.481   9.213   0.537  0.9243 -1.5228 -3.1310
  136MOL0     H17949   6.546   9.344   0.631 -3.2483 -1.4338  0.3727
  136MOL0     H17950   6.632   9.521   0.278 -0.1675  0.5711 -0.6394
  136MOL0     H17951   6.612   8.861   1.076  0.7435  1.5979 -1.2026
  136MOL0     H17952   6.435   8.788   1.233 -0.5302  2.0818  1.6846
  137MOL0     O17953   6.711   4.835   4.745 -0.9554 -0.2282  0.1646
  137MOL0     C17954   6.757   4.885   4.639  0.3311  0.1135 -0.4460
  137MOL0     O17955   6.696   4.893   4.516  0.4690  0.1651  0.6000
  137MOL0     C17956   6.564   4.844   4.503  0.3056  0.1704 -0.9640
  137MOL0     C17957   6.520   4.720   4.557 -0.5307  0.0268  0.1601
  137MOL0     C17958   6.389   4.682   4.560  0.2235  0.2572  0.6794
  137MOL0     C17959   6.283   4.768   4.529 -0.9441 -0.5844  1.1358
  137MOL0     O17960   6.155   4.735   4.543  0.2124  0.3300 -0.5689
  137MOL0     C17961   6.067   4.830   4.605  0.3723 -0.3950  0.1730
  137MOL0     C17962   5.938   4.769   4.660 -0.4021  0.0058 -0.0498
  137MOL0     C17963   5.863   4.871   4.751 -0.1200 -0.5965 -0.0054
  137MOL0     C17964   5.802   5.002   4.695 -0.0815  1.2218 -0.1967
  137MOL0     C17965   5.686   4.973   4.597 -0.1252 -0.1216  0.3725
  137MOL0     C17966   5.638   5.097   4.520  0.5820  0.7978  0.1445
  137MOL0     C17967   5.526   5.050   4.420  0.0746  0.1047  0.7122
  137MOL0     C17968   5.475   5.164   4.328 -0.9380 -0.0600 -0.3724
  137MOL0     N17969   5.445   5.295   4.392 -0.5258 -0.4655  0.1370
  137MOL0     C17970   5.529   5.402   4.392 -0.2309  0.8231  0.0806
  137MOL0     C17971   5.476   5.497   4.476 -0.5718  0.0440 -0.6495
  137MOL0     C17972   5.538   5.628   4.502 -0.4557  0.0100  0.5298
  137MOL0     C17973   5.491   5.739   4.408  0.0287  0.6376  0.4445
  137MOL0     C17974   5.343   5.766   4.411 -0.1134  0.1440  1.0232
  137MOL0     C17975   5.301   5.835   4.547 -0.3520  0.1728  0.0207
  137MOL0     O17976   5.160   5.867   4.527 -0.8062 -0.3068 -0.3998
  137MOL0     C17977   5.109   5.955   4.620 -0.8655  0.0972  0.3933
  137MOL0     C17978   5.061   6.082   4.583  0.2601  0.1734  0.5129
  137MOL0     C17979   5.012   6.179   4.667 -0.3385  0.4945 -0.2997
  137MOL0     C17980   4.989   6.136   4.806 -0.2043 -0.2739  0.4955
  137MOL0     C17981   4.911   6.230   4.890 -0.8335  0.7363 -0.0972
  137MOL0     O17982   4.873   6.182   5.017  0.1897  0.3044  0.8457
  137MOL0     C17983   4.803   6.271   5.094 -0.4547 -0.4982 -0.8565
  137MOL0     C17984   4.875   6.340   5.192  0.4875 -0.8253  0.4103
  137MOL0     C17985   4.810   6.419   5.288  0.1727  0.3597 -0.5910
  137MOL0     C17986   4.667   6.425   5.283 -0.5873 -1.1203 -0.3201
  137MOL0     O17987   4.589   6.499   5.364  0.4269  0.1877  0.3644
  137MOL0     C17988   4.649   6.590   5.454 -0.0195 -0.6954 -0.1291
  137MOL0     C17989   4.536   6.667   5.513  0.5189  0.2232 -0.0833
  137MOL0     C17990   4.421   6.592   5.577  0.0268  0.5344  0.3706
  137MOL0     C17991   4.393   6.628   5.718  0.6672 -0.3968 -0.4536
  137MOL0     C17992   4.267   6.557   5.777 -0.9069 -0.1050  0.1132
  137MOL0     C17993   4.253   6.598   5.930 -0.3241  1.0427 -0.2673
  137MOL0     C17994   4.284   6.741   5.972  0.2479  0.1027  0.4271
  137MOL0     C17995   4.264   6.770   6.124 -0.5785 -0.0733  0.2595
  137MOL0    Cl17996   4.342   6.635   6.224  0.1829 -0.3161 -0.4305
  137MOL0     C17997   4.600   6.355   5.188  0.5258 -0.2458  0.7125
  137MOL0     C17998   4.669   6.270   5.105 -0.2293  0.6992 -0.0567
  137MOL0     O17999   4.878   6.339   4.834 -0.0008 -0.0590 -0.4527
  137MOL0     C18000   5.021   6.007   4.841  0.2538  0.7142  0.4001
  137MOL0     C18001   5.095   5.926   4.749 -0.0930 -0.0036  0.0121
  137MOL0     N18002   5.356   5.442   4.524 -0.4476  0.5997 -0.2441
  137MOL0     N18003   5.348   5.320   4.483  0.2134  0.1791  0.3904
  137MOL0     C18004   6.326   4.893   4.473  0.4107  0.7401 -0.3664
  137MOL0     C18005   6.465   4.926   4.458 -0.4817  0.4890  0.2563
  137MOL0     C18006   6.889   4.934   4.648 -0.9940  0.3620 -0.2880
  137MOL0     C18007   6.968   4.912   4.764 -0.2789 -0.7850  0.8338
  137MOL0     C18008   7.098   4.965   4.768  0.0948  0.5841  0.7618
  137MOL0     C18009   7.153   5.035   4.661  1.0949 -0.1990  0.4826
  137MOL0     O18010   7.288   5.073   4.670  0.1428 -0.6998  0.4906
  137MOL0     C18011   7.338   5.181   4.586  0.6508  0.9114  0.2718
  137MOL0     C18012   7.440   5.267   4.661  0.8456  0.0335 -0.6746
  137MOL0     C18013   7.579   5.214   4.673 -0.1340 -0.0966 -0.5272
  137MOL0     C18014   7.649   5.217   4.538 -0.5394 -0.3127  0.2512
  137MOL0     C18015   7.735   5.106   4.512 -0.3557  0.3715 -0.4945
  137MOL0     C18016   7.801   5.008   4.507  0.4419  0.4040 -1.0296
  137MOL0     C18017   7.085   5.044   4.542 -0.8140  0.5083 -0.4788
  137MOL0     C18018   6.953   4.991   4.537 -0.1173 -0.9647  0.6033
  137MOL0     H18019   6.588   4.644   4.594 -2.1998 -1.0764  1.1331
  137MOL0     H18020   6.378   4.581   4.598 -3.5510 -0.3381 -1.4724
  137MOL0     H18021   6.036   4.909   4.536  1.2845 -0.3698 -0.2126
  137MOL0     H18022   6.109   4.876   4.695  1.1070 -1.7547  0.5464
  137MOL0     H18023   5.959   4.672   4.706 -2.8272 -1.6341 -2.0574
  137MOL0     H18024   5.873   4.742   4.576  1.0019 -0.4198 -1.0336
  137MOL0     H18025   5.930   4.904   4.830  1.9567 -2.6480 -0.7657
  137MOL0     H18026   5.780   4.821   4.802 -0.8871 -0.0022 -0.6292
  137MOL0     H18027   5.755   5.054   4.779 -1.5911 -0.0110 -0.2436
  137MOL0     H18028   5.883   5.063   4.655  0.1938  0.9829 -0.0123
  137MOL0     H18029   5.602   4.934   4.654  1.2053 -1.9218  1.1797
  137MOL0     H18030   5.720   4.895   4.529 -0.3532 -0.0116  0.1307
  137MOL0     H18031   5.717   5.147   4.464 -1.4911  0.7288 -3.1098
  137MOL0     H18032   5.594   5.164   4.595  2.4444  1.6879  0.4947
  137MOL0     H18033   5.566   4.970   4.356  0.4126  1.4032 -0.7500
  137MOL0     H18034   5.449   5.005   4.483  0.6753  1.4620  2.4766
  137MOL0     H18035   5.380   5.129   4.286 -0.4904  0.5806 -1.9712
  137MOL0     H18036   5.547   5.174   4.246 -1.2927 -1.4912 -0.8897
  137MOL0     H18037   5.624   5.399   4.339 -0.5999 -5.2324 -0.9899
  137MOL0     H18038   5.646   5.626   4.483 -0.8608  0.7094 -2.3553
  137MOL0     H18039   5.517   5.666   4.602  0.0624  0.6519  0.4076
  137MOL0     H18040   5.505   5.693   4.310  1.2342  0.7233  0.5590
  137MOL0     H18041   5.543   5.835   4.418 -1.0905  1.2777  0.2443
  137MOL0     H18042   5.318   5.833   4.328  0.6867 -1.0345 -0.2153
  137MOL0     H18043   5.284   5.678   4.381 -0.1871  1.5613 -4.0203
  137MOL0     H18044   5.371   5.915   4.573  0.8925 -1.4635  2.0443
  137MOL0     H18045   5.305   5.762   4.629 -1.8009  2.3285  2.1532
  137MOL0     H18046   5.062   6.101   4.476 -1.1574 -2.7787 -0.1160
  137MOL0     H18047   4.999   6.281   4.633 -0.7282  0.7851  0.6724
  137MOL0     H18048   4.983   6.336   5.184  0.5420 -1.1320  1.1618
  137MOL0     H18049   4.871   6.476   5.357  2.6593 -0.3234 -2.1030
  137MOL0     H18050   4.724   6.661   5.418  1.2288 -2.3150 -0.8156
  137MOL0     H18051   4.699   6.544   5.539  3.8718 -2.2221 -2.9571
  137MOL0     H18052   4.497   6.721   5.427 -1.2747 -1.4243 -0.3818
  137MOL0     H18053   4.565   6.727   5.600  0.2033 -0.8919  0.8244
  137MOL0     H18054   4.426   6.484   5.561 -1.7139  0.4999 -0.1512
  137MOL0     H18055   4.333   6.618   5.519 -0.3581 -2.5813 -0.6448
  137MOL0     H18056   4.481   6.614   5.782  0.2082  0.5529  0.4125
  137MOL0     H18057   4.367   6.733   5.729  0.0962 -0.6176  0.4538
  137MOL0     H18058   4.276   6.449   5.763 -0.0301 -0.2436  1.5132
  137MOL0     H18059   4.177   6.595   5.729 -2.6048 -2.7261  0.9724
  137MOL0     H18060   4.319   6.533   5.988 -0.9672 -0.1248 -0.7962
  137MOL0     H18061   4.154   6.567   5.964  0.2870 -0.4031  0.2877
  137MOL0     H18062   4.391   6.755   5.953  0.2105  0.8780  0.7198
  137MOL0     H18063   4.225   6.811   5.912 -0.4667  1.4660  2.6209
  137MOL0     H18064   4.156   6.770   6.141 -0.8228  0.6588 -1.0625
  137MOL0     H18065   4.298   6.871   6.151  0.1541 -0.9337  2.7487
  137MOL0     H18066   4.492   6.351   5.199  0.3556 -0.3602 -0.7959
  137MOL0     H18067   4.614   6.202   5.041 -2.8465  2.3122  0.3353
  137MOL0     H18068   5.013   5.980   4.945  0.4255 -2.3928 -0.3008
  137MOL0     H18069   5.143   5.840   4.795  1.1902  2.0399  2.8161
  137MOL0     H18070   6.251   4.967   4.448 -1.0904 -0.2841  0.9058
  137MOL0     H18071   6.504   5.020   4.420  1.9793 -1.9901 -4.1684
  137MOL0     H18072   6.933   4.863   4.855  1.0207 -1.2391  1.1124
  137MOL0     H18073   7.161   4.965   4.857  2.0293  0.8698 -0.5452
  137MOL0     H18074   7.256   5.242   4.547  0.7378  0.8473 -0.0195
  137MOL0     H18075   7.386   5.138   4.497  1.1689 -0.9558  1.3955
  137MOL0     H18076   7.435   5.365   4.612 -5.7834  0.0884 -0.8817
  137MOL0     H18077   7.405   5.274   4.764  1.1820 -3.0493 -0.2802
  137MOL0     H18078   7.577   5.110   4.706 -0.9170  0.4249  1.2044
  137MOL0     H18079   7.639   5.269   4.746  0.9250 -1.9998  0.0999
  137MOL0     H18080   7.569   5.218   4.463 -0.8925 -1.0002  0.6113
  137MOL0     H18081   7.697   5.314   4.519  1.1896 -1.1867  0.0467
  137MOL0     H18082   7.854   4.917   4.486  2.3004  1.0892  0.4146
  137MOL0     H18083   7.134   5.082   4.453  0.8490 -2.4883 -0.9882
  137MOL0     H18084   6.889   5.012   4.453  1.1094  3.5320  0.5460
  138MOL0     O18085   4.113   7.363   1.572 -0.4648  0.0237 -0.2052
  138MOL0     C18086   4.171   7.321   1.471  0.4486 -0.1911 -0.3895
  138MOL0     O18087   4.119   7.232   1.385  0.1831  0.3241 -0.2104
  138MOL0     C18088   3.980   7.195   1.405 -0.8504 -0.5550  0.6741
  138MOL0     C18089   3.871   7.249   1.332  0.4195  0.2019  0.4775
  138MOL0     C18090   3.736   7.227   1.367 -1.3431  0.3113  0.3906
  138MOL0     C18091   3.709   7.129   1.460  0.0255  0.4935 -0.9487
  138MOL0     O18092   3.583   7.095   1.494  0.2628 -0.3399 -0.5241
  138MOL0     C18093   3.471   7.095   1.399 -0.5781 -0.2808 -0.6173
  138MOL0     C18094   3.367   7.006   1.457  0.6827  0.6171 -0.1445
  138MOL0     C18095   3.250   6.988   1.363  0.0220  0.2632 -0.0896
  138MOL0     C18096   3.142   6.913   1.438  0.4402 -0.3098 -0.2152
  138MOL0     C18097   3.041   6.865   1.337  0.4255  0.6034  0.4249
  138MOL0     C18098   2.931   6.786   1.409 -0.1601 -0.4567  0.1341
  138MOL0     C18099   2.841   6.715   1.306 -0.4122 -0.0620  0.2211
  138MOL0     C18100   2.897   6.579   1.273  0.0767  0.3785 -0.4939
  138MOL0     N18101   2.822   6.512   1.162 -0.1000 -0.4438 -0.0682
  138MOL0     C18102   2.699   6.537   1.110  0.1535 -0.2454 -0.0005
  138MOL0     C18103   2.685   6.465   0.996  0.3119  0.2910 -0.6792
  138MOL0     C18104   2.568   6.464   0.904  0.0122 -0.6088 -0.7101
  138MOL0     C18105   2.443   6.386   0.966 -0.4308 -0.4238 -0.1225
  138MOL0     C18106   2.383   6.300   0.852 -0.0535  0.5987  0.6490
  138MOL0     C18107   2.248   6.231   0.882  0.0154  0.7905  0.6402
  138MOL0     O18108   2.267   6.124   0.979 -0.2960 -0.1750  0.3218
  138MOL0     C18109   2.160   6.052   1.015  0.6637 -0.1587 -0.8104
  138MOL0     C18110   2.177   5.961   1.121 -0.2394 -0.2917  0.3308
  138MOL0     C18111   2.062   5.891   1.164 -0.1410  0.3542  0.1751
  138MOL0     C18112   1.937   5.908   1.103  0.5193  1.0995  0.0325
  138MOL0     C18113   1.812   5.846   1.158 -0.2620 -0.1861  0.6170
  138MOL0     O18114   1.827   5.799   1.282  0.3343  0.5709  0.5437
  138MOL0     C18115   1.721   5.731   1.335  0.1619  0.0792  0.7429
  138MOL0     C18116   1.664   5.782   1.454  0.0514  0.6866  0.3129
  138MOL0     C18117   1.552   5.728   1.513 -0.4022 -0.7636 -0.5515
  138MOL0     C18118   1.499   5.611   1.464  0.7739  0.1915  0.3134
  138MOL0     O18119   1.386   5.553   1.516  0.2220  0.4444 -0.3190
  138MOL0     C18120   1.294   5.626   1.602  0.5252 -0.0814 -0.0985
  138MOL0     C18121   1.155   5.560   1.601 -0.1056 -1.0042  0.5703
  138MOL0     C18122   1.164   5.412   1.625  0.3703 -0.5594 -0.2972
  138MOL0     C18123   1.180   5.385   1.783 -0.2611  0.1239 -0.1225
  138MOL0     C18124   1.208   5.230   1.806 -0.9379 -0.5825  0.2275
  138MOL0     C18125   1.337   5.183   1.757 -0.2137  0.5690  0.9800
  138MOL0     C18126   1.339   5.028   1.784 -0.1951  0.5102  0.5543
  138MOL0     C18127   1.464   4.965   1.731 -0.1166  0.8197  0.8989
  138MOL0    Cl18128   1.610   5.035   1.807 -0.0207  0.4933 -0.3343
  138MOL0     C18129   1.565   5.544   1.351  0.9421 -0.2371 -0.1003
  138MOL0     C18130   1.677   5.604   1.288  0.2579  0.7241 -0.8415
  138MOL0     O18131   1.713   5.843   1.094  0.6979  0.2032 -0.2938
  138MOL0     C18132   1.921   5.997   0.996 -0.5839  1.1473  0.6318
  138MOL0     C18133   2.035   6.063   0.960 -0.0214 -0.0233 -0.5204
  138MOL0     N18134   2.801   6.391   0.981  0.9875  0.6226 -0.4550
  138MOL0     N18135   2.879   6.419   1.082 -0.2628 -1.0053  0.2664
  138MOL0     C18136   3.809   7.058   1.526  0.1545  0.5030  0.9388
  138MOL0     C18137   3.945   7.093   1.496  0.1305 -0.4826  0.2202
  138MOL0     C18138   4.311   7.368   1.453  0.3685 -0.4690  0.1032
  138MOL0     C18139   4.364   7.478   1.527  0.5302 -0.4049 -0.1076
  138MOL0     C18140   4.496   7.522   1.489  0.4450 -1.3627 -0.5082
  138MOL0     C18141   4.558   7.471   1.373 -0.8124 -0.1284 -0.3535
  138MOL0     O18142   4.690   7.486   1.327 -0.0887 -0.1334  0.4245
  138MOL0     C18143   4.790   7.555   1.408 -0.9187  0.8048 -0.0968
  138MOL0     C18144   4.929   7.511   1.340 -0.2424  0.2130  0.0397
  138MOL0     C18145   4.966   7.364   1.369 -0.5412 -0.8340  0.7026
  138MOL0     C18146   5.113   7.323   1.337 -0.6513  0.3617  0.3172
  138MOL0     C18147   5.126   7.174   1.341 -0.3405  0.5282  0.1286
  138MOL0     C18148   5.125   7.056   1.347  0.3223  0.1261  0.1463
  138MOL0     C18149   4.492   7.369   1.305  0.0204 -0.6732  0.7000
  138MOL0     C18150   4.369   7.326   1.336 -0.1007 -0.4766 -0.1807
  138MOL0     H18151   3.899   7.327   1.263 -0.7530 -0.0728 -0.3354
  138MOL0     H18152   3.658   7.290   1.324 -1.1631 -0.2824 -0.8729
  138MOL0     H18153   3.502   7.054   1.302 -1.0181  0.2699 -0.9960
  138MOL0     H18154   3.420   7.191   1.387 -2.5271 -1.2671 -0.5339
  138MOL0     H18155   3.333   7.050   1.552  0.8836  1.6381 -0.5353
  138MOL0     H18156   3.407   6.907   1.481 -4.2471 -1.3856  1.0477
  138MOL0     H18157   3.282   6.921   1.283  0.8933 -3.7443  3.3085
  138MOL0     H18158   3.219   7.081   1.314  2.4144  2.1635  1.7525
  138MOL0     H18159   3.192   6.835   1.495  1.0698  0.7376  0.7108
  138MOL0     H18160   3.098   6.985   1.508  1.0083  1.8492 -1.9704
  138MOL0     H18161   3.105   6.799   1.277 -1.2747 -0.5028 -0.2912
  138MOL0     H18162   2.990   6.929   1.265 -1.2158 -1.8609 -0.7696
  138MOL0     H18163   2.882   6.860   1.472  3.2543  1.6683  0.5775
  138MOL0     H18164   2.964   6.713   1.484 -0.5770 -2.6385 -1.6827
  138MOL0     H18165   2.738   6.703   1.342 -0.6489  0.5774 -0.2230
  138MOL0     H18166   2.836   6.782   1.220 -1.4448  0.7538  0.8836
  138MOL0     H18167   2.889   6.520   1.365 -0.7429 -0.4293 -1.0673
  138MOL0     H18168   3.002   6.593   1.243  0.7541 -1.9633  0.5597
  138MOL0     H18169   2.622   6.592   1.163  0.5435  1.1853 -0.8733
  138MOL0     H18170   2.611   6.415   0.816 -2.4224 -1.1225 -1.6907
  138MOL0     H18171   2.541   6.567   0.883 -1.2742 -0.7384  0.1574
  138MOL0     H18172   2.376   6.459   1.012 -0.0094 -0.1135  0.0006
  138MOL0     H18173   2.477   6.319   1.045  1.0522 -0.0369 -0.4019
  138MOL0     H18174   2.386   6.354   0.757  0.7675  1.8085  1.3311
  138MOL0     H18175   2.453   6.219   0.828 -0.0280  0.3647  1.4651
  138MOL0     H18176   2.212   6.182   0.791  2.4333  0.6727 -0.3038
  138MOL0     H18177   2.166   6.292   0.920 -0.8376  0.4670 -0.6176
  138MOL0     H18178   2.274   5.964   1.170 -0.2182 -1.3983  0.3771
  138MOL0     H18179   2.060   5.817   1.244 -1.6252 -2.0443 -1.9053
  138MOL0     H18180   1.704   5.869   1.505  1.7317  0.5131 -0.6429
  138MOL0     H18181   1.522   5.788   1.598  1.2078 -2.3551  1.2399
  138MOL0     H18182   1.285   5.731   1.572 -1.2266  0.2870  1.5261
  138MOL0     H18183   1.335   5.626   1.704  1.0346  1.3777 -0.2663
  138MOL0     H18184   1.105   5.577   1.505  0.4563 -1.5223  0.1796
  138MOL0     H18185   1.094   5.608   1.678  1.7689  0.7139  1.0724
  138MOL0     H18186   1.246   5.363   1.571  2.1612  2.4227 -0.5484
  138MOL0     H18187   1.070   5.366   1.595  1.0360 -2.1940  0.0015
  138MOL0     H18188   1.271   5.437   1.814  0.5457 -1.3365  0.0762
  138MOL0     H18189   1.096   5.419   1.845  0.1984 -0.0649  0.6191
  138MOL0     H18190   1.128   5.188   1.745  0.1424  3.0316 -4.2516
  138MOL0     H18191   1.200   5.196   1.909  0.9348 -1.7202  0.0408
  138MOL0     H18192   1.418   5.221   1.820  2.1407 -4.2137  1.2700
  138MOL0     H18193   1.361   5.210   1.653 -0.1237 -1.5650  0.3926
  138MOL0     H18194   1.340   5.011   1.892  2.4094  0.6534  0.6301
  138MOL0     H18195   1.255   4.977   1.737  1.0648  0.7530 -2.1670
  138MOL0     H18196   1.458   4.974   1.622 -0.6213 -1.6878  0.6567
  138MOL0     H18197   1.455   4.857   1.748 -4.5758  0.2531 -3.0407
  138MOL0     H18198   1.523   5.451   1.313 -1.0694  0.8528 -0.7292
  138MOL0     H18199   1.723   5.556   1.201 -1.7263  1.0552 -2.1307
  138MOL0     H18200   1.824   6.019   0.951 -1.8573 -1.4979  1.9203
  138MOL0     H18201   2.030   6.132   0.876 -0.4409  0.8059  0.1651
  138MOL0     H18202   3.785   6.973   1.588  0.4546 -1.6505 -1.7193
  138MOL0     H18203   4.023   7.037   1.546 -1.1105 -0.5119  2.2342
  138MOL0     H18204   4.298   7.526   1.598  0.7369 -0.5974  0.2174
  138MOL0     H18205   4.545   7.598   1.548  0.0306 -2.2851  1.0797
  138MOL0     H18206   4.784   7.532   1.514  2.4550  1.9092  0.4550
  138MOL0     H18207   4.768   7.662   1.404 -1.6394  0.6472 -0.6159
  138MOL0     H18208   4.922   7.513   1.231 -3.8728 -0.4847  0.1442
  138MOL0     H18209   5.013   7.576   1.369  2.2728 -3.3053  1.3531
  138MOL0     H18210   4.897   7.301   1.312  1.1621 -0.9944 -1.2991
  138MOL0     H18211   4.952   7.346   1.476  0.3167  0.6673  1.1041
  138MOL0     H18212   5.143   7.364   1.241  1.8286 -0.7768  0.5242
  138MOL0     H18213   5.176   7.373   1.411  3.4318 -0.6977 -2.1348
  138MOL0     H18214   5.139   6.950   1.352 -2.6347 -0.3345  0.7063
  138MOL0     H18215   4.523   7.330   1.209 -1.9062 -0.9979  0.1657
  138MOL0     H18216   4.333   7.255   1.262 -1.4646  2.8156 -2.8969
  139MOL0     O18217   7.842   7.724   8.775 -0.2784 -0.0297  0.0235
  139MOL0     C18218   7.857   7.776   8.667 -0.4986  0.4793  0.2221
  139MOL0     O18219   7.762   7.809   8.583  0.2367 -0.3711 -0.0203
  139MOL0     C18220   7.625   7.782   8.604 -0.2666 -0.1203  0.5345
  139MOL0     C18221   7.534   7.871   8.551  0.4691 -0.5465  1.1485
  139MOL0     C18222   7.394   7.845   8.544  0.6320  0.1539 -0.7805
  139MOL0     C18223   7.343   7.737   8.610  0.4643  0.3634 -0.0268
  139MOL0     O18224   7.206   7.705   8.622 -0.2642  0.2302 -0.5374
  139MOL0     C18225   7.147   7.640   8.509  0.2053  0.1686 -0.3239
  139MOL0     C18226   7.059   7.736   8.428  0.3259 -0.3673 -0.4209
  139MOL0     C18227   6.955   7.826   8.498 -0.1086 -0.5135  0.3191
  139MOL0     C18228   6.878   7.885   8.370  0.5795  0.6268 -0.5799
  139MOL0     C18229   6.740   7.926   8.420 -0.0002  0.3082  0.5019
  139MOL0     C18230   6.744   8.052   8.505  0.0924  0.0282  0.3907
  139MOL0     C18231   6.603   8.103   8.533 -0.0616 -0.8856  0.0804
  139MOL0     C18232   6.589   8.218   8.631  0.2839  0.0312 -0.4309
  139MOL0     N18233   6.448   8.257   8.645 -0.1758  0.3735  0.3991
  139MOL0     C18234   6.354   8.185   8.716 -0.6287  0.5057 -0.0278
  139MOL0     C18235   6.243   8.256   8.687 -0.0028  0.5212 -0.6533
  139MOL0     C18236   6.109   8.228   8.746  0.1119  0.0256  0.1712
  139MOL0     C18237   6.005   8.342   8.710 -0.4555 -0.0179  0.4059
  139MOL0     C18238   5.885   8.324   8.800 -0.3306 -0.2078 -0.2234
  139MOL0     C18239   5.768   8.408   8.757  0.4806  0.3955  0.2513
  139MOL0     O18240   5.655   8.343   8.822 -0.6627 -0.4253  0.4923
  139MOL0     C18241   5.533   8.379   8.780  0.7965  1.0480  0.5755
  139MOL0     C18242   5.501   8.498   8.714 -0.6335  0.3307 -0.2345
  139MOL0     C18243   5.372   8.537   8.677 -0.1590 -0.1661 -0.5919
  139MOL0     C18244   5.260   8.444   8.695 -0.2434  0.3704  1.1288
  139MOL0     C18245   5.118   8.488   8.650  0.5968 -0.1517 -0.2433
  139MOL0     O18246   5.010   8.412   8.688 -0.5717  0.4783 -0.0383
  139MOL0     C18247   4.892   8.451   8.636 -0.4101  0.1205  0.2865
  139MOL0     C18248   4.840   8.581   8.671 -0.3632  0.2323 -0.3643
  139MOL0     C18249   4.707   8.610   8.644  0.0155 -0.7111 -0.2622
  139MOL0     C18250   4.628   8.524   8.567 -0.0445 -0.0210 -0.5313
  139MOL0     O18251   4.501   8.571   8.532 -0.0621  0.0129  0.2665
  139MOL0     C18252   4.423   8.486   8.450  2.3260  0.9735  0.6978
  139MOL0     C18253   4.284   8.554   8.418  0.3947 -0.4988 -0.4003
  139MOL0     C18254   4.183   8.449   8.373  0.9238 -0.5148  0.3766
  139MOL0     C18255   4.050   8.510   8.333 -0.0055 -0.1242 -0.2616
  139MOL0     C18256   3.959   8.528   8.454  0.6151 -0.1152 -0.3382
  139MOL0     C18257   3.807   8.552   8.423  0.0600 -0.4856 -0.7131
  139MOL0     C18258   3.713   8.546   8.551  0.2080 -1.0820  0.5054
  139MOL0     C18259   3.580   8.525   8.499  0.3570  1.3593  0.0193
  139MOL0    Cl18260   3.530   8.642   8.380 -0.1289 -0.3059  0.0934
  139MOL0     C18261   4.682   8.401   8.528 -0.1514  0.3615 -0.1560
  139MOL0     C18262   4.821   8.360   8.559 -0.1028 -0.2158  0.3192
  139MOL0     O18263   5.115   8.589   8.576  0.9810  0.3585  0.2537
  139MOL0     C18264   5.284   8.325   8.757 -0.4186 -0.3128 -0.5752
  139MOL0     C18265   5.417   8.295   8.806  0.1381 -0.5498  0.7744
  139MOL0     N18266   6.266   8.360   8.593 -0.6520 -0.2886 -0.8463
  139MOL0     N18267   6.389   8.358   8.567  0.4891 -0.8794  0.8433
  139MOL0     C18268   7.432   7.653   8.672  0.7082  0.0451 -0.6765
  139MOL0     C18269   7.571   7.672   8.671 -0.2958  0.2012  0.7134
  139MOL0     C18270   7.997   7.810   8.640  0.1373  0.0068  0.4771
  139MOL0     C18271   8.089   7.804   8.749 -0.5044 -0.1341  0.1216
  139MOL0     C18272   8.227   7.820   8.729 -0.3804  0.2098  0.1772
  139MOL0     C18273   8.257   7.850   8.600 -1.2030 -0.5976  0.2007
  139MOL0     O18274   8.395   7.856   8.574 -0.0466 -0.0535  0.3304
  139MOL0     C18275   8.445   7.980   8.520  0.3451  0.1819 -0.6228
  139MOL0     C18276   8.478   8.068   8.634 -0.8124 -0.5653 -0.2391
  139MOL0     C18277   8.624   8.084   8.642  0.4173  0.8582  0.8520
  139MOL0     C18278   8.663   8.162   8.761 -0.7006 -1.0375 -0.1556
  139MOL0     C18279   8.644   8.310   8.728  0.2983 -0.0824 -0.0752
  139MOL0     C18280   8.621   8.426   8.699  0.1135  0.0357 -0.0469
  139MOL0     C18281   8.171   7.878   8.496 -0.2578 -0.1809 -0.5119
  139MOL0     C18282   8.036   7.851   8.519 -0.6183  0.2415  0.3738
  139MOL0     H18283   7.569   7.964   8.507  0.7113 -2.5582 -3.4284
  139MOL0     H18284   7.325   7.915   8.499  0.8273 -0.0230 -1.3668
  139MOL0     H18285   7.070   7.569   8.543 -2.0051  2.0709 -1.1467
  139MOL0     H18286   7.218   7.579   8.453  0.9607  1.7259 -1.1191
  139MOL0     H18287   7.007   7.677   8.353 -1.1271  0.6051 -0.2174
  139MOL0     H18288   7.120   7.799   8.362  1.0523 -3.2480 -2.7477
  139MOL0     H18289   7.007   7.899   8.562  0.3895 -0.1969 -0.4353
  139MOL0     H18290   6.881   7.768   8.552 -1.4316  0.4851 -0.3605
  139MOL0     H18291   6.924   7.979   8.336 -0.6657  0.7837 -1.9550
  139MOL0     H18292   6.862   7.815   8.288 -1.1480 -1.6842  1.5928
  139MOL0     H18293   6.690   7.837   8.460  0.1664 -0.6820 -1.3798
  139MOL0     H18294   6.684   7.949   8.329 -1.7935 -0.8275  1.2665
  139MOL0     H18295   6.807   8.125   8.453  2.1544 -0.2108  2.3632
  139MOL0     H18296   6.791   8.021   8.599 -1.9479 -1.4252  0.9890
  139MOL0     H18297   6.547   8.122   8.441  0.3493  1.0101  0.1839
  139MOL0     H18298   6.553   8.019   8.583  1.6246 -1.6845  0.5039
  139MOL0     H18299   6.654   8.302   8.604  1.7725 -0.0451  2.5106
  139MOL0     H18300   6.613   8.184   8.732 -2.0207 -0.8527 -0.1142
  139MOL0     H18301   6.361   8.104   8.787 -1.4129  2.0472  1.9006
  139MOL0     H18302   6.126   8.225   8.854 -1.3684 -1.1036  0.4028
  139MOL0     H18303   6.060   8.134   8.717  0.1539  0.0818 -0.0803
  139MOL0     H18304   5.973   8.333   8.606  1.3513  2.0341 -0.4216
  139MOL0     H18305   6.045   8.443   8.726 -2.8566  0.6602  2.8759
  139MOL0     H18306   5.863   8.217   8.803 -0.0949 -0.2813 -0.9255
  139MOL0     H18307   5.919   8.345   8.901  1.0893 -0.7169 -0.5679
  139MOL0     H18308   5.753   8.405   8.649  2.4900  1.3228 -0.1077
  139MOL0     H18309   5.778   8.514   8.785  3.3244  0.0511  0.8931
  139MOL0     H18310   5.576   8.577   8.708  0.2836 -0.3761  1.2702
  139MOL0     H18311   5.352   8.637   8.640 -2.4240  0.1683  1.2987
  139MOL0     H18312   4.902   8.650   8.727 -2.5068 -1.0241  4.0071
  139MOL0     H18313   4.672   8.708   8.676 -0.8509 -1.0039 -0.3170
  139MOL0     H18314   4.399   8.390   8.496  0.3092  1.9339  1.8053
  139MOL0     H18315   4.463   8.466   8.350  1.7230 -1.1717  0.8464
  139MOL0     H18316   4.295   8.624   8.335 -2.1993  0.8798  0.3254
  139MOL0     H18317   4.240   8.602   8.505 -1.5075  0.5305 -1.8398
  139MOL0     H18318   4.170   8.381   8.458 -0.2922  0.7592  1.2404
  139MOL0     H18319   4.226   8.396   8.287  1.3792 -0.6475  0.6821
  139MOL0     H18320   4.059   8.603   8.276 -3.7169 -0.2020 -1.2688
  139MOL0     H18321   3.997   8.431   8.279 -0.1922  0.4755 -0.9748
  139MOL0     H18322   3.994   8.609   8.518  0.7472  0.7085 -1.4292
  139MOL0     H18323   3.956   8.439   8.519 -2.9435  1.5296  2.0260
  139MOL0     H18324   3.776   8.482   8.345  0.2129  0.0531 -1.2725
  139MOL0     H18325   3.801   8.654   8.383 -2.8191  0.2598  1.2583
  139MOL0     H18326   3.749   8.467   8.618  1.0375 -0.5500  0.6978
  139MOL0     H18327   3.713   8.643   8.602  1.4210  0.7742 -2.7084
  139MOL0     H18328   3.514   8.517   8.586  1.4959  1.5847  0.9286
  139MOL0     H18329   3.581   8.430   8.445  0.4946  1.9777 -1.1188
  139MOL0     H18330   4.621   8.332   8.471  1.1097  0.1354 -1.2699
  139MOL0     H18331   4.853   8.261   8.530 -0.9200 -0.1582 -0.8494
  139MOL0     H18332   5.204   8.250   8.757  2.0590 -3.1473  0.2648
  139MOL0     H18333   5.435   8.195   8.843  0.5295 -0.6073  0.4399
  139MOL0     H18334   7.391   7.565   8.720 -0.1054  1.0854  0.6062
  139MOL0     H18335   7.641   7.597   8.707  1.0463  1.8473  1.6641
  139MOL0     H18336   8.050   7.785   8.848  1.1105  0.4358  0.9034
  139MOL0     H18337   8.295   7.807   8.813 -1.5598  0.3944  1.1891
  139MOL0     H18338   8.368   8.020   8.454  0.8831  3.8616  0.7661
  139MOL0     H18339   8.530   7.968   8.452 -2.1909  0.4980 -4.1207
  139MOL0     H18340   8.435   8.167   8.612 -1.0379 -0.8124 -0.9588
  139MOL0     H18341   8.439   8.037   8.731  2.4104 -1.5116  0.8430
  139MOL0     H18342   8.650   8.127   8.545  0.3224 -2.2639 -0.6967
  139MOL0     H18343   8.667   7.984   8.651  1.8480  1.3527 -0.0635
  139MOL0     H18344   8.606   8.128   8.848  1.5646  0.2616  1.9604
  139MOL0     H18345   8.767   8.135   8.778  0.4894  0.9174 -3.4353
  139MOL0     H18346   8.598   8.526   8.668  2.4534  0.3462 -1.0151
  139MOL0     H18347   8.198   7.892   8.391  0.9792  3.2741  0.1375
  139MOL0     H18348   7.973   7.849   8.431 -0.2336 -0.5564  0.1086
  140MOL0     O18349   2.027  10.009   8.548 -0.3625 -0.1922 -0.6041
  140MOL0     C18350   2.073   9.969   8.656  0.1142 -0.0277 -0.6660
  140MOL0     O18351   2.032  10.014   8.781  0.0844  0.3116 -0.5639
  140MOL0     C18352   1.919  10.092   8.788 -0.9118  0.3561  0.1367
  140MOL0     C18353   1.934  10.232   8.788 -0.1414  0.9101 -0.3112
  140MOL0     C18354   1.828  10.314   8.796  0.2301 -0.5662 -0.1855
  140MOL0     C18355   1.696  10.265   8.798  0.1157  0.4456  0.3810
  140MOL0     O18356   1.590  10.352   8.795 -1.2453 -0.2949  0.1375
  140MOL0     C18357   1.573  10.440   8.910 -0.2827 -0.4867  0.1939
  140MOL0     C18358   1.441  10.439   8.985 -0.4326 -0.5315 -1.7885
  140MOL0     C18359   1.373  10.573   8.965  0.0754  0.3964  0.2662
  140MOL0     C18360   1.243  10.578   9.048 -0.7872 -0.3298 -0.1725
  140MOL0     C18361   1.199  10.727   9.061 -0.1833  0.0220  0.6063
  140MOL0     C18362   1.081  10.730   9.160 -0.2032 -0.2605  0.5192
  140MOL0     C18363   1.058  10.871   9.192  0.6146 -0.6850 -0.4573
  140MOL0     C18364   0.988  10.958   9.079  0.2025  0.7190  0.0304
  140MOL0     N18365   0.994  11.102   9.108 -0.0318  0.0468 -0.5758
  140MOL0     C18366   1.108  11.180   9.112 -0.0794 -0.9009 -0.3787
  140MOL0     C18367   1.070  11.296   9.172 -0.3736  0.5668 -0.4243
  140MOL0     C18368   1.148  11.418   9.215 -1.4960  0.4939  0.5159
  140MOL0     C18369   1.110  11.495   9.344 -0.7023 -0.2353  0.5152
  140MOL0     C18370   1.166  11.410   9.455 -0.3038  0.7858  0.2640
  140MOL0     C18371   1.192  11.492   9.589  0.5443  0.0118 -0.0018
  140MOL0     O18372   1.317  11.567   9.584 -0.1851 -0.1870 -0.3586
  140MOL0     C18373   1.439  11.508   9.610  0.1079  0.8629  0.4505
  140MOL0     C18374   1.462  11.381   9.660  0.1505 -0.1113 -0.0537
  140MOL0     C18375   1.593  11.346   9.702 -0.5378  0.5920  0.0149
  140MOL0     C18376   1.705  11.431   9.690  0.1963 -0.4851  0.2350
  140MOL0     C18377   1.843  11.398   9.724 -0.9401 -0.5235 -0.1437
  140MOL0     O18378   1.954  11.484   9.690  0.5674  0.1315 -0.0863
  140MOL0     C18379   2.085  11.445   9.679 -0.3659  0.1722  0.7269
  140MOL0     C18380   2.122  11.312   9.642 -0.1260  0.1381 -1.0747
  140MOL0     C18381   2.253  11.287   9.609 -0.4437  0.7093  0.6652
  140MOL0     C18382   2.349  11.386   9.599  0.2598 -1.6848  0.6201
  140MOL0     O18383   2.487  11.375   9.570 -0.1825 -0.8546  0.5945
  140MOL0     C18384   2.529  11.249   9.516  0.3282 -0.1020  1.2182
  140MOL0     C18385   2.680  11.245   9.477  0.1235 -0.7799  0.3708
  140MOL0     C18386   2.718  11.117   9.412 -0.3505  0.2315  0.5084
  140MOL0     C18387   2.867  11.108   9.378  0.1465  0.0192  1.0058
  140MOL0     C18388   2.905  10.969   9.349  0.0136 -0.0881 -0.6812
  140MOL0     C18389   3.029  10.968   9.255 -1.0590  0.3504  0.2834
  140MOL0     C18390   3.142  11.066   9.286  0.6461 -0.4672 -0.2371
  140MOL0     C18391   3.264  11.064   9.196  0.0643 -0.5441  0.4262
  140MOL0    Cl18392   3.402  11.116   9.287  0.6204 -0.4326 -0.0118
  140MOL0     C18393   2.308  11.511   9.654 -1.0999  0.2514  0.6103
  140MOL0     C18394   2.177  11.548   9.684  0.3535  0.5180 -0.3842
  140MOL0     O18395   1.856  11.301   9.803  0.2690  0.3813 -0.3095
  140MOL0     C18396   1.681  11.552   9.630 -0.0053 -0.7063  0.6307
  140MOL0     C18397   1.549  11.593   9.583  0.3071  0.3391  0.4439
  140MOL0     N18398   0.935  11.283   9.205 -0.5441 -0.3030 -0.0459
  140MOL0     N18399   0.890  11.171   9.162  0.7774 -0.0571  0.4044
  140MOL0     C18400   1.682  10.121   8.795 -0.3444  0.6816  0.6423
  140MOL0     C18401   1.799  10.032   8.789  0.9705  0.2436 -0.1886
  140MOL0     C18402   2.179   9.864   8.656 -0.4291  0.3117  0.4878
  140MOL0     C18403   2.199   9.785   8.776  0.1208 -0.7517 -1.1407
  140MOL0     C18404   2.289   9.681   8.780 -0.7438  0.2623 -0.3768
  140MOL0     C18405   2.386   9.666   8.680 -0.5952 -1.0549  0.0803
  140MOL0     O18406   2.495   9.587   8.700  0.3366 -0.7693  0.3514
  140MOL0     C18407   2.608   9.666   8.729 -0.5630 -0.0550 -0.2080
  140MOL0     C18408   2.736   9.585   8.691  0.2829  0.0934  0.1123
  140MOL0     C18409   2.821   9.652   8.584 -1.4984 -0.7535  0.7100
  140MOL0     C18410   2.968   9.618   8.605  1.0342 -0.2275  0.1996
  140MOL0     C18411   3.046   9.593   8.480  0.3846 -0.8035  0.3090
  140MOL0     C18412   3.114   9.579   8.382 -0.2656  0.7858 -0.6849
  140MOL0     C18413   2.385   9.755   8.570  0.0882  0.1550  0.0286
  140MOL0     C18414   2.277   9.845   8.555 -0.6650  0.5064 -0.2164
  140MOL0     H18415   2.033  10.274   8.772  0.1208  0.3584 -0.1536
  140MOL0     H18416   1.844  10.422   8.794  0.9323 -0.5294  2.6927
  140MOL0     H18417   1.588  10.541   8.871  2.0484 -0.6316  0.5472
  140MOL0     H18418   1.652  10.434   8.985 -0.6209  2.4578  0.9267
  140MOL0     H18419   1.462  10.417   9.090  0.0943 -0.9786 -1.9826
  140MOL0     H18420   1.378  10.363   8.938 -1.2071  1.0304 -3.3625
  140MOL0     H18421   1.347  10.584   8.859 -0.3780  1.7929  0.5132
  140MOL0     H18422   1.437  10.656   8.994  0.6226  0.9606 -2.3055
  140MOL0     H18423   1.162  10.526   8.996 -1.0419 -0.1486  0.0453
  140MOL0     H18424   1.253  10.544   9.151 -0.9415  1.7288  0.5721
  140MOL0     H18425   1.169  10.753   8.959  1.6095 -2.4261 -0.6285
  140MOL0     H18426   1.279  10.794   9.093 -0.6205  2.0564 -2.1906
  140MOL0     H18427   1.105  10.677   9.253 -1.3932  0.6037  1.3565
  140MOL0     H18428   0.997  10.684   9.107 -0.2559 -2.3764  2.2927
  140MOL0     H18429   0.990  10.873   9.277 -1.1798  0.6281 -1.8599
  140MOL0     H18430   1.151  10.921   9.218  1.1237 -1.4083 -0.8241
  140MOL0     H18431   0.887  10.924   9.056 -0.2877  2.3765 -0.3923
  140MOL0     H18432   1.040  10.940   8.984  0.0210  0.7617 -0.0760
  140MOL0     H18433   1.210  11.162   9.080 -0.8719  0.4484 -4.1581
  140MOL0     H18434   1.130  11.497   9.141 -0.4900 -0.8666 -1.2748
  140MOL0     H18435   1.255  11.395   9.211 -1.0315  2.5934 -1.1780
  140MOL0     H18436   1.002  11.506   9.352 -0.5011  2.6000  0.6217
  140MOL0     H18437   1.160  11.592   9.353 -1.2791  0.0865  0.2906
  140MOL0     H18438   1.088  11.337   9.481 -0.9170  1.6282  0.8608
  140MOL0     H18439   1.261  11.363   9.430 -2.3158 -1.9389 -3.3797
  140MOL0     H18440   1.182  11.419   9.670  0.5198 -0.9953 -0.9043
  140MOL0     H18441   1.116  11.570   9.601  2.7552  2.5103 -1.1888
  140MOL0     H18442   1.378  11.312   9.659 -0.1516  0.2607 -0.7806
  140MOL0     H18443   1.611  11.252   9.752 -1.6354  0.8090  0.8628
  140MOL0     H18444   2.048  11.232   9.647  1.2357 -1.0640  1.1301
  140MOL0     H18445   2.270  11.184   9.578 -0.9781  0.7792  0.1344
  140MOL0     H18446   2.465  11.226   9.431  0.5448 -0.5725  1.1790
  140MOL0     H18447   2.516  11.180   9.599 -1.8656  0.8653  1.7400
  140MOL0     H18448   2.734  11.261   9.571  0.8395  0.4807 -0.2132
  140MOL0     H18449   2.719  11.331   9.421  0.3495 -1.4460 -0.5112
  140MOL0     H18450   2.659  11.092   9.323  0.1922 -3.3079  1.0066
  140MOL0     H18451   2.689  11.041   9.485  0.3954  1.0121  1.6557
  140MOL0     H18452   2.883  11.171   9.290  4.6167 -1.6043  0.3828
  140MOL0     H18453   2.923  11.141   9.466  0.8056  3.0045 -0.4070
  140MOL0     H18454   2.819  10.924   9.297 -1.3226 -0.4504  1.7187
  140MOL0     H18455   2.911  10.910   9.441 -3.6659  0.1332 -0.1694
  140MOL0     H18456   2.987  11.004   9.161 -0.0895 -1.2425 -0.8105
  140MOL0     H18457   3.068  10.867   9.242 -2.1943 -0.0382 -0.2882
  140MOL0     H18458   3.109  11.169   9.272 -0.3135 -0.9617 -1.9379
  140MOL0     H18459   3.176  11.055   9.390  0.5983  2.2366  0.1331
  140MOL0     H18460   3.253  11.131   9.110  0.5909  2.3090  2.4191
  140MOL0     H18461   3.278  10.962   9.161 -0.8671 -0.3405 -0.6004
  140MOL0     H18462   2.386  11.584   9.673 -0.3981 -0.9596  2.7285
  140MOL0     H18463   2.148  11.648   9.715 -0.5192 -0.2974  1.6334
  140MOL0     H18464   1.763  11.622   9.621  0.8999 -1.7700  0.3518
  140MOL0     H18465   1.533  11.691   9.540  1.5638  1.2606  1.9838
  140MOL0     H18466   1.588  10.069   8.777  0.0267 -0.1252  1.0195
  140MOL0     H18467   1.787   9.924   8.789  0.6150  0.2661  0.9174
  140MOL0     H18468   2.130   9.802   8.858 -0.7736 -0.9250 -1.8349
  140MOL0     H18469   2.314   9.615   8.862  0.2959  2.6272  1.3306
  140MOL0     H18470   2.612   9.683   8.837 -1.2901  1.5473 -0.4125
  140MOL0     H18471   2.611   9.765   8.683  1.1247  1.1155  2.1936
  140MOL0     H18472   2.798   9.576   8.781 -0.0732  2.0175  0.5822
  140MOL0     H18473   2.706   9.486   8.656  0.0410 -0.2875  1.3309
  140MOL0     H18474   2.802   9.759   8.571 -2.0733 -0.8803  0.4857
  140MOL0     H18475   2.788   9.614   8.487  1.0465 -0.0770 -0.5136
  140MOL0     H18476   3.009   9.697   8.669 -0.3183 -1.5180  2.8058
  140MOL0     H18477   2.986   9.532   8.670 -2.1072 -0.4552  0.9198
  140MOL0     H18478   3.169   9.578   8.290 -2.1441 -2.2345 -1.9516
  140MOL0     H18479   2.469   9.751   8.501  0.8413  2.5508  0.6882
  140MOL0     H18480   2.275   9.902   8.463 -2.0203  2.3968  0.9104
  141MOL0     O18481   3.450   4.534   4.108  0.3544 -0.2913  1.3630
  141MOL0     C18482   3.524   4.461   4.178  0.5043  0.4286 -0.0514
  141MOL0     O18483   3.494   4.415   4.302 -0.0893 -0.1227 -0.1067
  141MOL0     C18484   3.372   4.437   4.364 -0.3518  0.1706 -0.6819
  141MOL0     C18485   3.373   4.431   4.501 -0.3084  0.4407  0.5343
  141MOL0     C18486   3.259   4.452   4.586 -0.5672 -0.2077  0.2056
  141MOL0     C18487   3.136   4.470   4.527 -0.6258 -0.2166 -0.1755
  141MOL0     O18488   3.032   4.473   4.607  0.1229  0.5291 -0.2974
  141MOL0     C18489   2.980   4.602   4.609 -0.5163  0.9433  0.6507
  141MOL0     C18490   2.882   4.609   4.722 -0.5595  0.0332 -0.2568
  141MOL0     C18491   2.800   4.737   4.722  0.2636  0.4224 -0.7382
  141MOL0     C18492   2.706   4.738   4.598 -0.8202  1.0975 -0.0263
  141MOL0     C18493   2.622   4.851   4.588  0.4896 -0.5406  0.2363
  141MOL0     C18494   2.507   4.849   4.694  0.7482  0.1102 -0.7063
  141MOL0     C18495   2.383   4.935   4.663 -0.6238  0.4382 -0.4844
  141MOL0     C18496   2.405   5.078   4.603  0.0387 -0.2810  0.1706
  141MOL0     N18497   2.274   5.162   4.603  0.2270 -0.1972 -0.5208
  141MOL0     C18498   2.177   5.143   4.510  0.2616 -0.2712 -0.4143
  141MOL0     C18499   2.069   5.213   4.555  0.0363 -0.5287  0.3024
  141MOL0     C18500   1.937   5.213   4.489  0.0595  0.4924  0.0767
  141MOL0     C18501   1.829   5.207   4.603 -0.2871  0.1192  0.4726
  141MOL0     C18502   1.687   5.219   4.555 -0.3331  0.8550  0.7705
  141MOL0     C18503   1.574   5.196   4.657 -0.0751 -0.4682  0.0843
  141MOL0     O18504   1.594   5.263   4.787 -0.0641 -0.4561  0.3124
  141MOL0     C18505   1.497   5.240   4.885 -0.3274 -0.5819 -0.5167
  141MOL0     C18506   1.509   5.311   5.011 -0.4896 -0.7129 -0.2855
  141MOL0     C18507   1.402   5.303   5.108 -0.0515 -0.2032  0.2678
  141MOL0     C18508   1.287   5.227   5.073 -0.0107  0.7956  0.4871
  141MOL0     C18509   1.180   5.216   5.165 -0.9518  0.3721  0.4429
  141MOL0     O18510   1.200   5.249   5.296 -0.6639 -0.1955 -0.0917
  141MOL0     C18511   1.094   5.274   5.383 -0.5897  0.9013 -0.3550
  141MOL0     C18512   1.121   5.259   5.525 -0.0576 -0.1063  0.5950
  141MOL0     C18513   1.010   5.275   5.618 -0.5403 -0.0677  0.5018
  141MOL0     C18514   0.888   5.327   5.574  0.0910  0.3757 -0.0806
  141MOL0     O18515   0.777   5.354   5.657  0.2236 -0.8114 -0.1052
  141MOL0     C18516   0.757   5.293   5.780  0.0548  0.3375  0.4602
  141MOL0     C18517   0.609   5.303   5.820  0.1349 -0.6922  0.6017
  141MOL0     C18518   0.575   5.281   5.967 -0.1876  1.2087  0.1636
  141MOL0     C18519   0.424   5.295   5.986  0.1451 -0.1670 -0.1967
  141MOL0     C18520   0.346   5.165   5.948 -0.2255  0.1061  0.0528
  141MOL0     C18521   0.205   5.158   6.002 -0.2035  0.1539 -0.2034
  141MOL0     C18522   0.120   5.280   5.957 -0.3241 -0.0277 -0.2223
  141MOL0     C18523  -0.027   5.276   6.016  0.3801 -0.7514  0.4645
  141MOL0    Cl18524  -0.029   5.315   6.191  0.0335 -0.0961  0.1305
  141MOL0     C18525   0.877   5.350   5.438 -0.1274  0.2494  0.2454
  141MOL0     C18526   0.971   5.318   5.346  0.9474  0.3174  0.5178
  141MOL0     O18527   1.075   5.177   5.116  0.2515  0.1100  0.0137
  141MOL0     C18528   1.289   5.147   4.952  0.3887  0.6225 -0.9351
  141MOL0     C18529   1.389   5.154   4.862  0.1319 -1.1832  0.6165
  141MOL0     N18530   2.108   5.275   4.672  0.5066  0.1338  0.6463
  141MOL0     N18531   2.234   5.252   4.693 -0.5234  0.2822 -0.0591
  141MOL0     C18532   3.122   4.476   4.385 -0.0531 -0.6120 -0.4541
  141MOL0     C18533   3.240   4.455   4.312  0.2786 -0.3771  0.0668
  141MOL0     C18534   3.659   4.424   4.117  0.1527  0.2971 -0.0297
  141MOL0     C18535   3.694   4.457   3.985  0.0847  0.4940  1.1972
  141MOL0     C18536   3.817   4.424   3.932 -0.7360 -0.1075  0.4633
  141MOL0     C18537   3.920   4.368   4.009 -0.1729 -0.1824 -1.0879
  141MOL0     O18538   4.050   4.346   3.966  0.2266 -0.3871 -0.0244
  141MOL0     C18539   4.083   4.337   3.829 -0.1558 -0.6438  0.0672
  141MOL0     C18540   4.213   4.267   3.799 -0.4632  0.0356 -0.2370
  141MOL0     C18541   4.337   4.325   3.875 -0.6148  0.2342  0.3700
  141MOL0     C18542   4.392   4.460   3.820 -1.2908  0.4941  0.2984
  141MOL0     C18543   4.529   4.490   3.883  0.4008 -0.9235 -0.0663
  141MOL0     C18544   4.635   4.520   3.935  0.0679  1.2871 -0.0872
  141MOL0     C18545   3.888   4.348   4.142  0.1352  0.3118  0.3226
  141MOL0     C18546   3.759   4.376   4.199  0.9058 -0.7659  0.0813
  141MOL0     H18547   3.466   4.439   4.557  0.7647 -1.2801 -0.8973
  141MOL0     H18548   3.263   4.458   4.694  1.7244  1.4215  0.0951
  141MOL0     H18549   2.934   4.620   4.511 -0.9046 -2.4084  0.1126
  141MOL0     H18550   3.061   4.672   4.632 -1.6744  1.1411  5.0761
  141MOL0     H18551   2.936   4.605   4.817  2.3384 -0.9116 -1.8340
  141MOL0     H18552   2.824   4.516   4.714  2.1919 -1.6850 -1.9346
  141MOL0     H18553   2.852   4.831   4.741 -0.5286  0.3723  2.1760
  141MOL0     H18554   2.728   4.737   4.804  0.5930 -1.6928 -0.3892
  141MOL0     H18555   2.771   4.738   4.510  0.2894 -0.9054  0.7310
  141MOL0     H18556   2.644   4.649   4.590 -1.2738  0.9028  3.7064
  141MOL0     H18557   2.587   4.868   4.485  1.7227 -3.2950 -0.7151
  141MOL0     H18558   2.678   4.943   4.610 -2.4852  0.8014  2.9729
  141MOL0     H18559   2.546   4.887   4.789 -2.1040  1.7027 -0.0471
  141MOL0     H18560   2.466   4.748   4.707 -4.9047  1.9542 -1.4924
  141MOL0     H18561   2.325   4.888   4.582  0.8733  2.0883 -2.6172
  141MOL0     H18562   2.328   4.945   4.757 -0.8010 -0.5296 -0.4704
  141MOL0     H18563   2.458   5.074   4.507  0.4901  0.6994  0.3600
  141MOL0     H18564   2.474   5.133   4.667 -0.0852 -0.1446  0.1876
  141MOL0     H18565   2.186   5.083   4.420  1.4545 -1.1388  0.2508
  141MOL0     H18566   1.927   5.125   4.425 -1.8621  1.9322 -1.7467
  141MOL0     H18567   1.906   5.302   4.434 -1.8057 -0.5240 -0.6215
  141MOL0     H18568   1.834   5.304   4.652 -0.7794 -0.2808  1.3485
  141MOL0     H18569   1.848   5.136   4.684 -3.0585 -1.5616 -0.2240
  141MOL0     H18570   1.672   5.309   4.495  2.2215 -0.2368 -1.7293
  141MOL0     H18571   1.667   5.142   4.479  1.5538  1.4850 -0.4433
  141MOL0     H18572   1.563   5.087   4.664 -2.7845 -0.4079 -1.8658
  141MOL0     H18573   1.486   5.246   4.616  0.7100  0.9456  0.0617
  141MOL0     H18574   1.599   5.366   5.033  0.0184 -2.1008  1.3275
  141MOL0     H18575   1.403   5.359   5.202 -3.6726  3.9843 -1.8285
  141MOL0     H18576   1.216   5.212   5.551 -0.4193 -0.5245  1.1967
  141MOL0     H18577   1.029   5.250   5.722 -0.7611  0.4590  0.6735
  141MOL0     H18578   0.818   5.332   5.862  0.7077  0.9287 -0.2838
  141MOL0     H18579   0.785   5.187   5.768  0.0508  0.5219 -1.5738
  141MOL0     H18580   0.545   5.236   5.763 -1.7304  3.7852 -3.3178
  141MOL0     H18581   0.579   5.402   5.783 -2.1552 -2.1419 -1.6867
  141MOL0     H18582   0.622   5.358   6.029  0.5613  2.8602 -2.3336
  141MOL0     H18583   0.602   5.179   5.997  2.7192  2.5151  2.5574
  141MOL0     H18584   0.407   5.303   6.094 -1.2338 -0.3196 -0.3791
  141MOL0     H18585   0.389   5.390   5.946  0.3719  0.5179  1.1535
  141MOL0     H18586   0.400   5.076   5.981 -0.2614  0.8317  2.1933
  141MOL0     H18587   0.337   5.160   5.839  1.0920  0.8923 -0.0972
  141MOL0     H18588   0.204   5.168   6.111 -0.2087 -1.4716 -0.0389
  141MOL0     H18589   0.156   5.066   5.970  0.8503  0.0450 -1.5739
  141MOL0     H18590   0.161   5.380   5.972 -0.2265 -0.0296 -0.4664
  141MOL0     H18591   0.123   5.265   5.848 -1.0468 -0.2253 -0.2259
  141MOL0     H18592  -0.073   5.177   6.002 -0.8886  0.0700 -1.6826
  141MOL0     H18593  -0.084   5.351   5.961  0.5569 -1.4637 -0.7370
  141MOL0     H18594   0.778   5.383   5.406 -0.5525 -0.9641  0.2704
  141MOL0     H18595   0.952   5.336   5.241  2.3092 -0.1804  0.1596
  141MOL0     H18596   1.204   5.081   4.933 -0.5678  0.4246  2.9772
  141MOL0     H18597   1.361   5.100   4.771  0.3701 -0.7609  0.2920
  141MOL0     H18598   3.029   4.480   4.330 -0.2763 -3.0902 -0.3743
  141MOL0     H18599   3.232   4.455   4.203  0.0354 -0.5056  0.0846
  141MOL0     H18600   3.623   4.504   3.918  0.2646  1.0349  1.3799
  141MOL0     H18601   3.839   4.455   3.831  1.1482 -1.3907  0.4404
  141MOL0     H18602   4.081   4.438   3.786 -1.3678 -1.2614 -1.4599
  141MOL0     H18603   4.000   4.285   3.780 -0.7421 -0.4172  0.8052
  141MOL0     H18604   4.215   4.162   3.829 -0.0825  1.2270  4.8067
  141MOL0     H18605   4.228   4.280   3.692  1.8222 -0.2012  0.0108
  141MOL0     H18606   4.417   4.252   3.862 -0.8649 -0.0036  0.1548
  141MOL0     H18607   4.318   4.321   3.983 -1.9157 -0.6727  0.1305
  141MOL0     H18608   4.405   4.452   3.711 -0.4217 -2.8757  0.5234
  141MOL0     H18609   4.325   4.542   3.847 -1.5223 -0.2025  1.9558
  141MOL0     H18610   4.732   4.541   3.976  0.5899 -2.6915  1.2087
  141MOL0     H18611   3.964   4.299   4.202 -0.4446  0.1526  0.9450
  141MOL0     H18612   3.749   4.352   4.304  4.4450 -1.1543  0.4760
  142MOL0     O18613   8.254   2.695   4.811  0.0734 -0.2857 -0.5309
  142MOL0     C18614   8.268   2.767   4.910 -0.0967 -0.2797 -0.5725
  142MOL0     O18615   8.173   2.842   4.970 -0.2566  0.2285 -0.2869
  142MOL0     C18616   8.052   2.857   4.905  0.2382  0.3137 -0.3269
  142MOL0     C18617   8.021   2.986   4.867  0.5440 -0.3423 -0.0536
  142MOL0     C18618   7.904   3.005   4.791  0.0581  0.1972  0.0529
  142MOL0     C18619   7.809   2.897   4.761 -0.2655  0.3105 -0.7940
  142MOL0     O18620   7.699   2.909   4.674 -0.1825  0.0806 -0.2184
  142MOL0     C18621   7.651   3.038   4.640 -0.2105  0.0283  0.7649
  142MOL0     C18622   7.503   3.019   4.600  0.0254 -0.1171  0.0679
  142MOL0     C18623   7.461   2.967   4.462 -0.4456  0.0247  0.2866
  142MOL0     C18624   7.542   3.033   4.353 -0.6890 -0.2153 -0.8335
  142MOL0     C18625   7.494   3.005   4.206  0.7968 -0.4701 -0.4425
  142MOL0     C18626   7.467   2.852   4.174 -0.1430  0.2284 -0.6524
  142MOL0     C18627   7.596   2.760   4.171 -0.1830  0.8258 -0.9407
  142MOL0     C18628   7.543   2.615   4.155  0.0199  0.9225 -0.1969
  142MOL0     N18629   7.465   2.604   4.026  0.0419 -0.1980 -0.0756
  142MOL0     C18630   7.509   2.659   3.907 -0.3868 -0.9849 -0.5596
  142MOL0     C18631   7.421   2.607   3.816 -0.7387 -0.1223  0.1105
  142MOL0     C18632   7.433   2.627   3.663  0.6966 -0.0110 -0.0283
  142MOL0     C18633   7.310   2.697   3.612  0.8107 -1.3044  0.1801
  142MOL0     C18634   7.311   2.851   3.654 -0.2455  0.1319  1.1264
  142MOL0     C18635   7.228   2.870   3.782 -0.6956 -0.4903 -0.7096
  142MOL0     O18636   7.173   3.003   3.792 -0.0779 -0.2637  0.0055
  142MOL0     C18637   7.249   3.099   3.854  0.2825  1.2249  0.3192
  142MOL0     C18638   7.378   3.097   3.894  0.6317  0.5780 -0.0925
  142MOL0     C18639   7.434   3.205   3.965  1.1412 -0.3026 -0.1690
  142MOL0     C18640   7.360   3.325   3.992 -0.6004 -0.2328  0.2156
  142MOL0     C18641   7.421   3.433   4.074 -0.2849  0.5662 -0.0736
  142MOL0     O18642   7.554   3.444   4.064  0.2531 -0.1874 -0.3968
  142MOL0     C18643   7.620   3.513   4.162  1.1162  0.6479  1.2786
  142MOL0     C18644   7.610   3.500   4.301  0.5229  0.0043  0.4884
  142MOL0     C18645   7.712   3.550   4.383  0.6218 -0.1850 -0.1470
  142MOL0     C18646   7.813   3.624   4.328  0.0093  0.1017 -0.0961
  142MOL0     O18647   7.899   3.679   4.430 -0.5030  0.1049  0.6388
  142MOL0     C18648   8.038   3.703   4.389  0.3119  0.6527 -0.4618
  142MOL0     C18649   8.124   3.729   4.517 -0.8295  0.4495 -0.0107
  142MOL0     C18650   8.243   3.823   4.508 -0.0630 -0.3013 -0.0320
  142MOL0     C18651   8.298   3.829   4.653 -0.4958  0.0026 -0.7656
  142MOL0     C18652   8.413   3.933   4.671 -1.7601  0.9106  0.7447
  142MOL0     C18653   8.544   3.874   4.606 -0.4367 -0.6328  0.2793
  142MOL0     C18654   8.669   3.959   4.640  0.6800  0.5299 -0.3109
  142MOL0     C18655   8.792   3.871   4.646 -0.4390 -0.3968 -0.0940
  142MOL0    Cl18656   8.947   3.963   4.681  0.1101 -0.3009  0.2186
  142MOL0     C18657   7.821   3.647   4.190  0.3131 -0.6253  0.2136
  142MOL0     C18658   7.721   3.593   4.106  0.0957 -0.1684 -0.0658
  142MOL0     O18659   7.346   3.503   4.134  0.2981  0.2665  0.5291
  142MOL0     C18660   7.230   3.325   3.948 -0.3394  0.1911  0.3702
  142MOL0     C18661   7.178   3.217   3.868 -0.6737  0.4497 -0.7675
  142MOL0     N18662   7.330   2.523   3.873  0.2776 -0.6098 -0.7006
  142MOL0     N18663   7.360   2.525   4.007 -0.3431  0.6778  0.1497
  142MOL0     C18664   7.843   2.771   4.826  0.3588  0.6340  0.1059
  142MOL0     C18665   7.966   2.746   4.885  0.2121  0.6964  0.4681
  142MOL0     C18666   8.409   2.781   4.960  0.5473  0.3625  0.8663
  142MOL0     C18667   8.516   2.712   4.901  0.6853  0.0700 -0.4139
  142MOL0     C18668   8.640   2.720   4.951 -0.4815 -0.6940 -0.4288
  142MOL0     C18669   8.672   2.806   5.058  1.1204  0.9144  0.7015
  142MOL0     O18670   8.791   2.813   5.116  0.3310  0.2383 -0.6457
  142MOL0     C18671   8.848   2.691   5.168 -0.5673 -0.3507  0.3991
  142MOL0     C18672   8.960   2.732   5.262  0.0945  0.0802  0.0011
  142MOL0     C18673   9.019   2.604   5.322  0.7290 -0.8502  0.3638
  142MOL0     C18674   9.173   2.605   5.336  0.6189  0.2503 -0.0072
  142MOL0     C18675   9.230   2.693   5.442  0.3746 -0.3448 -0.9159
  142MOL0     C18676   9.273   2.759   5.537 -0.0854  0.0733 -0.1638
  142MOL0     C18677   8.567   2.877   5.119 -0.1109  0.2791 -0.4949
  142MOL0     C18678   8.435   2.872   5.061 -0.6475 -0.2217 -0.0900
  142MOL0     H18679   8.091   3.068   4.883 -0.7188  0.6378  0.7237
  142MOL0     H18680   7.882   3.103   4.751 -0.7627 -0.0300 -0.0512
  142MOL0     H18681   7.713   3.092   4.568 -1.5123  1.7219  0.8497
  142MOL0     H18682   7.662   3.096   4.733  1.2416  1.2252 -0.1058
  142MOL0     H18683   7.467   3.122   4.597  2.6206  0.9718  2.0945
  142MOL0     H18684   7.452   2.950   4.669  0.5720 -1.3012 -0.6736
  142MOL0     H18685   7.355   2.992   4.453 -0.9684 -1.4779  1.8171
  142MOL0     H18686   7.479   2.859   4.459  0.4265  0.1756 -1.1419
  142MOL0     H18687   7.542   3.140   4.378 -0.1623 -0.4877  0.4432
  142MOL0     H18688   7.646   2.998   4.354  0.2297  2.2333  0.9776
  142MOL0     H18689   7.568   3.050   4.140  1.3324 -0.6591  0.0277
  142MOL0     H18690   7.405   3.065   4.186 -0.4128 -2.2243 -0.5959
  142MOL0     H18691   7.431   2.853   4.071 -3.5675  0.8795  0.4110
  142MOL0     H18692   7.396   2.803   4.242 -1.0084  1.1990 -0.8310
  142MOL0     H18693   7.672   2.788   4.097  0.2633  0.9289 -0.4546
  142MOL0     H18694   7.649   2.772   4.266 -2.3502  2.9964  0.0995
  142MOL0     H18695   7.475   2.583   4.235  2.3666 -0.5637  1.3436
  142MOL0     H18696   7.628   2.547   4.161  1.3861  2.6770  1.8101
  142MOL0     H18697   7.599   2.719   3.901 -1.6344  1.0243 -0.1155
  142MOL0     H18698   7.432   2.531   3.611 -0.5275 -0.5934  1.0324
  142MOL0     H18699   7.526   2.685   3.651  1.3646 -0.6963  1.6126
  142MOL0     H18700   7.216   2.651   3.642  0.4374 -1.3586 -1.0483
  142MOL0     H18701   7.309   2.691   3.503  0.2959 -0.8729  0.1579
  142MOL0     H18702   7.410   2.898   3.661 -0.9662  2.3234 -1.6349
  142MOL0     H18703   7.263   2.904   3.572  1.8045 -0.0263 -0.2395
  142MOL0     H18704   7.292   2.846   3.867  1.3283 -0.2973 -2.0984
  142MOL0     H18705   7.140   2.805   3.789 -0.3547 -0.7619  3.0599
  142MOL0     H18706   7.460   3.030   3.871 -1.2371 -1.9233 -0.0073
  142MOL0     H18707   7.539   3.209   3.992  0.5644  0.7945  2.2061
  142MOL0     H18708   7.545   3.433   4.356  0.4230 -1.9171 -1.7952
  142MOL0     H18709   7.701   3.536   4.490  1.0453  3.3730  0.4828
  142MOL0     H18710   8.047   3.792   4.327  0.3311  1.3054  0.4620
  142MOL0     H18711   8.079   3.619   4.331 -1.1369 -0.2092 -0.2886
  142MOL0     H18712   8.158   3.632   4.552 -0.5508  1.3546  2.4411
  142MOL0     H18713   8.063   3.772   4.598 -2.4220 -0.6730 -0.5682
  142MOL0     H18714   8.213   3.926   4.482 -0.8314 -0.4617  0.1670
  142MOL0     H18715   8.316   3.785   4.437 -1.0561 -0.9366 -0.7328
  142MOL0     H18716   8.214   3.867   4.712 -1.3421 -1.5471 -0.9091
  142MOL0     H18717   8.324   3.731   4.694 -1.0990  0.3426  0.4634
  142MOL0     H18718   8.418   3.954   4.778 -5.8094 -2.1652  1.7833
  142MOL0     H18719   8.392   4.028   4.621 -0.3471  0.8130 -0.0877
  142MOL0     H18720   8.523   3.867   4.499 -0.1357  0.8876  0.0967
  142MOL0     H18721   8.569   3.774   4.643  0.3019  0.1616  2.0921
  142MOL0     H18722   8.686   4.033   4.562 -2.4571  0.0478 -1.5946
  142MOL0     H18723   8.667   4.012   4.735  2.5551  0.0736  0.0328
  142MOL0     H18724   8.799   3.801   4.563  0.7886  0.5083 -0.7779
  142MOL0     H18725   8.777   3.814   4.738  3.1556 -1.6112 -0.0973
  142MOL0     H18726   7.906   3.700   4.149 -0.8420  1.0312 -0.1039
  142MOL0     H18727   7.716   3.608   3.999  2.1550 -0.2207 -0.2094
  142MOL0     H18728   7.162   3.406   3.971 -1.5767 -1.6561  3.8944
  142MOL0     H18729   7.076   3.223   3.832 -0.8414  1.3229 -0.1797
  142MOL0     H18730   7.771   2.690   4.821 -1.9567  2.5745  0.0699
  142MOL0     H18731   8.001   2.656   4.935 -0.8930  0.2643  0.5046
  142MOL0     H18732   8.497   2.649   4.815  2.9471 -0.7519 -0.3776
  142MOL0     H18733   8.708   2.643   4.916 -1.8920 -3.8526  3.0986
  142MOL0     H18734   8.886   2.635   5.082 -4.4762  1.2440 -2.7465
  142MOL0     H18735   8.777   2.627   5.222  1.6319 -0.7383  2.9967
  142MOL0     H18736   9.026   2.800   5.207 -1.0469  2.1612  1.1257
  142MOL0     H18737   8.918   2.797   5.339  0.0552  2.0046 -1.5790
  142MOL0     H18738   8.989   2.523   5.255  0.0131 -0.3403  0.0614
  142MOL0     H18739   8.973   2.588   5.420 -1.8366 -0.5651 -0.7182
  142MOL0     H18740   9.208   2.505   5.364 -0.4147 -0.2847 -0.5849
  142MOL0     H18741   9.214   2.628   5.237 -1.8666  1.9913 -0.7137
  142MOL0     H18742   9.323   2.814   5.615 -0.0851 -1.1545  0.7299
  142MOL0     H18743   8.593   2.949   5.196 -0.1851 -1.4339  1.2046
  142MOL0     H18744   8.352   2.927   5.105 -3.1553 -2.3517 -1.8041
  143MOL0     O18745   3.846   4.799   8.672  0.6050  0.3197 -0.2134
  143MOL0     C18746   3.873   4.735   8.564 -0.1583  0.1838  0.2799
  143MOL0     O18747   3.789   4.654   8.493  0.2152 -0.9539 -0.1818
  143MOL0     C18748   3.658   4.643   8.510  0.6645  0.6989 -0.4808
  143MOL0     C18749   3.598   4.521   8.480  0.2743  0.2195  0.7147
  143MOL0     C18750   3.457   4.506   8.485  0.3858  0.1725 -0.0985
  143MOL0     C18751   3.376   4.618   8.520  0.2666  0.5247  0.8586
  143MOL0     O18752   3.242   4.589   8.524  0.6413  0.3059 -0.6168
  143MOL0     C18753   3.152   4.665   8.613 -0.3459 -0.1440 -0.1171
  143MOL0     C18754   3.038   4.574   8.646 -0.0944 -0.3877  0.0578
  143MOL0     C18755   2.925   4.649   8.727 -0.2558  0.7751 -0.1937
  143MOL0     C18756   2.814   4.538   8.768 -0.1963  0.0867  0.4629
  143MOL0     C18757   2.702   4.605   8.854  0.6751 -0.2668 -0.0536
  143MOL0     C18758   2.604   4.680   8.771  0.1734 -0.6656 -0.7895
  143MOL0     C18759   2.503   4.763   8.855  1.0371 -0.2426  0.4133
  143MOL0     C18760   2.416   4.673   8.942 -0.4135  0.7221 -0.4928
  143MOL0     N18761   2.337   4.570   8.868 -0.5024  0.1659  0.2311
  143MOL0     C18762   2.207   4.576   8.827 -0.4481 -0.5369  0.6972
  143MOL0     C18763   2.175   4.448   8.786 -0.0676  0.3107  0.0075
  143MOL0     C18764   2.047   4.400   8.722  0.5468  0.4410  0.6517
  143MOL0     C18765   1.970   4.312   8.821 -0.0893  0.0603  0.1206
  143MOL0     C18766   1.886   4.392   8.920 -0.0318 -1.1667  0.1016
  143MOL0     C18767   1.752   4.440   8.871 -0.6449  0.3947  0.5649
  143MOL0     O18768   1.667   4.327   8.870  0.1372 -0.1006  0.2445
  143MOL0     C18769   1.529   4.347   8.847  0.4655  0.8736 -0.7941
  143MOL0     C18770   1.439   4.233   8.869 -0.2425  0.6054  0.4546
  143MOL0     C18771   1.304   4.233   8.849  0.5118 -0.3340  0.2415
  143MOL0     C18772   1.249   4.362   8.824  0.7382 -0.6574  0.3856
  143MOL0     C18773   1.098   4.380   8.826 -0.4192 -0.2336  0.8014
  143MOL0     O18774   1.026   4.280   8.880 -0.3573 -0.3464 -0.7819
  143MOL0     C18775   0.894   4.269   8.855 -0.3960 -0.8678 -0.3552
  143MOL0     C18776   0.815   4.306   8.960  0.0508 -0.0413  0.5592
  143MOL0     C18777   0.680   4.306   8.939  0.2835  0.2253 -0.4884
  143MOL0     C18778   0.620   4.247   8.824 -0.6914  0.5178 -0.0215
  143MOL0     O18779   0.487   4.228   8.797  0.5975  0.9759  0.0026
  143MOL0     C18780   0.400   4.317   8.862 -0.7971  0.0722 -0.1994
  143MOL0     C18781   0.252   4.284   8.848 -0.1856  0.3548 -0.8023
  143MOL0     C18782   0.196   4.312   8.713 -0.8466  0.2836  0.6449
  143MOL0     C18783   0.050   4.260   8.687  0.2471 -0.6272  0.3501
  143MOL0     C18784  -0.041   4.340   8.774  1.3624 -0.9600  0.6030
  143MOL0     C18785  -0.160   4.258   8.818 -0.4874 -0.1078 -0.3328
  143MOL0     C18786  -0.246   4.176   8.718 -0.6590  0.0624  0.5758
  143MOL0     C18787  -0.371   4.118   8.787 -0.3785  0.4117  0.6568
  143MOL0    Cl18788  -0.496   4.237   8.808 -0.1270  0.1434  0.3696
  143MOL0     C18789   0.704   4.195   8.731 -1.2505 -0.1719  0.1852
  143MOL0     C18790   0.843   4.202   8.746  0.5458  0.3649 -0.4639
  143MOL0     O18791   1.057   4.479   8.767 -0.1877  1.1622 -0.6513
  143MOL0     C18792   1.328   4.475   8.793 -0.2280 -0.1017  0.7403
  143MOL0     C18793   1.467   4.464   8.804 -0.1526  0.3878 -0.6617
  143MOL0     N18794   2.285   4.367   8.827  0.8907 -0.0910 -0.5971
  143MOL0     N18795   2.374   4.440   8.881 -0.0933 -0.8545  0.2567
  143MOL0     C18796   3.432   4.743   8.552  0.1598 -0.4470  0.1935
  143MOL0     C18797   3.575   4.749   8.547 -0.3170 -0.2027  0.5460
  143MOL0     C18798   4.010   4.746   8.509  0.0158 -0.0290  0.4622
  143MOL0     C18799   4.062   4.655   8.419  0.4047 -0.1700  0.0829
  143MOL0     C18800   4.184   4.672   8.367  0.4222 -0.4694 -0.2902
  143MOL0     C18801   4.272   4.780   8.400 -0.8465  0.3268 -0.1855
  143MOL0     O18802   4.395   4.797   8.343  0.0191  0.3458 -0.2577
  143MOL0     C18803   4.423   4.746   8.211  0.2025  1.4161 -0.5063
  143MOL0     C18804   4.574   4.770   8.190 -0.3774 -0.3168 -0.2022
  143MOL0     C18805   4.662   4.695   8.298 -0.6570  0.6876 -0.8546
  143MOL0     C18806   4.810   4.671   8.243  0.0175  0.4488 -0.6061
  143MOL0     C18807   4.894   4.570   8.322 -0.0202  0.7024 -0.1001
  143MOL0     C18808   4.946   4.483   8.394 -0.2052 -0.2925 -1.0846
  143MOL0     C18809   4.223   4.874   8.493  0.6317  0.1410  0.4189
  143MOL0     C18810   4.094   4.859   8.547 -0.4522  1.0055 -0.1127
  143MOL0     H18811   3.650   4.428   8.460  0.6904  0.8839 -1.5875
  143MOL0     H18812   3.424   4.408   8.454 -0.7672 -0.1274  1.9116
  143MOL0     H18813   3.128   4.760   8.564 -0.0669 -0.6697 -1.3034
  143MOL0     H18814   3.196   4.686   8.711  0.5916 -0.1932 -0.5189
  143MOL0     H18815   3.064   4.496   8.718 -0.7411  0.6610  1.4789
  143MOL0     H18816   3.010   4.523   8.553 -2.9320  0.1033  0.5701
  143MOL0     H18817   2.877   4.731   8.674  2.0769  0.9198 -2.2945
  143MOL0     H18818   2.968   4.689   8.819 -0.0156 -2.2186  1.1389
  143MOL0     H18819   2.786   4.483   8.678 -0.0638  0.9461 -0.1159
  143MOL0     H18820   2.857   4.466   8.838  0.6701  0.1293 -0.0193
  143MOL0     H18821   2.744   4.679   8.923 -2.6920 -1.2187  3.3618
  143MOL0     H18822   2.648   4.538   8.922 -1.0404  2.9309  1.9728
  143MOL0     H18823   2.563   4.613   8.696 -0.7460 -0.7989 -0.1898
  143MOL0     H18824   2.664   4.751   8.713 -0.2706 -1.6405 -2.5123
  143MOL0     H18825   2.553   4.843   8.911 -3.0423  1.3972  2.1269
  143MOL0     H18826   2.434   4.820   8.791 -1.5320 -0.6788  2.6087
  143MOL0     H18827   2.343   4.735   8.995 -0.5832 -1.1449  1.5885
  143MOL0     H18828   2.476   4.630   9.023 -3.1940 -1.3084  0.6691
  143MOL0     H18829   2.144   4.663   8.809  1.1710  0.2706 -1.4482
  143MOL0     H18830   2.078   4.347   8.632 -0.9768  0.5758  0.0060
  143MOL0     H18831   1.982   4.482   8.689  0.0512 -0.5201 -0.8512
  143MOL0     H18832   2.041   4.250   8.877  0.6579  3.6048  3.5950
  143MOL0     H18833   1.906   4.243   8.765 -1.6179  1.6279 -0.1498
  143MOL0     H18834   1.865   4.336   9.012 -0.8425 -1.3486 -0.1846
  143MOL0     H18835   1.944   4.478   8.953 -1.1926  0.0296 -0.9042
  143MOL0     H18836   1.779   4.471   8.770 -1.5854 -0.5728 -0.0118
  143MOL0     H18837   1.711   4.528   8.921 -0.3983  0.7023  0.2229
  143MOL0     H18838   1.477   4.135   8.894 -3.4223 -1.2106 -1.1494
  143MOL0     H18839   1.242   4.145   8.861 -0.0635  0.2338  1.5547
  143MOL0     H18840   0.855   4.350   9.051 -0.9915  0.8955  0.5890
  143MOL0     H18841   0.622   4.341   9.024  0.0161  1.7169 -1.2349
  143MOL0     H18842   0.425   4.416   8.822  1.2528  0.2329  1.3089
  143MOL0     H18843   0.419   4.312   8.969 -0.0335  0.0610 -0.3297
  143MOL0     H18844   0.195   4.342   8.921 -0.7847  0.6254 -1.4727
  143MOL0     H18845   0.243   4.180   8.880  4.0009 -0.6168 -2.1300
  143MOL0     H18846   0.260   4.265   8.638 -0.0556  0.7029  1.0433
  143MOL0     H18847   0.209   4.419   8.695  1.1448 -0.0477 -0.1103
  143MOL0     H18848   0.024   4.284   8.583  0.5530 -1.3914  0.0887
  143MOL0     H18849   0.038   4.153   8.705 -1.1976 -0.4421  0.5746
  143MOL0     H18850  -0.081   4.420   8.711 -2.4467 -4.2397 -1.6468
  143MOL0     H18851   0.008   4.377   8.865 -3.8543 -1.3231  3.9645
  143MOL0     H18852  -0.223   4.318   8.885 -1.2365  0.7094 -1.7360
  143MOL0     H18853  -0.114   4.191   8.892  1.5579  2.8096  1.2581
  143MOL0     H18854  -0.274   4.240   8.635 -1.8968 -0.8945  0.2316
  143MOL0     H18855  -0.192   4.093   8.672 -0.9469  0.5957 -0.7569
  143MOL0     H18856  -0.357   4.064   8.881  0.6862  0.8593  0.7647
  143MOL0     H18857  -0.422   4.051   8.717 -1.5898 -0.0772  1.9511
  143MOL0     H18858   0.669   4.156   8.636 -0.8676 -0.2241  0.0620
  143MOL0     H18859   0.916   4.146   8.689  1.4698 -0.7642  1.6895
  143MOL0     H18860   1.290   4.569   8.754 -0.6725 -1.8996 -3.7080
  143MOL0     H18861   1.528   4.551   8.782 -0.4659  0.9184  0.5064
  143MOL0     H18862   3.366   4.825   8.575 -1.0314 -2.2340  4.0500
  143MOL0     H18863   3.620   4.848   8.558  0.6922 -0.7762  1.8471
  143MOL0     H18864   3.991   4.580   8.386 -3.0276  1.7038  2.5391
  143MOL0     H18865   4.201   4.604   8.284  0.3960  1.9972 -2.4636
  143MOL0     H18866   4.360   4.802   8.141 -0.6403  2.5060  1.0468
  143MOL0     H18867   4.404   4.639   8.215 -2.3047  1.8041 -0.5442
  143MOL0     H18868   4.590   4.731   8.089  1.8207  0.6409 -0.2831
  143MOL0     H18869   4.594   4.877   8.202 -0.2909 -0.1750 -1.4818
  143MOL0     H18870   4.612   4.598   8.301 -2.2350  1.4145 -2.0594
  143MOL0     H18871   4.662   4.742   8.396 -2.0668 -1.4035  0.2178
  143MOL0     H18872   4.813   4.631   8.141  1.8705  1.5864 -1.0563
  143MOL0     H18873   4.870   4.760   8.220 -3.1165  2.6403 -0.8640
  143MOL0     H18874   4.983   4.416   8.469 -1.9685 -0.2114 -0.0927
  143MOL0     H18875   4.292   4.953   8.522  3.4749 -1.9098 -0.2688
  143MOL0     H18876   4.051   4.935   8.611 -0.3971  2.9436 -2.2273
  144MOL0     O18877  10.426  10.585  10.016 -0.2826  0.2349 -0.2659
  144MOL0     C18878  10.406  10.703  10.044 -0.5080  0.1531  0.0182
  144MOL0     O18879  10.293  10.758  10.094  0.2946 -0.5789  0.0369
  144MOL0     C18880  10.168  10.695  10.110  1.1857  0.1413  0.3443
  144MOL0     C18881  10.136  10.554  10.090  0.3044  1.1598 -0.6514
  144MOL0     C18882  10.004  10.498  10.101  0.4578  0.4276  0.4352
  144MOL0     C18883   9.902  10.582  10.144 -0.0188 -0.1096  0.1086
  144MOL0     O18884   9.773  10.536  10.139 -1.1036  0.0514  0.4159
  144MOL0     C18885   9.671  10.625  10.191  0.5621 -0.1139 -0.9170
  144MOL0     C18886   9.544  10.542  10.223 -0.0101  0.1886 -0.2510
  144MOL0     C18887   9.432  10.619  10.297 -0.0484 -0.5289  0.2157
  144MOL0     C18888   9.343  10.516  10.371  0.0108 -0.5898  0.3909
  144MOL0     C18889   9.215  10.574  10.433  0.4637  0.8155 -0.8722
  144MOL0     C18890   9.129  10.468  10.493  0.1619  0.0519  0.2514
  144MOL0     C18891   8.995  10.506  10.550  1.3547 -0.1355  0.4952
  144MOL0     C18892   8.895  10.568  10.442 -0.0058  0.5098  0.4319
  144MOL0     N18893   8.790  10.641  10.506  0.6382  0.7560 -0.3525
  144MOL0     C18894   8.752  10.770  10.481 -1.0168  0.2338 -0.6641
  144MOL0     C18895   8.687  10.814  10.593 -0.4157 -0.1766  1.0266
  144MOL0     C18896   8.660  10.961  10.612 -0.4206 -0.5192  0.0521
  144MOL0     C18897   8.510  10.982  10.572  0.7646  0.2709 -0.4000
  144MOL0     C18898   8.419  10.911  10.677 -0.9244 -0.2476  0.2841
  144MOL0     C18899   8.283  10.958  10.689  0.2874 -0.2381  0.5621
  144MOL0     O18900   8.209  10.920  10.566 -0.2382 -0.1644 -0.1601
  144MOL0     C18901   8.078  10.950  10.550 -0.2803 -0.3948 -0.0975
  144MOL0     C18902   8.005  11.033  10.630 -0.0637  0.4042 -1.0516
  144MOL0     C18903   7.863  11.047  10.618 -0.6776 -0.5238 -0.6491
  144MOL0     C18904   7.795  10.986  10.515 -0.2141 -0.0342 -0.3199
  144MOL0     C18905   7.648  11.004  10.515  0.1431 -0.1498 -0.4392
  144MOL0     O18906   7.584  10.908  10.454  0.4680  0.3818  1.2732
  144MOL0     C18907   7.448  10.929  10.444  0.0129  0.7715  0.2050
  144MOL0     C18908   7.351  10.866  10.523  0.3786  0.3643  0.1739
  144MOL0     C18909   7.213  10.908  10.518  0.7945  0.6402 -0.2651
  144MOL0     C18910   7.169  10.997  10.422 -0.2221 -0.1812 -1.1611
  144MOL0     O18911   7.036  11.033  10.419 -0.2943 -0.5196 -0.3448
  144MOL0     C18912   6.951  10.958  10.333  0.8106 -0.0604 -0.8058
  144MOL0     C18913   6.809  11.000  10.364 -0.2229 -0.0561  0.5494
  144MOL0     C18914   6.722  10.924  10.268  0.0907 -0.3245  0.4534
  144MOL0     C18915   6.579  10.975  10.306  0.1220 -0.0664  0.2685
  144MOL0     C18916   6.475  10.927  10.206  0.3234 -0.1994 -0.1966
  144MOL0     C18917   6.337  10.937  10.257 -0.5551 -0.7201 -0.6641
  144MOL0     C18918   6.221  10.918  10.149 -0.3089  0.1181 -0.2997
  144MOL0     C18919   6.086  10.987  10.192  0.3794  0.7558 -0.0450
  144MOL0    Cl18920   5.963  10.955  10.073  0.5789  0.1305 -0.4965
  144MOL0     C18921   7.270  11.061  10.345 -0.3749  0.4648 -0.2126
  144MOL0     C18922   7.403  11.025  10.347  0.2203  0.6241  0.0543
  144MOL0     O18923   7.599  11.090  10.586 -0.6285 -0.0429 -0.7251
  144MOL0     C18924   7.866  10.908  10.428  0.7395  0.2277 -0.2057
  144MOL0     C18925   8.006  10.894  10.441 -0.6990  0.6205  0.9677
  144MOL0     N18926   8.677  10.708  10.684 -0.2950  0.4705 -0.5753
  144MOL0     N18927   8.739  10.607  10.631 -0.2915 -0.4228 -0.3692
  144MOL0     C18928   9.925  10.724  10.169 -0.0083 -0.9476  0.6049
  144MOL0     C18929  10.061  10.776  10.147  0.1710  0.2774  0.0519
  144MOL0     C18930  10.518  10.791  10.032 -0.0024 -0.3013  0.4241
  144MOL0     C18931  10.513  10.924  10.073  0.3468 -0.3706  0.5479
  144MOL0     C18932  10.624  11.011  10.053 -0.9588 -0.3517 -1.0792
  144MOL0     C18933  10.736  10.984   9.979 -0.1470 -0.0254  0.6775
  144MOL0     O18934  10.836  11.079   9.961 -0.3891 -0.2108  0.3276
  144MOL0     C18935  10.947  11.053   9.882  0.8505 -0.9025 -0.3565
  144MOL0     C18936  11.012  11.178   9.837 -0.2243 -0.8000  0.1601
  144MOL0     C18937  10.916  11.285   9.775 -0.5835  0.3435 -0.1496
  144MOL0     C18938  10.988  11.378   9.691  0.4279 -0.6022  0.6898
  144MOL0     C18939  11.032  11.313   9.566 -0.2878  0.1907  0.1169
  144MOL0     C18940  11.070  11.278   9.458 -0.3351  0.1555  0.0506
  144MOL0     C18941  10.750  10.842   9.939 -0.1945 -0.9545 -0.4406
  144MOL0     C18942  10.642  10.757   9.967  0.3719 -0.4632  0.0903
  144MOL0     H18943  10.209  10.478  10.064 -1.7365 -0.5041 -1.8312
  144MOL0     H18944   9.971  10.395  10.106  1.2974  0.2248  3.0957
  144MOL0     H18945   9.644  10.702  10.118 -0.2641  0.2647 -0.2324
  144MOL0     H18946   9.713  10.674  10.279  1.4170 -2.3487 -0.0173
  144MOL0     H18947   9.571  10.455  10.284 -0.2591  1.1447  1.2734
  144MOL0     H18948   9.508  10.503  10.127 -3.9118  0.4456  0.9064
  144MOL0     H18949   9.373  10.671  10.222 -0.3978 -3.4374 -1.7080
  144MOL0     H18950   9.485  10.687  10.364  0.6482 -1.0942  0.2506
  144MOL0     H18951   9.305  10.451  10.292 -1.8064 -0.1855  0.8872
  144MOL0     H18952   9.400  10.457  10.444  1.6886  0.4215 -0.0409
  144MOL0     H18953   9.151  10.619  10.356 -1.9671 -2.2676 -0.8558
  144MOL0     H18954   9.236  10.647  10.511  1.2789  1.4493 -1.6619
  144MOL0     H18955   9.185  10.419  10.573  1.9891  0.6076 -0.6225
  144MOL0     H18956   9.111  10.394  10.414  2.0791 -0.4438  0.2172
  144MOL0     H18957   8.939  10.419  10.587 -0.2827  1.1865  1.2641
  144MOL0     H18958   9.008  10.568  10.640 -0.1885 -0.8505  1.2439
  144MOL0     H18959   8.847  10.483  10.391  0.2682  0.9842 -0.6423
  144MOL0     H18960   8.943  10.619  10.359  0.3089  0.5344  0.6287
  144MOL0     H18961   8.778  10.824  10.390  0.2734 -1.8436 -1.6039
  144MOL0     H18962   8.710  11.028  10.540 -2.3404  0.9181 -0.0281
  144MOL0     H18963   8.687  10.991  10.714 -0.2440  0.8301 -0.3601
  144MOL0     H18964   8.480  10.931  10.479 -0.4866 -1.2359  0.7677
  144MOL0     H18965   8.497  11.090  10.566 -0.3807  0.5037  3.5107
  144MOL0     H18966   8.419  10.803  10.659  0.4583 -0.2619  0.2227
  144MOL0     H18967   8.475  10.927  10.769  0.7838  1.0001 -0.9096
  144MOL0     H18968   8.288  11.067  10.701 -0.7800 -0.1096 -0.0718
  144MOL0     H18969   8.243  10.929  10.786  1.9276  1.2755  1.7543
  144MOL0     H18970   8.060  11.085  10.708 -1.7335  0.3317  0.2494
  144MOL0     H18971   7.811  11.109  10.690  0.7206 -1.2467  1.0573
  144MOL0     H18972   7.385  10.796  10.599 -1.3119 -2.0613 -1.1544
  144MOL0     H18973   7.147  10.864  10.592  2.0418 -2.7018 -0.9329
  144MOL0     H18974   6.954  10.852  10.361 -0.5312  0.3507  1.0515
  144MOL0     H18975   6.973  10.986  10.230  1.2245  0.8235 -0.4916
  144MOL0     H18976   6.803  11.107  10.341 -0.6515 -0.1834  0.0534
  144MOL0     H18977   6.777  10.980  10.467 -0.5586  1.8046  0.8385
  144MOL0     H18978   6.722  10.816  10.285  1.4536 -0.5421 -0.6799
  144MOL0     H18979   6.741  10.935  10.160  0.3899  0.0434  0.5406
  144MOL0     H18980   6.552  10.938  10.406  0.3521  0.9518  0.7132
  144MOL0     H18981   6.582  11.084  10.311 -0.3145  0.0427 -1.1803
  144MOL0     H18982   6.492  10.824  10.174  1.3983  0.1884 -0.9658
  144MOL0     H18983   6.492  10.983  10.113 -4.0053 -0.4651 -1.3517
  144MOL0     H18984   6.329  11.040  10.292 -2.1987 -1.0794  0.0921
  144MOL0     H18985   6.322  10.861  10.335 -1.7494 -2.9192 -2.8815
  144MOL0     H18986   6.247  10.968  10.055  0.2899  2.3719  1.0080
  144MOL0     H18987   6.221  10.811  10.124 -0.1528  0.5449 -2.3027
  144MOL0     H18988   6.104  11.094  10.187 -1.7825  1.1226 -1.2147
  144MOL0     H18989   6.050  10.961  10.291  3.0411  1.8063  1.2891
  144MOL0     H18990   7.243  11.132  10.267  1.9010  0.4881 -1.0507
  144MOL0     H18991   7.474  11.081  10.288 -0.4744  0.8562 -0.5749
  144MOL0     H18992   7.812  10.864  10.345 -1.2960  3.5480 -0.8155
  144MOL0     H18993   8.059  10.840  10.363  1.3542  1.8990  1.3909
  144MOL0     H18994   9.856  10.806  10.185  0.8420  0.7648 -3.3434
  144MOL0     H18995  10.091  10.880  10.157  1.2070  0.1858 -1.7170
  144MOL0     H18996  10.424  10.960  10.124 -0.9529 -0.5965 -1.4345
  144MOL0     H18997  10.624  11.107  10.104  0.4648 -0.2483 -1.2257
  144MOL0     H18998  10.920  10.990   9.797 -0.8830 -1.9461  0.8996
  144MOL0     H18999  11.017  10.998   9.945  0.5764 -0.3050  0.4828
  144MOL0     H19000  11.053  11.225   9.926 -1.3036 -1.0490  0.8129
  144MOL0     H19001  11.095  11.150   9.772 -0.7262 -2.9664  0.3670
  144MOL0     H19002  10.875  11.346   9.856  1.7831 -0.8843  2.1223
  144MOL0     H19003  10.847  11.233   9.708 -0.0957  2.4028 -2.4087
  144MOL0     H19004  10.923  11.463   9.669  0.5422 -1.4228 -3.7265
  144MOL0     H19005  11.078  11.420   9.736  1.6325 -0.7673 -1.4504
  144MOL0     H19006  11.106  11.246   9.363 -1.0616 -2.7240  0.6643
  144MOL0     H19007  10.845  10.812   9.898  0.7866  0.4085  0.7247
  144MOL0     H19008  10.644  10.658   9.924  1.4035 -1.5105  2.3860
  145MOL0     O19009   3.002   3.825   0.354 -0.1820  0.3010  1.0419
  145MOL0     C19010   3.061   3.835   0.466 -0.5487  0.2295 -0.2613
  145MOL0     O19011   3.007   3.859   0.582  0.3810 -0.3679 -0.0449
  145MOL0     C19012   2.876   3.817   0.609 -0.8017 -0.4528  0.1295
  145MOL0     C19013   2.843   3.680   0.614 -0.1113  0.4424 -0.5412
  145MOL0     C19014   2.717   3.635   0.643  0.0328  0.1555 -0.4601
  145MOL0     C19015   2.611   3.724   0.670  0.2735  0.7673 -0.2521
  145MOL0     O19016   2.476   3.685   0.693 -0.7242  0.3325  0.0795
  145MOL0     C19017   2.378   3.790   0.701 -0.3839 -0.4258  0.1147
  145MOL0     C19018   2.237   3.743   0.699  0.4865  0.6213 -0.1126
  145MOL0     C19019   2.215   3.639   0.589  0.3689 -0.7833  0.0767
  145MOL0     C19020   2.072   3.613   0.550 -0.0246  0.0780  0.8752
  145MOL0     C19021   2.041   3.490   0.463 -0.0610 -0.5245 -0.0053
  145MOL0     C19022   2.120   3.505   0.340 -0.4581 -0.4872 -1.1174
  145MOL0     C19023   2.062   3.419   0.222  0.3840  0.7560 -0.4790
  145MOL0     C19024   2.033   3.278   0.264 -0.0336 -0.4389 -0.0490
  145MOL0     N19025   2.155   3.193   0.280 -0.2213 -0.0388 -0.0849
  145MOL0     C19026   2.209   3.173   0.404  0.1645 -0.3343  0.0966
  145MOL0     C19027   2.318   3.106   0.383 -1.1238  1.1495 -0.8046
  145MOL0     C19028   2.414   3.046   0.477  0.2157 -0.0583  0.0601
  145MOL0     C19029   2.527   3.139   0.503 -0.1827 -0.9654 -0.5790
  145MOL0     C19030   2.604   3.090   0.628  0.9743 -0.9778 -0.7289
  145MOL0     C19031   2.694   2.967   0.625  0.4004  0.2231 -0.8827
  145MOL0     O19032   2.798   2.950   0.720  0.3079  0.6989 -0.7433
  145MOL0     C19033   2.917   3.019   0.710  0.3747 -0.3832 -0.1250
  145MOL0     C19034   2.962   3.097   0.608  0.2765 -0.6199 -0.4769
  145MOL0     C19035   3.088   3.149   0.604 -0.1106  0.1029  0.1303
  145MOL0     C19036   3.182   3.123   0.709  0.0927 -0.0544  0.0072
  145MOL0     C19037   3.321   3.166   0.698 -0.4519 -0.6059 -0.0028
  145MOL0     O19038   3.350   3.271   0.615 -0.6570 -0.0091  0.3171
  145MOL0     C19039   3.479   3.316   0.601 -0.2400 -0.6707  0.1281
  145MOL0     C19040   3.603   3.261   0.633  0.1788 -0.8447  0.1391
  145MOL0     C19041   3.725   3.328   0.625 -0.2897  0.0231  0.2962
  145MOL0     C19042   3.730   3.456   0.585  0.0856 -0.4082 -0.0398
  145MOL0     O19043   3.846   3.530   0.583  0.1216  0.3064 -0.3266
  145MOL0     C19044   3.936   3.504   0.697  0.3761 -0.3779  0.0625
  145MOL0     C19045   4.045   3.612   0.703  0.4843  0.5280 -0.1047
  145MOL0     C19046   4.139   3.582   0.821 -0.3177 -0.6346 -0.6636
  145MOL0     C19047   4.249   3.691   0.834 -0.4254 -0.3833  0.2805
  145MOL0     C19048   4.361   3.654   0.939  0.7715  0.2926 -0.1239
  145MOL0     C19049   4.310   3.626   1.084  0.0263  0.1577  0.5622
  145MOL0     C19050   4.424   3.593   1.175  0.2812 -0.3101 -0.1024
  145MOL0     C19051   4.388   3.538   1.311 -0.6856 -0.4953 -0.8668
  145MOL0    Cl19052   4.268   3.409   1.333 -0.3495 -0.4307 -0.0839
  145MOL0     C19053   3.611   3.516   0.547 -0.0801  0.2769  0.6157
  145MOL0     C19054   3.491   3.449   0.557  0.3790 -0.1492  0.5223
  145MOL0     O19055   3.404   3.100   0.759 -0.1065 -0.1292 -0.0559
  145MOL0     C19056   3.135   3.043   0.810  0.1736 -0.2391  0.4801
  145MOL0     C19057   3.006   2.988   0.809 -0.1304  0.3770  0.9449
  145MOL0     N19058   2.332   3.077   0.252 -0.3879  0.1240  0.2043
  145MOL0     N19059   2.234   3.136   0.189 -0.1343 -0.0150 -0.1057
  145MOL0     C19060   2.645   3.862   0.676 -0.9694 -0.3342 -1.1719
  145MOL0     C19061   2.777   3.905   0.643  0.5044 -0.5413  0.6991
  145MOL0     C19062   3.205   3.839   0.462 -0.1309  0.8571  0.5607
  145MOL0     C19063   3.281   3.909   0.554  0.3255 -0.0291 -0.3517
  145MOL0     C19064   3.417   3.905   0.553  0.3113 -0.0637 -0.2220
  145MOL0     C19065   3.490   3.843   0.452  0.1560  0.7751  0.5116
  145MOL0     O19066   3.629   3.839   0.441  0.2885  0.8359  0.4019
  145MOL0     C19067   3.697   3.932   0.525 -0.3395 -0.3558  0.5822
  145MOL0     C19068   3.840   3.916   0.468 -0.1703 -0.4947  0.2186
  145MOL0     C19069   3.942   3.991   0.548 -0.1347  0.4018  0.0233
  145MOL0     C19070   4.086   3.990   0.490 -0.9497  0.4144  0.1482
  145MOL0     C19071   4.189   4.056   0.564 -0.0887  0.8100 -0.4442
  145MOL0     C19072   4.270   4.116   0.621  0.4519 -0.0284 -0.2859
  145MOL0     C19073   3.417   3.761   0.360  0.7504 -0.6153  0.0347
  145MOL0     C19074   3.274   3.760   0.365  0.7305 -0.0187 -0.2165
  145MOL0     H19075   2.924   3.611   0.592  1.1247  1.1821  1.4783
  145MOL0     H19076   2.689   3.531   0.638 -0.9442  0.2237  2.0492
  145MOL0     H19077   2.379   3.870   0.627 -0.6503  0.2308  0.8171
  145MOL0     H19078   2.384   3.837   0.799  0.2272 -3.3008  1.5668
  145MOL0     H19079   2.171   3.822   0.664 -2.2317 -2.9045 -3.9656
  145MOL0     H19080   2.208   3.700   0.795 -2.2567  1.6345 -0.4117
  145MOL0     H19081   2.275   3.548   0.602 -0.2931 -1.1262  0.8276
  145MOL0     H19082   2.259   3.678   0.496 -1.4612 -0.5594 -0.7295
  145MOL0     H19083   2.005   3.601   0.636 -2.4608 -0.8998 -1.0506
  145MOL0     H19084   2.031   3.704   0.506  0.1782  0.2976  1.1318
  145MOL0     H19085   1.939   3.511   0.431  0.5135  0.5715 -1.2071
  145MOL0     H19086   2.048   3.396   0.519 -2.5631 -1.5928 -1.3270
  145MOL0     H19087   2.222   3.476   0.366 -0.4370  1.1287  0.8773
  145MOL0     H19088   2.133   3.610   0.314  1.8654 -0.9170 -1.8669
  145MOL0     H19089   1.972   3.468   0.184 -0.3690  0.9531  1.4170
  145MOL0     H19090   2.130   3.422   0.137 -0.1795  0.0834 -0.9588
  145MOL0     H19091   1.967   3.241   0.185 -0.1466  0.0806 -0.1959
  145MOL0     H19092   1.966   3.276   0.351  0.3232  0.4899  0.2526
  145MOL0     H19093   2.166   3.208   0.498 -1.1092  2.0446 -1.2761
  145MOL0     H19094   2.461   2.957   0.433  0.9714  0.5534 -0.4070
  145MOL0     H19095   2.364   3.036   0.574 -0.5406 -2.6023 -0.5042
  145MOL0     H19096   2.490   3.241   0.518 -0.5685 -0.6865 -3.0297
  145MOL0     H19097   2.591   3.147   0.415 -2.6916 -0.0364 -2.4400
  145MOL0     H19098   2.677   3.168   0.653 -0.4379  0.9086 -2.2179
  145MOL0     H19099   2.539   3.076   0.714  1.7226  0.3503  0.0891
  145MOL0     H19100   2.733   2.961   0.523  1.5523 -0.0481 -0.4427
  145MOL0     H19101   2.635   2.876   0.638 -0.1066  0.6237 -0.2711
  145MOL0     H19102   2.891   3.103   0.526 -1.8008 -2.0842  1.1130
  145MOL0     H19103   3.121   3.218   0.526  0.7280  1.4681  1.6225
  145MOL0     H19104   3.613   3.156   0.662  1.0229 -0.8203 -0.0315
  145MOL0     H19105   3.818   3.278   0.652  0.6419  1.6061  0.1607
  145MOL0     H19106   3.975   3.403   0.687  0.6799 -0.2676  0.1390
  145MOL0     H19107   3.880   3.505   0.790 -1.2327 -0.5780 -0.8582
  145MOL0     H19108   3.991   3.704   0.724 -0.7386  0.1734 -1.5589
  145MOL0     H19109   4.095   3.621   0.607 -1.9003  1.4543 -1.3293
  145MOL0     H19110   4.194   3.491   0.794  1.0656  0.1679 -0.6070
  145MOL0     H19111   4.092   3.571   0.919  1.4067 -1.2870  0.1310
  145MOL0     H19112   4.294   3.719   0.738 -0.0996 -0.6226  0.3637
  145MOL0     H19113   4.204   3.788   0.860  0.3111  1.7692 -5.1231
  145MOL0     H19114   4.432   3.736   0.953  1.3873 -0.2277 -0.1308
  145MOL0     H19115   4.428   3.576   0.902  2.5540  3.0797 -3.3551
  145MOL0     H19116   4.246   3.538   1.090  1.3645 -0.8927  0.0374
  145MOL0     H19117   4.252   3.710   1.124 -0.2119  1.0949 -1.6032
  145MOL0     H19118   4.476   3.513   1.122 -0.6941 -0.6580 -0.5461
  145MOL0     H19119   4.497   3.675   1.181  0.7679 -0.8279  1.6497
  145MOL0     H19120   4.331   3.615   1.364 -1.5875 -1.9650  0.3734
  145MOL0     H19121   4.482   3.524   1.364 -1.4652 -2.9699  0.0072
  145MOL0     H19122   3.608   3.617   0.506 -1.2853  0.0805  0.1962
  145MOL0     H19123   3.398   3.494   0.525  0.6261 -1.2746 -1.9642
  145MOL0     H19124   3.202   3.016   0.891  0.9597  1.5392  0.4480
  145MOL0     H19125   2.979   2.903   0.872  0.7458 -0.1076  0.6920
  145MOL0     H19126   2.575   3.937   0.712  1.6384  1.4003  0.5843
  145MOL0     H19127   2.809   4.007   0.660  1.8345 -0.8989  0.4857
  145MOL0     H19128   3.236   3.978   0.624  2.2273  0.9002  0.0118
  145MOL0     H19129   3.479   3.970   0.614  0.5469  2.2393 -2.7289
  145MOL0     H19130   3.689   3.909   0.632 -1.8191  0.0279  0.5716
  145MOL0     H19131   3.663   4.034   0.507 -2.8703 -1.3701 -0.9888
  145MOL0     H19132   3.866   3.810   0.477  1.0329 -0.1195  1.4434
  145MOL0     H19133   3.833   3.950   0.364 -0.8367  1.3875  0.8201
  145MOL0     H19134   3.947   3.926   0.637 -2.8524 -0.8462 -0.6372
  145MOL0     H19135   3.910   4.092   0.575 -2.7979 -0.4628  0.4154
  145MOL0     H19136   4.123   3.888   0.473 -0.2093  0.5951  0.6328
  145MOL0     H19137   4.095   4.040   0.393 -1.4960  1.0836  0.4402
  145MOL0     H19138   4.353   4.165   0.668  0.9235 -0.1809 -0.9471
  145MOL0     H19139   3.477   3.701   0.291 -0.8755 -1.9539 -0.2674
  145MOL0     H19140   3.219   3.715   0.282  2.2021  1.1425 -1.8829
  146MOL0     O19141   1.513   1.789   4.478 -0.3898 -0.0792  0.8069
  146MOL0     C19142   1.579   1.893   4.469  0.5198  0.3244  0.0368
  146MOL0     O19143   1.669   1.923   4.369  0.3201 -0.5749  0.6392
  146MOL0     C19144   1.677   1.825   4.273 -0.2919  0.3633 -0.4428
  146MOL0     C19145   1.584   1.794   4.182  0.3855 -0.3521  0.0597
  146MOL0     C19146   1.603   1.699   4.084 -0.3942  0.4251  0.1946
  146MOL0     C19147   1.730   1.641   4.072  0.0591 -0.4519  0.2687
  146MOL0     O19148   1.770   1.551   3.983 -0.1954  0.2441 -0.2193
  146MOL0     C19149   1.702   1.535   3.858  0.7385  0.6288 -0.0084
  146MOL0     C19150   1.690   1.387   3.828 -0.2369 -0.2586 -0.6076
  146MOL0     C19151   1.577   1.335   3.919 -0.1208 -0.3760  0.5761
  146MOL0     C19152   1.622   1.216   4.000 -0.9032  0.3138 -0.1550
  146MOL0     C19153   1.506   1.148   4.068  0.3808  0.1718  0.7580
  146MOL0     C19154   1.538   1.047   4.177  0.2170 -0.8452 -0.1082
  146MOL0     C19155   1.418   0.953   4.215 -0.7282 -0.8245 -0.1584
  146MOL0     C19156   1.397   0.921   4.360  0.6662  0.4296  0.4461
  146MOL0     N19157   1.308   0.805   4.377  0.5069  0.3511 -0.2736
  146MOL0     C19158   1.188   0.802   4.445 -0.5529  0.8945  0.4771
  146MOL0     C19159   1.154   0.666   4.453  0.2899 -0.6280 -0.0037
  146MOL0     C19160   1.038   0.604   4.527 -0.7061 -0.0974  0.6066
  146MOL0     C19161   1.080   0.466   4.579  0.0120  0.3930 -0.4342
  146MOL0     C19162   0.980   0.402   4.679  0.3823 -1.0774  0.3879
  146MOL0     C19163   1.039   0.273   4.741  0.2923 -0.5561 -0.1872
  146MOL0     O19164   0.962   0.245   4.862  0.3985  0.6480  0.7265
  146MOL0     C19165   0.849   0.162   4.848  0.2902  0.2498  0.6341
  146MOL0     C19166   0.727   0.210   4.864  0.6197 -0.0588  0.3786
  146MOL0     C19167   0.611   0.141   4.843  0.5777 -0.5046 -0.7267
  146MOL0     C19168   0.614   0.010   4.788 -0.0156  0.0563 -0.8961
  146MOL0     C19169   0.496  -0.070   4.757  0.0731  0.0228 -0.2950
  146MOL0     O19170   0.376  -0.014   4.755 -0.3569 -0.8323  0.1104
  146MOL0     C19171   0.249  -0.065   4.716 -0.4545  0.7099 -0.3944
  146MOL0     C19172   0.229  -0.206   4.689  0.1233  0.1456  0.2762
  146MOL0     C19173   0.100  -0.259   4.676  0.3416  0.0111 -0.9882
  146MOL0     C19174  -0.012  -0.172   4.677 -0.3048  0.6835 -0.4207
  146MOL0     O19175  -0.136  -0.234   4.663 -0.1650 -0.7663  0.7005
  146MOL0     C19176  -0.215  -0.169   4.562  1.0278 -0.1288  0.3551
  146MOL0     C19177  -0.291  -0.272   4.481  0.2133 -0.0413  0.7356
  146MOL0     C19178  -0.402  -0.223   4.390 -0.0173  0.4824 -0.4558
  146MOL0     C19179  -0.515  -0.151   4.461 -0.1183  0.0131 -0.7728
  146MOL0     C19180  -0.636  -0.114   4.371  0.0723  0.4935 -0.0299
  146MOL0     C19181  -0.721   0.005   4.429  0.1446  0.1894 -0.4514
  146MOL0     C19182  -0.844   0.053   4.343  1.5229 -0.1034 -0.9410
  146MOL0     C19183  -0.861   0.209   4.350 -0.2001  0.6019  0.3185
  146MOL0    Cl19184  -0.720   0.301   4.283 -0.0274 -0.0209 -0.1508
  146MOL0     C19185   0.014  -0.036   4.699  0.3191  0.0135 -0.5523
  146MOL0     C19186   0.140   0.023   4.729 -0.1541  1.0264  0.1762
  146MOL0     O19187   0.518  -0.182   4.703  0.6019 -0.0399 -0.1191
  146MOL0     C19188   0.745  -0.044   4.776  0.7658  0.3647  1.1904
  146MOL0     C19189   0.858   0.030   4.804  0.5227  0.2305  0.0441
  146MOL0     N19190   1.237   0.594   4.378 -0.7440 -0.1436  0.3654
  146MOL0     N19191   1.338   0.671   4.349 -0.7489  0.3692  0.3139
  146MOL0     C19192   1.827   1.668   4.164 -1.1505  1.0358 -0.0523
  146MOL0     C19193   1.801   1.767   4.257 -0.9367 -0.5357  0.1093
  146MOL0     C19194   1.567   2.003   4.574  0.2269  0.4380  0.0756
  146MOL0     C19195   1.664   2.104   4.583  0.7170 -0.5246 -0.4442
  146MOL0     C19196   1.646   2.210   4.669  0.1274 -1.1877  0.2152
  146MOL0     C19197   1.537   2.214   4.758  0.9506 -0.0935  0.8677
  146MOL0     O19198   1.514   2.299   4.862 -0.4870 -1.0255  0.8847
  146MOL0     C19199   1.531   2.441   4.822  0.2196  0.1442 -0.3351
  146MOL0     C19200   1.405   2.487   4.747  0.2619  0.1380 -0.2072
  146MOL0     C19201   1.407   2.640   4.751  0.0324  0.0264 -0.0828
  146MOL0     C19202   1.300   2.709   4.674  0.4015  0.0978 -0.1499
  146MOL0     C19203   1.168   2.654   4.672 -0.2470 -0.4585 -0.3341
  146MOL0     C19204   1.054   2.630   4.649  0.0775  0.2176  0.5756
  146MOL0     C19205   1.436   2.122   4.740 -0.1870 -0.7101  0.5800
  146MOL0     C19206   1.451   2.015   4.648  0.1946 -1.0961  1.0064
  146MOL0     H19207   1.488   1.844   4.194  0.1322 -0.8451  0.1080
  146MOL0     H19208   1.519   1.682   4.017 -0.0598  0.7192 -0.3064
  146MOL0     H19209   1.761   1.589   3.784 -1.8612  0.3080 -2.5152
  146MOL0     H19210   1.598   1.571   3.852  0.2021 -0.9427 -0.5828
  146MOL0     H19211   1.781   1.336   3.862 -2.0928 -1.8168  2.3160
  146MOL0     H19212   1.662   1.374   3.723 -1.6445  0.7271 -0.3838
  146MOL0     H19213   1.486   1.313   3.863  0.7742 -2.7805 -0.0785
  146MOL0     H19214   1.545   1.415   3.987  0.4462  0.1718  0.2090
  146MOL0     H19215   1.674   1.137   3.943  2.5221 -0.6936  3.8579
  146MOL0     H19216   1.691   1.246   4.079 -0.0810 -4.3751  1.2235
  146MOL0     H19217   1.455   1.089   3.991  0.4312 -0.1668  0.9802
  146MOL0     H19218   1.443   1.221   4.119 -2.2092 -1.5779  0.3121
  146MOL0     H19219   1.577   1.108   4.259 -0.7279  0.1802 -0.4045
  146MOL0     H19220   1.624   0.993   4.137  0.5243  0.9366 -1.9857
  146MOL0     H19221   1.330   1.003   4.174  2.0242  0.8417 -4.7310
  146MOL0     H19222   1.427   0.860   4.158  2.4912  0.5837 -2.2186
  146MOL0     H19223   1.364   1.014   4.409  1.5763  0.7853  0.4071
  146MOL0     H19224   1.498   0.906   4.400  1.6655  0.2208 -2.0069
  146MOL0     H19225   1.145   0.889   4.492 -0.2626  0.2082  2.1128
  146MOL0     H19226   0.953   0.590   4.459 -0.1869 -1.0114  0.1188
  146MOL0     H19227   1.006   0.669   4.609  0.0758  1.6026 -0.3756
  146MOL0     H19228   1.177   0.472   4.628  0.7217  1.1801 -1.8534
  146MOL0     H19229   1.095   0.402   4.492  0.8591 -0.5165  0.3566
  146MOL0     H19230   0.955   0.486   4.744  1.0851  0.2094 -0.9416
  146MOL0     H19231   0.884   0.389   4.628 -1.0313  2.2797  1.8796
  146MOL0     H19232   1.140   0.296   4.775 -0.3116 -0.0369  1.3457
  146MOL0     H19233   1.043   0.190   4.670 -0.0470 -0.2023 -0.6293
  146MOL0     H19234   0.719   0.316   4.888  1.8592  0.1693 -0.1438
  146MOL0     H19235   0.520   0.196   4.865 -0.1231 -2.3530  1.2946
  146MOL0     H19236   0.306  -0.282   4.684 -1.1644 -1.3056  1.7416
  146MOL0     H19237   0.087  -0.366   4.667 -0.7308 -0.1397  1.5944
  146MOL0     H19238  -0.162  -0.113   4.484  1.1056 -2.4287 -1.3256
  146MOL0     H19239  -0.278  -0.091   4.606 -2.9127 -1.4740 -2.4295
  146MOL0     H19240  -0.320  -0.355   4.545  3.7086 -2.2308 -0.2510
  146MOL0     H19241  -0.210  -0.310   4.418 -0.0484  1.0904 -0.3322
  146MOL0     H19242  -0.434  -0.309   4.331  2.4207 -0.9275  0.1105
  146MOL0     H19243  -0.361  -0.145   4.326  0.1160  0.4256 -0.4389
  146MOL0     H19244  -0.553  -0.223   4.534 -1.4431 -0.9895 -2.3872
  146MOL0     H19245  -0.477  -0.060   4.510 -0.6986  0.4904 -1.1861
  146MOL0     H19246  -0.705  -0.200   4.374 -1.0458  1.2092 -2.3359
  146MOL0     H19247  -0.609  -0.105   4.265 -0.1649 -0.7780 -0.2239
  146MOL0     H19248  -0.664   0.098   4.444 -0.4684  0.6661 -1.0014
  146MOL0     H19249  -0.755  -0.021   4.529 -1.8901  1.4381 -0.7522
  146MOL0     H19250  -0.828   0.024   4.239  2.8511  1.3532 -1.1693
  146MOL0     H19251  -0.932  -0.000   4.380  1.2007  2.4640  2.4724
  146MOL0     H19252  -0.902   0.237   4.447 -2.0800  1.1753 -0.5950
  146MOL0     H19253  -0.945   0.238   4.287  0.2831  3.8288  0.9611
  146MOL0     H19254  -0.069   0.033   4.712  0.5826 -0.0835  2.3963
  146MOL0     H19255   0.164   0.126   4.753 -0.3375  1.1461 -0.1511
  146MOL0     H19256   0.762  -0.149   4.752 -1.9404 -0.0783  0.9285
  146MOL0     H19257   0.954  -0.021   4.807  0.1821 -0.4952 -0.8425
  146MOL0     H19258   1.926   1.625   4.149 -2.1287 -1.5862  0.4927
  146MOL0     H19259   1.880   1.784   4.329  0.1718 -1.8946 -0.7104
  146MOL0     H19260   1.757   2.110   4.527  1.6413 -1.8316  0.8786
  146MOL0     H19261   1.714   2.294   4.682 -1.5886  0.4819 -1.1205
  146MOL0     H19262   1.623   2.462   4.766  0.0343 -0.5736 -0.9120
  146MOL0     H19263   1.538   2.494   4.918  3.0543 -2.0077  0.7742
  146MOL0     H19264   1.400   2.446   4.645 -2.7720 -1.8645  0.6203
  146MOL0     H19265   1.317   2.450   4.800  1.5065  0.0751  1.9155
  146MOL0     H19266   1.499   2.671   4.700  0.0157  2.8989  1.4642
  146MOL0     H19267   1.392   2.669   4.855 -3.2413  0.3125 -0.5476
  146MOL0     H19268   1.283   2.813   4.706 -0.7154 -0.6086  1.6593
  146MOL0     H19269   1.343   2.710   4.573  0.0189 -2.5966 -0.4129
  146MOL0     H19270   0.952   2.604   4.629  0.5945 -2.3944  0.9379
  146MOL0     H19271   1.347   2.131   4.802  0.3707 -0.4696  1.3573
  146MOL0     H19272   1.365   1.950   4.635  1.1606 -2.4360  1.1313
  147MOL0     O19273   3.922  10.581   3.646 -0.2190 -0.5546  0.0929
  147MOL0     C19274   4.023  10.647   3.617 -0.0663  0.6521 -0.1178
  147MOL0     O19275   4.039  10.781   3.655  0.0271  0.7601  0.4660
  147MOL0     C19276   3.930  10.842   3.716 -0.9349 -0.0325 -0.1935
  147MOL0     C19277   3.866  10.945   3.648  0.4403 -0.4301  0.0609
  147MOL0     C19278   3.753  11.009   3.709  0.6732  0.2365  1.0073
  147MOL0     C19279   3.727  10.979   3.845 -0.2302  0.6908  0.2052
  147MOL0     O19280   3.642  11.050   3.920  0.1530  0.6292  0.6507
  147MOL0     C19281   3.545  11.132   3.849  0.1987  0.2504  0.3605
  147MOL0     C19282   3.421  11.170   3.926 -0.1604 -0.1964  0.5606
  147MOL0     C19283   3.318  11.248   3.843  0.3576  0.5371 -0.0153
  147MOL0     C19284   3.235  11.152   3.751 -0.1167 -0.6912 -0.0717
  147MOL0     C19285   3.113  11.218   3.692 -0.3268 -0.6955  0.2261
  147MOL0     C19286   3.156  11.348   3.613  0.3712 -0.6551  0.2329
  147MOL0     C19287   3.045  11.415   3.526 -0.3948 -0.0191  0.3883
  147MOL0     C19288   2.926  11.478   3.604  0.3289 -0.3973 -0.0094
  147MOL0     N19289   2.837  11.562   3.517 -1.0938  0.1024  0.0853
  147MOL0     C19290   2.740  11.513   3.435 -0.0174  0.0612  0.5967
  147MOL0     C19291   2.711  11.609   3.347  0.3791 -0.4974 -0.4289
  147MOL0     C19292   2.599  11.608   3.238 -0.5846  0.6716  0.6525
  147MOL0     C19293   2.474  11.684   3.268 -0.4676 -0.7127  0.5448
  147MOL0     C19294   2.494  11.840   3.260 -0.1369 -0.2860 -0.1614
  147MOL0     C19295   2.364  11.908   3.301 -0.3423 -0.3197  0.0411
  147MOL0     O19296   2.258  11.887   3.209 -0.4106  0.3583 -0.1937
  147MOL0     C19297   2.137  11.943   3.240  1.5882 -0.2354 -0.5613
  147MOL0     C19298   2.111  12.065   3.304  0.0022 -0.0658 -0.0276
  147MOL0     C19299   1.979  12.115   3.326  0.2782  1.2917  0.3081
  147MOL0     C19300   1.867  12.025   3.302 -0.2050  0.4763 -0.0693
  147MOL0     C19301   1.726  12.065   3.332 -0.3172  0.4584 -0.2851
  147MOL0     O19302   1.729  12.185   3.402  0.5958  0.3760  0.1541
  147MOL0     C19303   1.611  12.255   3.415 -0.7261  0.1384 -0.6698
  147MOL0     C19304   1.496  12.241   3.333 -0.0300 -0.4446 -0.2165
  147MOL0     C19305   1.368  12.294   3.370 -0.3552 -0.3319 -0.6735
  147MOL0     C19306   1.368  12.388   3.476 -0.2702  0.0942 -0.0872
  147MOL0     O19307   1.253  12.457   3.509 -0.0807 -0.2813  0.2871
  147MOL0     C19308   1.147  12.497   3.417  0.6085 -0.2680  0.0944
  147MOL0     C19309   1.041  12.579   3.493  0.5182  0.1384  0.4097
  147MOL0     C19310   0.949  12.669   3.411  0.0542 -0.3502  0.0469
  147MOL0     C19311   0.861  12.601   3.295  0.2982  0.3446  0.5317
  147MOL0     C19312   0.804  12.698   3.192  0.0391  0.1424 -0.8980
  147MOL0     C19313   0.903  12.744   3.093 -0.2217  0.2147  0.7384
  147MOL0     C19314   0.925  12.651   2.965 -0.1934  0.1741  0.4134
  147MOL0     C19315   1.010  12.715   2.859  0.2825  0.1214 -0.4050
  147MOL0    Cl19316   1.138  12.595   2.791  0.1851  0.0489 -0.3778
  147MOL0     C19317   1.481  12.396   3.566  0.1417  0.2991 -0.2481
  147MOL0     C19318   1.598  12.329   3.531 -0.0222 -0.5544 -1.3542
  147MOL0     O19319   1.626  12.001   3.299 -0.5243  0.2036 -0.8446
  147MOL0     C19320   1.890  11.898   3.246 -0.1502  0.3893 -0.7792
  147MOL0     C19321   2.021  11.861   3.214 -0.3628  0.6475  0.1505
  147MOL0     N19322   2.796  11.716   3.380  0.6761  0.0853 -0.5132
  147MOL0     N19323   2.864  11.685   3.482 -0.2858 -0.0579 -0.6131
  147MOL0     C19324   3.804  10.880   3.915  0.3959 -0.3040 -0.3937
  147MOL0     C19325   3.895  10.805   3.842 -0.1046  0.5743 -0.3101
  147MOL0     C19326   4.130  10.584   3.546 -0.7111 -0.9899  0.3217
  147MOL0     C19327   4.223  10.659   3.472  0.6257  0.1915 -0.7675
  147MOL0     C19328   4.333  10.599   3.414  0.5388  0.3341  0.8105
  147MOL0     C19329   4.361  10.457   3.430 -0.3461 -0.3935  0.9674
  147MOL0     O19330   4.488  10.409   3.408 -0.0831 -0.6858 -0.3179
  147MOL0     C19331   4.586  10.494   3.344 -0.6659 -0.0397 -0.0220
  147MOL0     C19332   4.717  10.409   3.324  0.1687 -0.1027  0.8521
  147MOL0     C19333   4.816  10.490   3.242 -0.2192 -0.1411 -1.0763
  147MOL0     C19334   4.945  10.409   3.227 -0.2594  0.2663 -0.2412
  147MOL0     C19335   5.046  10.474   3.141  0.2978 -0.3552 -0.4015
  147MOL0     C19336   5.130  10.543   3.089 -0.5663 -0.6353 -0.1161
  147MOL0     C19337   4.263  10.380   3.494  0.6387 -0.3274  0.6215
  147MOL0     C19338   4.149  10.445   3.558 -0.4621 -0.4161 -0.5653
  147MOL0     H19339   3.886  10.961   3.542 -1.7841 -0.6113 -0.4497
  147MOL0     H19340   3.708  11.087   3.649  2.0475  0.5017  0.2938
  147MOL0     H19341   3.510  11.075   3.763  2.8160  1.2290 -1.4712
  147MOL0     H19342   3.593  11.219   3.802 -1.3327  1.1217  0.3293
  147MOL0     H19343   3.461  11.233   4.007 -0.3970  0.0150  0.5143
  147MOL0     H19344   3.374  11.088   3.980 -0.3182  0.1065  0.8924
  147MOL0     H19345   3.364  11.333   3.792 -0.5137  1.6413  0.9939
  147MOL0     H19346   3.247  11.286   3.917  0.6836  1.2218 -0.0559
  147MOL0     H19347   3.295  11.110   3.670 -0.5860  0.8233 -1.2723
  147MOL0     H19348   3.205  11.063   3.806  1.2883 -2.0295 -1.4012
  147MOL0     H19349   3.037  11.238   3.769 -0.5206 -2.2143  0.4453
  147MOL0     H19350   3.063  11.147   3.625 -1.9035  0.3300  0.2573
  147MOL0     H19351   3.240  11.323   3.548  1.4848  1.0202  0.9771
  147MOL0     H19352   3.188  11.423   3.685 -1.1515 -0.8619  1.1764
  147MOL0     H19353   3.103  11.490   3.471  0.6074  1.3865  3.1431
  147MOL0     H19354   2.998  11.348   3.454  3.0828 -0.2919 -1.9147
  147MOL0     H19355   2.955  11.536   3.692  0.5079  0.4505 -0.6168
  147MOL0     H19356   2.875  11.391   3.646 -0.6825  0.7700  1.2717
  147MOL0     H19357   2.704  11.411   3.433 -0.2855  0.1651 -0.0507
  147MOL0     H19358   2.573  11.502   3.230  0.1211  0.6261 -1.8202
  147MOL0     H19359   2.632  11.633   3.137  1.0554 -4.4309 -0.3713
  147MOL0     H19360   2.445  11.664   3.371  2.5829  1.9837  2.1370
  147MOL0     H19361   2.398  11.648   3.198  0.2598 -3.7721  1.1836
  147MOL0     H19362   2.564  11.873   3.338  0.5869 -1.7751 -0.1380
  147MOL0     H19363   2.527  11.862   3.158 -0.4784 -2.7310 -0.8593
  147MOL0     H19364   2.384  12.014   3.324 -0.9687  0.0570 -1.1006
  147MOL0     H19365   2.333  11.861   3.395  0.8895 -1.3807 -0.0610
  147MOL0     H19366   2.189  12.140   3.319 -2.0511  2.0097  0.9940
  147MOL0     H19367   1.964  12.212   3.372  1.2826 -0.2392  4.3103
  147MOL0     H19368   1.490  12.178   3.245  1.8656 -0.5413 -0.3105
  147MOL0     H19369   1.290  12.270   3.299  2.0966 -3.6238 -2.5664
  147MOL0     H19370   1.106  12.404   3.377 -0.5414 -0.2288  1.1212
  147MOL0     H19371   1.180  12.556   3.331 -0.3269  0.0203 -0.0759
  147MOL0     H19372   1.086  12.638   3.573 -1.6880 -2.5684  3.9162
  147MOL0     H19373   0.978  12.510   3.549  2.4648 -0.8871  1.4323
  147MOL0     H19374   1.010  12.751   3.372 -1.7415  0.1343 -1.9663
  147MOL0     H19375   0.881  12.705   3.489  0.8524 -1.1189  1.1322
  147MOL0     H19376   0.911  12.514   3.250 -3.6795 -3.6387  2.9580
  147MOL0     H19377   0.779  12.557   3.353 -0.2761 -0.1388 -0.6262
  147MOL0     H19378   0.769  12.785   3.250  0.3299  1.1007 -2.1240
  147MOL0     H19379   0.724  12.645   3.139 -1.2666  0.4083  0.7141
  147MOL0     H19380   1.000  12.768   3.138  0.9130  3.2448 -2.8054
  147MOL0     H19381   0.870  12.839   3.051  2.0809  0.0790 -1.6331
  147MOL0     H19382   0.951  12.547   2.987 -1.1465 -0.7522 -2.4079
  147MOL0     H19383   0.827  12.650   2.917  0.1407  0.1327 -0.2832
  147MOL0     H19384   1.070  12.791   2.909  2.5310 -2.8562  1.7734
  147MOL0     H19385   0.948  12.748   2.774 -1.1613 -2.0549 -0.2809
  147MOL0     H19386   1.464  12.455   3.656 -2.0143  1.0818 -1.0767
  147MOL0     H19387   1.685  12.337   3.595 -0.6258  1.9319 -0.7108
  147MOL0     H19388   1.806  11.833   3.227 -0.8458  1.2097 -0.5811
  147MOL0     H19389   2.037  11.758   3.182 -2.6106 -0.1368  1.2898
  147MOL0     H19390   3.782  10.858   4.019  1.1225 -0.3255 -0.2380
  147MOL0     H19391   3.940  10.714   3.880 -2.1098 -0.5841 -0.5338
  147MOL0     H19392   4.217  10.767   3.475 -1.2611  0.1118  1.6886
  147MOL0     H19393   4.407  10.667   3.373  0.3818  1.7487  2.7054
  147MOL0     H19394   4.614  10.581   3.403  0.4588  1.3198 -2.4140
  147MOL0     H19395   4.560  10.522   3.242 -0.5554 -0.2626 -0.1142
  147MOL0     H19396   4.758  10.366   3.416  0.9540 -1.4767 -0.1090
  147MOL0     H19397   4.691  10.330   3.253 -0.3861 -0.0567  1.0050
  147MOL0     H19398   4.839  10.585   3.293  3.5570 -1.7361  0.5992
  147MOL0     H19399   4.767  10.510   3.146 -0.9135  0.3866 -0.6249
  147MOL0     H19400   4.999  10.403   3.323 -2.8963 -3.3957  1.2285
  147MOL0     H19401   4.921  10.307   3.199 -2.0650  0.2082  1.2885
  147MOL0     H19402   5.221  10.590   3.058 -1.9408  1.7090 -0.9070
  147MOL0     H19403   4.276  10.272   3.492  0.0291 -0.4603  2.2039
  147MOL0     H19404   4.077  10.380   3.607 -1.2401  1.0424  0.3459
  148MOL0     O19405   8.573   6.912  10.869  0.8428  0.2194  0.4922
  148MOL0     C19406   8.634   6.992  10.943  0.1619  0.1852  1.4149
  148MOL0     O19407   8.576   7.081  11.034 -0.7762 -0.7769  0.8669
  148MOL0     C19408   8.443   7.095  11.064  0.0468 -0.1339 -0.6387
  148MOL0     C19409   8.353   6.990  11.067  0.2376  0.1943 -0.6041
  148MOL0     C19410   8.212   7.011  11.090  0.2963  0.0198 -0.0620
  148MOL0     C19411   8.169   7.143  11.125  0.0586  0.2609  0.0942
  148MOL0     O19412   8.040   7.190  11.141  0.2718  0.1990  0.5871
  148MOL0     C19413   7.939   7.096  11.154 -1.2199 -0.5954 -0.0658
  148MOL0     C19414   7.807   7.141  11.225 -0.6618  0.0987  0.0375
  148MOL0     C19415   7.706   7.026  11.229  0.1621 -0.1340 -0.5560
  148MOL0     C19416   7.591   7.060  11.320 -0.8313 -0.2232  0.7841
  148MOL0     C19417   7.481   6.953  11.333 -0.1898  0.0658 -0.0052
  148MOL0     C19418   7.343   6.999  11.383 -0.0730  0.7116  0.1111
  148MOL0     C19419   7.234   6.902  11.351  0.5053 -0.4106  0.2719
  148MOL0     C19420   7.094   6.945  11.393 -0.4114  0.0844 -0.2573
  148MOL0     N19421   7.041   7.050  11.308 -0.3656 -0.4738  0.0246
  148MOL0     C19422   6.978   7.034  11.190 -0.6157 -0.5867  0.5045
  148MOL0     C19423   6.916   7.159  11.160 -0.4035  1.0048 -0.6477
  148MOL0     C19424   6.835   7.212  11.044 -0.1163  0.4377  1.5634
  148MOL0     C19425   6.691   7.163  11.057  0.0117 -0.2094 -0.5945
  148MOL0     C19426   6.613   7.196  10.923  0.3471 -0.6278 -0.1581
  148MOL0     C19427   6.478   7.129  10.931 -0.5382 -0.2583 -0.2965
  148MOL0     O19428   6.431   7.136  10.799  1.0046  0.3508 -0.3370
  148MOL0     C19429   6.327   7.207  10.760 -0.1694 -0.1212  0.9632
  148MOL0     C19430   6.242   7.277  10.835  0.1176  1.2318 -0.4525
  148MOL0     C19431   6.127   7.340  10.782  0.8366 -0.2755 -0.0456
  148MOL0     C19432   6.102   7.343  10.641  0.5218 -0.0779  0.1576
  148MOL0     C19433   5.981   7.410  10.581  0.7704 -0.5450  0.0448
  148MOL0     O19434   5.885   7.461  10.668 -0.1456  0.0252 -0.1051
  148MOL0     C19435   5.787   7.539  10.621 -0.2074  0.4465  0.4564
  148MOL0     C19436   5.726   7.515  10.495 -0.5819 -0.6239  0.0575
  148MOL0     C19437   5.614   7.599  10.467 -0.4022 -0.1645  0.7624
  148MOL0     C19438   5.570   7.700  10.552  0.3130 -0.3010 -0.8197
  148MOL0     O19439   5.453   7.763  10.517 -0.5248  0.3962  0.7587
  148MOL0     C19440   5.387   7.848  10.606  0.4038 -0.6385  0.7198
  148MOL0     C19441   5.289   7.931  10.528 -0.0310  0.1122  0.3229
  148MOL0     C19442   5.188   8.001  10.614  0.5631 -0.4045  0.4956
  148MOL0     C19443   5.088   8.087  10.532 -0.0085 -0.4942 -0.5629
  148MOL0     C19444   5.013   8.178  10.625  0.7670  0.7231  0.0293
  148MOL0     C19445   4.897   8.101  10.695 -1.2121  0.2100  0.7544
  148MOL0     C19446   4.791   8.187  10.752 -0.2625 -0.2413 -0.2957
  148MOL0     C19447   4.697   8.114  10.858  0.2603 -0.3792 -0.4519
  148MOL0    Cl19448   4.785   8.045  11.004  0.1246  0.0039 -0.6374
  148MOL0     C19449   5.637   7.718  10.675 -0.6929 -0.1359 -0.5894
  148MOL0     C19450   5.738   7.633  10.716 -1.0872  0.3347 -0.3520
  148MOL0     O19451   5.984   7.404  10.461  0.5330 -0.5182  0.0303
  148MOL0     C19452   6.193   7.267  10.562 -0.5082 -0.0654  0.3329
  148MOL0     C19453   6.308   7.200  10.615 -0.2368  0.3638 -0.8628
  148MOL0     N19454   6.961   7.246  11.259  0.2522  0.1301  0.1939
  148MOL0     N19455   7.028   7.184  11.350 -1.1632  0.0332  0.7175
  148MOL0     C19456   8.261   7.253  11.125  0.2172 -0.0494  0.7888
  148MOL0     C19457   8.398   7.219  11.096 -0.3232  0.3475 -0.5968
  148MOL0     C19458   8.771   7.018  10.897 -0.1144 -0.0694 -0.1519
  148MOL0     C19459   8.824   7.142  10.932 -0.7847 -0.6673  0.5815
  148MOL0     C19460   8.956   7.172  10.895 -0.2284 -0.0518 -0.7013
  148MOL0     C19461   9.029   7.082  10.813  1.0421  0.8580 -1.2008
  148MOL0     O19462   9.159   7.109  10.798  0.1427  0.0840  0.7660
  148MOL0     C19463   9.254   7.009  10.758  1.2444 -0.5085 -0.0783
  148MOL0     C19464   9.389   7.065  10.733 -0.3776  0.2236 -0.3928
  148MOL0     C19465   9.401   7.207  10.666 -0.2223 -0.4628 -0.2766
  148MOL0     C19466   9.546   7.250  10.643  0.2488  0.0175 -0.0389
  148MOL0     C19467   9.572   7.388  10.615  0.1370 -0.2224  0.2788
  148MOL0     C19468   9.579   7.503  10.577  0.2759 -0.2317 -0.6932
  148MOL0     C19469   8.962   6.962  10.773 -0.4160 -0.5365  0.2212
  148MOL0     C19470   8.844   6.926  10.821 -0.4676  0.7803  0.6304
  148MOL0     H19471   8.398   6.893  11.047 -0.4163  0.1729 -2.0553
  148MOL0     H19472   8.136   6.936  11.073  2.4871 -2.4894  0.5730
  148MOL0     H19473   7.974   7.004  11.203  0.0587 -0.1741 -0.1483
  148MOL0     H19474   7.915   7.066  11.051  0.7171  0.3168 -0.8429
  148MOL0     H19475   7.761   7.234  11.190 -0.9782  0.0478  0.3115
  148MOL0     H19476   7.844   7.162  11.326  2.5294  1.4697 -1.2748
  148MOL0     H19477   7.757   6.934  11.260  0.0273 -0.4372 -1.1999
  148MOL0     H19478   7.669   6.995  11.130  1.5760  0.9045 -1.4433
  148MOL0     H19479   7.627   7.080  11.421 -0.4942  0.5248  0.5230
  148MOL0     H19480   7.545   7.152  11.281  0.0448 -0.4393 -0.8566
  148MOL0     H19481   7.526   6.878  11.399  0.9675  2.3594  1.9766
  148MOL0     H19482   7.469   6.901  11.238 -1.3473  1.5102 -0.6742
  148MOL0     H19483   7.317   7.089  11.328 -0.6593 -0.2662 -1.2662
  148MOL0     H19484   7.352   7.005  11.492  2.1414 -0.6496  0.0709
  148MOL0     H19485   7.228   6.893  11.242  0.8972  1.5805  0.0519
  148MOL0     H19486   7.243   6.805  11.401 -1.6865 -0.7146  0.1705
  148MOL0     H19487   7.108   6.992  11.491 -0.1171  0.0044 -0.2620
  148MOL0     H19488   7.030   6.856  11.389  0.7222 -0.7198 -0.8834
  148MOL0     H19489   6.968   6.941  11.134 -2.7976  1.1047 -2.1781
  148MOL0     H19490   6.880   7.180  10.950 -0.0422 -0.5721  1.9288
  148MOL0     H19491   6.833   7.321  11.040  0.5556  0.6034  4.0239
  148MOL0     H19492   6.646   7.214  11.142 -1.8787 -0.8998 -1.1293
  148MOL0     H19493   6.699   7.055  11.066 -0.8772 -0.1987  0.4839
  148MOL0     H19494   6.597   7.301  10.895 -2.7067 -1.9981 -4.9029
  148MOL0     H19495   6.672   7.154  10.841  0.3086 -1.3080  0.1620
  148MOL0     H19496   6.423   7.183  11.008  0.1919 -0.6885  0.5560
  148MOL0     H19497   6.493   7.029  10.975  2.8603 -0.8632 -2.4309
  148MOL0     H19498   6.244   7.277  10.944 -1.9241 -1.9276 -0.2884
  148MOL0     H19499   6.053   7.383  10.848  0.9292  0.0281 -0.1373
  148MOL0     H19500   5.761   7.445  10.419  2.2182 -0.3830  0.9843
  148MOL0     H19501   5.560   7.576  10.376  1.3598  2.2094 -0.9690
  148MOL0     H19502   5.455   7.921  10.650  0.6899 -1.4230  1.6395
  148MOL0     H19503   5.328   7.798  10.684  2.2111 -2.1586  1.1878
  148MOL0     H19504   5.233   7.860  10.466 -0.7316  0.7490  0.2053
  148MOL0     H19505   5.326   8.004  10.455 -0.8771 -0.6970 -0.9804
  148MOL0     H19506   5.245   8.063  10.683  1.4186 -0.1721 -0.4012
  148MOL0     H19507   5.123   7.934  10.671 -3.1858  1.0494 -1.6844
  148MOL0     H19508   5.141   8.148  10.459 -0.8459 -0.0347 -0.7979
  148MOL0     H19509   5.015   8.027  10.478  0.0330  0.4195 -1.6599
  148MOL0     H19510   4.980   8.256  10.556  1.7481  0.9429 -0.2067
  148MOL0     H19511   5.085   8.228  10.690  1.0635  0.6326 -0.2304
  148MOL0     H19512   4.928   8.029  10.770  0.3369  2.3574  2.2869
  148MOL0     H19513   4.841   8.054  10.613 -2.0783 -0.9868  1.9891
  148MOL0     H19514   4.839   8.280  10.785 -0.8700 -0.3189  0.8525
  148MOL0     H19515   4.728   8.226  10.671  2.3800  2.1530 -1.3748
  148MOL0     H19516   4.637   8.034  10.813 -0.4105 -0.8806  1.2390
  148MOL0     H19517   4.617   8.178  10.896 -0.3196 -1.0235 -0.5777
  148MOL0     H19518   5.598   7.787  10.749 -0.4443  2.0687 -2.3861
  148MOL0     H19519   5.790   7.629  10.811 -1.0944  1.1076 -0.3088
  148MOL0     H19520   6.174   7.261  10.455  0.4104 -0.4253  0.1813
  148MOL0     H19521   6.384   7.149  10.556  0.5404  0.6483 -0.1364
  148MOL0     H19522   8.226   7.354  11.142  2.2901  0.6090  1.4602
  148MOL0     H19523   8.465   7.303  11.082  0.5183 -0.2840 -0.4042
  148MOL0     H19524   8.768   7.219  10.983 -0.3470 -0.4963  0.8101
  148MOL0     H19525   9.000   7.269  10.916  3.4798 -1.8210  0.6824
  148MOL0     H19526   9.209   6.961  10.671 -0.1920  2.0896 -0.8562
  148MOL0     H19527   9.272   6.924  10.825  3.2307 -0.4640 -0.4817
  148MOL0     H19528   9.434   7.068  10.833 -3.0766 -0.1111  0.9176
  148MOL0     H19529   9.443   6.989  10.675 -0.9381 -0.8247  0.4311
  148MOL0     H19530   9.340   7.281  10.718 -2.0459 -0.8873 -1.7218
  148MOL0     H19531   9.354   7.197  10.568 -1.6837  2.2702  0.0621
  148MOL0     H19532   9.595   7.226  10.738 -0.4972 -1.7337 -0.0599
  148MOL0     H19533   9.581   7.185  10.563  2.0944 -0.2374  0.9303
  148MOL0     H19534   9.578   7.602  10.534 -1.0380  0.4412  0.8002
  148MOL0     H19535   9.015   6.895  10.706  0.3364  0.0769  0.1860
  148MOL0     H19536   8.805   6.826  10.804 -1.7332  1.7743 -3.1693
  149MOL0     O19537   8.572   1.492   6.236  0.2351  0.2458 -0.4741
  149MOL0     C19538   8.569   1.372   6.272 -0.2890  1.3512 -0.3674
  149MOL0     O19539   8.469   1.313   6.352  0.3111 -0.6091  0.2382
  149MOL0     C19540   8.353   1.380   6.373 -0.3965  0.1260 -0.0203
  149MOL0     C19541   8.233   1.320   6.333 -0.7547 -0.0525 -0.1426
  149MOL0     C19542   8.107   1.384   6.359  0.0889  0.1232  0.1309
  149MOL0     C19543   8.110   1.510   6.427 -0.2105  0.3422 -0.0994
  149MOL0     O19544   7.998   1.567   6.481  0.3417 -0.1000 -0.3609
  149MOL0     C19545   7.863   1.513   6.477  0.8670  0.0417 -0.4048
  149MOL0     C19546   7.755   1.600   6.543  0.8019 -0.8812  0.2675
  149MOL0     C19547   7.738   1.737   6.482 -0.7968 -0.2880  0.2963
  149MOL0     C19548   7.615   1.809   6.532 -0.3958  0.1721  0.8562
  149MOL0     C19549   7.596   1.950   6.464  0.1930 -0.2216 -0.4587
  149MOL0     C19550   7.475   2.013   6.519 -0.7926  0.1164 -0.5588
  149MOL0     C19551   7.470   2.164   6.479 -0.2242 -0.0578 -0.2832
  149MOL0     C19552   7.399   2.258   6.572  0.7251 -0.9244 -0.3835
  149MOL0     N19553   7.256   2.231   6.569 -0.4013 -0.1862  0.1408
  149MOL0     C19554   7.151   2.308   6.519 -0.7365  0.5285  0.5208
  149MOL0     C19555   7.039   2.229   6.527  0.1327  0.1738 -0.1223
  149MOL0     C19556   6.900   2.260   6.497 -0.0808 -0.4253  0.0674
  149MOL0     C19557   6.850   2.199   6.369  0.9068  0.5060 -0.1897
  149MOL0     C19558   6.727   2.254   6.292 -0.7976 -0.7482 -0.2897
  149MOL0     C19559   6.767   2.368   6.193  0.0576  0.0223 -0.4407
  149MOL0     O19560   6.791   2.494   6.273 -0.7667  0.1117  0.3155
  149MOL0     C19561   6.687   2.564   6.331  0.1874 -0.7454 -0.2567
  149MOL0     C19562   6.550   2.545   6.311 -0.6524  0.0242  1.3260
  149MOL0     C19563   6.453   2.625   6.371  0.1228  0.5247 -0.0002
  149MOL0     C19564   6.486   2.723   6.461  0.8942 -0.2229 -0.4904
  149MOL0     C19565   6.382   2.819   6.516 -0.9310  0.9117  0.1327
  149MOL0     O19566   6.274   2.848   6.437  0.4061  0.3851 -0.6371
  149MOL0     C19567   6.179   2.931   6.491  0.8809  0.7798  0.0937
  149MOL0     C19568   6.194   3.060   6.485 -0.2487  0.4887  0.6103
  149MOL0     C19569   6.091   3.147   6.522  0.2373  0.3601 -0.7352
  149MOL0     C19570   5.972   3.096   6.576 -0.6021 -0.4415 -0.7712
  149MOL0     O19571   5.882   3.199   6.605 -0.1822  0.2363  0.2373
  149MOL0     C19572   5.765   3.160   6.673 -0.2811 -1.1553 -0.4984
  149MOL0     C19573   5.661   3.264   6.649  0.3513 -0.2835 -0.8817
  149MOL0     C19574   5.581   3.256   6.518 -1.1409 -0.1648  0.3393
  149MOL0     C19575   5.490   3.378   6.499 -0.1039 -0.3689  0.1640
  149MOL0     C19576   5.408   3.348   6.373 -0.2074  0.2318 -0.2294
  149MOL0     C19577   5.327   3.478   6.338  0.7286 -0.4469 -0.2444
  149MOL0     C19578   5.256   3.465   6.198 -0.3445 -0.0123  0.3191
  149MOL0     C19579   5.203   3.600   6.138  0.4447 -0.6367 -0.0284
  149MOL0    Cl19580   5.083   3.673   6.245 -0.1804  0.1558 -0.1233
  149MOL0     C19581   5.958   2.956   6.587  0.5285 -0.3983 -0.1693
  149MOL0     C19582   6.060   2.876   6.534  0.8459 -0.7607 -0.4605
  149MOL0     O19583   6.406   2.855   6.633 -0.4532 -0.0432 -0.0758
  149MOL0     C19584   6.623   2.740   6.487 -0.6742 -1.4358  0.5574
  149MOL0     C19585   6.720   2.670   6.422  0.4838 -0.1440  0.2075
  149MOL0     N19586   7.076   2.111   6.580  0.6029  0.0941  0.9493
  149MOL0     N19587   7.200   2.109   6.601 -1.1202 -0.6041 -0.7112
  149MOL0     C19588   8.233   1.568   6.463 -0.3135 -0.5858 -0.7911
  149MOL0     C19589   8.352   1.504   6.437 -0.3989  1.0638  0.4743
  149MOL0     C19590   8.678   1.289   6.226  0.0411 -0.3924 -0.1006
  149MOL0     C19591   8.768   1.331   6.126  0.2300 -0.4843  0.6580
  149MOL0     C19592   8.867   1.245   6.082 -0.7187  0.8924 -0.0816
  149MOL0     C19593   8.879   1.113   6.128  0.0264  0.0122 -0.5363
  149MOL0     O19594   8.977   1.031   6.075 -0.0587  0.3953  0.4303
  149MOL0     C19595   9.080   0.980   6.169 -0.0340 -0.1951  0.8186
  149MOL0     C19596   9.161   0.873   6.090  0.0697 -0.7773 -0.2241
  149MOL0     C19597   9.229   0.942   5.974 -0.7960 -0.0720 -0.6527
  149MOL0     C19598   9.354   1.027   6.013  0.2964  1.0376 -0.2046
  149MOL0     C19599   9.439   1.040   5.896 -0.0798 -0.5322  0.2907
  149MOL0     C19600   9.507   1.035   5.802 -0.7524  0.1303  0.2584
  149MOL0     C19601   8.792   1.074   6.232 -0.2720  0.2697  0.2726
  149MOL0     C19602   8.695   1.158   6.278  0.2442  0.9489 -0.5162
  149MOL0     H19603   8.244   1.223   6.286  3.0188  0.5174 -0.7582
  149MOL0     H19604   8.017   1.342   6.316  0.1164  0.6338 -0.4360
  149MOL0     H19605   7.854   1.414   6.521  1.9808 -0.7307 -1.8059
  149MOL0     H19606   7.833   1.497   6.373 -1.0804 -1.6036  0.3556
  149MOL0     H19607   7.785   1.628   6.644 -1.5001  0.0075  0.7872
  149MOL0     H19608   7.660   1.547   6.555 -0.2243  0.3745 -1.7607
  149MOL0     H19609   7.731   1.732   6.373  0.1207 -0.3482  0.2382
  149MOL0     H19610   7.825   1.800   6.501 -1.3617  0.4969  0.3248
  149MOL0     H19611   7.526   1.751   6.506 -2.1189  2.3915  1.4451
  149MOL0     H19612   7.625   1.828   6.640 -0.7074  0.8578  0.7673
  149MOL0     H19613   7.592   1.937   6.356  1.1156  0.2633 -0.5675
  149MOL0     H19614   7.679   2.020   6.477 -0.6959  1.1307 -1.7676
  149MOL0     H19615   7.488   2.013   6.627 -1.0743  2.6848 -0.4670
  149MOL0     H19616   7.382   1.956   6.509  0.6991 -3.2568  2.5681
  149MOL0     H19617   7.572   2.202   6.466  0.3440 -1.6558 -0.7903
  149MOL0     H19618   7.417   2.174   6.384 -2.1368  0.8329  0.8247
  149MOL0     H19619   7.410   2.363   6.544  0.8933 -1.4484 -2.4485
  149MOL0     H19620   7.421   2.228   6.675 -0.7629 -2.2398 -0.4045
  149MOL0     H19621   7.168   2.405   6.475  0.1230 -0.5119 -1.6236
  149MOL0     H19622   6.893   2.369   6.484  0.4191 -0.0073  2.7136
  149MOL0     H19623   6.835   2.232   6.580 -0.5769  2.3155  0.6968
  149MOL0     H19624   6.835   2.091   6.381  2.3473  0.4210  1.2186
  149MOL0     H19625   6.936   2.203   6.302  0.2496 -0.7573 -1.1363
  149MOL0     H19626   6.691   2.169   6.233 -0.2590 -0.0169 -1.7274
  149MOL0     H19627   6.656   2.298   6.363 -0.6382  2.8437 -2.1172
  149MOL0     H19628   6.691   2.367   6.114  0.1592  2.6742 -0.6401
  149MOL0     H19629   6.858   2.341   6.138 -0.0790 -1.5805  0.0511
  149MOL0     H19630   6.518   2.462   6.249 -1.3406  0.0291  1.6653
  149MOL0     H19631   6.349   2.613   6.344  0.4518  1.5764 -1.9055
  149MOL0     H19632   6.280   3.104   6.434 -1.4269 -0.1662 -2.0899
  149MOL0     H19633   6.122   3.250   6.508 -1.1195  1.0792  1.1404
  149MOL0     H19634   5.791   3.158   6.779  2.8173  1.1949 -1.0917
  149MOL0     H19635   5.726   3.066   6.631 -0.4160 -2.1151  1.6716
  149MOL0     H19636   5.700   3.365   6.655  0.9097 -0.5880  3.1278
  149MOL0     H19637   5.591   3.260   6.732 -0.3102  3.0836 -1.1391
  149MOL0     H19638   5.522   3.165   6.505 -0.9906 -0.2505  0.2532
  149MOL0     H19639   5.647   3.255   6.430 -3.0648  0.6515 -1.1946
  149MOL0     H19640   5.421   3.411   6.578 -0.9871  1.0874 -1.1471
  149MOL0     H19641   5.560   3.461   6.482  2.1480 -2.0700  0.6644
  149MOL0     H19642   5.352   3.255   6.389 -1.7188  1.3551  1.4712
  149MOL0     H19643   5.477   3.335   6.290  2.7568  1.6598  1.8380
  149MOL0     H19644   5.391   3.567   6.339  1.5034 -0.9483 -2.0236
  149MOL0     H19645   5.258   3.489   6.422  1.1122 -1.3964  0.2045
  149MOL0     H19646   5.326   3.420   6.127 -0.6351 -0.6973  0.4593
  149MOL0     H19647   5.178   3.389   6.208  0.4633 -0.8619  0.2998
  149MOL0     H19648   5.165   3.576   6.038  3.8800 -0.5746 -1.4955
  149MOL0     H19649   5.279   3.678   6.136 -0.4726  0.4304  2.5284
  149MOL0     H19650   5.865   2.907   6.615  0.9634 -0.8639  0.4724
  149MOL0     H19651   6.049   2.768   6.529  0.3596 -0.6945 -1.0135
  149MOL0     H19652   6.647   2.817   6.559 -0.9176 -0.7582 -0.0770
  149MOL0     H19653   6.825   2.686   6.444  0.4378 -0.6529  0.8204
  149MOL0     H19654   8.235   1.653   6.530 -2.2785 -0.5706 -0.6930
  149MOL0     H19655   8.448   1.548   6.464  0.0686  2.6116 -3.1096
  149MOL0     H19656   8.763   1.431   6.085 -3.3638 -0.1334  1.5991
  149MOL0     H19657   8.935   1.268   6.001 -1.2514  0.4413 -0.6690
  149MOL0     H19658   9.046   0.919   6.253  1.3943 -2.1895  0.0266
  149MOL0     H19659   9.135   1.068   6.204 -1.1847  0.5404  0.8321
  149MOL0     H19660   9.233   0.825   6.157 -1.0968 -0.9511  0.9320
  149MOL0     H19661   9.085   0.802   6.055 -1.9036  1.3881 -0.5420
  149MOL0     H19662   9.161   1.004   5.916  1.1685  2.5951 -0.2901
  149MOL0     H19663   9.262   0.858   5.912 -0.1759 -1.1040  1.0087
  149MOL0     H19664   9.318   1.126   6.043  0.2659  0.9385  0.0864
  149MOL0     H19665   9.410   0.975   6.091  0.0874  0.0710 -0.6741
  149MOL0     H19666   9.567   1.050   5.715 -1.7409 -0.6960 -0.5825
  149MOL0     H19667   8.794   0.978   6.282  0.7749 -0.2267 -0.6811
  149MOL0     H19668   8.638   1.126   6.364  2.9349 -0.2795  0.9334
  150MOL0     O19669   0.858   9.604   9.425 -0.0968  0.5439 -0.2715
  150MOL0     C19670   0.891   9.543   9.529 -0.7855 -0.8141 -0.2835
  150MOL0     O19671   0.803   9.523   9.631 -0.1789  0.1908 -0.0943
  150MOL0     C19672   0.674   9.575   9.619 -0.2980 -0.2243  0.4468
  150MOL0     C19673   0.573   9.476   9.633  0.1467  0.2198 -0.0038
  150MOL0     C19674   0.444   9.528   9.642  0.6753  0.2642  0.0919
  150MOL0     C19675   0.406   9.663   9.636  0.4310 -1.3553 -0.6821
  150MOL0     O19676   0.278   9.708   9.648 -0.1464 -0.6585 -0.1053
  150MOL0     C19677   0.247   9.796   9.751  0.0073 -0.0421  0.2335
  150MOL0     C19678   0.095   9.844   9.745 -0.2851  0.2050  0.6192
  150MOL0     C19679  -0.006   9.732   9.753  0.0457 -0.4406  0.4428
  150MOL0     C19680  -0.146   9.787   9.786  0.4473  0.2313 -0.2361
  150MOL0     C19681  -0.238   9.663   9.792 -0.0377  0.7471 -0.0577
  150MOL0     C19682  -0.389   9.707   9.802  0.0373 -0.3204  0.6890
  150MOL0     C19683  -0.430   9.748   9.942  0.3988 -0.2181 -0.1320
  150MOL0     C19684  -0.586   9.756   9.944  0.3511 -0.2262 -0.1755
  150MOL0     N19685  -0.656   9.658  10.028  0.4322  0.1817 -0.5554
  150MOL0     C19686  -0.765   9.586   9.982 -0.3640  0.2128 -0.0848
  150MOL0     C19687  -0.820   9.525  10.091 -0.3827  0.4893  0.2479
  150MOL0     C19688  -0.935   9.422  10.084 -0.0024  0.2545 -0.0594
  150MOL0     C19689  -1.075   9.480  10.065 -0.1148 -0.0070 -0.9171
  150MOL0     C19690  -1.118   9.546  10.201  0.3983 -0.0823 -0.1326
  150MOL0     C19691  -1.259   9.615  10.203 -0.6597  0.3485  0.2544
  150MOL0     O19692  -1.295   9.645  10.068  0.4764  0.3178 -0.1454
  150MOL0     C19693  -1.402   9.572  10.024  0.2192 -0.4072 -1.1919
  150MOL0     C19694  -1.496   9.642   9.955  0.2678 -0.6305 -0.2403
  150MOL0     C19695  -1.610   9.579   9.917  0.4518 -0.3052  0.6004
  150MOL0     C19696  -1.637   9.451   9.950 -0.3670  0.4162 -0.8250
  150MOL0     C19697  -1.761   9.390   9.913  0.0808 -0.2101  0.3306
  150MOL0     O19698  -1.856   9.465   9.840 -0.5850  0.3116  0.0679
  150MOL0     C19699  -1.983   9.411   9.809 -0.3976 -0.0138  0.0089
  150MOL0     C19700  -2.039   9.456   9.684 -1.2002 -0.1584  0.3463
  150MOL0     C19701  -2.150   9.404   9.628  0.4491 -0.2051 -0.3529
  150MOL0     C19702  -2.222   9.307   9.692 -0.1241 -0.1567 -0.1320
  150MOL0     O19703  -2.330   9.245   9.642  0.1148 -0.1358 -0.5324
  150MOL0     C19704  -2.326   9.192   9.507  0.0816 -0.1160 -0.5396
  150MOL0     C19705  -2.464   9.184   9.445  0.9677  0.9961  0.1261
  150MOL0     C19706  -2.485   9.105   9.316 -0.0863  0.9771  0.7780
  150MOL0     C19707  -2.473   8.959   9.330 -0.4327 -0.2461  0.4716
  150MOL0     C19708  -2.490   8.901   9.180 -0.4129  0.8782  0.4570
  150MOL0     C19709  -2.469   8.757   9.178 -0.6477  0.2431 -0.1513
  150MOL0     C19710  -2.533   8.684   9.061 -0.5353  0.5964 -0.4060
  150MOL0     C19711  -2.472   8.548   9.050  0.5363  0.5056  1.2200
  150MOL0    Cl19712  -2.480   8.458   9.200 -0.1063 -0.4450  0.4945
  150MOL0     C19713  -2.178   9.261   9.816 -0.1961 -0.3329  0.3115
  150MOL0     C19714  -2.053   9.312   9.868 -0.6453  0.4865 -0.6685
  150MOL0     O19715  -1.769   9.268   9.931  1.0830 -0.4194 -0.2477
  150MOL0     C19716  -1.549   9.386  10.033 -0.1667  0.5705 -0.3071
  150MOL0     C19717  -1.430   9.438  10.067 -0.5229 -0.9337  0.0086
  150MOL0     N19718  -0.753   9.559  10.207 -0.3448 -0.8400 -0.5043
  150MOL0     N19719  -0.657   9.644  10.170 -0.1901 -0.1396 -0.0476
  150MOL0     C19720   0.515   9.755   9.631  0.4081 -0.1756  0.4884
  150MOL0     C19721   0.640   9.711   9.624 -0.1424 -0.0916 -1.6781
  150MOL0     C19722   1.035   9.494   9.539 -0.0375  0.0350  0.6664
  150MOL0     C19723   1.132   9.534   9.448 -0.4537  0.2255  0.2172
  150MOL0     C19724   1.265   9.495   9.460 -0.7488 -0.1685  0.1657
  150MOL0     C19725   1.304   9.401   9.570 -1.0963  0.1015  0.0935
  150MOL0     O19726   1.435   9.350   9.592 -0.3122 -0.3030  0.0489
  150MOL0     C19727   1.543   9.396   9.510  0.2119  0.2989 -0.6479
  150MOL0     C19728   1.657   9.286   9.506 -0.6350  0.1821  0.9127
  150MOL0     C19729   1.780   9.328   9.426 -0.2713 -0.7566  0.0343
  150MOL0     C19730   1.846   9.462   9.461  0.2507 -0.0585  0.4825
  150MOL0     C19731   1.983   9.497   9.399 -0.4083 -0.0400 -0.4356
  150MOL0     C19732   2.105   9.506   9.363  0.5508 -1.2201  0.1661
  150MOL0     C19733   1.201   9.353   9.653  0.8073 -0.3339  0.0533
  150MOL0     C19734   1.066   9.398   9.642  0.2812 -0.4387 -0.2365
  150MOL0     H19735   0.590   9.370   9.649  0.0905  0.5898  3.1565
  150MOL0     H19736   0.359   9.469   9.675 -1.1397  2.6600 -0.0110
  150MOL0     H19737   0.310   9.885   9.757  1.3120 -1.0136  3.7557
  150MOL0     H19738   0.262   9.752   9.850 -0.7719  1.2761  0.9768
  150MOL0     H19739   0.084   9.897   9.650 -1.4522  1.3009  1.3413
  150MOL0     H19740   0.079   9.914   9.827 -0.8717 -0.8365  1.4110
  150MOL0     H19741   0.028   9.669   9.835  0.2748 -2.2321 -0.9743
  150MOL0     H19742   0.001   9.664   9.668 -0.4248 -2.0042  1.6170
  150MOL0     H19743  -0.134   9.839   9.882  3.0775 -2.5325  1.1110
  150MOL0     H19744  -0.178   9.850   9.703 -1.4878 -0.7539 -0.3098
  150MOL0     H19745  -0.214   9.590   9.870 -1.8498 -0.8220 -0.9001
  150MOL0     H19746  -0.222   9.610   9.697  2.0668 -0.5917  0.9613
  150MOL0     H19747  -0.448   9.618   9.778  1.0096 -0.8188  0.0539
  150MOL0     H19748  -0.409   9.794   9.739 -1.8752 -0.8454  0.5263
  150MOL0     H19749  -0.384   9.681  10.015  0.5974  0.5020  0.4149
  150MOL0     H19750  -0.395   9.850   9.962 -0.0189  0.6689 -3.3003
  150MOL0     H19751  -0.628   9.755   9.842  0.2631  1.8003 -0.1862
  150MOL0     H19752  -0.610   9.852   9.990  1.1513  0.5630 -1.3241
  150MOL0     H19753  -0.803   9.558   9.884  1.3318 -0.5643 -0.5717
  150MOL0     H19754  -0.916   9.346  10.161 -1.5587 -1.2170 -1.0647
  150MOL0     H19755  -0.931   9.365   9.991 -1.5262  1.0842 -0.6720
  150MOL0     H19756  -1.152   9.407  10.040 -2.4963  1.6544  1.0500
  150MOL0     H19757  -1.064   9.556   9.987  1.5928  0.2004 -0.5144
  150MOL0     H19758  -1.110   9.489  10.294 -1.6805  0.4521  0.4164
  150MOL0     H19759  -1.048   9.628  10.222  0.8040  0.5303 -3.3775
  150MOL0     H19760  -1.251   9.706  10.262 -0.2748  1.0711 -0.8821
  150MOL0     H19761  -1.329   9.551  10.257  0.5075  0.0604  1.4722
  150MOL0     H19762  -1.485   9.748   9.934 -0.4068 -0.4585  0.2666
  150MOL0     H19763  -1.684   9.636   9.863  2.7075 -0.5442 -3.1112
  150MOL0     H19764  -1.981   9.534   9.636 -1.1438 -1.9455 -2.7247
  150MOL0     H19765  -2.195   9.440   9.536 -0.9390 -0.2844  0.2766
  150MOL0     H19766  -2.294   9.087   9.512 -0.5227 -0.2472  1.8332
  150MOL0     H19767  -2.262   9.256   9.445  1.8234 -1.1728  0.0708
  150MOL0     H19768  -2.485   9.289   9.424  2.0601  1.3073  0.5439
  150MOL0     H19769  -2.534   9.150   9.522  0.2899 -1.9465 -1.6320
  150MOL0     H19770  -2.410   9.141   9.245 -0.3900 -0.1375 -0.1481
  150MOL0     H19771  -2.582   9.133   9.273 -0.2247 -1.0219 -0.3437
  150MOL0     H19772  -2.375   8.935   9.372 -1.2134 -0.1642  2.4381
  150MOL0     H19773  -2.554   8.927   9.396  0.1139  0.1494  1.3610
  150MOL0     H19774  -2.429   8.942   9.099  1.1670 -2.0617  0.0335
  150MOL0     H19775  -2.595   8.913   9.153 -0.6336 -1.1537  0.2357
  150MOL0     H19776  -2.506   8.713   9.272 -2.9724  2.0480 -0.1372
  150MOL0     H19777  -2.361   8.743   9.175 -0.1862  1.9581  3.1630
  150MOL0     H19778  -2.641   8.685   9.081 -0.0327  1.8192  2.8032
  150MOL0     H19779  -2.506   8.748   8.976 -0.2710  0.2420 -0.5882
  150MOL0     H19780  -2.368   8.567   9.024  0.6230 -0.5425  0.7769
  150MOL0     H19781  -2.534   8.500   8.974  1.6870  1.8682 -0.6441
  150MOL0     H19782  -2.231   9.190   9.879  2.7222 -1.1955  1.9780
  150MOL0     H19783  -2.012   9.273   9.961 -1.9790  0.9917  0.1598
  150MOL0     H19784  -1.565   9.285  10.070  0.9204  0.2493 -0.6873
  150MOL0     H19785  -1.357   9.379  10.121 -0.8001 -1.9982 -0.7687
  150MOL0     H19786   0.495   9.862   9.636  2.7269  0.2597  2.9468
  150MOL0     H19787   0.719   9.785   9.626  2.4445 -2.6789 -0.0325
  150MOL0     H19788   1.106   9.599   9.365  0.5691  0.1886 -0.1473
  150MOL0     H19789   1.335   9.534   9.387 -0.8125 -0.1043  0.1396
  150MOL0     H19790   1.579   9.489   9.555  1.1503 -0.4160  0.1230
  150MOL0     H19791   1.511   9.407   9.406 -0.5238  0.2742 -0.4301
  150MOL0     H19792   1.691   9.256   9.606 -0.3318  0.1201  0.7916
  150MOL0     H19793   1.625   9.197   9.452  1.9375 -2.5728  3.4840
  150MOL0     H19794   1.749   9.333   9.321  1.2066 -0.7623 -0.4286
  150MOL0     H19795   1.860   9.253   9.427  0.7205  0.2666  1.7191
  150MOL0     H19796   1.769   9.534   9.432 -0.6188 -1.1773 -0.0296
  150MOL0     H19797   1.850   9.467   9.570 -1.4620 -0.3600  0.5796
  150MOL0     H19798   2.207   9.508   9.331  0.9689 -0.3331  1.4568
  150MOL0     H19799   1.225   9.275   9.725  0.2917 -0.0465  0.5523
  150MOL0     H19800   0.986   9.360   9.704  1.6566 -1.2005  1.1504
  151MOL0     O19801   7.961   8.273   8.187  0.5214 -0.7270  0.2428
  151MOL0     C19802   7.955   8.153   8.208 -0.5791 -0.3381  0.3141
  151MOL0     O19803   8.061   8.069   8.224  0.7166  0.1830 -0.6272
  151MOL0     C19804   8.191   8.111   8.222 -0.6422 -0.3225  0.1008
  151MOL0     C19805   8.227   8.223   8.300 -0.0478 -0.1854  0.2445
  151MOL0     C19806   8.360   8.248   8.307 -0.4201  0.3035  0.1860
  151MOL0     C19807   8.460   8.177   8.247  0.2585 -1.0442  0.5306
  151MOL0     O19808   8.586   8.220   8.281 -0.5881  0.5860  0.0157
  151MOL0     C19809   8.689   8.190   8.180 -0.7327 -0.2858  0.0563
  151MOL0     C19810   8.806   8.282   8.216 -0.1578  0.1079  0.1673
  151MOL0     C19811   8.845   8.274   8.363  0.3945  0.4703  0.5481
  151MOL0     C19812   8.970   8.354   8.399  0.0827  0.6977  0.1425
  151MOL0     C19813   9.006   8.331   8.548  0.7158 -0.3757  0.5849
  151MOL0     C19814   9.064   8.198   8.576 -0.5562  0.2755  0.3561
  151MOL0     C19815   9.116   8.175   8.714 -0.3896  0.2530 -0.1336
  151MOL0     C19816   9.169   8.025   8.732  0.2702 -0.1934 -0.3511
  151MOL0     N19817   9.059   7.916   8.721 -0.2829  0.6538 -0.0154
  151MOL0     C19818   8.967   7.880   8.820  0.1065 -0.3431 -0.2387
  151MOL0     C19819   8.883   7.791   8.761 -0.6214  0.4156 -0.5628
  151MOL0     C19820   8.763   7.742   8.824 -0.5797 -0.0116 -0.0744
  151MOL0     C19821   8.693   7.648   8.726  0.0746 -0.8612  0.1554
  151MOL0     C19822   8.550   7.618   8.777 -0.4262 -0.1710 -1.1767
  151MOL0     C19823   8.483   7.509   8.694 -0.4878  0.6634 -0.0141
  151MOL0     O19824   8.341   7.533   8.692 -0.0777 -0.4058  0.2974
  151MOL0     C19825   8.259   7.427   8.671 -1.4203 -0.7681  0.0195
  151MOL0     C19826   8.290   7.335   8.570  0.8946  0.3502  0.4378
  151MOL0     C19827   8.215   7.216   8.556  0.0727 -0.1509  0.4928
  151MOL0     C19828   8.115   7.188   8.651  0.2330 -0.2525  0.9367
  151MOL0     C19829   8.045   7.059   8.652  1.2778 -0.3928 -0.4216
  151MOL0     O19830   7.914   7.074   8.696 -0.3255 -0.8854 -0.9065
  151MOL0     C19831   7.814   6.981   8.673  0.3167 -0.2591 -0.8466
  151MOL0     C19832   7.707   6.975   8.767  0.0790  0.8038 -0.1849
  151MOL0     C19833   7.615   6.871   8.769 -0.0898  0.0386  0.1403
  151MOL0     C19834   7.613   6.777   8.660 -0.2501  0.7846 -0.1251
  151MOL0     O19835   7.516   6.674   8.664  0.1218  0.3144 -0.5368
  151MOL0     C19836   7.560   6.550   8.714  0.3088  0.9227 -0.0824
  151MOL0     C19837   7.445   6.503   8.801  0.0634 -0.0546 -0.9444
  151MOL0     C19838   7.307   6.503   8.738  0.8118 -0.6790  0.4512
  151MOL0     C19839   7.294   6.375   8.654 -0.0090 -0.5848 -0.2904
  151MOL0     C19840   7.177   6.393   8.552  0.1715 -0.7209  0.2095
  151MOL0     C19841   7.034   6.403   8.616  0.2498 -0.4743 -0.8046
  151MOL0     C19842   6.910   6.407   8.531 -0.1981  0.2211 -0.0615
  151MOL0     C19843   6.776   6.436   8.610 -0.2023 -0.0419  0.0760
  151MOL0    Cl19844   6.636   6.419   8.494 -0.6475 -0.0313 -0.1871
  151MOL0     C19845   7.721   6.776   8.571 -0.7836  0.6397  0.1110
  151MOL0     C19846   7.817   6.877   8.578  0.0560 -0.0270 -0.5735
  151MOL0     O19847   8.104   6.953   8.625 -0.0291  0.0722  0.1811
  151MOL0     C19848   8.090   7.295   8.746 -0.0699  0.7987 -0.0355
  151MOL0     C19849   8.156   7.411   8.755 -1.3323 -0.3810  0.6604
  151MOL0     N19850   8.926   7.776   8.629 -0.3498  0.0754  0.1255
  151MOL0     N19851   9.025   7.854   8.603 -0.5299  0.7444 -0.5296
  151MOL0     C19852   8.431   8.067   8.171  1.2798  0.4134  0.5898
  151MOL0     C19853   8.291   8.032   8.164  0.2055 -0.8579 -0.2912
  151MOL0     C19854   7.832   8.074   8.192  0.2463 -0.1750  0.8666
  151MOL0     C19855   7.703   8.132   8.186 -0.1361  0.8386 -0.0643
  151MOL0     C19856   7.588   8.061   8.186  0.4964 -0.2936 -0.4508
  151MOL0     C19857   7.584   7.920   8.193 -0.3614 -0.0100 -0.3877
  151MOL0     O19858   7.461   7.853   8.227 -0.3093 -0.0507 -0.4264
  151MOL0     C19859   7.467   7.713   8.238 -0.3380  0.3214 -0.5416
  151MOL0     C19860   7.452   7.639   8.110  0.8283 -0.0176 -0.1367
  151MOL0     C19861   7.462   7.489   8.130  0.3861  0.3697  0.1327
  151MOL0     C19862   7.441   7.405   8.001 -0.1538 -0.2314 -0.4494
  151MOL0     C19863   7.319   7.439   7.930 -0.7370  0.2640  0.2423
  151MOL0     C19864   7.215   7.463   7.881  0.6550  0.1056 -0.3531
  151MOL0     C19865   7.716   7.859   8.196  0.4228  0.1551  0.9545
  151MOL0     C19866   7.833   7.936   8.185 -0.1687  0.3486 -0.1221
  151MOL0     H19867   8.160   8.297   8.343 -0.0790  2.0335 -3.2328
  151MOL0     H19868   8.384   8.337   8.365 -1.2621  0.8930 -0.3305
  151MOL0     H19869   8.654   8.202   8.078 -1.7295  1.4341  0.5508
  151MOL0     H19870   8.724   8.090   8.205  0.8778  0.2256 -0.0174
  151MOL0     H19871   8.768   8.381   8.193  0.7094  0.1561 -1.1211
  151MOL0     H19872   8.898   8.255   8.164 -0.2762  0.4970 -0.2436
  151MOL0     H19873   8.863   8.168   8.381  0.9324  0.2137 -1.3326
  151MOL0     H19874   8.767   8.303   8.434  1.3791  1.5681  1.2242
  151MOL0     H19875   9.046   8.324   8.326  0.3143 -2.8426  1.6520
  151MOL0     H19876   8.950   8.462   8.397  1.2512  0.9363 -1.5787
  151MOL0     H19877   8.926   8.364   8.616  2.3059  2.1279  1.3915
  151MOL0     H19878   9.084   8.400   8.581  0.0127  1.4014 -1.2255
  151MOL0     H19879   9.154   8.197   8.514 -2.1266  0.2435 -2.0374
  151MOL0     H19880   8.997   8.117   8.545 -0.0588 -0.0308  0.0646
  151MOL0     H19881   9.203   8.238   8.731 -1.0772  0.8879  1.2033
  151MOL0     H19882   9.031   8.192   8.781 -2.3868 -2.5042 -1.7542
  151MOL0     H19883   9.202   8.024   8.836 -1.9272  1.7506  0.4615
  151MOL0     H19884   9.248   7.994   8.664  1.5556 -3.5480  2.3778
  151MOL0     H19885   8.955   7.918   8.922  1.1206  0.4656 -0.4011
  151MOL0     H19886   8.706   7.830   8.851 -2.1095 -0.1877 -2.4421
  151MOL0     H19887   8.798   7.688   8.913  1.4986  2.0478  0.4391
  151MOL0     H19888   8.750   7.560   8.695  2.3882 -0.1508  2.0544
  151MOL0     H19889   8.682   7.708   8.635  2.2097  0.5323  0.7405
  151MOL0     H19890   8.565   7.588   8.881 -1.0715  4.0903  0.3467
  151MOL0     H19891   8.493   7.711   8.788  2.1788  1.4505 -0.6340
  151MOL0     H19892   8.494   7.411   8.742 -0.7331  0.9703  0.6787
  151MOL0     H19893   8.517   7.507   8.590 -3.2599  4.1450 -1.2201
  151MOL0     H19894   8.362   7.356   8.491  1.8964 -3.6212  0.0510
  151MOL0     H19895   8.226   7.163   8.462 -1.9116  1.7760 -0.9308
  151MOL0     H19896   7.695   7.040   8.853  1.3534  0.5619  0.1856
  151MOL0     H19897   7.530   6.860   8.835  0.0399 -0.5350  0.2169
  151MOL0     H19898   7.654   6.571   8.765 -0.3967  2.1555  0.7695
  151MOL0     H19899   7.585   6.487   8.628  0.7214  2.4146 -1.1062
  151MOL0     H19900   7.442   6.561   8.895 -1.2127  0.8286 -1.4989
  151MOL0     H19901   7.468   6.401   8.833 -2.7011 -0.3146  0.6054
  151MOL0     H19902   7.274   6.587   8.677 -3.8713 -2.0800  0.6804
  151MOL0     H19903   7.236   6.497   8.821 -1.4508 -0.3936 -1.3851
  151MOL0     H19904   7.384   6.352   8.598 -0.5252  0.9587 -1.8673
  151MOL0     H19905   7.273   6.292   8.722 -0.6943  0.5152  0.8861
  151MOL0     H19906   7.182   6.306   8.485 -0.4017 -0.2493 -0.4631
  151MOL0     H19907   7.197   6.480   8.489  1.7031 -0.3954  1.1029
  151MOL0     H19908   7.026   6.492   8.679  0.1027 -1.8292  1.1648
  151MOL0     H19909   7.016   6.323   8.689  0.4060 -0.1456 -0.4010
  151MOL0     H19910   6.926   6.488   8.459  0.2494 -0.5922 -0.8971
  151MOL0     H19911   6.908   6.310   8.480 -2.4524 -0.5506  1.3590
  151MOL0     H19912   6.773   6.534   8.658 -1.4922 -1.1504  2.3958
  151MOL0     H19913   6.777   6.357   8.686  0.3861  0.6500  0.8010
  151MOL0     H19914   7.740   6.704   8.492 -1.6692  0.7611 -0.2236
  151MOL0     H19915   7.901   6.876   8.509  2.8986  0.5836  2.6273
  151MOL0     H19916   8.018   7.262   8.821  0.2466 -0.1098 -0.1125
  151MOL0     H19917   8.116   7.483   8.825  0.3375  2.7728 -1.4194
  151MOL0     H19918   8.499   7.991   8.133  0.8899 -0.3191  1.3046
  151MOL0     H19919   8.259   7.942   8.113  1.2101 -1.5049  0.1720
  151MOL0     H19920   7.694   8.239   8.178  2.9570  1.2634  0.8867
  151MOL0     H19921   7.494   8.114   8.190  1.7767  2.2164 -1.4943
  151MOL0     H19922   7.388   7.685   8.308 -0.6302 -0.1482 -1.0511
  151MOL0     H19923   7.561   7.680   8.284 -0.3887  0.1922 -0.5310
  151MOL0     H19924   7.362   7.671   8.056 -0.0936 -2.1246  0.0629
  151MOL0     H19925   7.533   7.664   8.042  0.0973  1.3028 -0.5565
  151MOL0     H19926   7.384   7.453   8.198 -0.1706 -0.3552 -0.8443
  151MOL0     H19927   7.556   7.464   8.179  1.0016  0.5440 -0.9338
  151MOL0     H19928   7.528   7.417   7.936 -0.7037 -1.3914 -1.4241
  151MOL0     H19929   7.442   7.300   8.032  4.1973 -0.0599  0.6332
  151MOL0     H19930   7.123   7.486   7.831  0.6796  0.0575 -0.4221
  151MOL0     H19931   7.734   7.752   8.209  1.8887  0.6168  3.4176
  151MOL0     H19932   7.919   7.870   8.177  1.6227  2.6143 -0.5036
  152MOL0     O19933   8.278  10.686   2.853  0.1323 -0.0980  0.7272
  152MOL0     C19934   8.353  10.614   2.913  0.4767  0.6805 -0.3015
  152MOL0     O19935   8.327  10.487   2.947  0.5682  0.4466 -0.0707
  152MOL0     C19936   8.202  10.434   2.917  0.7912  0.7176 -0.6538
  152MOL0     C19937   8.150  10.428   2.787  0.1695  0.6257 -0.2189
  152MOL0     C19938   8.032  10.363   2.750 -0.1395 -0.0606  0.7572
  152MOL0     C19939   7.953  10.300   2.845 -0.1680  0.3675 -1.0213
  152MOL0     O19940   7.823  10.251   2.824  0.2049  0.6156 -0.1792
  152MOL0     C19941   7.763  10.308   2.704  0.3702 -0.2711  0.1326
  152MOL0     C19942   7.614  10.281   2.715 -0.1666 -0.1673  0.4720
  152MOL0     C19943   7.550  10.335   2.589  0.0409 -0.1046 -0.0644
  152MOL0     C19944   7.410  10.267   2.555 -0.3634  0.1788  0.6490
  152MOL0     C19945   7.337  10.357   2.460  0.2023  0.1561  0.4318
  152MOL0     C19946   7.284  10.483   2.516  0.1450 -0.9885 -0.4964
  152MOL0     C19947   7.227  10.478   2.664  0.0121 -0.8546  1.0181
  152MOL0     C19948   7.100  10.386   2.677 -0.0672 -0.1647  0.5570
  152MOL0     N19949   6.977  10.457   2.673 -0.0594 -0.9515  1.9467
  152MOL0     C19950   6.903  10.466   2.557 -0.4378 -0.0420  0.8091
  152MOL0     C19951   6.792  10.527   2.590 -0.3734 -0.7469 -0.5734
  152MOL0     C19952   6.678  10.566   2.508 -0.3738 -0.2059 -0.4767
  152MOL0     C19953   6.545  10.511   2.563  0.9818  0.2639 -0.4182
  152MOL0     C19954   6.424  10.552   2.470 -0.3174  0.0358 -0.4656
  152MOL0     C19955   6.301  10.484   2.522 -0.0965  0.2945 -0.0378
  152MOL0     O19956   6.180  10.511   2.451  0.0891  0.6050  0.4077
  152MOL0     C19957   6.066  10.546   2.519  0.6745 -0.0028  0.0073
  152MOL0     C19958   5.950  10.499   2.458  0.5596 -0.5939  0.1689
  152MOL0     C19959   5.819  10.526   2.509 -0.6588  0.9613 -0.4065
  152MOL0     C19960   5.816  10.616   2.630  0.1153  0.7864  0.1637
  152MOL0     C19961   5.696  10.643   2.694  0.1999 -0.0586 -0.1213
  152MOL0     O19962   5.699  10.756   2.777 -0.3484  0.2049  0.2312
  152MOL0     C19963   5.590  10.809   2.846 -0.6130  0.5310  0.0232
  152MOL0     C19964   5.613  10.908   2.940  0.3946 -0.6014 -0.6913
  152MOL0     C19965   5.507  10.963   3.020 -0.2804 -0.5526  0.2138
  152MOL0     C19966   5.374  10.921   3.005 -0.2209 -0.6259 -0.0590
  152MOL0     O19967   5.266  10.963   3.084 -0.4566 -0.4056 -0.8086
  152MOL0     C19968   5.271  11.102   3.132 -0.5116 -0.3076 -0.0338
  152MOL0     C19969   5.131  11.160   3.173  1.0943  0.2458  0.2926
  152MOL0     C19970   5.124  11.301   3.220 -0.0820 -0.8171  0.2915
  152MOL0     C19971   4.996  11.371   3.262  0.7992  0.0074  0.1746
  152MOL0     C19972   5.046  11.508   3.319 -0.2626 -0.6331 -0.0551
  152MOL0     C19973   4.933  11.608   3.382 -0.3872  0.0832  0.5200
  152MOL0     C19974   4.836  11.662   3.271 -0.7547 -0.9747  0.4091
  152MOL0     C19975   4.718  11.741   3.337 -0.4480 -0.0352 -1.3680
  152MOL0    Cl19976   4.597  11.784   3.222  0.2109  0.9264  0.2428
  152MOL0     C19977   5.350  10.819   2.917  0.2867 -0.2335 -0.3615
  152MOL0     C19978   5.455  10.762   2.835  0.4627  0.2290 -0.2937
  152MOL0     O19979   5.602  10.564   2.673  0.1401  0.3949  0.2689
  152MOL0     C19980   5.938  10.659   2.683 -0.1203 -0.1204  0.0297
  152MOL0     C19981   6.061  10.626   2.631  0.2555  0.0317  0.3634
  152MOL0     N19982   6.806  10.563   2.727 -0.0622 -0.1887  0.3151
  152MOL0     N19983   6.917  10.518   2.771  0.4811  0.6663  0.0263
  152MOL0     C19984   8.008  10.294   2.982  0.3891 -0.5285 -0.3356
  152MOL0     C19985   8.128  10.361   3.010  0.0458 -0.0965  0.1946
  152MOL0     C19986   8.489  10.670   2.945 -0.3468 -0.4740  0.1466
  152MOL0     C19987   8.582  10.614   3.033  1.1070  0.2768  0.0826
  152MOL0     C19988   8.704  10.669   3.062  0.1173 -0.7741  0.1679
  152MOL0     C19989   8.751  10.793   3.005 -0.2397  1.1207 -0.4143
  152MOL0     O19990   8.878  10.837   3.042 -0.1060  0.1956 -0.0986
  152MOL0     C19991   8.912  10.966   2.992 -0.5758  0.0162 -0.8963
  152MOL0     C19992   9.033  11.013   3.066 -0.4559 -0.0053  1.2716
  152MOL0     C19993   9.065  11.156   3.031 -0.2799  0.0328  0.4964
  152MOL0     C19994   9.165  11.222   3.121 -0.4754  0.3549  0.0427
  152MOL0     C19995   9.297  11.190   3.078 -0.4285  0.9227 -0.5425
  152MOL0     C19996   9.414  11.166   3.071 -0.0465 -0.0277  0.3976
  152MOL0     C19997   8.662  10.854   2.913  0.5780  0.3672  0.2936
  152MOL0     C19998   8.537  10.792   2.885  0.4866  0.3065 -0.0971
  152MOL0     H19999   8.215  10.484   2.720 -1.4987  1.7652 -0.9671
  152MOL0     H20000   8.008  10.358   2.644 -2.5602  1.7319  1.1268
  152MOL0     H20001   7.810  10.254   2.621 -1.4861 -0.1647 -1.0335
  152MOL0     H20002   7.774  10.417   2.698 -2.2887 -0.0274 -3.1763
  152MOL0     H20003   7.570  10.323   2.806 -0.3490 -1.0935  0.8271
  152MOL0     H20004   7.613  10.171   2.710  0.6510 -0.3773  3.1940
  152MOL0     H20005   7.623  10.323   2.509  3.3633 -0.8671  2.8166
  152MOL0     H20006   7.535  10.443   2.600 -0.7166  0.0958 -2.4756
  152MOL0     H20007   7.425  10.173   2.500 -5.7103 -0.5956  0.0148
  152MOL0     H20008   7.344  10.238   2.637 -1.3156  0.3929 -0.0222
  152MOL0     H20009   7.255  10.304   2.410  2.0345 -1.2246 -1.2471
  152MOL0     H20010   7.405  10.382   2.378 -0.0965 -0.9860 -0.1895
  152MOL0     H20011   7.206  10.525   2.453  0.4634 -1.1751 -1.0187
  152MOL0     H20012   7.361  10.562   2.520 -0.3273 -0.5074 -0.8327
  152MOL0     H20013   7.305  10.440   2.730  2.1274  1.2378 -0.1433
  152MOL0     H20014   7.211  10.581   2.698  0.1360 -0.3841 -0.2992
  152MOL0     H20015   7.114  10.327   2.768  0.7656  1.3835  1.4727
  152MOL0     H20016   7.108  10.317   2.592  3.5607  1.8161 -0.9028
  152MOL0     H20017   6.931  10.428   2.460 -1.5655  1.7086 -0.2688
  152MOL0     H20018   6.688  10.532   2.404 -0.0516  0.2673 -0.6061
  152MOL0     H20019   6.668  10.674   2.517  0.3462 -0.2578  1.2006
  152MOL0     H20020   6.531  10.535   2.669 -0.1513 -0.1713 -0.4543
  152MOL0     H20021   6.549  10.402   2.561 -0.7949  0.1518 -0.1429
  152MOL0     H20022   6.417  10.661   2.461 -0.0481  0.1962  0.9808
  152MOL0     H20023   6.432  10.516   2.367  0.7305 -3.8502  0.7990
  152MOL0     H20024   6.282  10.515   2.625 -1.4860 -0.9227  0.1032
  152MOL0     H20025   6.325  10.378   2.512  3.7505  1.0860 -0.5698
  152MOL0     H20026   5.962  10.442   2.366 -2.3128 -0.8847 -0.1249
  152MOL0     H20027   5.731  10.492   2.456  0.2926 -0.7051 -1.0009
  152MOL0     H20028   5.715  10.945   2.941 -0.0715  0.8448  1.6914
  152MOL0     H20029   5.527  11.037   3.096 -0.5509 -2.8217  2.6148
  152MOL0     H20030   5.308  11.161   3.048  0.5529 -0.7308  0.1254
  152MOL0     H20031   5.338  11.118   3.217 -1.7397  1.6672  0.6547
  152MOL0     H20032   5.092  11.091   3.249  1.4852 -0.5498 -0.2147
  152MOL0     H20033   5.068  11.145   3.084  0.7167  0.2623  0.5537
  152MOL0     H20034   5.177  11.364   3.148  0.7277  3.4422  4.1517
  152MOL0     H20035   5.198  11.313   3.299  2.0029  2.1559 -1.8799
  152MOL0     H20036   4.931  11.384   3.175  0.8541 -1.6141 -0.1358
  152MOL0     H20037   4.950  11.321   3.348  0.5258  2.0535  1.2930
  152MOL0     H20038   5.083  11.566   3.235 -1.7537 -1.2251 -1.1579
  152MOL0     H20039   5.132  11.495   3.386  0.1666 -0.9939 -0.6653
  152MOL0     H20040   4.992  11.688   3.428 -1.0384  0.9297 -0.0893
  152MOL0     H20041   4.871  11.558   3.457 -1.2202  2.5156  1.5425
  152MOL0     H20042   4.898  11.728   3.211  1.6370 -3.1758  0.2846
  152MOL0     H20043   4.806  11.576   3.209 -0.5808 -0.0999 -0.9273
  152MOL0     H20044   4.751  11.825   3.398 -3.9957 -0.3387  1.2956
  152MOL0     H20045   4.670  11.684   3.417  1.1932  0.6290  0.1360
  152MOL0     H20046   5.250  10.780   2.898  1.2245 -3.4000  0.4739
  152MOL0     H20047   5.433  10.687   2.759 -0.4774  1.0071 -0.8138
  152MOL0     H20048   5.936  10.717   2.774 -5.0222 -0.9059  0.7066
  152MOL0     H20049   6.150  10.659   2.684  0.0574 -0.7906  1.2364
  152MOL0     H20050   7.949  10.255   3.064  2.8892 -2.9087  0.4823
  152MOL0     H20051   8.169  10.358   3.110 -0.7310  1.3301  0.5884
  152MOL0     H20052   8.553  10.517   3.073 -1.5581  0.6202 -0.8526
  152MOL0     H20053   8.769  10.605   3.121  2.2780 -0.6871 -1.9713
  152MOL0     H20054   8.833  11.038   3.013  0.4376  1.2859 -1.2604
  152MOL0     H20055   8.937  10.962   2.885 -1.5298 -0.2715 -1.1200
  152MOL0     H20056   9.019  11.003   3.174  3.0680  0.7888  1.9080
  152MOL0     H20057   9.117  10.948   3.039  0.1262  1.1634  0.1600
  152MOL0     H20058   8.970  11.209   3.045 -1.0586 -0.5335 -2.1437
  152MOL0     H20059   9.091  11.157   2.925  2.6861 -2.1945  1.0710
  152MOL0     H20060   9.150  11.329   3.101 -0.8175  0.6087  1.5409
  152MOL0     H20061   9.135  11.194   3.222 -1.5291 -3.5367 -1.2038
  152MOL0     H20062   9.515  11.133   3.086  0.6408  0.1145 -3.1567
  152MOL0     H20063   8.682  10.952   2.870 -0.1509 -0.2236 -1.4957
  152MOL0     H20064   8.479  10.854   2.817  1.7686  1.4048 -0.2391
  153MOL0     O20065  10.514   6.820   9.456  0.3859 -0.1917  0.1579
  153MOL0     C20066  10.509   6.936   9.507 -0.2483  1.1838 -0.1647
  153MOL0     O20067  10.622   6.992   9.567 -0.7033  0.4862 -0.3618
  153MOL0     C20068  10.740   6.923   9.571 -0.8392  0.5907 -0.2861
  153MOL0     C20069  10.851   6.982   9.507  0.3461  0.0214 -0.6973
  153MOL0     C20070  10.970   6.913   9.525  0.2432 -0.1566  0.2176
  153MOL0     C20071  10.983   6.796   9.608  0.4889 -0.4977 -0.3801
  153MOL0     O20072  11.110   6.734   9.617  0.1477  0.1464  0.2997
  153MOL0     C20073  11.110   6.597   9.615  0.0403 -0.2534  0.3078
  153MOL0     C20074  11.243   6.546   9.568 -0.7305  0.0413 -0.3756
  153MOL0     C20075  11.277   6.569   9.424  0.0436  0.0784  0.0474
  153MOL0     C20076  11.362   6.457   9.369 -0.3338  0.5028 -0.2956
  153MOL0     C20077  11.375   6.462   9.212 -0.2473 -0.2772  0.6225
  153MOL0     C20078  11.248   6.413   9.144  0.0173  0.4854 -0.3227
  153MOL0     C20079  11.244   6.461   9.000 -0.3018 -0.0581 -0.4844
  153MOL0     C20080  11.112   6.421   8.925 -0.4441 -0.3930 -0.1275
  153MOL0     N20081  10.984   6.456   8.988 -0.0916 -0.1838 -0.1983
  153MOL0     C20082  10.926   6.582   8.977 -0.6041  0.8440 -0.0992
  153MOL0     C20083  10.836   6.576   9.082  0.2475 -0.3752 -0.3846
  153MOL0     C20084  10.758   6.689   9.133  1.1918 -0.2414  0.1178
  153MOL0     C20085  10.617   6.661   9.090  0.8140 -0.3719 -0.4609
  153MOL0     C20086  10.528   6.785   9.091  0.0894  0.0307  0.1693
  153MOL0     C20087  10.388   6.761   9.052  0.4831 -0.6404  0.2786
  153MOL0     O20088  10.317   6.684   9.154 -0.1704 -0.2478 -0.0220
  153MOL0     C20089  10.184   6.664   9.144  0.4887 -0.8178  0.1465
  153MOL0     C20090  10.097   6.752   9.078 -0.0556 -0.6803  0.1748
  153MOL0     C20091   9.959   6.721   9.081 -0.8282  0.0578 -0.4109
  153MOL0     C20092   9.912   6.600   9.145 -0.2853  0.3668  1.3635
  153MOL0     C20093   9.771   6.573   9.144  0.3162  0.0815 -0.3084
  153MOL0     O20094   9.732   6.505   9.254 -0.0292 -0.3667  0.1803
  153MOL0     C20095   9.598   6.479   9.252  0.1487 -0.3321 -0.7518
  153MOL0     C20096   9.516   6.548   9.338  0.1635  0.4503 -0.4235
  153MOL0     C20097   9.383   6.521   9.349  0.5106  0.3660  0.8116
  153MOL0     C20098   9.328   6.402   9.290 -0.3184 -0.0713  0.5414
  153MOL0     O20099   9.198   6.357   9.300 -0.5533  0.4123 -0.4123
  153MOL0     C20100   9.097   6.442   9.338  0.1046 -0.2708  0.2756
  153MOL0     C20101   8.973   6.359   9.342 -0.4875 -0.0025 -0.1327
  153MOL0     C20102   8.847   6.451   9.341  0.4328  0.1050  0.2700
  153MOL0     C20103   8.724   6.354   9.340  0.1186  1.2956 -0.0780
  153MOL0     C20104   8.579   6.421   9.328 -0.2834 -0.0020 -0.2177
  153MOL0     C20105   8.471   6.316   9.354 -0.0264  0.5364 -0.6355
  153MOL0     C20106   8.336   6.371   9.347 -0.3204  0.8511 -0.0784
  153MOL0     C20107   8.225   6.264   9.373  0.3784 -0.0377 -0.5403
  153MOL0    Cl20108   8.058   6.335   9.376 -0.6020 -0.2577 -0.0556
  153MOL0     C20109   9.414   6.329   9.208 -0.7773  0.6546 -0.1900
  153MOL0     C20110   9.548   6.365   9.187 -0.4117 -0.2306 -0.2615
  153MOL0     O20111   9.700   6.622   9.057  0.5417 -0.1517 -0.7171
  153MOL0     C20112   9.997   6.526   9.231 -0.4298 -0.2168  0.4424
  153MOL0     C20113  10.133   6.560   9.222  0.2016  0.8299 -0.3625
  153MOL0     N20114  10.831   6.447   9.136 -0.3269 -0.1045  0.4205
  153MOL0     N20115  10.925   6.377   9.081  0.6058 -0.9555 -0.4317
  153MOL0     C20116  10.870   6.746   9.672 -0.2689 -0.4042  0.6479
  153MOL0     C20117  10.752   6.810   9.653  0.1961 -0.2217  0.1860
  153MOL0     C20118  10.394   7.023   9.499  0.9195  0.7379 -0.7562
  153MOL0     C20119  10.272   6.975   9.434 -0.5457 -0.3414 -0.0861
  153MOL0     C20120  10.163   7.057   9.444 -0.1747  0.4917 -0.5883
  153MOL0     C20121  10.169   7.178   9.504  0.1198  0.4522 -0.6347
  153MOL0     O20122  10.045   7.230   9.501 -0.1756 -0.1861 -0.3596
  153MOL0     C20123  10.036   7.367   9.543  0.0648  0.6723  0.3883
  153MOL0     C20124   9.917   7.441   9.472  0.0347  0.2058 -0.2841
  153MOL0     C20125   9.795   7.363   9.479  0.2933 -0.2201 -0.5260
  153MOL0     C20126   9.774   7.328   9.623  0.0374  0.0995 -0.0967
  153MOL0     C20127   9.630   7.306   9.648  0.1679  0.4166 -0.1940
  153MOL0     C20128   9.511   7.311   9.639 -0.7178 -0.2493  0.4206
  153MOL0     C20129  10.286   7.230   9.551 -0.3362  0.3601  0.1907
  153MOL0     C20130  10.400   7.155   9.549 -0.3444  0.1708 -0.2929
  153MOL0     H20131  10.843   7.071   9.446 -0.3170  0.6552  0.2916
  153MOL0     H20132  11.060   6.953   9.479 -0.1595  0.2845 -0.2074
  153MOL0     H20133  11.033   6.558   9.548  0.8121  0.7523 -1.2268
  153MOL0     H20134  11.091   6.567   9.719  3.8046  1.4945  1.6743
  153MOL0     H20135  11.245   6.438   9.585  0.7081 -0.1140 -1.2967
  153MOL0     H20136  11.325   6.587   9.627 -1.1967  1.2860 -0.5585
  153MOL0     H20137  11.334   6.661   9.409  0.0077  0.8440  3.7410
  153MOL0     H20138  11.179   6.577   9.375 -0.5593 -2.5021  0.6847
  153MOL0     H20139  11.461   6.483   9.408 -0.1176 -0.3569 -0.2492
  153MOL0     H20140  11.341   6.360   9.416 -0.2937  0.9461  0.6649
  153MOL0     H20141  11.458   6.398   9.181  1.1874  1.3092  1.0129
  153MOL0     H20142  11.401   6.564   9.180  0.0162  0.2510  2.3928
  153MOL0     H20143  11.160   6.444   9.202  0.0216  1.3072 -0.7471
  153MOL0     H20144  11.251   6.304   9.140 -2.0071  0.4045 -0.7271
  153MOL0     H20145  11.266   6.568   8.992 -1.3027  0.0498 -2.3930
  153MOL0     H20146  11.323   6.405   8.950 -0.0023 -1.3689  1.3579
  153MOL0     H20147  11.112   6.314   8.899  1.0266 -0.5219  0.3329
  153MOL0     H20148  11.123   6.472   8.829  1.1213 -1.1460 -0.3789
  153MOL0     H20149  10.968   6.669   8.927  3.4561 -0.5698  0.4493
  153MOL0     H20150  10.781   6.781   9.080 -1.5683  0.1898 -0.5300
  153MOL0     H20151  10.782   6.704   9.239  2.0316 -1.8453  0.1822
  153MOL0     H20152  10.571   6.589   9.158 -2.6169  2.5892  0.6921
  153MOL0     H20153  10.609   6.627   8.987 -0.6677  0.8167 -0.7583
  153MOL0     H20154  10.518   6.835   9.188 -2.1830 -1.6328  0.8847
  153MOL0     H20155  10.583   6.844   9.016  1.1919  0.8261  1.5539
  153MOL0     H20156  10.391   6.710   8.955  1.4275  1.3357 -0.8082
  153MOL0     H20157  10.343   6.861   9.044 -1.7523 -1.5129  1.1305
  153MOL0     H20158  10.135   6.845   9.037 -0.9875 -1.1602 -1.9306
  153MOL0     H20159   9.883   6.785   9.037 -1.9330  0.5704  2.0587
  153MOL0     H20160   9.549   6.638   9.389 -2.2647 -0.1161  2.4082
  153MOL0     H20161   9.311   6.580   9.404  1.2835  2.1346 -0.0066
  153MOL0     H20162   9.087   6.505   9.249 -0.3263 -1.8265 -0.8203
  153MOL0     H20163   9.109   6.501   9.430  2.0369 -0.4100  0.1539
  153MOL0     H20164   8.970   6.294   9.430 -1.8698 -1.5543 -1.2530
  153MOL0     H20165   8.955   6.285   9.263 -1.3512 -4.3479  3.6817
  153MOL0     H20166   8.850   6.521   9.257  1.4106  0.6421  0.7300
  153MOL0     H20167   8.845   6.508   9.435  0.9011 -1.0954  1.0359
  153MOL0     H20168   8.730   6.291   9.251 -0.6682  1.8820 -0.5654
  153MOL0     H20169   8.723   6.285   9.424  0.7354  1.4294  0.0447
  153MOL0     H20170   8.566   6.462   9.228  1.0569 -2.0822 -1.2996
  153MOL0     H20171   8.565   6.499   9.404 -2.0775  0.5024 -1.0334
  153MOL0     H20172   8.503   6.265   9.445  1.5216  2.1923 -0.1924
  153MOL0     H20173   8.480   6.232   9.284  1.4413  0.5042 -0.4332
  153MOL0     H20174   8.327   6.438   9.434 -0.1829  1.9146 -0.8680
  153MOL0     H20175   8.313   6.423   9.254  1.3421 -0.7930 -1.4730
  153MOL0     H20176   8.230   6.225   9.475  1.8377  2.5271  0.4815
  153MOL0     H20177   8.226   6.182   9.301 -0.4010 -1.3552  0.8923
  153MOL0     H20178   9.386   6.237   9.156  1.9202  0.5019 -1.5240
  153MOL0     H20179   9.613   6.321   9.112 -1.4790 -2.4495  0.0412
  153MOL0     H20180   9.968   6.445   9.297  0.2612  0.3153  1.4322
  153MOL0     H20181  10.205   6.504   9.280  0.7258  0.1576 -1.6210
  153MOL0     H20182  10.877   6.649   9.718 -0.2528 -2.4688 -3.2543
  153MOL0     H20183  10.662   6.782   9.706 -0.5645 -0.5004 -1.2358
  153MOL0     H20184  10.257   6.877   9.389  0.7295 -1.7824  2.3937
  153MOL0     H20185  10.071   7.018   9.401  0.1995  0.8298 -1.7314
  153MOL0     H20186  10.121   7.425   9.507  1.2089 -1.3500 -0.3400
  153MOL0     H20187  10.043   7.385   9.651  1.3474  1.5273  0.1858
  153MOL0     H20188   9.903   7.539   9.518 -0.7333 -0.5400  1.1498
  153MOL0     H20189   9.936   7.459   9.366 -0.6636 -0.3150 -0.5075
  153MOL0     H20190   9.809   7.275   9.416 -2.5719  0.0706 -1.7042
  153MOL0     H20191   9.706   7.418   9.445  0.7393  0.4479 -0.6332
  153MOL0     H20192   9.834   7.238   9.640 -1.9390 -0.7464  3.3512
  153MOL0     H20193   9.801   7.405   9.696 -0.4098 -0.7385  0.9885
  153MOL0     H20194   9.405   7.317   9.644 -0.9411  0.6352 -2.9277
  153MOL0     H20195  10.290   7.334   9.581 -0.8287  0.3641  0.2417
  153MOL0     H20196  10.488   7.190   9.602  0.6034 -2.8568  0.3446
  154MOL0     O20197   8.826   1.898   7.417 -0.2293  0.3900 -0.9763
  154MOL0     C20198   8.754   1.996   7.387 -0.0707  0.1810 -0.3971
  154MOL0     O20199   8.793   2.124   7.380  1.2886  0.2135 -0.4820
  154MOL0     C20200   8.902   2.176   7.440 -0.4277  0.5219  0.7094
  154MOL0     C20201   8.957   2.289   7.382 -0.8175 -0.9750  0.8737
  154MOL0     C20202   9.072   2.351   7.440 -0.1924 -0.0040  0.6847
  154MOL0     C20203   9.136   2.295   7.549  0.9906  0.2806 -0.9104
  154MOL0     O20204   9.236   2.346   7.628 -0.6076  0.9108 -0.1435
  154MOL0     C20205   9.339   2.424   7.565 -0.5634  0.0253 -0.0805
  154MOL0     C20206   9.407   2.512   7.665  0.3321 -0.0985  0.0123
  154MOL0     C20207   9.528   2.444   7.726  0.1078 -0.0142  0.1161
  154MOL0     C20208   9.612   2.553   7.803 -0.3953 -0.3939 -0.8201
  154MOL0     C20209   9.742   2.489   7.860  0.8942  0.5418  0.2395
  154MOL0     C20210   9.842   2.420   7.773  1.1848 -0.2759 -0.1824
  154MOL0     C20211   9.959   2.373   7.855  0.2988  0.3568  0.5778
  154MOL0     C20212  10.060   2.296   7.770  0.6010 -0.3878 -0.5443
  154MOL0     N20213  10.191   2.290   7.826  0.2880  0.4092 -0.0582
  154MOL0     C20214  10.239   2.254   7.950 -0.0978 -0.8776  0.7723
  154MOL0     C20215  10.370   2.291   7.944 -0.7901 -0.3319  0.7085
  154MOL0     C20216  10.479   2.281   8.056  0.1850 -0.2515  0.9497
  154MOL0     C20217  10.446   2.355   8.186  0.2064  1.0594  0.7304
  154MOL0     C20218  10.364   2.261   8.272 -0.0702  0.4768  0.9702
  154MOL0     C20219  10.338   2.319   8.412 -0.1573  0.5750 -0.4920
  154MOL0     O20220  10.234   2.418   8.404 -0.0736  0.4217  0.1039
  154MOL0     C20221  10.103   2.385   8.379 -0.2595 -0.7193  0.6032
  154MOL0     C20222  10.035   2.258   8.394 -0.0554 -0.4496  0.1513
  154MOL0     C20223   9.894   2.238   8.383  0.2237  0.3704 -0.7417
  154MOL0     C20224   9.817   2.345   8.342 -0.3704 -0.1046 -0.0616
  154MOL0     C20225   9.674   2.333   8.325  0.5396  0.0207 -0.1578
  154MOL0     O20226   9.630   2.211   8.323  0.5917 -0.8669  0.6005
  154MOL0     C20227   9.490   2.184   8.337  0.5422  0.5354  0.0310
  154MOL0     C20228   9.469   2.065   8.411  0.2877 -0.1814 -0.6635
  154MOL0     C20229   9.333   2.018   8.426 -0.1063  0.0453  0.0467
  154MOL0     C20230   9.229   2.087   8.368 -0.1282 -0.3258 -0.1916
  154MOL0     O20231   9.106   2.032   8.380 -0.3287 -0.3417 -0.6124
  154MOL0     C20232   9.000   2.064   8.289 -0.7049 -0.5746  0.6526
  154MOL0     C20233   8.876   1.984   8.309  0.3341  0.3516  0.5960
  154MOL0     C20234   8.769   2.013   8.199 -0.5444  0.6485 -0.1896
  154MOL0     C20235   8.637   1.951   8.230  0.2564 -0.3564 -0.6065
  154MOL0     C20236   8.548   1.965   8.110  0.0769 -0.3680 -0.0320
  154MOL0     C20237   8.420   1.880   8.126 -0.1408 -0.4971  0.8661
  154MOL0     C20238   8.339   1.913   8.257 -0.4013  0.2896  1.0775
  154MOL0     C20239   8.211   1.822   8.257 -0.1642 -1.2824 -0.1597
  154MOL0    Cl20240   8.244   1.650   8.255  0.0975 -0.3061 -0.2329
  154MOL0     C20241   9.251   2.202   8.288 -0.1749  0.1781  0.5734
  154MOL0     C20242   9.380   2.256   8.284 -0.2681  0.0753 -0.2015
  154MOL0     O20243   9.608   2.432   8.319  0.1922 -0.1117 -0.1799
  154MOL0     C20244   9.885   2.472   8.332  1.2480  0.6672  0.6660
  154MOL0     C20245  10.023   2.489   8.343 -0.3165 -0.3753 -0.3917
  154MOL0     N20246  10.402   2.331   7.816 -0.2167  0.0006  0.3031
  154MOL0     N20247  10.294   2.332   7.750  0.4413 -0.8617  0.3408
  154MOL0     C20248   9.084   2.175   7.596  0.8194 -0.5567  0.1820
  154MOL0     C20249   8.970   2.118   7.545 -0.4070  0.1566  0.5928
  154MOL0     C20250   8.618   1.975   7.334  0.0452  0.2948 -0.8443
  154MOL0     C20251   8.533   2.080   7.309  0.7771 -0.7179  0.5404
  154MOL0     C20252   8.403   2.068   7.259 -0.3078  0.8359  1.3638
  154MOL0     C20253   8.360   1.942   7.225  0.1189 -0.2495  0.6303
  154MOL0     O20254   8.233   1.938   7.169 -1.1451  0.2683  0.1143
  154MOL0     C20255   8.235   1.891   7.030  0.8710  0.2285  0.3305
  154MOL0     C20256   8.166   1.752   7.029  0.7095 -0.1344 -0.0781
  154MOL0     C20257   8.164   1.698   6.883  0.4522  1.4250 -0.0849
  154MOL0     C20258   8.109   1.548   6.874  0.4586 -0.9412 -0.5683
  154MOL0     C20259   7.965   1.557   6.909  0.6487 -1.0082 -0.3419
  154MOL0     C20260   7.844   1.552   6.928  0.4200  0.0828  1.0876
  154MOL0     C20261   8.443   1.828   7.237  0.4078 -0.6834 -0.1725
  154MOL0     C20262   8.574   1.850   7.294  0.5262  0.5084  0.1295
  154MOL0     H20263   8.901   2.340   7.305  1.8099  2.2722  0.8947
  154MOL0     H20264   9.112   2.433   7.381  1.0477 -0.5220  0.7607
  154MOL0     H20265   9.301   2.483   7.481 -0.2505 -0.9148 -0.9013
  154MOL0     H20266   9.413   2.357   7.520 -1.4269  0.7359 -2.7443
  154MOL0     H20267   9.331   2.544   7.738 -1.9513 -1.9913 -1.3682
  154MOL0     H20268   9.431   2.599   7.604 -0.7031 -0.6201 -1.1958
  154MOL0     H20269   9.586   2.395   7.647 -1.7117 -3.2250  0.6228
  154MOL0     H20270   9.496   2.362   7.790  0.8360  0.6907  1.4067
  154MOL0     H20271   9.655   2.630   7.738  1.1320  0.2313  0.8547
  154MOL0     H20272   9.551   2.603   7.879  1.6923  1.1054 -0.0381
  154MOL0     H20273   9.716   2.423   7.944  1.7219 -0.5013 -0.2967
  154MOL0     H20274   9.801   2.570   7.903  5.3979 -0.3769 -3.4082
  154MOL0     H20275   9.868   2.482   7.687  0.7086 -1.3234 -1.1057
  154MOL0     H20276   9.792   2.328   7.741 -0.1321  0.0695  0.8060
  154MOL0     H20277  10.008   2.462   7.896 -0.9235  0.6793  1.4060
  154MOL0     H20278   9.930   2.307   7.937  0.9378  1.0819  1.4179
  154MOL0     H20279  10.074   2.334   7.668  1.4256 -0.8382 -0.6036
  154MOL0     H20280  10.022   2.197   7.744 -1.2946  0.9826 -3.5488
  154MOL0     H20281  10.180   2.199   8.023  1.1729 -2.1547  0.8802
  154MOL0     H20282  10.566   2.333   8.014 -1.5519 -0.4995 -3.5376
  154MOL0     H20283  10.504   2.174   8.061  0.4532 -0.4130 -2.1077
  154MOL0     H20284  10.406   2.454   8.162  1.0728  1.4024  0.6746
  154MOL0     H20285  10.540   2.364   8.241  1.0691 -1.7618 -0.1152
  154MOL0     H20286  10.277   2.225   8.216  0.8144 -0.5581  0.2085
  154MOL0     H20287  10.428   2.174   8.289 -0.6440  0.1456  1.4442
  154MOL0     H20288  10.423   2.370   8.457  0.1337  0.3285 -0.7544
  154MOL0     H20289  10.303   2.237   8.476 -2.1218  1.5694 -0.1994
  154MOL0     H20290  10.096   2.175   8.430 -0.5769 -1.2617 -0.7885
  154MOL0     H20291   9.845   2.144   8.406 -1.1358 -0.0264 -4.5693
  154MOL0     H20292   9.557   2.007   8.438  0.5721 -0.4249 -1.9941
  154MOL0     H20293   9.315   1.924   8.477  0.4021 -1.3430 -2.1824
  154MOL0     H20294   9.034   2.070   8.185  2.4080  2.2658  1.6506
  154MOL0     H20295   8.964   2.166   8.301 -2.1373 -0.9718  0.0118
  154MOL0     H20296   8.833   2.015   8.405 -1.3608 -0.1657  0.0416
  154MOL0     H20297   8.902   1.878   8.312  0.3001  0.2580 -1.1882
  154MOL0     H20298   8.801   1.978   8.101 -1.4921  1.8771 -0.9591
  154MOL0     H20299   8.750   2.119   8.181  2.4961  1.4282  0.5628
  154MOL0     H20300   8.655   1.844   8.246  2.3419  0.1238  0.7302
  154MOL0     H20301   8.579   1.991   8.314  0.4611  0.8908 -1.0386
  154MOL0     H20302   8.597   1.926   8.019 -4.1633 -1.0078 -2.3072
  154MOL0     H20303   8.522   2.069   8.092  2.8156  0.4046  0.0857
  154MOL0     H20304   8.434   1.772   8.117  1.5726 -0.1743 -1.4383
  154MOL0     H20305   8.352   1.905   8.044  0.9485  2.5476  0.7511
  154MOL0     H20306   8.393   1.899   8.352 -2.3521  1.1507  2.3861
  154MOL0     H20307   8.322   2.019   8.241  0.6515  0.0339 -2.5522
  154MOL0     H20308   8.140   1.859   8.183  0.1981  0.8315  0.4826
  154MOL0     H20309   8.159   1.839   8.352  1.3121 -1.9091  0.7953
  154MOL0     H20310   9.169   2.245   8.232 -1.5940 -2.5504  0.3712
  154MOL0     H20311   9.399   2.335   8.212  0.6317 -0.3026 -0.3967
  154MOL0     H20312   9.838   2.570   8.325  1.4129  0.6276 -1.4184
  154MOL0     H20313  10.068   2.588   8.344 -0.5028 -0.2597 -1.5638
  154MOL0     H20314   9.126   2.134   7.688 -1.4191  1.7671  2.4192
  154MOL0     H20315   8.938   2.021   7.581  0.1641 -0.7686 -1.2684
  154MOL0     H20316   8.558   2.184   7.325 -0.8302  0.1903 -2.0933
  154MOL0     H20317   8.340   2.155   7.248  0.7601  1.4547 -0.4268
  154MOL0     H20318   8.338   1.887   6.994  0.9606 -1.8757  0.7282
  154MOL0     H20319   8.187   1.959   6.959  0.2475 -0.9081 -0.3577
  154MOL0     H20320   8.238   1.689   7.081  0.0518 -1.2215 -0.4609
  154MOL0     H20321   8.066   1.764   7.072  0.0695  2.1354 -1.9121
  154MOL0     H20322   8.265   1.700   6.840  0.1201 -0.7809 -1.1311
  154MOL0     H20323   8.109   1.764   6.815  0.0592  1.2303  0.0417
  154MOL0     H20324   8.121   1.525   6.768  1.2056 -0.1376 -0.6638
  154MOL0     H20325   8.166   1.470   6.926 -1.7379 -1.6006  1.0066
  154MOL0     H20326   7.737   1.545   6.928  0.1447  3.1438  1.2845
  154MOL0     H20327   8.398   1.732   7.211 -1.0799  0.1028 -0.6260
  154MOL0     H20328   8.642   1.765   7.301  0.7681  0.7755  1.2870
  155MOL0     O20329   6.864   2.067   9.976  0.0707 -0.1301 -0.8725
  155MOL0     C20330   6.954   2.062   9.893 -0.0775  0.1829  0.5509
  155MOL0     O20331   7.030   2.166   9.854 -0.2164 -0.4236 -0.5307
  155MOL0     C20332   7.039   2.283   9.924  0.6633  0.3088 -0.6847
  155MOL0     C20333   6.958   2.319  10.041 -0.5578 -0.1647  0.3230
  155MOL0     C20334   6.990   2.440  10.105 -0.3434 -0.6910  0.5696
  155MOL0     C20335   7.091   2.520  10.066  0.3931  0.2307 -0.3277
  155MOL0     O20336   7.135   2.613  10.151  0.0669 -0.1362  0.0611
  155MOL0     C20337   7.058   2.736  10.173  0.2512  0.2510  0.3145
  155MOL0     C20338   7.024   2.808  10.049 -0.4972  0.3467 -0.5974
  155MOL0     C20339   7.139   2.862   9.962 -0.2921  0.2736 -1.1566
  155MOL0     C20340   7.063   2.889   9.833  1.2027  0.0155  0.1670
  155MOL0     C20341   7.157   2.921   9.716 -0.4591 -0.1056 -0.0932
  155MOL0     C20342   7.079   2.961   9.588 -0.2931  0.4472  0.1526
  155MOL0     C20343   7.033   2.840   9.509  0.6426 -0.1671  0.6312
  155MOL0     C20344   6.984   2.866   9.361  0.6325 -0.2305 -0.3840
  155MOL0     N20345   6.854   2.935   9.351 -0.5251  0.5624 -0.0141
  155MOL0     C20346   6.743   2.867   9.389  0.0857  0.4420 -0.2318
  155MOL0     C20347   6.641   2.949   9.351 -0.8773 -0.1372 -0.0686
  155MOL0     C20348   6.499   2.907   9.377 -0.0459 -0.2358  0.3458
  155MOL0     C20349   6.462   2.871   9.519  0.4734 -0.2600 -0.2178
  155MOL0     C20350   6.308   2.876   9.542  0.0221  0.6226  0.0774
  155MOL0     C20351   6.239   2.753   9.485 -0.3310 -0.0459  0.2982
  155MOL0     O20352   6.282   2.633   9.543 -0.3371  0.6613  0.1196
  155MOL0     C20353   6.197   2.520   9.558 -0.6860  0.0833 -0.1591
  155MOL0     C20354   6.064   2.515   9.511 -0.3980 -0.2610 -0.2465
  155MOL0     C20355   5.990   2.395   9.534 -0.7414 -0.0401  0.5417
  155MOL0     C20356   6.053   2.280   9.582 -0.9328 -0.0819 -0.3753
  155MOL0     C20357   5.975   2.158   9.605 -0.2868  0.2779 -0.6092
  155MOL0     O20358   5.858   2.143   9.544  0.2965  0.1575  0.7712
  155MOL0     C20359   5.753   2.052   9.565 -0.5185 -0.1833 -0.0557
  155MOL0     C20360   5.767   1.920   9.608  0.0126 -0.1603 -0.0914
  155MOL0     C20361   5.657   1.834   9.630 -0.7679 -0.0526  0.6917
  155MOL0     C20362   5.528   1.881   9.601  0.6781 -0.4481 -0.2444
  155MOL0     O20363   5.419   1.798   9.626 -0.0866  0.8099  0.4256
  155MOL0     C20364   5.336   1.832   9.737  1.2407 -0.1033 -0.1298
  155MOL0     C20365   5.219   1.726   9.738 -0.4030  0.9754 -0.4729
  155MOL0     C20366   5.118   1.764   9.633  0.8806  0.1038 -0.2096
  155MOL0     C20367   5.026   1.880   9.681  0.9204 -1.3326  0.3863
  155MOL0     C20368   4.906   1.910   9.582  0.8092 -0.0765 -0.1737
  155MOL0     C20369   4.857   2.052   9.597  0.4488  0.3197 -0.5693
  155MOL0     C20370   4.728   2.056   9.514 -0.0278  0.4366  0.2842
  155MOL0     C20371   4.606   2.006   9.591  1.0327 -0.5472  0.0683
  155MOL0    Cl20372   4.551   2.130   9.712 -0.0765  0.0788 -0.0068
  155MOL0     C20373   5.510   2.012   9.549 -0.5987  0.0362  0.6797
  155MOL0     C20374   5.626   2.093   9.529  0.7693  0.8607 -0.2257
  155MOL0     O20375   6.028   2.074   9.673  0.2516  0.5895  0.6359
  155MOL0     C20376   6.186   2.294   9.630 -0.1358 -0.1285  0.3453
  155MOL0     C20377   6.260   2.414   9.623 -0.4706  0.3288  0.5868
  155MOL0     N20378   6.697   3.065   9.293  0.5851 -0.7182  0.2041
  155MOL0     N20379   6.829   3.062   9.303 -0.0678 -0.3400  0.3539
  155MOL0     C20380   7.163   2.482   9.953  0.2192 -0.2558  0.6922
  155MOL0     C20381   7.135   2.371   9.879  0.3930  0.4778  1.1441
  155MOL0     C20382   6.983   1.933   9.833 -0.1179  0.4585  0.4062
  155MOL0     C20383   6.947   1.820   9.902  0.4909 -0.1720  0.4865
  155MOL0     C20384   6.980   1.694   9.842 -0.3702  0.2481 -0.1948
  155MOL0     C20385   7.061   1.692   9.730  0.5350  0.4431 -0.2269
  155MOL0     O20386   7.085   1.563   9.701  0.0855 -0.7280 -0.0175
  155MOL0     C20387   7.153   1.535   9.581 -0.2515 -0.0738  0.3430
  155MOL0     C20388   7.302   1.526   9.602  0.1886 -0.2305 -0.2283
  155MOL0     C20389   7.378   1.481   9.476 -0.7604 -0.1386 -0.7685
  155MOL0     C20390   7.527   1.501   9.504 -0.4469 -0.9577 -0.8024
  155MOL0     C20391   7.550   1.641   9.466 -0.2408  0.0285 -0.4175
  155MOL0     C20392   7.528   1.757   9.427 -0.1968  1.5010  0.2112
  155MOL0     C20393   7.102   1.806   9.669 -0.3943 -0.0167 -0.0933
  155MOL0     C20394   7.062   1.924   9.723 -0.1840 -1.4516 -0.1262
  155MOL0     H20395   6.881   2.264  10.094 -1.3734  0.4772 -0.1653
  155MOL0     H20396   6.925   2.460  10.189 -1.2927 -1.4904  0.0495
  155MOL0     H20397   7.115   2.793  10.247  0.1991 -2.8677  3.0055
  155MOL0     H20398   6.963   2.726  10.226 -0.9909  0.5992 -1.7613
  155MOL0     H20399   6.959   2.893  10.070 -0.9157 -0.1022 -0.0530
  155MOL0     H20400   6.963   2.737   9.993 -1.5278  0.4081  0.4198
  155MOL0     H20401   7.219   2.793   9.936 -2.3115 -3.0053  0.6766
  155MOL0     H20402   7.166   2.954  10.015 -0.6346  0.4888 -1.3501
  155MOL0     H20403   7.015   2.796   9.804  0.8700 -0.5121  2.2012
  155MOL0     H20404   6.990   2.970   9.849  3.1462  1.9354 -0.1255
  155MOL0     H20405   7.229   2.842   9.693 -0.2074  0.2248 -0.4589
  155MOL0     H20406   7.216   3.011   9.735 -0.2119  0.0749 -1.5674
  155MOL0     H20407   7.144   3.023   9.525  1.4925 -0.8625  0.5986
  155MOL0     H20408   6.991   3.013   9.625 -0.8243  0.0501 -0.5419
  155MOL0     H20409   7.114   2.767   9.499  1.8158  0.8096  2.4799
  155MOL0     H20410   6.947   2.797   9.562 -1.2440  0.5489 -1.6787
  155MOL0     H20411   6.980   2.770   9.308 -0.5781 -0.3050 -0.1903
  155MOL0     H20412   7.057   2.926   9.306  2.3020 -2.0766 -0.3103
  155MOL0     H20413   6.725   2.763   9.412  0.1309  0.8379  1.7398
  155MOL0     H20414   6.476   2.813   9.327  2.0701 -0.0588 -1.0906
  155MOL0     H20415   6.441   2.998   9.360  1.0466  0.2744 -0.8063
  155MOL0     H20416   6.510   2.944   9.585  0.9700 -0.0320 -0.8205
  155MOL0     H20417   6.499   2.772   9.546 -1.5093 -0.3512  2.5861
  155MOL0     H20418   6.275   2.866   9.646 -0.2947 -0.7984 -0.1414
  155MOL0     H20419   6.276   2.971   9.497  0.4817  0.2165 -1.1418
  155MOL0     H20420   6.265   2.746   9.379  1.7526  1.0266  0.6776
  155MOL0     H20421   6.132   2.774   9.479 -0.0464  1.6780  0.6863
  155MOL0     H20422   6.011   2.599   9.467 -1.4340 -2.1620 -2.8889
  155MOL0     H20423   5.884   2.391   9.514 -1.0295 -1.3479  2.1302
  155MOL0     H20424   5.869   1.883   9.621  0.0571 -0.9728 -2.3643
  155MOL0     H20425   5.675   1.739   9.679  2.6586  1.8383  3.5889
  155MOL0     H20426   5.305   1.936   9.721 -0.3313 -0.9995 -3.9381
  155MOL0     H20427   5.390   1.814   9.831 -0.4415 -1.2898  0.6609
  155MOL0     H20428   5.167   1.719   9.834 -0.2020 -0.2732 -0.4382
  155MOL0     H20429   5.256   1.625   9.721 -0.5878  0.8800 -0.3155
  155MOL0     H20430   5.049   1.681   9.613  0.1802  0.0026  2.2274
  155MOL0     H20431   5.165   1.787   9.538 -0.5639  2.0955 -0.4856
  155MOL0     H20432   4.971   1.875   9.776  1.5349  0.8419  0.9100
  155MOL0     H20433   5.082   1.971   9.705  0.0532 -1.1804  2.0028
  155MOL0     H20434   4.823   1.840   9.600 -0.1688  1.6109  2.5385
  155MOL0     H20435   4.934   1.903   9.476 -0.2531  1.7949 -0.6309
  155MOL0     H20436   4.934   2.123   9.565  0.3984  0.9394  0.6204
  155MOL0     H20437   4.830   2.075   9.700 -0.4373 -0.0637 -0.7006
  155MOL0     H20438   4.715   2.163   9.497  0.8527  0.5121  0.0149
  155MOL0     H20439   4.731   2.010   9.415  1.3436 -0.1781  0.5861
  155MOL0     H20440   4.622   1.913   9.646  2.9605  0.8399  2.0292
  155MOL0     H20441   4.525   2.005   9.518  0.6317 -0.0440  0.4949
  155MOL0     H20442   5.411   2.054   9.534 -1.0574 -1.2766 -0.1173
  155MOL0     H20443   5.617   2.191   9.484  0.1030  0.5833 -0.7213
  155MOL0     H20444   6.224   2.213   9.691 -1.7696  0.0743  1.7364
  155MOL0     H20445   6.362   2.429   9.658 -1.0488  2.9891  1.3420
  155MOL0     H20446   7.247   2.539   9.915  0.1948 -0.3632  0.4771
  155MOL0     H20447   7.199   2.342   9.795 -0.2477 -0.3899  0.9444
  155MOL0     H20448   6.907   1.826  10.003  2.0867  0.6786  1.1085
  155MOL0     H20449   6.954   1.602   9.893 -1.6436  1.0539  0.6547
  155MOL0     H20450   7.134   1.603   9.497 -0.0316 -1.1058 -0.5674
  155MOL0     H20451   7.121   1.437   9.546 -0.4556  0.3282 -0.6340
  155MOL0     H20452   7.330   1.629   9.626  1.4358 -0.7573  0.6517
  155MOL0     H20453   7.332   1.477   9.694 -0.5918  1.3043  0.8923
  155MOL0     H20454   7.339   1.542   9.394  2.4770  2.9301 -0.2328
  155MOL0     H20455   7.357   1.375   9.460 -0.9042 -0.7896  2.8692
  155MOL0     H20456   7.549   1.481   9.609 -1.2428  0.6381 -0.3054
  155MOL0     H20457   7.590   1.433   9.445  0.6212  0.6632 -1.6054
  155MOL0     H20458   7.526   1.861   9.402 -1.2943  1.0471 -1.7924
  155MOL0     H20459   7.169   1.806   9.584  1.2258  1.5021  1.1149
  155MOL0     H20460   7.093   2.009   9.663 -1.3596 -1.4245 -0.7104
  156MOL0     O20461   3.283   1.299   6.648  0.2397 -0.0922  0.5902
  156MOL0     C20462   3.321   1.395   6.714  0.5034  0.1638 -0.5574
  156MOL0     O20463   3.273   1.519   6.705 -0.3678  0.5503  0.1428
  156MOL0     C20464   3.169   1.548   6.622 -0.2567  0.3109  0.2460
  156MOL0     C20465   3.063   1.620   6.677 -0.5832 -0.1974  0.4749
  156MOL0     C20466   2.954   1.660   6.593 -0.0852  0.4011  0.3493
  156MOL0     C20467   2.944   1.615   6.464 -0.3572 -0.0209 -0.4073
  156MOL0     O20468   2.818   1.647   6.404 -0.3389 -0.2470 -0.1683
  156MOL0     C20469   2.772   1.574   6.286 -0.4273 -0.0403  0.0350
  156MOL0     C20470   2.640   1.629   6.255 -0.0855 -0.4650  0.0849
  156MOL0     C20471   2.557   1.533   6.166 -0.4565 -0.1287  0.1453
  156MOL0     C20472   2.417   1.595   6.126  0.0031 -0.0109 -0.2598
  156MOL0     C20473   2.312   1.569   6.227 -0.2483  0.3659 -0.2360
  156MOL0     C20474   2.165   1.611   6.176  0.3220 -1.0539 -0.0955
  156MOL0     C20475   2.077   1.582   6.304  0.4810 -0.5707  1.1937
  156MOL0     C20476   1.924   1.613   6.290  0.2225 -0.4016 -0.6869
  156MOL0     N20477   1.858   1.517   6.208  1.2121 -0.7508  0.3709
  156MOL0     C20478   1.841   1.526   6.074  1.1917 -0.7503 -0.1584
  156MOL0     C20479   1.763   1.421   6.041  0.9198 -0.1886 -0.1230
  156MOL0     C20480   1.728   1.388   5.897 -0.5004 -0.0855 -0.1388
  156MOL0     C20481   1.580   1.401   5.887 -0.3067  0.1559  0.5039
  156MOL0     C20482   1.539   1.357   5.739 -0.3529  0.1343 -0.7673
  156MOL0     C20483   1.382   1.389   5.714 -0.2959 -0.0637 -0.3034
  156MOL0     O20484   1.306   1.334   5.820 -0.1781 -0.0403 -0.5640
  156MOL0     C20485   1.174   1.299   5.805 -0.5989  0.3850  0.3461
  156MOL0     C20486   1.130   1.176   5.858  0.2004 -1.1904 -0.1455
  156MOL0     C20487   0.995   1.145   5.847 -0.8346  0.2117 -0.0538
  156MOL0     C20488   0.895   1.232   5.792 -0.1648 -0.0525 -0.0431
  156MOL0     C20489   0.757   1.201   5.781 -0.1239  0.0748 -0.4708
  156MOL0     O20490   0.675   1.285   5.718 -0.1302  0.2070 -0.3726
  156MOL0     C20491   0.543   1.247   5.695 -0.0754  0.0066 -0.5258
  156MOL0     C20492   0.510   1.122   5.641 -0.7367 -0.4615 -0.7386
  156MOL0     C20493   0.378   1.093   5.605  0.5485 -0.1607  0.3520
  156MOL0     C20494   0.270   1.179   5.625  0.6175 -0.2716  0.3307
  156MOL0     O20495   0.135   1.152   5.595  0.6839  0.2459 -0.0395
  156MOL0     C20496   0.071   1.080   5.701 -0.3797 -0.4161  0.0604
  156MOL0     C20497  -0.021   0.973   5.642  0.0452  0.8181 -0.2740
  156MOL0     C20498  -0.099   0.903   5.754 -0.6586  0.5229  0.2328
  156MOL0     C20499  -0.227   0.833   5.707 -0.3971  0.1752  0.3480
  156MOL0     C20500  -0.310   0.801   5.831  0.1777 -0.2412 -0.3827
  156MOL0     C20501  -0.441   0.735   5.792  0.9230  0.2908  0.5500
  156MOL0     C20502  -0.533   0.809   5.700  0.5319  0.3981  0.4075
  156MOL0     C20503  -0.677   0.747   5.689 -0.4338 -0.1671 -0.5849
  156MOL0    Cl20504  -0.756   0.743   5.859 -0.0006  0.0280  0.4339
  156MOL0     C20505   0.312   1.304   5.682 -0.3850  0.6177 -0.1798
  156MOL0     C20506   0.445   1.337   5.712  0.2963 -0.5930 -0.7488
  156MOL0     O20507   0.741   1.091   5.833  0.1665 -0.1370 -0.1903
  156MOL0     C20508   0.938   1.352   5.734 -1.2063  0.0459  0.5532
  156MOL0     C20509   1.081   1.390   5.737 -0.2367  0.4482  0.0111
  156MOL0     N20510   1.722   1.357   6.159  0.0207  0.5835 -0.1162
  156MOL0     N20511   1.786   1.410   6.258  0.1849  0.6959  0.5708
  156MOL0     C20512   3.057   1.551   6.404 -0.4635 -0.2093  0.0691
  156MOL0     C20513   3.165   1.519   6.489 -1.5082 -0.2655  0.3035
  156MOL0     C20514   3.430   1.361   6.811 -0.4418 -0.4715  0.2480
  156MOL0     C20515   3.507   1.465   6.861 -0.0649 -0.1828  0.8209
  156MOL0     C20516   3.612   1.433   6.951  0.7442 -0.8347 -0.1948
  156MOL0     C20517   3.640   1.300   6.996  0.1160 -0.3046  0.9508
  156MOL0     O20518   3.754   1.289   7.078  0.3607 -0.2246 -0.0670
  156MOL0     C20519   3.742   1.172   7.161 -0.4534  0.7560 -0.5331
  156MOL0     C20520   3.854   1.173   7.263  1.0791 -1.0544 -0.0399
  156MOL0     C20521   3.860   1.309   7.330  0.7835 -1.1977 -0.4708
  156MOL0     C20522   3.721   1.366   7.365  0.0312 -0.8041  0.3274
  156MOL0     C20523   3.736   1.493   7.436 -0.2535  0.3706  0.5179
  156MOL0     C20524   3.730   1.601   7.487 -0.3309  0.9471 -0.4706
  156MOL0     C20525   3.566   1.196   6.942 -0.3470 -0.5444  0.5339
  156MOL0     C20526   3.464   1.228   6.846  0.4296 -0.1518 -0.1355
  156MOL0     H20527   3.084   1.666   6.773 -1.0883  1.0070  0.0323
  156MOL0     H20528   2.873   1.724   6.626 -1.6971 -0.8084 -1.1156
  156MOL0     H20529   2.771   1.466   6.299  0.0868 -0.0023  0.4168
  156MOL0     H20530   2.840   1.588   6.201 -0.8367 -0.5164 -0.3787
  156MOL0     H20531   2.647   1.727   6.205 -0.2460 -1.0125 -1.0452
  156MOL0     H20532   2.580   1.649   6.344  0.2884 -0.7360  0.3980
  156MOL0     H20533   2.537   1.434   6.206  0.1324  0.0168  0.8153
  156MOL0     H20534   2.620   1.520   6.077  1.1236  1.4440  0.9636
  156MOL0     H20535   2.431   1.703   6.115 -1.5788  0.2513  0.0382
  156MOL0     H20536   2.377   1.559   6.031 -1.2501  0.5380  0.0377
  156MOL0     H20537   2.333   1.612   6.326 -1.0393  0.4792 -0.1071
  156MOL0     H20538   2.316   1.462   6.247  0.0410 -0.3366 -3.4942
  156MOL0     H20539   2.134   1.564   6.082  1.6676 -0.5097 -0.8490
  156MOL0     H20540   2.167   1.718   6.153 -1.6426 -1.0663 -0.5160
  156MOL0     H20541   2.085   1.473   6.308  2.4849 -0.5444 -0.4868
  156MOL0     H20542   2.116   1.610   6.403  2.6545 -0.6395  0.4142
  156MOL0     H20543   1.912   1.711   6.243 -1.7520 -0.7065 -0.9130
  156MOL0     H20544   1.869   1.615   6.385  1.4158 -3.9219  0.2101
  156MOL0     H20545   1.883   1.601   6.009  0.3704  0.6984  0.9106
  156MOL0     H20546   1.760   1.287   5.870 -0.7432 -0.7910  2.0476
  156MOL0     H20547   1.781   1.459   5.832  1.1368 -0.1764  1.0339
  156MOL0     H20548   1.540   1.501   5.908 -3.5730 -1.0526  0.5581
  156MOL0     H20549   1.527   1.338   5.958 -2.6834  2.1744  0.6663
  156MOL0     H20550   1.596   1.415   5.666  0.2758 -1.1295 -1.3213
  156MOL0     H20551   1.564   1.251   5.727 -1.2487 -0.0746 -0.8593
  156MOL0     H20552   1.366   1.351   5.613  4.6850 -0.0969 -1.3510
  156MOL0     H20553   1.369   1.497   5.724  0.7054  0.1459 -1.1390
  156MOL0     H20554   1.198   1.106   5.907 -0.0792 -1.9223 -0.7673
  156MOL0     H20555   0.966   1.046   5.881  0.3240 -0.5702 -1.2812
  156MOL0     H20556   0.587   1.050   5.615 -0.7486 -0.9762  0.5518
  156MOL0     H20557   0.373   0.994   5.562  0.7956  0.0674 -0.2214
  156MOL0     H20558   0.020   1.152   5.766  1.0103  0.4311  0.2628
  156MOL0     H20559   0.142   1.031   5.768 -1.6262  1.3470  2.8668
  156MOL0     H20560   0.031   0.887   5.598 -0.4015  0.8489 -0.8633
  156MOL0     H20561  -0.095   1.015   5.575  1.1421  1.7429 -0.9362
  156MOL0     H20562  -0.131   0.984   5.819 -0.4221 -0.7683  2.0296
  156MOL0     H20563  -0.039   0.830   5.810 -0.9786 -3.2020 -3.7077
  156MOL0     H20564  -0.284   0.902   5.644  0.3197  1.7621  1.3919
  156MOL0     H20565  -0.192   0.743   5.656  4.0545  1.9656 -0.2509
  156MOL0     H20566  -0.324   0.892   5.890  0.5344 -0.9718  0.8613
  156MOL0     H20567  -0.251   0.732   5.892 -0.9532  0.5463  1.7022
  156MOL0     H20568  -0.491   0.709   5.886 -0.2392  1.2470  0.2162
  156MOL0     H20569  -0.411   0.641   5.745  0.1848  0.9287 -1.2984
  156MOL0     H20570  -0.536   0.909   5.743  1.7999  0.3468  0.6761
  156MOL0     H20571  -0.490   0.817   5.600  1.8059 -1.2725  0.7797
  156MOL0     H20572  -0.672   0.646   5.645  1.6862 -0.8179  0.9842
  156MOL0     H20573  -0.735   0.810   5.622 -1.7150  0.6011  1.1783
  156MOL0     H20574   0.234   1.379   5.692  0.1259  1.1700 -0.3133
  156MOL0     H20575   0.474   1.434   5.751  1.0678 -1.0675 -0.1234
  156MOL0     H20576   0.875   1.423   5.682 -0.4501 -0.0071 -0.4745
  156MOL0     H20577   1.112   1.488   5.703  0.8261  0.4436  0.9126
  156MOL0     H20578   3.060   1.519   6.301  0.7219 -2.0377  0.6252
  156MOL0     H20579   3.255   1.469   6.452  0.3664  1.5677  2.0898
  156MOL0     H20580   3.489   1.568   6.834 -0.2171  0.2848  2.5799
  156MOL0     H20581   3.664   1.521   6.988  1.7383 -1.4323 -0.1569
  156MOL0     H20582   3.743   1.086   7.093  1.2884 -0.2464  0.6811
  156MOL0     H20583   3.651   1.178   7.221  0.8160 -1.5391  1.8288
  156MOL0     H20584   3.827   1.099   7.339  0.5375 -2.1918 -1.3152
  156MOL0     H20585   3.941   1.134   7.210 -2.0457 -3.7955 -3.6200
  156MOL0     H20586   3.910   1.374   7.257 -0.5389 -0.3874 -0.6895
  156MOL0     H20587   3.920   1.291   7.420  0.5452 -1.5529 -0.3839
  156MOL0     H20588   3.665   1.392   7.275  1.1231  2.8307  0.5680
  156MOL0     H20589   3.659   1.293   7.419  0.8493 -1.8065 -0.0453
  156MOL0     H20590   3.746   1.694   7.539  0.5139  1.7809 -2.1619
  156MOL0     H20591   3.582   1.090   6.957  0.3861 -0.7899 -1.5815
  156MOL0     H20592   3.404   1.152   6.797  1.1410  0.2126 -1.6273
  157MOL0     O20593   6.827   2.880   1.473 -0.0747  0.1741  0.4300
  157MOL0     C20594   6.864   2.988   1.428  0.1668 -0.6667  0.3862
  157MOL0     O20595   6.822   3.107   1.478  0.0992  0.1849  0.1383
  157MOL0     C20596   6.714   3.107   1.558  0.0461 -0.2688  0.6445
  157MOL0     C20597   6.743   3.130   1.693 -0.0142 -0.3728  0.3149
  157MOL0     C20598   6.632   3.127   1.777 -0.8776 -0.3768 -0.3371
  157MOL0     C20599   6.500   3.117   1.735  0.7690  0.4490 -0.0979
  157MOL0     O20600   6.402   3.121   1.830 -0.4741 -0.7921 -0.2431
  157MOL0     C20601   6.291   3.025   1.823 -0.4565  0.1798  0.4608
  157MOL0     C20602   6.234   3.033   1.964  0.4241 -0.1479 -0.5210
  157MOL0     C20603   6.085   3.047   1.982  0.0625  0.0049 -0.6736
  157MOL0     C20604   6.005   2.926   1.933 -0.8841  0.5112 -0.3812
  157MOL0     C20605   5.858   2.934   1.968 -0.3118  0.6212  0.6527
  157MOL0     C20606   5.772   3.016   1.866 -0.1513  0.0771  0.2215
  157MOL0     C20607   5.629   3.011   1.913 -0.0946 -0.4244 -0.1146
  157MOL0     C20608   5.542   3.105   1.832 -0.1765  0.3058 -0.3154
  157MOL0     N20609   5.398   3.073   1.849 -0.0517 -0.2575 -0.2612
  157MOL0     C20610   5.298   3.153   1.899 -0.0620  0.6371 -0.5076
  157MOL0     C20611   5.182   3.085   1.882 -0.1657  1.1620  0.3687
  157MOL0     C20612   5.051   3.138   1.916  0.4214 -0.5942  1.4684
  157MOL0     C20613   4.934   3.055   1.948 -0.2061  0.2143 -0.3602
  157MOL0     C20614   4.906   2.959   1.837  0.3429 -0.1283  1.0216
  157MOL0     C20615   4.773   2.890   1.843  0.0888  0.7485  0.1884
  157MOL0     O20616   4.669   2.979   1.879  0.8694 -0.3578 -0.1823
  157MOL0     C20617   4.543   2.928   1.884 -0.2374  0.4873  0.1454
  157MOL0     C20618   4.440   3.010   1.945 -0.3142 -0.6530 -0.0345
  157MOL0     C20619   4.309   2.964   1.949  0.9069 -1.0736 -0.2799
  157MOL0     C20620   4.262   2.845   1.888  0.3523 -0.6136  0.6984
  157MOL0     C20621   4.124   2.801   1.899  0.2754  0.8364 -0.2388
  157MOL0     O20622   4.091   2.672   1.872 -0.2053 -0.0990  0.5403
  157MOL0     C20623   3.961   2.631   1.889  0.0847  0.5883  0.3396
  157MOL0     C20624   3.929   2.519   1.973 -0.3793 -0.8427 -0.5120
  157MOL0     C20625   3.797   2.472   1.993  0.0356  0.6368 -0.2920
  157MOL0     C20626   3.694   2.531   1.915  0.3951  0.0903 -0.2343
  157MOL0     O20627   3.562   2.502   1.915  0.2736 -0.4644 -0.1996
  157MOL0     C20628   3.501   2.421   2.025 -0.5165  0.3217  0.6136
  157MOL0     C20629   3.352   2.442   2.006  0.3100  0.5047  0.2135
  157MOL0     C20630   3.267   2.361   2.111  0.7827 -0.4183  0.2007
  157MOL0     C20631   3.119   2.393   2.092  1.1759 -0.2579  0.3506
  157MOL0     C20632   3.041   2.335   2.210 -0.4428  0.9116  0.0283
  157MOL0     C20633   2.896   2.371   2.212  0.4804 -0.1373  0.5329
  157MOL0     C20634   2.830   2.342   2.350 -0.4810 -0.4227 -0.2662
  157MOL0     C20635   2.689   2.394   2.361  0.0430 -0.9507  0.4765
  157MOL0    Cl20636   2.590   2.305   2.243  0.1210 -0.5034  0.2323
  157MOL0     C20637   3.729   2.631   1.825 -0.1213 -0.4357 -0.1296
  157MOL0     C20638   3.859   2.683   1.812 -0.3894 -0.7014 -0.8478
  157MOL0     O20639   4.045   2.883   1.949 -0.3532 -0.1172  1.3798
  157MOL0     C20640   4.370   2.762   1.832  0.5330  0.3688 -0.2276
  157MOL0     C20641   4.504   2.806   1.840  0.4044  0.3828 -0.0914
  157MOL0     N20642   5.211   2.975   1.799  0.1470  0.5518  0.8867
  157MOL0     N20643   5.336   2.965   1.793 -0.0991 -0.1501 -0.7035
  157MOL0     C20644   6.471   3.098   1.600 -0.3315  0.1425 -0.5483
  157MOL0     C20645   6.582   3.087   1.511  0.9830 -0.0696  0.4213
  157MOL0     C20646   6.980   2.978   1.337 -0.1120 -0.6491  0.3879
  157MOL0     C20647   7.061   3.091   1.301 -0.0246  0.3073 -0.6963
  157MOL0     C20648   7.187   3.086   1.241  0.2125  0.3269  0.3856
  157MOL0     C20649   7.234   2.959   1.215 -0.3268  1.1296  0.0692
  157MOL0     O20650   7.351   2.939   1.145 -0.1586  0.8480 -0.8029
  157MOL0     C20651   7.459   2.868   1.212 -0.4500  0.8431 -1.0388
  157MOL0     C20652   7.599   2.924   1.188  0.0782  0.5301 -0.3109
  157MOL0     C20653   7.631   2.923   1.036  0.4277  0.6586  0.2088
  157MOL0     C20654   7.747   3.010   1.006 -0.5113 -0.4770  0.4492
  157MOL0     C20655   7.885   2.969   1.053 -0.1239  0.8080 -0.1691
  157MOL0     C20656   7.988   2.920   1.097 -0.5428  0.3434 -0.0615
  157MOL0     C20657   7.168   2.844   1.251 -0.2995  0.0985  0.1876
  157MOL0     C20658   7.039   2.848   1.308 -0.7970 -0.1243  0.7659
  157MOL0     H20659   6.847   3.134   1.727 -0.0706 -0.1205  0.4601
  157MOL0     H20660   6.642   3.143   1.884 -0.2523  0.8375 -0.5576
  157MOL0     H20661   6.337   2.927   1.807  1.2112  0.9913  0.0700
  157MOL0     H20662   6.220   3.061   1.748  1.3762  0.7587 -1.0644
  157MOL0     H20663   6.278   3.124   2.005  0.6051 -0.2113 -0.5733
  157MOL0     H20664   6.276   2.954   2.028  1.1353 -1.4970 -2.5339
  157MOL0     H20665   6.039   3.125   1.920 -2.2478  0.6341  1.6114
  157MOL0     H20666   6.058   3.074   2.085 -1.9040  0.2618 -1.2135
  157MOL0     H20667   6.019   2.911   1.826 -0.9296  1.2179 -0.4906
  157MOL0     H20668   6.042   2.836   1.985  2.6984  0.9976 -1.8007
  157MOL0     H20669   5.847   2.975   2.069 -1.8143 -0.2863  0.8756
  157MOL0     H20670   5.824   2.830   1.965 -0.7497  0.7742  0.2894
  157MOL0     H20671   5.775   2.977   1.764 -3.1734 -3.0575  1.1533
  157MOL0     H20672   5.810   3.118   1.869 -0.3287  0.1323  0.7112
  157MOL0     H20673   5.585   2.911   1.911  0.0489 -0.5371  1.3630
  157MOL0     H20674   5.626   3.045   2.017  1.7636  1.4130 -0.6036
  157MOL0     H20675   5.546   3.089   1.724 -2.7306 -2.0452 -0.1801
  157MOL0     H20676   5.562   3.209   1.859 -0.0760 -0.0533  1.0503
  157MOL0     H20677   5.303   3.243   1.960  0.9156 -1.3444  2.5488
  157MOL0     H20678   5.012   3.190   1.829 -2.4975 -1.9075  1.8815
  157MOL0     H20679   5.061   3.217   1.991 -2.4371  2.4176 -1.0005
  157MOL0     H20680   4.850   3.123   1.964  0.4840  0.5927  2.1199
  157MOL0     H20681   4.954   2.999   2.040 -1.2783  0.9879  0.3707
  157MOL0     H20682   4.919   3.004   1.738  0.8244 -3.6625 -0.6591
  157MOL0     H20683   4.982   2.881   1.838 -2.4510 -3.1270 -1.0790
  157MOL0     H20684   4.772   2.819   1.927  0.3474  0.4707 -0.0397
  157MOL0     H20685   4.752   2.835   1.751  3.0359  1.4444 -1.0049
  157MOL0     H20686   4.466   3.100   2.001 -1.2768  1.1420 -2.3055
  157MOL0     H20687   4.249   3.038   2.001  2.1475 -0.0237 -0.2861
  157MOL0     H20688   4.016   2.476   2.022 -0.8041 -0.3408  0.7227
  157MOL0     H20689   3.778   2.392   2.063  0.4804  2.4766  2.0296
  157MOL0     H20690   3.540   2.469   2.115  0.6285  1.8188 -0.6239
  157MOL0     H20691   3.527   2.315   2.017 -0.7914  0.3665 -1.4609
  157MOL0     H20692   3.323   2.406   1.907 -1.6699  2.5286 -0.0334
  157MOL0     H20693   3.332   2.550   2.011 -2.4302  0.1749 -1.3140
  157MOL0     H20694   3.304   2.376   2.213  2.8620 -0.5804 -0.4762
  157MOL0     H20695   3.269   2.253   2.096 -0.6478 -0.5792  1.0467
  157MOL0     H20696   3.101   2.501   2.085 -0.6581 -0.5150  0.7371
  157MOL0     H20697   3.074   2.356   1.999 -1.6104 -0.0792  1.5297
  157MOL0     H20698   3.085   2.380   2.299 -1.2863  3.1368 -0.6226
  157MOL0     H20699   3.045   2.226   2.208  0.7493  0.9423 -1.8271
  157MOL0     H20700   2.850   2.316   2.130  0.5425  1.7462 -0.8362
  157MOL0     H20701   2.889   2.476   2.181  1.7861 -0.1798  0.0374
  157MOL0     H20702   2.846   2.235   2.361  4.1204  0.0349 -0.7817
  157MOL0     H20703   2.889   2.388   2.430 -1.2175  0.8020 -0.3921
  157MOL0     H20704   2.685   2.497   2.326 -2.4533 -1.3751 -0.6434
  157MOL0     H20705   2.642   2.380   2.459  0.5535  0.2553  0.9104
  157MOL0     H20706   3.650   2.669   1.762  0.2210 -0.8352 -0.8098
  157MOL0     H20707   3.874   2.762   1.739 -2.1715  2.1203  1.6462
  157MOL0     H20708   4.340   2.669   1.785  0.7750  1.1958 -2.0873
  157MOL0     H20709   4.582   2.736   1.811  1.9773  0.9951  2.4018
  157MOL0     H20710   6.371   3.076   1.566 -0.0143 -3.0548  0.3325
  157MOL0     H20711   6.564   3.069   1.406 -0.4138  2.2872  0.1861
  157MOL0     H20712   7.027   3.188   1.335  4.1317  2.1037 -1.0186
  157MOL0     H20713   7.252   3.171   1.222  1.2935 -0.4057  0.6534
  157MOL0     H20714   7.453   2.760   1.196  2.6074 -0.1719  3.0647
  157MOL0     H20715   7.444   2.877   1.320  2.1654 -3.4156 -0.0832
  157MOL0     H20716   7.603   3.024   1.231 -0.3735  0.3103  0.2624
  157MOL0     H20717   7.677   2.861   1.231 -1.7087 -2.7174 -1.4132
  157MOL0     H20718   7.542   2.958   0.984 -0.4263  3.2671  3.1236
  157MOL0     H20719   7.656   2.824   0.995 -0.2300  1.2619 -1.7898
  157MOL0     H20720   7.750   3.008   0.897 -0.6435  2.0300  0.3525
  157MOL0     H20721   7.727   3.109   1.048  0.0953  0.7164 -1.9468
  157MOL0     H20722   8.083   2.889   1.134 -1.4971 -0.4825  1.8488
  157MOL0     H20723   7.222   2.751   1.233  0.8073  1.2129 -3.0149
  157MOL0     H20724   6.983   2.761   1.341 -1.6986  1.1706  2.8279
  158MOL0     O20725   9.885   5.995   7.740 -0.5489 -0.4846  0.1322
  158MOL0     C20726   9.971   5.996   7.830  0.0409 -0.0823 -0.1547
  158MOL0     O20727   9.966   6.071   7.946 -0.3549  0.0862 -0.4812
  158MOL0     C20728   9.852   6.143   7.990 -0.1672 -0.1197  0.4173
  158MOL0     C20729   9.722   6.094   8.000 -0.1466 -0.6099  0.9433
  158MOL0     C20730   9.626   6.184   8.051  0.3883 -0.0578  0.9383
  158MOL0     C20731   9.651   6.315   8.083 -0.6078 -0.2309 -0.2848
  158MOL0     O20732   9.551   6.399   8.118 -0.5276  0.1853 -0.2997
  158MOL0     C20733   9.585   6.512   8.195 -0.0506  0.0839  0.0817
  158MOL0     C20734   9.460   6.568   8.261 -0.1557 -0.1450  0.7139
  158MOL0     C20735   9.463   6.711   8.294  0.0591 -0.3762  0.0350
  158MOL0     C20736   9.552   6.752   8.412 -0.2669 -0.3925 -0.5731
  158MOL0     C20737   9.535   6.902   8.444 -0.8091  0.4996  0.0496
  158MOL0     C20738   9.611   6.949   8.566  0.2109 -0.7311 -0.2366
  158MOL0     C20739   9.766   6.960   8.559 -0.3630 -0.4460  0.3177
  158MOL0     C20740   9.818   7.008   8.690  0.1225  0.1021  0.9860
  158MOL0     N20741   9.970   6.999   8.698  0.1976  1.0353  0.2282
  158MOL0     C20742  10.056   7.083   8.635 -0.6709  0.5501  0.0323
  158MOL0     C20743  10.175   7.036   8.662 -0.8016 -0.5250  0.4572
  158MOL0     C20744  10.298   7.073   8.588  0.1336  0.1219  0.2512
  158MOL0     C20745  10.403   7.116   8.687 -1.1781  0.1237  0.3811
  158MOL0     C20746  10.482   6.988   8.721 -0.1410  0.5600 -0.4606
  158MOL0     C20747  10.593   6.955   8.628  0.9334 -0.4129 -0.0832
  158MOL0     O20748  10.672   6.849   8.683 -0.0241  0.3274 -0.0456
  158MOL0     C20749  10.626   6.717   8.679 -0.7385  0.0206 -0.0268
  158MOL0     C20750  10.715   6.627   8.740 -0.2217  0.0894 -0.8366
  158MOL0     C20751  10.697   6.488   8.730 -0.0558 -0.0602 -0.6894
  158MOL0     C20752  10.584   6.436   8.672  0.1514  0.1173  0.2853
  158MOL0     C20753  10.562   6.295   8.646  0.4327  0.2164  0.5691
  158MOL0     O20754  10.645   6.221   8.710 -0.1888  0.5375  0.1559
  158MOL0     C20755  10.668   6.095   8.666 -0.2692 -0.1770 -0.2526
  158MOL0     C20756  10.786   6.077   8.589  0.5013  0.5621  0.3292
  158MOL0     C20757  10.813   5.946   8.542 -0.3562  0.3572  0.5107
  158MOL0     C20758  10.723   5.842   8.563 -0.1381 -0.4121 -0.1953
  158MOL0     O20759  10.759   5.734   8.490  0.1146 -0.5165  0.6915
  158MOL0     C20760  10.704   5.613   8.516  0.5671 -0.2556  0.0408
  158MOL0     C20761  10.747   5.560   8.657  0.1267 -0.1590  0.2700
  158MOL0     C20762  10.679   5.425   8.682 -0.2887 -0.3306  0.6719
  158MOL0     C20763  10.739   5.330   8.794  0.7892  0.8291  0.7481
  158MOL0     C20764  10.663   5.195   8.833 -0.1353  0.0498  0.0021
  158MOL0     C20765  10.514   5.220   8.841 -1.0461  0.4558  0.1397
  158MOL0     C20766  10.425   5.096   8.864 -0.3057  0.4618 -0.6227
  158MOL0     C20767  10.468   5.018   8.988 -0.3640  0.1218 -0.2511
  158MOL0    Cl20768  10.359   4.893   9.046 -0.0485  0.0928 -0.0924
  158MOL0     C20769  10.610   5.856   8.648 -0.1364 -0.6799 -0.4908
  158MOL0     C20770  10.582   5.985   8.697  0.4734 -0.0484  0.2751
  158MOL0     O20771  10.478   6.257   8.561 -0.0006 -0.3100 -0.4727
  158MOL0     C20772  10.488   6.529   8.613 -0.5888  0.5161  0.3167
  158MOL0     C20773  10.513   6.665   8.617  0.1868 -0.0042 -0.7197
  158MOL0     N20774  10.163   6.928   8.741 -0.4161  0.2466  1.2211
  158MOL0     N20775  10.040   6.916   8.775  0.5863 -0.1039  0.3291
  158MOL0     C20776   9.789   6.355   8.087  0.7289 -0.1540  0.3211
  158MOL0     C20777   9.887   6.273   8.042  0.2386  0.4148  1.0323
  158MOL0     C20778  10.100   5.912   7.810  1.2433 -1.4085  0.4344
  158MOL0     C20779  10.154   5.889   7.676  0.3955 -0.0398 -0.4636
  158MOL0     C20780  10.278   5.833   7.664  0.0334 -0.7546  0.0944
  158MOL0     C20781  10.350   5.793   7.775  0.0803  0.7675  0.5916
  158MOL0     O20782  10.482   5.744   7.775  1.1118 -0.5839 -0.2898
  158MOL0     C20783  10.565   5.786   7.668 -0.0533 -0.1826  0.1932
  158MOL0     C20784  10.709   5.754   7.710 -1.4145 -0.5613  0.6031
  158MOL0     C20785  10.823   5.792   7.616 -0.2700 -0.5142  0.3396
  158MOL0     C20786  10.959   5.784   7.674  0.0616  0.9214 -0.2994
  158MOL0     C20787  11.065   5.756   7.581 -0.7884  0.0040  0.0182
  158MOL0     C20788  11.156   5.731   7.506 -0.1211 -0.7472  0.8505
  158MOL0     C20789  10.296   5.808   7.900  0.4324 -0.3108  0.1053
  158MOL0     C20790  10.170   5.867   7.929 -0.1633  0.4679 -1.0219
  158MOL0     H20791   9.688   5.996   7.967 -1.4489  0.1668 -0.1443
  158MOL0     H20792   9.527   6.145   8.074 -0.6112  2.3725  1.0581
  158MOL0     H20793   9.635   6.585   8.130  2.1756 -0.8093  0.7071
  158MOL0     H20794   9.661   6.489   8.270  1.5754 -1.3523 -1.8921
  158MOL0     H20795   9.440   6.505   8.348  0.7524 -1.0307  0.3088
  158MOL0     H20796   9.372   6.553   8.198  1.6263 -1.3306 -1.6885
  158MOL0     H20797   9.361   6.743   8.317 -0.0393 -1.0020  0.4981
  158MOL0     H20798   9.501   6.763   8.205  1.0686 -0.4792  0.4022
  158MOL0     H20799   9.524   6.687   8.495  3.3267 -1.3487  0.0760
  158MOL0     H20800   9.657   6.731   8.387  0.1674 -0.1303  0.9103
  158MOL0     H20801   9.429   6.925   8.447 -0.7548  0.8065 -0.4067
  158MOL0     H20802   9.575   6.961   8.361  2.4316  1.5912  2.1857
  158MOL0     H20803   9.574   6.903   8.658  0.7283  0.1049  0.4025
  158MOL0     H20804   9.576   7.051   8.586  1.4149  0.2163 -2.5789
  158MOL0     H20805   9.818   6.865   8.543  0.6532  0.1134  0.1920
  158MOL0     H20806   9.806   7.029   8.484  2.2049 -0.3657  1.6489
  158MOL0     H20807   9.760   6.950   8.763 -0.6245 -2.9415 -1.7587
  158MOL0     H20808   9.784   7.110   8.706 -0.8919 -0.4980  2.9336
  158MOL0     H20809  10.030   7.152   8.554  2.4910  0.9173 -0.8116
  158MOL0     H20810  10.275   7.158   8.523  0.8336 -0.6525 -1.0497
  158MOL0     H20811  10.324   6.992   8.519  0.2295  0.9485 -0.7004
  158MOL0     H20812  10.360   7.158   8.778  1.1287  0.5905  1.3172
  158MOL0     H20813  10.469   7.190   8.641 -1.9262  1.4752  1.4239
  158MOL0     H20814  10.530   6.999   8.819 -3.2558 -2.8747  1.7419
  158MOL0     H20815  10.416   6.902   8.726  0.1102  0.4122  0.8773
  158MOL0     H20816  10.660   7.039   8.608  0.3521  0.3056  0.9393
  158MOL0     H20817  10.560   6.929   8.527  0.3912  2.6502 -0.7817
  158MOL0     H20818  10.808   6.669   8.778 -0.5770  0.6114 -0.5273
  158MOL0     H20819  10.775   6.425   8.771  0.5456 -0.1532 -1.9343
  158MOL0     H20820  10.855   6.155   8.561  1.9766 -0.7612  0.1107
  158MOL0     H20821  10.897   5.924   8.477 -2.2567 -2.2341 -1.2742
  158MOL0     H20822  10.734   5.539   8.441  0.7289 -0.4240  0.2721
  158MOL0     H20823  10.595   5.619   8.508  0.2093  0.7392  3.8595
  158MOL0     H20824  10.727   5.633   8.736  0.9505  1.0275 -0.5792
  158MOL0     H20825  10.855   5.543   8.660  0.7732  2.5000 -2.4709
  158MOL0     H20826  10.685   5.371   8.587  0.5225  0.9169 -0.0205
  158MOL0     H20827  10.572   5.443   8.700 -0.0751  1.8398  0.0928
  158MOL0     H20828  10.844   5.313   8.768  0.1506  0.1263 -1.5994
  158MOL0     H20829  10.734   5.395   8.882  0.5830  1.2937  0.4000
  158MOL0     H20830  10.706   5.157   8.926 -2.7336  0.8373  1.6105
  158MOL0     H20831  10.681   5.121   8.754 -2.2459  1.7589 -2.2131
  158MOL0     H20832  10.480   5.249   8.741 -0.9103  0.6101  0.1372
  158MOL0     H20833  10.504   5.301   8.914  2.4666  1.0697  0.1000
  158MOL0     H20834  10.320   5.127   8.872 -1.2515 -1.6552 -3.3429
  158MOL0     H20835  10.433   5.033   8.775  0.8583 -1.7530  0.9446
  158MOL0     H20836  10.481   5.094   9.064 -0.6277 -2.0791  2.1331
  158MOL0     H20837  10.565   4.969   8.973 -1.2384 -2.4978  1.8312
  158MOL0     H20838  10.545   5.769   8.648 -0.5735 -0.3710  0.3711
  158MOL0     H20839  10.491   6.007   8.752 -0.2026  0.6198 -1.0585
  158MOL0     H20840  10.409   6.487   8.552  1.2786 -0.4565 -1.5760
  158MOL0     H20841  10.446   6.736   8.569 -2.0958 -1.2024  0.5282
  158MOL0     H20842   9.818   6.450   8.131 -3.7868  1.3792  0.5027
  158MOL0     H20843   9.991   6.303   8.047  1.0225 -2.2562  3.4812
  158MOL0     H20844  10.098   5.931   7.593  0.6715 -0.1913 -0.7289
  158MOL0     H20845  10.324   5.823   7.566  1.1358  3.1742  0.0510
  158MOL0     H20846  10.543   5.893   7.657 -1.3995 -0.5120 -0.5184
  158MOL0     H20847  10.532   5.728   7.581  1.2868  0.1602 -0.5812
  158MOL0     H20848  10.718   5.811   7.803 -0.3501 -0.9461  0.7520
  158MOL0     H20849  10.720   5.646   7.717 -2.6688 -1.1587 -3.9503
  158MOL0     H20850  10.820   5.900   7.598 -0.6065 -0.0672  2.7473
  158MOL0     H20851  10.814   5.735   7.523  0.9386  0.9227 -0.7283
  158MOL0     H20852  10.972   5.875   7.732 -3.6518  0.7778  1.0388
  158MOL0     H20853  10.963   5.704   7.748  0.6095  3.1429  2.2054
  158MOL0     H20854  11.232   5.716   7.431  0.7828  3.7504  0.5449
  158MOL0     H20855  10.344   5.776   7.993  0.1884  1.7374  0.9861
  158MOL0     H20856  10.141   5.882   8.032  3.1060 -2.8907  0.6371
  159MOL0     O20857  10.607   5.241   3.690  0.5104  0.4300  0.2809
  159MOL0     C20858  10.520   5.332   3.681 -0.1246  0.0590 -0.5502
  159MOL0     O20859  10.386   5.323   3.715  0.1620  0.2636 -0.3419
  159MOL0     C20860  10.327   5.199   3.763 -0.0173 -0.1628  0.2238
  159MOL0     C20861  10.372   5.064   3.743  0.7597 -0.5325 -0.4976
  159MOL0     C20862  10.290   4.952   3.762 -0.0401 -0.8850  0.3162
  159MOL0     C20863  10.157   4.967   3.824 -0.6379  0.5061  0.9742
  159MOL0     O20864  10.080   4.855   3.857 -0.0973  0.6261  0.2397
  159MOL0     C20865   9.986   4.865   3.966 -0.4415  1.0787  0.8841
  159MOL0     C20866   9.928   4.722   3.975  0.4527  0.2290 -0.0421
  159MOL0     C20867  10.022   4.627   4.059  0.3948  0.1390  0.7838
  159MOL0     C20868  10.016   4.666   4.205  0.0868 -0.5268 -0.1082
  159MOL0     C20869  10.055   4.552   4.307  0.5835  0.6301  0.6733
  159MOL0     C20870  10.075   4.606   4.456  0.4725 -0.6902  1.3776
  159MOL0     C20871  10.121   4.499   4.551 -0.8500  0.0888  0.6933
  159MOL0     C20872  10.042   4.358   4.551  0.7117 -1.7743  0.0781
  159MOL0     N20873   9.904   4.378   4.592 -0.2078  0.2807  0.1681
  159MOL0     C20874   9.795   4.396   4.512  0.2880 -0.1239  0.4708
  159MOL0     C20875   9.694   4.393   4.606 -0.1017  0.7737  0.5543
  159MOL0     C20876   9.546   4.404   4.559  0.2644  0.5722  0.1114
  159MOL0     C20877   9.476   4.267   4.554 -0.2195 -0.6885  0.2326
  159MOL0     C20878   9.333   4.274   4.502  0.5263 -1.1232  1.2377
  159MOL0     C20879   9.282   4.139   4.440 -0.9458  0.4121  0.8502
  159MOL0     O20880   9.265   4.150   4.303  0.0374  0.4330  0.0451
  159MOL0     C20881   9.192   4.056   4.239 -1.6288  0.5680 -0.1396
  159MOL0     C20882   9.157   3.929   4.288  0.5695 -0.2272  0.2112
  159MOL0     C20883   9.076   3.849   4.209 -0.5387 -0.0250  1.3036
  159MOL0     C20884   9.026   3.888   4.084  0.0818  0.2208  0.1160
  159MOL0     C20885   8.923   3.804   4.008  0.1826  0.7032 -0.6256
  159MOL0     O20886   8.857   3.866   3.913  0.0559  0.1411  0.2442
  159MOL0     C20887   8.782   3.799   3.814 -1.2155 -0.6271  0.5348
  159MOL0     C20888   8.803   3.858   3.687  0.0243 -0.1346  0.9335
  159MOL0     C20889   8.733   3.812   3.572 -0.6501  0.7525  0.8516
  159MOL0     C20890   8.643   3.713   3.590  0.8389  0.3728  1.0526
  159MOL0     O20891   8.574   3.654   3.485  0.1368 -0.5678 -0.2156
  159MOL0     C20892   8.542   3.750   3.379  0.1317 -0.0006 -0.0316
  159MOL0     C20893   8.411   3.709   3.307 -0.2475 -0.4059 -0.7118
  159MOL0     C20894   8.452   3.626   3.187 -0.3182  0.6499  0.5689
  159MOL0     C20895   8.329   3.607   3.096 -0.5160 -0.0582  0.3512
  159MOL0     C20896   8.356   3.531   2.970  0.1991  0.0525  0.0145
  159MOL0     C20897   8.227   3.483   2.902  0.1259  0.5063  0.2029
  159MOL0     C20898   8.277   3.399   2.785  0.1894  0.4381  0.8553
  159MOL0     C20899   8.151   3.378   2.690 -0.7147 -0.2698 -0.3226
  159MOL0    Cl20900   8.050   3.256   2.773  0.1707 -0.0990  0.1482
  159MOL0     C20901   8.621   3.650   3.710  0.5180 -0.0935  0.3535
  159MOL0     C20902   8.696   3.692   3.817 -0.5792 -0.5524  0.2126
  159MOL0     O20903   8.909   3.683   4.043  0.0582 -0.1198  0.3526
  159MOL0     C20904   9.066   4.010   4.031  0.1867  0.7220 -0.6010
  159MOL0     C20905   9.148   4.090   4.109 -0.2383  0.4593  0.2927
  159MOL0     N20906   9.741   4.392   4.738 -0.5142 -0.2681  0.2640
  159MOL0     N20907   9.867   4.369   4.727 -0.3915  1.2883 -0.1497
  159MOL0     C20908  10.110   5.103   3.840 -0.4031  0.3956 -0.2897
  159MOL0     C20909  10.199   5.211   3.820 -0.4427  0.1588 -0.2104
  159MOL0     C20910  10.564   5.465   3.636 -0.3069 -0.0390  0.2324
  159MOL0     C20911  10.472   5.570   3.603  0.0524  0.2651  0.1628
  159MOL0     C20912  10.525   5.683   3.542 -0.7676  0.5320  0.2985
  159MOL0     C20913  10.663   5.694   3.508 -0.1521 -0.2576  1.1053
  159MOL0     O20914  10.699   5.812   3.454 -0.5880 -0.6047  0.3091
  159MOL0     C20915  10.833   5.835   3.426  0.2427 -0.5408 -0.2065
  159MOL0     C20916  10.834   5.982   3.391 -0.4664 -0.4640 -0.4616
  159MOL0     C20917  10.772   6.046   3.269  0.2004  0.1678  0.3468
  159MOL0     C20918  10.806   5.970   3.134 -0.0676  0.0126  0.3332
  159MOL0     C20919  10.942   5.994   3.096  0.0079 -0.6539  0.8903
  159MOL0     C20920  11.054   6.013   3.065 -0.6686 -0.2794 -0.3128
  159MOL0     C20921  10.750   5.588   3.535  0.0090  0.0141  0.4227
  159MOL0     C20922  10.705   5.477   3.607  0.2602  0.2859  0.2291
  159MOL0     H20923  10.467   5.045   3.695  1.1005  0.9932 -0.4837
  159MOL0     H20924  10.326   4.854   3.735  0.4042 -0.7607  0.4426
  159MOL0     H20925   9.911   4.940   3.939 -0.6964  0.3772 -0.4333
  159MOL0     H20926  10.030   4.897   4.061 -0.0034  0.8865  0.7513
  159MOL0     H20927   9.924   4.678   3.875  1.7190  1.1532 -0.5320
  159MOL0     H20928   9.830   4.731   4.022 -0.1440 -2.4660 -0.5961
  159MOL0     H20929  10.124   4.641   4.022 -0.1079  0.0533 -0.6828
  159MOL0     H20930   9.981   4.527   4.039 -1.6914  1.5316 -2.7345
  159MOL0     H20931  10.090   4.747   4.210  0.6670 -1.1063  1.3356
  159MOL0     H20932   9.919   4.705   4.235  0.0603  1.8124 -2.8169
  159MOL0     H20933  10.151   4.512   4.274 -1.0410 -1.7610 -1.5021
  159MOL0     H20934   9.989   4.465   4.310 -0.2789  1.2867  1.4884
  159MOL0     H20935   9.979   4.640   4.497  0.1947 -0.7898  0.8263
  159MOL0     H20936  10.150   4.685   4.453  0.3423 -0.5281  2.2350
  159MOL0     H20937  10.220   4.476   4.511 -0.5902  1.2381  0.6662
  159MOL0     H20938  10.138   4.544   4.649 -2.4024 -0.9727  1.5021
  159MOL0     H20939  10.086   4.282   4.617  0.2061 -1.1940  1.1055
  159MOL0     H20940  10.052   4.321   4.449 -1.3534  3.1330 -2.2553
  159MOL0     H20941   9.791   4.414   4.405  3.4369  0.4274  0.3219
  159MOL0     H20942   9.544   4.453   4.461 -1.1901 -2.1315 -1.3079
  159MOL0     H20943   9.497   4.466   4.634  2.1887  2.4851 -0.1227
  159MOL0     H20944   9.471   4.224   4.654  0.6894 -0.0316  0.5691
  159MOL0     H20945   9.531   4.197   4.489  0.6266 -1.9548  2.2213
  159MOL0     H20946   9.268   4.302   4.586 -0.4532 -2.1747  0.8603
  159MOL0     H20947   9.327   4.354   4.427  0.0318 -2.1540  0.1301
  159MOL0     H20948   9.189   4.107   4.488 -0.4101 -0.3748  1.3904
  159MOL0     H20949   9.367   4.072   4.457 -0.8414  0.5788  0.9928
  159MOL0     H20950   9.187   3.902   4.389 -3.4199  1.5852  2.1317
  159MOL0     H20951   9.052   3.747   4.240 -1.6913 -0.2522 -0.1859
  159MOL0     H20952   8.871   3.941   3.677 -1.5922  1.1232 -0.1083
  159MOL0     H20953   8.746   3.866   3.479  0.3158 -0.1340  0.4553
  159MOL0     H20954   8.624   3.762   3.308  0.7546  0.0830  0.6863
  159MOL0     H20955   8.526   3.849   3.421 -1.6349 -0.0223 -0.5596
  159MOL0     H20956   8.358   3.798   3.270  0.9491 -1.1464 -4.7318
  159MOL0     H20957   8.351   3.644   3.371  0.3812 -1.3395 -1.0484
  159MOL0     H20958   8.484   3.536   3.240 -0.9884  0.2887  0.3785
  159MOL0     H20959   8.538   3.660   3.129  0.6669  0.5792  1.9527
  159MOL0     H20960   8.248   3.566   3.156 -1.7559 -0.3025 -1.4227
  159MOL0     H20961   8.287   3.704   3.067 -1.7400 -1.1531 -1.7378
  159MOL0     H20962   8.413   3.444   3.002 -0.9817 -0.5680  0.5121
  159MOL0     H20963   8.408   3.599   2.903  1.9920 -3.2433 -2.2514
  159MOL0     H20964   8.162   3.568   2.878 -1.7302 -0.3869  1.7590
  159MOL0     H20965   8.160   3.422   2.963  0.4692 -0.4984 -0.3987
  159MOL0     H20966   8.356   3.445   2.725 -1.2578  0.7621 -0.9029
  159MOL0     H20967   8.322   3.304   2.814  0.9562  0.3695 -0.4623
  159MOL0     H20968   8.189   3.335   2.597 -0.0406 -0.1446 -0.1056
  159MOL0     H20969   8.096   3.471   2.673 -2.3464 -1.0631  0.3773
  159MOL0     H20970   8.555   3.564   3.714 -2.2705  1.7363 -2.0916
  159MOL0     H20971   8.692   3.635   3.910 -3.1631  0.3600  0.7290
  159MOL0     H20972   9.040   4.043   3.931  0.0564 -2.0026 -1.5537
  159MOL0     H20973   9.175   4.187   4.069  0.8733 -0.5926 -1.6805
  159MOL0     H20974  10.012   5.126   3.879 -0.3278 -0.7341  0.6205
  159MOL0     H20975  10.154   5.310   3.822 -1.3456 -0.1578 -2.0920
  159MOL0     H20976  10.365   5.566   3.620 -0.3710  0.7345 -2.0711
  159MOL0     H20977  10.458   5.764   3.513  0.2734  0.8886 -1.2154
  159MOL0     H20978  10.871   5.764   3.353  1.3985 -0.9158  0.7255
  159MOL0     H20979  10.897   5.830   3.515  0.0088 -0.3101 -0.0223
  159MOL0     H20980  10.791   6.026   3.482  1.8291 -0.4490  0.6813
  159MOL0     H20981  10.938   6.015   3.391 -0.9964  1.2912 -0.2335
  159MOL0     H20982  10.827   6.140   3.271  3.0653 -1.3912  2.4893
  159MOL0     H20983  10.666   6.064   3.285 -0.7721 -0.7538 -3.7165
  159MOL0     H20984  10.785   5.863   3.141  4.4335 -1.5974 -4.2418
  159MOL0     H20985  10.740   6.010   3.057  0.5439 -0.4424 -0.4480
  159MOL0     H20986  11.158   6.015   3.039 -0.4340 -0.9789  0.5078
  159MOL0     H20987  10.849   5.586   3.491 -0.6999 -1.7986 -1.2491
  159MOL0     H20988  10.775   5.395   3.619  0.1583  0.2676  0.7168
  160MOL0     O20989   0.662   4.941   1.796 -0.2797 -0.7816  0.2097
  160MOL0     C20990   0.692   5.033   1.715  0.4869 -0.0332 -0.2520
  160MOL0     O20991   0.685   5.166   1.730  0.6105  0.3038 -0.3465
  160MOL0     C20992   0.649   5.222   1.848  0.0660  0.3443 -0.4487
  160MOL0     C20993   0.741   5.270   1.937 -0.7408 -0.3336 -0.3409
  160MOL0     C20994   0.697   5.332   2.063  0.2963  0.0720 -0.3144
  160MOL0     C20995   0.566   5.356   2.090  0.3238 -0.3622 -0.4150
  160MOL0     O20996   0.522   5.408   2.212 -0.1826  0.6836 -0.5214
  160MOL0     C20997   0.543   5.552   2.210  0.6280 -0.0904  0.4786
  160MOL0     C20998   0.477   5.617   2.333 -0.4012 -0.3102 -0.7532
  160MOL0     C20999   0.330   5.595   2.327  0.6982 -0.4465 -0.5924
  160MOL0     C21000   0.244   5.662   2.216 -0.0342 -0.1839 -0.7198
  160MOL0     C21001   0.092   5.650   2.248 -0.7457 -0.4242 -0.1538
  160MOL0     C21002   0.014   5.696   2.134 -0.0813  0.0205  0.7808
  160MOL0     C21003  -0.129   5.698   2.172  0.1123  0.2395  0.6140
  160MOL0     C21004  -0.209   5.787   2.075 -0.8659  0.3399  0.4738
  160MOL0     N21005  -0.352   5.770   2.079  1.1233  0.1076 -0.1746
  160MOL0     C21006  -0.430   5.659   2.048  0.1746 -0.1298 -0.6832
  160MOL0     C21007  -0.562   5.695   2.056  1.2099  0.1486 -0.2176
  160MOL0     C21008  -0.700   5.627   2.039  0.0809 -0.6241  0.1456
  160MOL0     C21009  -0.683   5.479   1.995 -0.1871  0.1747 -0.9034
  160MOL0     C21010  -0.814   5.422   1.947 -0.3970 -0.1273  0.5822
  160MOL0     C21011  -0.940   5.440   2.033 -0.0675  0.1143 -0.2350
  160MOL0     O21012  -0.913   5.397   2.171 -0.4862  0.1356  0.4513
  160MOL0     C21013  -1.009   5.357   2.258  0.5146  0.1389  0.5964
  160MOL0     C21014  -0.965   5.314   2.381 -0.0758  0.0382  0.0042
  160MOL0     C21015  -1.046   5.258   2.481  0.2709 -0.5123 -0.2271
  160MOL0     C21016  -1.191   5.258   2.462 -0.5070 -0.1279  0.0493
  160MOL0     C21017  -1.278   5.209   2.573 -0.0698  0.4540 -0.5064
  160MOL0     O21018  -1.412   5.224   2.567 -0.3608  0.4679  0.1281
  160MOL0     C21019  -1.505   5.167   2.653  0.5215  0.1799  0.8279
  160MOL0     C21020  -1.632   5.220   2.637  0.3306 -0.6779  0.7330
  160MOL0     C21021  -1.746   5.164   2.699 -0.6327  0.0101 -0.7642
  160MOL0     C21022  -1.724   5.053   2.785  0.9616  0.2789 -1.1006
  160MOL0     O21023  -1.840   5.002   2.841 -0.3509  0.0044 -0.5042
  160MOL0     C21024  -1.844   4.884   2.908 -0.5808 -0.3707 -0.1957
  160MOL0     C21025  -1.991   4.862   2.971 -0.2478  0.3266 -0.5918
  160MOL0     C21026  -2.104   4.859   2.870 -0.7318  0.5024  0.2581
  160MOL0     C21027  -2.234   4.835   2.939  0.4439  0.2074 -0.8710
  160MOL0     C21028  -2.349   4.812   2.834  0.3018  0.4664  0.2854
  160MOL0     C21029  -2.485   4.809   2.912  0.7058 -0.7725 -0.3627
  160MOL0     C21030  -2.597   4.827   2.808  0.6620  0.6456 -0.0040
  160MOL0     C21031  -2.732   4.768   2.851  0.0045 -0.0526 -0.1069
  160MOL0    Cl21032  -2.860   4.809   2.732 -0.0160  0.2356  0.1566
  160MOL0     C21033  -1.592   5.002   2.810 -0.1250  0.2989  0.1177
  160MOL0     C21034  -1.482   5.058   2.742 -0.3194 -0.3711  0.2611
  160MOL0     O21035  -1.216   5.155   2.663  0.5003  0.4325  0.0339
  160MOL0     C21036  -1.237   5.317   2.342  0.1113  0.6610  0.2309
  160MOL0     C21037  -1.150   5.359   2.238 -0.1392  0.1382 -1.0890
  160MOL0     N21038  -0.560   5.827   2.086  0.0032 -0.6449  0.8860
  160MOL0     N21039  -0.437   5.873   2.107 -0.5541 -0.0742 -0.3138
  160MOL0     C21040   0.472   5.308   1.994 -0.0981 -0.2600 -0.1422
  160MOL0     C21041   0.512   5.245   1.878  0.3964 -0.4670 -0.4537
  160MOL0     C21042   0.712   4.983   1.577 -0.4399 -0.1297  0.6945
  160MOL0     C21043   0.709   5.065   1.471 -0.1742  0.3558 -0.2936
  160MOL0     C21044   0.751   5.022   1.347  0.4526  0.3398  0.2022
  160MOL0     C21045   0.772   4.892   1.318  0.4929  1.4491  0.2291
  160MOL0     O21046   0.808   4.833   1.200 -0.4990 -0.5157 -0.5109
  160MOL0     C21047   0.801   4.905   1.077  0.7566 -0.6654 -0.8012
  160MOL0     C21048   0.935   4.979   1.058 -0.7386  0.7017  0.1291
  160MOL0     C21049   0.954   5.052   0.917  0.2979  0.7153 -0.5724
  160MOL0     C21050   0.946   5.203   0.927  0.6959  0.1802  0.2859
  160MOL0     C21051   0.814   5.250   0.978 -0.3938 -0.4745  0.7544
  160MOL0     C21052   0.711   5.291   1.021  0.4595  0.9170 -0.6962
  160MOL0     C21053   0.755   4.799   1.422  0.2689 -0.8159  0.0112
  160MOL0     C21054   0.739   4.844   1.553 -0.6067  0.0871  0.3657
  160MOL0     H21055   0.846   5.248   1.917 -0.3116  0.2147  1.1997
  160MOL0     H21056   0.772   5.376   2.129 -0.0152  1.7133 -1.0112
  160MOL0     H21057   0.495   5.595   2.122  2.3303  0.4292 -0.2319
  160MOL0     H21058   0.647   5.581   2.197 -0.2527  2.5816 -1.3565
  160MOL0     H21059   0.500   5.724   2.330 -1.0762 -0.1506 -0.4164
  160MOL0     H21060   0.526   5.562   2.414  0.3271  2.9953  1.2343
  160MOL0     H21061   0.292   5.636   2.421  0.7917 -0.4346 -0.5590
  160MOL0     H21062   0.306   5.489   2.332 -1.1266 -0.0542 -0.3097
  160MOL0     H21063   0.274   5.767   2.207 -2.4804  1.1536  3.5631
  160MOL0     H21064   0.269   5.614   2.122 -1.3542 -0.9175 -0.7271
  160MOL0     H21065   0.079   5.724   2.328 -0.7095  0.2624 -0.7719
  160MOL0     H21066   0.082   5.548   2.285 -0.6759 -1.2205 -2.2327
  160MOL0     H21067   0.035   5.620   2.058 -1.2296  0.8395 -0.3926
  160MOL0     H21068   0.053   5.791   2.094  2.1496 -1.5434 -1.0691
  160MOL0     H21069  -0.175   5.599   2.171 -1.6698  0.9031  3.4782
  160MOL0     H21070  -0.137   5.734   2.275 -0.8315  0.7210  0.3926
  160MOL0     H21071  -0.174   5.767   1.973 -0.0155 -2.2047  1.1756
  160MOL0     H21072  -0.185   5.892   2.094  0.5772 -0.3605  2.9899
  160MOL0     H21073  -0.386   5.566   2.014  1.4415  1.0195 -2.3023
  160MOL0     H21074  -0.752   5.690   1.967 -1.9151  0.1710  2.1560
  160MOL0     H21075  -0.755   5.629   2.134 -0.4001  1.2068 -0.1464
  160MOL0     H21076  -0.669   5.414   2.082 -3.6716 -0.4100 -0.6618
  160MOL0     H21077  -0.593   5.467   1.933  0.7838  1.5575  0.1821
  160MOL0     H21078  -0.825   5.458   1.845 -1.5464 -0.7714  0.4631
  160MOL0     H21079  -0.801   5.314   1.933 -1.5802  0.0983 -3.2192
  160MOL0     H21080  -1.028   5.389   1.995 -1.8563 -0.0711  3.7014
  160MOL0     H21081  -0.966   5.546   2.044 -0.4335  0.0789 -0.7176
  160MOL0     H21082  -0.860   5.319   2.407  0.2510 -0.2106 -1.2168
  160MOL0     H21083  -0.997   5.224   2.572 -1.8625  0.6635  1.4780
  160MOL0     H21084  -1.652   5.297   2.564 -0.0978 -0.7369  0.7863
  160MOL0     H21085  -1.846   5.204   2.686 -1.0536  1.0674  4.0917
  160MOL0     H21086  -1.771   4.894   2.989  1.0231  0.5241 -1.6842
  160MOL0     H21087  -1.820   4.806   2.835  1.5205  0.8487 -0.8800
  160MOL0     H21088  -2.005   4.943   3.044 -1.1549 -0.4133  0.0751
  160MOL0     H21089  -1.993   4.771   3.031  1.1250  1.6187  1.5760
  160MOL0     H21090  -2.087   4.784   2.792 -4.2260 -1.1053  0.8630
  160MOL0     H21091  -2.104   4.958   2.825  0.2442  0.6007  0.4572
  160MOL0     H21092  -2.232   4.744   3.000 -0.5032  1.3537  0.9529
  160MOL0     H21093  -2.245   4.924   3.001  0.9168 -0.5533  0.3566
  160MOL0     H21094  -2.339   4.718   2.778 -3.6076  0.6896 -1.0762
  160MOL0     H21095  -2.349   4.890   2.758 -0.8876  0.6854  0.4859
  160MOL0     H21096  -2.487   4.897   2.977 -0.0583 -2.5090  2.0999
  160MOL0     H21097  -2.504   4.719   2.972  0.7255  2.1405  4.5581
  160MOL0     H21098  -2.613   4.933   2.783  0.7359  0.3983 -1.1232
  160MOL0     H21099  -2.576   4.784   2.710 -2.2091  2.4073 -1.5400
  160MOL0     H21100  -2.754   4.820   2.945  1.5203  0.0008  0.2441
  160MOL0     H21101  -2.726   4.663   2.880  0.2138  0.7098  3.0422
  160MOL0     H21102  -1.578   4.931   2.891 -0.6213  1.1130  0.9294
  160MOL0     H21103  -1.381   5.023   2.762  0.0309  1.4607  2.1591
  160MOL0     H21104  -1.345   5.324   2.329  0.2088 -0.8548 -1.9885
  160MOL0     H21105  -1.185   5.406   2.147  0.7037  1.3677 -0.8115
  160MOL0     H21106   0.365   5.318   2.008 -0.5786  0.3277 -3.3061
  160MOL0     H21107   0.439   5.214   1.805 -0.0370 -0.9396  0.1726
  160MOL0     H21108   0.684   5.170   1.481  0.9091  0.4493  1.9596
  160MOL0     H21109   0.746   5.101   1.272 -1.8712  0.3106  0.2603
  160MOL0     H21110   0.727   4.986   1.073 -0.6443 -1.9562 -3.0988
  160MOL0     H21111   0.782   4.842   0.990  1.1526  0.1219 -1.4708
  160MOL0     H21112   0.945   5.055   1.136 -1.9340  1.6481 -0.5970
  160MOL0     H21113   1.008   4.898   1.065 -1.5354  0.0506  1.3359
  160MOL0     H21114   0.892   5.007   0.838  0.6441  0.9242 -0.9718
  160MOL0     H21115   1.053   5.025   0.879 -0.9416 -1.2005 -2.7346
  160MOL0     H21116   1.029   5.233   0.992  1.1718 -0.5638  0.0287
  160MOL0     H21117   0.960   5.238   0.824 -0.2584 -0.9765 -0.2611
  160MOL0     H21118   0.617   5.341   1.034 -0.0203 -0.3688  1.1115
  160MOL0     H21119   0.755   4.694   1.395 -4.8425 -0.8627 -0.7495
  160MOL0     H21120   0.725   4.774   1.636  0.2040 -2.0505 -1.2028
  161MOL0     O21121   4.371   2.483  10.329  0.6199  0.3790 -0.4664
  161MOL0     C21122   4.394   2.579  10.257 -0.7961 -0.6064  0.4860
  161MOL0     O21123   4.300   2.634  10.177 -0.0866  0.0339  0.5490
  161MOL0     C21124   4.183   2.562  10.148  0.4307  0.6235 -0.7868
  161MOL0     C21125   4.060   2.614  10.182 -0.0218 -0.5779  0.8571
  161MOL0     C21126   3.944   2.536  10.174 -0.2954 -0.5263 -1.0754
  161MOL0     C21127   3.946   2.405  10.126  0.3532 -0.0554  0.5307
  161MOL0     O21128   3.821   2.348  10.125  0.4730 -0.5748  0.6660
  161MOL0     C21129   3.781   2.295   9.996 -0.9313 -0.1425  0.2962
  161MOL0     C21130   3.657   2.211  10.016  0.4437  0.6758 -0.7435
  161MOL0     C21131   3.608   2.158   9.888  0.2980 -0.4607  0.1073
  161MOL0     C21132   3.471   2.085   9.915 -0.2088 -0.8624 -0.0601
  161MOL0     C21133   3.401   2.076   9.781  0.0164  0.1475 -0.6583
  161MOL0     C21134   3.256   2.009   9.790 -0.3526  0.4358 -0.0075
  161MOL0     C21135   3.153   2.096   9.851  0.2600  0.3264  0.0873
  161MOL0     C21136   3.068   2.175   9.752 -0.4198  0.4523 -0.2400
  161MOL0     N21137   2.946   2.233   9.812  0.6384  0.0634  0.2167
  161MOL0     C21138   2.812   2.198   9.784  0.4057  0.6656 -0.3114
  161MOL0     C21139   2.734   2.263   9.872  0.4593  0.2972 -0.1577
  161MOL0     C21140   2.584   2.267   9.880 -0.1331 -0.0335 -0.2415
  161MOL0     C21141   2.523   2.144   9.941  0.3888  0.6794 -1.0486
  161MOL0     C21142   2.541   2.020   9.850 -0.2024 -0.1601 -0.2670
  161MOL0     C21143   2.462   1.911   9.919 -0.7041 -0.2930  0.1523
  161MOL0     O21144   2.329   1.948   9.892 -0.2969  0.0223 -0.6691
  161MOL0     C21145   2.218   1.902   9.963 -0.0542 -0.2771  0.2216
  161MOL0     C21146   2.092   1.912   9.900  0.4904  0.2922 -0.5046
  161MOL0     C21147   1.974   1.867   9.961 -0.3040 -0.5194  0.8259
  161MOL0     C21148   1.980   1.809  10.096  0.0491 -1.0622  0.4766
  161MOL0     C21149   1.865   1.750  10.164  0.2005 -0.6021 -0.1568
  161MOL0     O21150   1.750   1.760  10.092 -0.8387 -0.3382  0.9457
  161MOL0     C21151   1.628   1.734  10.140  0.2811  0.4547  0.7054
  161MOL0     C21152   1.531   1.828  10.128  0.7538  0.3015 -0.0901
  161MOL0     C21153   1.401   1.799  10.176 -0.2974 -1.0433  0.3287
  161MOL0     C21154   1.361   1.675  10.226 -0.2324  0.1446  0.0975
  161MOL0     O21155   1.234   1.633  10.260  0.0090 -1.0598 -0.1105
  161MOL0     C21156   1.121   1.703  10.204 -0.2627 -0.4433 -0.5161
  161MOL0     C21157   0.999   1.614  10.188  0.3336 -0.6177 -0.3129
  161MOL0     C21158   0.887   1.680  10.103 -0.2214 -0.0423  0.4384
  161MOL0     C21159   0.752   1.616  10.133 -0.4577  0.0391 -0.2216
  161MOL0     C21160   0.648   1.728  10.129 -0.6257  0.1630  0.2150
  161MOL0     C21161   0.512   1.672  10.155  0.2151  0.0870 -0.1386
  161MOL0     C21162   0.408   1.779  10.198 -1.3569  0.2394  0.0674
  161MOL0     C21163   0.273   1.722  10.221  0.2073  0.7501 -0.4806
  161MOL0    Cl21164   0.152   1.843  10.265 -0.2270 -0.3308  0.1671
  161MOL0     C21165   1.460   1.575  10.235 -0.0084  0.3125  0.4276
  161MOL0     C21166   1.599   1.607  10.196  0.6788  0.0228  0.3571
  161MOL0     O21167   1.876   1.720  10.281 -0.1737 -0.9264  0.5291
  161MOL0     C21168   2.107   1.807  10.155 -0.9767  0.1659 -0.3248
  161MOL0     C21169   2.219   1.846  10.091 -0.4566 -0.9984 -0.1265
  161MOL0     N21170   2.819   2.338   9.960  0.4037 -0.3010 -0.3705
  161MOL0     N21171   2.943   2.320   9.915  0.5426 -1.5008  0.2840
  161MOL0     C21172   4.073   2.353  10.089 -0.4287  0.4843 -0.0410
  161MOL0     C21173   4.187   2.428  10.097  0.3262  0.8030 -0.2827
  161MOL0     C21174   4.521   2.635  10.252  0.2552  0.7189 -0.0501
  161MOL0     C21175   4.541   2.766  10.220  0.4241 -0.4623 -0.0546
  161MOL0     C21176   4.675   2.813  10.211 -0.6998 -0.4400  0.0350
  161MOL0     C21177   4.787   2.735  10.240 -0.2992 -0.4337 -0.2028
  161MOL0     O21178   4.911   2.787  10.225 -0.4103 -1.0243  0.1696
  161MOL0     C21179   5.024   2.737  10.297  0.4562  0.0153 -0.1016
  161MOL0     C21180   5.121   2.849  10.330  0.7086  0.0041 -0.1977
  161MOL0     C21181   5.252   2.785  10.374 -0.6815 -0.0217  0.2634
  161MOL0     C21182   5.361   2.889  10.404  0.3303  0.3342 -0.7515
  161MOL0     C21183   5.332   2.972  10.519 -0.2248  0.3554 -0.2041
  161MOL0     C21184   5.311   3.042  10.616  0.1222  0.9684 -1.3243
  161MOL0     C21185   4.763   2.601  10.291  0.4188 -0.9250 -0.2088
  161MOL0     C21186   4.633   2.557  10.282 -0.0956 -0.6051 -0.1179
  161MOL0     H21187   4.042   2.717  10.212 -1.2159 -1.6853  4.6317
  161MOL0     H21188   3.851   2.587  10.198  0.1738  1.9259 -3.7903
  161MOL0     H21189   3.863   2.237   9.952 -1.3852 -1.5631  1.2457
  161MOL0     H21190   3.751   2.375   9.928 -3.5227  0.3685  1.8980
  161MOL0     H21191   3.582   2.272  10.067 -2.1762 -2.1017 -0.9826
  161MOL0     H21192   3.686   2.134  10.088 -2.0369  0.2302 -0.1480
  161MOL0     H21193   3.666   2.083   9.834 -1.7654 -0.5196 -2.1714
  161MOL0     H21194   3.604   2.245   9.823  3.3815  0.2772  0.7666
  161MOL0     H21195   3.493   1.986   9.955 -0.0816  0.3698  3.2159
  161MOL0     H21196   3.408   2.147   9.980 -2.6271 -1.8617 -1.3362
  161MOL0     H21197   3.455   2.020   9.705 -1.1425 -0.6013 -0.9523
  161MOL0     H21198   3.389   2.178   9.742  2.5859 -0.1472 -2.3826
  161MOL0     H21199   3.269   1.919   9.850 -0.5492 -1.2005 -2.2831
  161MOL0     H21200   3.228   1.966   9.693 -2.9215 -3.5681  2.2360
  161MOL0     H21201   3.093   2.042   9.926  3.2848 -2.5101  0.6818
  161MOL0     H21202   3.196   2.176   9.913 -2.7675  1.1242  1.3566
  161MOL0     H21203   3.041   2.103   9.675 -0.2462  0.1556 -0.0267
  161MOL0     H21204   3.128   2.252   9.702  0.7184 -1.2919 -1.6926
  161MOL0     H21205   2.787   2.138   9.697 -2.3227  0.9138  0.2124
  161MOL0     H21206   2.548   2.284   9.779 -2.2364  0.9121  0.6004
  161MOL0     H21207   2.549   2.356   9.933  0.0422 -0.5718  0.8107
  161MOL0     H21208   2.418   2.161   9.963  0.1965  0.4670 -1.7621
  161MOL0     H21209   2.565   2.138  10.042  1.1882  2.2383 -1.2545
  161MOL0     H21210   2.500   2.042   9.751 -2.9912  2.7012  1.3397
  161MOL0     H21211   2.646   1.990   9.853  0.2455  1.3428  1.9807
  161MOL0     H21212   2.480   1.915  10.027 -0.7732  1.5669  0.1176
  161MOL0     H21213   2.481   1.811   9.878  2.6128  0.8496 -1.3802
  161MOL0     H21214   2.098   1.961   9.803  4.4458  1.2482  0.0461
  161MOL0     H21215   1.883   1.867   9.902  0.7328 -2.0676 -0.8700
  161MOL0     H21216   1.554   1.918  10.072  0.5116  1.5736  1.7761
  161MOL0     H21217   1.322   1.874  10.178  0.7164  0.0441  2.5447
  161MOL0     H21218   1.149   1.734  10.102 -1.3448  2.8968  0.0716
  161MOL0     H21219   1.111   1.797  10.259  0.2690 -0.8156  0.2209
  161MOL0     H21220   0.963   1.600  10.290 -2.0929 -0.9812 -1.1631
  161MOL0     H21221   1.024   1.517  10.144  3.6620  0.4088 -0.9555
  161MOL0     H21222   0.912   1.677   9.996  0.7494 -0.1467  0.6525
  161MOL0     H21223   0.899   1.785  10.131  1.4721 -0.8290  3.0384
  161MOL0     H21224   0.733   1.544  10.053  1.0010 -0.5240 -0.0926
  161MOL0     H21225   0.740   1.566  10.229 -1.0531  0.7461  0.0767
  161MOL0     H21226   0.646   1.775  10.030  2.2733 -0.8376 -0.3934
  161MOL0     H21227   0.679   1.805  10.200  2.8647 -1.5463  0.7763
  161MOL0     H21228   0.520   1.598  10.236  1.3535  1.5055  1.1134
  161MOL0     H21229   0.463   1.621  10.071 -3.2441  0.9047  1.2093
  161MOL0     H21230   0.447   1.823  10.290 -0.5513 -0.5036  0.0936
  161MOL0     H21231   0.400   1.856  10.120 -1.6166  4.0838  3.5644
  161MOL0     H21232   0.287   1.660  10.310  2.3808 -0.3416 -1.5044
  161MOL0     H21233   0.243   1.664  10.133  1.6617 -0.2599 -0.3527
  161MOL0     H21234   1.421   1.485  10.280 -2.7664  0.5915 -1.1623
  161MOL0     H21235   1.686   1.545  10.210  1.0956 -0.2672 -2.7175
  161MOL0     H21236   2.110   1.762  10.254  0.4152 -0.9216 -0.8165
  161MOL0     H21237   2.312   1.843  10.146 -0.2538  0.6856 -0.3222
  161MOL0     H21238   4.100   2.258  10.045  1.6513  0.1412  1.8343
  161MOL0     H21239   4.278   2.384  10.056 -0.0911 -1.7827  1.3360
  161MOL0     H21240   4.455   2.828  10.199 -0.0629 -0.0707  2.7482
  161MOL0     H21241   4.688   2.919  10.192 -0.1307 -0.4590  0.3080
  161MOL0     H21242   5.070   2.664  10.230 -0.9106 -1.2295  0.2572
  161MOL0     H21243   4.993   2.691  10.391  2.4459  0.1146  0.6619
  161MOL0     H21244   5.124   2.911  10.241 -0.3902  3.1919  1.8163
  161MOL0     H21245   5.077   2.909  10.410  1.2393  0.3808 -0.1838
  161MOL0     H21246   5.289   2.723  10.291  0.3923  0.8026  0.1071
  161MOL0     H21247   5.242   2.716  10.459 -1.1624 -1.4445 -0.9059
  161MOL0     H21248   5.451   2.830  10.423 -0.5755 -1.7343 -2.4175
  161MOL0     H21249   5.385   2.952  10.318  1.4527  1.2585  0.2093
  161MOL0     H21250   5.295   3.099  10.705  1.3204  0.1848 -0.5769
  161MOL0     H21251   4.843   2.533  10.319  2.3948  1.0471 -0.8404
  161MOL0     H21252   4.612   2.456  10.315  0.6784 -0.6980  0.1217
  162MOL0     O21253  10.970   6.268   8.042 -0.1587  0.2684  0.0763
  162MOL0     C21254  11.041   6.168   8.009  0.9644 -0.9786 -0.2303
  162MOL0     O21255  10.990   6.042   7.981  0.1737  0.4457 -0.5205
  162MOL0     C21256  10.860   6.022   8.027  0.3611 -0.4945 -0.3841
  162MOL0     C21257  10.756   6.045   7.944  0.1014 -1.0434  0.1486
  162MOL0     C21258  10.623   6.031   7.979  0.3424  0.8154 -0.6458
  162MOL0     C21259  10.589   5.982   8.110 -0.6470  0.6921 -0.5533
  162MOL0     O21260  10.458   5.956   8.138  0.1461 -0.3735 -0.3471
  162MOL0     C21261  10.429   5.929   8.274  0.4486  0.1527  0.8305
  162MOL0     C21262  10.281   5.921   8.306 -0.2987 -0.3921 -0.0811
  162MOL0     C21263  10.218   6.059   8.308  0.4617  0.6341 -0.0653
  162MOL0     C21264  10.073   6.061   8.367 -0.0799 -0.1377  0.1352
  162MOL0     C21265  10.057   6.121   8.512 -0.1083 -0.2666  0.7633
  162MOL0     C21266  10.141   6.064   8.621  0.1111 -0.1076 -0.3058
  162MOL0     C21267  10.105   5.928   8.659  0.8309  0.8609  0.3742
  162MOL0     C21268  10.105   5.894   8.813  0.0036 -0.6131  0.6481
  162MOL0     N21269   9.972   5.910   8.869 -0.3006  0.5214 -0.2343
  162MOL0     C21270   9.917   6.021   8.918  0.3570 -0.3193 -0.3670
  162MOL0     C21271   9.773   6.001   8.928 -0.8964 -0.2509 -0.4239
  162MOL0     C21272   9.672   6.102   8.980  0.6528  0.3380 -0.3966
  162MOL0     C21273   9.534   6.091   8.918 -1.1295  0.4125  0.4829
  162MOL0     C21274   9.458   5.957   8.954 -1.7061 -0.5533  0.2759
  162MOL0     C21275   9.319   5.958   8.899  0.1697  0.4867 -0.1628
  162MOL0     O21276   9.226   5.996   9.004 -0.6064 -0.5089  0.0688
  162MOL0     C21277   9.092   6.003   8.982 -0.6073  0.4515 -0.1686
  162MOL0     C21278   9.009   6.050   9.081 -0.3967 -0.2325 -0.3805
  162MOL0     C21279   8.867   6.051   9.073  0.3598  1.1190  0.1546
  162MOL0     C21280   8.814   6.008   8.946  1.2743  0.1067  0.0301
  162MOL0     C21281   8.664   6.018   8.919  0.1790  0.3560 -0.4989
  162MOL0     O21282   8.593   6.104   9.005  0.3217  0.1421 -0.7564
  162MOL0     C21283   8.461   6.128   8.976 -0.4232 -0.1084 -0.5204
  162MOL0     C21284   8.365   6.028   8.950 -0.2446  0.2192  0.0010
  162MOL0     C21285   8.228   6.057   8.916 -0.1650 -0.1998 -0.9391
  162MOL0     C21286   8.188   6.186   8.919 -0.4067  0.3663  0.3138
  162MOL0     O21287   8.056   6.212   8.899 -0.0973  0.2297  0.6493
  162MOL0     C21288   8.013   6.321   8.812  0.5861 -0.0516  0.2423
  162MOL0     C21289   7.857   6.303   8.787 -0.7277 -0.3636  0.1336
  162MOL0     C21290   7.830   6.175   8.695 -0.4007  0.4645 -0.2435
  162MOL0     C21291   7.672   6.160   8.688  0.2024 -0.1405 -0.7929
  162MOL0     C21292   7.625   6.030   8.620  0.6457  0.5391  0.6032
  162MOL0     C21293   7.472   6.003   8.643  0.6507 -0.1562 -0.0956
  162MOL0     C21294   7.408   5.906   8.538 -0.5644 -0.1618 -0.5428
  162MOL0     C21295   7.502   5.791   8.495 -0.1903 -0.5716 -0.0413
  162MOL0    Cl21296   7.534   5.708   8.649  0.1893  0.2316 -0.1385
  162MOL0     C21297   8.277   6.292   8.954 -0.3245  0.2729  0.3308
  162MOL0     C21298   8.411   6.255   8.980 -0.6079 -0.2689  0.3303
  162MOL0     O21299   8.619   5.963   8.820 -0.2667 -0.3599  0.0594
  162MOL0     C21300   8.896   5.955   8.845  0.1211  0.2698  0.8027
  162MOL0     C21301   9.036   5.962   8.857 -0.3921 -0.7921 -0.4263
  162MOL0     N21302   9.764   5.864   8.898 -0.0321  0.2232  0.1758
  162MOL0     N21303   9.875   5.813   8.856  0.5729  0.2641 -0.1224
  162MOL0     C21304  10.700   5.945   8.190  0.5336  0.8134  0.0326
  162MOL0     C21305  10.830   5.981   8.158 -0.4140  0.0176  0.3032
  162MOL0     C21306  11.178   6.202   7.973  0.0802 -0.2810 -0.2945
  162MOL0     C21307  11.243   6.318   8.023  0.8304  0.9057  0.3821
  162MOL0     C21308  11.375   6.347   7.984  0.8045 -0.5139  0.5530
  162MOL0     C21309  11.445   6.261   7.895  0.5328  0.0483 -0.6785
  162MOL0     O21310  11.578   6.306   7.873 -0.3501  0.2234  0.0323
  162MOL0     C21311  11.668   6.223   7.803  0.6035 -0.2974  0.2157
  162MOL0     C21312  11.800   6.291   7.781 -0.4519 -0.4232 -0.8613
  162MOL0     C21313  11.897   6.207   7.696 -0.3674  0.8545  0.0998
  162MOL0     C21314  12.041   6.197   7.750  0.2005  1.0131  0.8925
  162MOL0     C21315  12.125   6.122   7.653  0.1977 -0.1661  0.8950
  162MOL0     C21316  12.198   6.052   7.585 -1.1902  0.2145  0.2629
  162MOL0     C21317  11.382   6.144   7.847  0.6499 -0.0019 -0.8286
  162MOL0     C21318  11.243   6.117   7.881  0.1952  0.1259 -0.2291
  162MOL0     H21319  10.777   6.097   7.852  3.2677 -0.1714  1.2442
  162MOL0     H21320  10.544   6.048   7.906  0.8537 -1.2480 -1.7611
  162MOL0     H21321  10.481   6.000   8.339 -2.3205 -0.8868  4.5640
  162MOL0     H21322  10.468   5.831   8.304 -1.4346 -0.4867  1.4146
  162MOL0     H21323  10.272   5.875   8.405 -0.2033  1.3855  0.7871
  162MOL0     H21324  10.234   5.850   8.237 -0.3884 -1.0628  0.6475
  162MOL0     H21325  10.209   6.110   8.211 -3.2492  1.5188  0.5875
  162MOL0     H21326  10.277   6.122   8.374  6.1101 -1.5256 -2.4112
  162MOL0     H21327  10.011   6.121   8.300 -0.4774  0.7115  1.2355
  162MOL0     H21328  10.029   5.961   8.372 -1.0760  0.1049 -2.3468
  162MOL0     H21329   9.952   6.110   8.540 -0.3461  2.6607  1.4201
  162MOL0     H21330  10.078   6.229   8.518 -0.0476 -0.2731  0.6721
  162MOL0     H21331  10.122   6.132   8.705 -1.2663  0.6487 -1.1989
  162MOL0     H21332  10.244   6.072   8.583  0.5451  0.4983  0.9356
  162MOL0     H21333  10.000   5.911   8.632  0.5219  1.0644  1.4204
  162MOL0     H21334  10.177   5.868   8.602  1.3220  0.8546  0.9930
  162MOL0     H21335  10.178   5.961   8.858 -1.4113  3.7180 -2.8268
  162MOL0     H21336  10.136   5.789   8.820 -1.4297 -1.0637  0.6862
  162MOL0     H21337   9.957   6.121   8.928  0.4829 -0.0812 -2.6942
  162MOL0     H21338   9.717   6.201   8.977  1.8557 -0.1407  0.6112
  162MOL0     H21339   9.656   6.084   9.087 -1.1562  4.8967  0.3087
  162MOL0     H21340   9.550   6.091   8.810  3.3922 -2.6276  0.8853
  162MOL0     H21341   9.467   6.172   8.948 -2.5868 -0.3899 -0.4806
  162MOL0     H21342   9.512   5.870   8.916 -0.3766 -0.1619  1.1920
  162MOL0     H21343   9.448   5.943   9.062  0.1845  0.5008  0.6211
  162MOL0     H21344   9.290   5.859   8.862 -0.6165 -0.3809  2.5566
  162MOL0     H21345   9.306   6.009   8.803 -0.1167 -0.3740 -0.5989
  162MOL0     H21346   9.043   6.083   9.178 -2.2212  0.7986 -0.0423
  162MOL0     H21347   8.807   6.087   9.156  0.4540 -0.4396  0.9450
  162MOL0     H21348   8.401   5.926   8.956 -2.1757 -0.6805 -2.0805
  162MOL0     H21349   8.160   5.974   8.898  0.8769 -2.1117  2.9543
  162MOL0     H21350   8.065   6.330   8.716 -2.9778 -1.4037 -2.0316
  162MOL0     H21351   8.020   6.417   8.864  0.9337  0.1127 -0.1043
  162MOL0     H21352   7.818   6.385   8.726 -1.9978 -0.2844  1.0091
  162MOL0     H21353   7.800   6.304   8.880 -1.4346  0.8751 -0.2819
  162MOL0     H21354   7.871   6.087   8.745  1.2781  1.9723  1.2065
  162MOL0     H21355   7.882   6.178   8.599  0.2146  0.5371  0.0891
  162MOL0     H21356   7.630   6.167   8.789 -2.1816  0.2835 -1.7619
  162MOL0     H21357   7.630   6.242   8.629 -1.5644 -1.1537 -0.9965
  162MOL0     H21358   7.683   5.944   8.654 -0.8259 -1.2787 -1.1936
  162MOL0     H21359   7.650   6.027   8.514 -0.7274  0.0226  0.2640
  162MOL0     H21360   7.412   6.093   8.635 -1.2282 -1.4231 -1.0958
  162MOL0     H21361   7.450   5.962   8.742  0.7020  0.4599  0.1692
  162MOL0     H21362   7.313   5.858   8.565  0.5017 -3.4034 -2.0033
  162MOL0     H21363   7.377   5.970   8.455  1.5402  1.8310  0.1177
  162MOL0     H21364   7.584   5.843   8.445 -0.4473  1.2451  1.3108
  162MOL0     H21365   7.455   5.721   8.425  2.4190 -3.2029  0.6397
  162MOL0     H21366   8.241   6.394   8.955 -3.4027 -0.7271  0.0273
  162MOL0     H21367   8.475   6.331   9.024 -0.2107 -0.7869  0.6668
  162MOL0     H21368   8.856   5.923   8.750  1.9009 -2.3402  0.8537
  162MOL0     H21369   9.108   5.932   8.782  0.5993  0.6073 -0.0914
  162MOL0     H21370  10.693   5.890   8.283  3.7900  0.6384  0.2955
  162MOL0     H21371  10.921   5.943   8.203  0.0836 -2.2524 -2.3309
  162MOL0     H21372  11.186   6.372   8.097  1.3891  0.1094  1.4339
  162MOL0     H21373  11.413   6.445   8.009 -4.3607  1.6635  1.0393
  162MOL0     H21374  11.626   6.202   7.705 -1.0772  2.7685  0.1606
  162MOL0     H21375  11.670   6.133   7.865 -2.4895  0.5085  1.6873
  162MOL0     H21376  11.780   6.391   7.741  1.7994  1.3401  2.0326
  162MOL0     H21377  11.840   6.306   7.881 -2.6312  0.9607 -0.1286
  162MOL0     H21378  11.886   6.236   7.591 -0.1137 -3.1484 -1.2086
  162MOL0     H21379  11.856   6.105   7.698  0.3861  0.5494  0.8161
  162MOL0     H21380  12.085   6.293   7.776  0.3411  0.7322  1.7385
  162MOL0     H21381  12.042   6.135   7.841 -1.7891 -1.7717 -0.8020
  162MOL0     H21382  12.275   5.992   7.542 -0.7321 -1.2422  2.9245
  162MOL0     H21383  11.443   6.070   7.797  1.0494  1.6107 -2.8514
  162MOL0     H21384  11.201   6.024   7.844 -0.5629  0.7658 -0.9785
  163MOL0     O21385   5.034  10.217   9.559  0.4393 -0.1248 -0.8090
  163MOL0     C21386   5.049  10.204   9.440 -0.3870  0.4217  0.7939
  163MOL0     O21387   4.954  10.226   9.344 -0.1518 -0.4563  0.4887
  163MOL0     C21388   4.833  10.263   9.387  0.4065  0.3393 -0.0893
  163MOL0     C21389   4.810  10.395   9.407 -0.7198  0.0028 -0.0907
  163MOL0     C21390   4.689  10.447   9.450  1.2010  0.1141 -0.2188
  163MOL0     C21391   4.590  10.357   9.473 -0.1362  0.1275 -0.0138
  163MOL0     O21392   4.475  10.401   9.531  0.1940  0.3476 -0.3466
  163MOL0     C21393   4.351  10.348   9.488  1.5996  0.8886  0.3516
  163MOL0     C21394   4.295  10.264   9.598  0.6724 -0.1831 -0.1100
  163MOL0     C21395   4.155  10.202   9.587  0.0919  0.3222 -0.0405
  163MOL0     C21396   4.045  10.296   9.553 -0.5581  0.0471  0.2664
  163MOL0     C21397   3.909  10.264   9.614 -0.3767 -0.1840 -0.0155
  163MOL0     C21398   3.834  10.390   9.672  0.2084 -0.1814  0.2694
  163MOL0     C21399   3.697  10.363   9.740  0.2334  0.5051 -0.1242
  163MOL0     C21400   3.595  10.321   9.635 -0.2472 -0.4480  0.2837
  163MOL0     N21401   3.466  10.376   9.670  0.1813  0.3929  0.8056
  163MOL0     C21402   3.427  10.503   9.631 -0.7626  1.3382 -0.2074
  163MOL0     C21403   3.302  10.515   9.662 -0.3724 -0.0948 -0.6802
  163MOL0     C21404   3.225  10.643   9.639  0.9233 -0.1180  0.0204
  163MOL0     C21405   3.186  10.664   9.499  0.4991  0.6256 -0.0381
  163MOL0     C21406   3.108  10.550   9.429 -0.4029  0.1006  0.2431
  163MOL0     C21407   2.978  10.520   9.500  0.2339  0.3264  0.3114
  163MOL0     O21408   2.891  10.632   9.519  0.1083 -0.0763  0.3637
  163MOL0     C21409   2.775  10.604   9.592 -0.1558 -0.2191 -0.5282
  163MOL0     C21410   2.724  10.482   9.625 -0.3262  0.2421 -0.1338
  163MOL0     C21411   2.600  10.472   9.693  0.4022  0.0082 -0.3104
  163MOL0     C21412   2.520  10.585   9.713 -0.1309  0.4907 -0.5693
  163MOL0     C21413   2.383  10.578   9.771 -0.1999  0.1944 -0.0899
  163MOL0     O21414   2.313  10.698   9.800  0.2295  0.5243  0.1324
  163MOL0     C21415   2.190  10.688   9.861 -0.7852 -0.5936  0.0300
  163MOL0     C21416   2.169  10.775   9.964  0.7410 -0.1899 -0.4109
  163MOL0     C21417   2.045  10.765  10.038 -0.9315  0.7768  0.2164
  163MOL0     C21418   1.942  10.679   9.992  0.3186  0.3327  0.0021
  163MOL0     O21419   1.824  10.677  10.065 -0.5916  0.1255 -0.3569
  163MOL0     C21420   1.712  10.601  10.020  0.0406  0.1159  0.9103
  163MOL0     C21421   1.578  10.644  10.080 -0.3671 -0.4142  0.8370
  163MOL0     C21422   1.464  10.557  10.011 -0.7291 -0.7286 -0.4116
  163MOL0     C21423   1.328  10.612  10.055  0.2808  0.9495  0.3023
  163MOL0     C21424   1.222  10.507  10.027  0.7495 -0.8035  0.1259
  163MOL0     C21425   1.097  10.529  10.108 -0.0555 -0.2677 -0.0605
  163MOL0     C21426   1.016  10.655  10.079  0.3353 -0.3134 -0.0542
  163MOL0     C21427   0.901  10.685  10.186  0.0048  0.2568  0.7129
  163MOL0    Cl21428   0.778  10.555  10.165 -0.2477 -0.1826 -0.4864
  163MOL0     C21429   1.962  10.608   9.876  0.4745 -0.6628 -1.0077
  163MOL0     C21430   2.087  10.607   9.810  0.2810  0.0510 -0.5527
  163MOL0     O21431   2.342  10.463   9.796 -0.4130  0.4941  0.3475
  163MOL0     C21432   2.576  10.714   9.685  0.1498  0.8195  0.4196
  163MOL0     C21433   2.699  10.724   9.627 -0.1899 -0.0677  0.6190
  163MOL0     N21434   3.264  10.384   9.722 -0.0134 -0.4012  0.2915
  163MOL0     N21435   3.360  10.303   9.724 -0.6034 -0.1773  0.1656
  163MOL0     C21436   4.605  10.219   9.447 -0.6988 -0.1239  0.5421
  163MOL0     C21437   4.733  10.168   9.407 -0.0364  0.1246 -0.2666
  163MOL0     C21438   5.185  10.173   9.381 -0.1440 -0.3114 -0.3763
  163MOL0     C21439   5.295  10.170   9.457 -0.2688  0.3899  0.0289
  163MOL0     C21440   5.422  10.152   9.407  0.3805 -0.2834  0.4061
  163MOL0     C21441   5.438  10.117   9.278 -0.1543 -0.0031  0.4516
  163MOL0     O21442   5.565  10.096   9.229 -0.0283  0.9040  1.1677
  163MOL0     C21443   5.618  10.203   9.143 -0.1765 -0.2122  0.6364
  163MOL0     C21444   5.773  10.202   9.161  1.0925 -0.0621 -0.2392
  163MOL0     C21445   5.828  10.060   9.126  0.0754 -0.3268 -0.2506
  163MOL0     C21446   5.981  10.041   9.143 -0.2036  0.9636 -0.4471
  163MOL0     C21447   6.047  10.155   9.084  0.0843  0.2632 -0.0551
  163MOL0     C21448   6.108  10.254   9.042 -0.6852  1.1957 -0.0837
  163MOL0     C21449   5.325  10.115   9.197  0.4122  0.0390  0.2929
  163MOL0     C21450   5.201  10.152   9.245  0.3731  0.3341  0.3919
  163MOL0     H21451   4.888  10.464   9.377 -2.4687  1.5778 -1.2407
  163MOL0     H21452   4.676  10.553   9.470  3.6079  0.2938  0.7049
  163MOL0     H21453   4.346  10.279   9.404 -0.1138 -0.3316  1.3849
  163MOL0     H21454   4.280  10.427   9.465  1.9088  1.1180  0.1732
  163MOL0     H21455   4.290  10.328   9.686  0.5517 -1.6002  0.9462
  163MOL0     H21456   4.363  10.180   9.616 -1.4201 -1.9367 -0.0462
  163MOL0     H21457   4.143  10.152   9.684 -0.6797 -0.9160 -0.7414
  163MOL0     H21458   4.154  10.121   9.513 -0.4208 -1.5194  1.8822
  163MOL0     H21459   4.074  10.392   9.598  0.8250 -0.6636  0.9692
  163MOL0     H21460   4.025  10.302   9.446 -1.7395  0.8136  0.5151
  163MOL0     H21461   3.919  10.194   9.698 -1.6894  2.0598  2.1481
  163MOL0     H21462   3.846  10.215   9.539  0.3335 -0.0692 -0.6992
  163MOL0     H21463   3.821  10.461   9.590  0.1241 -2.2046 -1.5508
  163MOL0     H21464   3.888  10.437   9.755 -1.4760  2.3918  0.0384
  163MOL0     H21465   3.706  10.287   9.818  0.0265  1.2184  0.6154
  163MOL0     H21466   3.674  10.458   9.790  4.8918  1.4619  0.6015
  163MOL0     H21467   3.592  10.211   9.634  1.8731 -0.5609  0.7330
  163MOL0     H21468   3.629  10.360   9.539  1.0736 -3.8442 -0.8004
  163MOL0     H21469   3.495  10.572   9.582 -1.6725  3.8722  1.8693
  163MOL0     H21470   3.282  10.731   9.669  0.5529 -0.8161  3.1156
  163MOL0     H21471   3.143  10.654   9.711  0.9252  1.0935 -0.1447
  163MOL0     H21472   3.272  10.693   9.439  1.6377  0.0921  1.2681
  163MOL0     H21473   3.129  10.757   9.495  0.8907  0.8401 -0.6633
  163MOL0     H21474   3.097  10.572   9.322  3.0066 -2.1337 -0.7162
  163MOL0     H21475   3.155  10.452   9.424  1.3502  0.9595 -1.2001
  163MOL0     H21476   3.009  10.477   9.596  2.8635  0.8906 -0.2185
  163MOL0     H21477   2.924  10.445   9.440 -0.0245  2.7711 -2.7802
  163MOL0     H21478   2.779  10.390   9.610 -3.4889 -1.8781  0.1860
  163MOL0     H21479   2.570  10.376   9.735  0.1934  0.6009  0.9365
  163MOL0     H21480   2.240  10.852   9.995  0.0183  1.4802 -2.6907
  163MOL0     H21481   2.028  10.819  10.130 -0.0668 -0.5066  1.1584
  163MOL0     H21482   1.722  10.496  10.050  1.7474 -0.2704 -0.7856
  163MOL0     H21483   1.709  10.611   9.911  1.8375  1.9939  0.9780
  163MOL0     H21484   1.553  10.750  10.075 -0.2570 -0.2984  2.2556
  163MOL0     H21485   1.578  10.616  10.186  0.7435 -1.1932  0.6436
  163MOL0     H21486   1.468  10.448  10.010  0.3941 -0.6967 -0.4902
  163MOL0     H21487   1.477  10.579   9.905 -0.3801 -0.0373 -0.2323
  163MOL0     H21488   1.328  10.634  10.162  2.0818  2.0081  0.1320
  163MOL0     H21489   1.296  10.699   9.998 -3.2848  1.6353  2.9706
  163MOL0     H21490   1.264  10.408  10.042  1.3029 -0.6105 -0.1180
  163MOL0     H21491   1.209  10.513   9.918  2.6273  1.7461 -0.0509
  163MOL0     H21492   1.123  10.526  10.214  5.2029  0.4001 -1.0663
  163MOL0     H21493   1.021  10.452  10.090  0.1216 -0.1470 -1.4194
  163MOL0     H21494   1.090  10.735  10.083  0.1704 -0.0884 -1.3092
  163MOL0     H21495   0.971  10.661   9.980 -1.3922 -0.7284  0.6608
  163MOL0     H21496   0.859  10.786  10.175  0.6567  0.3711 -0.9251
  163MOL0     H21497   0.949  10.674  10.283  0.8106 -0.9576  0.2011
  163MOL0     H21498   1.888  10.543   9.830  2.0824 -3.1771 -0.2296
  163MOL0     H21499   2.096  10.537   9.728  0.2989  0.9010 -1.2894
  163MOL0     H21500   2.517  10.800   9.714 -1.4766  0.8206 -2.5645
  163MOL0     H21501   2.723  10.825   9.595  0.6959  0.0195  1.4874
  163MOL0     H21502   4.524  10.154   9.478 -2.3267  2.3858  1.8986
  163MOL0     H21503   4.762  10.064   9.399 -2.0186 -0.4527 -0.3480
  163MOL0     H21504   5.290  10.178   9.565 -1.7021 -2.8242  0.3133
  163MOL0     H21505   5.499  10.160   9.482  0.2021  1.3696  0.4501
  163MOL0     H21506   5.594  10.305   9.173 -0.4984 -0.3327  0.7886
  163MOL0     H21507   5.613  10.190   9.034  4.3039  2.7185 -0.1900
  163MOL0     H21508   5.815  10.280   9.097  1.3580  0.2661  0.3328
  163MOL0     H21509   5.792  10.239   9.262 -1.6497 -0.2607  0.4425
  163MOL0     H21510   5.786  10.025   9.031  0.1459  0.2042 -0.4822
  163MOL0     H21511   5.775   9.989   9.190 -3.3759  1.6288 -0.6561
  163MOL0     H21512   6.013  10.032   9.247 -0.9222 -0.3581 -0.3191
  163MOL0     H21513   6.008   9.948   9.091  0.1621 -0.4443  2.0742
  163MOL0     H21514   6.184  10.318   9.001 -0.8764  1.1751 -0.4753
  163MOL0     H21515   5.346  10.081   9.096 -0.7417 -0.3951  0.1856
  163MOL0     H21516   5.111  10.155   9.184 -0.1357 -0.1326  1.0967
  164MOL0     O21517   9.685   7.121  11.134 -0.5585 -0.3302  0.2125
  164MOL0     C21518   9.733   7.225  11.178 -0.9526  0.3906 -1.8441
  164MOL0     O21519   9.662   7.339  11.204 -0.3142  0.9335 -0.2281
  164MOL0     C21520   9.529   7.341  11.201 -0.1402 -0.5292 -0.0476
  164MOL0     C21521   9.465   7.361  11.327  0.3540 -0.1435  0.0139
  164MOL0     C21522   9.329   7.362  11.328  0.6654  0.2147 -0.0775
  164MOL0     C21523   9.255   7.353  11.205  0.5343  0.2428 -0.2755
  164MOL0     O21524   9.120   7.355  11.185 -0.5247  0.2288  0.3609
  164MOL0     C21525   9.053   7.309  11.303  0.0817  0.4621 -1.1909
  164MOL0     C21526   8.907   7.287  11.268 -0.9120  0.1781  0.6959
  164MOL0     C21527   8.813   7.274  11.390 -0.2484  0.0318  0.0585
  164MOL0     C21528   8.668   7.235  11.353  0.0122  0.0464  0.9428
  164MOL0     C21529   8.575   7.241  11.482 -0.8527  0.4620 -0.0678
  164MOL0     C21530   8.425   7.237  11.444  0.4837  0.3113  0.1655
  164MOL0     C21531   8.318   7.263  11.553 -0.4999  0.1191  0.4341
  164MOL0     C21532   8.185   7.190  11.518 -0.0863 -0.1115  0.7436
  164MOL0     N21533   8.097   7.176  11.633  0.0134 -0.2216  0.0358
  164MOL0     C21534   7.994   7.257  11.652  0.1058 -0.3451  0.4414
  164MOL0     C21535   7.937   7.222  11.768  0.4995 -0.3439  0.2127
  164MOL0     C21536   7.817   7.292  11.843  0.5464  0.3303 -0.0659
  164MOL0     C21537   7.687   7.210  11.872  0.1683  0.6789  0.0492
  164MOL0     C21538   7.605   7.298  11.973  0.8506 -0.0550  0.2528
  164MOL0     C21539   7.455   7.267  11.982  0.5191  0.6028  0.1231
  164MOL0     O21540   7.393   7.222  11.862  1.1072  0.0812  0.4194
  164MOL0     C21541   7.261   7.235  11.857  0.8117  0.3939  0.9994
  164MOL0     C21542   7.210   7.262  11.726 -0.2022  0.0810 -0.7878
  164MOL0     C21543   7.081   7.299  11.695 -0.0008 -0.1770  1.3034
  164MOL0     C21544   6.988   7.309  11.799  0.1519 -1.3626 -0.0740
  164MOL0     C21545   6.854   7.350  11.775  0.2314 -0.2894  0.3285
  164MOL0     O21546   6.820   7.420  11.662  0.0820 -0.4702 -0.1245
  164MOL0     C21547   6.704   7.479  11.666  0.1560 -0.3465 -0.2708
  164MOL0     C21548   6.662   7.573  11.768 -0.1110 -0.8528  0.4060
  164MOL0     C21549   6.542   7.645  11.759 -0.6510 -0.3565 -0.8957
  164MOL0     C21550   6.457   7.629  11.652  0.0400 -0.0926  0.8857
  164MOL0     O21551   6.340   7.702  11.654 -0.2559 -0.4023  0.0356
  164MOL0     C21552   6.249   7.697  11.547 -0.2543  0.4135  0.5768
  164MOL0     C21553   6.121   7.776  11.586  0.4525  0.2859  0.6212
  164MOL0     C21554   6.029   7.800  11.457  0.0933 -0.2681  0.2458
  164MOL0     C21555   5.921   7.904  11.494 -0.5891  0.4674  0.3449
  164MOL0     C21556   5.820   7.937  11.380 -0.2523  0.5900 -0.3656
  164MOL0     C21557   5.696   8.015  11.433 -0.2144  0.2915 -0.7821
  164MOL0     C21558   5.596   8.037  11.312 -0.1368 -0.4852  0.2657
  164MOL0     C21559   5.476   8.109  11.373  0.3693 -0.2124  0.1401
  164MOL0    Cl21560   5.400   8.039  11.530 -0.1798 -0.1868 -0.0332
  164MOL0     C21561   6.497   7.539  11.547 -0.1239  0.2505  0.2308
  164MOL0     C21562   6.620   7.462  11.557  0.3381 -0.0658  0.6528
  164MOL0     O21563   6.773   7.325  11.864  0.1687  0.0982  0.0049
  164MOL0     C21564   7.035   7.295  11.935  0.2945  1.0761  0.5090
  164MOL0     C21565   7.170   7.265  11.966 -0.5390 -0.6656 -0.2841
  164MOL0     N21566   8.007   7.119  11.825 -0.2621 -0.7585 -0.0206
  164MOL0     N21567   8.102   7.095  11.739 -0.1513  0.1293  0.8927
  164MOL0     C21568   9.324   7.334  11.080 -0.1674 -0.3924 -0.2859
  164MOL0     C21569   9.469   7.332  11.075  0.6036  0.2122 -0.4860
  164MOL0     C21570   9.883   7.236  11.187 -0.1738  0.5761 -0.6660
  164MOL0     C21571   9.946   7.355  11.202  0.2690 -0.3960 -0.1815
  164MOL0     C21572  10.087   7.368  11.193  0.0714  0.2167 -0.7141
  164MOL0     C21573  10.165   7.256  11.160  0.4016 -0.1268  0.8809
  164MOL0     O21574  10.302   7.247  11.156  0.0390 -0.2987  0.0957
  164MOL0     C21575  10.368   7.337  11.061  0.5731 -0.3710 -0.0787
  164MOL0     C21576  10.512   7.351  11.078 -0.2744  0.1624  0.2393
  164MOL0     C21577  10.547   7.372  11.225 -0.0411  1.0136 -0.1482
  164MOL0     C21578  10.692   7.418  11.243 -0.5455  0.0977  0.4291
  164MOL0     C21579  10.791   7.345  11.167  0.9617 -0.3231  0.8774
  164MOL0     C21580  10.867   7.266  11.117 -0.2355 -0.2888 -0.3098
  164MOL0     C21581  10.101   7.131  11.146  0.9278  0.1487 -0.2954
  164MOL0     C21582   9.961   7.123  11.168  0.0503 -0.7869  0.1853
  164MOL0     H21583   9.517   7.366  11.422  0.7798  3.7220 -0.2475
  164MOL0     H21584   9.268   7.367  11.417  0.2975 -1.7893 -0.1834
  164MOL0     H21585   9.064   7.389  11.377  1.9097 -0.2942 -0.5999
  164MOL0     H21586   9.095   7.218  11.346 -2.4346 -0.6022 -0.8093
  164MOL0     H21587   8.895   7.212  11.189 -1.2359  0.1380  0.7808
  164MOL0     H21588   8.871   7.375  11.214 -1.7317  0.7717  2.1490
  164MOL0     H21589   8.821   7.363  11.454  1.0672 -0.1788  0.2317
  164MOL0     H21590   8.846   7.185  11.444 -1.5483 -2.6647 -3.2554
  164MOL0     H21591   8.634   7.304  11.275  0.4637 -1.6321 -0.8124
  164MOL0     H21592   8.664   7.136  11.308 -0.5806  1.2251 -1.8244
  164MOL0     H21593   8.611   7.335  11.525  0.4819  0.2636 -0.6791
  164MOL0     H21594   8.607   7.158  11.545  2.0390 -0.6245 -2.7062
  164MOL0     H21595   8.408   7.140  11.395  2.0483 -0.3720  0.9181
  164MOL0     H21596   8.410   7.302  11.357  1.1980 -0.9327 -0.9302
  164MOL0     H21597   8.362   7.226  11.646  0.9477  1.6534  0.4118
  164MOL0     H21598   8.302   7.370  11.571 -2.4224 -0.3204  1.6875
  164MOL0     H21599   8.209   7.098  11.464 -1.5396  1.6744 -3.3278
  164MOL0     H21600   8.130   7.255  11.449 -0.1190  1.5889  2.2901
  164MOL0     H21601   7.949   7.332  11.589 -0.4784 -0.2449  0.9665
  164MOL0     H21602   7.792   7.383  11.788  0.3310  0.4193  0.1825
  164MOL0     H21603   7.851   7.310  11.945  1.3691 -0.5701 -0.1615
  164MOL0     H21604   7.717   7.117  11.920  1.0337  0.5105 -0.7879
  164MOL0     H21605   7.637   7.184  11.778 -0.6461  3.9283 -0.5350
  164MOL0     H21606   7.646   7.302  12.074 -1.2536  2.1429  1.1232
  164MOL0     H21607   7.611   7.403  11.945 -2.2009  1.0279  2.9809
  164MOL0     H21608   7.413   7.366  12.005 -0.5690  0.6098 -1.7256
  164MOL0     H21609   7.437   7.193  12.061  1.9442  0.1777  0.0626
  164MOL0     H21610   7.285   7.253  11.648  1.5667 -2.0489  1.0134
  164MOL0     H21611   7.050   7.321  11.593  0.6434  1.9089  1.5128
  164MOL0     H21612   6.728   7.598  11.850 -1.0905 -1.8405  1.5343
  164MOL0     H21613   6.532   7.728  11.828  1.9003 -0.4130 -0.3388
  164MOL0     H21614   6.220   7.595  11.523 -1.7382  0.9508 -0.0483
  164MOL0     H21615   6.292   7.753  11.464  0.3997 -2.0431 -0.8252
  164MOL0     H21616   6.156   7.875  11.619  2.7032 -0.7067  1.4251
  164MOL0     H21617   6.068   7.725  11.667  0.1230  0.2341  0.3741
  164MOL0     H21618   5.978   7.710  11.421 -1.9643  1.6037 -1.7914
  164MOL0     H21619   6.086   7.841  11.373 -1.7703 -2.2387 -2.1317
  164MOL0     H21620   5.861   7.869  11.578 -3.6062 -1.8758 -2.5313
  164MOL0     H21621   5.968   8.001  11.515  0.7510  0.1761 -1.0908
  164MOL0     H21622   5.792   7.845  11.329 -2.7282  2.2674 -2.3068
  164MOL0     H21623   5.872   8.003  11.311  1.0267  0.0788  0.0881
  164MOL0     H21624   5.725   8.103  11.492  0.1000 -1.1283  1.2880
  164MOL0     H21625   5.651   7.943  11.501  0.9599  1.0907  0.9117
  164MOL0     H21626   5.647   8.088  11.230  0.6325  0.3512  1.2220
  164MOL0     H21627   5.559   7.945  11.266 -1.4982  1.1046 -2.0064
  164MOL0     H21628   5.400   8.131  11.297  0.8819  2.8149  0.3794
  164MOL0     H21629   5.500   8.211  11.406 -0.6437 -0.9942  3.7732
  164MOL0     H21630   6.434   7.535  11.459  1.6203  2.0091 -1.1708
  164MOL0     H21631   6.665   7.404  11.477  1.3803  2.5221 -0.7710
  164MOL0     H21632   6.966   7.303  12.018  0.0165  0.3843  0.3549
  164MOL0     H21633   7.196   7.246  12.070 -0.5502  0.2799 -0.0934
  164MOL0     H21634   9.268   7.310  10.990 -0.7571  1.2251 -0.3811
  164MOL0     H21635   9.519   7.308  10.982  0.2334  0.7674 -0.8421
  164MOL0     H21636   9.890   7.442  11.234 -2.9782 -1.6303 -2.0323
  164MOL0     H21637  10.138   7.463  11.204 -0.5513  0.4927 -0.2042
  164MOL0     H21638  10.312   7.430  11.073 -0.1986 -1.0439  2.1294
  164MOL0     H21639  10.333   7.295  10.967 -0.6996  0.2548  0.0970
  164MOL0     H21640  10.558   7.262  11.035 -0.1966 -0.2030  1.0513
  164MOL0     H21641  10.543   7.439  11.021 -3.7083  2.7630  1.9797
  164MOL0     H21642  10.523   7.275  11.270 -0.3702  0.7229 -0.9319
  164MOL0     H21643  10.492   7.449  11.280 -0.1226  2.2660 -1.9003
  164MOL0     H21644  10.701   7.524  11.220 -0.6536  0.4712  2.0108
  164MOL0     H21645  10.726   7.407  11.346  1.9946  1.4619 -0.1854
  164MOL0     H21646  10.933   7.195  11.071  0.0973  1.5458 -2.8867
  164MOL0     H21647  10.158   7.041  11.126  1.4191  0.1236  1.1302
  164MOL0     H21648   9.923   7.021  11.160 -0.0768 -0.8200  1.0442
  165MOL0     O21649   7.907   6.116  10.746  0.1906  0.4903 -0.6038
  165MOL0     C21650   7.947   6.149  10.861  1.0370  0.2733 -0.1207
  165MOL0     O21651   7.860   6.171  10.969  0.0328  0.2907 -0.0131
  165MOL0     C21652   7.726   6.165  10.935 -0.2638 -0.3349 -0.6778
  165MOL0     C21653   7.661   6.038  10.949 -0.7205 -0.2253 -0.3776
  165MOL0     C21654   7.518   6.035  10.928  0.5152  0.1061 -0.2601
  165MOL0     C21655   7.441   6.147  10.894  0.7635  0.7084  0.1357
  165MOL0     O21656   7.306   6.120  10.876  0.5167 -0.3627  0.4922
  165MOL0     C21657   7.230   6.208  10.801  0.4358  0.3390  0.4479
  165MOL0     C21658   7.103   6.125  10.780  0.2258 -0.2826  0.8165
  165MOL0     C21659   7.015   6.194  10.689  0.6803  0.1933 -0.3308
  165MOL0     C21660   6.878   6.131  10.670  0.2191  0.4681  0.1860
  165MOL0     C21661   6.790   6.196  10.556  0.0395  0.0128 -0.4925
  165MOL0     C21662   6.732   6.336  10.587 -0.1717 -0.3315 -1.2212
  165MOL0     C21663   6.665   6.431  10.483 -0.2643 -0.1938  0.9365
  165MOL0     C21664   6.606   6.553  10.539  0.0672 -0.1714 -0.1118
  165MOL0     N21665   6.578   6.661  10.444 -0.2807  0.6085 -0.3604
  165MOL0     C21666   6.455   6.694  10.392  0.2627  0.0748 -0.7768
  165MOL0     C21667   6.479   6.805  10.323 -0.2443 -0.2008  0.2221
  165MOL0     C21668   6.376   6.873  10.249  0.8887  0.4223  0.3942
  165MOL0     C21669   6.257   6.921  10.325  0.1596  0.2469  0.4246
  165MOL0     C21670   6.152   6.975  10.226 -0.8454  0.4114  0.4113
  165MOL0     C21671   6.024   7.008  10.302  0.4226  0.3927 -0.8094
  165MOL0     O21672   5.937   7.074  10.208  0.1968  0.0076  0.3060
  165MOL0     C21673   5.808   7.098  10.245 -0.2386  0.0708  0.3936
  165MOL0     C21674   5.773   7.114  10.383  0.2014  0.6284  0.4975
  165MOL0     C21675   5.639   7.140  10.422  0.0451  0.6904  0.3703
  165MOL0     C21676   5.540   7.163  10.328  0.1256  0.0462 -0.2123
  165MOL0     C21677   5.397   7.204  10.355 -0.6543  0.8925 -0.2977
  165MOL0     O21678   5.317   7.252  10.253  0.3744  0.2104 -0.1863
  165MOL0     C21679   5.183   7.283  10.271 -0.3785  0.2601  0.8304
  165MOL0     C21680   5.147   7.408  10.216 -1.0769  0.0209  0.9402
  165MOL0     C21681   5.013   7.455  10.224  0.0002  0.1749 -0.2658
  165MOL0     C21682   4.923   7.373  10.295 -0.1369 -0.2035  0.0557
  165MOL0     O21683   4.791   7.407  10.317 -0.1918  0.1217 -0.5016
  165MOL0     C21684   4.756   7.542  10.329 -0.0279 -0.6226 -0.0953
  165MOL0     C21685   4.604   7.560  10.359 -0.2916  0.4260  0.6003
  165MOL0     C21686   4.515   7.491  10.266  0.2251  0.2997 -0.3286
  165MOL0     C21687   4.372   7.503  10.307  0.4339 -0.2237  0.4192
  165MOL0     C21688   4.280   7.420  10.219 -0.0279 -0.1789 -0.5712
  165MOL0     C21689   4.314   7.273  10.233 -0.3127 -0.0811  0.6499
  165MOL0     C21690   4.188   7.199  10.243  0.0082  0.0115  0.3930
  165MOL0     C21691   4.218   7.046  10.233  0.2806 -0.4098  0.0483
  165MOL0    Cl21692   4.087   6.952  10.312  0.3264 -0.3964 -0.2160
  165MOL0     C21693   4.952   7.249  10.344  0.1858  0.1149  1.0763
  165MOL0     C21694   5.084   7.197  10.333 -0.1258  0.1878  0.4656
  165MOL0     O21695   5.356   7.193  10.474  0.4601  0.0847  0.2649
  165MOL0     C21696   5.572   7.146  10.191 -0.2809  0.1137 -0.2179
  165MOL0     C21697   5.710   7.122  10.150 -0.0553 -0.0458 -0.5654
  165MOL0     N21698   6.616   6.829  10.319 -0.5737 -0.1759 -0.4670
  165MOL0     N21699   6.673   6.747  10.396  0.4058 -0.4578 -0.2866
  165MOL0     C21700   7.505   6.268  10.885 -0.2333  0.4377  0.4300
  165MOL0     C21701   7.643   6.274  10.902 -0.4040 -0.5253  0.6388
  165MOL0     C21702   8.094   6.161  10.896 -0.0673  0.2851  0.8844
  165MOL0     C21703   8.145   6.180  11.025  0.5522 -0.2877  0.4226
  165MOL0     C21704   8.281   6.199  11.048  0.2397 -0.6007  0.0953
  165MOL0     C21705   8.374   6.196  10.941 -0.3092 -0.5013  0.5984
  165MOL0     O21706   8.509   6.217  10.964  0.0617  0.2998 -0.6469
  165MOL0     C21707   8.598   6.213  10.856 -0.1850 -0.2281  0.7519
  165MOL0     C21708   8.744   6.267  10.896 -0.1428 -0.0771  0.0847
  165MOL0     C21709   8.853   6.199  10.801 -0.4210  0.0497 -0.0477
  165MOL0     C21710   8.992   6.239  10.844  0.2506  0.7849  0.2277
  165MOL0     C21711   9.091   6.194  10.751 -0.2782 -0.5561  0.7098
  165MOL0     C21712   9.176   6.140  10.686  0.5264  0.3120 -0.7133
  165MOL0     C21713   8.325   6.161  10.811  0.1113 -0.0547  0.4979
  165MOL0     C21714   8.189   6.146  10.790  0.9008  0.1001 -1.0586
  165MOL0     H21715   7.714   5.946  10.972 -1.2003 -0.4945 -0.3313
  165MOL0     H21716   7.465   5.941  10.938 -1.9827  1.2448 -1.6840
  165MOL0     H21717   7.274   6.235  10.705 -2.0163  3.7595  0.0875
  165MOL0     H21718   7.213   6.295  10.865  1.0957 -1.8662  3.9004
  165MOL0     H21719   7.042   6.117  10.870 -0.1129  1.6802  0.8097
  165MOL0     H21720   7.129   6.026  10.743  0.9826 -0.3235  1.4291
  165MOL0     H21721   7.049   6.201  10.586 -1.7410  3.3798 -1.0757
  165MOL0     H21722   7.005   6.292  10.736  0.5693 -1.4172  3.3725
  165MOL0     H21723   6.894   6.030  10.632  1.9861  1.3170 -1.4961
  165MOL0     H21724   6.816   6.134  10.760 -1.1482  3.5271 -0.6913
  165MOL0     H21725   6.698   6.142  10.533 -0.3027  1.7590 -3.8439
  165MOL0     H21726   6.857   6.208  10.471  0.7597  1.0128  0.1982
  165MOL0     H21727   6.814   6.402  10.615 -0.2616 -0.9557  0.7235
  165MOL0     H21728   6.655   6.329  10.664  0.8551  0.0929 -0.1222
  165MOL0     H21729   6.736   6.460  10.405  0.2697 -0.0193  1.4739
  165MOL0     H21730   6.604   6.367  10.419  2.4495 -0.7043 -1.3041
  165MOL0     H21731   6.677   6.599  10.608 -2.2041 -0.5893  2.7289
  165MOL0     H21732   6.519   6.520  10.597 -0.3306  1.5656  0.3277
  165MOL0     H21733   6.362   6.643  10.413 -0.2911  2.5882  4.5710
  165MOL0     H21734   6.338   6.800  10.177  0.0533  2.0136 -0.8471
  165MOL0     H21735   6.416   6.965  10.204 -0.0951  1.4296  1.4958
  165MOL0     H21736   6.294   6.993  10.398  3.8770 -0.8836 -0.1093
  165MOL0     H21737   6.210   6.839  10.381 -1.3413  0.3141 -0.6779
  165MOL0     H21738   6.180   7.071  10.184  0.6926  0.4001  1.3173
  165MOL0     H21739   6.140   6.897  10.151 -2.8274  1.9259 -0.9264
  165MOL0     H21740   6.046   7.082  10.380 -2.1671 -0.1234  0.5461
  165MOL0     H21741   5.982   6.915  10.342  2.7661 -0.1193  0.6637
  165MOL0     H21742   5.839   7.100  10.468  0.7473  1.0355  0.1560
  165MOL0     H21743   5.618   7.147  10.528  0.0780 -1.7119  0.5868
  165MOL0     H21744   5.219   7.465  10.159 -2.0577 -2.5755 -3.3727
  165MOL0     H21745   4.977   7.548  10.181 -1.0954  0.5580  1.4114
  165MOL0     H21746   4.774   7.586  10.230  0.9982 -0.4821  0.1423
  165MOL0     H21747   4.813   7.591  10.408 -1.2674 -1.0401  1.1133
  165MOL0     H21748   4.576   7.666  10.359  1.3458  0.9334 -1.5673
  165MOL0     H21749   4.586   7.522  10.460  0.4607  0.1958  0.6599
  165MOL0     H21750   4.544   7.385  10.270  1.4821  0.5947 -1.0284
  165MOL0     H21751   4.532   7.539  10.169  0.6633 -1.3019 -1.0827
  165MOL0     H21752   4.358   7.494  10.415 -0.7187  1.0537  0.4007
  165MOL0     H21753   4.338   7.606  10.296 -0.3014 -0.3953  1.0590
  165MOL0     H21754   4.278   7.444  10.112 -0.7723 -0.3955 -0.6060
  165MOL0     H21755   4.180   7.443  10.255 -0.0643 -1.5442  0.2777
  165MOL0     H21756   4.366   7.250  10.327  2.2446  0.1879 -0.6005
  165MOL0     H21757   4.370   7.243  10.144  0.3783 -0.2950  1.1451
  165MOL0     H21758   4.140   7.225  10.337  0.7972  0.5738  0.6525
  165MOL0     H21759   4.116   7.227  10.166 -1.6810 -0.1633  1.8393
  165MOL0     H21760   4.309   7.014  10.285 -0.4964  0.5251  2.1110
  165MOL0     H21761   4.227   7.011  10.130 -2.7837 -0.0307 -0.4293
  165MOL0     H21762   4.879   7.182  10.389  0.6765 -0.5841  0.8546
  165MOL0     H21763   5.108   7.102  10.379 -0.0552  0.7447  1.6120
  165MOL0     H21764   5.504   7.159  10.108  2.6965  2.6676 -2.5135
  165MOL0     H21765   5.741   7.116  10.046  1.1719  1.6486 -0.3359
  165MOL0     H21766   7.443   6.355  10.870  1.7523  2.3423  2.4454
  165MOL0     H21767   7.694   6.369  10.896  1.7571 -1.6389  0.0334
  165MOL0     H21768   8.085   6.196  11.115 -0.4578 -0.1772 -0.2506
  165MOL0     H21769   8.321   6.219  11.146 -1.0407  1.7784  0.1839
  165MOL0     H21770   8.563   6.266  10.767  0.8053 -0.4988  0.1846
  165MOL0     H21771   8.618   6.109  10.830  3.3600  0.8127 -1.3218
  165MOL0     H21772   8.753   6.375  10.884 -0.3278 -0.0574  0.1338
  165MOL0     H21773   8.773   6.245  11.000  0.4851  1.9816  0.3943
  165MOL0     H21774   8.843   6.231  10.697  0.0539  0.0674 -0.0871
  165MOL0     H21775   8.839   6.090  10.801 -1.0020  0.0439  2.5469
  165MOL0     H21776   8.994   6.348  10.848 -1.2563  0.8280  0.2727
  165MOL0     H21777   9.004   6.202  10.946  0.0927  0.1092  0.0090
  165MOL0     H21778   9.247   6.091  10.623  0.0700  2.0587 -2.6935
  165MOL0     H21779   8.371   6.159  10.713 -2.3042  1.1719 -0.7444
  165MOL0     H21780   8.149   6.120  10.692  1.5870 -0.5601 -1.1778
  166MOL0     O21781   9.543   7.300   2.166  0.1495 -0.4395 -0.4273
  166MOL0     C21782   9.621   7.336   2.078 -0.3052  0.4836  0.2944
  166MOL0     O21783   9.614   7.449   2.002  0.4459  1.0113 -0.2229
  166MOL0     C21784   9.510   7.535   2.021 -0.0760 -0.0183 -0.0550
  166MOL0     C21785   9.522   7.628   2.131 -0.1195  0.1504  0.2704
  166MOL0     C21786   9.419   7.728   2.143 -0.2622  0.8157  0.4331
  166MOL0     C21787   9.310   7.729   2.065 -0.1736 -0.4170 -0.2068
  166MOL0     O21788   9.208   7.824   2.088  0.1931  0.1355  0.1777
  166MOL0     C21789   9.070   7.783   2.095 -0.0086 -0.0370  0.5780
  166MOL0     C21790   9.058   7.680   2.213 -1.1039  0.3073  0.6133
  166MOL0     C21791   8.919   7.663   2.272 -0.1810  0.2750 -0.4654
  166MOL0     C21792   8.920   7.599   2.415 -0.2927 -0.4585  0.2209
  166MOL0     C21793   8.789   7.536   2.452  0.3666  0.2513 -0.8927
  166MOL0     C21794   8.676   7.635   2.446  0.4086 -0.1589 -0.4561
  166MOL0     C21795   8.547   7.558   2.497  0.5532  0.0641  0.1100
  166MOL0     C21796   8.444   7.668   2.520  0.4996 -0.1670  0.1879
  166MOL0     N21797   8.300   7.626   2.479  0.1981 -0.0409  0.5346
  166MOL0     C21798   8.216   7.680   2.385  0.2506 -1.4292  0.6035
  166MOL0     C21799   8.117   7.583   2.370  0.5487  0.4321 -0.9911
  166MOL0     C21800   7.993   7.594   2.282  0.5917  0.4715  0.0067
  166MOL0     C21801   7.883   7.653   2.366 -0.3626 -0.8616  0.4947
  166MOL0     C21802   7.740   7.614   2.323 -0.6964 -0.3801  0.4252
  166MOL0     C21803   7.635   7.663   2.420 -0.5584  0.4602  0.2189
  166MOL0     O21804   7.508   7.598   2.393 -0.1760  0.4183 -0.1446
  166MOL0     C21805   7.393   7.661   2.420 -0.3382 -0.4052 -0.3988
  166MOL0     C21806   7.394   7.744   2.528  0.2996 -0.3440 -1.0601
  166MOL0     C21807   7.278   7.826   2.549 -0.6143  0.2911 -0.1738
  166MOL0     C21808   7.171   7.821   2.467  0.4424 -0.2478  0.0957
  166MOL0     C21809   7.056   7.909   2.496  0.1830  0.0704 -0.8546
  166MOL0     O21810   6.961   7.901   2.394 -1.0210  0.4972 -0.0878
  166MOL0     C21811   6.838   7.967   2.385  0.1556  0.1928  0.8326
  166MOL0     C21812   6.730   7.886   2.336 -0.0105 -0.3258  0.2430
  166MOL0     C21813   6.605   7.951   2.313 -0.5388  0.6127  0.6956
  166MOL0     C21814   6.595   8.091   2.342  0.7988  0.7192  0.2109
  166MOL0     O21815   6.478   8.153   2.324  0.0236 -0.2827  0.4400
  166MOL0     C21816   6.428   8.231   2.437  0.1424  0.0907  0.0865
  166MOL0     C21817   6.294   8.281   2.406  0.0543  1.1585 -0.1956
  166MOL0     C21818   6.183   8.178   2.433  0.1544  0.1128  1.0965
  166MOL0     C21819   6.038   8.237   2.435  0.4893 -0.4703  0.6470
  166MOL0     C21820   5.929   8.140   2.480 -0.2218  0.9288  0.0346
  166MOL0     C21821   5.785   8.195   2.460  0.1339 -0.4001 -0.0788
  166MOL0     C21822   5.687   8.115   2.547 -0.4493  0.2066  0.5365
  166MOL0     C21823   5.551   8.181   2.544 -0.2206 -0.1000 -0.0166
  166MOL0    Cl21824   5.554   8.354   2.598 -0.5977 -0.3798 -0.0694
  166MOL0     C21825   6.695   8.170   2.398  0.0888  0.2531  0.4489
  166MOL0     C21826   6.822   8.103   2.412  0.3741 -0.4108  0.3553
  166MOL0     O21827   7.040   7.958   2.607 -0.3047 -0.6130 -0.3929
  166MOL0     C21828   7.167   7.726   2.363 -0.1703 -1.1379  0.0353
  166MOL0     C21829   7.281   7.661   2.334 -0.4630 -0.9061 -0.1440
  166MOL0     N21830   8.143   7.479   2.464  0.3050 -0.9776 -0.5349
  166MOL0     N21831   8.246   7.512   2.537 -0.9081  0.1530  0.0312
  166MOL0     C21832   9.302   7.634   1.965  0.5350  0.1379  0.0977
  166MOL0     C21833   9.391   7.534   1.944 -0.1857 -0.0800 -0.5134
  166MOL0     C21834   9.735   7.249   2.054 -0.4130 -0.3025 -0.3624
  166MOL0     C21835   9.747   7.123   2.114  0.1229 -0.3056 -0.5256
  166MOL0     C21836   9.858   7.043   2.100  0.2681  0.2775 -0.9601
  166MOL0     C21837   9.957   7.075   2.009 -0.1164 -0.4823 -1.1597
  166MOL0     O21838  10.056   6.986   1.989 -0.1552 -0.1563  0.5946
  166MOL0     C21839  10.130   6.990   1.873  0.0189 -0.0230  0.1681
  166MOL0     C21840  10.046   6.924   1.766  0.0533  0.1016 -0.0561
  166MOL0     C21841  10.128   6.898   1.626 -0.9289  0.3957 -0.6071
  166MOL0     C21842  10.091   6.754   1.576  0.4759  0.9213  0.2293
  166MOL0     C21843  10.178   6.710   1.466  0.2455 -0.2603  0.2568
  166MOL0     C21844  10.255   6.686   1.384 -0.9095  1.2387  0.0657
  166MOL0     C21845   9.948   7.205   1.952  0.3920  0.4441  0.3568
  166MOL0     C21846   9.844   7.288   1.964 -0.3418 -0.1163 -0.0476
  166MOL0     H21847   9.618   7.620   2.180 -0.7696 -2.3293  1.3182
  166MOL0     H21848   9.442   7.804   2.217  0.4362  1.9948 -0.9328
  166MOL0     H21849   9.035   7.749   1.997 -3.1613  5.6954 -0.7670
  166MOL0     H21850   9.008   7.871   2.118  0.7348  0.3576  1.1002
  166MOL0     H21851   9.120   7.731   2.287 -0.5403  2.1781 -1.0552
  166MOL0     H21852   9.105   7.582   2.198  0.5728  0.6875  2.8933
  166MOL0     H21853   8.867   7.603   2.197  1.3768  1.9801 -3.0615
  166MOL0     H21854   8.866   7.756   2.294  1.9400  1.5371 -0.3587
  166MOL0     H21855   8.995   7.520   2.417  0.5182  0.2733 -0.6647
  166MOL0     H21856   8.952   7.666   2.495 -1.4995  2.2561 -1.4134
  166MOL0     H21857   8.802   7.485   2.548  4.1300  0.0302 -1.3456
  166MOL0     H21858   8.760   7.462   2.378  1.8938 -0.9996 -0.2843
  166MOL0     H21859   8.660   7.681   2.348 -0.7012  0.3065 -0.0638
  166MOL0     H21860   8.699   7.713   2.519  0.5659 -1.4077  0.8859
  166MOL0     H21861   8.503   7.486   2.427  0.5867 -1.8464  1.9528
  166MOL0     H21862   8.578   7.511   2.591  2.6999  1.5389  0.1865
  166MOL0     H21863   8.477   7.761   2.473  0.6317 -0.2719  0.0728
  166MOL0     H21864   8.431   7.680   2.628  0.2331 -3.3718  0.6200
  166MOL0     H21865   8.225   7.779   2.342 -1.2674 -1.5154  0.0165
  166MOL0     H21866   7.973   7.491   2.255  1.1284  0.9090 -2.2219
  166MOL0     H21867   8.004   7.652   2.190 -0.5805 -0.1986 -0.5740
  166MOL0     H21868   7.898   7.761   2.357  0.4950 -0.9806  0.4150
  166MOL0     H21869   7.881   7.634   2.474  1.1783 -0.6830  0.5794
  166MOL0     H21870   7.715   7.646   2.221  1.1947  0.2717  0.1335
  166MOL0     H21871   7.747   7.505   2.316  0.1416 -0.2535 -1.3845
  166MOL0     H21872   7.626   7.771   2.406 -0.8972  0.2472 -1.4325
  166MOL0     H21873   7.665   7.633   2.521 -1.3331 -1.3790 -0.0688
  166MOL0     H21874   7.472   7.756   2.602 -0.1395  3.7148 -1.0503
  166MOL0     H21875   7.287   7.898   2.630  2.7170  1.3413 -1.3153
  166MOL0     H21876   6.742   7.785   2.299  0.6486  0.3458 -1.4786
  166MOL0     H21877   6.519   7.898   2.273  0.5320  0.0649 -0.9999
  166MOL0     H21878   6.482   8.322   2.464  0.1156  0.1629 -0.1028
  166MOL0     H21879   6.430   8.170   2.527 -1.3710 -2.2199 -1.3343
  166MOL0     H21880   6.287   8.312   2.302 -2.0186  1.5958  0.0237
  166MOL0     H21881   6.274   8.366   2.473 -1.7700  1.0613 -0.5522
  166MOL0     H21882   6.196   8.119   2.525  1.6701 -4.1879 -1.5822
  166MOL0     H21883   6.188   8.107   2.350 -0.1386 -1.1269  2.1016
  166MOL0     H21884   6.030   8.329   2.493  0.4393 -0.7774  1.1388
  166MOL0     H21885   6.022   8.276   2.335 -0.6295  1.0779  1.3899
  166MOL0     H21886   5.951   8.118   2.585  1.3956 -6.6442 -1.3171
  166MOL0     H21887   5.940   8.044   2.430  1.0453  1.0425  0.0636
  166MOL0     H21888   5.763   8.175   2.355  0.6446 -0.4891 -0.1676
  166MOL0     H21889   5.774   8.302   2.477 -2.8642  0.1869 -4.2522
  166MOL0     H21890   5.679   8.012   2.513 -0.4388  0.7896 -1.3242
  166MOL0     H21891   5.727   8.120   2.649  2.0796 -1.0111 -0.3289
  166MOL0     H21892   5.482   8.120   2.604  1.0449 -1.1392  0.4269
  166MOL0     H21893   5.518   8.177   2.440  0.1617 -1.1033 -0.1144
  166MOL0     H21894   6.688   8.273   2.430 -0.6114  0.1725  0.5580
  166MOL0     H21895   6.907   8.155   2.457  0.5774  1.2545 -1.8028
  166MOL0     H21896   7.081   7.731   2.297  0.6031  0.8588 -0.9030
  166MOL0     H21897   7.301   7.597   2.249  1.2350 -0.5289 -0.0574
  166MOL0     H21898   9.218   7.632   1.896  1.8200 -0.6075 -1.4915
  166MOL0     H21899   9.386   7.468   1.859  1.3695 -0.1354 -0.5940
  166MOL0     H21900   9.666   7.093   2.180 -0.0017  0.1000 -0.4938
  166MOL0     H21901   9.856   6.952   2.160 -0.1598  2.2869  2.3237
  166MOL0     H21902  10.213   6.925   1.904 -0.3245 -1.3866 -1.5859
  166MOL0     H21903  10.168   7.084   1.830  0.2312  0.0818  0.5843
  166MOL0     H21904  10.003   6.831   1.804  1.4883 -0.4048  0.3695
  166MOL0     H21905   9.977   7.002   1.732  0.7224  0.3044 -0.9981
  166MOL0     H21906  10.235   6.910   1.646 -0.7100 -0.6588 -1.1190
  166MOL0     H21907  10.102   6.972   1.550  0.8149  0.3795 -1.2485
  166MOL0     H21908  10.112   6.681   1.655  0.9994  0.2342 -0.5260
  166MOL0     H21909   9.989   6.755   1.537  0.8234 -2.1061 -1.0156
  166MOL0     H21910  10.334   6.672   1.313  0.4643 -1.7260  1.9747
  166MOL0     H21911  10.029   7.233   1.885 -0.6443  3.2540  0.1532
  166MOL0     H21912   9.843   7.383   1.913 -2.3071 -0.4848 -0.7581
  167MOL0     O21913   7.216   0.165   8.886  0.3948 -0.1734 -0.6602
  167MOL0     C21914   7.280   0.251   8.829 -0.3082 -0.6678  0.0101
  167MOL0     O21915   7.243   0.377   8.805 -0.4541  0.3178  0.0108
  167MOL0     C21916   7.109   0.403   8.786  0.1476 -0.2611  1.5471
  167MOL0     C21917   7.043   0.498   8.867  0.8744  0.2096  0.7456
  167MOL0     C21918   6.908   0.520   8.869 -0.2992 -0.0584 -0.5587
  167MOL0     C21919   6.827   0.457   8.778  0.4208 -0.2241  1.0157
  167MOL0     O21920   6.687   0.475   8.777 -0.5144  0.1302 -0.4577
  167MOL0     C21921   6.619   0.423   8.664  0.7776  0.0749 -0.3841
  167MOL0     C21922   6.471   0.454   8.688 -0.4547  0.6457  0.1857
  167MOL0     C21923   6.382   0.417   8.574  0.0085 -0.0228 -0.4757
  167MOL0     C21924   6.234   0.483   8.584  0.8829  0.1825  0.1511
  167MOL0     C21925   6.159   0.449   8.457  0.3174  0.0941  0.9169
  167MOL0     C21926   6.024   0.509   8.446  0.3950 -0.6634 -0.6318
  167MOL0     C21927   6.021   0.662   8.435  0.7420 -0.9121  0.3724
  167MOL0     C21928   5.877   0.725   8.462 -0.0437 -0.1146  0.2896
  167MOL0     N21929   5.806   0.749   8.337 -0.6228  0.9506  0.2688
  167MOL0     C21930   5.781   0.663   8.230  0.3378 -0.4102 -0.5493
  167MOL0     C21931   5.717   0.743   8.138  0.6454 -0.1109 -0.2832
  167MOL0     C21932   5.679   0.681   8.002 -0.4844  0.5874 -0.1238
  167MOL0     C21933   5.530   0.642   7.989  0.3164  0.6185 -0.2459
  167MOL0     C21934   5.511   0.594   7.845  0.5917 -0.0213 -0.9480
  167MOL0     C21935   5.366   0.549   7.830  0.5391 -0.0643 -0.4029
  167MOL0     O21936   5.326   0.509   7.703  0.5076  0.5211 -0.0144
  167MOL0     C21937   5.246   0.595   7.636  1.0971  0.2900  0.9096
  167MOL0     C21938   5.124   0.648   7.687 -0.4449 -0.5811 -1.0336
  167MOL0     C21939   5.053   0.743   7.609 -0.0308  0.5772 -0.6752
  167MOL0     C21940   5.108   0.787   7.489 -0.8005 -0.2772 -0.3878
  167MOL0     C21941   5.050   0.901   7.418  0.3335  0.2824 -0.1457
  167MOL0     O21942   4.962   0.984   7.486 -0.3056  0.3597 -0.3809
  167MOL0     C21943   4.894   1.097   7.427 -0.0589  0.4672 -0.8215
  167MOL0     C21944   4.893   1.136   7.295  0.3696  0.6291 -0.7979
  167MOL0     C21945   4.826   1.251   7.259  0.0853  0.0048  0.8567
  167MOL0     C21946   4.760   1.318   7.355 -0.4185 -0.1532  0.9893
  167MOL0     O21947   4.700   1.434   7.302 -0.0840 -0.0400 -0.7217
  167MOL0     C21948   4.618   1.516   7.385 -0.0538  0.2269 -0.2061
  167MOL0     C21949   4.556   1.622   7.300 -0.4960  0.1431  0.2977
  167MOL0     C21950   4.450   1.709   7.370  0.1927  0.6915 -0.8014
  167MOL0     C21951   4.513   1.798   7.476  0.4663  0.2729 -0.4267
  167MOL0     C21952   4.439   1.928   7.506  0.7722 -0.6675 -0.9179
  167MOL0     C21953   4.502   2.020   7.607 -0.6130 -0.2719 -0.0274
  167MOL0     C21954   4.412   2.133   7.665  0.5220 -0.5597  0.0242
  167MOL0     C21955   4.353   2.231   7.565  1.4666 -0.9745  0.1857
  167MOL0    Cl21956   4.499   2.295   7.473 -0.4812 -0.4747 -0.0000
  167MOL0     C21957   4.758   1.280   7.485  0.7020 -0.5451  0.3866
  167MOL0     C21958   4.824   1.166   7.524 -0.1617 -0.7401 -0.4171
  167MOL0     O21959   5.090   0.917   7.301  0.6045 -0.6297 -0.2568
  167MOL0     C21960   5.218   0.719   7.435 -0.1232  0.2951 -0.2965
  167MOL0     C21961   5.290   0.623   7.508  0.2245  0.0668 -1.1211
  167MOL0     N21962   5.700   0.867   8.195 -0.6910 -0.1880 -0.1689
  167MOL0     N21963   5.767   0.874   8.310  0.9906 -0.2978 -0.1883
  167MOL0     C21964   6.892   0.384   8.676  0.4035  0.9110  0.8626
  167MOL0     C21965   7.032   0.358   8.678 -0.7258  0.3818 -0.1681
  167MOL0     C21966   7.426   0.229   8.795  0.7881  0.6278  1.1364
  167MOL0     C21967   7.499   0.333   8.728 -0.7446 -0.8195 -0.2755
  167MOL0     C21968   7.630   0.314   8.696 -0.0993  0.7965 -0.0695
  167MOL0     C21969   7.697   0.192   8.725  0.3590  0.0143 -0.4794
  167MOL0     O21970   7.829   0.162   8.697  0.7505  0.1436  0.2263
  167MOL0     C21971   7.906   0.247   8.609 -0.0095  0.4912  0.5105
  167MOL0     C21972   8.049   0.189   8.611 -0.4094 -0.9556 -0.4070
  167MOL0     C21973   8.072   0.078   8.509  0.1160  0.5897 -0.6293
  167MOL0     C21974   8.218   0.044   8.480 -0.6713 -0.1043 -0.1010
  167MOL0     C21975   8.285   0.171   8.434 -0.1426  0.8952  0.4288
  167MOL0     C21976   8.356   0.264   8.398  0.5138  0.6997  0.0684
  167MOL0     C21977   7.623   0.087   8.794 -0.4443 -0.1341 -0.6380
  167MOL0     C21978   7.484   0.110   8.819  0.3771  0.5237  0.2962
  167MOL0     H21979   7.112   0.550   8.933  0.1271  1.5849  0.4825
  167MOL0     H21980   6.877   0.596   8.940  1.9738  0.0997  0.3221
  167MOL0     H21981   6.618   0.314   8.655  0.1921  0.2141 -2.6787
  167MOL0     H21982   6.640   0.470   8.567 -0.4484  0.0203 -0.6876
  167MOL0     H21983   6.462   0.562   8.702  0.4322  1.1001 -2.2075
  167MOL0     H21984   6.444   0.396   8.776  1.6213 -1.7354 -0.6163
  167MOL0     H21985   6.378   0.307   8.578 -1.2065  0.0368  1.4373
  167MOL0     H21986   6.431   0.439   8.480  1.1909 -1.8255 -0.3408
  167MOL0     H21987   6.174   0.446   8.668 -0.4647  0.1244 -0.8000
  167MOL0     H21988   6.238   0.591   8.599  0.3776  0.3850 -1.1074
  167MOL0     H21989   6.151   0.342   8.436  3.5538  0.2039 -1.7830
  167MOL0     H21990   6.211   0.479   8.365 -2.4458 -0.8796 -1.1190
  167MOL0     H21991   5.972   0.475   8.536  2.5910 -1.7805  0.3054
  167MOL0     H21992   5.975   0.479   8.353 -0.3679  1.9799 -1.1673
  167MOL0     H21993   6.097   0.708   8.499  0.4499  0.2984 -0.1216
  167MOL0     H21994   6.059   0.694   8.338 -0.8672 -0.6865 -0.2178
  167MOL0     H21995   5.884   0.818   8.519 -0.8416 -0.9813  1.8353
  167MOL0     H21996   5.817   0.649   8.513  2.3598 -2.0304  0.4574
  167MOL0     H21997   5.828   0.566   8.218  2.7704  0.3366  1.8818
  167MOL0     H21998   5.737   0.596   7.966 -3.0994 -0.8100 -1.3400
  167MOL0     H21999   5.710   0.759   7.931 -0.0602 -1.3840 -2.2362
  167MOL0     H22000   5.477   0.738   7.994  2.1940  1.6983 -0.1476
  167MOL0     H22001   5.487   0.573   8.061  1.2949 -2.4612 -2.3917
  167MOL0     H22002   5.531   0.678   7.778 -1.1460 -1.7055 -3.8008
  167MOL0     H22003   5.568   0.505   7.817 -1.5968 -1.7880 -0.1527
  167MOL0     H22004   5.301   0.629   7.865  0.0701 -0.5326 -0.1991
  167MOL0     H22005   5.361   0.466   7.901 -0.7492  0.0905 -0.2985
  167MOL0     H22006   5.092   0.625   7.788 -1.3948  3.3612 -0.2647
  167MOL0     H22007   4.965   0.778   7.661  1.0519  0.7441  1.1277
  167MOL0     H22008   4.942   1.080   7.215 -1.0199 -0.6699 -0.7914
  167MOL0     H22009   4.841   1.276   7.155 -0.0373 -0.3941  0.7397
  167MOL0     H22010   4.682   1.561   7.461 -1.1727 -1.0486  1.5791
  167MOL0     H22011   4.544   1.464   7.446 -2.0239  2.5295 -0.4700
  167MOL0     H22012   4.505   1.566   7.222 -1.8868 -0.9297  1.8877
  167MOL0     H22013   4.631   1.693   7.265 -2.2251  0.4425 -3.1851
  167MOL0     H22014   4.379   1.647   7.425  1.8568 -0.9484 -0.4227
  167MOL0     H22015   4.401   1.778   7.300  1.0263 -0.4192 -2.5767
  167MOL0     H22016   4.516   1.745   7.571 -2.5201  1.9377  0.7480
  167MOL0     H22017   4.610   1.842   7.452 -0.1076  1.8597  0.0429
  167MOL0     H22018   4.345   1.891   7.548  0.4492 -0.3815 -1.3843
  167MOL0     H22019   4.426   1.991   7.418 -0.5941 -0.7880 -0.8168
  167MOL0     H22020   4.590   2.069   7.564  0.2356  0.6887  2.5943
  167MOL0     H22021   4.543   1.964   7.692  0.2943  1.5790  0.8299
  167MOL0     H22022   4.335   2.089   7.730  1.5963 -1.0608  1.0011
  167MOL0     H22023   4.474   2.197   7.729  0.0275  0.0161 -0.0599
  167MOL0     H22024   4.306   2.319   7.610 -0.8536  0.1339 -3.8465
  167MOL0     H22025   4.287   2.178   7.496  1.7871 -2.9132  1.2957
  167MOL0     H22026   4.712   1.340   7.563 -2.4609  0.2465 -1.8895
  167MOL0     H22027   4.821   1.133   7.628 -1.8250 -0.4560 -0.3369
  167MOL0     H22028   5.253   0.741   7.335 -1.7643  0.8335 -0.7907
  167MOL0     H22029   5.381   0.573   7.476 -1.5756 -2.5377 -2.5595
  167MOL0     H22030   6.825   0.341   8.603 -1.6137  2.8547  1.4532
  167MOL0     H22031   7.076   0.297   8.600 -0.0287  0.0673  0.4617
  167MOL0     H22032   7.463   0.433   8.707  2.8282  0.2284 -2.3067
  167MOL0     H22033   7.683   0.401   8.660 -0.0467  0.4748 -0.7942
  167MOL0     H22034   7.908   0.349   8.647  1.0258  0.4645  0.5673
  167MOL0     H22035   7.856   0.250   8.512 -2.5264 -4.5524  1.3216
  167MOL0     H22036   8.116   0.274   8.594 -1.5220  0.1478  0.5148
  167MOL0     H22037   8.067   0.152   8.713 -1.1321 -1.3721 -0.4264
  167MOL0     H22038   8.029   0.108   8.413  0.1434  0.2911 -0.7347
  167MOL0     H22039   8.009  -0.006   8.541  1.3887 -0.9173 -1.9450
  167MOL0     H22040   8.271   0.006   8.568 -1.2735  1.7879  1.1383
  167MOL0     H22041   8.232  -0.031   8.402  1.8696  0.2274 -0.0739
  167MOL0     H22042   8.429   0.338   8.372 -0.7773  1.0913 -2.7810
  167MOL0     H22043   7.678   0.001   8.831 -0.3940  0.7311  1.4246
  167MOL0     H22044   7.432   0.026   8.864  1.9854 -0.6711  0.0330
  168MOL0     O22045   1.953   4.480   1.284  0.1300 -0.0924 -0.4238
  168MOL0     C22046   2.032   4.450   1.193  0.1674  0.1900  0.7159
  168MOL0     O22047   2.028   4.338   1.111  0.9902 -0.1378  0.5103
  168MOL0     C22048   1.941   4.237   1.162  0.5382 -0.0192  0.6779
  168MOL0     C22049   1.999   4.151   1.259  0.4510 -0.0909  0.1954
  168MOL0     C22050   1.915   4.051   1.309 -0.9914 -0.0202  0.2689
  168MOL0     C22051   1.784   4.039   1.262  0.7417  0.2895 -0.3147
  168MOL0     O22052   1.704   3.944   1.320  0.1368  0.3718  0.6284
  168MOL0     C22053   1.566   3.956   1.349  0.3672  0.4221  0.5698
  168MOL0     C22054   1.528   3.822   1.401  0.8666  0.0630 -0.3969
  168MOL0     C22055   1.433   3.844   1.531  1.1198 -0.7297  0.2412
  168MOL0     C22056   1.368   3.716   1.591  0.1473 -0.9510  0.0624
  168MOL0     C22057   1.278   3.725   1.712 -0.2755  0.3762 -0.3751
  168MOL0     C22058   1.147   3.790   1.675 -0.3026  0.3335 -0.3906
  168MOL0     C22059   1.053   3.807   1.791 -0.1089 -0.7032  0.0597
  168MOL0     C22060   0.952   3.690   1.810  0.2217  0.0527  0.3191
  168MOL0     N22061   0.891   3.686   1.943 -0.4814  0.6781 -0.3624
  168MOL0     C22062   0.753   3.672   1.973 -0.4175 -0.1594 -0.4324
  168MOL0     C22063   0.751   3.679   2.108  0.4710  0.2867 -0.1610
  168MOL0     C22064   0.638   3.681   2.199  0.5269 -0.8409 -0.2772
  168MOL0     C22065   0.584   3.536   2.217 -0.0755  0.0903 -0.3476
  168MOL0     C22066   0.493   3.530   2.339 -0.4634  0.8806  0.2324
  168MOL0     C22067   0.455   3.392   2.384 -0.2450 -0.0740 -1.4865
  168MOL0     O22068   0.388   3.394   2.512 -0.7079 -0.3169 -0.5434
  168MOL0     C22069   0.279   3.309   2.527 -0.3480 -0.0544  0.0248
  168MOL0     C22070   0.163   3.336   2.604  0.2716  0.3051 -0.1122
  168MOL0     C22071   0.065   3.235   2.620 -0.4306  0.0113 -0.5550
  168MOL0     C22072   0.072   3.111   2.553 -0.2801 -0.2003 -0.5070
  168MOL0     C22073  -0.037   3.015   2.560  0.4091 -0.2075 -0.0062
  168MOL0     O22074  -0.163   3.058   2.606  0.0800 -0.0151  0.5189
  168MOL0     C22075  -0.275   2.983   2.585 -0.7915  0.1256  0.1850
  168MOL0     C22076  -0.376   2.999   2.681  0.3857  0.6235  0.0627
  168MOL0     C22077  -0.494   2.918   2.665  0.4356 -0.5696 -0.6425
  168MOL0     C22078  -0.519   2.846   2.552 -0.1717 -0.1869 -0.5145
  168MOL0     O22079  -0.628   2.777   2.525  1.2362  0.5436  0.1872
  168MOL0     C22080  -0.754   2.838   2.562 -0.8518  0.4397  0.4293
  168MOL0     C22081  -0.854   2.741   2.518  0.0859  0.2602  0.2777
  168MOL0     C22082  -0.883   2.631   2.617 -0.1788  1.5657 -0.7226
  168MOL0     C22083  -1.020   2.576   2.570  0.6285  0.3072 -0.1056
  168MOL0     C22084  -1.055   2.429   2.617 -1.0888 -0.0293  0.1453
  168MOL0     C22085  -0.966   2.334   2.541  0.4283 -0.2172 -1.2232
  168MOL0     C22086  -1.024   2.190   2.562 -0.0482 -0.0984  0.0588
  168MOL0     C22087  -1.113   2.146   2.446  0.3507  0.4566 -0.8494
  168MOL0    Cl22088  -1.142   1.968   2.460 -0.6777 -0.1479 -0.3501
  168MOL0     C22089  -0.419   2.836   2.460  0.0962  0.4192 -0.0332
  168MOL0     C22090  -0.298   2.897   2.474  0.8006  0.0151  0.0383
  168MOL0     O22091  -0.021   2.898   2.532 -0.2919  0.0264 -0.1152
  168MOL0     C22092   0.188   3.090   2.479 -0.7443  1.1426 -0.0762
  168MOL0     C22093   0.296   3.186   2.465  0.5977  0.5649 -0.5486
  168MOL0     N22094   0.881   3.684   2.159 -0.0573  1.1875  0.0365
  168MOL0     N22095   0.961   3.687   2.057 -1.1133 -0.2299 -0.3251
  168MOL0     C22096   1.734   4.125   1.173 -0.0558  0.2445  0.5069
  168MOL0     C22097   1.811   4.229   1.120 -0.2670 -0.4166  0.3334
  168MOL0     C22098   2.156   4.526   1.197 -0.0286  0.3230  0.0712
  168MOL0     C22099   2.152   4.664   1.203  0.2452 -0.3352  1.0373
  168MOL0     C22100   2.263   4.735   1.207 -0.4131 -0.4472 -0.4620
  168MOL0     C22101   2.389   4.676   1.191  0.2887  0.2782  0.0211
  168MOL0     O22102   2.503   4.749   1.183  0.0879 -0.3234  0.3504
  168MOL0     C22103   2.634   4.699   1.230 -1.0535  0.8542 -0.2125
  168MOL0     C22104   2.717   4.798   1.155 -0.6951  0.3141  0.4150
  168MOL0     C22105   2.695   4.946   1.199 -0.5173 -0.4325 -0.1985
  168MOL0     C22106   2.797   5.040   1.134 -0.1455  0.5588  0.0327
  168MOL0     C22107   2.823   5.169   1.190 -0.9499 -0.5919  0.6827
  168MOL0     C22108   2.848   5.275   1.236  0.5070 -0.2005 -0.8567
  168MOL0     C22109   2.395   4.533   1.194 -0.0252 -0.1763 -0.4784
  168MOL0     C22110   2.280   4.455   1.195 -0.6298 -0.0062 -0.9847
  168MOL0     H22111   2.103   4.164   1.290  0.4472  0.3780  0.0136
  168MOL0     H22112   1.951   3.978   1.380  0.7790  0.3989 -0.1529
  168MOL0     H22113   1.510   3.995   1.264 -0.3060  2.5431  1.9096
  168MOL0     H22114   1.558   4.031   1.429 -0.7171  0.1273  0.7503
  168MOL0     H22115   1.619   3.765   1.422  2.3406  0.8859 -3.8476
  168MOL0     H22116   1.475   3.751   1.337  1.7090 -1.4479  0.5374
  168MOL0     H22117   1.348   3.907   1.506  0.9395  0.4542  3.3243
  168MOL0     H22118   1.475   3.908   1.610  1.8965 -3.2742  2.0465
  168MOL0     H22119   1.305   3.670   1.513 -0.7698  0.8710 -0.3477
  168MOL0     H22120   1.444   3.645   1.623  1.1187  0.0558  0.0534
  168MOL0     H22121   1.319   3.788   1.791 -0.4402 -0.0649  0.0655
  168MOL0     H22122   1.264   3.625   1.753 -1.9407  0.4302 -0.7281
  168MOL0     H22123   1.098   3.736   1.594  0.1378 -1.3316  0.4067
  168MOL0     H22124   1.171   3.888   1.634  1.2146 -0.0336 -0.4404
  168MOL0     H22125   1.110   3.819   1.884  3.8923 -2.8671 -1.8518
  168MOL0     H22126   1.000   3.901   1.780  1.6686  0.9347  3.6433
  168MOL0     H22127   1.007   3.599   1.786 -0.1647 -0.4639  1.3477
  168MOL0     H22128   0.875   3.719   1.737  1.2803  0.0463 -0.8429
  168MOL0     H22129   0.670   3.666   1.903 -2.1491  3.2486  1.0715
  168MOL0     H22130   0.559   3.749   2.166  0.9358 -0.9939 -1.6004
  168MOL0     H22131   0.681   3.714   2.294  0.5211  0.5560 -0.7376
  168MOL0     H22132   0.666   3.465   2.231  0.1640  0.1932 -1.1880
  168MOL0     H22133   0.530   3.502   2.128  1.4998 -1.1088 -0.8911
  168MOL0     H22134   0.535   3.585   2.424 -0.1679  0.6440  0.2429
  168MOL0     H22135   0.408   3.594   2.315 -3.9977 -2.9742  1.3894
  168MOL0     H22136   0.534   3.317   2.394  1.4056  1.4323 -2.6532
  168MOL0     H22137   0.389   3.365   2.301 -2.6776  0.0547  0.2810
  168MOL0     H22138   0.152   3.432   2.653 -3.1407 -1.6375  3.4809
  168MOL0     H22139  -0.020   3.259   2.683 -0.3533 -0.9045 -0.0968
  168MOL0     H22140  -0.351   3.057   2.769 -1.2163  0.4318  0.6834
  168MOL0     H22141  -0.562   2.912   2.749 -0.1772  2.7212 -0.7789
  168MOL0     H22142  -0.765   2.935   2.513  3.8067  1.2864  0.5220
  168MOL0     H22143  -0.759   2.855   2.670  3.0754  0.0585  0.8141
  168MOL0     H22144  -0.825   2.700   2.421  0.0727  0.0913  0.3439
  168MOL0     H22145  -0.939   2.804   2.493  0.1362  0.6492  1.0469
  168MOL0     H22146  -0.888   2.671   2.719  0.9943 -2.1646  0.9670
  168MOL0     H22147  -0.800   2.560   2.616  2.1703  4.1007 -0.5897
  168MOL0     H22148  -1.085   2.650   2.619  2.1540  1.8519 -0.3082
  168MOL0     H22149  -1.023   2.580   2.461 -1.0108  0.9672 -0.0602
  168MOL0     H22150  -1.158   2.399   2.595 -1.3932  2.1614 -1.8625
  168MOL0     H22151  -1.050   2.422   2.726 -1.2917  0.7039  0.2051
  168MOL0     H22152  -0.860   2.343   2.567 -0.2502  1.8265  1.3048
  168MOL0     H22153  -0.964   2.344   2.432  3.0102 -2.4404 -1.4752
  168MOL0     H22154  -0.940   2.122   2.578 -0.0631  0.1288  1.1599
  168MOL0     H22155  -1.085   2.186   2.652  2.3141  2.8119  1.9786
  168MOL0     H22156  -1.058   2.166   2.354  0.8050 -1.3934 -1.0227
  168MOL0     H22157  -1.204   2.206   2.433  1.6179  2.6150 -0.2117
  168MOL0     H22158  -0.430   2.767   2.377  4.0259 -1.6799  0.9881
  168MOL0     H22159  -0.223   2.882   2.396  0.6631 -1.2733  0.1315
  168MOL0     H22160   0.208   2.998   2.425  3.0521  0.6235  1.8852
  168MOL0     H22161   0.383   3.154   2.409 -0.3577  0.3937 -1.9822
  168MOL0     H22162   1.634   4.114   1.134 -0.7420 -0.2358  2.3245
  168MOL0     H22163   1.770   4.290   1.040  4.3603 -1.0175 -2.8784
  168MOL0     H22164   2.059   4.721   1.212  0.5221  0.7349 -1.9007
  168MOL0     H22165   2.255   4.843   1.212 -1.5338 -0.4976 -0.9995
  168MOL0     H22166   2.666   4.598   1.203 -0.9597  1.0030 -0.6665
  168MOL0     H22167   2.641   4.712   1.338 -1.9073  0.0242 -0.0402
  168MOL0     H22168   2.822   4.775   1.175 -0.6728  0.3345  0.3225
  168MOL0     H22169   2.707   4.796   1.046  3.1775 -1.1872 -0.0888
  168MOL0     H22170   2.707   4.964   1.306 -0.0544 -1.5362 -0.0564
  168MOL0     H22171   2.591   4.968   1.170 -1.2676 -3.9670 -0.5871
  168MOL0     H22172   2.892   4.985   1.131 -1.2085 -1.3412 -1.1768
  168MOL0     H22173   2.773   5.061   1.029 -1.2549  1.2627  0.4086
  168MOL0     H22174   2.876   5.360   1.294 -0.9682 -0.6123  0.5153
  168MOL0     H22175   2.492   4.484   1.188  0.0411 -0.1482  0.2150
  168MOL0     H22176   2.282   4.346   1.199 -1.3729  0.0053  0.4737
  169MOL0     O22177   2.021   6.327  10.362 -0.0651 -0.5076  0.0034
  169MOL0     C22178   2.081   6.423  10.409  0.2630  0.2681  0.3352
  169MOL0     O22179   2.024   6.532  10.472 -0.4064 -0.0119  0.0524
  169MOL0     C22180   1.888   6.546  10.473 -0.9589 -0.3128  0.1112
  169MOL0     C22181   1.839   6.650  10.394  0.1782  0.4731 -0.5998
  169MOL0     C22182   1.708   6.687  10.407 -1.2544  0.6317 -0.2530
  169MOL0     C22183   1.622   6.620  10.492  0.3090  0.6071 -0.0469
  169MOL0     O22184   1.487   6.652  10.520 -0.7814 -0.0116 -0.0545
  169MOL0     C22185   1.430   6.773  10.470 -0.3364 -0.4839  1.0727
  169MOL0     C22186   1.289   6.780  10.507 -0.0731  0.4883 -0.1571
  169MOL0     C22187   1.213   6.870  10.412 -0.4597  0.3542  0.4133
  169MOL0     C22188   1.071   6.866  10.460  0.7323 -0.5737  0.7766
  169MOL0     C22189   0.984   6.947  10.365  0.2989  0.2624  0.8459
  169MOL0     C22190   0.858   6.873  10.325 -0.7434  0.0245 -0.3092
  169MOL0     C22191   0.763   6.939  10.226 -0.1441 -0.0174 -0.2912
  169MOL0     C22192   0.698   7.065  10.290 -0.2777  0.3747 -0.2914
  169MOL0     N22193   0.592   7.033  10.394 -0.3753 -0.3193  0.1133
  169MOL0     C22194   0.463   7.033  10.369  1.1517  0.3841 -0.5107
  169MOL0     C22195   0.396   7.017  10.487 -0.6829 -0.3985  0.6710
  169MOL0     C22196   0.241   7.011  10.517  0.5835 -0.2066 -0.1454
  169MOL0     C22197   0.173   6.877  10.483  0.8337 -0.9523  0.4922
  169MOL0     C22198   0.212   6.787  10.594  0.1095  0.1521  0.5670
  169MOL0     C22199   0.111   6.666  10.594 -0.0144  0.1577 -0.7839
  169MOL0     O22200   0.106   6.602  10.471  0.3825 -0.0690  0.2958
  169MOL0     C22201   0.015   6.498  10.465 -0.5761  0.1273 -0.1460
  169MOL0     C22202  -0.072   6.452  10.569 -0.1634  0.2772  0.1806
  169MOL0     C22203  -0.169   6.367  10.529 -0.1246 -0.0832 -0.1104
  169MOL0     C22204  -0.174   6.302  10.406  0.0293  0.2247  0.1399
  169MOL0     C22205  -0.269   6.195  10.379  0.4121 -0.6668 -0.5399
  169MOL0     O22206  -0.368   6.183  10.474 -1.0055 -0.6803  0.2154
  169MOL0     C22207  -0.469   6.090  10.460 -0.3051 -0.2889  0.7714
  169MOL0     C22208  -0.604   6.124  10.469  0.4049  0.1766  0.4233
  169MOL0     C22209  -0.703   6.029  10.443  0.0482 -0.3992 -0.6573
  169MOL0     C22210  -0.666   5.894  10.417  0.5317  0.3048 -0.1769
  169MOL0     O22211  -0.763   5.799  10.382  0.2180 -0.4068 -0.3133
  169MOL0     C22212  -0.901   5.841  10.378  0.6879  0.5273  0.7158
  169MOL0     C22213  -0.991   5.722  10.361 -0.6509  0.3298  0.5796
  169MOL0     C22214  -1.110   5.722  10.456 -0.5629  0.7146  0.5842
  169MOL0     C22215  -1.200   5.838  10.439 -0.6493 -0.4716 -0.1682
  169MOL0     C22216  -1.341   5.813  10.488 -0.2422 -0.1698 -0.9526
  169MOL0     C22217  -1.416   5.710  10.399  0.3862  0.7101  0.4628
  169MOL0     C22218  -1.571   5.720  10.434 -0.1924  0.7439  0.2365
  169MOL0     C22219  -1.650   5.611  10.367  0.2943 -0.1647  1.1283
  169MOL0    Cl22220  -1.818   5.665  10.353 -0.1905 -0.0659 -0.0191
  169MOL0     C22221  -0.530   5.860  10.412 -0.3053  0.0846  0.0288
  169MOL0     C22222  -0.433   5.955  10.436 -0.3306  0.0315  0.1147
  169MOL0     O22223  -0.267   6.143  10.269 -0.1443  0.3846  0.8016
  169MOL0     C22224  -0.080   6.337  10.308  0.2101  0.7610  0.6011
  169MOL0     C22225   0.014   6.431  10.338 -0.2736  0.1868  0.1952
  169MOL0     N22226   0.499   7.010  10.581  0.9656  0.4054  1.0866
  169MOL0     N22227   0.616   7.024  10.525 -0.0962 -1.0249 -0.0494
  169MOL0     C22228   1.673   6.509  10.563 -0.1279 -0.3047  0.0110
  169MOL0     C22229   1.807   6.479  10.562 -0.0279 -0.7537 -0.4257
  169MOL0     C22230   2.225   6.416  10.384 -0.0116 -0.1081  0.2304
  169MOL0     C22231   2.312   6.523  10.419 -0.4515  0.8427  0.4080
  169MOL0     C22232   2.450   6.513  10.392 -0.4832 -0.1703  0.5282
  169MOL0     C22233   2.501   6.407  10.325 -0.0619 -0.0638 -0.0838
  169MOL0     O22234   2.637   6.401  10.312  1.3601 -0.1779 -0.2912
  169MOL0     C22235   2.700   6.275  10.265 -0.0377 -0.0473 -0.1521
  169MOL0     C22236   2.853   6.303  10.247  0.0072 -0.0994 -0.0845
  169MOL0     C22237   2.940   6.194  10.184  0.9704 -0.0715  0.7393
  169MOL0     C22238   3.090   6.228  10.161  0.4288  0.4702 -0.4703
  169MOL0     C22239   3.108   6.360  10.091 -0.6869 -0.4416  0.3352
  169MOL0     C22240   3.104   6.479  10.073 -0.1621 -0.5782  0.1095
  169MOL0     C22241   2.413   6.303  10.293 -0.3310 -0.5966 -0.0769
  169MOL0     C22242   2.282   6.303  10.321 -0.1059  0.2490 -0.3311
  169MOL0     H22243   1.910   6.699  10.329  1.0649 -3.1767 -2.6504
  169MOL0     H22244   1.676   6.772  10.346 -0.6698 -0.6103 -2.4096
  169MOL0     H22245   1.440   6.780  10.362 -1.0992 -2.8508  0.7855
  169MOL0     H22246   1.489   6.854  10.514 -0.0448 -0.2043  0.1905
  169MOL0     H22247   1.268   6.814  10.609 -1.8564 -1.1213  0.0928
  169MOL0     H22248   1.253   6.676  10.502  1.8496 -0.2144  0.0452
  169MOL0     H22249   1.212   6.829  10.310 -2.2674  0.2198  0.4567
  169MOL0     H22250   1.253   6.971  10.405  0.5932  0.1700  2.7937
  169MOL0     H22251   1.051   6.759  10.472  3.4683 -1.2676 -0.2436
  169MOL0     H22252   1.053   6.913  10.558 -0.5658 -1.6259  1.0679
  169MOL0     H22253   1.038   6.986  10.278 -0.6681  1.2496  0.6599
  169MOL0     H22254   0.955   7.037  10.420 -1.4966 -0.4446  1.1191
  169MOL0     H22255   0.803   6.859  10.418 -3.2689  1.0521 -1.5625
  169MOL0     H22256   0.888   6.774  10.291  1.0716 -0.1138  1.4442
  169MOL0     H22257   0.828   6.966  10.143  2.2986 -2.6122  0.6085
  169MOL0     H22258   0.683   6.873  10.191 -3.3160  2.1446  2.2836
  169MOL0     H22259   0.655   7.121  10.206  0.4820  1.6568  0.1486
  169MOL0     H22260   0.775   7.123  10.341  1.5649 -1.0556 -1.3210
  169MOL0     H22261   0.406   7.030  10.276  0.7511  0.5654 -0.2737
  169MOL0     H22262   0.201   7.085  10.448 -1.8904 -0.3211  1.0840
  169MOL0     H22263   0.212   7.043  10.617 -1.9766 -1.5251 -0.3859
  169MOL0     H22264   0.219   6.835  10.393  0.3596 -1.8680  0.6705
  169MOL0     H22265   0.066   6.892  10.468  1.1939 -0.7400 -2.2952
  169MOL0     H22266   0.314   6.750  10.580 -1.1395 -2.9876 -1.2384
  169MOL0     H22267   0.212   6.828  10.696  1.2090 -3.6879  2.2898
  169MOL0     H22268   0.011   6.704  10.619 -0.3229 -0.8348 -0.4853
  169MOL0     H22269   0.138   6.591  10.669 -0.7641 -2.6406 -3.1499
  169MOL0     H22270  -0.089   6.501  10.664  1.2146  1.9889 -0.3944
  169MOL0     H22271  -0.246   6.347  10.602 -0.6170  0.3498 -0.5035
  169MOL0     H22272  -0.628   6.227  10.494 -0.3868 -0.3506  1.9351
  169MOL0     H22273  -0.805   6.066  10.442  0.3568  0.6106  1.0597
  169MOL0     H22274  -0.924   5.912  10.298  1.4162 -1.3193 -1.1935
  169MOL0     H22275  -0.934   5.894  10.468 -1.2969  1.8451 -0.6949
  169MOL0     H22276  -0.930   5.635  10.389 -1.0632 -0.1521 -0.0092
  169MOL0     H22277  -1.023   5.724  10.257 -1.0139  0.8162  0.6994
  169MOL0     H22278  -1.093   5.729  10.564 -1.7962  0.4083  0.8090
  169MOL0     H22279  -1.164   5.630  10.433  3.4354 -1.7215  0.0534
  169MOL0     H22280  -1.156   5.920  10.496 -1.0122 -0.2690 -0.1760
  169MOL0     H22281  -1.211   5.861  10.332  0.3257 -0.6581 -0.3173
  169MOL0     H22282  -1.385   5.913  10.486  0.4884  0.1465 -2.6491
  169MOL0     H22283  -1.345   5.779  10.592 -1.2689  2.6818  0.0386
  169MOL0     H22284  -1.391   5.605  10.420 -0.6013  0.4161  0.2482
  169MOL0     H22285  -1.400   5.733  10.293  0.1360  1.5591  0.5987
  169MOL0     H22286  -1.590   5.710  10.541 -0.5574  0.2875  0.1354
  169MOL0     H22287  -1.603   5.822  10.412  2.7468  2.1810  2.0464
  169MOL0     H22288  -1.656   5.525  10.434 -1.4451  0.2057  1.4911
  169MOL0     H22289  -1.607   5.591  10.268 -1.4193 -0.7910  0.4886
  169MOL0     H22290  -0.498   5.759  10.388 -1.4152 -0.4515  0.7246
  169MOL0     H22291  -0.331   5.917  10.428  0.6868  1.9651  2.5575
  169MOL0     H22292  -0.078   6.297  10.207 -2.0733 -1.2065  1.2562
  169MOL0     H22293   0.080   6.450  10.255 -2.6858 -0.1408 -1.9329
  169MOL0     H22294   1.617   6.447  10.633  1.8776  0.7819  2.7672
  169MOL0     H22295   1.850   6.404  10.628 -2.2858 -0.2286  1.8196
  169MOL0     H22296   2.276   6.609  10.474 -0.7560  0.2192  1.2075
  169MOL0     H22297   2.506   6.600  10.425 -1.6647  2.2477 -3.1819
  169MOL0     H22298   2.647   6.247  10.174 -3.8505  2.7136  0.9714
  169MOL0     H22299   2.684   6.189  10.330  0.3665 -0.7845 -1.0028
  169MOL0     H22300   2.855   6.388  10.179 -1.3835 -0.0536 -0.0926
  169MOL0     H22301   2.898   6.325  10.344 -2.5015  2.6180  0.5968
  169MOL0     H22302   2.900   6.160  10.089  3.7579 -0.4576 -0.3879
  169MOL0     H22303   2.942   6.098  10.237  1.4547 -0.6164 -0.2463
  169MOL0     H22304   3.139   6.238  10.258 -0.8142  1.9616  0.0648
  169MOL0     H22305   3.139   6.146  10.109 -0.3063  0.1784 -0.7128
  169MOL0     H22306   3.077   6.579  10.047 -1.3719 -1.4006 -2.0352
  169MOL0     H22307   2.459   6.219  10.242  3.0304 -0.0194  1.7205
  169MOL0     H22308   2.219   6.219  10.293  0.4328 -0.5389  0.7416
  170MOL0     O22309   1.499   0.498   6.830  0.2637 -0.2197 -0.1043
  170MOL0     C22310   1.479   0.524   6.711 -0.1609 -0.5346  0.5505
  170MOL0     O22311   1.352   0.554   6.663 -0.6548 -0.4254  0.2808
  170MOL0     C22312   1.234   0.536   6.732 -0.5115 -0.4314  0.3252
  170MOL0     C22313   1.193   0.421   6.806  0.4813  0.3757  0.4386
  170MOL0     C22314   1.071   0.401   6.871  0.0497  0.1631 -0.4262
  170MOL0     C22315   0.985   0.505   6.873 -0.3557 -0.6836 -0.0427
  170MOL0     O22316   0.875   0.497   6.953  0.2653 -0.4982  0.0919
  170MOL0     C22317   0.786   0.392   6.909  0.0526  0.7840 -0.5360
  170MOL0     C22318   0.725   0.454   6.787 -0.2095 -0.2925 -0.8853
  170MOL0     C22319   0.657   0.590   6.806 -0.7056 -0.7916 -0.2963
  170MOL0     C22320   0.562   0.590   6.932  0.0879 -0.1841  0.7921
  170MOL0     C22321   0.438   0.499   6.914  0.3340  0.9608  0.0261
  170MOL0     C22322   0.365   0.513   7.048  0.3465  0.2022  0.4068
  170MOL0     C22323   0.245   0.418   7.042 -0.4835 -0.9883 -0.7279
  170MOL0     C22324   0.191   0.400   7.181  0.2247 -0.3314  0.8145
  170MOL0     N22325   0.074   0.306   7.175 -0.7331 -0.6437  0.2499
  170MOL0     C22326  -0.012   0.275   7.067 -0.4316 -0.5146 -0.1205
  170MOL0     C22327  -0.105   0.198   7.130  0.4517 -0.5478  0.0680
  170MOL0     C22328  -0.238   0.162   7.070 -0.7186 -0.0610  0.5814
  170MOL0     C22329  -0.343   0.248   7.125 -0.2740  0.1251  0.7280
  170MOL0     C22330  -0.370   0.223   7.270  0.2566  0.2428 -0.3504
  170MOL0     C22331  -0.515   0.226   7.291  0.5413  0.7302  0.0157
  170MOL0     O22332  -0.552   0.223   7.429 -0.0441  0.1501 -0.6078
  170MOL0     C22333  -0.682   0.248   7.457  0.2232  0.3471  0.6220
  170MOL0     C22334  -0.784   0.252   7.360 -0.4412 -0.0218 -0.1968
  170MOL0     C22335  -0.924   0.282   7.396 -0.4888  0.9387  0.3668
  170MOL0     C22336  -0.950   0.298   7.537 -0.3244 -0.5987  0.4042
  170MOL0     C22337  -1.086   0.335   7.584  0.6928 -0.2755  0.5136
  170MOL0     O22338  -1.174   0.329   7.486  0.0954 -0.5053 -0.1965
  170MOL0     C22339  -1.305   0.365   7.508 -1.0168  0.1581 -0.3330
  170MOL0     C22340  -1.380   0.386   7.393 -0.5397 -0.6736 -0.0410
  170MOL0     C22341  -1.515   0.401   7.393 -0.1706 -0.0323 -1.2723
  170MOL0     C22342  -1.589   0.394   7.508  0.0770  0.3262  0.1792
  170MOL0     O22343  -1.724   0.394   7.486 -0.2211 -0.1934  1.1883
  170MOL0     C22344  -1.809   0.422   7.595  0.0717  0.5497 -0.4052
  170MOL0     C22345  -1.951   0.447   7.533 -0.6679 -0.5161  0.4606
  170MOL0     C22346  -2.038   0.319   7.521  0.5958 -0.2634  0.2094
  170MOL0     C22347  -2.006   0.229   7.405 -0.2982  0.7255  0.6245
  170MOL0     C22348  -2.100   0.102   7.387 -0.1513  0.0572  0.4898
  170MOL0     C22349  -2.061   0.017   7.274 -0.3460 -0.7033 -0.0740
  170MOL0     C22350  -2.175  -0.079   7.236 -0.5890  0.1262  0.4494
  170MOL0     C22351  -2.121  -0.192   7.147 -0.2976 -0.4066 -0.1485
  170MOL0    Cl22352  -2.099  -0.107   6.984 -0.4147 -0.2273  0.1277
  170MOL0     C22353  -1.523   0.377   7.625 -0.1650 -0.1327 -0.8121
  170MOL0     C22354  -1.382   0.365   7.629 -0.4128  0.3041 -0.5889
  170MOL0     O22355  -1.098   0.395   7.691  0.4246  0.3281 -0.5926
  170MOL0     C22356  -0.846   0.281   7.632  0.0910 -0.4248 -0.7082
  170MOL0     C22357  -0.712   0.263   7.588  0.4402 -0.8132 -0.7427
  170MOL0     N22358  -0.061   0.168   7.259  0.1686 -0.4645  0.0276
  170MOL0     N22359   0.045   0.236   7.283  0.2384 -0.3542  0.1181
  170MOL0     C22360   1.027   0.633   6.811  0.6670  0.5539 -0.3940
  170MOL0     C22361   1.145   0.645   6.743 -0.4636 -0.0720  0.6818
  170MOL0     C22362   1.586   0.547   6.614 -0.1573  0.6241 -0.2755
  170MOL0     C22363   1.564   0.577   6.478 -0.7928 -0.5025  0.6286
  170MOL0     C22364   1.677   0.591   6.389 -0.2132 -0.2689 -0.9970
  170MOL0     C22365   1.810   0.578   6.441 -0.1475 -0.5433  0.3358
  170MOL0     O22366   1.897   0.592   6.342 -0.3467 -0.1442  0.3265
  170MOL0     C22367   2.018   0.652   6.389  0.8312  0.6113 -0.7599
  170MOL0     C22368   2.110   0.661   6.268 -0.0704 -0.0704 -0.4386
  170MOL0     C22369   2.252   0.715   6.287  0.3569  0.5395  0.2477
  170MOL0     C22370   2.322   0.698   6.155  0.1710  0.2023 -0.2167
  170MOL0     C22371   2.460   0.763   6.149  0.2815  1.1874 -0.7322
  170MOL0     C22372   2.575   0.801   6.151  0.1156 -1.0735  0.2238
  170MOL0     C22373   1.830   0.560   6.573 -0.2118  0.6011 -0.2032
  170MOL0     C22374   1.718   0.544   6.658 -0.2012 -0.3040 -0.4025
  170MOL0     H22375   1.257   0.333   6.813 -0.4369 -0.2735  0.9629
  170MOL0     H22376   1.046   0.308   6.921 -1.2115 -0.3630 -1.9334
  170MOL0     H22377   0.726   0.371   6.998  1.9211  1.5605  0.9665
  170MOL0     H22378   0.835   0.295   6.895  1.0667  1.0600  0.9445
  170MOL0     H22379   0.653   0.382   6.748  0.1800 -0.4366 -1.3413
  170MOL0     H22380   0.800   0.465   6.709 -0.2200 -0.1372 -0.8738
  170MOL0     H22381   0.610   0.615   6.711  0.7442  1.2112 -0.5466
  170MOL0     H22382   0.734   0.663   6.832 -0.6386 -0.9743  0.0257
  170MOL0     H22383   0.613   0.562   7.025 -2.2439 -0.4782  2.0522
  170MOL0     H22384   0.526   0.691   6.951  2.4783  0.6514  1.2694
  170MOL0     H22385   0.465   0.395   6.893 -0.3222  0.5156  1.2918
  170MOL0     H22386   0.372   0.531   6.832  0.5017 -1.2784 -1.0805
  170MOL0     H22387   0.343   0.621   7.047 -1.0853 -0.0089  2.6357
  170MOL0     H22388   0.426   0.486   7.134 -1.5805  0.1500  1.8258
  170MOL0     H22389   0.176   0.464   6.972 -0.0392  1.0158  0.0899
  170MOL0     H22390   0.276   0.322   6.999  0.3238 -0.7486 -0.7074
  170MOL0     H22391   0.146   0.494   7.213 -1.3832  0.2296 -2.6034
  170MOL0     H22392   0.275   0.358   7.236  0.2837  0.9512  1.7399
  170MOL0     H22393  -0.003   0.311   6.965  0.4566 -0.4975 -0.0412
  170MOL0     H22394  -0.261   0.055   7.074 -2.1620  0.2075 -0.1592
  170MOL0     H22395  -0.220   0.186   6.965 -0.9885  1.1080  0.7932
  170MOL0     H22396  -0.434   0.224   7.069 -1.6861  2.0882  2.0721
  170MOL0     H22397  -0.320   0.355   7.117  1.1445 -0.1302  1.0716
  170MOL0     H22398  -0.348   0.122   7.306 -2.5020 -0.0588  0.7460
  170MOL0     H22399  -0.326   0.298   7.336 -1.0875  1.1901 -0.5028
  170MOL0     H22400  -0.548   0.126   7.262  1.1275  0.4778  0.2139
  170MOL0     H22401  -0.558   0.313   7.240  0.5628  1.3171  0.9843
  170MOL0     H22402  -0.774   0.235   7.253 -2.6446  0.1286 -0.4825
  170MOL0     H22403  -1.003   0.273   7.322 -0.1891  2.1406 -0.1279
  170MOL0     H22404  -1.315   0.388   7.306 -1.4466  0.9747 -0.7382
  170MOL0     H22405  -1.574   0.421   7.304  0.6057 -0.8989 -2.0038
  170MOL0     H22406  -1.771   0.509   7.649 -0.2253 -0.0077  0.7301
  170MOL0     H22407  -1.805   0.340   7.668 -0.1115  1.1811  0.3302
  170MOL0     H22408  -1.937   0.496   7.436 -0.8910  3.0653  2.0868
  170MOL0     H22409  -2.011   0.512   7.597 -3.9093 -2.2842 -0.5919
  170MOL0     H22410  -2.140   0.357   7.510  0.1969 -1.6328 -1.1487
  170MOL0     H22411  -2.026   0.258   7.611  1.3386  0.6996  0.7806
  170MOL0     H22412  -2.018   0.301   7.323 -0.5514  2.1249  1.8639
  170MOL0     H22413  -1.905   0.187   7.416 -0.1061  0.7508 -0.8124
  170MOL0     H22414  -2.203   0.136   7.374  0.3259  2.0615  1.5336
  170MOL0     H22415  -2.094   0.041   7.477  2.1952 -1.4699 -0.5861
  170MOL0     H22416  -1.969  -0.039   7.294 -0.4995 -0.8244  0.3039
  170MOL0     H22417  -2.048   0.084   7.190  1.4190 -0.5260  0.3112
  170MOL0     H22418  -2.201  -0.130   7.330 -1.3987 -0.2080  0.0503
  170MOL0     H22419  -2.267  -0.033   7.200 -0.8836 -0.4471  0.4567
  170MOL0     H22420  -2.182  -0.282   7.135 -0.8374 -0.1349  0.4745
  170MOL0     H22421  -2.023  -0.223   7.183  0.1934  1.7795  0.5810
  170MOL0     H22422  -1.586   0.343   7.706 -1.9992  0.8577 -1.7738
  170MOL0     H22423  -1.321   0.333   7.713  1.2763  1.1653 -1.4598
  170MOL0     H22424  -0.854   0.288   7.740 -1.0435 -0.1629 -0.8029
  170MOL0     H22425  -0.634   0.274   7.663 -0.0988 -0.7557 -0.1836
  170MOL0     H22426   0.954   0.712   6.823 -2.0448 -1.9190  0.9803
  170MOL0     H22427   1.159   0.739   6.691 -2.7400 -0.6725 -1.1847
  170MOL0     H22428   1.467   0.579   6.428 -1.1154 -0.5419  1.2513
  170MOL0     H22429   1.675   0.595   6.280  0.7254  0.5678 -1.0008
  170MOL0     H22430   2.073   0.587   6.457  1.5716  1.0175 -0.9591
  170MOL0     H22431   2.009   0.756   6.421  4.0865  2.1292 -4.0788
  170MOL0     H22432   2.116   0.554   6.244 -2.2875 -0.7382  1.5520
  170MOL0     H22433   2.055   0.720   6.194 -1.7143  0.3463  1.0721
  170MOL0     H22434   2.311   0.666   6.365  2.6427 -1.2378 -2.4045
  170MOL0     H22435   2.248   0.822   6.310  0.8838  0.1355  2.3639
  170MOL0     H22436   2.332   0.591   6.135 -1.5046 -0.1913  0.8447
  170MOL0     H22437   2.262   0.743   6.074  0.9102 -0.4650 -1.1605
  170MOL0     H22438   2.675   0.837   6.161 -0.5966  0.7424  1.2494
  170MOL0     H22439   1.927   0.536   6.613  0.3846 -0.7530 -2.2865
  170MOL0     H22440   1.750   0.544   6.761  1.0591 -0.0459 -0.7728
  171MOL0     O22441   0.955   2.957   5.035 -0.4473  0.3111  0.0413
  171MOL0     C22442   0.981   3.068   4.987 -1.0794  0.8134 -0.2348
  171MOL0     O22443   0.891   3.177   4.977 -0.5137 -0.3593  0.2085
  171MOL0     C22444   0.767   3.165   5.025  0.6715  0.6134  0.0712
  171MOL0     C22445   0.725   3.277   5.092 -0.4180  0.8311 -0.4704
  171MOL0     C22446   0.607   3.283   5.159 -0.1383  0.2777 -0.7786
  171MOL0     C22447   0.525   3.179   5.180 -0.2106  0.4427 -0.0556
  171MOL0     O22448   0.407   3.202   5.250  0.1209  0.0374  0.2736
  171MOL0     C22449   0.290   3.142   5.196 -0.7697  0.2102 -0.8919
  171MOL0     C22450   0.177   3.172   5.289 -0.2622 -0.0377 -0.3621
  171MOL0     C22451   0.164   3.081   5.416  0.0605  0.1359 -0.2298
  171MOL0     C22452   0.030   3.115   5.490 -0.6684  0.6790  0.1602
  171MOL0     C22453  -0.018   3.006   5.585 -1.3083 -0.1034 -0.3706
  171MOL0     C22454  -0.125   3.060   5.689  0.9025  0.6598  0.6713
  171MOL0     C22455  -0.198   2.958   5.782  0.6562 -0.4373  0.7883
  171MOL0     C22456  -0.273   3.042   5.889 -0.8649 -0.1286 -0.4198
  171MOL0     N22457  -0.309   2.961   6.008  0.4006 -0.2700  0.0669
  171MOL0     C22458  -0.429   2.896   6.017 -0.1900 -0.5037  0.1890
  171MOL0     C22459  -0.415   2.807   6.117  0.1378 -0.7486  1.0495
  171MOL0     C22460  -0.514   2.693   6.154  0.1427  0.4004  0.3234
  171MOL0     C22461  -0.664   2.716   6.126 -1.0955  0.3855 -0.2174
  171MOL0     C22462  -0.709   2.838   6.208 -0.0863  0.2336  0.3673
  171MOL0     C22463  -0.848   2.889   6.174  0.2072  0.4946 -1.1052
  171MOL0     O22464  -0.923   2.770   6.173  0.0631  0.0224  0.4895
  171MOL0     C22465  -1.055   2.775   6.155  0.8073  0.3803 -0.1341
  171MOL0     C22466  -1.141   2.897   6.130  0.4294  0.4816 -0.6632
  171MOL0     C22467  -1.278   2.877   6.107  0.0920 -0.4190 -0.4128
  171MOL0     C22468  -1.337   2.756   6.120 -0.1040  0.2152  0.5541
  171MOL0     C22469  -1.481   2.741   6.089 -0.4886  1.0043 -0.0121
  171MOL0     O22470  -1.538   2.616   6.098 -0.0010 -0.0647  0.4022
  171MOL0     C22471  -1.671   2.601   6.064 -0.2292 -0.6182  0.0417
  171MOL0     C22472  -1.708   2.508   5.965  0.1054 -0.5551 -0.3802
  171MOL0     C22473  -1.835   2.503   5.914 -0.0629 -0.6556  0.1127
  171MOL0     C22474  -1.941   2.577   5.974  0.2771  0.3651 -0.7141
  171MOL0     O22475  -2.068   2.588   5.922  1.2510 -0.2316  0.4646
  171MOL0     C22476  -2.094   2.533   5.798 -0.0975 -0.0178  0.4762
  171MOL0     C22477  -2.236   2.594   5.754  1.2069  0.2212 -0.0601
  171MOL0     C22478  -2.340   2.500   5.694  0.7541 -0.0205  0.5731
  171MOL0     C22479  -2.469   2.573   5.684  0.7610 -0.1657 -0.7965
  171MOL0     C22480  -2.579   2.479   5.635 -0.3407 -0.0495  0.3579
  171MOL0     C22481  -2.605   2.482   5.484 -0.0901  0.1714 -0.0539
  171MOL0     C22482  -2.677   2.606   5.422 -0.3967  0.8656  0.1327
  171MOL0     C22483  -2.824   2.607   5.465 -0.3797  0.0428  0.7253
  171MOL0    Cl22484  -2.900   2.748   5.383 -0.1142  0.4263 -0.1216
  171MOL0     C22485  -1.911   2.661   6.079  0.6464  0.3505 -0.3815
  171MOL0     C22486  -1.777   2.676   6.121  0.0582 -0.0230 -0.7624
  171MOL0     O22487  -1.540   2.841   6.046  0.1273  0.4382 -0.2135
  171MOL0     C22488  -1.257   2.638   6.133  0.9304 -0.4245 -0.0308
  171MOL0     C22489  -1.120   2.650   6.159 -0.3122 -0.3128  0.9693
  171MOL0     N22490  -0.294   2.817   6.167 -0.6956  0.2466 -0.0897
  171MOL0     N22491  -0.228   2.916   6.107  0.2756  0.8168 -0.3148
  171MOL0     C22492   0.575   3.055   5.122 -0.3255 -0.0938 -0.4811
  171MOL0     C22493   0.693   3.048   5.051  0.7692 -0.5383  0.4616
  171MOL0     C22494   1.116   3.092   4.927 -0.3606 -0.2518 -0.4522
  171MOL0     C22495   1.214   2.993   4.924 -0.1543 -0.0087  0.7292
  171MOL0     C22496   1.348   3.015   4.872  0.0097  0.2770 -0.4421
  171MOL0     C22497   1.383   3.143   4.836 -0.2742  0.0417  0.4715
  171MOL0     O22498   1.512   3.162   4.791  0.2656  0.1139  0.2759
  171MOL0     C22499   1.551   3.278   4.709  0.0690  0.1033 -0.4607
  171MOL0     C22500   1.686   3.280   4.638  0.0950  0.4806 -0.2168
  171MOL0     C22501   1.689   3.394   4.544  0.7162  0.1180  0.2778
  171MOL0     C22502   1.795   3.394   4.438 -0.1163 -0.8766  0.0178
  171MOL0     C22503   1.928   3.382   4.492  0.0867 -0.9305  0.1295
  171MOL0     C22504   2.043   3.381   4.535 -0.0926  0.1161 -0.2947
  171MOL0     C22505   1.279   3.246   4.833 -0.3022 -0.3881 -0.0012
  171MOL0     C22506   1.152   3.220   4.882  0.7558  0.3528  1.0037
  171MOL0     H22507   0.790   3.361   5.069 -1.3323  1.5645 -0.4181
  171MOL0     H22508   0.588   3.381   5.202  5.8270  1.3417  0.3326
  171MOL0     H22509   0.299   3.033   5.184 -0.1324  0.2795 -1.0693
  171MOL0     H22510   0.274   3.187   5.098  1.8246  3.8215  0.1692
  171MOL0     H22511   0.095   3.139   5.225  1.0591 -4.2072 -0.2546
  171MOL0     H22512   0.165   3.276   5.321 -1.3073 -1.1210  3.2211
  171MOL0     H22513   0.256   3.082   5.475  1.0062 -5.6149 -1.0154
  171MOL0     H22514   0.163   2.981   5.372  1.1305  0.0279 -0.0429
  171MOL0     H22515   0.061   3.200   5.551 -1.0604 -0.9885  2.8908
  171MOL0     H22516  -0.052   3.144   5.423 -0.3755  3.9617  1.0661
  171MOL0     H22517   0.067   2.961   5.638 -0.9927 -0.3123 -1.0485
  171MOL0     H22518  -0.070   2.924   5.535 -3.5340 -0.3434  2.1081
  171MOL0     H22519  -0.208   3.114   5.641  0.2693  1.7646  2.9068
  171MOL0     H22520  -0.071   3.139   5.741  1.1609  1.3972 -0.6774
  171MOL0     H22521  -0.260   2.886   5.729  0.1502 -0.8294  1.9030
  171MOL0     H22522  -0.127   2.899   5.841 -0.8134 -1.8688  1.1869
  171MOL0     H22523  -0.363   3.092   5.851 -1.3731 -0.2510  0.5850
  171MOL0     H22524  -0.206   3.123   5.920 -0.1796 -0.1623 -1.7360
  171MOL0     H22525  -0.516   2.904   5.953  0.2019  1.6516 -0.1358
  171MOL0     H22526  -0.501   2.682   6.263  2.3437  1.8264  0.2824
  171MOL0     H22527  -0.481   2.605   6.098 -3.0269 -2.3993  2.4439
  171MOL0     H22528  -0.715   2.624   6.153  0.3269 -0.3286  0.1433
  171MOL0     H22529  -0.678   2.733   6.019  1.4151  1.5305 -0.4562
  171MOL0     H22530  -0.705   2.820   6.316  1.3529 -0.8996  0.1570
  171MOL0     H22531  -0.646   2.927   6.197 -0.3755  0.1623 -2.9932
  171MOL0     H22532  -0.856   2.931   6.073 -4.3614  1.8942 -0.3745
  171MOL0     H22533  -0.891   2.961   6.244 -1.3820 -3.4750  2.4308
  171MOL0     H22534  -1.096   2.996   6.130  0.9482  0.2510 -0.5404
  171MOL0     H22535  -1.337   2.968   6.097  1.4843  0.6681  0.6883
  171MOL0     H22536  -1.635   2.442   5.919 -1.3962 -0.6931 -2.6847
  171MOL0     H22537  -1.852   2.431   5.834  1.3747 -0.3665 -0.4734
  171MOL0     H22538  -2.108   2.425   5.807 -1.4725 -0.0193 -1.1294
  171MOL0     H22539  -2.023   2.556   5.718 -0.5503  0.1956  0.1295
  171MOL0     H22540  -2.230   2.681   5.688 -0.9571  0.3806 -0.1214
  171MOL0     H22541  -2.286   2.636   5.842 -2.2326 -1.7292 -0.9093
  171MOL0     H22542  -2.343   2.413   5.761  0.5693 -0.3370  0.1634
  171MOL0     H22543  -2.315   2.470   5.592  0.9667  0.8050  0.3811
  171MOL0     H22544  -2.494   2.618   5.780  1.5785  2.6159 -1.8016
  171MOL0     H22545  -2.467   2.656   5.613  0.3229  0.6419  0.1279
  171MOL0     H22546  -2.669   2.494   5.694  1.3061  1.3406  2.6818
  171MOL0     H22547  -2.556   2.374   5.657 -2.5920 -0.0534  3.2795
  171MOL0     H22548  -2.674   2.396   5.475 -0.3922  0.0574  2.5903
  171MOL0     H22549  -2.514   2.459   5.428 -0.9990 -0.3780 -1.3642
  171MOL0     H22550  -2.631   2.697   5.461 -3.9877  2.2365  1.4934
  171MOL0     H22551  -2.648   2.603   5.316  1.4246 -0.7800  0.6178
  171MOL0     H22552  -2.840   2.605   5.573 -3.8274 -2.0902  0.3178
  171MOL0     H22553  -2.868   2.519   5.417  3.0176 -0.0807 -2.6525
  171MOL0     H22554  -1.993   2.722   6.115  0.7852  0.7020 -0.6501
  171MOL0     H22555  -1.753   2.745   6.201 -1.2912 -2.1036  1.5298
  171MOL0     H22556  -1.307   2.542   6.124 -1.0181  0.5342  0.1158
  171MOL0     H22557  -1.056   2.563   6.155 -2.9734 -2.3945 -0.0273
  171MOL0     H22558   0.519   2.963   5.135 -0.6757  0.3958  2.0991
  171MOL0     H22559   0.721   2.957   4.999 -1.8884  0.5710 -3.3908
  171MOL0     H22560   1.194   2.892   4.958  3.7616 -0.3835  2.5602
  171MOL0     H22561   1.422   2.935   4.866 -1.1168 -0.9132  0.8770
  171MOL0     H22562   1.541   3.370   4.767  1.6294  1.7267 -2.6097
  171MOL0     H22563   1.471   3.275   4.635 -1.4985 -2.3916  1.1650
  171MOL0     H22564   1.770   3.282   4.709 -1.3809  0.1037  1.6301
  171MOL0     H22565   1.684   3.187   4.580 -1.2114  0.6578 -0.4956
  171MOL0     H22566   1.695   3.479   4.613  2.1293 -1.0308  1.6685
  171MOL0     H22567   1.588   3.389   4.503  0.0840 -4.6563  1.8024
  171MOL0     H22568   1.777   3.307   4.373 -1.9084 -0.3514 -0.2408
  171MOL0     H22569   1.790   3.473   4.362  1.9949 -0.9815 -0.2973
  171MOL0     H22570   2.143   3.399   4.570 -0.4169 -0.0226  0.7538
  171MOL0     H22571   1.311   3.344   4.801  3.0113 -1.7216 -1.2670
  171MOL0     H22572   1.074   3.293   4.898 -1.6512 -2.0746  1.2398
  172MOL0     O22573   2.383   1.010   4.705  0.2870  0.5117 -0.9869
  172MOL0     C22574   2.321   0.925   4.771 -0.2105 -0.3371  0.5341
  172MOL0     O22575   2.369   0.843   4.861 -0.4277  0.1698  0.2047
  172MOL0     C22576   2.501   0.831   4.905  0.2057  0.2255 -1.1828
  172MOL0     C22577   2.617   0.890   4.855  0.0272  0.5132 -0.3114
  172MOL0     C22578   2.737   0.880   4.922  0.1335 -0.5348  0.1177
  172MOL0     C22579   2.749   0.815   5.035  0.5779  0.6469 -0.4650
  172MOL0     O22580   2.879   0.809   5.079  0.2875 -0.2642 -0.0967
  172MOL0     C22581   2.934   0.725   5.181  0.8911 -0.9632 -0.3442
  172MOL0     C22582   2.916   0.579   5.145 -0.6732 -0.4058  0.6941
  172MOL0     C22583   3.002   0.541   5.036 -0.2086 -0.0937 -0.5901
  172MOL0     C22584   2.968   0.392   4.998  0.4113 -0.3436 -0.3964
  172MOL0     C22585   3.023   0.365   4.860 -0.8158 -0.0054 -0.5885
  172MOL0     C22586   2.968   0.231   4.793 -0.4877  0.9222  0.3007
  172MOL0     C22587   3.024   0.216   4.646  0.0028 -0.4483 -0.7412
  172MOL0     C22588   3.179   0.211   4.637 -0.2745  0.3496 -0.0096
  172MOL0     N22589   3.211   0.196   4.496 -1.0991 -0.8588  0.0569
  172MOL0     C22590   3.227   0.298   4.404  0.1111  0.0426 -0.2254
  172MOL0     C22591   3.251   0.234   4.295 -0.4044 -0.1328  0.4815
  172MOL0     C22592   3.273   0.306   4.159  0.2389 -0.2741 -0.7758
  172MOL0     C22593   3.141   0.388   4.123  0.2580 -0.2689 -0.7106
  172MOL0     C22594   3.015   0.313   4.124  0.8100  0.2499  0.0401
  172MOL0     C22595   2.896   0.394   4.085  0.5921 -0.0303  0.3354
  172MOL0     O22596   2.917   0.466   3.963  0.3820 -0.2253 -0.1716
  172MOL0     C22597   2.820   0.543   3.916 -0.2474 -0.1689 -0.2351
  172MOL0     C22598   2.687   0.557   3.976 -0.7236 -0.0679  0.6429
  172MOL0     C22599   2.591   0.631   3.909  0.1066  0.7504  0.2419
  172MOL0     C22600   2.620   0.678   3.779 -0.5026 -0.6064  0.1021
  172MOL0     C22601   2.512   0.756   3.712  0.1456  0.1346  0.7579
  172MOL0     O22602   2.408   0.804   3.790  0.7421 -0.5845  0.5363
  172MOL0     C22603   2.320   0.892   3.730 -0.4568 -0.6818 -0.4920
  172MOL0     C22604   2.359   1.005   3.654 -0.1093 -0.1077 -0.7973
  172MOL0     C22605   2.264   1.086   3.596 -0.8677 -0.0804  0.1183
  172MOL0     C22606   2.127   1.063   3.609  1.1174  0.4768  0.0972
  172MOL0     O22607   2.025   1.143   3.554 -0.0450 -0.5522 -0.0047
  172MOL0     C22608   2.067   1.242   3.449 -0.5278 -0.8733 -0.2188
  172MOL0     C22609   1.947   1.315   3.380 -0.2321 -0.1731 -0.5617
  172MOL0     C22610   1.883   1.421   3.473  0.6749  0.5618  0.5681
  172MOL0     C22611   1.776   1.489   3.401  1.3164 -0.9509  0.3210
  172MOL0     C22612   1.703   1.593   3.493  1.0448  0.2453 -0.5333
  172MOL0     C22613   1.555   1.603   3.448 -0.1020 -0.0748 -0.6512
  172MOL0     C22614   1.478   1.682   3.556  0.8845  0.2886  0.3529
  172MOL0     C22615   1.331   1.656   3.541  0.0370  0.0298 -1.1222
  172MOL0    Cl22616   1.241   1.729   3.677 -0.2868  0.6134  0.2663
  172MOL0     C22617   2.090   0.955   3.691 -0.2684 -0.1923  0.1086
  172MOL0     C22618   2.183   0.870   3.747  1.3833 -0.4260 -0.5934
  172MOL0     O22619   2.528   0.781   3.595  0.0900  0.0012 -0.0533
  172MOL0     C22620   2.752   0.660   3.721  0.8710 -0.2459 -0.5727
  172MOL0     C22621   2.851   0.594   3.788 -0.2903  0.9957 -0.2325
  172MOL0     N22622   3.240   0.096   4.313  0.0319  0.8139 -0.1056
  172MOL0     N22623   3.232   0.078   4.433 -0.5438  0.2011 -0.0849
  172MOL0     C22624   2.629   0.762   5.103  0.0088 -0.0721 -0.3289
  172MOL0     C22625   2.508   0.769   5.033 -0.1470 -0.2349  0.7032
  172MOL0     C22626   2.186   0.886   4.732  0.9794 -0.2391  0.6364
  172MOL0     C22627   2.134   0.929   4.607 -0.2554  0.3502  0.1077
  172MOL0     C22628   2.004   0.905   4.573 -0.5290 -0.1388  0.6536
  172MOL0     C22629   1.917   0.829   4.653  0.0437  0.4052 -0.0286
  172MOL0     O22630   1.791   0.805   4.595 -0.0264 -0.2138  0.6921
  172MOL0     C22631   1.692   0.751   4.676  0.0369 -0.0064 -0.0045
  172MOL0     C22632   1.704   0.598   4.697 -0.7934  0.6321 -0.8192
  172MOL0     C22633   1.612   0.547   4.810  0.7055  0.9295  0.2777
  172MOL0     C22634   1.475   0.515   4.752 -0.2801 -0.1750  0.1852
  172MOL0     C22635   1.468   0.399   4.660 -0.5302 -0.5688  0.3565
  172MOL0     C22636   1.444   0.316   4.577 -0.3451 -1.0665  0.3976
  172MOL0     C22637   1.958   0.806   4.781 -0.6288  0.7675  0.0709
  172MOL0     C22638   2.091   0.826   4.815  0.1869 -0.6774 -0.1505
  172MOL0     H22639   2.602   0.954   4.768 -1.2154 -0.4954 -0.8844
  172MOL0     H22640   2.826   0.925   4.881 -2.4466  3.2029 -1.9390
  172MOL0     H22641   2.892   0.743   5.280  0.6011 -0.0529 -0.6234
  172MOL0     H22642   3.037   0.759   5.184  0.4992  0.4153 -1.2739
  172MOL0     H22643   2.814   0.557   5.112  0.1606 -1.3233 -1.4503
  172MOL0     H22644   2.931   0.517   5.234  0.4316 -0.5861  0.3919
  172MOL0     H22645   3.105   0.544   5.073 -0.4361 -0.8326  0.1291
  172MOL0     H22646   2.986   0.604   4.948  1.9938 -1.1746 -1.8668
  172MOL0     H22647   3.001   0.318   5.072 -0.2094  0.0889  0.3261
  172MOL0     H22648   2.860   0.382   4.991  0.0458  2.8315 -1.0515
  172MOL0     H22649   3.130   0.354   4.877 -0.6635  0.8754 -0.9615
  172MOL0     H22650   2.999   0.450   4.795 -1.5770  0.2455 -0.0037
  172MOL0     H22651   2.859   0.236   4.803 -0.6083  3.0025 -1.4622
  172MOL0     H22652   3.008   0.149   4.854  1.2648  0.3094 -1.5665
  172MOL0     H22653   2.979   0.124   4.607  0.7742 -1.6100  0.9892
  172MOL0     H22654   2.985   0.303   4.592  0.8955 -0.8776 -2.1345
  172MOL0     H22655   3.209   0.131   4.705 -2.7248  1.2600  2.3245
  172MOL0     H22656   3.229   0.307   4.656  0.3736  0.5799 -2.5305
  172MOL0     H22657   3.222   0.407   4.409  2.4100  0.1524  0.9885
  172MOL0     H22658   3.302   0.243   4.075  4.6781 -0.3887  0.5941
  172MOL0     H22659   3.363   0.364   4.179 -0.5633  0.2521  1.6791
  172MOL0     H22660   3.154   0.441   4.028 -1.8401 -2.1011 -2.1454
  172MOL0     H22661   3.136   0.469   4.195  3.5764  1.9290 -2.6577
  172MOL0     H22662   3.015   0.227   4.056 -1.8097 -0.4835  0.8304
  172MOL0     H22663   3.003   0.290   4.230 -1.9502  1.4432  0.0566
  172MOL0     H22664   2.882   0.474   4.159 -1.1011 -0.1013  0.1288
  172MOL0     H22665   2.803   0.337   4.081 -1.0771  2.3332  2.0944
  172MOL0     H22666   2.655   0.525   4.074 -0.6918 -0.4018  0.5466
  172MOL0     H22667   2.492   0.642   3.952  0.0638  3.7344 -0.3993
  172MOL0     H22668   2.462   1.041   3.645 -0.6884  1.7181 -0.5352
  172MOL0     H22669   2.298   1.164   3.528 -1.3777  1.4745  1.5721
  172MOL0     H22670   2.131   1.184   3.381  4.6388  1.5414  2.0481
  172MOL0     H22671   2.121   1.327   3.491 -1.1468  0.0116 -1.1507
  172MOL0     H22672   1.867   1.244   3.361 -1.3328  0.2170  2.2075
  172MOL0     H22673   1.993   1.361   3.292 -0.2417 -3.2201 -2.2933
  172MOL0     H22674   1.957   1.492   3.511  0.7015  1.5240 -1.1782
  172MOL0     H22675   1.840   1.369   3.559 -0.7064  2.2845  0.9726
  172MOL0     H22676   1.824   1.544   3.319  1.0918 -1.0583  0.1166
  172MOL0     H22677   1.708   1.411   3.365  1.6120 -1.9575  1.8394
  172MOL0     H22678   1.752   1.690   3.479  1.0043  0.7181  2.0085
  172MOL0     H22679   1.707   1.561   3.598 -2.2166 -2.3613 -1.0557
  172MOL0     H22680   1.504   1.506   3.445 -0.0021 -0.1395 -0.2897
  172MOL0     H22681   1.537   1.645   3.348  2.1926 -0.8789 -1.4595
  172MOL0     H22682   1.501   1.640   3.654  0.4840 -1.6425 -0.3312
  172MOL0     H22683   1.510   1.787   3.555  0.4206  0.5001 -2.3714
  172MOL0     H22684   1.301   1.554   3.512  1.3538 -0.7712  0.2065
  172MOL0     H22685   1.311   1.712   3.449 -0.8345 -1.0941 -1.6577
  172MOL0     H22686   1.984   0.937   3.705 -0.8109  1.1030 -1.8026
  172MOL0     H22687   2.138   0.796   3.813 -1.6747  1.1403 -0.7206
  172MOL0     H22688   2.770   0.682   3.617 -0.3300  0.2946 -0.6876
  172MOL0     H22689   2.947   0.574   3.742 -0.3570  1.5222 -0.6092
  172MOL0     H22690   2.650   0.712   5.197  0.4735  1.8829  0.6442
  172MOL0     H22691   2.425   0.711   5.073 -1.5233 -0.8442 -2.6817
  172MOL0     H22692   2.192   0.989   4.538  0.1922 -1.3548 -1.0537
  172MOL0     H22693   1.963   0.931   4.476  0.3035  1.9536  0.8146
  172MOL0     H22694   1.592   0.777   4.638  0.9119 -0.6409 -3.0450
  172MOL0     H22695   1.683   0.795   4.776 -0.0637 -2.1435  0.9654
  172MOL0     H22696   1.693   0.544   4.602  2.2067 -0.0037 -0.9210
  172MOL0     H22697   1.806   0.583   4.734 -0.0235  3.6028 -1.4977
  172MOL0     H22698   1.608   0.621   4.890 -0.9901  0.7024  0.4407
  172MOL0     H22699   1.647   0.454   4.856  0.0122  1.2501  1.4920
  172MOL0     H22700   1.410   0.499   4.839  0.2294 -3.0015  0.1506
  172MOL0     H22701   1.445   0.611   4.710  1.1416  0.4258  0.4906
  172MOL0     H22702   1.445   0.245   4.496 -2.3100 -2.5357  1.5498
  172MOL0     H22703   1.902   0.741   4.847 -1.4382  1.3232 -0.0541
  172MOL0     H22704   2.123   0.805   4.917  3.5869 -0.8376 -1.1200
  173MOL0     O22705   2.933   2.521   1.809 -0.6839 -0.7700  0.0203
  173MOL0     C22706   2.916   2.519   1.690  0.1916 -0.4797  1.5476
  173MOL0     O22707   2.793   2.493   1.627  0.5944 -0.4043 -0.6613
  173MOL0     C22708   2.681   2.471   1.699 -0.0484 -0.6817 -0.3499
  173MOL0     C22709   2.560   2.496   1.627 -0.2771  0.5012  0.1084
  173MOL0     C22710   2.436   2.494   1.692 -0.2278  0.7406 -0.0333
  173MOL0     C22711   2.427   2.454   1.829 -0.1589 -0.0986  0.8398
  173MOL0     O22712   2.305   2.450   1.895 -0.4449 -0.1185  0.0823
  173MOL0     C22713   2.277   2.358   2.005  0.0492  0.0983 -0.3111
  173MOL0     C22714   2.194   2.420   2.117  0.0152  0.6447  0.6379
  173MOL0     C22715   2.055   2.453   2.071  0.2073  0.8975 -0.0107
  173MOL0     C22716   2.002   2.561   2.167 -0.6500  0.5258 -0.3008
  173MOL0     C22717   1.871   2.614   2.105 -0.1656 -0.4716  1.3680
  173MOL0     C22718   1.783   2.693   2.205 -0.1941  0.0089  0.3958
  173MOL0     C22719   1.829   2.833   2.251  0.1164  1.1198  0.1808
  173MOL0     C22720   1.735   2.883   2.356  0.5853  0.2431 -0.0004
  173MOL0     N22721   1.605   2.900   2.292  0.3309  0.6538 -0.3547
  173MOL0     C22722   1.499   2.813   2.282 -0.6190  1.1402  0.5450
  173MOL0     C22723   1.412   2.866   2.191 -0.0342 -0.6631 -1.0048
  173MOL0     C22724   1.289   2.800   2.134  0.3428  0.3025  0.0566
  173MOL0     C22725   1.200   2.744   2.251 -0.9746  0.5765  0.2072
  173MOL0     C22726   1.111   2.861   2.296 -0.3665 -0.1155 -0.6933
  173MOL0     C22727   1.052   2.840   2.440 -0.4680  0.1945  1.1230
  173MOL0     O22728   0.975   2.720   2.447  0.1894  0.6217 -0.0874
  173MOL0     C22729   0.842   2.725   2.406  0.4001 -0.6531  0.9126
  173MOL0     C22730   0.765   2.606   2.424  0.6974  0.0802  0.2668
  173MOL0     C22731   0.631   2.603   2.395  0.2866  0.4436 -0.0045
  173MOL0     C22732   0.555   2.722   2.376 -0.7550  1.3639 -0.2691
  173MOL0     C22733   0.411   2.706   2.360 -0.4562  0.0085 -0.0967
  173MOL0     O22734   0.355   2.587   2.346  0.0524  0.0444  0.1599
  173MOL0     C22735   0.220   2.557   2.353  0.7802 -0.2197 -0.1007
  173MOL0     C22736   0.183   2.447   2.289 -0.0703  1.0877  0.2140
  173MOL0     C22737   0.043   2.404   2.288 -0.9699 -0.1240  0.5183
  173MOL0     C22738  -0.047   2.461   2.383 -0.9455 -0.0156  0.0135
  173MOL0     O22739  -0.175   2.408   2.381 -0.6751 -0.5788  0.4124
  173MOL0     C22740  -0.260   2.456   2.482  0.4362  0.4695 -0.4762
  173MOL0     C22741  -0.401   2.391   2.476  0.7608 -0.4629 -0.9231
  173MOL0     C22742  -0.497   2.468   2.374  0.2445 -0.8017 -0.5990
  173MOL0     C22743  -0.602   2.373   2.337  0.1158  0.3201  0.1827
  173MOL0     C22744  -0.694   2.459   2.246 -0.6725 -0.3491  0.7417
  173MOL0     C22745  -0.745   2.389   2.118  0.0005 -0.1583 -0.4352
  173MOL0     C22746  -0.860   2.465   2.056 -0.1421 -1.2129  0.4443
  173MOL0     C22747  -0.897   2.415   1.916 -0.3035 -0.2896 -0.0601
  173MOL0    Cl22748  -1.040   2.517   1.869 -0.2920 -0.0895 -0.5014
  173MOL0     C22749  -0.005   2.581   2.452 -0.4549  0.4051 -0.3353
  173MOL0     C22750   0.128   2.625   2.434  0.5362 -0.0261  0.3557
  173MOL0     O22751   0.350   2.811   2.357 -0.0655  0.1563 -0.5906
  173MOL0     C22752   0.632   2.838   2.354 -0.6230 -0.0385  0.2865
  173MOL0     C22753   0.771   2.840   2.355 -0.3067 -0.3915 -0.7044
  173MOL0     N22754   1.459   2.997   2.169  0.0199 -0.2864  0.0241
  173MOL0     N22755   1.577   3.013   2.224  0.5003  0.7303  0.1681
  173MOL0     C22756   2.547   2.435   1.900 -0.5907 -0.6894 -0.1431
  173MOL0     C22757   2.665   2.441   1.837 -0.3440  0.0790 -0.3411
  173MOL0     C22758   3.029   2.523   1.601 -0.4288  0.3485 -0.6941
  173MOL0     C22759   3.025   2.556   1.464 -0.0556 -0.1113  0.0752
  173MOL0     C22760   3.142   2.556   1.373 -0.4832  0.5516  0.2707
  173MOL0     C22761   3.268   2.522   1.429 -0.0941 -0.5593  0.5620
  173MOL0     O22762   3.384   2.502   1.352  0.5599 -0.2804  0.7245
  173MOL0     C22763   3.391   2.543   1.216  0.0706  0.4568 -0.0698
  173MOL0     C22764   3.510   2.484   1.140 -0.4451 -0.1205  0.1897
  173MOL0     C22765   3.645   2.546   1.178 -0.4762 -0.6216 -0.3039
  173MOL0     C22766   3.753   2.438   1.125 -0.5979  0.3537  0.0096
  173MOL0     C22767   3.763   2.448   0.983  0.6481 -0.2547 -0.1276
  173MOL0     C22768   3.786   2.452   0.863 -0.4335  0.5027  0.2040
  173MOL0     C22769   3.273   2.495   1.564  0.0073 -0.3261 -0.0734
  173MOL0     C22770   3.157   2.493   1.646  0.0632  0.4309 -0.1051
  173MOL0     H22771   2.565   2.522   1.522  1.5203 -1.9347 -0.5051
  173MOL0     H22772   2.343   2.511   1.638 -0.7274  1.7642  1.1101
  173MOL0     H22773   2.367   2.327   2.058  0.5621  1.3534 -0.4186
  173MOL0     H22774   2.221   2.272   1.966 -0.6273 -2.2496  4.9998
  173MOL0     H22775   2.250   2.507   2.152  1.2417  1.0692 -2.0779
  173MOL0     H22776   2.166   2.347   2.193 -2.9810 -1.5267 -2.2523
  173MOL0     H22777   1.988   2.367   2.077  1.9415 -0.4226  1.3056
  173MOL0     H22778   2.056   2.484   1.965 -1.9428  0.5742 -0.1760
  173MOL0     H22779   1.980   2.524   2.267 -1.9565  0.6136 -0.5426
  173MOL0     H22780   2.081   2.635   2.184 -0.6357  0.2352  0.9205
  173MOL0     H22781   1.818   2.523   2.076 -1.0784  0.0604  1.3186
  173MOL0     H22782   1.882   2.666   2.010  0.2148  1.8576  2.6193
  173MOL0     H22783   1.769   2.633   2.295 -0.1485  2.4680  2.1468
  173MOL0     H22784   1.685   2.705   2.157  0.6123  3.3986 -0.6464
  173MOL0     H22785   1.934   2.832   2.282  0.1882  1.2012 -0.0583
  173MOL0     H22786   1.821   2.899   2.164 -0.3996 -0.5780 -1.0943
  173MOL0     H22787   1.767   2.984   2.381 -0.9672  0.8530 -0.4029
  173MOL0     H22788   1.743   2.816   2.442  0.5771 -2.6951 -2.1338
  173MOL0     H22789   1.491   2.709   2.315  3.1103 -0.2507 -2.1466
  173MOL0     H22790   1.313   2.725   2.058 -1.9102 -0.9285  0.4640
  173MOL0     H22791   1.237   2.879   2.079  1.5921  0.5456 -0.8281
  173MOL0     H22792   1.259   2.704   2.334 -1.2026  0.5325  0.3465
  173MOL0     H22793   1.136   2.663   2.216 -2.0655  0.9497  1.2985
  173MOL0     H22794   1.174   2.948   2.314 -2.2597  0.5131  4.6259
  173MOL0     H22795   1.038   2.878   2.217  0.3414  2.0410 -0.9316
  173MOL0     H22796   0.990   2.924   2.471 -0.6890  0.3895  0.1623
  173MOL0     H22797   1.126   2.838   2.521  0.5428  2.8688  0.3652
  173MOL0     H22798   0.810   2.515   2.463 -0.0263 -0.6062 -0.4640
  173MOL0     H22799   0.578   2.509   2.399  1.4600 -0.1899  1.2731
  173MOL0     H22800   0.257   2.389   2.235 -1.4340  0.6036 -1.2451
  173MOL0     H22801   0.033   2.328   2.212 -0.9813  2.6440 -2.4656
  173MOL0     H22802  -0.283   2.563   2.474  0.3091  0.3860 -1.3513
  173MOL0     H22803  -0.204   2.428   2.571  0.1480 -1.0335 -0.7364
  173MOL0     H22804  -0.447   2.390   2.575  0.6255 -0.0769 -0.9781
  173MOL0     H22805  -0.387   2.289   2.438 -1.3224 -0.2670 -2.4211
  173MOL0     H22806  -0.439   2.510   2.291  0.4466  0.2180  0.0544
  173MOL0     H22807  -0.542   2.556   2.421  0.1968 -1.1020 -0.0727
  173MOL0     H22808  -0.565   2.286   2.282  0.8175  0.1529  0.8979
  173MOL0     H22809  -0.646   2.346   2.433 -2.5033  4.1524  0.3026
  173MOL0     H22810  -0.652   2.556   2.219 -1.6438  0.1060  0.8190
  173MOL0     H22811  -0.782   2.477   2.308 -0.5590  0.8455  0.5790
  173MOL0     H22812  -0.771   2.283   2.128  1.5984 -0.5358 -0.0124
  173MOL0     H22813  -0.660   2.395   2.049  1.2160  1.3839  1.0959
  173MOL0     H22814  -0.942   2.470   2.128 -1.7899  3.1969 -1.3911
  173MOL0     H22815  -0.836   2.572   2.056 -2.6811 -0.5435 -0.8831
  173MOL0     H22816  -0.927   2.310   1.920 -2.5664  0.3120  1.2651
  173MOL0     H22817  -0.813   2.420   1.847  0.3077  1.1482  0.7473
  173MOL0     H22818  -0.070   2.643   2.512  2.9903  1.5324  2.6390
  173MOL0     H22819   0.161   2.717   2.482  0.7429 -0.5292  1.1981
  173MOL0     H22820   0.585   2.931   2.324  1.8045  1.2915  0.3366
  173MOL0     H22821   0.832   2.920   2.315  0.9054 -1.1762 -0.4615
  173MOL0     H22822   2.550   2.439   2.008 -2.4256 -1.5710 -0.0326
  173MOL0     H22823   2.748   2.416   1.903 -0.1568  2.6552  0.5122
  173MOL0     H22824   2.923   2.564   1.430  0.8293 -0.9728 -3.1773
  173MOL0     H22825   3.128   2.572   1.267  3.3540 -2.7965 -0.9941
  173MOL0     H22826   3.396   2.652   1.209 -1.2775  0.5999  0.9017
  173MOL0     H22827   3.297   2.518   1.166  0.8754 -0.4303 -1.2118
  173MOL0     H22828   3.498   2.383   1.180  1.2954  0.9416  3.9386
  173MOL0     H22829   3.493   2.490   1.033  1.7271 -1.4086 -0.3019
  173MOL0     H22830   3.649   2.561   1.286  1.6946  0.9590 -0.5163
  173MOL0     H22831   3.663   2.645   1.135 -3.6698  1.0285  1.8261
  173MOL0     H22832   3.854   2.453   1.165  0.3248 -1.3449 -1.5598
  173MOL0     H22833   3.740   2.333   1.155  2.0274  0.5412  2.1842
  173MOL0     H22834   3.794   2.438   0.757 -0.9299 -0.4439  0.2798
  173MOL0     H22835   3.372   2.482   1.606  0.9678  0.5777 -1.9063
  173MOL0     H22836   3.179   2.470   1.750  1.3131  1.8698 -0.0164
  174MOL0     O22837   6.551   1.911   2.820  0.3679 -0.2335 -0.1708
  174MOL0     C22838   6.564   1.986   2.733  0.1527 -0.3421 -0.1174
  174MOL0     O22839   6.463   2.044   2.660  0.4258 -0.0250 -0.1963
  174MOL0     C22840   6.333   2.030   2.705 -0.4920 -1.1421  0.6019
  174MOL0     C22841   6.246   1.946   2.644  0.3024  0.1035  0.0567
  174MOL0     C22842   6.114   1.940   2.688 -0.2515 -0.4648 -0.0833
  174MOL0     C22843   6.065   2.025   2.787 -0.1581  0.5897 -0.6493
  174MOL0     O22844   5.930   2.034   2.821 -0.3445  0.0163  0.2465
  174MOL0     C22845   5.842   1.919   2.808  0.1529  0.2462 -0.1751
  174MOL0     C22846   5.709   1.971   2.854 -1.0220  0.0672  0.8187
  174MOL0     C22847   5.629   1.857   2.907 -0.1507  0.3371 -0.4440
  174MOL0     C22848   5.626   1.726   2.818 -0.1200 -0.2078  0.3447
  174MOL0     C22849   5.523   1.627   2.869  0.2528 -0.6636 -0.0612
  174MOL0     C22850   5.376   1.658   2.821 -0.0922  0.6758  0.3971
  174MOL0     C22851   5.280   1.565   2.895  0.6192 -0.3678  0.3814
  174MOL0     C22852   5.139   1.598   2.848  0.1463 -0.7502 -0.4074
  174MOL0     N22853   5.098   1.728   2.910 -0.0839 -0.0745 -0.4928
  174MOL0     C22854   5.113   1.854   2.868 -0.0352 -0.7334 -0.4933
  174MOL0     C22855   5.032   1.929   2.958 -0.6009  0.1890 -0.6558
  174MOL0     C22856   5.005   2.075   2.947 -0.0004 -0.4549 -0.7745
  174MOL0     C22857   4.883   2.112   3.045  1.2946 -0.3213  0.5979
  174MOL0     C22858   4.866   2.267   3.030 -0.4751  0.4876  0.0824
  174MOL0     C22859   4.752   2.316   3.116  0.3051  0.1558 -0.2057
  174MOL0     O22860   4.631   2.238   3.091  0.8543 -0.4738 -0.4173
  174MOL0     C22861   4.509   2.284   3.143  0.6060 -0.2545 -0.5339
  174MOL0     C22862   4.491   2.401   3.216 -0.2770  0.3053  0.5788
  174MOL0     C22863   4.364   2.444   3.250 -0.7032  0.2556 -0.1954
  174MOL0     C22864   4.251   2.372   3.216  0.5247  0.3802 -0.0481
  174MOL0     C22865   4.125   2.426   3.250  0.4775  0.2352 -0.2528
  174MOL0     O22866   4.014   2.366   3.201 -0.0188 -0.0587 -0.4514
  174MOL0     C22867   3.892   2.409   3.239  0.3884  0.2931  0.4167
  174MOL0     C22868   3.836   2.527   3.187  0.4701 -0.0752 -0.1915
  174MOL0     C22869   3.705   2.568   3.216  0.0900 -0.1590 -0.4671
  174MOL0     C22870   3.621   2.486   3.291 -0.1778 -1.0850  0.5726
  174MOL0     O22871   3.488   2.528   3.303  0.1738  0.8465  0.2763
  174MOL0     C22872   3.395   2.427   3.338  0.2848 -0.2251  0.3731
  174MOL0     C22873   3.260   2.497   3.320  0.2731 -0.7242  0.2331
  174MOL0     C22874   3.134   2.413   3.306  0.1345  0.0932  0.7309
  174MOL0     C22875   3.036   2.499   3.226 -0.9056 -0.0094  0.1838
  174MOL0     C22876   2.893   2.468   3.264 -0.5476 -0.5078 -0.4522
  174MOL0     C22877   2.790   2.584   3.242 -0.1092 -0.1332  0.9013
  174MOL0     C22878   2.650   2.527   3.279 -0.4238  0.1340 -0.0179
  174MOL0     C22879   2.544   2.626   3.316 -0.1277 -0.4267 -0.3367
  174MOL0    Cl22880   2.391   2.533   3.313 -0.4871  0.1938  0.1991
  174MOL0     C22881   3.679   2.364   3.339 -0.2629 -0.4520 -0.1569
  174MOL0     C22882   3.811   2.319   3.313 -0.1607 -0.5802 -0.1844
  174MOL0     O22883   4.129   2.523   3.325  0.5337  0.3753 -0.1876
  174MOL0     C22884   4.268   2.254   3.136  0.1078  0.1438  0.2207
  174MOL0     C22885   4.400   2.203   3.106  0.5987  0.1450 -0.0399
  174MOL0     N22886   4.985   1.839   3.054  0.1590  0.3562  0.0375
  174MOL0     N22887   5.019   1.723   3.020 -0.3656  0.1898 -0.2936
  174MOL0     C22888   6.154   2.110   2.853  0.9852  0.3315  0.2685
  174MOL0     C22889   6.282   2.114   2.805 -0.1765  0.1877 -0.1419
  174MOL0     C22890   6.709   2.026   2.707  0.2009  0.4811 -0.7401
  174MOL0     C22891   6.819   1.933   2.728  1.3034  0.5588  0.1975
  174MOL0     C22892   6.949   1.964   2.686  0.4943 -0.8810 -0.0547
  174MOL0     C22893   6.970   2.083   2.624 -0.3902 -0.1792  0.8563
  174MOL0     O22894   7.092   2.135   2.582  0.2844 -0.3576  0.8713
  174MOL0     C22895   7.204   2.051   2.569 -0.0689  0.0665  0.4287
  174MOL0     C22896   7.277   2.028   2.701  0.5167 -0.4930  0.3325
  174MOL0     C22897   7.409   1.955   2.666 -0.0166  0.9094  0.0156
  174MOL0     C22898   7.394   1.805   2.708 -0.1380 -0.4388  0.0036
  174MOL0     C22899   7.267   1.746   2.651  0.2158  0.0146 -0.3071
  174MOL0     C22900   7.163   1.691   2.635 -0.4849 -0.2278  0.3683
  174MOL0     C22901   6.861   2.169   2.587 -1.1799  0.9779 -0.2319
  174MOL0     C22902   6.728   2.138   2.626  0.1992 -0.3847  0.4489
  174MOL0     H22903   6.280   1.898   2.553 -1.3780  0.0140 -0.5561
  174MOL0     H22904   6.055   1.865   2.638 -0.3824 -0.4664  0.0721
  174MOL0     H22905   5.876   1.841   2.876  2.0335  1.2043  0.0447
  174MOL0     H22906   5.830   1.880   2.707 -1.8610 -1.9703  0.8166
  174MOL0     H22907   5.658   2.006   2.763  0.0915  1.4703  0.6872
  174MOL0     H22908   5.719   2.057   2.921  0.5150  1.4719 -1.0792
  174MOL0     H22909   5.529   1.895   2.930  0.4592  1.4617  0.4060
  174MOL0     H22910   5.660   1.829   3.007  1.3833  1.5318 -0.5484
  174MOL0     H22911   5.600   1.743   2.713  0.8581 -3.1514 -0.4676
  174MOL0     H22912   5.724   1.682   2.836  0.6294  1.7782  1.4958
  174MOL0     H22913   5.532   1.623   2.978  1.5939 -1.0958 -0.1614
  174MOL0     H22914   5.560   1.534   2.826  0.4929 -1.2702  1.3896
  174MOL0     H22915   5.364   1.659   2.713 -0.6284  0.7329  0.4521
  174MOL0     H22916   5.343   1.754   2.863  0.0225  0.9143 -0.0531
  174MOL0     H22917   5.304   1.460   2.877  0.0570 -0.0188 -3.1157
  174MOL0     H22918   5.286   1.590   3.002 -1.0858  2.9035 -0.1482
  174MOL0     H22919   5.072   1.519   2.883 -1.0529  0.9853  1.4553
  174MOL0     H22920   5.143   1.615   2.740  4.4714  0.6012 -0.2194
  174MOL0     H22921   5.168   1.888   2.782  2.9124 -0.5972  1.3151
  174MOL0     H22922   4.991   2.122   2.849 -1.9356  0.1238 -0.2685
  174MOL0     H22923   5.092   2.129   2.986 -0.5558  0.8465 -1.2732
  174MOL0     H22924   4.889   2.085   3.151  1.6510  1.4836  1.0662
  174MOL0     H22925   4.793   2.066   3.002  1.8092 -0.7115 -0.0766
  174MOL0     H22926   4.961   2.312   3.060  0.9520 -1.0995 -1.7967
  174MOL0     H22927   4.829   2.305   2.934  0.4670  4.5337  1.1102
  174MOL0     H22928   4.736   2.423   3.098 -1.2622 -0.3200 -1.8507
  174MOL0     H22929   4.788   2.307   3.219  0.6730 -1.3010 -0.4359
  174MOL0     H22930   4.572   2.467   3.244 -0.1875  0.1606  0.6588
  174MOL0     H22931   4.361   2.539   3.302  0.5299 -0.0614  0.4904
  174MOL0     H22932   3.904   2.592   3.133  2.0867  0.6318  2.4996
  174MOL0     H22933   3.661   2.661   3.181  0.1854 -0.4513 -1.3884
  174MOL0     H22934   3.418   2.396   3.440  0.4363 -0.9021  0.1358
  174MOL0     H22935   3.399   2.333   3.283 -5.8896 -0.0436 -1.0383
  174MOL0     H22936   3.282   2.547   3.225  0.1418 -0.2979  0.4242
  174MOL0     H22937   3.253   2.574   3.397 -0.7483 -0.9650  0.3912
  174MOL0     H22938   3.097   2.388   3.406  1.8601 -2.8063  0.7378
  174MOL0     H22939   3.144   2.316   3.257  0.2413  0.5397 -0.1503
  174MOL0     H22940   3.064   2.602   3.249  3.6482 -1.0387  0.1011
  174MOL0     H22941   3.051   2.477   3.120  0.8747 -2.2328  0.8257
  174MOL0     H22942   2.889   2.427   3.365  1.9626  0.4246  0.0897
  174MOL0     H22943   2.866   2.384   3.199  0.1869  1.0274 -2.8701
  174MOL0     H22944   2.797   2.609   3.136  2.0029 -0.6313  0.8819
  174MOL0     H22945   2.811   2.671   3.306  0.5053 -1.2807  2.3194
  174MOL0     H22946   2.623   2.475   3.187  1.8961  1.3635 -1.4820
  174MOL0     H22947   2.667   2.460   3.364 -0.1466  0.8720  0.5171
  174MOL0     H22948   2.542   2.710   3.245  0.6701  1.0220  1.2609
  174MOL0     H22949   2.569   2.668   3.414  0.2127 -1.1376 -0.1166
  174MOL0     H22950   3.614   2.302   3.399 -0.3329  0.6677  0.9707
  174MOL0     H22951   3.852   2.223   3.346  0.1962 -0.4321 -0.1983
  174MOL0     H22952   4.179   2.204   3.099  1.1694 -0.8191 -1.1018
  174MOL0     H22953   4.406   2.113   3.046 -0.5372  1.0774 -1.6466
  174MOL0     H22954   6.127   2.189   2.922  2.5950  1.8219 -0.7212
  174MOL0     H22955   6.339   2.197   2.845 -3.0324  0.8607  2.9609
  174MOL0     H22956   6.799   1.839   2.778 -3.7703  1.1829 -0.1634
  174MOL0     H22957   7.034   1.899   2.703  0.9480 -0.6664 -1.3571
  174MOL0     H22958   7.276   2.097   2.501  0.6160  1.2017  1.8886
  174MOL0     H22959   7.181   1.958   2.516  2.6579  0.5054 -1.7737
  174MOL0     H22960   7.305   2.127   2.738  1.4756 -1.2215  1.6125
  174MOL0     H22961   7.219   1.986   2.784  1.0377  2.9375  2.6356
  174MOL0     H22962   7.490   1.996   2.727 -0.0813  0.5024  0.3798
  174MOL0     H22963   7.440   1.963   2.561 -0.4013  0.4626 -0.1397
  174MOL0     H22964   7.478   1.754   2.660 -1.1870 -2.3712  0.1072
  174MOL0     H22965   7.405   1.791   2.816  2.0452  0.3777 -0.0620
  174MOL0     H22966   7.066   1.644   2.629 -0.8023  0.5412 -0.9782
  174MOL0     H22967   6.886   2.260   2.533  2.4227  0.6864  0.6718
  174MOL0     H22968   6.640   2.198   2.604  0.1732  0.5896  2.8811
  175MOL0     O22969   9.824   1.000   9.162 -0.2538 -0.8501  0.0378
  175MOL0     C22970   9.868   1.088   9.082  0.1933  0.4970  0.3219
  175MOL0     O22971   9.793   1.167   9.003  0.1370  0.2342  0.2594
  175MOL0     C22972   9.665   1.181   9.043 -0.6610 -0.2994  0.0600
  175MOL0     C22973   9.612   1.182   9.174  0.0297 -0.7493 -0.3811
  175MOL0     C22974   9.477   1.198   9.193  0.0926  0.8846  0.3030
  175MOL0     C22975   9.390   1.210   9.084  0.3200  0.2205 -0.3986
  175MOL0     O22976   9.254   1.223   9.105 -0.3466 -0.8232  0.1759
  175MOL0     C22977   9.194   1.136   9.199 -0.1644 -0.7621  0.1636
  175MOL0     C22978   9.038   1.147   9.166 -1.1311  0.3556  0.5035
  175MOL0     C22979   8.965   1.074   9.282  0.1303  0.9577  0.5353
  175MOL0     C22980   8.816   1.086   9.269  0.7004  0.2013  0.0926
  175MOL0     C22981   8.750   1.006   9.379  0.1271  0.3020  0.2180
  175MOL0     C22982   8.599   1.030   9.376 -0.1077 -0.0767 -0.0337
  175MOL0     C22983   8.518   0.925   9.461 -0.2262 -0.5977 -0.2667
  175MOL0     C22984   8.379   0.975   9.476  0.3344  0.8141 -0.2636
  175MOL0     N22985   8.296   0.870   9.561 -0.4170  0.4974  0.0491
  175MOL0     C22986   8.165   0.890   9.607  1.0907 -0.2543 -0.6878
  175MOL0     C22987   8.136   0.776   9.674  0.7156  1.6755 -0.2550
  175MOL0     C22988   8.003   0.746   9.730  1.1472  0.6272  0.3769
  175MOL0     C22989   7.975   0.837   9.848  0.8402 -0.2450  0.1865
  175MOL0     C22990   7.865   0.771   9.944 -0.1277  0.5094  1.2919
  175MOL0     C22991   7.736   0.803   9.878 -0.5039 -0.3058 -0.0747
  175MOL0     O22992   7.626   0.790   9.962  0.0615  0.1472  0.4454
  175MOL0     C22993   7.526   0.886   9.933  0.2330  0.5960  0.7007
  175MOL0     C22994   7.421   0.897  10.023  1.0029 -0.0044  0.0927
  175MOL0     C22995   7.309   0.990  10.000 -0.2131  0.3643  0.6216
  175MOL0     C22996   7.306   1.071   9.885 -0.4178 -0.1388  0.7795
  175MOL0     C22997   7.203   1.173   9.870  0.1261  0.2387  0.1396
  175MOL0     O22998   7.088   1.149   9.946 -0.0706  0.0789  0.0275
  175MOL0     C22999   6.992   1.245   9.938  0.1616  0.3598 -0.8530
  175MOL0     C23000   6.941   1.289  10.060 -0.3422 -0.7771  0.6013
  175MOL0     C23001   6.835   1.390  10.064 -0.3535  0.2180  0.1306
  175MOL0     C23002   6.769   1.432   9.944  0.0735  0.3545 -0.0078
  175MOL0     O23003   6.671   1.531   9.950 -0.1167  0.3149  0.1924
  175MOL0     C23004   6.633   1.596   9.823 -0.5513  1.4472  0.6707
  175MOL0     C23005   6.527   1.713   9.835 -0.3104 -0.6469  0.0803
  175MOL0     C23006   6.583   1.832   9.927  0.1680 -0.1741  0.6231
  175MOL0     C23007   6.476   1.956   9.938  0.2761  1.0823 -0.2063
  175MOL0     C23008   6.535   2.080  10.005  0.2997  0.2473  0.4513
  175MOL0     C23009   6.416   2.175  10.046 -0.1119 -0.2909  0.2323
  175MOL0     C23010   6.457   2.307  10.091  0.3111 -0.2183  0.4182
  175MOL0     C23011   6.582   2.320  10.179 -0.1454 -0.2153  1.3840
  175MOL0    Cl23012   6.588   2.503  10.209  0.0537  0.2213 -0.2828
  175MOL0     C23013   6.831   1.381   9.823  0.7388 -0.3759  0.8072
  175MOL0     C23014   6.936   1.294   9.823 -0.7771  0.4267 -0.2300
  175MOL0     O23015   7.229   1.276   9.808 -0.3113  0.0741  0.3257
  175MOL0     C23016   7.409   1.059   9.791 -0.2043  0.1903 -0.6091
  175MOL0     C23017   7.508   0.965   9.812 -0.0685 -0.3491 -0.2940
  175MOL0     N23018   8.248   0.692   9.679 -0.7256 -0.6831 -0.1019
  175MOL0     N23019   8.344   0.750   9.609  0.3343 -0.4840 -0.4631
  175MOL0     C23020   9.441   1.212   8.957 -0.1980 -0.9384 -0.7431
  175MOL0     C23021   9.574   1.200   8.937 -0.6348  0.0476 -0.8099
  175MOL0     C23022  10.007   1.113   9.066  0.6956  0.6398  0.2286
  175MOL0     C23023  10.097   1.007   9.089  0.6188 -0.4053 -0.3465
  175MOL0     C23024  10.234   1.027   9.059  0.0332  0.2471 -0.0440
  175MOL0     C23025  10.282   1.144   9.000 -0.0747  0.6662 -0.0190
  175MOL0     O23026  10.416   1.161   8.956  0.1726  0.0216 -0.8495
  175MOL0     C23027  10.490   1.042   8.933  0.1149  0.4127 -0.3451
  175MOL0     C23028  10.613   1.057   8.845  0.6363  0.2267 -0.7807
  175MOL0     C23029  10.728   1.123   8.921  0.9717 -0.1238  0.8795
  175MOL0     C23030  10.852   1.113   8.829 -0.7083  0.0684 -0.8623
  175MOL0     C23031  10.971   1.181   8.885  0.6927  0.1483  0.7540
  175MOL0     C23032  11.059   1.244   8.929  0.3874  0.2411 -0.3659
  175MOL0     C23033  10.191   1.248   8.965  0.0595 -0.0253 -1.2571
  175MOL0     C23034  10.060   1.227   9.006  0.7101 -0.3861  0.5989
  175MOL0     H23035   9.678   1.166   9.258  1.9085  2.3214 -1.1390
  175MOL0     H23036   9.436   1.196   9.294 -2.1208  3.3059 -0.4347
  175MOL0     H23037   9.211   1.168   9.302 -1.1509 -1.3965  0.5474
  175MOL0     H23038   9.222   1.031   9.181 -0.3720 -0.7669 -0.1469
  175MOL0     H23039   9.024   1.088   9.075 -1.2018  0.9373  0.1360
  175MOL0     H23040   9.008   1.252   9.164  1.2835  1.1226  1.2971
  175MOL0     H23041   9.013   1.133   9.361  2.6792  2.3013 -1.8269
  175MOL0     H23042   8.992   0.968   9.279  0.5322  1.0214 -2.9770
  175MOL0     H23043   8.784   1.190   9.285 -2.5964 -0.3746 -1.8221
  175MOL0     H23044   8.775   1.042   9.177  4.0085  1.4849 -2.1709
  175MOL0     H23045   8.793   1.027   9.478 -1.0768  0.2807  0.7614
  175MOL0     H23046   8.769   0.901   9.355  0.2396  0.2811  0.3936
  175MOL0     H23047   8.561   1.023   9.273 -1.1886  0.1821  0.3264
  175MOL0     H23048   8.570   1.133   9.401 -2.0698 -1.0621  2.2009
  175MOL0     H23049   8.520   0.828   9.410 -0.9282  0.5673 -2.6577
  175MOL0     H23050   8.562   0.924   9.561 -1.5320  0.9278  0.3549
  175MOL0     H23051   8.337   0.998   9.377  1.7284  1.9239 -0.6269
  175MOL0     H23052   8.364   1.069   9.530 -4.5688 -0.6631  1.4893
  175MOL0     H23053   8.105   0.974   9.574  0.8430 -1.5863 -3.9560
  175MOL0     H23054   8.005   0.641   9.761  0.0683  0.0642 -1.3574
  175MOL0     H23055   7.927   0.750   9.651  0.2976 -1.9005  0.9760
  175MOL0     H23056   7.958   0.941   9.820  4.0377  0.5287  0.7336
  175MOL0     H23057   8.072   0.843   9.899  1.3936  0.4297 -0.9159
  175MOL0     H23058   7.886   0.664   9.945 -0.2644  0.4812  1.1989
  175MOL0     H23059   7.883   0.808  10.046 -2.4301  1.6010  1.3564
  175MOL0     H23060   7.726   0.730   9.798 -0.1415 -1.9850  1.3372
  175MOL0     H23061   7.741   0.904   9.837 -1.7228 -0.8018 -1.5176
  175MOL0     H23062   7.402   0.839  10.113  2.1102 -0.8257 -0.1830
  175MOL0     H23063   7.228   0.985  10.072  1.0633  2.4452  2.3386
  175MOL0     H23064   6.979   1.250  10.154  1.5430 -1.8274 -0.5374
  175MOL0     H23065   6.795   1.433  10.155 -4.8791 -0.1109 -1.4304
  175MOL0     H23066   6.596   1.512   9.764  2.2447  0.6741 -0.1642
  175MOL0     H23067   6.722   1.640   9.777 -0.2032  1.2106  1.1171
  175MOL0     H23068   6.434   1.680   9.882 -2.1727  1.8484 -1.6292
  175MOL0     H23069   6.499   1.749   9.736 -0.8809  1.8556  1.0945
  175MOL0     H23070   6.679   1.878   9.900 -1.8729  3.6624 -1.0323
  175MOL0     H23071   6.588   1.792  10.028 -2.1488 -0.6101  0.6113
  175MOL0     H23072   6.438   1.983   9.839  0.8997  2.3566 -0.1178
  175MOL0     H23073   6.388   1.921   9.993  1.2683 -4.4892 -1.5310
  175MOL0     H23074   6.604   2.128   9.936  0.8291 -3.1843 -1.6497
  175MOL0     H23075   6.597   2.050  10.091 -3.0440  1.5834  3.5751
  175MOL0     H23076   6.360   2.137  10.132 -2.5928  0.6338 -0.9077
  175MOL0     H23077   6.354   2.181   9.956  0.4770  0.9168 -0.1130
  175MOL0     H23078   6.476   2.366  10.001  0.2501 -1.3772 -0.3589
  175MOL0     H23079   6.370   2.348  10.144 -0.3613 -2.1443  0.8955
  175MOL0     H23080   6.673   2.283  10.129 -0.3537 -2.8508  2.7654
  175MOL0     H23081   6.576   2.263  10.272  0.9491 -1.8903  0.4924
  175MOL0     H23082   6.797   1.418   9.727  0.0806  1.6893  1.7748
  175MOL0     H23083   6.976   1.256   9.729  4.2351 -1.0674  2.1860
  175MOL0     H23084   7.391   1.125   9.706 -0.1684 -0.6089 -1.2476
  175MOL0     H23085   7.574   0.953   9.727  3.4150  1.0121  1.9809
  175MOL0     H23086   9.372   1.225   8.873 -0.2488 -1.6392 -0.8198
  175MOL0     H23087   9.619   1.222   8.841  1.4720  0.6243  0.2559
  175MOL0     H23088  10.067   0.915   9.138  2.3986 -0.0423  1.5925
  175MOL0     H23089  10.286   0.939   9.096 -2.9733 -0.4031  3.0862
  175MOL0     H23090  10.421   0.970   8.889 -0.1940 -1.0522  2.3220
  175MOL0     H23091  10.519   0.990   9.025 -1.0124  0.6311  0.1475
  175MOL0     H23092  10.641   0.957   8.812  0.7737  0.2662 -0.7814
  175MOL0     H23093  10.585   1.114   8.756 -0.8558  0.1364 -0.3918
  175MOL0     H23094  10.741   1.058   9.007  1.0856 -2.1590 -0.6089
  175MOL0     H23095  10.704   1.227   8.947 -1.9119  0.2952 -2.5585
  175MOL0     H23096  10.875   1.008   8.809 -1.1413 -0.0800 -0.5938
  175MOL0     H23097  10.811   1.170   8.745  0.5668  1.0631 -0.8371
  175MOL0     H23098  11.143   1.296   8.971 -0.0368 -0.5414  1.5848
  175MOL0     H23099  10.221   1.345   8.926 -0.6037  1.9051  2.5574
  175MOL0     H23100   9.994   1.308   8.978 -1.9991 -1.1261  4.0992
  176MOL0     O23101   3.993   2.209   1.533  0.0758 -0.1492 -0.4966
  176MOL0     C23102   3.981   2.332   1.557 -1.0147  0.3254 -0.3556
  176MOL0     O23103   3.872   2.398   1.592 -0.1240  0.0528  0.2014
  176MOL0     C23104   3.757   2.325   1.615 -0.0888 -0.0530 -0.1037
  176MOL0     C23105   3.646   2.331   1.523  0.1542  0.8725 -0.2205
  176MOL0     C23106   3.533   2.249   1.540  0.3007 -0.4085 -0.6690
  176MOL0     C23107   3.520   2.162   1.649 -0.6963 -0.0347 -0.3655
  176MOL0     O23108   3.405   2.095   1.657 -0.4105  0.3630  1.3022
  176MOL0     C23109   3.291   2.153   1.723  0.9195  0.4795  0.1981
  176MOL0     C23110   3.157   2.081   1.700  0.6038  0.3574 -0.0005
  176MOL0     C23111   3.049   2.127   1.791 -0.1620  0.2782  0.1140
  176MOL0     C23112   2.915   2.044   1.793 -0.4136  0.5289  0.2226
  176MOL0     C23113   2.810   2.119   1.863 -0.0109 -0.2032  0.3941
  176MOL0     C23114   2.685   2.040   1.905  0.6182 -0.3287 -0.4938
  176MOL0     C23115   2.702   1.932   2.009  0.2016 -0.1163 -0.8728
  176MOL0     C23116   2.581   1.838   2.025 -0.5801 -0.3145  0.1780
  176MOL0     N23117   2.456   1.905   2.040 -0.4067 -0.2906  0.2086
  176MOL0     C23118   2.405   1.964   2.151 -0.0056  0.0178 -0.3539
  176MOL0     C23119   2.271   1.992   2.139 -0.3563  0.9796 -0.5698
  176MOL0     C23120   2.181   2.053   2.246  0.6899 -0.6198 -0.7075
  176MOL0     C23121   2.266   2.141   2.346  0.5748 -0.0999 -0.4220
  176MOL0     C23122   2.170   2.209   2.444 -0.8316  0.3724 -0.1680
  176MOL0     C23123   2.250   2.263   2.559  0.3594 -0.0915 -1.1082
  176MOL0     O23124   2.333   2.370   2.520 -0.4430 -0.5541 -0.1350
  176MOL0     C23125   2.277   2.493   2.488  0.0657  0.4654 -0.2028
  176MOL0     C23126   2.145   2.533   2.519  0.7591 -0.6264  0.5176
  176MOL0     C23127   2.097   2.665   2.508  1.1451 -0.8175  0.2159
  176MOL0     C23128   2.180   2.755   2.443  0.4348  0.1703  0.5350
  176MOL0     C23129   2.147   2.900   2.429  0.8277  0.6861  0.2164
  176MOL0     O23130   2.227   2.967   2.341 -0.5960 -0.1018  0.1128
  176MOL0     C23131   2.201   3.092   2.300 -0.3408  0.0829 -0.3586
  176MOL0     C23132   2.308   3.182   2.297 -0.4590 -0.5251 -0.1213
  176MOL0     C23133   2.296   3.320   2.262  0.6398 -0.0716  0.0163
  176MOL0     C23134   2.166   3.359   2.216 -0.0711 -0.2178 -1.0686
  176MOL0     O23135   2.145   3.489   2.170  0.0560  0.5672 -0.0146
  176MOL0     C23136   2.251   3.592   2.178  0.6860  0.7257 -0.4120
  176MOL0     C23137   2.190   3.729   2.160  0.0274  0.0899  0.0481
  176MOL0     C23138   2.135   3.739   2.015 -0.6101  1.2472  0.0140
  176MOL0     C23139   2.252   3.792   1.934  0.1267 -1.6691 -0.7529
  176MOL0     C23140   2.208   3.816   1.788  0.4657 -0.1196  0.0304
  176MOL0     C23141   2.325   3.851   1.697 -0.9180 -0.4588  0.6490
  176MOL0     C23142   2.289   3.840   1.550 -0.9775 -1.1097 -0.8096
  176MOL0     C23143   2.410   3.877   1.466 -0.6210  0.5308 -0.7205
  176MOL0    Cl23144   2.459   4.051   1.486 -0.0857  0.4974 -0.2539
  176MOL0     C23145   2.056   3.274   2.225  0.5058  0.3464  0.4151
  176MOL0     C23146   2.073   3.142   2.269 -0.5229  0.2900  0.5552
  176MOL0     O23147   2.057   2.952   2.496  0.2056 -0.6177  0.3500
  176MOL0     C23148   2.301   2.711   2.387 -0.0160  0.2751 -0.2102
  176MOL0     C23149   2.351   2.581   2.409  0.2318  0.1384  0.8250
  176MOL0     N23150   2.236   1.942   2.009  0.5703 -0.0443 -1.0193
  176MOL0     N23151   2.345   1.884   1.961 -0.0620 -0.1416  0.4906
  176MOL0     C23152   3.625   2.164   1.742  0.5608  0.5854  0.0977
  176MOL0     C23153   3.744   2.228   1.723 -0.7146  0.1822  0.2372
  176MOL0     C23154   4.094   2.421   1.539 -0.6865 -0.8491 -0.3676
  176MOL0     C23155   4.219   2.366   1.524  0.3425  0.4853 -0.1267
  176MOL0     C23156   4.331   2.449   1.508 -0.2094 -0.2520  0.2254
  176MOL0     C23157   4.328   2.587   1.505  0.4714  0.4529  0.2588
  176MOL0     O23158   4.438   2.672   1.502 -0.2434  0.0016 -0.1761
  176MOL0     C23159   4.572   2.614   1.482 -0.0319  0.3601 -0.2799
  176MOL0     C23160   4.591   2.559   1.335 -0.3160  0.0913 -0.3014
  176MOL0     C23161   4.521   2.649   1.237 -0.0930 -0.0440  1.2945
  176MOL0     C23162   4.550   2.607   1.093 -0.5198  0.1972  0.7152
  176MOL0     C23163   4.578   2.718   0.998  0.8289  0.0755  0.3167
  176MOL0     C23164   4.598   2.815   0.926  0.8112  0.1705 -0.0654
  176MOL0     C23165   4.203   2.638   1.506  0.8011  0.3552  0.0950
  176MOL0     C23166   4.090   2.560   1.533  0.7829  0.8239  0.4551
  176MOL0     H23167   3.667   2.403   1.444  0.8796  1.3194  0.3598
  176MOL0     H23168   3.454   2.249   1.467 -0.6437  0.2184  0.3282
  176MOL0     H23169   3.285   2.255   1.684 -0.2713 -0.0838 -1.1835
  176MOL0     H23170   3.314   2.177   1.828 -0.6621  1.3314  0.3835
  176MOL0     H23171   3.162   1.977   1.734  0.7456  1.0247  2.0933
  176MOL0     H23172   3.127   2.099   1.596  0.1549  4.2130  0.6745
  176MOL0     H23173   3.034   2.233   1.769 -0.6954  0.4436  1.2156
  176MOL0     H23174   3.083   2.125   1.895 -0.9010 -2.5417  0.3881
  176MOL0     H23175   2.878   2.021   1.692  1.4192 -0.1561 -0.3449
  176MOL0     H23176   2.931   1.946   1.839 -3.0174 -0.1950 -0.2373
  176MOL0     H23177   2.779   2.197   1.792  1.3990 -1.8341 -2.1083
  176MOL0     H23178   2.853   2.162   1.954  1.2909  0.6358 -0.5820
  176MOL0     H23179   2.656   1.998   1.808  2.5975 -3.6146  0.1883
  176MOL0     H23180   2.612   2.115   1.938  0.3853  0.3971 -2.5577
  176MOL0     H23181   2.790   1.870   1.992 -0.6699 -0.8637 -3.0352
  176MOL0     H23182   2.714   1.972   2.110 -1.1342  0.1684 -0.8026
  176MOL0     H23183   2.601   1.776   2.113 -0.4346  1.2721  1.3060
  176MOL0     H23184   2.578   1.769   1.940 -0.2961 -0.3994  0.2346
  176MOL0     H23185   2.461   1.978   2.242 -0.2296  0.0873 -0.2248
  176MOL0     H23186   2.132   1.972   2.301 -0.2509  0.1433 -0.3935
  176MOL0     H23187   2.109   2.118   2.197 -2.8873 -2.8264  1.1881
  176MOL0     H23188   2.323   2.223   2.303  0.2194  1.0786  1.2287
  176MOL0     H23189   2.343   2.076   2.389  1.3280 -0.7181 -2.5840
  176MOL0     H23190   2.097   2.279   2.402 -3.4014 -1.3641  1.1421
  176MOL0     H23191   2.103   2.134   2.487  0.7286 -0.1673  1.4326
  176MOL0     H23192   2.307   2.188   2.616 -1.7905  0.6512  2.3343
  176MOL0     H23193   2.174   2.296   2.631 -0.8578 -0.8780 -1.9954
  176MOL0     H23194   2.075   2.459   2.557  3.2588 -2.5695  1.6361
  176MOL0     H23195   1.996   2.697   2.528  1.0792 -0.3570 -0.7961
  176MOL0     H23196   2.402   3.148   2.340  0.6060  0.4139 -1.5974
  176MOL0     H23197   2.384   3.384   2.255  1.0421 -0.5484  0.6096
  176MOL0     H23198   2.325   3.581   2.098 -1.9043 -0.7890 -2.7575
  176MOL0     H23199   2.301   3.591   2.275  3.6509 -2.0180 -1.8230
  176MOL0     H23200   2.268   3.804   2.173  0.2236 -0.2512  0.8541
  176MOL0     H23201   2.114   3.755   2.234 -1.2789 -1.5328 -0.6374
  176MOL0     H23202   2.057   3.815   2.008  0.2347  2.0545 -0.8023
  176MOL0     H23203   2.108   3.641   1.974  1.0438  1.2719 -1.2391
  176MOL0     H23204   2.281   3.892   1.968 -1.4662 -0.2266 -3.2815
  176MOL0     H23205   2.341   3.728   1.931  2.5626  1.3563  1.0173
  176MOL0     H23206   2.141   3.901   1.796  0.0997 -0.5393  4.9615
  176MOL0     H23207   2.161   3.724   1.753 -1.1277  0.8568 -0.4673
  176MOL0     H23208   2.417   3.796   1.715  1.6168  2.6756 -1.5812
  176MOL0     H23209   2.354   3.956   1.711 -2.9071  1.1481 -4.6132
  176MOL0     H23210   2.250   3.740   1.526 -2.5208 -0.7777  0.1326
  176MOL0     H23211   2.209   3.908   1.521 -1.2304 -1.1862 -0.3091
  176MOL0     H23212   2.388   3.876   1.359 -0.4853 -0.3457 -0.7460
  176MOL0     H23213   2.499   3.818   1.487  1.1774  3.3127  0.0531
  176MOL0     H23214   1.954   3.306   2.210  0.5613 -0.1384 -1.0943
  176MOL0     H23215   1.984   3.082   2.276 -0.1619 -0.0610  2.8650
  176MOL0     H23216   2.367   2.775   2.329 -0.1981  0.2407 -0.4521
  176MOL0     H23217   2.450   2.551   2.378 -0.5683 -0.2084 -1.6156
  176MOL0     H23218   3.603   2.091   1.820 -2.4634  0.2867 -0.8839
  176MOL0     H23219   3.829   2.212   1.789  1.5215  0.1272 -2.4995
  176MOL0     H23220   4.238   2.262   1.545  0.7101  0.3392 -1.1312
  176MOL0     H23221   4.428   2.401   1.511  0.3221  0.5793 -1.9905
  176MOL0     H23222   4.590   2.534   1.554 -1.1253  0.0650 -0.3066
  176MOL0     H23223   4.640   2.697   1.502  2.5835 -2.3779  3.7239
  176MOL0     H23224   4.699   2.562   1.323 -0.4556  4.2764 -1.8515
  176MOL0     H23225   4.562   2.454   1.322  0.9556 -0.2493 -0.5134
  176MOL0     H23226   4.562   2.748   1.257  0.9109 -0.6812  2.5444
  176MOL0     H23227   4.414   2.652   1.257  0.2232  0.2607  3.1063
  176MOL0     H23228   4.642   2.548   1.089 -1.9853 -2.1535 -0.7241
  176MOL0     H23229   4.473   2.538   1.057  2.1524 -1.3609 -2.5934
  176MOL0     H23230   4.624   2.900   0.866 -0.2445 -0.4138 -1.4336
  176MOL0     H23231   4.201   2.746   1.498 -0.4502  0.2185 -2.5668
  176MOL0     H23232   4.001   2.619   1.556 -0.3066 -0.6555  0.1677
  177MOL0     O23233   4.725   4.341   8.865 -0.7988 -0.0479 -0.7831
  177MOL0     C23234   4.631   4.372   8.945 -0.1545  0.5183  0.8637
  177MOL0     O23235   4.620   4.481   9.023 -0.4177 -0.2874  0.5070
  177MOL0     C23236   4.718   4.572   9.035  0.2309 -0.1342 -0.0207
  177MOL0     C23237   4.668   4.701   9.041  0.1912 -0.6043 -0.3913
  177MOL0     C23238   4.758   4.812   9.044 -0.2954 -0.4724 -0.5366
  177MOL0     C23239   4.896   4.781   9.044  0.3283 -0.2094  0.6965
  177MOL0     O23240   4.981   4.887   9.014  0.2367 -0.1482 -0.4209
  177MOL0     C23241   5.114   4.868   8.980 -0.5840 -0.4254  0.0170
  177MOL0     C23242   5.192   5.000   8.975  0.9613  0.8025 -0.3131
  177MOL0     C23243   5.219   5.059   8.835  0.1067 -0.5695 -0.3329
  177MOL0     C23244   5.091   5.070   8.761 -0.4945  0.2100  0.3049
  177MOL0     C23245   5.018   5.197   8.809  0.2131 -0.3140 -0.2308
  177MOL0     C23246   4.882   5.223   8.745  0.2389  1.3818 -0.2180
  177MOL0     C23247   4.761   5.146   8.809 -0.2671  0.0486  0.7056
  177MOL0     C23248   4.624   5.206   8.759  0.1917  0.2564 -0.2172
  177MOL0     N23249   4.518   5.115   8.795 -0.1779 -0.7683 -0.0688
  177MOL0     C23250   4.476   5.096   8.924  0.6143 -0.2338 -0.6549
  177MOL0     C23251   4.346   5.057   8.896  0.2148 -0.5282 -0.6090
  177MOL0     C23252   4.252   5.010   9.000  0.0495 -0.6711 -0.2886
  177MOL0     C23253   4.108   4.965   8.944 -0.0863  0.6891 -0.1718
  177MOL0     C23254   4.012   4.961   9.059 -0.0427 -0.2419  0.7119
  177MOL0     C23255   3.878   4.909   9.012 -0.3075  0.6182  0.0700
  177MOL0     O23256   3.777   4.947   9.106  0.6414  1.1093 -0.3136
  177MOL0     C23257   3.652   4.901   9.074 -0.6738  0.3402  0.1857
  177MOL0     C23258   3.611   4.813   8.970 -0.2867 -0.4154  0.2115
  177MOL0     C23259   3.479   4.759   8.969 -0.5171 -0.3685  0.0976
  177MOL0     C23260   3.389   4.802   9.070 -0.5315  0.2599 -0.1783
  177MOL0     C23261   3.263   4.736   9.081 -1.0443  0.3584  0.6632
  177MOL0     O23262   3.181   4.769   9.175  0.0660 -0.8005 -0.1913
  177MOL0     C23263   3.051   4.730   9.186 -0.3300  0.1449  0.4312
  177MOL0     C23264   2.965   4.816   9.256  0.5868  1.2618  0.7984
  177MOL0     C23265   2.831   4.787   9.281 -0.0791 -0.2318  0.1170
  177MOL0     C23266   2.772   4.665   9.245 -0.4346  0.3965  0.1258
  177MOL0     O23267   2.640   4.622   9.265 -0.2936 -0.9269 -0.4310
  177MOL0     C23268   2.546   4.713   9.323  0.0535  0.2780  0.0409
  177MOL0     C23269   2.436   4.622   9.380  0.4663  1.1843 -0.0953
  177MOL0     C23270   2.311   4.627   9.291  0.2211 -0.1189 -0.8425
  177MOL0     C23271   2.188   4.540   9.333 -0.2875 -0.6425  0.6062
  177MOL0     C23272   2.085   4.537   9.210  0.4423 -0.5366 -0.0916
  177MOL0     C23273   2.035   4.672   9.149 -0.8209 -0.1357  0.0359
  177MOL0     C23274   1.974   4.773   9.251  0.2918  0.3043 -0.7190
  177MOL0     C23275   1.835   4.713   9.292  0.1163 -0.7010 -0.8721
  177MOL0    Cl23276   1.719   4.716   9.162 -0.0418 -0.1274  0.4281
  177MOL0     C23277   2.857   4.572   9.191  0.4834 -0.0220  0.5071
  177MOL0     C23278   2.993   4.601   9.159 -0.0149  0.5006  0.6115
  177MOL0     O23279   3.236   4.648   8.999  0.6045  0.3684 -0.2911
  177MOL0     C23280   3.426   4.905   9.154 -0.4348 -0.1950 -0.4451
  177MOL0     C23281   3.556   4.951   9.159 -0.6631 -0.4595  0.0186
  177MOL0     N23282   4.321   5.051   8.759 -1.0247  0.5900 -0.1549
  177MOL0     N23283   4.426   5.081   8.696  0.1067 -0.5910 -1.0335
  177MOL0     C23284   4.944   4.649   9.055  0.0223 -0.5490  0.3881
  177MOL0     C23285   4.853   4.539   9.046  0.4826 -0.0024 -0.0514
  177MOL0     C23286   4.514   4.278   8.947 -0.9668 -0.8532 -0.0588
  177MOL0     C23287   4.500   4.175   8.852  0.3932  0.0360  0.1564
  177MOL0     C23288   4.380   4.113   8.833  0.3721 -0.5173 -0.4152
  177MOL0     C23289   4.268   4.151   8.901 -0.7573 -1.4378  1.1158
  177MOL0     O23290   4.152   4.082   8.860  0.3058  0.6078  0.3235
  177MOL0     C23291   4.032   4.115   8.939 -0.1092 -0.7991 -0.1708
  177MOL0     C23292   4.039   4.043   9.081  0.2006  0.0396  0.0382
  177MOL0     C23293   3.897   4.021   9.136  0.1335  0.2605  0.0565
  177MOL0     C23294   3.896   4.005   9.281 -0.4179  0.0356  0.4097
  177MOL0     C23295   3.918   4.130   9.358  0.1965 -0.8703  0.2314
  177MOL0     C23296   3.935   4.237   9.418 -0.0343  0.2518  0.3673
  177MOL0     C23297   4.282   4.253   9.005  0.2845  0.7060 -0.0498
  177MOL0     C23298   4.405   4.311   9.036  0.6683 -0.1185  0.2710
  177MOL0     H23299   4.560   4.709   9.049  0.2125 -0.8870  0.2071
  177MOL0     H23300   4.730   4.917   9.041  1.1372 -0.0469 -0.1303
  177MOL0     H23301   5.127   4.814   8.886  0.0297  0.0019 -0.1539
  177MOL0     H23302   5.154   4.806   9.061  0.3959 -0.4071 -0.4320
  177MOL0     H23303   5.290   4.966   9.012  2.8855  3.9956 -1.9802
  177MOL0     H23304   5.154   5.070   9.051  1.9822  2.0494 -0.9049
  177MOL0     H23305   5.287   4.991   8.782  0.4182 -1.7284  1.4833
  177MOL0     H23306   5.278   5.150   8.848  0.8778 -1.0243 -0.5821
  177MOL0     H23307   5.122   5.076   8.656  1.5720 -2.0097  0.6845
  177MOL0     H23308   5.036   4.976   8.768  1.0166 -1.1833 -3.6933
  177MOL0     H23309   5.091   5.276   8.785 -0.4245 -0.1264 -1.6810
  177MOL0     H23310   5.002   5.196   8.917 -0.0644  2.2725 -0.1831
  177MOL0     H23311   4.879   5.206   8.637 -1.3814  2.2799 -0.3343
  177MOL0     H23312   4.865   5.328   8.771 -1.1475  1.3881 -1.0622
  177MOL0     H23313   4.768   5.046   8.767 -1.9094  0.6233 -1.0753
  177MOL0     H23314   4.785   5.158   8.915  4.0113  1.2901 -0.1900
  177MOL0     H23315   4.628   5.215   8.650  0.4165 -0.6203 -0.2861
  177MOL0     H23316   4.602   5.307   8.795 -0.6799 -0.1584  0.4371
  177MOL0     H23317   4.532   5.100   9.017  0.2646 -1.7204 -0.3472
  177MOL0     H23318   4.250   5.097   9.066 -2.0557 -0.9015  0.0385
  177MOL0     H23319   4.303   4.933   9.058  0.0453 -2.9882 -3.1277
  177MOL0     H23320   4.123   4.866   8.901  1.6764  0.9688 -0.2997
  177MOL0     H23321   4.064   5.030   8.868  1.8383  1.5671 -0.6162
  177MOL0     H23322   4.039   4.896   9.143  0.2563  1.0018  1.6089
  177MOL0     H23323   4.002   5.060   9.104  0.4919  0.0070  0.2951
  177MOL0     H23324   3.889   4.800   9.007  0.3651  0.6659  0.4049
  177MOL0     H23325   3.861   4.950   8.912 -5.3209 -1.6586 -0.3486
  177MOL0     H23326   3.682   4.765   8.904 -1.6797 -0.6705 -1.1531
  177MOL0     H23327   3.454   4.676   8.903  1.8664 -0.4991 -0.7149
  177MOL0     H23328   3.007   4.912   9.285  0.4047  2.3617 -2.2525
  177MOL0     H23329   2.767   4.861   9.327  0.0789 -0.5064  0.7977
  177MOL0     H23330   2.498   4.773   9.246  0.7157  0.4793 -0.2141
  177MOL0     H23331   2.596   4.773   9.400  1.9006 -0.4509 -0.5552
  177MOL0     H23332   2.399   4.653   9.478 -0.2348 -1.2892  0.4757
  177MOL0     H23333   2.474   4.520   9.380 -0.4192  0.8430  0.3029
  177MOL0     H23334   2.344   4.597   9.191 -0.0482  1.4443 -1.4182
  177MOL0     H23335   2.277   4.730   9.283 -0.5309 -0.4291 -1.7667
  177MOL0     H23336   2.216   4.440   9.367  2.8522  0.1536  0.6566
  177MOL0     H23337   2.133   4.584   9.417  0.0547  1.4443 -0.1838
  177MOL0     H23338   2.002   4.474   9.244 -1.0809  0.1328 -2.4072
  177MOL0     H23339   2.126   4.476   9.129  1.3179  0.0320 -0.0904
  177MOL0     H23340   1.960   4.657   9.070 -0.9063 -0.5583  0.1937
  177MOL0     H23341   2.124   4.720   9.108  0.7561 -0.3599  2.9674
  177MOL0     H23342   2.055   4.791   9.322  0.2539  0.5078 -0.7268
  177MOL0     H23343   1.960   4.866   9.195  1.4075  0.7036 -0.3617
  177MOL0     H23344   1.793   4.779   9.368  1.8723  1.1584 -1.4171
  177MOL0     H23345   1.845   4.612   9.334  5.8734 -0.1300  0.0457
  177MOL0     H23346   2.814   4.477   9.162  0.7493 -0.1198  0.4340
  177MOL0     H23347   3.047   4.523   9.107  1.1862 -1.0364  3.9239
  177MOL0     H23348   3.353   4.950   9.220  1.3774  1.3674  0.6072
  177MOL0     H23349   3.578   5.031   9.229 -0.5688  0.8148 -1.4174
  177MOL0     H23350   5.051   4.629   9.058  1.5202  5.6742  2.1799
  177MOL0     H23351   4.889   4.436   9.049 -0.2566 -0.2427  0.7873
  177MOL0     H23352   4.587   4.142   8.797 -0.9236 -1.0244 -1.3895
  177MOL0     H23353   4.381   4.030   8.763  0.0387  0.5966 -1.7927
  177MOL0     H23354   3.948   4.072   8.884  0.0219  0.3170 -1.2987
  177MOL0     H23355   4.021   4.224   8.941  3.9006 -0.2606 -0.1492
  177MOL0     H23356   4.088   3.946   9.069  1.5017  0.4878  1.5297
  177MOL0     H23357   4.101   4.109   9.142  3.0993 -0.8577 -1.7152
  177MOL0     H23358   3.858   3.930   9.089  0.5801 -0.4745  1.0778
  177MOL0     H23359   3.835   4.109   9.116 -0.0759 -0.3245 -2.0798
  177MOL0     H23360   3.800   3.964   9.314  0.0551 -0.8198  0.7717
  177MOL0     H23361   3.981   3.940   9.306  2.0180  1.9780 -2.2001
  177MOL0     H23362   3.975   4.314   9.481  1.5727 -0.7213  0.5891
  177MOL0     H23363   4.202   4.284   9.072  1.2641 -0.6455  1.8365
  177MOL0     H23364   4.425   4.367   9.127 -2.3226  0.2674  0.7824
  178MOL0     O23365   8.774   5.033   7.396 -0.4288  0.2236 -0.0833
  178MOL0     C23366   8.813   4.916   7.407  0.7148  0.2682 -0.5789
  178MOL0     O23367   8.753   4.829   7.495 -0.2666  0.4000 -0.1369
  178MOL0     C23368   8.656   4.880   7.587 -0.4346  0.6622  0.4387
  178MOL0     C23369   8.532   4.810   7.598  0.1106 -0.3967  0.4979
  178MOL0     C23370   8.438   4.850   7.692  0.2484  0.6015 -0.3356
  178MOL0     C23371   8.465   4.957   7.776  0.1807 -0.2363  0.5817
  178MOL0     O23372   8.387   4.991   7.887 -0.3887 -0.3821  0.3712
  178MOL0     C23373   8.246   5.010   7.865  0.0693  0.3007 -0.5855
  178MOL0     C23374   8.213   5.148   7.935 -0.1074 -0.0527  0.2005
  178MOL0     C23375   8.067   5.205   7.913 -0.6403 -0.5080  0.2397
  178MOL0     C23376   8.044   5.350   7.966  0.1535  0.5900  0.3673
  178MOL0     C23377   7.885   5.363   7.977  0.0918 -0.0562  0.0875
  178MOL0     C23378   7.849   5.502   8.025 -0.1437 -0.6727 -0.2863
  178MOL0     C23379   7.836   5.522   8.174 -0.2266  0.7729 -0.2761
  178MOL0     C23380   7.776   5.655   8.206  0.5645 -0.4194 -0.1428
  178MOL0     N23381   7.634   5.674   8.163  0.1145  0.2608  1.3063
  178MOL0     C23382   7.547   5.573   8.135 -0.6909  0.2961  0.3163
  178MOL0     C23383   7.432   5.638   8.113 -0.0299  0.0875  0.0149
  178MOL0     C23384   7.310   5.569   8.074  0.1729  0.0297  0.7999
  178MOL0     C23385   7.185   5.638   8.118 -1.0724  0.0291  0.7088
  178MOL0     C23386   7.060   5.596   8.051  0.1413 -0.6345 -0.1596
  178MOL0     C23387   6.937   5.683   8.089  0.1267  0.6836 -0.4206
  178MOL0     O23388   6.824   5.626   8.022 -0.7166 -0.5967 -0.1187
  178MOL0     C23389   6.699   5.658   8.057 -0.2284  0.6151  0.2138
  178MOL0     C23390   6.605   5.572   7.999 -0.0970 -1.2665  0.1771
  178MOL0     C23391   6.468   5.593   8.018 -0.1712 -0.3419 -0.3230
  178MOL0     C23392   6.424   5.701   8.099 -0.3149 -0.0124 -0.0633
  178MOL0     C23393   6.280   5.723   8.122  0.0860 -0.0542  0.4381
  178MOL0     O23394   6.200   5.628   8.070 -0.3356 -0.4613 -0.3889
  178MOL0     C23395   6.071   5.625   8.092  0.0313 -0.7086 -0.3668
  178MOL0     C23396   6.001   5.507   8.129 -0.4205 -0.1320  0.6769
  178MOL0     C23397   5.866   5.498   8.137 -0.4442 -0.7435 -0.1527
  178MOL0     C23398   5.791   5.613   8.111  0.5593  0.0902 -0.4487
  178MOL0     O23399   5.656   5.592   8.118 -0.9247 -0.0532 -0.0783
  178MOL0     C23400   5.582   5.711   8.080  0.8742  0.2378  0.1839
  178MOL0     C23401   5.441   5.680   8.123  0.2915 -0.0967  0.0203
  178MOL0     C23402   5.340   5.789   8.098  0.6423 -0.5822  0.3581
  178MOL0     C23403   5.207   5.794   8.184  0.0006 -0.5248 -0.3070
  178MOL0     C23404   5.116   5.681   8.142  0.4337 -0.2662  0.9125
  178MOL0     C23405   4.983   5.677   8.217 -0.3864 -0.6878  0.6644
  178MOL0     C23406   4.889   5.572   8.162 -0.0606  0.8480 -0.3566
  178MOL0     C23407   4.939   5.428   8.177  0.5593 -0.3349 -0.3478
  178MOL0    Cl23408   4.972   5.387   8.344  0.2941  0.1505  0.1999
  178MOL0     C23409   5.853   5.733   8.073  0.3919 -0.4816  0.4048
  178MOL0     C23410   5.988   5.738   8.064 -0.4751 -0.1177  0.4121
  178MOL0     O23411   6.242   5.818   8.195 -0.2851  0.5262 -0.0587
  178MOL0     C23412   6.515   5.777   8.176  0.4526  0.5652  0.1601
  178MOL0     C23413   6.653   5.757   8.151  0.3928  0.2383  0.4340
  178MOL0     N23414   7.446   5.776   8.140  0.0344 -0.3051  0.3017
  178MOL0     N23415   7.563   5.788   8.170  0.5843 -0.4601 -0.0614
  178MOL0     C23416   8.579   5.032   7.763 -0.6899  0.1880 -0.1791
  178MOL0     C23417   8.683   4.986   7.676 -0.0637  0.1843  1.0932
  178MOL0     C23418   8.921   4.874   7.322 -0.1471 -0.4991  0.0715
  178MOL0     C23419   8.967   4.951   7.215 -0.3313 -0.2930 -0.2441
  178MOL0     C23420   9.069   4.901   7.134  0.8762 -0.4824  0.3013
  178MOL0     C23421   9.114   4.770   7.147 -0.5102  0.5150 -0.2356
  178MOL0     O23422   9.215   4.725   7.065 -0.2303 -0.1890  0.7804
  178MOL0     C23423   9.208   4.593   7.003  0.0965 -0.1348  0.0175
  178MOL0     C23424   9.274   4.578   6.861  0.0285  0.1659 -0.3771
  178MOL0     C23425   9.431   4.586   6.895  0.2678 -0.3815  0.3515
  178MOL0     C23426   9.529   4.528   6.793 -0.5068 -0.1184 -1.2439
  178MOL0     C23427   9.495   4.557   6.653  0.3242  0.3659 -0.6697
  178MOL0     C23428   9.455   4.570   6.542 -0.2516 -0.0225 -0.7228
  178MOL0     C23429   9.063   4.685   7.242 -0.8976 -0.0489 -1.0220
  178MOL0     C23430   8.972   4.741   7.338 -0.7828 -0.0009  0.3217
  178MOL0     H23431   8.530   4.722   7.534 -0.5228 -1.6725  2.1814
  178MOL0     H23432   8.341   4.801   7.702 -0.2195  1.5663 -0.0309
  178MOL0     H23433   8.194   4.928   7.916  1.4432 -2.1913 -2.9609
  178MOL0     H23434   8.214   4.998   7.761 -0.9506 -2.7563 -0.0150
  178MOL0     H23435   8.288   5.217   7.895  0.6037  1.0056  3.1347
  178MOL0     H23436   8.232   5.136   8.042 -2.4801 -1.1367  0.5518
  178MOL0     H23437   8.004   5.128   7.957  0.0244 -0.0074  2.1660
  178MOL0     H23438   8.040   5.212   7.807 -0.1655 -1.0309  0.0757
  178MOL0     H23439   8.091   5.374   8.061 -0.5958  0.0604  0.8867
  178MOL0     H23440   8.088   5.423   7.897  0.4865  0.6220  0.6141
  178MOL0     H23441   7.838   5.283   8.035 -0.2726  0.9650  1.2297
  178MOL0     H23442   7.843   5.347   7.877 -3.5813 -1.0162  1.6410
  178MOL0     H23443   7.759   5.538   7.976 -0.2661  1.7388  1.5477
  178MOL0     H23444   7.920   5.572   7.981 -0.1355  0.8363  1.9478
  178MOL0     H23445   7.789   5.442   8.232 -1.0206  2.3649  1.4029
  178MOL0     H23446   7.934   5.514   8.224  0.1759 -1.0149 -1.2708
  178MOL0     H23447   7.835   5.737   8.164 -1.4832  0.3976 -1.5692
  178MOL0     H23448   7.763   5.660   8.315 -2.7521  1.4916 -0.4908
  178MOL0     H23449   7.564   5.467   8.117 -1.1611  0.3703 -0.6211
  178MOL0     H23450   7.308   5.468   8.114 -1.9962 -0.6236 -0.7640
  178MOL0     H23451   7.305   5.561   7.965 -2.5725 -3.0874  0.9892
  178MOL0     H23452   7.193   5.745   8.096  1.5436  0.0735  1.5001
  178MOL0     H23453   7.187   5.641   8.228 -1.2687 -3.1113  0.8717
  178MOL0     H23454   7.070   5.583   7.943  0.4724  1.3100 -0.3890
  178MOL0     H23455   7.042   5.495   8.089  0.4433 -1.3987 -1.9726
  178MOL0     H23456   6.963   5.785   8.057  3.7976 -0.3655 -1.2142
  178MOL0     H23457   6.929   5.684   8.198  0.6358  0.3395 -0.3764
  178MOL0     H23458   6.640   5.493   7.934  1.2791 -1.1898  0.7761
  178MOL0     H23459   6.398   5.537   7.956  2.3668 -2.9978 -1.0272
  178MOL0     H23460   6.057   5.415   8.146  1.8809  1.0753  0.0092
  178MOL0     H23461   5.806   5.408   8.148 -0.2284 -1.0203 -1.1733
  178MOL0     H23462   5.592   5.732   7.973 -0.8218 -0.0368 -0.0557
  178MOL0     H23463   5.617   5.794   8.142  2.0067 -1.9046  2.5952
  178MOL0     H23464   5.447   5.657   8.230 -0.7235  0.7342  0.2765
  178MOL0     H23465   5.418   5.583   8.079 -2.0981 -0.2922  1.4859
  178MOL0     H23466   5.323   5.785   7.990  2.9508  0.2482 -0.0904
  178MOL0     H23467   5.385   5.887   8.121 -1.6474  0.5044  0.4464
  178MOL0     H23468   5.236   5.797   8.290 -1.8409 -1.1477  0.2408
  178MOL0     H23469   5.166   5.892   8.159  2.3668  0.3605 -1.0308
  178MOL0     H23470   5.163   5.588   8.175 -1.3973 -0.5675  2.8728
  178MOL0     H23471   5.099   5.681   8.034 -1.8730  2.1510  1.1871
  178MOL0     H23472   4.927   5.765   8.183 -0.2164 -1.6531 -2.5115
  178MOL0     H23473   5.000   5.672   8.325 -0.6362  3.1880  1.0304
  178MOL0     H23474   4.796   5.565   8.220 -0.9243 -0.5972 -1.8288
  178MOL0     H23475   4.863   5.601   8.060 -1.4074  2.9725  0.5117
  178MOL0     H23476   5.028   5.411   8.115  0.5517  0.1032 -0.4832
  178MOL0     H23477   4.855   5.366   8.144  0.0216 -0.4982  1.2724
  178MOL0     H23478   5.804   5.824   8.040 -0.1871 -0.4748  1.2602
  178MOL0     H23479   6.038   5.828   8.028  3.4382 -2.5555 -0.9725
  178MOL0     H23480   6.490   5.857   8.244  0.9441  2.1235 -1.4223
  178MOL0     H23481   6.719   5.822   8.207 -1.0160  2.7565 -0.6569
  178MOL0     H23482   8.585   5.125   7.819 -2.0791 -1.8996  3.8140
  178MOL0     H23483   8.772   5.048   7.672 -0.6171  0.9331 -0.9550
  178MOL0     H23484   8.927   5.051   7.202 -2.1354 -0.7814  1.1445
  178MOL0     H23485   9.119   4.969   7.066 -0.2878  0.5498  0.4317
  178MOL0     H23486   9.104   4.564   6.990  0.3223 -1.3957  0.8478
  178MOL0     H23487   9.254   4.524   7.075  0.9998  0.1159 -0.2972
  178MOL0     H23488   9.249   4.476   6.828  0.9417 -1.3857  3.1683
  178MOL0     H23489   9.235   4.645   6.785 -0.7346 -0.2275 -0.3485
  178MOL0     H23490   9.459   4.551   6.995  4.2019  1.1997 -0.0135
  178MOL0     H23491   9.464   4.690   6.895 -2.2649  0.5434 -2.2650
  178MOL0     H23492   9.628   4.569   6.818  0.0638 -3.6765  4.0262
  178MOL0     H23493   9.553   4.421   6.798  0.2015 -0.0445 -2.5937
  178MOL0     H23494   9.417   4.573   6.442 -0.3452  0.8155 -0.6717
  178MOL0     H23495   9.097   4.585   7.268 -0.7586  0.4626  0.9529
  178MOL0     H23496   8.935   4.672   7.413 -1.9751 -1.9671 -1.9171
  179MOL0     O23497   7.934   7.367   1.925 -0.2211 -0.3176 -0.1164
  179MOL0     C23498   7.946   7.490   1.920  0.2981  0.2487 -0.2709
  179MOL0     O23499   7.836   7.584   1.920 -0.1907 -0.2873 -0.1543
  179MOL0     C23500   7.711   7.540   1.950 -0.7616 -1.5366 -0.3768
  179MOL0     C23501   7.654   7.413   1.941 -0.2997 -0.0017 -0.6104
  179MOL0     C23502   7.512   7.390   1.957  0.2300  0.0104  0.8597
  179MOL0     C23503   7.429   7.500   1.975  0.3203  0.0596  0.7523
  179MOL0     O23504   7.305   7.471   2.017  0.7569 -0.7824 -0.3277
  179MOL0     C23505   7.201   7.557   1.963 -0.5072  0.0849  0.0622
  179MOL0     C23506   7.059   7.483   1.983 -0.7390  0.4115 -0.2719
  179MOL0     C23507   6.941   7.579   1.965 -0.0687  1.1659 -0.0962
  179MOL0     C23508   6.814   7.497   1.947  0.1896 -0.0697 -0.1275
  179MOL0     C23509   6.696   7.592   1.900  0.8875 -0.5061 -0.1957
  179MOL0     C23510   6.571   7.522   1.915  0.3303  1.1186  0.3243
  179MOL0     C23511   6.459   7.615   1.965  0.6344 -0.6488 -0.3786
  179MOL0     C23512   6.313   7.580   1.944  0.2314 -0.0146  0.2831
  179MOL0     N23513   6.268   7.585   1.805  0.1741 -0.3138 -0.0181
  179MOL0     C23514   6.182   7.683   1.777  0.8240  0.2415 -0.5798
  179MOL0     C23515   6.133   7.637   1.660  0.0177  0.4372 -0.4668
  179MOL0     C23516   6.043   7.711   1.571  0.0499  0.2058  0.3670
  179MOL0     C23517   5.895   7.681   1.596 -0.7465  0.2871 -0.5914
  179MOL0     C23518   5.842   7.786   1.702 -0.3343  0.5644 -0.1485
  179MOL0     C23519   5.690   7.807   1.696 -0.1576  0.4336  0.6491
  179MOL0     O23520   5.621   7.677   1.674 -0.0826 -0.2921 -0.0409
  179MOL0     C23521   5.480   7.671   1.664 -0.2216  0.0355  0.2946
  179MOL0     C23522   5.398   7.787   1.672 -0.9084 -0.3117 -0.2567
  179MOL0     C23523   5.260   7.773   1.686 -1.0928 -0.2405  0.1072
  179MOL0     C23524   5.204   7.649   1.684  0.4342  0.0199 -0.4028
  179MOL0     C23525   5.065   7.640   1.700 -0.5426  0.1395  0.3520
  179MOL0     O23526   5.003   7.751   1.749 -0.4218  0.5687  0.0245
  179MOL0     C23527   4.877   7.769   1.726  1.0153 -0.1969  0.1854
  179MOL0     C23528   4.772   7.691   1.782  0.4531 -0.7091  0.3490
  179MOL0     C23529   4.636   7.732   1.774 -0.4963 -0.3412  0.5343
  179MOL0     C23530   4.602   7.849   1.701  0.9452  0.2155 -0.4266
  179MOL0     O23531   4.477   7.905   1.678  0.1317 -0.4295  0.7975
  179MOL0     C23532   4.350   7.861   1.730  0.2245  0.1079  0.3680
  179MOL0     C23533   4.244   7.960   1.685  0.3538 -0.7111  0.3496
  179MOL0     C23534   4.109   7.928   1.749 -0.5903 -0.2543  0.1919
  179MOL0     C23535   4.000   8.040   1.745 -0.0193 -0.4126  0.5506
  179MOL0     C23536   3.862   7.995   1.785  0.4088  0.2959 -0.2421
  179MOL0     C23537   3.836   7.978   1.928  1.3125 -0.2906 -0.2946
  179MOL0     C23538   3.701   7.907   1.952  0.0134 -0.5030 -0.0906
  179MOL0     C23539   3.673   7.907   2.097  0.5121  0.1103  0.0509
  179MOL0    Cl23540   3.509   7.851   2.138 -0.0231  0.0686 -0.5897
  179MOL0     C23541   4.709   7.915   1.642 -0.3963  0.0152 -0.2668
  179MOL0     C23542   4.840   7.881   1.657  0.7225  0.5975 -0.6089
  179MOL0     O23543   5.008   7.538   1.658 -0.5001 -0.3655 -0.0668
  179MOL0     C23544   5.286   7.532   1.666 -0.1086 -0.1046 -0.3417
  179MOL0     C23545   5.421   7.544   1.659 -0.1061  0.0734 -0.2980
  179MOL0     N23546   6.184   7.507   1.636  0.5277  0.3336  0.6258
  179MOL0     N23547   6.270   7.484   1.722 -0.5050  0.5100  0.1078
  179MOL0     C23548   7.490   7.625   2.005 -0.0340 -0.0818  1.1214
  179MOL0     C23549   7.627   7.645   1.986  0.2823 -0.2458 -0.4789
  179MOL0     C23550   8.084   7.548   1.948  0.4510  0.0564  0.0363
  179MOL0     C23551   8.189   7.480   2.009 -0.2493 -0.0560 -0.0895
  179MOL0     C23552   8.297   7.546   2.054 -0.3677 -0.1190 -0.8127
  179MOL0     C23553   8.312   7.687   2.031  0.4083  0.2165  0.5373
  179MOL0     O23554   8.424   7.738   2.087 -1.0007  0.1345  0.0043
  179MOL0     C23555   8.474   7.872   2.050 -0.7567  0.4189  0.3893
  179MOL0     C23556   8.562   7.852   1.925 -0.3588  0.4254  0.2956
  179MOL0     C23557   8.627   7.979   1.880 -0.2685 -0.0022  0.2203
  179MOL0     C23558   8.740   8.016   1.977  0.7067  0.5578 -0.1773
  179MOL0     C23559   8.822   8.121   1.919  0.1093  0.6105  0.2888
  179MOL0     C23560   8.906   8.186   1.858  0.5088 -0.0535  0.2956
  179MOL0     C23561   8.206   7.756   1.962  0.4581  0.6783 -0.1984
  179MOL0     C23562   8.096   7.684   1.925  0.3604 -0.1273  0.9127
  179MOL0     H23563   7.704   7.322   1.908 -0.1271 -0.5465  1.0525
  179MOL0     H23564   7.478   7.287   1.959 -1.0244  0.4028  0.8168
  179MOL0     H23565   7.217   7.589   1.860 -0.2698  1.6687  0.5557
  179MOL0     H23566   7.195   7.653   2.017 -0.9673 -0.5258  1.1231
  179MOL0     H23567   7.050   7.425   2.075 -1.9943  2.0169  0.6757
  179MOL0     H23568   7.046   7.409   1.904  1.9392 -0.0834 -0.3322
  179MOL0     H23569   6.964   7.644   1.880  0.7435 -1.3081 -1.9020
  179MOL0     H23570   6.924   7.639   2.054 -2.9362 -0.5166  0.5825
  179MOL0     H23571   6.833   7.415   1.878 -2.3867 -1.4257  0.6294
  179MOL0     H23572   6.789   7.456   2.045 -0.0746  0.8793  0.2178
  179MOL0     H23573   6.704   7.630   1.798 -1.1126 -0.9738 -0.5583
  179MOL0     H23574   6.696   7.680   1.965  3.7497 -0.0691 -0.6437
  179MOL0     H23575   6.589   7.442   1.987 -1.8205 -0.1493 -0.4492
  179MOL0     H23576   6.527   7.472   1.828 -1.5215  2.9330  0.1319
  179MOL0     H23577   6.479   7.625   2.072  1.6900 -0.6865 -0.5592
  179MOL0     H23578   6.474   7.715   1.923  0.9109 -0.8621 -0.7916
  179MOL0     H23579   6.251   7.650   2.002 -0.1800  0.5990 -0.8617
  179MOL0     H23580   6.295   7.476   1.971 -0.3272  0.6040  2.5014
  179MOL0     H23581   6.147   7.771   1.830  0.3589 -0.7081  0.7181
  179MOL0     H23582   6.062   7.675   1.469  0.7520 -0.0024  0.5622
  179MOL0     H23583   6.070   7.817   1.576 -0.3391  0.3376 -0.2256
  179MOL0     H23584   5.894   7.578   1.632  1.8365  0.5356  0.3960
  179MOL0     H23585   5.833   7.679   1.506  2.1426  2.1613 -2.8237
  179MOL0     H23586   5.863   7.766   1.807  2.5008 -0.4903 -0.8277
  179MOL0     H23587   5.889   7.885   1.695  2.0064 -0.4768  0.2176
  179MOL0     H23588   5.672   7.863   1.604  1.8400  1.0956  0.6267
  179MOL0     H23589   5.644   7.849   1.785 -1.5998 -0.8427  0.5542
  179MOL0     H23590   5.450   7.881   1.660  1.7125 -1.9265 -2.6322
  179MOL0     H23591   5.206   7.863   1.715 -0.0883  0.2575  0.4941
  179MOL0     H23592   4.795   7.615   1.856  0.4707  1.5371  2.7699
  179MOL0     H23593   4.557   7.676   1.822 -0.5309  0.2785  1.2189
  179MOL0     H23594   4.364   7.861   1.838 -0.3955  0.6243  0.4531
  179MOL0     H23595   4.323   7.765   1.683 -1.9572  1.1495 -0.6443
  179MOL0     H23596   4.226   7.956   1.577 -3.7782 -0.3898  0.8653
  179MOL0     H23597   4.277   8.062   1.706  1.5537 -1.0532  0.2037
  179MOL0     H23598   4.123   7.899   1.854 -1.9554 -2.4557 -0.1552
  179MOL0     H23599   4.070   7.839   1.698  0.3566  1.2210 -3.4035
  179MOL0     H23600   4.049   8.118   1.804 -0.1684  0.2918 -0.2430
  179MOL0     H23601   3.996   8.069   1.640  0.1855 -1.4535  0.2477
  179MOL0     H23602   3.854   7.893   1.745  0.6774  0.1620  0.0370
  179MOL0     H23603   3.771   8.045   1.751 -1.6203 -2.8144  0.1822
  179MOL0     H23604   3.839   8.079   1.970  0.9062  0.4542 -1.9834
  179MOL0     H23605   3.918   7.920   1.973  2.2434 -0.8913 -2.6057
  179MOL0     H23606   3.626   7.960   1.894  0.6933 -0.8425 -1.3137
  179MOL0     H23607   3.716   7.806   1.911 -0.5260 -0.7886  0.3989
  179MOL0     H23608   3.686   8.010   2.132 -3.6850  0.3831  1.2965
  179MOL0     H23609   3.745   7.840   2.146 -0.8188 -0.1754  1.6867
  179MOL0     H23610   4.690   8.003   1.581 -1.4911 -0.7356 -1.0551
  179MOL0     H23611   4.921   7.944   1.622  0.4371 -0.1611 -2.7658
  179MOL0     H23612   5.248   7.430   1.671  1.4372 -0.7233 -0.4350
  179MOL0     H23613   5.491   7.461   1.665  0.7340  0.7299 -0.7200
  179MOL0     H23614   7.435   7.714   2.033  1.7911  1.7167 -0.5717
  179MOL0     H23615   7.667   7.746   2.000 -0.4165 -0.1035  0.5885
  179MOL0     H23616   8.188   7.373   2.027 -0.4060 -0.0782 -0.2261
  179MOL0     H23617   8.370   7.487   2.108 -2.5625 -3.3445 -1.0755
  179MOL0     H23618   8.530   7.911   2.135  1.4031  0.0082 -0.7856
  179MOL0     H23619   8.396   7.948   2.040 -1.4564  0.1612  3.0001
  179MOL0     H23620   8.636   7.773   1.940 -0.2654 -0.0231 -2.1447
  179MOL0     H23621   8.502   7.812   1.843  0.8883 -0.4582 -0.2165
  179MOL0     H23622   8.541   8.047   1.873 -0.1370  0.2139  0.6760
  179MOL0     H23623   8.664   7.972   1.778 -2.7833  0.5166 -0.8123
  179MOL0     H23624   8.704   8.037   2.078 -1.3382 -3.6286  0.1513
  179MOL0     H23625   8.799   7.926   1.997 -1.9961 -1.2525  0.2110
  179MOL0     H23626   8.974   8.250   1.805 -0.2891  0.0166 -0.6790
  179MOL0     H23627   8.222   7.863   1.953  2.9057  0.4769  0.9031
  179MOL0     H23628   8.012   7.738   1.882  1.4275 -0.0984 -1.2247
  180MOL0     O23629   8.163   0.946   4.199 -0.1969  0.6030  0.2973
  180MOL0     C23630   8.150   0.914   4.082  0.3363 -0.1157 -0.4855
  180MOL0     O23631   8.247   0.888   3.985  1.0213 -0.1455  0.2872
  180MOL0     C23632   8.378   0.912   3.999  0.0942 -0.5201 -0.3225
  180MOL0     C23633   8.424   1.030   4.063  0.3485  0.2587  0.3623
  180MOL0     C23634   8.564   1.058   4.051 -0.1942  1.3759  0.3291
  180MOL0     C23635   8.652   0.971   3.987  0.7669 -0.2751  0.1874
  180MOL0     O23636   8.781   1.006   4.002  0.3316  0.9760  0.2355
  180MOL0     C23637   8.872   0.914   3.944 -0.4440  0.4340  0.2623
  180MOL0     C23638   9.009   0.967   3.980 -0.2198  0.0604  0.1822
  180MOL0     C23639   9.031   1.092   3.910 -0.4376 -1.1921  0.3267
  180MOL0     C23640   9.173   1.151   3.950  0.4696 -0.7233 -0.4562
  180MOL0     C23641   9.302   1.066   3.933 -0.5834  0.7563 -0.5261
  180MOL0     C23642   9.378   1.068   3.800  0.6173 -0.0333  0.0687
  180MOL0     C23643   9.525   1.035   3.813 -0.6238 -0.7950  0.0925
  180MOL0     C23644   9.568   0.911   3.893 -0.1784  0.4827 -0.9214
  180MOL0     N23645   9.553   0.926   4.036 -0.0459  0.0206  0.9705
  180MOL0     C23646   9.633   1.009   4.106  0.8284  0.5476 -0.3172
  180MOL0     C23647   9.633   0.957   4.235  0.1279 -0.5955 -0.0346
  180MOL0     C23648   9.722   0.983   4.358 -0.0641 -0.7849 -0.7846
  180MOL0     C23649   9.868   0.926   4.341 -0.2828 -0.3240  0.0736
  180MOL0     C23650   9.943   0.886   4.465 -0.0729  0.3107  1.0166
  180MOL0     C23651   9.875   0.798   4.561 -0.3698  0.7251  0.4667
  180MOL0     O23652   9.794   0.698   4.504  0.4371  0.3460  0.2860
  180MOL0     C23653   9.684   0.677   4.582  0.4814  0.5106  0.1544
  180MOL0     C23654   9.672   0.697   4.726 -0.5213  0.3067 -0.1836
  180MOL0     C23655   9.554   0.676   4.791  0.5301 -0.1048 -0.0009
  180MOL0     C23656   9.447   0.602   4.726 -0.5117  0.1271  0.7370
  180MOL0     C23657   9.320   0.566   4.789  0.1268  0.1004 -0.1139
  180MOL0     O23658   9.208   0.561   4.698  0.9605 -0.4050  0.3196
  180MOL0     C23659   9.079   0.509   4.732  0.4076 -0.3616 -0.0794
  180MOL0     C23660   8.973   0.548   4.653 -0.6853 -0.5969 -0.0556
  180MOL0     C23661   8.841   0.505   4.673 -0.4756 -1.0923 -0.3186
  180MOL0     C23662   8.816   0.416   4.776 -0.4410  0.0042 -0.0830
  180MOL0     O23663   8.685   0.379   4.791 -0.2692 -0.5329 -0.5687
  180MOL0     C23664   8.639   0.326   4.917 -0.8603  1.0486 -0.4817
  180MOL0     C23665   8.486   0.310   4.942 -1.1981 -0.0244 -0.0316
  180MOL0     C23666   8.430   0.259   4.804  0.7540 -0.3675  0.7451
  180MOL0     C23667   8.285   0.209   4.826 -0.0755  0.3196  0.2417
  180MOL0     C23668   8.205   0.188   4.696  0.7699 -0.0515 -0.1232
  180MOL0     C23669   8.060   0.221   4.714 -0.9248  0.7352  0.2183
  180MOL0     C23670   7.976   0.191   4.585  0.2900 -0.7912  0.4781
  180MOL0     C23671   7.945   0.044   4.558  0.6719 -0.3892  1.0172
  180MOL0    Cl23672   7.806   0.052   4.437  0.6203  0.2876  0.4458
  180MOL0     C23673   8.922   0.368   4.859  0.3469 -1.0482  0.2778
  180MOL0     C23674   9.054   0.417   4.837 -0.0965  0.0521  1.0415
  180MOL0     O23675   9.315   0.538   4.913  0.2522 -0.8969  0.4415
  180MOL0     C23676   9.462   0.583   4.588 -0.2622 -0.2776  0.7664
  180MOL0     C23677   9.576   0.612   4.523 -0.0066 -0.1149  0.4896
  180MOL0     N23678   9.543   0.849   4.242 -0.6835 -0.5309  0.2688
  180MOL0     N23679   9.501   0.833   4.114  0.7224 -0.3075  0.3831
  180MOL0     C23680   8.595   0.864   3.918 -1.0159  0.2969  0.0033
  180MOL0     C23681   8.464   0.830   3.924  0.5545  0.2576 -0.3587
  180MOL0     C23682   8.000   0.890   4.053  0.1040  0.2187  0.0053
  180MOL0     C23683   7.971   0.826   3.938  0.1885 -1.1396  0.2380
  180MOL0     C23684   7.839   0.798   3.915  0.6782  0.2223  0.9886
  180MOL0     C23685   7.729   0.823   4.003 -0.6686  0.1218  0.4550
  180MOL0     O23686   7.601   0.815   3.957 -0.4427 -0.2310 -0.6442
  180MOL0     C23687   7.502   0.897   4.027  0.3978  0.6914  0.6079
  180MOL0     C23688   7.371   0.901   3.936 -0.1538  0.7708  0.0342
  180MOL0     C23689   7.405   0.954   3.798 -0.1955  0.3099  0.1263
  180MOL0     C23690   7.292   0.973   3.698  0.6928 -0.2273  0.3513
  180MOL0     C23691   7.240   0.841   3.659  0.1919 -0.6240 -0.4704
  180MOL0     C23692   7.190   0.740   3.622 -0.7275 -0.0824  0.4603
  180MOL0     C23693   7.764   0.877   4.132 -0.5526 -0.1243 -0.0656
  180MOL0     C23694   7.897   0.910   4.155 -0.1534  0.3361  0.7537
  180MOL0     H23695   8.374   1.108   4.120  3.0596 -0.0490  3.3979
  180MOL0     H23696   8.601   1.151   4.094  0.9047 -0.0620  2.6735
  180MOL0     H23697   8.855   0.911   3.836 -2.8025 -0.4869  0.5942
  180MOL0     H23698   8.861   0.812   3.982 -0.3797  0.7893  1.2416
  180MOL0     H23699   9.081   0.888   3.957  0.9820 -0.0469  3.6447
  180MOL0     H23700   9.024   0.984   4.087 -3.4541 -0.8913  0.9082
  180MOL0     H23701   8.960   1.169   3.941 -0.3025 -1.2314  0.7383
  180MOL0     H23702   9.023   1.080   3.802 -1.0554  3.1526 -0.3001
  180MOL0     H23703   9.190   1.247   3.901 -2.1348 -0.3436 -0.7644
  180MOL0     H23704   9.163   1.173   4.057 -0.1111 -2.0505 -0.2241
  180MOL0     H23705   9.275   0.963   3.956 -0.0962  1.2135  2.4977
  180MOL0     H23706   9.359   1.107   4.018 -1.0440  1.5099 -0.5664
  180MOL0     H23707   9.378   1.167   3.755  1.5749 -1.4248 -3.3692
  180MOL0     H23708   9.339   1.003   3.722 -0.1750 -1.0226  1.2482
  180MOL0     H23709   9.563   1.017   3.713 -1.0515  1.2412 -0.4826
  180MOL0     H23710   9.577   1.123   3.854 -0.7533 -0.1910 -0.9998
  180MOL0     H23711   9.672   0.884   3.872  0.1226  0.3888  0.5807
  180MOL0     H23712   9.509   0.828   3.854  0.6178 -0.9841  0.8554
  180MOL0     H23713   9.706   1.082   4.073  1.4264  0.4644  0.7761
  180MOL0     H23714   9.686   0.940   4.451 -2.7167 -2.6023 -2.5245
  180MOL0     H23715   9.720   1.092   4.366 -2.0842 -0.7881 -0.8326
  180MOL0     H23716   9.925   1.002   4.286  1.0080 -1.2365  0.1093
  180MOL0     H23717   9.863   0.838   4.276  1.1349 -0.4310  0.0741
  180MOL0     H23718  10.028   0.820   4.448 -0.8681 -0.9985  1.9293
  180MOL0     H23719   9.971   0.978   4.517  0.3047  1.3676 -0.9650
  180MOL0     H23720   9.824   0.872   4.623  0.4001  3.1972 -1.6509
  180MOL0     H23721   9.952   0.753   4.623 -0.3733  1.5966  1.1219
  180MOL0     H23722   9.759   0.738   4.777  2.4424 -2.6283 -2.4126
  180MOL0     H23723   9.536   0.705   4.894  0.7157  1.1403 -0.3059
  180MOL0     H23724   8.994   0.621   4.576  0.9882  1.1676  1.9601
  180MOL0     H23725   8.762   0.550   4.615  0.0607 -0.0060 -0.2338
  180MOL0     H23726   8.683   0.387   4.996 -1.4974  1.4223 -0.4066
  180MOL0     H23727   8.680   0.225   4.910 -0.0445  1.4993 -2.9740
  180MOL0     H23728   8.442   0.407   4.967 -0.8877  0.0735  0.1324
  180MOL0     H23729   8.471   0.238   5.023  1.5108 -2.2870 -1.3512
  180MOL0     H23730   8.489   0.174   4.768 -0.4020  0.1699 -2.7892
  180MOL0     H23731   8.433   0.340   4.730  0.0311 -0.7908  0.2362
  180MOL0     H23732   8.291   0.119   4.889 -0.0576  1.5687  2.0845
  180MOL0     H23733   8.234   0.291   4.877  2.7196  4.7888 -3.4050
  180MOL0     H23734   8.230   0.087   4.661  3.1550  0.3379  0.2511
  180MOL0     H23735   8.230   0.258   4.616 -2.1643  1.1956 -0.0840
  180MOL0     H23736   8.057   0.330   4.712 -0.7194  0.8265  2.6200
  180MOL0     H23737   8.021   0.174   4.804  0.2047 -3.9422 -1.4478
  180MOL0     H23738   7.890   0.259   4.590  1.5374  0.9191 -0.0575
  180MOL0     H23739   8.036   0.229   4.502  0.5635 -1.9901  0.1139
  180MOL0     H23740   7.912  -0.001   4.652  0.0160 -1.0091  0.4989
  180MOL0     H23741   8.033  -0.007   4.517  0.2508  0.3662 -0.9571
  180MOL0     H23742   8.909   0.300   4.942 -0.6039 -0.3359  0.7314
  180MOL0     H23743   9.134   0.385   4.902  0.3468 -1.3872 -0.1560
  180MOL0     H23744   9.378   0.543   4.533 -1.3054 -1.4687  3.0647
  180MOL0     H23745   9.571   0.593   4.416 -1.3749  1.3120  0.2582
  180MOL0     H23746   8.648   0.780   3.875 -1.5525 -0.8559  1.4887
  180MOL0     H23747   8.428   0.750   3.860  0.3756  0.8895 -1.0529
  180MOL0     H23748   8.046   0.804   3.862 -1.4193 -0.2802 -1.6717
  180MOL0     H23749   7.823   0.759   3.815 -1.0350  0.2697  1.1991
  180MOL0     H23750   7.520   1.005   4.032  0.5008  0.6427  1.3241
  180MOL0     H23751   7.480   0.856   4.126 -2.0642 -0.2628 -0.2549
  180MOL0     H23752   7.321   0.804   3.925  1.2885 -0.0323  0.3343
  180MOL0     H23753   7.297   0.965   3.986 -2.4122  1.8379 -4.2505
  180MOL0     H23754   7.472   0.884   3.748 -1.8044 -0.7182 -0.6887
  180MOL0     H23755   7.448   1.054   3.809  2.6732 -1.0754  2.7727
  180MOL0     H23756   7.210   1.028   3.746 -0.0309  0.4892 -1.5789
  180MOL0     H23757   7.326   1.025   3.608 -2.6050 -1.0872 -1.6096
  180MOL0     H23758   7.131   0.663   3.577  3.1967 -2.8777 -0.3798
  180MOL0     H23759   7.693   0.906   4.208 -0.3691 -0.9226  0.4260
  180MOL0     H23760   7.915   0.954   4.253  1.5555 -1.8312  1.4689
  181MOL0     O23761   9.521  10.035   1.129 -0.1968 -0.3562 -0.2216
  181MOL0     C23762   9.564  10.132   1.071 -0.8465  0.0956  0.0453
  181MOL0     O23763   9.496  10.213   0.984 -0.1479 -0.8024 -0.0719
  181MOL0     C23764   9.378  10.183   0.936  0.0628 -0.8341  0.3861
  181MOL0     C23765   9.260  10.170   1.015  0.5633  0.4525  0.5860
  181MOL0     C23766   9.135  10.132   0.950 -0.3438 -0.0086 -0.3939
  181MOL0     C23767   9.139  10.090   0.822 -0.5878  1.1710  0.6232
  181MOL0     O23768   9.028  10.025   0.769 -0.5069  0.2578 -0.2177
  181MOL0     C23769   8.997  10.077   0.641  0.5674 -0.0985 -0.0639
  181MOL0     C23770   8.843  10.093   0.637 -0.4536 -0.1763  0.3559
  181MOL0     C23771   8.769  10.039   0.514 -0.5864  0.3804 -0.5949
  181MOL0     C23772   8.725  10.138   0.408 -0.1744 -0.2207  0.4248
  181MOL0     C23773   8.682  10.082   0.276 -0.7246  0.1866  0.6558
  181MOL0     C23774   8.542  10.025   0.286 -0.3283  0.6856  0.0402
  181MOL0     C23775   8.494   9.972   0.143 -0.1699  0.5431  0.2218
  181MOL0     C23776   8.379  10.059   0.093  0.2740 -0.1169 -1.3987
  181MOL0     N23777   8.307   9.994  -0.015 -0.9609  0.2685  0.9818
  181MOL0     C23778   8.357   9.986  -0.144  0.3886  0.0102  0.7188
  181MOL0     C23779   8.252   9.964  -0.228  0.1684 -0.1031 -0.6235
  181MOL0     C23780   8.265   9.980  -0.382 -1.3107 -0.9062 -0.0838
  181MOL0     C23781   8.358   9.882  -0.448 -0.0896 -0.1132  0.6420
  181MOL0     C23782   8.369   9.915  -0.597  0.2858 -0.7410 -0.2317
  181MOL0     C23783   8.245   9.884  -0.685  0.1466  0.5186 -0.5134
  181MOL0     O23784   8.143   9.976  -0.653  0.1414  0.4774 -0.4499
  181MOL0     C23785   8.038   9.984  -0.737 -0.0911  0.5896 -0.1800
  181MOL0     C23786   7.960  10.102  -0.723 -0.5516  0.7668 -0.4370
  181MOL0     C23787   7.850  10.129  -0.806  0.2349 -0.7122 -0.1015
  181MOL0     C23788   7.832  10.040  -0.917 -0.0103 -0.1747 -1.1946
  181MOL0     C23789   7.719  10.068  -1.007  0.4768 -0.2733  0.5891
  181MOL0     O23790   7.649  10.179  -0.975  0.7692  0.4751 -0.1156
  181MOL0     C23791   7.543  10.211  -1.053 -1.3233  0.3011 -0.5901
  181MOL0     C23792   7.416  10.214  -0.993  1.1728 -0.4594 -0.0402
  181MOL0     C23793   7.307  10.246  -1.066 -0.3589  0.5855  0.6562
  181MOL0     C23794   7.318  10.280  -1.202 -0.4304 -0.7183 -0.3402
  181MOL0     O23795   7.207  10.291  -1.290 -0.0260 -0.3056  0.7834
  181MOL0     C23796   7.073  10.289  -1.234 -0.4919 -0.0652  0.6118
  181MOL0     C23797   6.985  10.339  -1.348 -0.0238  0.1828  0.8500
  181MOL0     C23798   6.844  10.305  -1.308 -0.0096  0.5173  0.3007
  181MOL0     C23799   6.741  10.389  -1.389 -0.2881 -0.4283  0.0333
  181MOL0     C23800   6.698  10.352  -1.532 -0.2690  0.5723  0.4613
  181MOL0     C23801   6.632  10.217  -1.532 -0.5187  0.7780  0.7001
  181MOL0     C23802   6.500  10.223  -1.458 -0.3573  0.1452  0.0580
  181MOL0     C23803   6.406  10.112  -1.518 -0.2540  0.0056 -0.1866
  181MOL0    Cl23804   6.475   9.950  -1.477 -0.3901 -0.1461 -0.3466
  181MOL0     C23805   7.449  10.292  -1.256 -0.5740  0.4528  0.1446
  181MOL0     C23806   7.563  10.258  -1.177 -0.2566 -0.7349  0.2989
  181MOL0     O23807   7.698   9.994  -1.107 -0.3989  0.1158 -0.0875
  181MOL0     C23808   7.911   9.922  -0.929 -0.7077 -0.2957 -0.2314
  181MOL0     C23809   8.014   9.894  -0.841 -0.2933 -0.3857 -0.0455
  181MOL0     N23810   8.142   9.969  -0.150 -0.1829  0.1093 -0.2831
  181MOL0     N23811   8.179   9.984  -0.031 -0.2774 -0.4581  0.3630
  181MOL0     C23812   9.258  10.096   0.743 -0.9415 -0.7364  0.1448
  181MOL0     C23813   9.373  10.146   0.797 -0.9330 -0.4608 -0.1681
  181MOL0     C23814   9.695  10.185   1.102 -0.8197  0.6399 -0.2140
  181MOL0     C23815   9.713  10.321   1.092  0.8573 -0.1803  0.3216
  181MOL0     C23816   9.832  10.389   1.124 -0.0001  0.1073  0.0395
  181MOL0     C23817   9.935  10.315   1.183 -0.4477 -0.0670  0.1531
  181MOL0     O23818  10.048  10.372   1.241  0.3996  0.4104  0.5819
  181MOL0     C23819  10.074  10.517   1.236  0.0318  0.4062 -0.4944
  181MOL0     C23820  10.210  10.540   1.307 -0.0512  0.4170  0.0139
  181MOL0     C23821  10.224  10.474   1.453  0.0206 -0.4216 -0.8028
  181MOL0     C23822  10.364  10.528   1.517  0.8654 -0.2987 -0.2407
  181MOL0     C23823  10.483  10.463   1.449  0.4857  0.8599 -0.8362
  181MOL0     C23824  10.567  10.414   1.375  0.9819 -0.1760  0.1816
  181MOL0     C23825   9.926  10.171   1.185  0.6600 -0.3502  0.1368
  181MOL0     C23826   9.806  10.108   1.147  0.0063  0.2453 -0.2420
  181MOL0     H23827   9.258  10.196   1.120 -1.5479  5.0760 -0.3728
  181MOL0     H23828   9.051  10.114   1.017  0.5905 -1.4905  0.4248
  181MOL0     H23829   9.036  10.005   0.568  0.6703 -0.3895  0.2735
  181MOL0     H23830   9.043  10.175   0.628 -0.3256  0.9812  3.8024
  181MOL0     H23831   8.826  10.201   0.626 -0.0470 -0.2230 -0.9061
  181MOL0     H23832   8.798  10.059   0.730 -0.5317  1.1518  0.8242
  181MOL0     H23833   8.681   9.999   0.566  0.8075 -0.8901  0.9243
  181MOL0     H23834   8.829   9.960   0.468  0.2915  0.7946 -0.1818
  181MOL0     H23835   8.642  10.203   0.436 -1.5974 -0.2335 -3.1627
  181MOL0     H23836   8.815  10.199   0.399 -0.8259  1.2822  3.1123
  181MOL0     H23837   8.757  10.008   0.246  3.3450  3.8664  0.6272
  181MOL0     H23838   8.674  10.168   0.208 -0.1302  1.1205  1.7247
  181MOL0     H23839   8.478  10.103   0.328  1.1544  2.4655 -0.8432
  181MOL0     H23840   8.543   9.935   0.348  1.2638  0.9019  0.3616
  181MOL0     H23841   8.581   9.969   0.077 -1.0932  1.4221 -1.1076
  181MOL0     H23842   8.453   9.870   0.153 -0.0845  0.4156 -0.6041
  181MOL0     H23843   8.420  10.155   0.062  1.5324 -0.0774  0.2451
  181MOL0     H23844   8.304  10.078   0.170  0.7758 -0.0334 -0.9201
  181MOL0     H23845   8.459   9.986  -0.180  0.7361 -3.6947  1.3351
  181MOL0     H23846   8.308  10.080  -0.393  0.2369 -1.1446  2.8373
  181MOL0     H23847   8.162   9.980  -0.418 -2.0599  3.7817  1.4335
  181MOL0     H23848   8.319   9.782  -0.427  0.5272 -0.3472  0.6791
  181MOL0     H23849   8.462   9.887  -0.415 -0.9401  2.1117  3.4048
  181MOL0     H23850   8.397  10.020  -0.610  1.0612 -0.8825  0.2197
  181MOL0     H23851   8.452   9.865  -0.648 -0.0750  1.1191 -2.8844
  181MOL0     H23852   8.220   9.784  -0.647 -0.2679  0.7340 -0.2060
  181MOL0     H23853   8.266   9.891  -0.792 -0.8360  0.8520 -0.6971
  181MOL0     H23854   7.986  10.158  -0.633  3.5743 -0.3426 -0.7166
  181MOL0     H23855   7.788  10.216  -0.789 -2.0715 -1.7253 -2.6757
  181MOL0     H23856   7.387  10.179  -0.895  2.0044 -2.0091 -0.3226
  181MOL0     H23857   7.210  10.237  -1.018 -1.1434  0.0109 -0.9751
  181MOL0     H23858   7.055  10.356  -1.149  0.6392 -0.9355  1.5690
  181MOL0     H23859   7.047  10.186  -1.211 -0.0926 -0.3052  0.0101
  181MOL0     H23860   7.021  10.314  -1.448  0.4328 -0.0754  1.0783
  181MOL0     H23861   6.990  10.449  -1.348  0.9592  0.1679 -1.0325
  181MOL0     H23862   6.830  10.325  -1.202  2.5303  1.5847  0.5042
  181MOL0     H23863   6.834  10.199  -1.331  1.7157  0.3385  0.2971
  181MOL0     H23864   6.658  10.398  -1.317  0.2365  1.4369  0.4682
  181MOL0     H23865   6.788  10.488  -1.392  0.5026 -0.7924  0.2513
  181MOL0     H23866   6.790  10.358  -1.590  0.0065 -0.0119  0.8166
  181MOL0     H23867   6.625  10.421  -1.574 -1.5265 -0.3709  1.0094
  181MOL0     H23868   6.694  10.137  -1.490 -1.3781 -0.5096 -0.4211
  181MOL0     H23869   6.630  10.194  -1.639 -1.3539  0.0889  0.8543
  181MOL0     H23870   6.501  10.207  -1.350 -0.6224 -0.0963  0.0265
  181MOL0     H23871   6.457  10.323  -1.475  1.5557  0.8094 -1.3264
  181MOL0     H23872   6.387  10.132  -1.624 -4.0614 -0.8289  0.1899
  181MOL0     H23873   6.311  10.130  -1.465 -1.3350 -0.9445 -1.7211
  181MOL0     H23874   7.462  10.338  -1.354  2.1592  2.4520  1.3428
  181MOL0     H23875   7.661  10.287  -1.213  0.8670  0.5091  3.9187
  181MOL0     H23876   7.894   9.860  -1.017 -3.2389  0.9759 -0.7539
  181MOL0     H23877   8.070   9.802  -0.851  0.6078 -0.0381  1.4546
  181MOL0     H23878   9.265  10.082   0.636 -0.6168  2.6835 -0.3864
  181MOL0     H23879   9.465  10.159   0.741  0.0938  0.3053  1.5781
  181MOL0     H23880   9.636  10.380   1.044  1.8246 -0.0360 -1.1089
  181MOL0     H23881   9.834  10.497   1.124 -1.1260  0.1580  1.4526
  181MOL0     H23882   9.999  10.579   1.285  0.4278 -0.2362  0.9782
  181MOL0     H23883  10.086  10.554   1.134 -1.2230  0.4250 -0.6506
  181MOL0     H23884  10.290  10.503   1.244 -1.7591 -0.0945 -1.9730
  181MOL0     H23885  10.223  10.649   1.308  1.6430  0.2644  2.3527
  181MOL0     H23886  10.230  10.365   1.452  2.2154 -0.3857  0.9447
  181MOL0     H23887  10.135  10.504   1.510 -1.5278 -2.0432 -2.2421
  181MOL0     H23888  10.373  10.636   1.507  2.3683 -0.5007 -1.4688
  181MOL0     H23889  10.362  10.505   1.624 -0.0724 -0.4188 -0.2798
  181MOL0     H23890  10.644  10.359   1.325  1.6258 -0.4364  1.4001
  181MOL0     H23891  10.002  10.116   1.239 -0.1029 -0.1191  1.4708
  181MOL0     H23892   9.807  10.001   1.159  0.4621  0.3368  0.5957
  182MOL0     O23893   6.127   6.767   6.483 -0.1981  0.4682  0.1461
  182MOL0     C23894   6.047   6.819   6.559 -0.1950  0.3892 -0.4797
  182MOL0     O23895   6.076   6.871   6.674 -0.6525 -0.3983  0.4784
  182MOL0     C23896   6.208   6.901   6.720  0.4808  1.3188  0.5990
  182MOL0     C23897   6.225   6.873   6.859 -0.1453 -0.5566  1.0175
  182MOL0     C23898   6.348   6.883   6.916 -0.3375 -0.7889  0.4104
  182MOL0     C23899   6.453   6.933   6.836 -0.0445 -0.0235  0.0506
  182MOL0     O23900   6.573   6.933   6.910  0.1467  0.2423  0.6644
  182MOL0     C23901   6.694   6.970   6.840  0.0544  0.6365 -0.1926
  182MOL0     C23902   6.729   7.116   6.852 -1.1697 -0.1855  0.4220
  182MOL0     C23903   6.859   7.156   6.780 -0.1915 -1.1914  0.8284
  182MOL0     C23904   6.983   7.080   6.848 -0.3094  0.4678  0.0036
  182MOL0     C23905   7.109   7.113   6.766 -0.2901  0.3502 -0.6666
  182MOL0     C23906   7.122   7.072   6.618 -0.0021 -0.5506  0.1543
  182MOL0     C23907   7.255   7.125   6.559  0.5912 -0.2741  0.2909
  182MOL0     C23908   7.292   7.069   6.413  0.6216  0.2586  0.5891
  182MOL0     N23909   7.407   7.132   6.350 -1.0751  0.0522 -0.0025
  182MOL0     C23910   7.539   7.106   6.374  0.1527 -0.7724 -0.0865
  182MOL0     C23911   7.605   7.185   6.286 -0.7859  0.9477 -0.2546
  182MOL0     C23912   7.752   7.214   6.290 -0.4786 -0.0454 -0.3048
  182MOL0     C23913   7.792   7.298   6.418  0.5390  0.3253 -0.1433
  182MOL0     C23914   7.706   7.422   6.447 -0.1232 -0.9356 -0.1806
  182MOL0     C23915   7.748   7.488   6.581 -0.6525 -0.0235  0.4896
  182MOL0     O23916   7.707   7.394   6.690  0.6399  0.4860 -0.6191
  182MOL0     C23917   7.585   7.409   6.756  0.0616  0.6475  0.1504
  182MOL0     C23918   7.562   7.320   6.855 -0.2466  0.6003  0.3518
  182MOL0     C23919   7.453   7.332   6.943 -0.2161 -0.4832 -0.7218
  182MOL0     C23920   7.351   7.429   6.919  0.3777 -1.0731  0.2856
  182MOL0     C23921   7.220   7.424   6.990  0.4453 -0.9257 -0.2720
  182MOL0     O23922   7.191   7.321   7.066 -0.5310  0.1618 -0.2946
  182MOL0     C23923   7.071   7.295   7.121  0.4329  1.2484 -0.1755
  182MOL0     C23924   6.945   7.356   7.096  0.3336  0.4019  0.0923
  182MOL0     C23925   6.838   7.312   7.167  0.6501 -0.2524 -0.0781
  182MOL0     C23926   6.844   7.223   7.275  0.3055 -0.0078 -0.1520
  182MOL0     O23927   6.733   7.175   7.346 -0.3065  0.2109  0.2507
  182MOL0     C23928   6.601   7.222   7.314 -0.5042  0.5089 -0.0322
  182MOL0     C23929   6.486   7.162   7.401 -0.6641  0.5081 -0.0507
  182MOL0     C23930   6.353   7.168   7.319 -0.8350  0.4185  0.2983
  182MOL0     C23931   6.255   7.061   7.381 -0.3465  0.1795 -0.0412
  182MOL0     C23932   6.193   7.119   7.508 -0.1519  0.0885  0.3119
  182MOL0     C23933   6.083   7.231   7.500 -0.6949 -0.3797 -0.5021
  182MOL0     C23934   5.951   7.178   7.446 -0.3590  0.5500  0.7890
  182MOL0     C23935   5.871   7.096   7.551  0.2161 -0.2724 -0.7065
  182MOL0    Cl23936   5.747   6.999   7.468  0.1678 -0.1945  0.0216
  182MOL0     C23937   6.968   7.171   7.316 -0.1242 -0.2375  0.2393
  182MOL0     C23938   7.075   7.203   7.227 -0.5684 -0.0318 -0.1659
  182MOL0     O23939   7.155   7.527   6.986  0.0124 -0.2535 -0.1838
  182MOL0     C23940   7.371   7.518   6.809  0.4754 -0.3446  0.4622
  182MOL0     C23941   7.488   7.508   6.728 -0.4418 -0.1941 -0.1472
  182MOL0     N23942   7.510   7.245   6.202 -0.8712  0.4309  0.3889
  182MOL0     N23943   7.397   7.212   6.243  0.9064 -0.5423  0.0998
  182MOL0     C23944   6.438   6.955   6.701  0.3259  0.5334 -1.5689
  182MOL0     C23945   6.315   6.934   6.633  0.1320  0.7047  0.5164
  182MOL0     C23946   5.906   6.808   6.532  0.1327 -0.6630  0.7781
  182MOL0     C23947   5.824   6.900   6.587  0.5941  0.1492  0.1606
  182MOL0     C23948   5.678   6.898   6.555 -0.8081 -1.1259 -1.5176
  182MOL0     C23949   5.613   6.817   6.464 -0.4646 -0.0000 -0.6791
  182MOL0     O23950   5.478   6.818   6.438 -0.2457  0.4092  0.8602
  182MOL0     C23951   5.427   6.943   6.388  0.1556 -0.3741 -0.1477
  182MOL0     C23952   5.468   6.963   6.236 -0.6303  0.2143 -0.8723
  182MOL0     C23953   5.465   7.105   6.195 -0.5920 -1.0340  0.2036
  182MOL0     C23954   5.342   7.183   6.257  1.2255  0.9218  0.0587
  182MOL0     C23955   5.214   7.131   6.211 -0.1939 -0.9256  0.2698
  182MOL0     C23956   5.102   7.085   6.179  0.5828 -0.6083  0.7670
  182MOL0     C23957   5.706   6.722   6.406 -0.4052 -0.5830  0.3510
  182MOL0     C23958   5.848   6.714   6.436  1.2118  0.2460  0.3272
  182MOL0     H23959   6.135   6.847   6.914 -2.3023 -1.5735 -2.6729
  182MOL0     H23960   6.354   6.864   7.022  0.5901 -0.7225  0.3788
  182MOL0     H23961   6.690   6.934   6.737  0.0544 -2.2730  0.7280
  182MOL0     H23962   6.766   6.905   6.892  0.7552  1.9375  0.4983
  182MOL0     H23963   6.747   7.136   6.958  2.9836 -4.9769  1.0162
  182MOL0     H23964   6.649   7.175   6.808 -2.3060 -1.2640  0.9720
  182MOL0     H23965   6.876   7.264   6.776 -1.9809 -0.9278 -1.8774
  182MOL0     H23966   6.853   7.131   6.674  0.1054  2.0006 -0.0471
  182MOL0     H23967   6.992   7.117   6.950  1.3199  1.2009 -0.3706
  182MOL0     H23968   6.962   6.973   6.846 -3.9130  1.0483 -1.7689
  182MOL0     H23969   7.188   7.058   6.817 -0.3547  1.7205  1.0064
  182MOL0     H23970   7.141   7.217   6.779  2.4178 -0.4073 -0.7004
  182MOL0     H23971   7.044   7.123   6.560 -0.3099 -3.1052 -1.8438
  182MOL0     H23972   7.106   6.966   6.596 -1.1038 -0.4470  0.4284
  182MOL0     H23973   7.264   7.234   6.554  0.5272 -0.3133 -1.0280
  182MOL0     H23974   7.338   7.090   6.620  1.3867  1.9698  0.6130
  182MOL0     H23975   7.208   7.100   6.350  1.7414 -0.7215 -1.5049
  182MOL0     H23976   7.305   6.961   6.404 -0.5580  0.1363  0.1001
  182MOL0     H23977   7.587   7.047   6.451  1.4386  0.6438  0.2455
  182MOL0     H23978   7.775   7.266   6.197  0.5357 -0.7980 -0.4951
  182MOL0     H23979   7.811   7.122   6.288 -0.7752 -0.3823  2.2923
  182MOL0     H23980   7.896   7.333   6.408  0.5016  1.0835  1.7122
  182MOL0     H23981   7.787   7.240   6.510  1.1594  0.7398  0.1591
  182MOL0     H23982   7.725   7.494   6.367  0.7840  0.1437  0.9584
  182MOL0     H23983   7.598   7.404   6.446 -0.8113  2.4079 -0.2817
  182MOL0     H23984   7.703   7.588   6.587 -3.1754 -0.9969 -0.6447
  182MOL0     H23985   7.852   7.518   6.594 -0.3649 -0.5997 -0.3780
  182MOL0     H23986   7.645   7.254   6.879 -1.1998 -0.2484  1.4350
  182MOL0     H23987   7.445   7.262   7.025 -0.6022  0.9273  0.4925
  182MOL0     H23988   6.935   7.426   7.014  1.4211  0.3364 -0.1189
  182MOL0     H23989   6.743   7.360   7.146  0.2437 -0.7083  0.6678
  182MOL0     H23990   6.594   7.199   7.208  1.7581  3.0054 -0.8337
  182MOL0     H23991   6.607   7.331   7.318 -1.3342  0.5672 -0.0640
  182MOL0     H23992   6.478   7.219   7.493 -0.3873 -1.0887  1.0065
  182MOL0     H23993   6.509   7.058   7.427  1.4020  0.4798 -1.7209
  182MOL0     H23994   6.378   7.145   7.215  0.1127  0.8657  0.4138
  182MOL0     H23995   6.298   7.262   7.316 -2.7970 -0.6804 -0.3154
  182MOL0     H23996   6.183   7.022   7.308 -0.1993  1.1247 -0.7100
  182MOL0     H23997   6.308   6.970   7.409  2.4162  0.3772 -3.8372
  182MOL0     H23998   6.274   7.153   7.573  0.2682  1.4033 -0.8617
  182MOL0     H23999   6.134   7.034   7.545  0.9379 -2.3562 -3.0722
  182MOL0     H24000   6.112   7.313   7.435 -2.2933  1.2358  0.7443
  182MOL0     H24001   6.079   7.254   7.607 -2.5889 -1.0589 -0.3846
  182MOL0     H24002   5.892   7.258   7.400  0.6676  0.1077 -1.4557
  182MOL0     H24003   5.970   7.110   7.362  0.7867 -0.0756  1.5327
  182MOL0     H24004   5.820   7.167   7.617 -0.0556  0.8188 -2.0262
  182MOL0     H24005   5.936   7.036   7.615  1.8262 -0.2956 -2.2673
  182MOL0     H24006   6.984   7.096   7.393  4.1826  0.4580  0.2749
  182MOL0     H24007   7.164   7.145   7.250 -0.4155  0.4295  0.4263
  182MOL0     H24008   7.298   7.595   6.786  0.9024  0.3289  1.3060
  182MOL0     H24009   7.500   7.591   6.660 -0.4209 -0.0766 -0.0022
  182MOL0     H24010   6.522   7.008   6.657  1.0326  1.2592  0.5450
  182MOL0     H24011   6.299   6.957   6.528 -0.6020 -1.9434 -0.0010
  182MOL0     H24012   5.847   6.981   6.656 -2.6581  0.1973  1.3747
  182MOL0     H24013   5.629   6.979   6.608  3.3166  1.4380 -1.1695
  182MOL0     H24014   5.474   7.019   6.452  0.5454  1.5921 -2.5788
  182MOL0     H24015   5.321   6.944   6.416  0.5387 -3.1448  1.8220
  182MOL0     H24016   5.570   6.925   6.226 -2.1073 -4.2130 -1.3834
  182MOL0     H24017   5.407   6.912   6.161 -2.3151  1.7075 -0.5622
  182MOL0     H24018   5.469   7.113   6.086  0.2062  0.9188  0.3256
  182MOL0     H24019   5.556   7.149   6.237 -0.4191  2.1049 -2.9742
  182MOL0     H24020   5.339   7.171   6.366  0.3186  2.5384  0.2379
  182MOL0     H24021   5.345   7.290   6.235  4.4111  1.1502  1.0112
  182MOL0     H24022   5.017   7.030   6.146  0.5373  0.2114 -0.5716
  182MOL0     H24023   5.668   6.648   6.335  1.0427 -0.2850 -0.7895
  182MOL0     H24024   5.916   6.645   6.388 -1.9068 -2.2404 -0.9072
  183MOL0     O24025   6.018   5.824   2.400 -0.8071 -0.2119  0.1652
  183MOL0     C24026   6.093   5.819   2.500 -0.0372  0.4373 -0.5592
  183MOL0     O24027   6.054   5.777   2.624 -0.5334 -0.7726 -0.7065
  183MOL0     C24028   5.927   5.732   2.644 -0.1198 -0.1339 -1.0141
  183MOL0     C24029   5.828   5.805   2.712  0.7615  0.0028  0.5840
  183MOL0     C24030   5.696   5.764   2.716 -0.1831  0.1923  0.9559
  183MOL0     C24031   5.654   5.643   2.659 -0.5002 -0.1649 -0.6677
  183MOL0     O24032   5.530   5.584   2.673  0.1599  0.9592 -0.0489
  183MOL0     C24033   5.435   5.657   2.758 -0.2851  1.2896  1.0587
  183MOL0     C24034   5.310   5.570   2.727  0.3968  0.2858 -0.7947
  183MOL0     C24035   5.191   5.595   2.818 -0.0340 -1.0786  0.6202
  183MOL0     C24036   5.163   5.746   2.824 -0.1531  0.3477  0.8254
  183MOL0     C24037   5.017   5.775   2.857 -0.3465  1.0531  0.2824
  183MOL0     C24038   4.971   5.724   3.000 -0.5846 -0.3691  0.5945
  183MOL0     C24039   4.831   5.759   3.033  0.3660  0.0080 -0.4470
  183MOL0     C24040   4.711   5.723   2.938  0.0289 -0.1302  0.0164
  183MOL0     N24041   4.680   5.584   2.914 -0.0812  0.2667  0.4354
  183MOL0     C24042   4.554   5.521   2.905  1.0212  0.1430 -0.4331
  183MOL0     C24043   4.588   5.394   2.889 -0.4494  0.1345 -0.6499
  183MOL0     C24044   4.515   5.270   2.848  0.3847  0.9779  0.0105
  183MOL0     C24045   4.374   5.266   2.911 -0.2081 -0.2556  0.2963
  183MOL0     C24046   4.380   5.271   3.063  0.2998  0.6173 -0.4641
  183MOL0     C24047   4.238   5.242   3.131 -0.5770  0.0039 -0.3254
  183MOL0     O24048   4.146   5.342   3.086  0.6727  0.1398  0.1897
  183MOL0     C24049   4.018   5.339   3.129  0.5917  0.4473  0.7427
  183MOL0     C24050   3.933   5.418   3.060 -0.4108  0.2308 -0.8652
  183MOL0     C24051   3.796   5.422   3.084 -0.3954 -0.9093 -0.8193
  183MOL0     C24052   3.751   5.352   3.200 -1.2708 -0.1569  0.2897
  183MOL0     C24053   3.610   5.352   3.228 -0.8712  0.1779  0.4720
  183MOL0     O24054   3.561   5.270   3.311 -0.3113 -0.0218 -0.6849
  183MOL0     C24055   3.433   5.280   3.347  0.5988 -0.4882 -0.0638
  183MOL0     C24056   3.364   5.396   3.384 -0.9556  0.1330 -0.5461
  183MOL0     C24057   3.231   5.403   3.402 -0.3451  0.3001 -0.7884
  183MOL0     C24058   3.150   5.289   3.386  0.2843 -1.0786  0.1210
  183MOL0     O24059   3.014   5.278   3.416 -0.2555 -0.1672  0.2021
  183MOL0     C24060   2.952   5.385   3.486 -0.7202  0.6872  0.6392
  183MOL0     C24061   2.815   5.339   3.537  0.0319 -0.3461  0.4464
  183MOL0     C24062   2.820   5.204   3.607 -0.0060  0.5381  0.4604
  183MOL0     C24063   2.882   5.217   3.746  0.2518 -0.2158  0.1433
  183MOL0     C24064   2.815   5.132   3.854 -0.2406  0.1114  0.1542
  183MOL0     C24065   2.666   5.162   3.874  0.0096  0.5128  0.5534
  183MOL0     C24066   2.579   5.095   3.986 -0.0010 -0.2353  0.1247
  183MOL0     C24067   2.627   5.133   4.126 -0.4284  0.2946  0.7190
  183MOL0    Cl24068   2.492   5.111   4.236  0.3328 -0.0522 -0.2155
  183MOL0     C24069   3.215   5.175   3.344  0.0893  0.0690 -0.3994
  183MOL0     C24070   3.353   5.164   3.324  0.6865 -0.0374  0.0838
  183MOL0     O24071   3.549   5.435   3.158 -0.1038  0.1536  0.3459
  183MOL0     C24072   3.841   5.270   3.266  0.5601  0.7495  0.5958
  183MOL0     C24073   3.972   5.267   3.230  0.7668  1.1697 -0.6866
  183MOL0     N24074   4.718   5.376   2.886  0.2438 -0.7772 -0.7583
  183MOL0     N24075   4.772   5.490   2.893 -0.3976  0.2923 -0.4166
  183MOL0     C24076   5.748   5.570   2.597 -0.2582  0.1778 -1.0822
  183MOL0     C24077   5.881   5.617   2.576  0.0472 -0.2058 -1.8905
  183MOL0     C24078   6.234   5.864   2.477  1.2044  0.2207 -0.6343
  183MOL0     C24079   6.257   5.944   2.368 -1.0145  0.7654  0.3597
  183MOL0     C24080   6.387   5.981   2.336 -0.2802 -0.0557 -0.6990
  183MOL0     C24081   6.498   5.932   2.415 -0.3775 -0.5545  0.5175
  183MOL0     O24082   6.632   5.955   2.374  0.3505  1.0062 -0.0942
  183MOL0     C24083   6.727   5.981   2.481  0.1633  0.0448  0.1977
  183MOL0     C24084   6.692   6.131   2.514 -0.7380  0.1360  0.0071
  183MOL0     C24085   6.813   6.207   2.568 -0.1008 -0.3872  0.1886
  183MOL0     C24086   6.926   6.220   2.469  0.2304  0.5221 -0.2942
  183MOL0     C24087   7.026   6.311   2.516  0.1839 -0.2373  0.6367
  183MOL0     C24088   7.115   6.386   2.546 -0.5551 -0.4904  0.4609
  183MOL0     C24089   6.468   5.843   2.529 -1.4979  0.6151  0.1884
  183MOL0     C24090   6.332   5.816   2.563 -0.3333  0.1106 -0.0848
  183MOL0     H24091   5.856   5.901   2.753  1.5470  0.6770 -1.3726
  183MOL0     H24092   5.619   5.829   2.756 -0.9922 -0.5717  0.6735
  183MOL0     H24093   5.415   5.763   2.741 -2.7346  0.8345  0.7686
  183MOL0     H24094   5.472   5.646   2.860  2.4110  2.8761  0.3485
  183MOL0     H24095   5.333   5.463   2.739  0.8599  0.6621  2.4487
  183MOL0     H24096   5.278   5.598   2.626 -0.2119 -0.4449 -0.8169
  183MOL0     H24097   5.209   5.553   2.918  0.0047  1.1908  1.6413
  183MOL0     H24098   5.095   5.548   2.794 -0.8575  0.2896  1.0635
  183MOL0     H24099   5.222   5.789   2.905 -0.8840 -0.2482  1.6942
  183MOL0     H24100   5.179   5.799   2.729 -0.6077  0.1442  0.6273
  183MOL0     H24101   4.949   5.728   2.786  1.4435 -1.9679  0.3707
  183MOL0     H24102   5.009   5.884   2.855 -0.9598  1.0866  2.1716
  183MOL0     H24103   5.035   5.766   3.079 -0.2253 -0.9930  0.6406
  183MOL0     H24104   4.988   5.616   3.009  0.5944 -0.3987 -1.3713
  183MOL0     H24105   4.808   5.728   3.136 -1.5862 -0.0296 -0.8528
  183MOL0     H24106   4.829   5.867   3.050 -0.2756  0.0842 -0.9702
  183MOL0     H24107   4.738   5.763   2.840 -3.0271 -3.3006 -2.3728
  183MOL0     H24108   4.626   5.787   2.966 -0.5023 -1.3291  1.2793
  183MOL0     H24109   4.456   5.565   2.915  0.3007 -1.4840  0.0007
  183MOL0     H24110   4.573   5.180   2.871  1.2091  1.1823 -1.1588
  183MOL0     H24111   4.505   5.260   2.740 -0.7213  2.9309 -0.0999
  183MOL0     H24112   4.315   5.178   2.882  0.9133 -1.7767  2.4266
  183MOL0     H24113   4.313   5.353   2.884 -0.8419 -1.1845 -1.4185
  183MOL0     H24114   4.454   5.200   3.100 -1.0878  0.0960  1.4579
  183MOL0     H24115   4.409   5.372   3.094  1.8568 -0.1340  0.6604
  183MOL0     H24116   4.252   5.252   3.239  1.2712  0.3218 -0.5606
  183MOL0     H24117   4.210   5.140   3.102 -0.0763 -0.5059  0.9154
  183MOL0     H24118   3.977   5.472   2.977 -0.2097 -0.1681 -1.0217
  183MOL0     H24119   3.740   5.492   3.023  0.0597 -0.1198 -0.3384
  183MOL0     H24120   3.422   5.487   3.390 -2.6753  1.1444  2.2357
  183MOL0     H24121   3.190   5.500   3.429 -1.2525  0.1063 -1.4240
  183MOL0     H24122   2.950   5.480   3.431 -0.7695 -0.0470 -0.6655
  183MOL0     H24123   3.008   5.400   3.579 -1.4041  3.3783  0.7123
  183MOL0     H24124   2.759   5.323   3.445  1.5300 -0.3309 -0.4960
  183MOL0     H24125   2.779   5.419   3.602  2.3860  0.7882  0.4199
  183MOL0     H24126   2.886   5.143   3.544 -0.2809  0.7265 -0.0173
  183MOL0     H24127   2.721   5.156   3.607 -0.0279  0.5839  0.8204
  183MOL0     H24128   2.987   5.191   3.735  0.2963 -1.0769  2.2520
  183MOL0     H24129   2.869   5.320   3.780  0.3059  0.4720 -1.7534
  183MOL0     H24130   2.856   5.160   3.951  0.3110 -0.1850  0.0101
  183MOL0     H24131   2.834   5.026   3.832  0.0198 -0.0417  1.0687
  183MOL0     H24132   2.609   5.121   3.790 -0.6441 -0.4658  1.4488
  183MOL0     H24133   2.658   5.270   3.884 -0.6023  0.5668 -0.3967
  183MOL0     H24134   2.474   5.126   3.975 -0.6032 -1.0824  2.7861
  183MOL0     H24135   2.581   4.989   3.959 -1.1342  0.2693 -2.1849
  183MOL0     H24136   2.657   5.238   4.124  0.0684  0.1486 -0.7019
  183MOL0     H24137   2.716   5.083   4.164 -0.6953 -0.4967  0.3161
  183MOL0     H24138   3.147   5.090   3.343  0.0908  0.0705 -0.6845
  183MOL0     H24139   3.387   5.066   3.294 -0.3521 -0.3823 -0.0042
  183MOL0     H24140   3.806   5.204   3.344  1.5653  0.1745  0.5776
  183MOL0     H24141   4.046   5.207   3.282 -1.1869 -0.5667  0.1915
  183MOL0     H24142   5.720   5.473   2.556 -0.7744  0.3042 -1.0443
  183MOL0     H24143   5.952   5.556   2.521  2.2726  1.7346 -1.3640
  183MOL0     H24144   6.179   5.965   2.295  0.7899  3.1217 -1.0453
  183MOL0     H24145   6.410   6.041   2.249  0.5892  0.0197 -0.4292
  183MOL0     H24146   6.831   5.962   2.452 -0.6609 -2.7067 -1.3229
  183MOL0     H24147   6.707   5.912   2.563 -2.6964 -0.7544 -1.0561
  183MOL0     H24148   6.656   6.181   2.424 -1.2062 -0.0848  0.0665
  183MOL0     H24149   6.607   6.130   2.583  0.0668  0.9168  1.0489
  183MOL0     H24150   6.860   6.156   2.653 -4.7400 -1.5507  2.3734
  183MOL0     H24151   6.787   6.309   2.598  4.2480  1.6768 -2.1282
  183MOL0     H24152   6.976   6.123   2.469 -0.8581 -0.0939  1.6075
  183MOL0     H24153   6.898   6.238   2.365  0.0332 -1.5480 -0.6538
  183MOL0     H24154   7.197   6.445   2.581  0.8596 -2.0766 -0.0363
  183MOL0     H24155   6.540   5.810   2.603 -2.9497 -4.0357 -0.1661
  183MOL0     H24156   6.309   5.739   2.636  1.1292 -1.0483 -0.7821
  184MOL0     O24157   3.025  10.634   3.172 -0.2395 -1.1519 -0.1308
  184MOL0     C24158   3.020  10.524   3.125  0.0467 -0.5156  0.5605
  184MOL0     O24159   2.912  10.472   3.066 -0.0998  0.4815 -0.0361
  184MOL0     C24160   2.786  10.533   3.060 -1.1397 -0.3695  0.0520
  184MOL0     C24161   2.767  10.678   3.058  0.5522  0.7799  0.6070
  184MOL0     C24162   2.642  10.727   3.062  0.2169  0.7512 -0.1547
  184MOL0     C24163   2.531  10.644   3.073  1.0928  0.8338  0.5458
  184MOL0     O24164   2.405  10.713   3.088 -0.3953 -0.1308  0.2152
  184MOL0     C24165   2.279  10.655   3.061  1.1342 -0.1789  1.3384
  184MOL0     C24166   2.163  10.733   3.122 -0.0768  0.3392 -0.0703
  184MOL0     C24167   2.162  10.884   3.087  0.0629 -0.2523 -0.4289
  184MOL0     C24168   2.034  10.944   3.132  0.2058  0.9011  0.3625
  184MOL0     C24169   2.019  11.089   3.073  0.1392 -0.7051  0.1352
  184MOL0     C24170   1.876  11.126   3.106  0.1876  0.2278  0.1326
  184MOL0     C24171   1.858  11.269   3.089  0.1234 -0.6317  0.2313
  184MOL0     C24172   1.717  11.319   3.074  0.2170  0.3998 -0.1633
  184MOL0     N24173   1.710  11.461   3.055 -0.1271 -0.0576 -0.2082
  184MOL0     C24174   1.619  11.522   2.968  0.1478  0.1097 -0.3191
  184MOL0     C24175   1.655  11.649   2.973 -0.0927 -0.4530 -0.3366
  184MOL0     C24176   1.600  11.759   2.888  0.7310 -0.6422  0.1217
  184MOL0     C24177   1.527  11.876   2.968 -0.5654  0.2824 -1.1644
  184MOL0     C24178   1.378  11.851   2.998  0.7869 -0.1208  0.5825
  184MOL0     C24179   1.334  11.927   3.120  0.3447 -0.1094 -0.2430
  184MOL0     O24180   1.193  11.900   3.127 -0.0855 -0.9273  0.0682
  184MOL0     C24181   1.126  11.963   3.230  0.3858  0.3859  0.2329
  184MOL0     C24182   1.189  12.030   3.337 -0.1381 -0.4317  0.0614
  184MOL0     C24183   1.109  12.087   3.434 -0.3221  0.1146 -0.6812
  184MOL0     C24184   0.969  12.081   3.434  0.3339 -0.2837 -0.2907
  184MOL0     C24185   0.885  12.143   3.531 -0.6260 -0.2202 -0.0531
  184MOL0     O24186   0.752  12.125   3.518  0.0984  0.2009 -0.4440
  184MOL0     C24187   0.668  12.228   3.566  1.0898 -0.6499 -0.0617
  184MOL0     C24188   0.701  12.365   3.563  0.4240  0.3370  0.9504
  184MOL0     C24189   0.608  12.458   3.593  0.1130  0.4081  0.3930
  184MOL0     C24190   0.483  12.425   3.637 -0.6466  0.7730 -0.3705
  184MOL0     O24191   0.398  12.525   3.669  0.6267 -0.2079  0.1643
  184MOL0     C24192   0.418  12.556   3.804 -0.0493  0.2937  0.2787
  184MOL0     C24193   0.289  12.624   3.858  0.0652  0.0595 -0.0854
  184MOL0     C24194   0.316  12.716   3.980  0.7425  0.7386  0.7493
  184MOL0     C24195   0.412  12.824   3.937 -1.3847  0.0722  0.0405
  184MOL0     C24196   0.412  12.936   4.046 -0.1482  1.0484  0.4293
  184MOL0     C24197   0.486  12.928   4.173  0.5546 -0.1503 -0.0027
  184MOL0     C24198   0.616  12.859   4.154 -0.1502 -0.8345 -0.4171
  184MOL0     C24199   0.668  12.847   4.300  0.2967  0.4687 -0.2901
  184MOL0    Cl24200   0.735  12.996   4.364  0.6733  0.6870 -0.4276
  184MOL0     C24201   0.444  12.289   3.638 -0.1562 -0.0091 -0.5924
  184MOL0     C24202   0.537  12.190   3.605 -0.0049 -0.6796 -0.1857
  184MOL0     O24203   0.943  12.220   3.612  0.1631 -0.4457 -0.1566
  184MOL0     C24204   0.915  11.998   3.340 -0.0686 -0.8685  0.5868
  184MOL0     C24205   0.992  11.947   3.239  0.5156 -0.2488  0.4464
  184MOL0     N24206   1.752  11.657   3.071 -0.0351 -1.1894 -0.9388
  184MOL0     N24207   1.789  11.547   3.118 -0.1398 -0.1879 -0.2905
  184MOL0     C24208   2.547  10.506   3.081 -0.0712  0.1396  0.1310
  184MOL0     C24209   2.674  10.450   3.074 -0.2937 -0.0264 -0.1511
  184MOL0     C24210   3.141  10.434   3.120  0.7670  1.0744 -0.8879
  184MOL0     C24211   3.251  10.466   3.186 -0.2274  0.7860  0.0602
  184MOL0     C24212   3.360  10.380   3.181  0.2659  0.8510 -0.4866
  184MOL0     C24213   3.356  10.263   3.101 -0.4805 -0.1829 -0.7594
  184MOL0     O24214   3.449  10.160   3.103  0.8023  0.3030 -0.0596
  184MOL0     C24215   3.575  10.186   3.172 -0.2064  0.0299  0.6752
  184MOL0     C24216   3.681  10.091   3.134 -0.2910  0.1448  0.3573
  184MOL0     C24217   3.647   9.958   3.190 -0.2435  0.2117  0.3414
  184MOL0     C24218   3.756   9.861   3.148 -0.2117  0.6075  0.2885
  184MOL0     C24219   3.727   9.815   3.014  0.5050  0.2283  0.5313
  184MOL0     C24220   3.699   9.796   2.898  0.4651 -0.3005 -0.0253
  184MOL0     C24221   3.244  10.235   3.023 -0.2910 -0.5892 -0.7939
  184MOL0     C24222   3.139  10.325   3.027  0.0859 -0.0616 -0.4335
  184MOL0     H24223   2.847  10.748   3.034  0.9799 -0.9649 -3.8509
  184MOL0     H24224   2.630  10.834   3.048  1.3157  1.1064  1.3221
  184MOL0     H24225   2.271  10.552   3.098  2.5680 -0.8405 -0.0900
  184MOL0     H24226   2.259  10.654   2.954 -0.2000 -2.6172  1.5259
  184MOL0     H24227   2.161  10.713   3.230  1.9614  1.7340  0.2707
  184MOL0     H24228   2.074  10.679   3.087  1.5327 -1.7466 -1.2022
  184MOL0     H24229   2.164  10.891   2.978  0.8007 -0.0403 -0.4070
  184MOL0     H24230   2.246  10.940   3.129 -1.0617  0.5723  0.7696
  184MOL0     H24231   1.948  10.881   3.105  0.5916  0.5918 -0.1510
  184MOL0     H24232   2.027  10.949   3.241  1.4217  1.8477  0.4125
  184MOL0     H24233   2.033  11.088   2.964 -4.4311 -1.0424 -0.6260
  184MOL0     H24234   2.079  11.169   3.118 -0.4126  0.2573 -0.8186
  184MOL0     H24235   1.869  11.095   3.211  2.8733 -1.5418 -0.1071
  184MOL0     H24236   1.802  11.066   3.053  1.0087 -0.4282 -0.2985
  184MOL0     H24237   1.916  11.321   3.167 -0.6072 -1.4181  1.3282
  184MOL0     H24238   1.906  11.305   2.998 -1.6347  1.0449 -0.1131
  184MOL0     H24239   1.659  11.292   3.163  0.6940  0.8365  0.2926
  184MOL0     H24240   1.656  11.279   2.993 -2.9836  1.1272  1.7016
  184MOL0     H24241   1.546  11.490   2.895  0.9776  0.4675 -1.3334
  184MOL0     H24242   1.538  11.724   2.805  0.9359 -0.0441 -0.2888
  184MOL0     H24243   1.684  11.803   2.833  1.4301 -1.1448  0.7529
  184MOL0     H24244   1.535  11.972   2.916 -0.8882  0.3257 -1.1373
  184MOL0     H24245   1.577  11.884   3.065  2.0420 -0.7475 -2.3493
  184MOL0     H24246   1.325  11.875   2.905  3.4453 -1.3388 -1.4119
  184MOL0     H24247   1.364  11.745   3.020 -0.6885 -0.2641 -0.8645
  184MOL0     H24248   1.353  12.034   3.105 -0.7023 -0.2150 -2.8822
  184MOL0     H24249   1.378  11.892   3.214 -0.2598 -1.0951 -0.3135
  184MOL0     H24250   1.297  12.036   3.350  0.2691 -0.3331 -2.6845
  184MOL0     H24251   1.158  12.152   3.505  0.5706  0.4777 -1.6020
  184MOL0     H24252   0.801  12.398   3.537  0.4034  0.3273  0.8598
  184MOL0     H24253   0.636  12.563   3.595  3.3242 -0.1746 -3.1713
  184MOL0     H24254   0.506  12.620   3.816 -0.5504  1.1803 -0.7151
  184MOL0     H24255   0.420  12.463   3.863 -1.9562 -0.3485 -0.5855
  184MOL0     H24256   0.227  12.539   3.887  0.3943  0.1925  1.0556
  184MOL0     H24257   0.245  12.677   3.772  1.2362  0.1488 -0.6488
  184MOL0     H24258   0.354  12.657   4.064 -0.6701 -0.7523  0.3908
  184MOL0     H24259   0.218  12.751   4.015 -0.1527  1.9747 -2.6172
  184MOL0     H24260   0.516  12.797   3.915 -1.3236  2.3990 -3.2489
  184MOL0     H24261   0.368  12.879   3.853  0.2905  0.2745 -0.7369
  184MOL0     H24262   0.307  12.966   4.061 -1.3680 -1.7427 -1.6463
  184MOL0     H24263   0.451  13.024   3.994  0.5062  0.8995  0.6660
  184MOL0     H24264   0.418  12.864   4.230 -1.1381  1.9111  0.4039
  184MOL0     H24265   0.496  13.020   4.231 -1.3613  0.4399 -0.5553
  184MOL0     H24266   0.601  12.758   4.116 -2.0145 -0.5504 -0.5357
  184MOL0     H24267   0.687  12.908   4.086  0.2902  0.0066  0.6127
  184MOL0     H24268   0.756  12.782   4.297 -0.5708 -0.7648  0.1582
  184MOL0     H24269   0.594  12.805   4.368 -0.3096  1.7229 -0.1484
  184MOL0     H24270   0.339  12.269   3.655 -0.6460  2.6842 -0.0071
  184MOL0     H24271   0.506  12.086   3.592 -2.4011 -0.0680  0.0530
  184MOL0     H24272   0.810  11.972   3.345 -0.5835  0.7369 -0.9324
  184MOL0     H24273   0.943  11.881   3.168 -1.3590  0.0536  1.4239
  184MOL0     H24274   2.462  10.439   3.089 -0.0831  0.0516 -0.7037
  184MOL0     H24275   2.692  10.344   3.081  0.6232  0.0108 -1.6298
  184MOL0     H24276   3.247  10.554   3.251  1.8144  1.0650 -0.1066
  184MOL0     H24277   3.453  10.387   3.236 -0.9508  0.1581  1.7686
  184MOL0     H24278   3.557  10.195   3.280  1.0301 -0.6448  0.9551
  184MOL0     H24279   3.616  10.281   3.135 -0.4484 -1.1987 -3.1610
  184MOL0     H24280   3.686  10.082   3.025 -0.0771 -0.4113  0.4119
  184MOL0     H24281   3.784  10.119   3.161  0.3333 -0.8590 -0.8678
  184MOL0     H24282   3.556   9.918   3.144  0.3918  0.3852 -1.1015
  184MOL0     H24283   3.639   9.958   3.299  2.4419  0.6506  0.6099
  184MOL0     H24284   3.860   9.895   3.152  0.7534 -2.0846  0.5624
  184MOL0     H24285   3.765   9.777   3.217  0.1881 -0.9520 -1.5452
  184MOL0     H24286   3.684   9.778   2.794 -1.0673  1.1097 -0.0798
  184MOL0     H24287   3.245  10.142   2.966 -4.2453 -1.4962  0.3264
  184MOL0     H24288   3.053  10.317   2.962 -0.8478 -0.0224  0.7587
  185MOL0     O24289   8.572   2.551  10.914  0.4273 -0.0765  0.2356
  185MOL0     C24290   8.600   2.578  11.031 -0.5808  0.6660  0.7733
  185MOL0     O24291   8.516   2.563  11.140  0.0889  0.7755 -0.3450
  185MOL0     C24292   8.393   2.490  11.122 -0.2298 -0.3818 -0.0911
  185MOL0     C24293   8.285   2.546  11.189  1.0600  0.3176 -0.2076
  185MOL0     C24294   8.165   2.474  11.187  0.3879  0.4969 -0.2089
  185MOL0     C24295   8.156   2.354  11.125 -0.3701 -0.0843 -0.0083
  185MOL0     O24296   8.036   2.287  11.120  0.0682 -0.4400  0.1507
  185MOL0     C24297   7.921   2.341  11.189  0.6929  0.5210 -0.3058
  185MOL0     C24298   7.793   2.258  11.194  0.4413  0.0099  0.0829
  185MOL0     C24299   7.731   2.230  11.052 -0.6298 -0.0101  0.3436
  185MOL0     C24300   7.609   2.137  11.064  1.0720 -0.5004  0.3477
  185MOL0     C24301   7.512   2.168  10.943  0.2911 -0.3658  0.3651
  185MOL0     C24302   7.400   2.067  10.940  0.1011  0.4345  0.2014
  185MOL0     C24303   7.277   2.123  10.859 -0.0178 -0.2331 -0.2929
  185MOL0     C24304   7.174   2.016  10.838  0.2291 -0.3852 -0.4202
  185MOL0     N24305   7.138   1.944  10.962 -0.2795 -0.2028  0.1695
  185MOL0     C24306   7.134   1.815  10.985 -0.4499  0.7070  0.4249
  185MOL0     C24307   7.089   1.801  11.111 -0.3590  1.2802  0.2722
  185MOL0     C24308   7.084   1.665  11.187 -0.9151  0.1446  0.2839
  185MOL0     C24309   7.087   1.695  11.338  1.0241  0.6621  0.7288
  185MOL0     C24310   7.110   1.568  11.410  0.4247  0.3269 -0.4383
  185MOL0     C24311   7.010   1.447  11.381  0.0746 -0.5455 -0.2460
  185MOL0     O24312   6.870   1.475  11.370  0.1024 -0.0804 -0.3129
  185MOL0     C24313   6.792   1.475  11.484 -0.2155 -0.4231  0.2488
  185MOL0     C24314   6.655   1.485  11.466 -0.2180 -0.1480 -0.1130
  185MOL0     C24315   6.569   1.464  11.572  0.1516  0.6229 -0.9826
  185MOL0     C24316   6.618   1.443  11.705  0.2081 -0.6370  0.6710
  185MOL0     C24317   6.523   1.418  11.818  0.3358  0.3686 -0.1935
  185MOL0     O24318   6.389   1.430  11.788  0.2438 -0.1649  0.4352
  185MOL0     C24319   6.288   1.400  11.883 -0.1460 -0.7755  0.4673
  185MOL0     C24320   6.164   1.384  11.815  0.2578 -0.0185 -0.2967
  185MOL0     C24321   6.053   1.354  11.892 -0.2840  0.0438 -0.7553
  185MOL0     C24322   6.058   1.353  12.033  0.2771  0.4213  0.1882
  185MOL0     O24323   5.959   1.323  12.124  0.1585  0.0317 -0.5581
  185MOL0     C24324   5.823   1.292  12.081  0.1459  0.6464  0.3234
  185MOL0     C24325   5.752   1.202  12.185 -0.7438  0.2128  0.9997
  185MOL0     C24326   5.728   1.288  12.303 -0.4203  0.1511 -0.5960
  185MOL0     C24327   5.699   1.213  12.434  0.1464 -0.1313  0.3877
  185MOL0     C24328   5.806   1.127  12.486 -0.4013  0.3649  0.3056
  185MOL0     C24329   5.943   1.198  12.506 -0.5310 -0.5296  0.1434
  185MOL0     C24330   6.046   1.104  12.573 -0.2378 -0.0477 -0.7497
  185MOL0     C24331   6.095   0.982  12.486 -0.7811 -0.6787  0.0939
  185MOL0    Cl24332   6.249   0.909  12.537  0.3000  0.3268 -0.1828
  185MOL0     C24333   6.176   1.377  12.100  0.1293 -0.9629 -0.2940
  185MOL0     C24334   6.296   1.401  12.023  0.1497 -0.2508  0.0789
  185MOL0     O24335   6.577   1.390  11.930  0.2574  0.3967 -0.1404
  185MOL0     C24336   6.752   1.458  11.724  0.1295  0.7216 -0.8602
  185MOL0     C24337   6.839   1.472  11.612 -0.5082  0.4279 -1.0638
  185MOL0     N24338   7.075   1.926  11.162  0.2033  0.0837 -0.0169
  185MOL0     N24339   7.106   2.016  11.074 -0.5598  0.2704  0.2821
  185MOL0     C24340   8.259   2.297  11.057 -0.0990 -0.6254 -0.1801
  185MOL0     C24341   8.378   2.373  11.055  0.2531 -0.0329 -0.4699
  185MOL0     C24342   8.723   2.664  11.054 -0.2243 -0.8859 -0.0288
  185MOL0     C24343   8.795   2.708  10.939  0.0616 -0.4300  0.6629
  185MOL0     C24344   8.905   2.792  10.941 -0.7669 -0.4879 -0.8660
  185MOL0     C24345   8.951   2.841  11.061 -0.5496  0.4304  0.8586
  185MOL0     O24346   9.053   2.927  11.073 -0.2935 -0.1174  0.0638
  185MOL0     C24347   9.140   2.957  10.963  0.6216 -0.1464  0.9906
  185MOL0     C24348   9.281   2.883  10.982 -0.1417 -0.1937 -0.2449
  185MOL0     C24349   9.373   2.910  10.863 -0.1323 -0.6409 -0.5312
  185MOL0     C24350   9.484   2.810  10.866 -0.2214  0.3609 -0.1267
  185MOL0     C24351   9.604   2.855  10.790 -0.4588 -0.1507  0.5231
  185MOL0     C24352   9.720   2.862  10.749  1.1856 -0.8117  0.8365
  185MOL0     C24353   8.878   2.810  11.167  0.0412 -0.7675 -0.0965
  185MOL0     C24354   8.770   2.720  11.174 -0.4347 -0.7196  0.1508
  185MOL0     H24355   8.293   2.646  11.231 -0.9694  1.1983 -1.7443
  185MOL0     H24356   8.088   2.539  11.227 -0.3100  0.4922 -1.5297
  185MOL0     H24357   7.889   2.435  11.142 -1.5426  0.2398  0.5263
  185MOL0     H24358   7.951   2.350  11.293 -0.4719  0.1877  0.0764
  185MOL0     H24359   7.726   2.321  11.253 -0.7476  1.3481 -2.4896
  185MOL0     H24360   7.826   2.166  11.242  1.9647  0.5451  0.1296
  185MOL0     H24361   7.806   2.178  10.991 -3.4566 -3.9980 -0.2167
  185MOL0     H24362   7.697   2.325  11.010 -1.7930  1.5148  4.2638
  185MOL0     H24363   7.637   2.033  11.047  0.5121 -0.2751 -2.3215
  185MOL0     H24364   7.557   2.142  11.160 -2.3442 -2.5626 -1.2028
  185MOL0     H24365   7.559   2.160  10.844 -0.5032  0.5044 -0.0909
  185MOL0     H24366   7.475   2.271  10.944  0.2890 -0.2988 -1.8053
  185MOL0     H24367   7.375   2.042  11.043 -0.5549  0.7261  0.1152
  185MOL0     H24368   7.442   1.981  10.886  0.1179  0.6542 -0.1410
  185MOL0     H24369   7.238   2.201  10.925  0.4168  2.2178 -2.7621
  185MOL0     H24370   7.310   2.167  10.764 -1.5261  1.0827 -0.2463
  185MOL0     H24371   7.226   1.950  10.767 -1.2228 -2.3682  0.2671
  185MOL0     H24372   7.087   2.057  10.786  2.6426  2.5433 -2.4783
  185MOL0     H24373   7.171   1.744  10.912  0.2480  2.1810 -0.7167
  185MOL0     H24374   7.180   1.616  11.171  0.3079  1.7635  2.1017
  185MOL0     H24375   6.991   1.616  11.157  0.1712 -1.4049 -0.6483
  185MOL0     H24376   6.993   1.744  11.366 -0.3035 -1.0291 -0.5397
  185MOL0     H24377   7.163   1.767  11.371  0.3892  0.4444  2.7618
  185MOL0     H24378   7.208   1.524  11.388  0.4035  1.3743 -3.0760
  185MOL0     H24379   7.097   1.590  11.516 -1.9070  1.3724 -0.8843
  185MOL0     H24380   7.037   1.384  11.466  1.4336  0.3295  0.0087
  185MOL0     H24381   7.036   1.393  11.290  0.3210 -0.6588 -0.1073
  185MOL0     H24382   6.625   1.486  11.361 -0.7277 -1.5930 -0.0062
  185MOL0     H24383   6.462   1.452  11.560  0.3246 -1.2659 -0.9377
  185MOL0     H24384   6.165   1.371  11.707 -1.8820  4.1607 -1.0308
  185MOL0     H24385   5.956   1.334  11.849 -1.7803  0.8133  1.9854
  185MOL0     H24386   5.833   1.230  11.992  2.5441 -0.2601  1.1408
  185MOL0     H24387   5.767   1.383  12.059 -1.8561 -0.8712 -1.2786
  185MOL0     H24388   5.815   1.114  12.197  3.5230  2.6911 -0.7407
  185MOL0     H24389   5.654   1.165  12.153 -0.4088 -0.7143  1.0280
  185MOL0     H24390   5.651   1.362  12.281 -0.8588  0.6879  2.3377
  185MOL0     H24391   5.817   1.350  12.317  1.8824 -2.1453 -3.5887
  185MOL0     H24392   5.678   1.287  12.512  0.5015 -2.3362  2.7295
  185MOL0     H24393   5.611   1.150  12.418  0.0704  0.5437 -2.2711
  185MOL0     H24394   5.825   1.044  12.417  3.0293  2.0278 -0.9486
  185MOL0     H24395   5.777   1.080  12.581 -2.1903 -0.7668 -0.7231
  185MOL0     H24396   5.922   1.287  12.566 -1.6520 -0.4185 -0.3753
  185MOL0     H24397   5.984   1.231  12.410 -0.1058  1.4167  0.9636
  185MOL0     H24398   6.129   1.166  12.610 -2.2176  1.0989  2.1661
  185MOL0     H24399   6.009   1.057  12.665  1.2581 -1.4638 -0.8308
  185MOL0     H24400   6.105   1.030  12.388  2.2463 -3.0073 -0.9178
  185MOL0     H24401   6.021   0.901  12.485 -1.7735  0.1810  1.0680
  185MOL0     H24402   6.159   1.393  12.206  2.8717 -0.6238  0.1532
  185MOL0     H24403   6.386   1.412  12.083  0.8802 -3.5023 -0.2215
  185MOL0     H24404   6.804   1.460  11.819 -1.8074  1.3459  0.2362
  185MOL0     H24405   6.945   1.475  11.633  0.0584 -1.7128 -3.1993
  185MOL0     H24406   8.239   2.214  10.990 -0.1115 -1.3523  0.7166
  185MOL0     H24407   8.467   2.338  11.002  0.1734 -1.8751  0.5300
  185MOL0     H24408   8.784   2.678  10.836  3.6021  0.1696 -0.0071
  185MOL0     H24409   8.945   2.812  10.842  2.3816 -4.0590 -0.5552
  185MOL0     H24410   9.156   3.065  10.956  2.6382 -0.3892  1.3458
  185MOL0     H24411   9.103   2.927  10.864 -2.4136  5.0299  0.2032
  185MOL0     H24412   9.324   2.916  11.077 -0.7938  1.7544 -0.5863
  185MOL0     H24413   9.260   2.776  10.994  1.9663 -0.6600 -0.4704
  185MOL0     H24414   9.406   3.014  10.877 -0.3494 -0.7043  0.5962
  185MOL0     H24415   9.326   2.908  10.765  0.3982  0.8876 -0.8530
  185MOL0     H24416   9.525   2.800  10.967  1.5358 -2.6394 -0.9793
  185MOL0     H24417   9.443   2.717  10.827 -2.0279  1.9929 -2.3802
  185MOL0     H24418   9.824   2.865  10.723  1.5218  1.0651  2.2103
  185MOL0     H24419   8.917   2.856  11.257 -0.0499  0.6788 -0.7716
  185MOL0     H24420   8.722   2.700  11.269 -0.9654 -0.2645 -0.0180
  186MOL0     O24421   3.220   4.209   2.046 -0.3230  0.3773 -0.7698
  186MOL0     C24422   3.250   4.199   1.928  0.2226 -0.4300 -0.3084
  186MOL0     O24423   3.166   4.202   1.825 -0.2136  0.0738  0.3494
  186MOL0     C24424   3.025   4.196   1.837 -0.6143 -0.2354  0.1974
  186MOL0     C24425   2.964   4.276   1.731 -0.0672 -0.1789 -0.0282
  186MOL0     C24426   2.824   4.286   1.733 -0.4764 -0.1817  0.0356
  186MOL0     C24427   2.756   4.223   1.835  0.4714  0.2648 -0.0753
  186MOL0     O24428   2.619   4.230   1.840  0.2279  0.0506  0.1186
  186MOL0     C24429   2.545   4.221   1.960  0.0612 -0.2596 -0.5252
  186MOL0     C24430   2.402   4.238   1.945  0.4135 -0.0249  0.0923
  186MOL0     C24431   2.326   4.189   2.067 -0.4132 -0.5030  0.8163
  186MOL0     C24432   2.179   4.197   2.045  0.6090 -0.2155  1.0445
  186MOL0     C24433   2.094   4.181   2.174  0.3375 -0.0192 -0.1828
  186MOL0     C24434   1.940   4.171   2.139 -0.8146  0.3321 -0.2949
  186MOL0     C24435   1.848   4.173   2.261  0.0550 -0.4997 -0.7040
  186MOL0     C24436   1.702   4.150   2.236  0.9231  0.5799 -0.0389
  186MOL0     N24437   1.640   4.238   2.143 -0.0242  0.0041  0.3337
  186MOL0     C24438   1.643   4.224   2.004 -0.3880 -0.4013 -0.3583
  186MOL0     C24439   1.597   4.345   1.961 -0.3023  0.6049  0.1003
  186MOL0     C24440   1.580   4.381   1.818  0.2672 -0.3076 -0.7853
  186MOL0     C24441   1.702   4.450   1.767  0.6734  1.1683 -0.0735
  186MOL0     C24442   1.706   4.447   1.609  0.7962 -0.2321  0.2610
  186MOL0     C24443   1.578   4.524   1.557  0.2226 -0.9725  0.4436
  186MOL0     O24444   1.582   4.662   1.594  0.5661  0.7842 -0.0540
  186MOL0     C24445   1.694   4.740   1.575 -0.6518  0.2443 -0.0126
  186MOL0     C24446   1.754   4.811   1.674  0.7088  0.2090 -0.6764
  186MOL0     C24447   1.876   4.875   1.650 -0.8818  0.2894  0.9388
  186MOL0     C24448   1.941   4.882   1.527 -0.5008 -0.1073 -0.2247
  186MOL0     C24449   2.076   4.951   1.510 -0.3985 -0.1102 -0.4348
  186MOL0     O24450   2.129   5.009   1.620 -0.7154  0.0450 -0.1531
  186MOL0     C24451   2.259   5.050   1.613  0.5341  0.0128 -0.1443
  186MOL0     C24452   2.354   4.966   1.566 -0.7523 -0.2477  0.9242
  186MOL0     C24453   2.488   5.016   1.572  0.6618 -0.0103  0.7088
  186MOL0     C24454   2.518   5.148   1.606  0.0547  0.4637 -0.2683
  186MOL0     O24455   2.647   5.198   1.614 -0.4192  0.0109 -0.3523
  186MOL0     C24456   2.759   5.124   1.581 -0.4210  0.5089  0.0241
  186MOL0     C24457   2.885   5.206   1.597 -0.5479 -0.5830 -0.3534
  186MOL0     C24458   3.007   5.121   1.542  0.4240  0.1232 -0.0168
  186MOL0     C24459   3.128   5.183   1.599  0.0490  0.1325  0.2647
  186MOL0     C24460   3.250   5.123   1.531 -0.0924 -0.0900  0.2591
  186MOL0     C24461   3.257   5.110   1.377  0.1958 -0.3354  0.3528
  186MOL0     C24462   3.262   5.251   1.303 -0.1396  0.4141  0.2183
  186MOL0     C24463   3.179   5.237   1.168 -0.0934  0.2395 -0.6701
  186MOL0    Cl24464   3.279   5.170   1.031  0.1528 -0.0576 -0.0113
  186MOL0     C24465   2.416   5.220   1.656  0.2494 -0.5235 -0.5830
  186MOL0     C24466   2.283   5.175   1.657 -0.7910 -0.3195 -0.5143
  186MOL0     O24467   2.116   4.969   1.396  0.5475  0.6659  0.4534
  186MOL0     C24468   1.869   4.816   1.427  0.7511  0.4355 -0.2674
  186MOL0     C24469   1.756   4.739   1.450  0.1919 -0.3524  0.3255
  186MOL0     N24470   1.571   4.433   2.064 -0.8980  0.3324  0.9875
  186MOL0     N24471   1.596   4.360   2.169  0.3282  0.2198 -0.4868
  186MOL0     C24472   2.823   4.149   1.931  0.4945  0.2036  0.4981
  186MOL0     C24473   2.959   4.134   1.934 -0.2935  0.1645 -0.1665
  186MOL0     C24474   3.394   4.195   1.896 -0.2782  0.9598  0.0760
  186MOL0     C24475   3.437   4.151   1.769  0.4795  1.1345 -0.0890
  186MOL0     C24476   3.570   4.160   1.728  0.2991 -0.1401  0.2477
  186MOL0     C24477   3.669   4.192   1.824  1.0594  1.3409 -0.2254
  186MOL0     O24478   3.797   4.185   1.785  0.1848 -0.6690  0.4930
  186MOL0     C24479   3.899   4.192   1.883 -0.2984  0.1930 -1.0465
  186MOL0     C24480   4.037   4.205   1.820 -0.3005  0.0385 -0.4383
  186MOL0     C24481   4.048   4.331   1.739  0.7156 -0.4163 -0.8103
  186MOL0     C24482   4.199   4.337   1.686  0.0023 -0.1419 -0.4435
  186MOL0     C24483   4.301   4.391   1.784  0.9866 -0.4246  0.5746
  186MOL0     C24484   4.394   4.433   1.853  0.3369  0.3393  0.1007
  186MOL0     C24485   3.628   4.217   1.960  0.3421  0.8114 -0.0413
  186MOL0     C24486   3.492   4.214   1.991  0.0514 -0.2257 -0.2046
  186MOL0     H24487   3.026   4.316   1.652 -0.1316  1.2242  0.6048
  186MOL0     H24488   2.760   4.340   1.664 -0.3881 -1.1017 -0.7883
  186MOL0     H24489   2.581   4.297   2.030 -3.5292  0.6777  0.5418
  186MOL0     H24490   2.566   4.118   1.990 -1.9996 -0.4070  0.6162
  186MOL0     H24491   2.366   4.178   1.861  0.6053  0.1490 -0.1134
  186MOL0     H24492   2.366   4.339   1.924 -2.0207 -1.4224 -3.5312
  186MOL0     H24493   2.352   4.252   2.152 -0.2987 -0.9445  1.1075
  186MOL0     H24494   2.342   4.083   2.090  2.0499 -0.7481 -1.5530
  186MOL0     H24495   2.170   4.300   2.010 -2.0316 -1.2558 -1.8503
  186MOL0     H24496   2.152   4.129   1.964  2.8279 -1.8691  1.5906
  186MOL0     H24497   2.121   4.261   2.243  2.3452 -0.1025 -0.8128
  186MOL0     H24498   2.119   4.087   2.224  1.3578  0.3577  0.0280
  186MOL0     H24499   1.918   4.077   2.088 -1.3533 -0.5170  1.4224
  186MOL0     H24500   1.917   4.261   2.082 -0.0501 -1.0303 -2.8813
  186MOL0     H24501   1.897   4.099   2.325 -1.9043  0.1000  1.6238
  186MOL0     H24502   1.861   4.270   2.309  1.4816 -0.1757 -1.6721
  186MOL0     H24503   1.651   4.150   2.333  1.8346 -2.7158  0.5655
  186MOL0     H24504   1.685   4.051   2.193  0.8787  0.5714 -0.0029
  186MOL0     H24505   1.669   4.141   1.939 -0.7914 -1.1217  0.3826
  186MOL0     H24506   1.502   4.456   1.805  2.6543  2.3549 -0.5364
  186MOL0     H24507   1.564   4.289   1.760  0.1938  0.8205 -2.6266
  186MOL0     H24508   1.784   4.391   1.808 -0.5883 -0.5727  0.0877
  186MOL0     H24509   1.716   4.553   1.801 -1.1234  0.9904  1.3799
  186MOL0     H24510   1.798   4.500   1.583  0.8287  0.4378  1.6838
  186MOL0     H24511   1.705   4.345   1.569 -1.0215 -1.0019  2.0917
  186MOL0     H24512   1.492   4.475   1.604 -0.1205 -0.9047 -0.1013
  186MOL0     H24513   1.560   4.520   1.449 -1.8924  1.5359  0.5985
  186MOL0     H24514   1.717   4.806   1.776 -2.6935 -1.0053 -1.8300
  186MOL0     H24515   1.910   4.930   1.738 -0.6687 -0.3357  1.2549
  186MOL0     H24516   2.334   4.868   1.525  1.4567  0.9412 -3.6253
  186MOL0     H24517   2.570   4.951   1.545 -0.4213 -0.8042 -0.8173
  186MOL0     H24518   2.749   5.083   1.480 -3.2763  0.8335  0.1125
  186MOL0     H24519   2.773   5.048   1.658  1.8881  0.5806 -0.2555
  186MOL0     H24520   2.906   5.242   1.698  0.1518 -0.3285 -0.5851
  186MOL0     H24521   2.881   5.301   1.544  1.8545 -0.8886 -1.2104
  186MOL0     H24522   3.007   5.109   1.433  0.9831 -2.2578  0.1906
  186MOL0     H24523   3.001   5.020   1.582  0.0828  0.2831  0.3460
  186MOL0     H24524   3.125   5.292   1.588 -1.6543  0.1097  0.2289
  186MOL0     H24525   3.124   5.168   1.707  0.8230 -0.7046  0.1837
  186MOL0     H24526   3.264   5.022   1.570 -1.3765 -0.4196 -0.1004
  186MOL0     H24527   3.337   5.181   1.564  0.3664  0.0451 -1.1280
  186MOL0     H24528   3.167   5.058   1.343 -1.9582  1.8557  2.3411
  186MOL0     H24529   3.347   5.057   1.345  1.6187  3.4589 -2.6683
  186MOL0     H24530   3.209   5.328   1.359  0.0341  0.9734 -0.3712
  186MOL0     H24531   3.365   5.287   1.290 -0.5830  2.6549  2.1599
  186MOL0     H24532   3.136   5.335   1.145 -0.5310  0.0685 -0.5695
  186MOL0     H24533   3.096   5.170   1.187 -2.1565  2.8018 -0.0650
  186MOL0     H24534   2.431   5.320   1.694  0.1254 -0.2250 -1.3039
  186MOL0     H24535   2.196   5.233   1.685 -0.4161 -0.2497  0.5524
  186MOL0     H24536   1.921   4.814   1.332  0.6110 -3.3479 -0.3882
  186MOL0     H24537   1.712   4.683   1.368 -0.2602  0.0395  0.2956
  186MOL0     H24538   2.769   4.100   2.011 -0.1026 -0.4042 -0.2609
  186MOL0     H24539   3.003   4.070   2.010  2.5943 -0.6544 -2.3614
  186MOL0     H24540   3.367   4.117   1.694 -0.3892  1.5825  0.4950
  186MOL0     H24541   3.612   4.131   1.632 -0.0108 -1.0810  0.3902
  186MOL0     H24542   3.895   4.103   1.947 -1.9567  1.3294  0.5277
  186MOL0     H24543   3.889   4.275   1.953  0.5280  0.5905 -1.3892
  186MOL0     H24544   4.112   4.202   1.899 -1.0361  0.4782  0.2908
  186MOL0     H24545   4.050   4.114   1.761  0.3476 -0.0389 -0.1842
  186MOL0     H24546   4.017   4.417   1.801 -0.7135 -0.8750 -0.8569
  186MOL0     H24547   3.983   4.334   1.652  1.6065 -2.2547 -1.5913
  186MOL0     H24548   4.242   4.238   1.673  2.5533  0.5103  2.1129
  186MOL0     H24549   4.203   4.395   1.593  1.1826 -0.6649 -0.7343
  186MOL0     H24550   4.468   4.478   1.915 -0.7207 -0.6380  2.1915
  186MOL0     H24551   3.698   4.245   2.038  2.4913 -1.0123 -1.1929
  186MOL0     H24552   3.465   4.240   2.092  0.3144  0.0780 -0.2116
  187MOL0     O24553   7.123   4.165   8.934 -0.4874 -0.4970 -0.6641
  187MOL0     C24554   7.109   4.277   8.987 -1.4940  0.0689  0.2014
  187MOL0     O24555   7.201   4.375   8.965 -0.0650  0.2092  0.0152
  187MOL0     C24556   7.317   4.338   8.893  0.2196 -0.0265  0.1847
  187MOL0     C24557   7.437   4.330   8.964 -0.3677  0.0123  0.6875
  187MOL0     C24558   7.558   4.304   8.894  0.2250 -0.4806 -0.3428
  187MOL0     C24559   7.561   4.296   8.752  0.4766 -0.6676  0.1455
  187MOL0     O24560   7.688   4.288   8.699 -0.0437 -0.5693 -0.3229
  187MOL0     C24561   7.704   4.245   8.558 -1.2190 -0.2824 -0.9527
  187MOL0     C24562   7.852   4.235   8.527  0.5495  0.6446 -0.5300
  187MOL0     C24563   7.915   4.111   8.597 -0.6002  0.8376  0.4338
  187MOL0     C24564   8.068   4.113   8.583  0.1414 -0.6223 -0.1828
  187MOL0     C24565   8.131   3.979   8.631  0.6932 -1.1680  0.2134
  187MOL0     C24566   8.115   3.871   8.530  0.5819 -0.0272 -0.5516
  187MOL0     C24567   8.179   3.737   8.573  0.1804  0.8385 -0.6682
  187MOL0     C24568   8.233   3.657   8.450  1.1629  0.3146 -0.5995
  187MOL0     N24569   8.126   3.606   8.359 -0.0454  0.4445 -0.2964
  187MOL0     C24570   8.103   3.469   8.335  0.0124  0.8986 -0.4833
  187MOL0     C24571   8.018   3.478   8.231 -0.0424  0.2027 -0.3653
  187MOL0     C24572   7.975   3.352   8.161 -0.2131  0.2556  0.6244
  187MOL0     C24573   8.057   3.322   8.038 -0.9138  0.4005  0.4300
  187MOL0     C24574   8.049   3.174   7.980  1.1522  0.0940 -0.2305
  187MOL0     C24575   8.140   3.158   7.859 -0.3437  0.1085 -0.8287
  187MOL0     O24576   8.281   3.169   7.906  0.5516  0.1265 -0.1600
  187MOL0     C24577   8.382   3.162   7.805 -1.0531 -0.4638 -0.0853
  187MOL0     C24578   8.360   3.185   7.668  0.2028  1.0194  0.5937
  187MOL0     C24579   8.465   3.186   7.576 -0.3846  0.3441 -0.7795
  187MOL0     C24580   8.598   3.205   7.624 -0.1195 -0.3807  0.0509
  187MOL0     C24581   8.706   3.216   7.528 -0.4336 -0.2008  0.4195
  187MOL0     O24582   8.833   3.198   7.574  0.0339  0.1874 -0.2649
  187MOL0     C24583   8.952   3.224   7.506  0.3088 -0.2193 -0.1055
  187MOL0     C24584   9.068   3.250   7.586  0.4214 -0.0842  0.0829
  187MOL0     C24585   9.192   3.266   7.521  0.2891 -0.2984  0.7177
  187MOL0     C24586   9.206   3.261   7.385 -0.3500  0.6479 -0.2213
  187MOL0     O24587   9.323   3.270   7.311  0.0034 -1.0096  0.6635
  187MOL0     C24588   9.443   3.313   7.377 -0.4334 -0.2039 -0.0797
  187MOL0     C24589   9.542   3.388   7.280  0.8785 -0.0175  0.1211
  187MOL0     C24590   9.583   3.310   7.160  0.6573 -0.0667  0.0084
  187MOL0     C24591   9.644   3.402   7.055  0.1706  0.9319  0.3472
  187MOL0     C24592   9.708   3.336   6.938  0.3507 -0.5228  0.0193
  187MOL0     C24593   9.774   3.432   6.838 -0.0132 -0.2950 -0.2299
  187MOL0     C24594   9.834   3.356   6.719 -0.4270 -0.6328 -0.3569
  187MOL0     C24595   9.873   3.453   6.609 -0.2379 -0.3763  0.1609
  187MOL0    Cl24596   9.984   3.578   6.672  0.2604  0.0811  0.0220
  187MOL0     C24597   9.095   3.241   7.315 -0.0361 -0.1071  0.3705
  187MOL0     C24598   8.965   3.223   7.368  0.1020 -0.5611  0.2193
  187MOL0     O24599   8.677   3.253   7.412  0.6156  0.0068 -0.4281
  187MOL0     C24600   8.622   3.181   7.764 -0.1632  0.7865  0.4581
  187MOL0     C24601   8.517   3.160   7.847  1.2553 -0.3945 -0.1807
  187MOL0     N24602   7.994   3.605   8.191 -0.5207  0.4366  0.1692
  187MOL0     N24603   8.064   3.678   8.267 -0.5764 -0.5018  1.2504
  187MOL0     C24604   7.441   4.303   8.683 -0.6743  0.5603  0.6786
  187MOL0     C24605   7.321   4.326   8.754 -0.2071  0.1140  0.6863
  187MOL0     C24606   7.005   4.317   9.086  0.3589  0.2416  0.6701
  187MOL0     C24607   7.017   4.423   9.172 -0.3486  0.0551 -0.1624
  187MOL0     C24608   6.913   4.452   9.261 -0.0339  0.2715 -0.3534
  187MOL0     C24609   6.797   4.379   9.272  0.1273  0.4298 -0.0127
  187MOL0     O24610   6.699   4.411   9.361 -0.6080  0.1523 -0.0413
  187MOL0     C24611   6.576   4.342   9.378 -0.0395 -0.1304  0.8650
  187MOL0     C24612   6.482   4.410   9.474 -0.0607 -0.9129  0.0259
  187MOL0     C24613   6.558   4.509   9.564  0.3581  0.5964  0.2580
  187MOL0     C24614   6.467   4.534   9.689 -0.2448 -0.0579  0.5881
  187MOL0     C24615   6.529   4.633   9.766 -0.1892  0.2805 -0.6233
  187MOL0     C24616   6.576   4.737   9.804  0.3440  0.0133 -0.2771
  187MOL0     C24617   6.785   4.271   9.179  0.1904 -0.2238  0.1005
  187MOL0     C24618   6.884   4.243   9.094 -0.2213 -0.9012  0.1464
  187MOL0     H24619   7.431   4.341   9.072  1.7723  3.0742  0.6206
  187MOL0     H24620   7.651   4.302   8.950  0.7189  2.5436 -0.8880
  187MOL0     H24621   7.657   4.309   8.483  0.3667  1.3406 -0.6428
  187MOL0     H24622   7.656   4.147   8.554 -0.8462 -0.5894  1.0844
  187MOL0     H24623   7.904   4.327   8.558 -1.7833  2.3545 -1.3746
  187MOL0     H24624   7.868   4.224   8.419 -1.1959  0.6231 -0.8129
  187MOL0     H24625   7.885   4.014   8.554  0.1266  0.3884  0.9149
  187MOL0     H24626   7.889   4.114   8.704  1.6303 -2.2580  1.1933
  187MOL0     H24627   8.102   4.129   8.480  0.6606  0.4115  0.1409
  187MOL0     H24628   8.093   4.199   8.645 -2.8644  0.8991 -0.8900
  187MOL0     H24629   8.077   3.958   8.724 -2.3738  1.6776 -0.7146
  187MOL0     H24630   8.235   3.989   8.665  0.1582  0.4243  1.5427
  187MOL0     H24631   8.161   3.908   8.438 -0.3852 -1.2628 -1.5522
  187MOL0     H24632   8.008   3.856   8.513 -0.5662  1.2723  4.0095
  187MOL0     H24633   8.262   3.758   8.642  0.9638 -0.8895 -1.0272
  187MOL0     H24634   8.105   3.674   8.622 -0.1956  1.6805 -0.1215
  187MOL0     H24635   8.302   3.579   8.482  0.4373  0.2374  0.8574
  187MOL0     H24636   8.289   3.726   8.386 -1.5154  1.8502 -1.4608
  187MOL0     H24637   8.159   3.385   8.375  1.2572  3.2092  3.1757
  187MOL0     H24638   7.869   3.356   8.135  0.2430 -3.8063 -3.1068
  187MOL0     H24639   7.987   3.262   8.222  0.1237  0.6552  1.1531
  187MOL0     H24640   8.160   3.352   8.060 -1.5738  3.9614 -0.6694
  187MOL0     H24641   8.016   3.381   7.955  0.5560 -1.4497 -1.7544
  187MOL0     H24642   8.074   3.109   8.064  1.2794  2.2031  1.4166
  187MOL0     H24643   7.946   3.151   7.949  0.6431  1.8187  0.1123
  187MOL0     H24644   8.127   3.232   7.780 -0.8878  0.6756 -0.2246
  187MOL0     H24645   8.122   3.059   7.816 -1.7154  0.1001 -0.2905
  187MOL0     H24646   8.265   3.192   7.617  0.1633  1.0618  0.6723
  187MOL0     H24647   8.447   3.183   7.469 -2.2202  1.8474 -0.5599
  187MOL0     H24648   9.067   3.255   7.695  0.3957 -0.9543  0.1255
  187MOL0     H24649   9.278   3.280   7.586  1.7374 -0.4573 -1.0646
  187MOL0     H24650   9.499   3.222   7.399  0.5567 -0.1662 -2.2134
  187MOL0     H24651   9.424   3.377   7.465 -1.1548  0.0054 -0.3763
  187MOL0     H24652   9.637   3.414   7.328  1.0923  1.0063 -0.7948
  187MOL0     H24653   9.484   3.475   7.248 -0.7360 -0.3744  1.9407
  187MOL0     H24654   9.501   3.258   7.108  0.5266 -1.3184  1.4011
  187MOL0     H24655   9.658   3.235   7.188 -1.0414 -2.2449 -0.9846
  187MOL0     H24656   9.560   3.459   7.017 -0.2092  0.1388 -0.0317
  187MOL0     H24657   9.720   3.464   7.104 -0.5070  0.1684  2.4955
  187MOL0     H24658   9.627   3.284   6.887 -0.0858 -0.7069  0.8861
  187MOL0     H24659   9.787   3.274   6.981  0.4681  0.0689  0.6818
  187MOL0     H24660   9.848   3.492   6.891 -0.9811  2.5505 -1.8710
  187MOL0     H24661   9.707   3.510   6.802  2.6063  2.8123  1.1564
  187MOL0     H24662   9.924   3.298   6.739  0.6791  0.7479 -1.1772
  187MOL0     H24663   9.772   3.274   6.682  1.4265 -1.7235 -1.1314
  187MOL0     H24664   9.786   3.513   6.580  1.0489  0.9093 -1.2234
  187MOL0     H24665   9.917   3.399   6.525 -1.8802 -1.7643  0.1214
  187MOL0     H24666   9.110   3.240   7.208  1.4311  0.7019  0.5548
  187MOL0     H24667   8.880   3.212   7.301  0.1516  0.0400  0.0467
  187MOL0     H24668   8.719   3.192   7.811  0.4745  1.1755 -0.8973
  187MOL0     H24669   8.550   3.138   7.948  0.0217  0.5404  0.4416
  187MOL0     H24670   7.441   4.303   8.575 -1.0992  1.3184  0.6660
  187MOL0     H24671   7.230   4.326   8.695  0.0795 -1.8464  0.1729
  187MOL0     H24672   7.101   4.491   9.157 -2.0325  2.4806  0.7375
  187MOL0     H24673   6.920   4.533   9.333 -1.8040  0.1659 -0.0139
  187MOL0     H24674   6.588   4.238   9.409 -2.7323  0.0031  2.7738
  187MOL0     H24675   6.525   4.340   9.281  0.1874  2.1773  0.6404
  187MOL0     H24676   6.400   4.465   9.428 -2.0346 -0.6325  3.5020
  187MOL0     H24677   6.431   4.326   9.523  0.0058 -0.0548  1.6449
  187MOL0     H24678   6.582   4.603   9.514  1.3849  0.6295  0.7735
  187MOL0     H24679   6.653   4.466   9.599  0.4005  0.5157  0.0444
  187MOL0     H24680   6.368   4.568   9.656 -0.9146 -2.7457 -0.4142
  187MOL0     H24681   6.454   4.445   9.751  1.8395 -0.9593 -0.1977
  187MOL0     H24682   6.627   4.819   9.851  1.8213 -0.7510 -0.5031
  187MOL0     H24683   6.694   4.214   9.169  1.4373 -2.1244 -0.9277
  187MOL0     H24684   6.874   4.162   9.022  1.2975  1.1709 -2.5972
  188MOL0     O24685   8.642   2.462   3.185  0.3152 -0.8670  0.5790
  188MOL0     C24686   8.611   2.580   3.155  0.0150  0.8307  0.9929
  188MOL0     O24687   8.489   2.621   3.101 -0.1634  1.0793 -0.3153
  188MOL0     C24688   8.383   2.539   3.070  0.3554 -0.6728  0.2431
  188MOL0     C24689   8.271   2.614   3.028 -0.2719  0.1865 -0.4242
  188MOL0     C24690   8.157   2.544   2.996  0.1776 -0.3623 -0.2116
  188MOL0     C24691   8.140   2.404   3.017 -0.2399  0.0749 -0.3328
  188MOL0     O24692   8.023   2.332   3.002 -0.0280  0.2877 -0.8573
  188MOL0     C24693   7.897   2.397   2.974  0.4450  0.3435  0.5820
  188MOL0     C24694   7.789   2.288   2.983 -0.5793  0.0800 -0.2425
  188MOL0     C24695   7.650   2.318   2.914 -0.0292 -0.2852  0.5517
  188MOL0     C24696   7.553   2.205   2.940  0.6835 -0.1210  0.4387
  188MOL0     C24697   7.490   2.195   3.074 -0.1416  0.3734  0.6598
  188MOL0     C24698   7.393   2.073   3.086  0.1554 -0.8471  0.3550
  188MOL0     C24699   7.459   1.941   3.051 -0.6577  0.0519 -0.1471
  188MOL0     C24700   7.380   1.821   3.111 -0.4872  0.7860  0.4052
  188MOL0     N24701   7.253   1.789   3.052  0.4249  0.3996 -0.2869
  188MOL0     C24702   7.136   1.847   3.103 -0.6236  0.3003 -0.1324
  188MOL0     C24703   7.042   1.767   3.054  0.5897 -0.1909 -0.3510
  188MOL0     C24704   6.896   1.795   3.064  0.6729 -0.0245 -0.1032
  188MOL0     C24705   6.796   1.688   3.033  0.3610  0.4775  0.5394
  188MOL0     C24706   6.799   1.564   3.133 -0.4341 -0.2341  0.2543
  188MOL0     C24707   6.760   1.592   3.277 -0.1326  0.2890  0.3747
  188MOL0     O24708   6.622   1.619   3.300  0.0842 -0.6434  0.1679
  188MOL0     C24709   6.546   1.513   3.342  0.3408 -0.1603 -0.4241
  188MOL0     C24710   6.423   1.551   3.383  0.3317 -0.2976  0.5279
  188MOL0     C24711   6.329   1.458   3.423  0.6913 -1.4069  0.3257
  188MOL0     C24712   6.358   1.321   3.435 -0.2756  0.1328  0.4333
  188MOL0     C24713   6.247   1.225   3.468 -0.2584 -0.0866 -0.2018
  188MOL0     O24714   6.126   1.285   3.485  0.3876 -0.6513  0.2130
  188MOL0     C24715   6.002   1.216   3.495 -0.4053 -0.7014  0.3139
  188MOL0     C24716   5.965   1.125   3.398 -0.0450 -0.9774  1.1553
  188MOL0     C24717   5.839   1.063   3.398  0.6453  0.7648  0.6157
  188MOL0     C24718   5.744   1.104   3.495  0.4493  0.1422 -0.1142
  188MOL0     O24719   5.616   1.054   3.511 -0.7423  0.5244 -0.4750
  188MOL0     C24720   5.555   0.987   3.404 -0.0461  0.7937  0.6617
  188MOL0     C24721   5.411   1.016   3.399  0.0583 -0.5465 -0.9864
  188MOL0     C24722   5.324   0.919   3.309  0.1140  0.2195  0.4177
  188MOL0     C24723   5.180   0.956   3.295  0.4042 -0.7343 -0.0933
  188MOL0     C24724   5.098   0.860   3.216  0.2560  0.5386 -0.0591
  188MOL0     C24725   4.996   0.924   3.120  0.2608  1.0088 -0.1763
  188MOL0     C24726   4.893   0.826   3.065  0.1912 -0.8889  0.4084
  188MOL0     C24727   4.809   0.902   2.962 -0.1929 -0.2752 -0.2094
  188MOL0    Cl24728   4.914   0.939   2.828  0.0936  0.3399  0.0375
  188MOL0     C24729   5.785   1.198   3.592  0.0897 -0.0444 -0.1470
  188MOL0     C24730   5.907   1.263   3.594 -0.3091  0.6571 -0.2320
  188MOL0     O24731   6.279   1.107   3.474 -0.2215  0.4756 -0.4132
  188MOL0     C24732   6.487   1.280   3.399 -0.3071  0.5668  0.5085
  188MOL0     C24733   6.578   1.378   3.351 -0.0133 -0.0082 -0.0164
  188MOL0     N24734   7.097   1.666   2.976  0.0334 -0.0958  0.2450
  188MOL0     N24735   7.225   1.680   2.981  0.5538  0.6682 -0.7519
  188MOL0     C24736   8.253   2.336   3.054 -0.1864 -0.3289  0.3295
  188MOL0     C24737   8.375   2.399   3.076 -0.0872 -0.1756 -0.0515
  188MOL0     C24738   8.709   2.678   3.193  0.0995 -0.6029 -0.1171
  188MOL0     C24739   8.819   2.656   3.277  0.5491 -0.0861 -0.0392
  188MOL0     C24740   8.904   2.758   3.314 -0.8724  0.2847 -0.4437
  188MOL0     C24741   8.878   2.883   3.272  0.0463 -1.4721 -0.1030
  188MOL0     O24742   8.972   2.974   3.314 -0.1778 -0.2512  0.0513
  188MOL0     C24743   8.990   3.100   3.244  0.5645  0.2444 -0.8210
  188MOL0     C24744   9.085   3.071   3.132 -1.0072  0.2426 -0.4655
  188MOL0     C24745   9.177   3.189   3.089  0.0835  0.5010 -0.5446
  188MOL0     C24746   9.280   3.228   3.200 -0.4270 -0.6807 -0.1485
  188MOL0     C24747   9.404   3.282   3.143 -0.0208 -0.5499  0.0732
  188MOL0     C24748   9.485   3.316   3.062 -0.1978  0.3338 -0.1557
  188MOL0     C24749   8.760   2.915   3.200 -0.2873 -0.4278  0.8609
  188MOL0     C24750   8.681   2.808   3.163 -0.1337 -0.6062  0.1885
  188MOL0     H24751   8.266   2.722   3.019 -0.8697  0.0429 -7.3964
  188MOL0     H24752   8.077   2.601   2.950  0.5136 -0.1031 -0.4838
  188MOL0     H24753   7.902   2.437   2.873  1.5327  0.7655  0.7979
  188MOL0     H24754   7.879   2.487   3.034  1.5381  1.3213 -0.5252
  188MOL0     H24755   7.783   2.262   3.089  2.6651  1.7709  0.4818
  188MOL0     H24756   7.834   2.204   2.929  1.6023  1.3258 -0.5024
  188MOL0     H24757   7.663   2.332   2.807 -0.1495  0.8357  0.6689
  188MOL0     H24758   7.600   2.410   2.947  2.5481  1.2265  0.5237
  188MOL0     H24759   7.474   2.218   2.865 -1.2585  1.2048  2.5955
  188MOL0     H24760   7.601   2.110   2.916  0.7037  0.3237 -1.5018
  188MOL0     H24761   7.425   2.279   3.102 -1.0221  0.4917 -1.4928
  188MOL0     H24762   7.567   2.183   3.150 -0.3114  3.0046  1.3303
  188MOL0     H24763   7.301   2.088   3.028  0.6989  0.5067 -0.2176
  188MOL0     H24764   7.362   2.063   3.191 -1.8242 -1.7009 -0.2700
  188MOL0     H24765   7.458   1.923   2.944 -4.0160 -2.5490  0.1321
  188MOL0     H24766   7.563   1.938   3.086 -0.8236 -3.8677  0.4311
  188MOL0     H24767   7.371   1.822   3.220 -0.3863  1.6813  0.4068
  188MOL0     H24768   7.448   1.736   3.102  0.4595  1.4094  1.5621
  188MOL0     H24769   7.125   1.938   3.162  0.6328  0.6817 -0.4565
  188MOL0     H24770   6.869   1.876   2.996 -1.8445 -1.2453 -0.6928
  188MOL0     H24771   6.859   1.835   3.159  0.1312  0.2778 -0.4361
  188MOL0     H24772   6.820   1.643   2.936  2.5667  0.2197  1.1624
  188MOL0     H24773   6.699   1.739   3.025  0.7561  0.9508 -2.3229
  188MOL0     H24774   6.721   1.492   3.106 -1.3417  1.2701 -1.3694
  188MOL0     H24775   6.898   1.520   3.122 -0.1366  0.3122  0.6525
  188MOL0     H24776   6.819   1.677   3.312  1.3281  0.3460 -1.9991
  188MOL0     H24777   6.793   1.509   3.340 -2.5375 -1.6752 -0.7745
  188MOL0     H24778   6.392   1.655   3.392  0.2638 -0.3064  0.3871
  188MOL0     H24779   6.232   1.498   3.451  0.7999 -1.1976  0.3998
  188MOL0     H24780   6.041   1.087   3.330  1.1233  2.4168  0.3673
  188MOL0     H24781   5.816   0.997   3.315 -0.5838  2.8405 -0.7717
  188MOL0     H24782   5.561   0.878   3.413  1.3351  0.9176  1.5703
  188MOL0     H24783   5.593   1.023   3.307 -2.4710  0.8285 -0.3417
  188MOL0     H24784   5.407   1.121   3.367  1.7134 -0.3587 -0.6449
  188MOL0     H24785   5.365   1.009   3.498 -0.4368  0.0476 -1.1641
  188MOL0     H24786   5.329   0.812   3.334  0.3863  0.2987  0.7055
  188MOL0     H24787   5.367   0.932   3.209  3.3847  0.3221  1.7161
  188MOL0     H24788   5.125   0.971   3.388 -3.1368 -0.0260 -2.1303
  188MOL0     H24789   5.183   1.046   3.232  0.3151 -2.1677 -2.2596
  188MOL0     H24790   5.043   0.803   3.291  2.0251 -1.4839 -0.2164
  188MOL0     H24791   5.161   0.788   3.163 -2.7800 -0.7843 -2.1753
  188MOL0     H24792   5.043   0.985   3.042 -0.8845 -0.8141 -2.4185
  188MOL0     H24793   4.933   0.991   3.180  0.6305 -0.9381  2.5595
  188MOL0     H24794   4.949   0.755   3.003  3.1920  0.6672  1.1317
  188MOL0     H24795   4.843   0.786   3.153 -1.7305 -1.5202 -0.9084
  188MOL0     H24796   4.762   0.989   3.010  1.0780  0.2354  0.1472
  188MOL0     H24797   4.730   0.837   2.923 -1.4469 -0.9241  3.1189
  188MOL0     H24798   5.706   1.233   3.657 -0.1295 -0.6049 -0.1098
  188MOL0     H24799   5.927   1.337   3.670  0.8506 -2.0437  2.2926
  188MOL0     H24800   6.508   1.176   3.421 -2.4454  0.1594  0.8133
  188MOL0     H24801   6.676   1.344   3.321  0.8220  1.8718  0.3935
  188MOL0     H24802   8.242   2.229   3.071 -0.5010 -0.7101 -1.8875
  188MOL0     H24803   8.460   2.338   3.104 -0.0391 -1.6904 -3.0217
  188MOL0     H24804   8.845   2.562   3.324  0.5744  1.1152  2.5218
  188MOL0     H24805   8.993   2.721   3.365 -1.5875 -1.6029 -0.4683
  188MOL0     H24806   9.024   3.175   3.316 -1.0378 -1.2295  1.6304
  188MOL0     H24807   8.895   3.134   3.203 -0.5066  0.0247  1.3338
  188MOL0     H24808   9.158   2.995   3.163  0.8260  1.8820 -0.6265
  188MOL0     H24809   9.030   3.035   3.044  0.1023  0.4341 -1.2741
  188MOL0     H24810   9.110   3.269   3.056 -1.2940 -0.5445 -0.4042
  188MOL0     H24811   9.234   3.156   3.002 -0.4106  2.3195 -1.6071
  188MOL0     H24812   9.242   3.296   3.276  0.5936 -1.5462  1.1879
  188MOL0     H24813   9.297   3.136   3.257 -1.3988 -1.9465 -1.8068
  188MOL0     H24814   9.540   3.337   2.972  1.6997 -1.3614  0.5325
  188MOL0     H24815   8.720   3.014   3.178 -0.8444 -0.6087  1.0384
  188MOL0     H24816   8.594   2.826   3.101 -0.3060  0.3414  0.6776
  189MOL0     O24817   8.166  10.824   7.566  0.3870 -0.4979 -0.1862
  189MOL0     C24818   8.229  10.919   7.519  0.0022  0.7885  0.6970
  189MOL0     O24819   8.181  11.020   7.447  0.3044  0.3064 -0.5321
  189MOL0     C24820   8.051  11.019   7.418  0.7958  0.3006  0.1030
  189MOL0     C24821   8.011  10.965   7.300 -0.3428 -0.5691 -0.2843
  189MOL0     C24822   7.875  10.957   7.269  0.5944  0.9253 -0.0861
  189MOL0     C24823   7.782  11.011   7.361 -0.5276  0.1970 -0.2794
  189MOL0     O24824   7.646  11.016   7.338  0.1408 -0.0874 -0.5453
  189MOL0     C24825   7.585  10.952   7.221 -0.6719  0.5168 -0.5976
  189MOL0     C24826   7.435  10.978   7.220  0.2697  0.3700 -0.0095
  189MOL0     C24827   7.346  10.885   7.307 -1.0019 -0.0996 -0.6164
  189MOL0     C24828   7.201  10.910   7.303  0.5310 -0.3031 -0.1408
  189MOL0     C24829   7.125  10.787   7.356 -0.2908 -0.4630 -0.4630
  189MOL0     C24830   6.980  10.830   7.375  0.2133  0.5002 -1.0929
  189MOL0     C24831   6.876  10.715   7.399 -0.0872  0.8551  0.1715
  189MOL0     C24832   6.866  10.616   7.283 -0.2095  0.0610 -0.6463
  189MOL0     N24833   6.762  10.523   7.307  0.2360  0.2187  0.0720
  189MOL0     C24834   6.771  10.408   7.379  0.1947 -0.1312  0.5291
  189MOL0     C24835   6.662  10.339   7.346  0.1003 -0.5607  0.9253
  189MOL0     C24836   6.616  10.216   7.408  0.7486 -0.3683  0.4929
  189MOL0     C24837   6.719  10.109   7.392  0.1861 -0.4895 -0.0727
  189MOL0     C24838   6.685   9.978   7.470 -1.1664 -0.5969  0.5973
  189MOL0     C24839   6.558   9.915   7.432  0.4933 -0.3244  0.5199
  189MOL0     O24840   6.550   9.788   7.491  0.1695 -0.1830 -0.7787
  189MOL0     C24841   6.425   9.728   7.501 -0.1622 -0.1119  1.1430
  189MOL0     C24842   6.379   9.686   7.627 -0.7208  0.2890 -1.0314
  189MOL0     C24843   6.256   9.622   7.638  0.1243 -0.2849 -0.0816
  189MOL0     C24844   6.174   9.618   7.530  0.2290 -0.1741  0.0990
  189MOL0     C24845   6.044   9.544   7.541  0.1455  0.3090 -0.1846
  189MOL0     O24846   5.968   9.538   7.428  0.1229 -0.8938  0.5443
  189MOL0     C24847   5.839   9.489   7.432  0.0999 -0.3242 -0.4043
  189MOL0     C24848   5.787   9.382   7.509  0.5891  0.1168 -0.4230
  189MOL0     C24849   5.649   9.342   7.489  0.2694  0.0392  0.9192
  189MOL0     C24850   5.574   9.398   7.383 -0.1578 -0.5656 -0.1636
  189MOL0     O24851   5.447   9.364   7.355 -0.6814 -0.6716 -0.4190
  189MOL0     C24852   5.367   9.296   7.451 -0.6117  0.3049 -0.2676
  189MOL0     C24853   5.225   9.247   7.408 -0.9184 -0.5500 -0.9746
  189MOL0     C24854   5.134   9.371   7.377 -0.3647  0.3750 -0.3144
  189MOL0     C24855   5.003   9.302   7.314 -0.5643  0.0925 -0.9939
  189MOL0     C24856   4.883   9.398   7.330  0.9795 -0.2469  1.0913
  189MOL0     C24857   4.776   9.359   7.229  0.6917 -0.5095  0.5244
  189MOL0     C24858   4.652   9.423   7.272 -0.2515  0.2321 -0.2539
  189MOL0     C24859   4.539   9.342   7.225  0.5578  0.2423  1.6182
  189MOL0    Cl24860   4.548   9.327   7.042  0.5131 -0.0708 -0.2122
  189MOL0     C24861   5.643   9.486   7.298  0.0503 -0.2236  0.5066
  189MOL0     C24862   5.768   9.540   7.326  0.1620  0.2611  0.3850
  189MOL0     O24863   6.014   9.494   7.649 -0.0463 -0.1020  0.4115
  189MOL0     C24864   6.218   9.661   7.403  0.7040 -0.5279 -0.5486
  189MOL0     C24865   6.347   9.712   7.385  0.0847 -0.0981  0.7725
  189MOL0     N24866   6.587  10.425   7.261  0.7376  0.2536  0.6797
  189MOL0     N24867   6.648  10.532   7.235 -0.4160 -0.2769 -0.0147
  189MOL0     C24868   7.816  11.063   7.488  0.1988  0.2834 -0.0579
  189MOL0     C24869   7.952  11.069   7.506 -0.6800  0.3638 -0.0111
  189MOL0     C24870   8.370  10.921   7.550  0.3602  0.1298  0.8409
  189MOL0     C24871   8.432  10.821   7.630  0.2981 -0.4622  0.1917
  189MOL0     C24872   8.570  10.809   7.655 -0.4659 -0.4153 -0.2190
  189MOL0     C24873   8.657  10.906   7.602 -0.2345  0.0734  0.2118
  189MOL0     O24874   8.789  10.911   7.620 -0.4456 -0.3757 -0.0596
  189MOL0     C24875   8.855  10.830   7.722 -0.2733 -0.0974 -0.4789
  189MOL0     C24876   9.010  10.851   7.716  0.0383  0.5414 -1.1680
  189MOL0     C24877   9.046  10.979   7.785  0.3167  0.0274 -0.2199
  189MOL0     C24878   9.199  11.005   7.788 -0.0255  0.4584  0.1489
  189MOL0     C24879   9.241  11.006   7.649 -0.5078  0.4857  0.3617
  189MOL0     C24880   9.283  10.982   7.535  0.1921 -0.3038 -0.5199
  189MOL0     C24881   8.599  11.004   7.521  0.2989 -0.6613 -0.1055
  189MOL0     C24882   8.465  11.015   7.502 -0.3622 -0.1753 -0.0968
  189MOL0     H24883   8.090  10.927   7.235  0.6582  0.5340  0.2517
  189MOL0     H24884   7.853  10.900   7.180  3.1233 -1.2933  0.5919
  189MOL0     H24885   7.598  10.843   7.226  2.1275  0.7511 -0.7641
  189MOL0     H24886   7.629  10.982   7.125  1.4267 -0.9836 -0.1954
  189MOL0     H24887   7.392  10.978   7.120 -0.6806 -1.3350  0.3670
  189MOL0     H24888   7.423  11.078   7.263  2.1801  1.0415 -0.9036
  189MOL0     H24889   7.387  10.901   7.408 -0.2108  0.2975 -0.9892
  189MOL0     H24890   7.361  10.783   7.272 -3.9241 -0.7378 -0.2512
  189MOL0     H24891   7.184  11.002   7.360  0.7523  0.5260 -1.3771
  189MOL0     H24892   7.167  10.921   7.199 -0.3016 -1.8852 -0.0718
  189MOL0     H24893   7.170  10.755   7.451  1.3225  6.1908  1.5917
  189MOL0     H24894   7.126  10.703   7.286 -0.6363 -1.9003  1.1833
  189MOL0     H24895   6.945  10.887   7.289 -1.0014  2.7310  0.7846
  189MOL0     H24896   6.967  10.893   7.464 -1.6684  0.5200 -1.3470
  189MOL0     H24897   6.906  10.658   7.487 -0.6919  0.9854  0.4693
  189MOL0     H24898   6.778  10.760   7.420 -0.6051  0.5528 -1.4562
  189MOL0     H24899   6.958  10.556   7.279  0.3106  0.3708  3.1410
  189MOL0     H24900   6.855  10.677   7.193 -1.8627  1.5455  0.4915
  189MOL0     H24901   6.844  10.384   7.456  1.9390  0.4420 -0.8789
  189MOL0     H24902   6.527  10.188   7.350 -0.1776  2.1509  0.5816
  189MOL0     H24903   6.584  10.242   7.509  0.7041  1.8316 -0.0195
  189MOL0     H24904   6.814  10.140   7.437 -1.5669  1.4361  2.5963
  189MOL0     H24905   6.732  10.096   7.284 -0.3574  2.1009 -0.5125
  189MOL0     H24906   6.770   9.915   7.443  0.5842  2.3485 -1.3698
  189MOL0     H24907   6.699   9.988   7.578  1.1797 -4.0493  0.7617
  189MOL0     H24908   6.544   9.908   7.324  0.3222 -0.2200  0.5336
  189MOL0     H24909   6.476   9.975   7.472  0.3968  1.1308 -1.6981
  189MOL0     H24910   6.453   9.694   7.706  0.0883 -0.7315 -1.6563
  189MOL0     H24911   6.222   9.586   7.734 -0.4578  0.3283 -0.0517
  189MOL0     H24912   5.851   9.322   7.575  0.5764  0.1368 -0.3926
  189MOL0     H24913   5.607   9.261   7.548 -1.0495  0.2284  0.2937
  189MOL0     H24914   5.366   9.369   7.532 -1.9573  2.0255 -1.7536
  189MOL0     H24915   5.419   9.207   7.488 -2.0969  0.3574  2.1935
  189MOL0     H24916   5.176   9.189   7.487  0.6718 -2.2937 -1.2043
  189MOL0     H24917   5.245   9.185   7.320 -0.6967  0.9804 -2.0526
  189MOL0     H24918   5.185   9.444   7.313 -1.1442  0.4576 -0.8659
  189MOL0     H24919   5.117   9.422   7.473 -1.4790 -1.7967  0.7175
  189MOL0     H24920   5.026   9.279   7.209 -0.4075  2.5283 -1.5519
  189MOL0     H24921   4.984   9.206   7.363 -0.5133  0.2951 -0.5748
  189MOL0     H24922   4.913   9.501   7.307 -1.9253  0.3614 -0.4243
  189MOL0     H24923   4.850   9.414   7.433 -0.6827 -0.6207  0.6480
  189MOL0     H24924   4.756   9.252   7.225  1.0393 -0.6071  1.2401
  189MOL0     H24925   4.798   9.394   7.128 -1.2693  0.8166  0.4998
  189MOL0     H24926   4.651   9.433   7.381 -1.0408  0.3075 -0.2596
  189MOL0     H24927   4.633   9.524   7.234 -0.8604 -0.0736 -0.7877
  189MOL0     H24928   4.447   9.395   7.252  0.7820  0.5503  1.7892
  189MOL0     H24929   4.535   9.245   7.277 -1.9394 -0.0453  0.9976
  189MOL0     H24930   5.598   9.528   7.209 -1.0951  2.4651  2.1940
  189MOL0     H24931   5.798   9.626   7.267 -3.8807  1.5874 -0.0027
  189MOL0     H24932   6.147   9.665   7.321 -1.8130  0.8149  1.5323
  189MOL0     H24933   6.378   9.749   7.288 -0.0799 -0.9327  0.3922
  189MOL0     H24934   7.749  11.090   7.569  0.2251 -2.5899  1.0473
  189MOL0     H24935   8.002  11.100   7.597  1.5023 -2.2032 -0.2294
  189MOL0     H24936   8.370  10.748   7.683  0.0831 -2.5868 -2.7513
  189MOL0     H24937   8.617  10.733   7.718  3.0268  2.2518  0.6995
  189MOL0     H24938   8.835  10.726   7.694 -1.8890  0.2545 -0.7117
  189MOL0     H24939   8.821  10.853   7.823  1.7522 -0.3139  0.3127
  189MOL0     H24940   9.056  10.762   7.761 -2.1624  0.6989  1.7113
  189MOL0     H24941   9.038  10.851   7.610 -2.6765 -0.5244 -1.9525
  189MOL0     H24942   9.010  10.971   7.888  0.9929 -0.8345 -0.0446
  189MOL0     H24943   8.990  11.057   7.732 -0.6438 -0.7949 -0.4348
  189MOL0     H24944   9.217  11.103   7.832  2.9632  0.1182 -0.1337
  189MOL0     H24945   9.254  10.930   7.845  1.4370 -0.5947 -2.4787
  189MOL0     H24946   9.317  10.962   7.435 -1.0490  1.5038 -1.3566
  189MOL0     H24947   8.669  11.073   7.475 -1.4264  1.0004 -0.4069
  189MOL0     H24948   8.431  11.096   7.439  1.8818  1.2645  0.4245
  190MOL0     O24949   7.895   7.353   5.388 -0.5678 -0.6169  0.0257
  190MOL0     C24950   7.841   7.280   5.300  0.4695 -0.2552  0.1437
  190MOL0     O24951   7.712   7.288   5.263  0.0233  0.6397 -0.4908
  190MOL0     C24952   7.615   7.355   5.325  1.0219 -1.0289  0.5416
  190MOL0     C24953   7.606   7.394   5.459  0.1826 -0.7700  0.1048
  190MOL0     C24954   7.483   7.439   5.514  0.0122  1.0446  0.5924
  190MOL0     C24955   7.370   7.459   5.439  0.3234  0.0752  0.3460
  190MOL0     O24956   7.241   7.491   5.487 -1.3586  0.3892  0.2586
  190MOL0     C24957   7.214   7.472   5.622 -0.7073  0.0779 -0.3900
  190MOL0     C24958   7.070   7.502   5.644  0.5364 -0.0190 -0.3593
  190MOL0     C24959   7.026   7.464   5.789 -0.0066 -0.0774 -0.3789
  190MOL0     C24960   7.077   7.557   5.899  0.9063 -1.1296 -0.3309
  190MOL0     C24961   7.065   7.487   6.040  0.1260 -0.5700  0.6020
  190MOL0     C24962   6.921   7.460   6.067 -0.2293  0.7933 -0.0162
  190MOL0     C24963   6.903   7.444   6.226  0.4463  0.1346 -0.3305
  190MOL0     C24964   6.943   7.312   6.300  0.5893  0.3549 -0.2180
  190MOL0     N24965   6.840   7.209   6.296 -0.0448  0.1042 -0.0938
  190MOL0     C24966   6.805   7.128   6.187 -0.5493  1.2222  0.2872
  190MOL0     C24967   6.698   7.051   6.219 -0.2198 -0.2493 -0.5658
  190MOL0     C24968   6.648   6.946   6.132 -0.5337 -0.4161  0.3089
  190MOL0     C24969   6.553   6.861   6.224  1.1013  0.6824 -0.1348
  190MOL0     C24970   6.499   6.728   6.162 -0.1037  0.3807  0.1145
  190MOL0     C24971   6.389   6.660   6.246  0.8995 -0.1903  0.3910
  190MOL0     O24972   6.349   6.530   6.189 -0.2352 -0.0459  0.5923
  190MOL0     C24973   6.217   6.499   6.205 -0.8855 -0.5322 -0.5257
  190MOL0     C24974   6.181   6.433   6.322 -0.0805 -1.1396  0.4227
  190MOL0     C24975   6.049   6.400   6.341  0.3259  0.2817 -0.5324
  190MOL0     C24976   5.946   6.443   6.247  0.0900 -0.2817  0.3313
  190MOL0     C24977   5.806   6.397   6.260  0.1133  0.3454 -0.2577
  190MOL0     O24978   5.741   6.388   6.143 -0.4384 -0.2160  0.2323
  190MOL0     C24979   5.603   6.384   6.157 -0.2326  0.4018 -0.3344
  190MOL0     C24980   5.521   6.279   6.200 -0.4321  0.0888 -0.0876
  190MOL0     C24981   5.380   6.286   6.210 -0.4830  0.1428  0.5455
  190MOL0     C24982   5.313   6.398   6.156 -1.1695 -0.2137 -0.4011
  190MOL0     O24983   5.183   6.400   6.167  0.3088 -0.7213  0.4696
  190MOL0     C24984   5.114   6.514   6.225  0.4229  0.1724  0.5040
  190MOL0     C24985   5.007   6.565   6.123 -0.2993  0.8288 -0.3246
  190MOL0     C24986   5.060   6.619   5.983  0.1877 -0.7749  0.3225
  190MOL0     C24987   4.947   6.611   5.875 -0.0015 -0.2435  0.4713
  190MOL0     C24988   4.823   6.691   5.908  0.0796  0.5816  0.0727
  190MOL0     C24989   4.846   6.840   5.947 -0.1471  0.8499 -0.0181
  190MOL0     C24990   4.712   6.905   5.979  0.6166 -0.4608  0.1646
  190MOL0     C24991   4.631   6.935   5.857  0.0746  0.8382 -0.3955
  190MOL0    Cl24992   4.527   7.077   5.890 -0.0405  0.1727  0.2179
  190MOL0     C24993   5.395   6.500   6.099 -1.1504 -0.0169  0.5210
  190MOL0     C24994   5.535   6.492   6.113  0.2009  0.7006  1.0951
  190MOL0     O24995   5.755   6.379   6.366 -0.1093 -0.2489 -0.0674
  190MOL0     C24996   5.989   6.504   6.121 -0.7529 -0.2033 -1.0212
  190MOL0     C24997   6.125   6.531   6.106 -0.6420 -0.5797  0.0649
  190MOL0     N24998   6.668   7.081   6.348  0.2510 -0.4609  0.4306
  190MOL0     N24999   6.751   7.173   6.393  0.4449 -0.5680  0.4032
  190MOL0     C25000   7.382   7.429   5.301  0.1828 -0.5376  0.3263
  190MOL0     C25001   7.494   7.373   5.250 -0.4568  0.6940 -0.3907
  190MOL0     C25002   7.917   7.191   5.214 -0.6843 -0.7265  0.1338
  190MOL0     C25003   7.855   7.101   5.124  0.0979  1.8628 -0.7068
  190MOL0     C25004   7.929   7.014   5.042  0.1874 -0.2745  0.2762
  190MOL0     C25005   8.071   7.028   5.042 -0.6610  0.1878  0.1978
  190MOL0     O25006   8.131   6.934   4.953  0.3878 -0.1342 -0.0236
  190MOL0     C25007   8.276   6.918   4.939 -0.9251 -0.6011 -0.2666
  190MOL0     C25008   8.344   6.849   5.058 -0.0329  0.5291 -0.0176
  190MOL0     C25009   8.498   6.830   5.054  0.1667  0.0843  0.8697
  190MOL0     C25010   8.593   6.913   5.141 -0.1837 -0.4555 -0.3362
  190MOL0     C25011   8.569   7.055   5.102 -0.6544  0.1858  0.7374
  190MOL0     C25012   8.547   7.167   5.054 -0.6224  0.4850 -1.3312
  190MOL0     C25013   8.135   7.123   5.122  0.3918 -0.3941  0.0205
  190MOL0     C25014   8.059   7.201   5.210  0.1912 -0.4047 -0.2121
  190MOL0     H25015   7.689   7.383   5.529 -1.7592  3.2828  3.5076
  190MOL0     H25016   7.491   7.456   5.621  1.4389  1.3908  0.4509
  190MOL0     H25017   7.284   7.531   5.681  2.5301 -3.8428  0.1407
  190MOL0     H25018   7.236   7.367   5.642  1.5621  0.5029 -0.3119
  190MOL0     H25019   7.000   7.452   5.577 -3.1995  0.7717  2.5863
  190MOL0     H25020   7.046   7.609   5.637 -3.3964 -0.5935  1.2678
  190MOL0     H25021   7.069   7.369   5.822 -1.0194  0.2330  2.0400
  190MOL0     H25022   6.917   7.466   5.800  0.1379 -0.2896  1.2558
  190MOL0     H25023   7.177   7.587   5.868 -0.4191  2.0228 -2.0602
  190MOL0     H25024   7.032   7.656   5.907  1.4875 -0.9987  2.4806
  190MOL0     H25025   7.101   7.560   6.114  1.2819 -1.2926  0.7726
  190MOL0     H25026   7.118   7.393   6.057 -0.3442 -0.4924  2.8338
  190MOL0     H25027   6.902   7.362   6.022  3.2143 -0.9696  1.9765
  190MOL0     H25028   6.859   7.538   6.022 -3.1015 -1.7865 -0.8660
  190MOL0     H25029   6.952   7.525   6.281 -1.2766  1.0453 -0.0494
  190MOL0     H25030   6.798   7.455   6.257  0.5808 -2.0763  1.1541
  190MOL0     H25031   6.955   7.341   6.405 -1.7862  0.2186  0.1341
  190MOL0     H25032   7.036   7.282   6.250  0.7408 -0.1783  0.3732
  190MOL0     H25033   6.866   7.138   6.099  0.2778  3.5350  1.0465
  190MOL0     H25034   6.724   6.882   6.086 -0.6617  0.0879 -0.6367
  190MOL0     H25035   6.592   6.991   6.049  3.5757  0.2327 -2.3998
  190MOL0     H25036   6.466   6.924   6.245  2.1208  1.5226  1.8110
  190MOL0     H25037   6.605   6.830   6.315 -1.6927 -2.4053  0.6464
  190MOL0     H25038   6.451   6.758   6.068 -3.3866  0.8602  1.7993
  190MOL0     H25039   6.584   6.661   6.145  1.3844  2.1698  0.1785
  190MOL0     H25040   6.300   6.723   6.246  0.9479  0.0374 -3.0684
  190MOL0     H25041   6.434   6.648   6.346  2.0671 -0.6543 -0.1721
  190MOL0     H25042   6.251   6.426   6.404 -2.0111 -0.0765  2.2402
  190MOL0     H25043   6.023   6.345   6.432 -0.1193  3.0407  1.1252
  190MOL0     H25044   5.575   6.189   6.227 -0.7338  0.0042  0.2435
  190MOL0     H25045   5.324   6.206   6.257 -1.2244  1.4633  2.0001
  190MOL0     H25046   5.192   6.588   6.242  1.2105 -0.0092 -1.8838
  190MOL0     H25047   5.062   6.484   6.316  1.2333  0.1505  0.9715
  190MOL0     H25048   4.953   6.647   6.172 -0.1642  0.5369  0.3305
  190MOL0     H25049   4.936   6.485   6.099 -0.5083  1.9074 -3.8189
  190MOL0     H25050   5.138   6.546   5.959 -0.5216 -2.8920  3.7026
  190MOL0     H25051   5.091   6.722   5.998 -0.3177 -0.8243  1.8813
  190MOL0     H25052   4.990   6.648   5.781  0.6117 -2.4472 -0.1907
  190MOL0     H25053   4.917   6.507   5.856 -0.0656  0.1099 -1.7008
  190MOL0     H25054   4.772   6.634   5.986 -1.2855 -0.3011 -1.4013
  190MOL0     H25055   4.749   6.685   5.827  1.0745  0.8810 -0.8809
  190MOL0     H25056   4.898   6.892   5.866  2.1877 -0.4376  0.5625
  190MOL0     H25057   4.904   6.837   6.039  1.3165  1.9371 -0.8771
  190MOL0     H25058   4.650   6.851   6.051  2.4773  0.9840  3.0439
  190MOL0     H25059   4.735   7.001   6.026  4.9589 -0.0116 -2.2961
  190MOL0     H25060   4.567   6.855   5.818  0.9984 -0.8916  1.4373
  190MOL0     H25061   4.687   6.963   5.767 -0.6730  1.1756 -0.7632
  190MOL0     H25062   5.361   6.586   6.043 -0.6817 -1.6052 -2.3961
  190MOL0     H25063   5.598   6.570   6.070  1.6087 -1.3707 -0.8292
  190MOL0     H25064   5.910   6.520   6.048 -1.9483 -0.6538  0.1283
  190MOL0     H25065   6.168   6.573   6.016  0.7295  1.6869  1.6609
  190MOL0     H25066   7.292   7.432   5.240  1.6609 -2.1200 -2.0968
  190MOL0     H25067   7.495   7.342   5.146 -1.0067  0.4915 -0.3355
  190MOL0     H25068   7.748   7.086   5.128  0.1239  1.9115  0.4621
  190MOL0     H25069   7.884   6.943   4.973  1.8932 -0.3129 -0.8584
  190MOL0     H25070   8.322   7.017   4.939 -3.7324  0.8029  0.5911
  190MOL0     H25071   8.299   6.860   4.850 -0.0326  0.3744 -0.6939
  190MOL0     H25072   8.330   6.913   5.145 -0.4169 -0.1157  0.4009
  190MOL0     H25073   8.303   6.752   5.088  1.3201  0.7184  2.7375
  190MOL0     H25074   8.523   6.837   4.948 -1.9439  0.0218  0.3206
  190MOL0     H25075   8.510   6.728   5.092  1.2412 -0.7500 -1.5489
  190MOL0     H25076   8.571   6.901   5.248  0.0387 -2.2345 -0.4512
  190MOL0     H25077   8.696   6.882   5.122  0.6211 -2.1904  5.0252
  190MOL0     H25078   8.542   7.271   5.029 -1.5270  0.6005 -0.7175
  190MOL0     H25079   8.243   7.124   5.107  0.3085 -0.1317 -0.5716
  190MOL0     H25080   8.114   7.257   5.285 -2.8934 -0.1251  2.0520
  191MOL0     O25081   2.787   2.557   0.280  0.4250 -0.4534 -0.3770
  191MOL0     C25082   2.783   2.591   0.396  0.1856 -0.4019  0.2185
  191MOL0     O25083   2.661   2.632   0.458  0.4299 -0.0068 -0.2056
  191MOL0     C25084   2.540   2.650   0.388  0.4425  0.1861 -0.4069
  191MOL0     C25085   2.525   2.699   0.251  0.1691  0.3142  0.7799
  191MOL0     C25086   2.393   2.707   0.200  0.6717  0.9796  0.4278
  191MOL0     C25087   2.274   2.666   0.271 -0.0220  0.3064 -0.9382
  191MOL0     O25088   2.153   2.678   0.205 -0.1466 -0.2512 -0.0114
  191MOL0     C25089   2.043   2.605   0.259  0.1476  0.6163  0.8378
  191MOL0     C25090   1.922   2.625   0.162  0.3497  0.0427  0.1713
  191MOL0     C25091   1.791   2.587   0.235  0.2115  0.4541  0.1237
  191MOL0     C25092   1.673   2.615   0.138 -0.5516 -0.5539  0.2417
  191MOL0     C25093   1.550   2.525   0.181 -0.6157 -0.2558 -0.8688
  191MOL0     C25094   1.415   2.563   0.120  0.4176  0.3270  0.0398
  191MOL0     C25095   1.316   2.445   0.130 -0.3908 -0.1698  0.3231
  191MOL0     C25096   1.177   2.488   0.105 -0.0643  0.0588 -0.7643
  191MOL0     N25097   1.087   2.377   0.126  0.3126  0.9919  0.0990
  191MOL0     C25098   1.040   2.333   0.247  1.4794 -0.3441  0.1661
  191MOL0     C25099   0.959   2.229   0.211 -0.1177 -0.3762  0.2186
  191MOL0     C25100   0.886   2.145   0.319 -0.4031  0.6552 -0.2916
  191MOL0     C25101   0.744   2.090   0.289  1.0457  0.0210  0.1261
  191MOL0     C25102   0.639   2.185   0.233  0.1570  1.4756 -1.6497
  191MOL0     C25103   0.504   2.130   0.222  0.0053 -0.0317 -0.4088
  191MOL0     O25104   0.507   2.010   0.144 -0.1186  0.1612  0.2277
  191MOL0     C25105   0.382   1.946   0.134  0.2475 -0.3344 -0.6165
  191MOL0     C25106   0.256   2.002   0.170  0.0080 -0.4294 -0.6284
  191MOL0     C25107   0.133   1.932   0.145  0.5464 -0.4867  0.3298
  191MOL0     C25108   0.135   1.805   0.093  0.0606  0.3349 -0.1915
  191MOL0     C25109   0.016   1.722   0.070  0.2335  0.1955  0.2172
  191MOL0     O25110   0.021   1.625  -0.034  0.8663  0.0948 -0.3741
  191MOL0     C25111  -0.099   1.564  -0.073  0.2322 -0.3531 -0.6214
  191MOL0     C25112  -0.156   1.603  -0.195  0.7634 -0.2124 -0.9736
  191MOL0     C25113  -0.278   1.543  -0.239 -0.0262  0.0451 -0.4262
  191MOL0     C25114  -0.346   1.455  -0.157  0.5284 -0.0657 -0.0379
  191MOL0     O25115  -0.475   1.409  -0.185  0.0174 -0.4214 -0.0972
  191MOL0     C25116  -0.503   1.272  -0.149  0.2078 -1.0467  0.1154
  191MOL0     C25117  -0.610   1.214  -0.249  0.4718  0.1842 -0.6074
  191MOL0     C25118  -0.626   1.066  -0.234  0.3520 -0.6997  0.2685
  191MOL0     C25119  -0.743   1.019  -0.325 -0.2517 -0.6676 -0.3783
  191MOL0     C25120  -0.787   0.878  -0.282 -0.2459 -0.1883  0.2922
  191MOL0     C25121  -0.885   0.828  -0.388  0.2523  0.2849 -0.7172
  191MOL0     C25122  -0.964   0.703  -0.344 -0.0844  0.0826 -0.3220
  191MOL0     C25123  -1.056   0.673  -0.465  0.5794 -0.0192 -0.9845
  191MOL0    Cl25124  -1.122   0.507  -0.450 -0.3203 -0.3760  0.2661
  191MOL0     C25125  -0.293   1.421  -0.031 -0.4946 -0.0942  0.3905
  191MOL0     C25126  -0.169   1.477   0.006  0.1976 -0.8925 -0.8149
  191MOL0     O25127  -0.094   1.757   0.129  0.6136  0.2864 -0.0209
  191MOL0     C25128   0.258   1.756   0.052 -0.2097  0.2665 -0.1451
  191MOL0     C25129   0.385   1.820   0.075  0.5637  0.7510 -0.1583
  191MOL0     N25130   0.973   2.211   0.076  0.0082 -0.0472 -0.6542
  191MOL0     N25131   1.039   2.303   0.021 -0.2595 -0.5112 -0.4286
  191MOL0     C25132   2.293   2.621   0.402  0.4814  0.6433  0.3661
  191MOL0     C25133   2.418   2.613   0.456 -0.0803  0.2906 -0.7116
  191MOL0     C25134   2.902   2.578   0.484 -0.8859  0.6829  0.3374
  191MOL0     C25135   3.032   2.580   0.432 -0.3667  0.0940 -0.2975
  191MOL0     C25136   3.139   2.578   0.518 -0.0141  0.6420 -0.2144
  191MOL0     C25137   3.128   2.582   0.657  0.0226  0.7643 -0.2226
  191MOL0     O25138   3.236   2.576   0.745 -0.2556 -0.4157 -0.3090
  191MOL0     C25139   3.341   2.663   0.705  0.2372  0.2765  0.2678
  191MOL0     C25140   3.453   2.680   0.801 -0.0193  0.0963 -0.7747
  191MOL0     C25141   3.575   2.745   0.727  0.3346 -0.1761  0.0716
  191MOL0     C25142   3.673   2.815   0.823 -0.1615  0.0685 -0.2822
  191MOL0     C25143   3.793   2.861   0.752 -0.5887  0.2135 -0.2220
  191MOL0     C25144   3.885   2.897   0.688  0.2640 -0.5154  0.8114
  191MOL0     C25145   2.999   2.586   0.709 -0.0946  0.3824 -0.0049
  191MOL0     C25146   2.886   2.577   0.623 -0.9853 -0.3312  0.3188
  191MOL0     H25147   2.607   2.727   0.186  0.7105 -1.6766  0.5503
  191MOL0     H25148   2.382   2.751   0.101 -2.3750  1.8579  1.0591
  191MOL0     H25149   2.021   2.629   0.363  2.1914 -3.0241  2.3214
  191MOL0     H25150   2.058   2.497   0.261 -0.1185  0.5867  1.5682
  191MOL0     H25151   1.935   2.561   0.074  1.1830  0.4990 -0.0441
  191MOL0     H25152   1.912   2.729   0.130  2.8223 -0.2360 -1.7887
  191MOL0     H25153   1.781   2.656   0.320 -3.3786 -0.9737  1.0637
  191MOL0     H25154   1.808   2.484   0.268  1.6092  0.0564 -1.6584
  191MOL0     H25155   1.636   2.719   0.140 -1.1873 -0.7143 -1.4626
  191MOL0     H25156   1.693   2.598   0.032 -1.8124 -0.5808 -0.0108
  191MOL0     H25157   1.545   2.527   0.290 -0.1003  0.8936 -0.8480
  191MOL0     H25158   1.569   2.421   0.152  0.9170 -0.3130  0.2049
  191MOL0     H25159   1.431   2.589   0.015 -0.5161 -2.5116 -0.8981
  191MOL0     H25160   1.374   2.646   0.179 -1.4727  0.9190 -1.9469
  191MOL0     H25161   1.342   2.364   0.061  0.5494 -1.0458  1.6464
  191MOL0     H25162   1.316   2.396   0.228 -0.0148  0.3754  0.5972
  191MOL0     H25163   1.163   2.520   0.001  2.2577 -1.7487 -1.7239
  191MOL0     H25164   1.153   2.567   0.177 -1.6203 -1.3598  0.3632
  191MOL0     H25165   1.066   2.374   0.344  1.2964  2.4919 -0.9065
  191MOL0     H25166   0.870   2.208   0.407 -0.3760  2.6412 -1.6465
  191MOL0     H25167   0.948   2.059   0.347 -0.5166  0.2113 -1.3536
  191MOL0     H25168   0.706   2.043   0.381  1.8692 -2.3204 -0.6596
  191MOL0     H25169   0.755   2.008   0.217 -2.3999 -1.5566  1.1746
  191MOL0     H25170   0.639   2.278   0.291  1.9242  0.9761 -0.7785
  191MOL0     H25171   0.669   2.216   0.132  2.0003  0.8812 -1.3224
  191MOL0     H25172   0.440   2.205   0.175 -1.4220  0.3845  2.0514
  191MOL0     H25173   0.468   2.110   0.323 -0.1688  2.2446  0.0320
  191MOL0     H25174   0.238   2.103   0.207 -1.8303 -0.9357 -0.0445
  191MOL0     H25175   0.039   1.979   0.172  0.9697  0.3051  0.4511
  191MOL0     H25176  -0.098   1.667  -0.261  3.3449 -2.8068 -1.4200
  191MOL0     H25177  -0.314   1.571  -0.338  0.0975 -0.0611 -0.5006
  191MOL0     H25178  -0.546   1.272  -0.049  1.6306  2.1835  0.8799
  191MOL0     H25179  -0.417   1.204  -0.152  0.0516 -1.2207 -0.4915
  191MOL0     H25180  -0.565   1.237  -0.346  3.6971 -0.9885  0.4748
  191MOL0     H25181  -0.705   1.267  -0.236  0.4932 -0.0642  0.6740
  191MOL0     H25182  -0.657   1.058  -0.130  1.8742  0.1723  0.8264
  191MOL0     H25183  -0.536   1.005  -0.249  0.9689 -0.0987  1.4279
  191MOL0     H25184  -0.820   1.096  -0.317  0.6944  0.2499  0.1859
  191MOL0     H25185  -0.706   1.027  -0.427  5.0470  3.3540  1.3936
  191MOL0     H25186  -0.830   0.888  -0.182 -2.7236 -1.8482 -0.5149
  191MOL0     H25187  -0.697   0.816  -0.288  1.7049  2.2548  1.7994
  191MOL0     H25188  -0.830   0.810  -0.481  0.9645 -0.3309 -0.1893
  191MOL0     H25189  -0.954   0.910  -0.410 -2.5333 -0.3412  4.2771
  191MOL0     H25190  -0.895   0.620  -0.326  0.8684 -0.0393 -3.8150
  191MOL0     H25191  -1.024   0.719  -0.254  0.2136 -0.3916 -0.0337
  191MOL0     H25192  -1.008   0.675  -0.564 -0.1406  0.7181 -1.3241
  191MOL0     H25193  -1.133   0.750  -0.471 -0.4266 -1.0041 -0.9791
  191MOL0     H25194  -0.349   1.361   0.040  1.2445 -0.6895  1.3147
  191MOL0     H25195  -0.122   1.462   0.103  1.1093 -0.4083 -1.1714
  191MOL0     H25196   0.258   1.655   0.012  0.5140  0.4632 -0.6609
  191MOL0     H25197   0.481   1.769   0.078  1.2456  1.9382 -0.9869
  191MOL0     H25198   2.207   2.595   0.464  1.1644 -0.7436  0.7907
  191MOL0     H25199   2.426   2.587   0.561  0.9743  0.9111 -0.6245
  191MOL0     H25200   3.044   2.567   0.325 -1.3078 -0.3100 -0.3545
  191MOL0     H25201   3.239   2.557   0.480 -0.8840 -0.9487 -1.7736
  191MOL0     H25202   3.312   2.763   0.672  2.3157  0.9713  0.3587
  191MOL0     H25203   3.386   2.617   0.617 -4.5163 -0.2495 -2.1858
  191MOL0     H25204   3.422   2.727   0.895 -1.3984  1.1827 -1.7346
  191MOL0     H25205   3.483   2.582   0.839  0.6563 -0.5730 -2.9003
  191MOL0     H25206   3.540   2.826   0.662 -0.3217  0.2224  0.9028
  191MOL0     H25207   3.624   2.668   0.667  0.2834  0.1020 -0.3354
  191MOL0     H25208   3.636   2.894   0.888 -0.4975 -0.6472  0.4071
  191MOL0     H25209   3.709   2.737   0.891  0.7711  0.8846  0.1760
  191MOL0     H25210   3.969   2.911   0.623  0.9877 -0.5771  1.7087
  191MOL0     H25211   2.983   2.595   0.816 -0.2083  2.3540 -0.1483
  191MOL0     H25212   2.792   2.579   0.678 -0.0282  1.4834  2.0153
  192MOL0     O25213  10.415   0.511   4.547 -0.6859  0.2690 -0.2774
  192MOL0     C25214  10.464   0.583   4.462  0.7943 -0.5568 -0.2090
  192MOL0     O25215  10.415   0.608   4.339  0.0710 -0.3493 -0.9255
  192MOL0     C25216  10.289   0.573   4.298  0.5161  0.0638 -1.0046
  192MOL0     C25217  10.183   0.551   4.384  0.0892  0.0062  1.5262
  192MOL0     C25218  10.054   0.517   4.332 -0.7756  0.4003  0.5380
  192MOL0     C25219  10.036   0.508   4.193 -0.0284  0.5647  0.2169
  192MOL0     O25220   9.912   0.485   4.135  0.3054 -0.1287 -0.0561
  192MOL0     C25221   9.793   0.456   4.205  0.2584  0.1163  0.2936
  192MOL0     C25222   9.680   0.404   4.110 -0.5862  0.2093  0.5259
  192MOL0     C25223   9.550   0.406   4.189 -0.8187  0.6286  0.1917
  192MOL0     C25224   9.440   0.372   4.090 -0.1061 -0.1965  0.9617
  192MOL0     C25225   9.302   0.417   4.145  0.5525  0.6386 -0.2365
  192MOL0     C25226   9.192   0.420   4.037  0.6367  1.0321 -0.1307
  192MOL0     C25227   9.204   0.536   3.932  0.0703  0.0188  0.9949
  192MOL0     C25228   9.087   0.524   3.823 -0.2596  0.9097  1.0217
  192MOL0     N25229   9.104   0.615   3.713 -0.3068 -0.3581  0.2632
  192MOL0     C25230   9.112   0.578   3.579  0.8072 -0.0132  0.6840
  192MOL0     C25231   9.140   0.697   3.522  0.2386 -0.4086  0.2815
  192MOL0     C25232   9.178   0.695   3.374 -0.0259 -0.1446 -0.3679
  192MOL0     C25233   9.325   0.742   3.351 -0.6566  0.1075 -0.2622
  192MOL0     C25234   9.322   0.893   3.314 -0.4092 -1.2377 -0.0036
  192MOL0     C25235   9.458   0.937   3.245  0.3930 -1.0553 -0.0090
  192MOL0     O25236   9.569   0.925   3.332 -0.3277 -0.0267 -0.2603
  192MOL0     C25237   9.616   1.035   3.403  0.4974 -0.2879 -0.7355
  192MOL0     C25238   9.738   1.023   3.477 -0.1917  0.0850  0.6460
  192MOL0     C25239   9.787   1.130   3.553  0.1962 -0.2000 -1.0129
  192MOL0     C25240   9.716   1.245   3.578 -0.8139  0.2002 -0.6896
  192MOL0     C25241   9.765   1.355   3.668 -0.0346 -0.2575 -0.1168
  192MOL0     O25242   9.889   1.347   3.718 -0.4479  0.4576 -0.0476
  192MOL0     C25243   9.942   1.453   3.790  0.8978  0.3849  0.6524
  192MOL0     C25244   9.984   1.418   3.921  0.4410  0.1406  0.0435
  192MOL0     C25245  10.006   1.512   4.019  0.5765 -0.3547  0.1609
  192MOL0     C25246   9.998   1.647   3.977  0.2942  0.1611 -0.4188
  192MOL0     O25247  10.013   1.751   4.068  0.0118 -0.0641  0.1184
  192MOL0     C25248  10.039   1.721   4.200  0.1521  0.0248  0.2007
  192MOL0     C25249  10.066   1.835   4.293 -0.3857 -0.8222  0.5901
  192MOL0     C25250  10.170   1.940   4.241  0.2462 -0.3166  0.0393
  192MOL0     C25251  10.217   2.046   4.339  0.1320 -0.3139  0.7603
  192MOL0     C25252  10.350   2.107   4.310 -0.4668  0.0558 -0.2047
  192MOL0     C25253  10.361   2.248   4.365 -0.2587  0.2270 -0.0112
  192MOL0     C25254  10.504   2.310   4.367  0.9744 -0.7180  0.0532
  192MOL0     C25255  10.506   2.457   4.317 -0.4858  0.0269  0.1783
  192MOL0    Cl25256  10.462   2.567   4.460  0.2079 -0.1396  0.3397
  192MOL0     C25257   9.961   1.675   3.843  0.1747 -0.0927 -0.1822
  192MOL0     C25258   9.935   1.584   3.745  1.0809 -0.1136 -0.3464
  192MOL0     O25259   9.680   1.441   3.699 -0.1227  1.0735  0.4683
  192MOL0     C25260   9.597   1.262   3.505  0.1949  0.9655  0.1879
  192MOL0     C25261   9.545   1.156   3.416  0.0105 -0.7709  0.0798
  192MOL0     N25262   9.120   0.799   3.613 -0.0377 -0.0928 -0.1617
  192MOL0     N25263   9.103   0.749   3.730 -0.6910 -0.1225  0.4448
  192MOL0     C25264  10.143   0.540   4.108 -0.8894  0.7411  0.2266
  192MOL0     C25265  10.269   0.569   4.161  0.3754 -0.3970 -0.0084
  192MOL0     C25266  10.603   0.640   4.482 -0.2455  1.5702 -0.0929
  192MOL0     C25267  10.653   0.639   4.612 -0.6661  0.5090  0.0859
  192MOL0     C25268  10.779   0.698   4.653  0.0242  0.0565 -0.1610
  192MOL0     C25269  10.862   0.744   4.545  1.3069  0.9150 -0.3754
  192MOL0     O25270  10.978   0.811   4.554  0.1057 -0.1862  0.0083
  192MOL0     C25271  11.071   0.775   4.661 -0.4340  0.3187 -0.1823
  192MOL0     C25272  11.172   0.897   4.673  0.0339  0.0378 -0.3550
  192MOL0     C25273  11.290   0.860   4.765  0.3825  0.5146  0.6786
  192MOL0     C25274  11.377   0.983   4.800  0.5489 -0.2875  0.6438
  192MOL0     C25275  11.502   0.945   4.849 -0.4109 -0.8104 -0.1454
  192MOL0     C25276  11.618   0.927   4.885  0.7208 -1.0573 -0.2482
  192MOL0     C25277  10.810   0.733   4.409  0.0186 -0.0238 -0.5106
  192MOL0     C25278  10.681   0.691   4.379 -0.4972  0.8800 -0.4110
  192MOL0     H25279  10.184   0.567   4.492  1.1074 -1.2297  1.7160
  192MOL0     H25280   9.969   0.492   4.394 -0.9643  0.1059  0.1665
  192MOL0     H25281   9.757   0.553   4.239  0.4439  0.8716 -1.5437
  192MOL0     H25282   9.801   0.393   4.294 -1.2258 -1.5602 -0.6843
  192MOL0     H25283   9.704   0.304   4.071 -2.8443  0.3365 -1.3869
  192MOL0     H25284   9.679   0.467   4.022  1.9731  0.7412  0.8051
  192MOL0     H25285   9.541   0.512   4.215  3.6830  1.0085  0.8911
  192MOL0     H25286   9.557   0.338   4.274 -0.8911  1.9760  1.3100
  192MOL0     H25287   9.459   0.425   3.996 -1.5072  0.5236  1.0596
  192MOL0     H25288   9.452   0.267   4.061  2.6766  0.0171  1.0755
  192MOL0     H25289   9.316   0.513   4.196  2.0390  0.7263 -0.7523
  192MOL0     H25290   9.268   0.340   4.214  2.5443  0.5778  0.7556
  192MOL0     H25291   9.094   0.425   4.086 -0.0731 -0.4929 -1.3012
  192MOL0     H25292   9.187   0.326   3.981 -1.0575 -0.3427  2.1558
  192MOL0     H25293   9.196   0.637   3.973 -0.2434  0.8592 -1.0377
  192MOL0     H25294   9.294   0.519   3.872 -0.7939 -1.2667  0.0125
  192MOL0     H25295   8.998   0.552   3.880  0.4262 -0.2937  2.7869
  192MOL0     H25296   9.075   0.424   3.781  2.5883  1.5107 -1.5464
  192MOL0     H25297   9.101   0.478   3.539  0.0475  0.2714  0.1390
  192MOL0     H25298   9.112   0.766   3.323  0.8960 -0.2527 -1.7632
  192MOL0     H25299   9.159   0.597   3.329  1.2094 -0.6923  0.2716
  192MOL0     H25300   9.369   0.683   3.270 -3.0156 -2.5439  0.2165
  192MOL0     H25301   9.382   0.715   3.440 -0.8505  1.3062  0.2456
  192MOL0     H25302   9.237   0.911   3.248  0.0226 -0.3255 -0.3297
  192MOL0     H25303   9.310   0.958   3.402 -1.8067 -0.8302 -0.4686
  192MOL0     H25304   9.449   1.036   3.200 -1.8115 -0.6357  1.2134
  192MOL0     H25305   9.487   0.875   3.160 -0.4349 -0.2890 -0.8794
  192MOL0     H25306   9.799   0.933   3.466  2.1087  1.8497 -2.5544
  192MOL0     H25307   9.878   1.101   3.605 -0.2233 -2.5003 -1.4305
  192MOL0     H25308   9.993   1.316   3.955 -2.7465 -0.0629  0.5505
  192MOL0     H25309  10.021   1.484   4.123  0.7149  1.5591  0.7062
  192MOL0     H25310  10.128   1.657   4.199  0.3021  0.2162 -1.9382
  192MOL0     H25311   9.957   1.674   4.255  0.9270 -0.2255  1.1669
  192MOL0     H25312  10.095   1.809   4.395  0.9821  1.1785  0.7735
  192MOL0     H25313   9.972   1.887   4.314  0.0398 -0.8098  2.6549
  192MOL0     H25314  10.131   1.984   4.149  1.2324  1.7806  0.5832
  192MOL0     H25315  10.259   1.881   4.217  0.5497  1.5954 -4.4948
  192MOL0     H25316  10.142   2.123   4.321 -1.1266 -1.4107  1.1372
  192MOL0     H25317  10.220   2.014   4.444  1.4254  0.2748  0.9152
  192MOL0     H25318  10.372   2.114   4.203  3.5498 -0.7426  0.3960
  192MOL0     H25319  10.426   2.046   4.360 -0.9585 -0.0855  0.3835
  192MOL0     H25320  10.317   2.245   4.465 -4.2727  0.4564 -1.6118
  192MOL0     H25321  10.289   2.313   4.314 -0.4746  0.9587  1.1993
  192MOL0     H25322  10.544   2.313   4.469 -2.8364 -0.7605  1.7425
  192MOL0     H25323  10.571   2.257   4.299 -0.2309 -1.1265 -0.8494
  192MOL0     H25324  10.435   2.470   4.235  0.5153  1.6008 -0.4708
  192MOL0     H25325  10.607   2.482   4.283  0.2124 -1.0672  1.3795
  192MOL0     H25326   9.968   1.777   3.806 -1.2855  0.4958  1.0416
  192MOL0     H25327   9.910   1.610   3.643 -2.0880  1.1470  0.6311
  192MOL0     H25328   9.533   1.350   3.502 -1.5495 -0.2453  0.1863
  192MOL0     H25329   9.448   1.177   3.371 -0.1001 -1.4713 -0.0088
  192MOL0     H25330  10.123   0.551   4.002 -0.6761  3.5970  0.4098
  192MOL0     H25331  10.352   0.593   4.095  0.6520  2.2034  1.1723
  192MOL0     H25332  10.584   0.609   4.690 -0.3329  0.0895  0.2262
  192MOL0     H25333  10.804   0.700   4.758  1.2242  2.5881 -0.4053
  192MOL0     H25334  11.123   0.682   4.636 -0.7675  0.2011 -0.4550
  192MOL0     H25335  11.024   0.749   4.756  0.0153 -1.1710 -0.3417
  192MOL0     H25336  11.210   0.928   4.575  0.0823  1.0378 -0.0349
  192MOL0     H25337  11.118   0.982   4.717 -0.8103 -0.5252 -0.2818
  192MOL0     H25338  11.341   0.787   4.701 -2.4953 -1.4383  0.3953
  192MOL0     H25339  11.254   0.819   4.860 -1.4265 -0.8222 -0.5085
  192MOL0     H25340  11.386   1.035   4.704  0.2873  0.4489  1.0088
  192MOL0     H25341  11.324   1.049   4.869 -2.9952 -3.0114  0.8577
  192MOL0     H25342  11.724   0.925   4.904  0.6031 -1.4439  0.3793
  192MOL0     H25343  10.875   0.761   4.327  0.2500  1.1542  0.0478
  192MOL0     H25344  10.647   0.680   4.277 -1.0661 -0.5995 -0.0886
  193MOL0     O25345   1.970   2.502   7.289 -1.0152  0.3006  0.7957
  193MOL0     C25346   2.051   2.502   7.196 -0.4612 -0.3050 -0.5029
  193MOL0     O25347   2.025   2.571   7.076  0.2577  0.3674 -0.0901
  193MOL0     C25348   1.912   2.644   7.074 -0.3262  0.0433 -0.5421
  193MOL0     C25349   1.908   2.788   7.106  0.0339  0.8968  0.9812
  193MOL0     C25350   1.789   2.859   7.088  0.2682 -0.8651 -0.6680
  193MOL0     C25351   1.674   2.802   7.049  0.4805 -1.5420  0.4691
  193MOL0     O25352   1.569   2.889   7.055 -0.2336 -0.6078 -0.0139
  193MOL0     C25353   1.440   2.855   7.006  0.3004 -0.3210  0.1541
  193MOL0     C25354   1.353   2.985   7.016 -0.0700 -0.2357 -0.2402
  193MOL0     C25355   1.218   2.983   6.942 -0.7312  0.7272  0.7627
  193MOL0     C25356   1.142   3.111   6.965 -0.8819  0.0276 -0.4981
  193MOL0     C25357   1.015   3.100   6.893  0.6050 -0.0218 -1.1362
  193MOL0     C25358   0.928   3.228   6.917 -0.5601 -0.7174  0.4074
  193MOL0     C25359   0.825   3.233   6.801  0.5806 -0.3252 -0.4779
  193MOL0     C25360   0.736   3.353   6.817 -0.2527 -0.1294 -0.3301
  193MOL0     N25361   0.609   3.364   6.744  0.1392  0.2349 -0.0138
  193MOL0     C25362   0.610   3.387   6.609 -0.1251 -0.4676  0.0985
  193MOL0     C25363   0.485   3.342   6.568  0.1087 -0.2530 -0.2816
  193MOL0     C25364   0.424   3.334   6.425 -0.1355  0.1093  0.2639
  193MOL0     C25365   0.298   3.417   6.412 -0.0572  0.6323 -0.3023
  193MOL0     C25366   0.272   3.449   6.265 -0.5047 -0.0084 -0.4530
  193MOL0     C25367   0.355   3.564   6.214  0.0792  0.0823  0.6108
  193MOL0     O25368   0.319   3.687   6.290  0.0020  0.2979  0.7025
  193MOL0     C25369   0.222   3.761   6.235 -0.3009 -0.2861  0.2863
  193MOL0     C25370   0.251   3.862   6.147 -0.3690 -0.7116  0.4660
  193MOL0     C25371   0.151   3.963   6.123 -0.0117 -0.1291 -0.4380
  193MOL0     C25372   0.020   3.955   6.183 -0.2805  0.9192  0.1530
  193MOL0     C25373  -0.076   4.061   6.166  0.0842 -0.0803  0.5932
  193MOL0     O25374  -0.156   4.076   6.272  0.2596  0.2032 -0.2956
  193MOL0     C25375  -0.230   4.196   6.286  1.1452  0.2215 -0.4724
  193MOL0     C25376  -0.313   4.238   6.188 -0.5116 -0.7042  0.1631
  193MOL0     C25377  -0.389   4.352   6.206 -0.5488 -0.4542  0.6107
  193MOL0     C25378  -0.373   4.434   6.325  0.8364 -0.1641  0.6103
  193MOL0     O25379  -0.435   4.559   6.327 -0.5524  0.4315  0.3848
  193MOL0     C25380  -0.449   4.621   6.460  0.2276  0.3150  0.2954
  193MOL0     C25381  -0.551   4.739   6.467 -0.4630  0.1976 -0.5394
  193MOL0     C25382  -0.676   4.684   6.405 -0.5692  0.5208  0.0143
  193MOL0     C25383  -0.794   4.761   6.466  0.5840 -0.1574  0.5883
  193MOL0     C25384  -0.925   4.695   6.426  0.0088 -0.2030  0.5943
  193MOL0     C25385  -1.044   4.784   6.469  0.5443  0.8451 -0.3115
  193MOL0     C25386  -1.174   4.711   6.452  0.1297 -0.0848 -0.3229
  193MOL0     C25387  -1.286   4.808   6.416 -0.1009 -0.0496 -0.1479
  193MOL0    Cl25388  -1.441   4.743   6.369 -0.0456 -0.2156 -0.5828
  193MOL0     C25389  -0.286   4.390   6.426  0.3214 -0.3616  0.4856
  193MOL0     C25390  -0.210   4.275   6.403 -0.1143 -0.0841 -0.4460
  193MOL0     O25391  -0.076   4.134   6.066 -0.5044  0.1695  0.5199
  193MOL0     C25392  -0.006   3.843   6.266 -0.4157 -0.2021  0.2083
  193MOL0     C25393   0.096   3.739   6.289  0.5964 -0.9887  0.6343
  193MOL0     N25394   0.415   3.298   6.678 -0.1137  0.4119 -0.0675
  193MOL0     N25395   0.490   3.318   6.783 -0.0016  0.1086  0.7620
  193MOL0     C25396   1.666   2.669   7.027 -0.5279 -0.8467  0.0190
  193MOL0     C25397   1.787   2.592   7.038 -0.5103 -0.3458  0.3741
  193MOL0     C25398   2.175   2.429   7.198 -0.3667  0.3068 -0.2401
  193MOL0     C25399   2.251   2.399   7.084 -0.2281  0.2689  1.0536
  193MOL0     C25400   2.370   2.321   7.094 -0.1616 -0.0467 -0.8430
  193MOL0     C25401   2.410   2.268   7.215 -0.2834  1.2866 -0.1975
  193MOL0     O25402   2.529   2.206   7.237 -0.6382  0.3038  0.5853
  193MOL0     C25403   2.618   2.192   7.119  0.9353  0.0439 -0.6178
  193MOL0     C25404   2.760   2.140   7.172 -0.0473  0.1889 -0.8850
  193MOL0     C25405   2.743   2.010   7.255 -0.1613  0.3619  0.1110
  193MOL0     C25406   2.725   1.878   7.172  0.1524  0.0374 -0.5357
  193MOL0     C25407   2.856   1.839   7.113  0.3653 -0.9765  0.2352
  193MOL0     C25408   2.973   1.817   7.066 -0.4159  0.1571  0.3075
  193MOL0     C25409   2.335   2.306   7.329 -0.6036 -0.0558 -0.1395
  193MOL0     C25410   2.219   2.387   7.320 -0.4099  0.6951  0.1497
  193MOL0     H25411   1.996   2.846   7.132  0.3175  0.5251  0.8654
  193MOL0     H25412   1.787   2.964   7.116  2.5177 -1.2658  1.2974
  193MOL0     H25413   1.394   2.771   7.060 -1.1520  0.1712 -0.2774
  193MOL0     H25414   1.444   2.825   6.901  1.4641  2.0450 -0.5296
  193MOL0     H25415   1.411   3.071   6.981 -0.6689 -0.0433 -0.7797
  193MOL0     H25416   1.329   3.011   7.119 -2.6034 -0.7935 -0.6171
  193MOL0     H25417   1.161   2.901   6.986  2.8687 -1.4649  1.7519
  193MOL0     H25418   1.237   2.976   6.834  0.3515  0.8041  0.9320
  193MOL0     H25419   1.132   3.118   7.074  0.5066  1.3244 -0.4218
  193MOL0     H25420   1.188   3.205   6.935  0.7239  0.2925  2.4278
  193MOL0     H25421   0.949   3.019   6.927  1.3944  0.4776  1.9023
  193MOL0     H25422   1.039   3.092   6.787 -1.0851  0.8771 -1.6300
  193MOL0     H25423   0.989   3.318   6.913  0.4008 -1.3741 -0.2696
  193MOL0     H25424   0.871   3.231   7.010 -1.3241  2.2206 -0.0518
  193MOL0     H25425   0.860   3.247   6.699  1.5392 -1.8137 -0.3954
  193MOL0     H25426   0.769   3.139   6.809  0.2910 -0.0290  1.8195
  193MOL0     H25427   0.796   3.441   6.793 -0.9056  1.1259  2.2796
  193MOL0     H25428   0.719   3.360   6.925 -0.4536  1.1565 -0.4280
  193MOL0     H25429   0.689   3.424   6.545 -0.9307 -0.7454 -1.1005
  193MOL0     H25430   0.409   3.230   6.399  0.4002  0.4014 -1.3144
  193MOL0     H25431   0.495   3.370   6.350 -0.3927  1.2147  0.5230
  193MOL0     H25432   0.301   3.512   6.467  0.3855 -0.5308  1.8261
  193MOL0     H25433   0.213   3.357   6.447 -1.8273  2.8297 -0.5781
  193MOL0     H25434   0.292   3.365   6.198  1.0865 -0.9886  1.1416
  193MOL0     H25435   0.166   3.472   6.250 -0.4726  0.5690  0.1484
  193MOL0     H25436   0.338   3.583   6.107  0.9456  1.5618  0.7030
  193MOL0     H25437   0.464   3.553   6.216  0.2301  1.2012 -0.3758
  193MOL0     H25438   0.349   3.842   6.105 -0.2104 -1.5885  1.2197
  193MOL0     H25439   0.183   4.046   6.061  0.8797 -0.0584  0.1080
  193MOL0     H25440  -0.317   4.178   6.098 -0.2248 -1.2037  0.4799
  193MOL0     H25441  -0.467   4.387   6.139  1.5713  0.9384 -1.2805
  193MOL0     H25442  -0.349   4.655   6.488  0.0680 -0.6495  2.1755
  193MOL0     H25443  -0.473   4.541   6.531 -2.9480 -0.0914 -1.0817
  193MOL0     H25444  -0.519   4.827   6.409 -0.5369  0.4645 -0.1775
  193MOL0     H25445  -0.556   4.765   6.573  4.0091 -3.6587  0.9590
  193MOL0     H25446  -0.682   4.579   6.438  3.1050 -0.1261 -0.9150
  193MOL0     H25447  -0.669   4.693   6.297 -3.9231  0.2820 -0.3129
  193MOL0     H25448  -0.782   4.760   6.574 -1.6366  1.6814  0.9101
  193MOL0     H25449  -0.788   4.863   6.427 -1.8800 -0.7027 -1.5287
  193MOL0     H25450  -0.945   4.598   6.472 -2.9295  0.4124  0.8155
  193MOL0     H25451  -0.919   4.692   6.317  0.1915  3.4206  0.3739
  193MOL0     H25452  -1.048   4.873   6.406  3.0881  1.2284 -0.0414
  193MOL0     H25453  -1.033   4.819   6.572 -2.2200 -3.0829  1.5727
  193MOL0     H25454  -1.170   4.640   6.369  0.5884 -0.7203  0.2405
  193MOL0     H25455  -1.197   4.666   6.549  0.1081  1.2633  0.3247
  193MOL0     H25456  -1.258   4.869   6.330 -1.1104  1.4256  0.5389
  193MOL0     H25457  -1.316   4.881   6.491  1.9011  1.2415 -0.5024
  193MOL0     H25458  -0.268   4.432   6.525  0.2540  0.2826  0.2332
  193MOL0     H25459  -0.145   4.243   6.484 -1.7754  3.1521  2.4554
  193MOL0     H25460  -0.108   3.829   6.300 -0.7600  1.4261 -0.0861
  193MOL0     H25461   0.081   3.661   6.363 -0.5952 -1.7361 -0.3645
  193MOL0     H25462   1.580   2.615   6.987  0.7638 -2.0593 -1.2324
  193MOL0     H25463   1.789   2.490   7.003 -1.8070  0.6284 -2.9307
  193MOL0     H25464   2.224   2.437   6.987 -0.4596 -0.6450  0.7458
  193MOL0     H25465   2.421   2.294   7.002  1.3390 -1.2160  0.2727
  193MOL0     H25466   2.623   2.292   7.075  1.7326  0.3202  0.0707
  193MOL0     H25467   2.590   2.137   7.028  2.1280 -0.2108 -0.8430
  193MOL0     H25468   2.817   2.120   7.081  0.6809 -0.3062 -0.3211
  193MOL0     H25469   2.809   2.214   7.236  1.0903 -1.6945  0.4896
  193MOL0     H25470   2.656   2.010   7.321  0.3729  2.9922  0.9569
  193MOL0     H25471   2.835   2.016   7.315 -3.0152  2.8442  4.8032
  193MOL0     H25472   2.698   1.800   7.243  2.5370  0.9754  1.6052
  193MOL0     H25473   2.643   1.879   7.100 -0.8247  0.0608  0.5425
  193MOL0     H25474   3.070   1.788   7.029 -0.7360 -2.1430  1.1471
  193MOL0     H25475   2.384   2.291   7.424 -0.9732  1.2329  0.2794
  193MOL0     H25476   2.167   2.409   7.413 -2.3876 -0.7272 -0.5622
  194MOL0     O25477   5.586   9.934   1.641 -0.9279  0.8334  0.4302
  194MOL0     C25478   5.633   9.859   1.732 -0.4273  0.5053  0.7907
  194MOL0     O25479   5.584   9.831   1.849 -0.0957 -0.3864 -0.1958
  194MOL0     C25480   5.479   9.918   1.889  1.1726  0.1906 -0.8263
  194MOL0     C25481   5.497  10.018   1.985 -0.3446 -0.2375 -0.4881
  194MOL0     C25482   5.395  10.088   2.048  0.0127  0.3950 -0.1652
  194MOL0     C25483   5.263  10.065   2.009 -0.4479 -0.5509  0.3033
  194MOL0     O25484   5.160  10.128   2.078 -0.2266 -0.6788  0.3380
  194MOL0     C25485   5.180  10.202   2.200 -0.2835 -0.1977 -0.1605
  194MOL0     C25486   5.045  10.251   2.256 -0.0313  1.4678 -0.3204
  194MOL0     C25487   4.956  10.132   2.317  0.6937  0.0714  0.0172
  194MOL0     C25488   4.812  10.184   2.363 -0.3661  0.1587  0.7127
  194MOL0     C25489   4.765  10.082   2.466 -0.2730  0.4762 -0.2543
  194MOL0     C25490   4.640  10.122   2.540 -0.4793  1.0938  0.7399
  194MOL0     C25491   4.606  10.050   2.675 -1.3946  0.3801  0.6499
  194MOL0     C25492   4.534   9.915   2.645 -0.4128  0.1335  1.1284
  194MOL0     N25493   4.617   9.816   2.580  0.4659  0.4563  0.6273
  194MOL0     C25494   4.612   9.783   2.446  0.3578  0.6267 -0.3893
  194MOL0     C25495   4.719   9.703   2.432  0.0288  0.9865  0.0543
  194MOL0     C25496   4.771   9.664   2.297  0.0844  0.1500 -0.6430
  194MOL0     C25497   4.749   9.513   2.282 -0.2003  0.0866  0.0685
  194MOL0     C25498   4.769   9.461   2.133  0.7388 -1.0133 -0.6837
  194MOL0     C25499   4.903   9.405   2.098 -0.2588 -0.4325 -0.4171
  194MOL0     O25500   5.005   9.505   2.109 -0.1232 -1.1425  0.0239
  194MOL0     C25501   5.129   9.476   2.071 -0.5316 -0.6611  0.8013
  194MOL0     C25502   5.223   9.578   2.070  0.4706  0.0810  1.4305
  194MOL0     C25503   5.353   9.562   2.034 -0.4160  0.4401  1.0113
  194MOL0     C25504   5.399   9.433   2.005 -0.2253 -0.3947 -0.1187
  194MOL0     C25505   5.555   9.409   1.979  0.0175 -0.6910  0.2021
  194MOL0     O25506   5.603   9.282   1.974  0.1707  0.3163  0.1746
  194MOL0     C25507   5.736   9.262   1.966 -0.3034 -0.0186 -1.5672
  194MOL0     C25508   5.819   9.273   1.852  0.0121 -0.5284 -0.2853
  194MOL0     C25509   5.958   9.255   1.852  0.5502 -0.6905 -0.9422
  194MOL0     C25510   6.023   9.226   1.973 -0.1811 -0.3413  0.1118
  194MOL0     O25511   6.155   9.191   1.981 -0.3594 -0.7794  0.1133
  194MOL0     C25512   6.253   9.227   1.880 -0.0248 -0.4697 -0.7501
  194MOL0     C25513   6.388   9.235   1.950 -0.3960  0.2448  0.2628
  194MOL0     C25514   6.412   9.373   2.012 -0.6847  0.1485 -0.3583
  194MOL0     C25515   6.546   9.381   2.083  0.0770 -0.4101 -0.3507
  194MOL0     C25516   6.578   9.531   2.111  1.0959  1.1569 -0.3284
  194MOL0     C25517   6.456   9.614   2.168 -0.4663  0.1623  0.1475
  194MOL0     C25518   6.456   9.760   2.119  0.2659  0.3438  0.1525
  194MOL0     C25519   6.336   9.841   2.150  0.3216  0.3458 -0.2117
  194MOL0    Cl25520   6.186   9.767   2.070 -0.0059  0.0641 -0.3360
  194MOL0     C25521   5.939   9.203   2.089  0.2185 -0.1777  0.5973
  194MOL0     C25522   5.801   9.221   2.085  0.0103 -0.0076 -0.1616
  194MOL0     O25523   5.620   9.513   1.966  0.3005 -0.2391 -0.6421
  194MOL0     C25524   5.307   9.326   1.997  0.0309 -0.3607 -1.4547
  194MOL0     C25525   5.173   9.347   2.037 -0.8579  0.1962  0.8096
  194MOL0     N25526   4.794   9.700   2.547 -0.0105  0.0923 -0.2545
  194MOL0     N25527   4.727   9.765   2.637 -0.2564  0.3749 -0.1528
  194MOL0     C25528   5.238   9.963   1.914 -0.6957 -0.3591  0.4053
  194MOL0     C25529   5.340   9.880   1.862 -0.6530  0.2456 -0.6370
  194MOL0     C25530   5.754   9.785   1.699  0.7420  0.0430  0.2158
  194MOL0     C25531   5.823   9.808   1.574 -0.1724 -0.1613 -0.6944
  194MOL0     C25532   5.939   9.746   1.553  0.4162 -0.2867  1.0425
  194MOL0     C25533   5.996   9.656   1.648 -1.1654 -0.0642 -1.1094
  194MOL0     O25534   6.113   9.592   1.616  0.2092 -0.7429 -0.1500
  194MOL0     C25535   6.221   9.678   1.574 -0.9503  0.9167 -0.0091
  194MOL0     C25536   6.350   9.607   1.603 -0.7070  0.3576 -0.0665
  194MOL0     C25537   6.371   9.477   1.526 -0.5356 -0.7050 -0.2904
  194MOL0     C25538   6.491   9.393   1.583 -0.0139 -0.2076  0.0468
  194MOL0     C25539   6.470   9.255   1.526  0.2804 -0.8424 -0.3540
  194MOL0     C25540   6.452   9.147   1.481 -0.1983  0.0218 -0.6492
  194MOL0     C25541   5.936   9.636   1.767  0.0181  0.0305  0.1446
  194MOL0     C25542   5.815   9.699   1.794  0.3694 -0.3848  0.1899
  194MOL0     H25543   5.598  10.034   2.020 -0.6381 -0.8880  0.6963
  194MOL0     H25544   5.422  10.159   2.125  1.0028 -0.8497  0.6781
  194MOL0     H25545   5.234  10.295   2.178 -5.1942  2.6064 -1.9715
  194MOL0     H25546   5.229  10.139   2.275 -2.8891 -0.3296  1.5588
  194MOL0     H25547   4.997  10.303   2.173  0.3821 -0.5866 -1.9279
  194MOL0     H25548   5.060  10.312   2.346  1.8138  2.6036 -1.3161
  194MOL0     H25549   5.016  10.078   2.390  0.6097 -0.1601 -0.0841
  194MOL0     H25550   4.935  10.069   2.230  0.2600 -0.9271  0.8233
  194MOL0     H25551   4.816  10.278   2.418  0.8581  2.4743 -2.9990
  194MOL0     H25552   4.739  10.191   2.283 -1.5611 -1.6835  1.5793
  194MOL0     H25553   4.840  10.071   2.545 -0.3668  0.8367 -0.1117
  194MOL0     H25554   4.756   9.981   2.425 -0.1363  0.8044 -1.1069
  194MOL0     H25555   4.555  10.099   2.475  0.4537 -0.2439 -0.0531
  194MOL0     H25556   4.641  10.231   2.550 -0.4506  1.0905  0.7861
  194MOL0     H25557   4.702  10.033   2.724 -2.5133  1.8231  3.6107
  194MOL0     H25558   4.549  10.115   2.743 -2.9164 -0.2853  0.0667
  194MOL0     H25559   4.450   9.936   2.579  2.5473  3.1136 -2.1658
  194MOL0     H25560   4.505   9.874   2.742  0.0893 -2.9920  0.0557
  194MOL0     H25561   4.539   9.816   2.373 -0.5823  0.4627  0.4542
  194MOL0     H25562   4.878   9.682   2.288  0.6057 -1.1666  1.9516
  194MOL0     H25563   4.720   9.724   2.220 -2.0270 -2.5310 -1.5050
  194MOL0     H25564   4.647   9.490   2.311 -0.8814  2.2024 -0.4512
  194MOL0     H25565   4.830   9.473   2.344  1.7391  1.3880 -1.4627
  194MOL0     H25566   4.700   9.377   2.124  0.4313 -0.6047 -2.6910
  194MOL0     H25567   4.740   9.537   2.059 -2.5035 -0.4105  1.0522
  194MOL0     H25568   4.896   9.364   1.997 -1.3226  0.9564 -0.9559
  194MOL0     H25569   4.939   9.333   2.171  0.1852 -0.0945 -0.3007
  194MOL0     H25570   5.194   9.675   2.110 -0.5443 -0.0801  1.1001
  194MOL0     H25571   5.419   9.648   2.031 -0.9836  0.8564  0.1055
  194MOL0     H25572   5.770   9.304   1.760 -1.8703  0.1203  0.8615
  194MOL0     H25573   6.011   9.268   1.758  2.4749  1.2259  0.3249
  194MOL0     H25574   6.226   9.315   1.820  0.2006 -2.2845 -3.7170
  194MOL0     H25575   6.255   9.139   1.815 -1.9182 -1.3522  0.2963
  194MOL0     H25576   6.465   9.215   1.874 -0.0261 -0.1689  0.7418
  194MOL0     H25577   6.404   9.156   2.023 -1.8437 -0.2607  0.0600
  194MOL0     H25578   6.333   9.385   2.086 -1.3934 -0.8580 -0.9372
  194MOL0     H25579   6.404   9.447   1.932  0.9487 -1.2473 -1.9117
  194MOL0     H25580   6.555   9.320   2.174 -2.1415 -0.0276  0.1732
  194MOL0     H25581   6.622   9.355   2.009 -1.3392  1.0245 -2.4317
  194MOL0     H25582   6.605   9.570   2.013  0.9940  0.8625 -0.4767
  194MOL0     H25583   6.665   9.550   2.174 -0.0450  1.4063  1.2474
  194MOL0     H25584   6.456   9.608   2.277 -1.1615 -1.9230  0.0795
  194MOL0     H25585   6.361   9.568   2.142  0.6836 -0.9320 -2.4517
  194MOL0     H25586   6.539   9.808   2.172  0.8558 -1.7266  1.2215
  194MOL0     H25587   6.486   9.767   2.014  1.4068 -0.5413  0.3942
  194MOL0     H25588   6.346   9.943   2.114 -0.4057  0.2350 -0.7384
  194MOL0     H25589   6.337   9.852   2.259 -1.2262 -1.0211 -0.0184
  194MOL0     H25590   5.990   9.165   2.177 -0.3110 -0.8722  0.6113
  194MOL0     H25591   5.739   9.215   2.174  1.2194  0.2453  0.7144
  194MOL0     H25592   5.340   9.228   1.965  0.0366 -1.2217  0.9331
  194MOL0     H25593   5.106   9.262   2.029 -2.2774  1.2364  1.2345
  194MOL0     H25594   5.132   9.953   1.893 -0.8937  3.1858 -0.9727
  194MOL0     H25595   5.321   9.804   1.787 -1.2808  0.5217 -0.7646
  194MOL0     H25596   5.787   9.878   1.498 -0.8154 -2.4612 -2.6261
  194MOL0     H25597   5.980   9.771   1.456  0.3328 -1.4640  0.6866
  194MOL0     H25598   6.221   9.774   1.627  1.2555 -0.9301  3.7928
  194MOL0     H25599   6.208   9.693   1.466 -1.0249 -2.6861 -0.6275
  194MOL0     H25600   6.434   9.675   1.588 -0.3240 -0.2617 -0.7957
  194MOL0     H25601   6.359   9.591   1.711  1.9180 -2.0112 -0.5494
  194MOL0     H25602   6.384   9.514   1.424  4.0529  1.6888  0.8655
  194MOL0     H25603   6.286   9.409   1.537 -2.1159  1.1673 -0.3722
  194MOL0     H25604   6.591   9.431   1.561 -0.1067  0.3385  0.5400
  194MOL0     H25605   6.494   9.385   1.692 -0.4772 -0.7700  0.0257
  194MOL0     H25606   6.445   9.044   1.452  1.6791 -0.2700 -0.2025
  194MOL0     H25607   5.992   9.572   1.834  0.3116  0.1706  0.0380
  194MOL0     H25608   5.772   9.685   1.893  2.5152 -3.2632  0.8671
  195MOL0     O25609   1.129   8.443   9.977 -0.1164 -0.4299 -0.1801
  195MOL0     C25610   1.170   8.362   9.891  0.7117  0.0190 -0.0170
  195MOL0     O25611   1.088   8.262   9.837 -0.0692  0.2842  0.3279
  195MOL0     C25612   0.964   8.238   9.896  0.0024 -0.3060  0.4503
  195MOL0     C25613   0.938   8.121   9.966  0.6276  0.6803  0.0606
  195MOL0     C25614   0.811   8.087  10.011 -0.0179 -1.0022  0.0365
  195MOL0     C25615   0.709   8.180   9.997 -0.1293 -0.5722 -0.7486
  195MOL0     O25616   0.587   8.133  10.041 -0.1214  0.4055 -0.5452
  195MOL0     C25617   0.470   8.200  10.012 -0.0953  0.2283  0.6129
  195MOL0     C25618   0.356   8.098  10.030 -0.7201 -0.2103  0.4786
  195MOL0     C25619   0.325   8.050  10.171 -0.1402  0.1933  0.2531
  195MOL0     C25620   0.296   8.162  10.257 -0.8166 -0.6116  0.1422
  195MOL0     C25621   0.227   8.109  10.390  0.2311 -0.4248  0.7750
  195MOL0     C25622   0.326   8.033  10.482 -0.1363  0.4235 -0.1206
  195MOL0     C25623   0.255   7.996  10.622  0.2826 -0.1307  0.6628
  195MOL0     C25624   0.339   7.993  10.751  0.5813 -0.1891  0.7443
  195MOL0     N25625   0.265   7.925  10.867  0.4058 -0.6979 -0.7116
  195MOL0     C25626   0.265   7.799  10.919  0.2647  0.1318  0.5875
  195MOL0     C25627   0.193   7.798  11.033 -0.3605  0.3637  0.5624
  195MOL0     C25628   0.184   7.673  11.127 -0.0688 -0.1433 -0.3295
  195MOL0     C25629   0.137   7.544  11.056 -0.3752  0.0958 -0.4185
  195MOL0     C25630   0.158   7.424  11.156 -0.6059 -1.0783  0.5236
  195MOL0     C25631   0.039   7.409  11.253 -0.3291 -0.6874 -0.0998
  195MOL0     O25632   0.076   7.314  11.358 -0.7417 -0.1390  0.0979
  195MOL0     C25633  -0.020   7.245  11.427  0.4510 -0.4911 -0.2436
  195MOL0     C25634   0.032   7.166  11.530  0.9804  0.2420  0.1585
  195MOL0     C25635  -0.059   7.108  11.631 -0.6043 -0.0682  0.2162
  195MOL0     C25636  -0.204   7.112  11.613  0.1315  0.6921  0.9043
  195MOL0     C25637  -0.293   7.042  11.715  1.2886 -0.3986 -0.2050
  195MOL0     O25638  -0.423   7.083  11.707 -0.1643  0.2314  0.1733
  195MOL0     C25639  -0.518   7.002  11.761  0.4796  0.9581  0.7889
  195MOL0     C25640  -0.515   6.970  11.897 -0.5817 -0.9705  0.0180
  195MOL0     C25641  -0.628   6.893  11.946 -0.1269 -0.3266 -0.3678
  195MOL0     C25642  -0.737   6.861  11.870  0.0675 -0.2379  0.6972
  195MOL0     O25643  -0.854   6.792  11.900  0.0973 -0.4146  0.5839
  195MOL0     C25644  -0.879   6.785  12.039 -0.2568  0.8202  0.7769
  195MOL0     C25645  -0.997   6.696  12.053  0.4356  0.0335 -0.2837
  195MOL0     C25646  -1.019   6.656  12.201  0.0918  0.0061 -0.1680
  195MOL0     C25647  -1.134   6.545  12.196  0.2509  0.2401  0.6814
  195MOL0     C25648  -1.163   6.498  12.334  0.4463 -0.6361  0.0455
  195MOL0     C25649  -1.269   6.387  12.343  0.2280  0.7290 -0.3382
  195MOL0     C25650  -1.302   6.335  12.483 -0.4702  0.5734 -0.4458
  195MOL0     C25651  -1.434   6.387  12.541  0.6128  0.2281  0.2776
  195MOL0    Cl25652  -1.568   6.295  12.488  0.0788  0.2481  0.3812
  195MOL0     C25653  -0.737   6.893  11.733 -0.3886  0.0135 -0.2280
  195MOL0     C25654  -0.629   6.963  11.685  0.8123 -0.1193  0.2322
  195MOL0     O25655  -0.247   6.973  11.806 -0.1199 -0.1666  0.2169
  195MOL0     C25656  -0.253   7.183  11.502 -0.9121  0.8062  0.7641
  195MOL0     C25657  -0.157   7.247  11.412  0.0744  0.8255  0.3827
  195MOL0     N25658   0.134   7.918  11.043  0.3899  0.5180  0.5923
  195MOL0     N25659   0.181   7.994  10.953 -0.0200  0.3235  1.2328
  195MOL0     C25660   0.733   8.299   9.928  0.3177 -0.3836 -0.3919
  195MOL0     C25661   0.855   8.321   9.876  0.4941 -0.1554  0.0259
  195MOL0     C25662   1.299   8.383   9.825 -0.4396  0.8647 -0.1100
  195MOL0     C25663   1.357   8.281   9.737  0.6096  0.0431 -0.1095
  195MOL0     C25664   1.484   8.298   9.678 -0.0157 -0.1169 -1.0636
  195MOL0     C25665   1.563   8.413   9.709  0.4302 -0.0021  0.3145
  195MOL0     O25666   1.694   8.416   9.670 -0.1494  0.0417  0.1076
  195MOL0     C25667   1.758   8.544   9.634 -0.1946 -0.3960  0.2857
  195MOL0     C25668   1.889   8.520   9.548  0.2685  0.4356 -0.8030
  195MOL0     C25669   1.957   8.388   9.573  0.2565  0.3367  0.6668
  195MOL0     C25670   1.898   8.270   9.489  0.5278 -0.4657 -0.1413
  195MOL0     C25671   1.989   8.235   9.377  0.2187 -1.3643 -0.5659
  195MOL0     C25672   2.067   8.197   9.299 -0.9517  0.3243  0.4534
  195MOL0     C25673   1.500   8.515   9.788 -0.1743 -0.2964  0.0104
  195MOL0     C25674   1.382   8.498   9.852  0.4362  0.1938 -0.6154
  195MOL0     H25675   1.026   8.058   9.975  0.9850  1.1946  0.2722
  195MOL0     H25676   0.795   7.989  10.055  2.7392 -0.5370  2.4118
  195MOL0     H25677   0.478   8.229   9.907 -1.9649  0.4969  0.5247
  195MOL0     H25678   0.457   8.296  10.062 -0.8503 -0.2950  1.4504
  195MOL0     H25679   0.390   8.006   9.981  1.8570  0.3849  1.0094
  195MOL0     H25680   0.271   8.141   9.976 -1.7311 -0.4712  1.8182
  195MOL0     H25681   0.402   7.982  10.210  0.2387 -0.6700 -1.8438
  195MOL0     H25682   0.228   8.003  10.152 -1.7037  3.6287 -1.0119
  195MOL0     H25683   0.390   8.208  10.289  1.2189 -3.8102 -0.7723
  195MOL0     H25684   0.219   8.225  10.212  1.3373  0.2003 -2.7019
  195MOL0     H25685   0.137   8.050  10.372 -2.7314  2.9971  3.0389
  195MOL0     H25686   0.198   8.192  10.456 -1.4901 -1.7732  1.7979
  195MOL0     H25687   0.414   8.098  10.493  0.7911 -0.5934 -1.2604
  195MOL0     H25688   0.354   7.941  10.429  0.9361  1.0099 -0.6258
  195MOL0     H25689   0.184   8.076  10.643  0.3060  0.2911 -0.7487
  195MOL0     H25690   0.193   7.909  10.600 -2.4949  1.6128  1.0670
  195MOL0     H25691   0.357   8.099  10.771 -0.8520  0.3914 -0.7788
  195MOL0     H25692   0.434   7.943  10.729  0.7228  0.3495  0.0899
  195MOL0     H25693   0.322   7.711  10.889 -1.0573 -0.3491 -0.6688
  195MOL0     H25694   0.118   7.689  11.213  1.7061 -1.2634  1.3189
  195MOL0     H25695   0.287   7.658  11.161 -0.3345  1.5952  1.4440
  195MOL0     H25696   0.210   7.536  10.974 -1.0028  1.4825 -1.1343
  195MOL0     H25697   0.036   7.557  11.017 -0.9014 -1.2656  0.3973
  195MOL0     H25698   0.171   7.335  11.093 -3.2304 -3.0521  2.5719
  195MOL0     H25699   0.249   7.443  11.214 -1.6265  2.4576  1.2548
  195MOL0     H25700  -0.047   7.376  11.194 -1.1678  2.0980 -0.5591
  195MOL0     H25701   0.012   7.501  11.304  1.2848 -1.1883  1.7714
  195MOL0     H25702   0.140   7.167  11.531  0.9842  1.3471  0.3646
  195MOL0     H25703  -0.008   7.057  11.712  0.3627  0.4693 -0.0310
  195MOL0     H25704  -0.443   7.017  11.963 -0.5058 -0.8016 -0.1861
  195MOL0     H25705  -0.615   6.877  12.052 -1.6721  1.6789  0.1949
  195MOL0     H25706  -0.904   6.880  12.087 -1.7702 -0.2294  2.1744
  195MOL0     H25707  -0.791   6.733  12.078  0.1150 -0.2477 -1.3002
  195MOL0     H25708  -0.991   6.598  12.003 -0.4581 -0.1989  0.0423
  195MOL0     H25709  -1.088   6.744  12.015 -1.1358 -1.7210  1.0956
  195MOL0     H25710  -1.043   6.741  12.265 -1.3867 -1.3966  1.2317
  195MOL0     H25711  -0.930   6.604  12.237  0.2362  1.7335  2.1669
  195MOL0     H25712  -1.222   6.588  12.148 -2.2100 -2.6982  2.1727
  195MOL0     H25713  -1.088   6.467  12.134 -0.3211  0.7385 -0.4037
  195MOL0     H25714  -1.202   6.583  12.390 -1.7531 -1.0099 -0.8453
  195MOL0     H25715  -1.072   6.459  12.382  0.5632 -0.6609 -0.1974
  195MOL0     H25716  -1.216   6.311  12.285  1.6635  2.2540 -1.1028
  195MOL0     H25717  -1.362   6.409  12.290 -0.3375 -1.4721 -0.3630
  195MOL0     H25718  -1.311   6.226  12.489  2.3767  0.3428  2.9395
  195MOL0     H25719  -1.230   6.357  12.563 -1.3856 -3.7139  1.8878
  195MOL0     H25720  -1.449   6.495  12.529 -1.2230 -0.0007  0.2071
  195MOL0     H25721  -1.438   6.381  12.650  0.0038 -1.7736  0.1795
  195MOL0     H25722  -0.812   6.868  11.658  0.1425  0.3573 -0.8861
  195MOL0     H25723  -0.633   6.983  11.578 -0.5286  0.1482  0.3175
  195MOL0     H25724  -0.358   7.204  11.490 -1.2715 -0.8370  0.7783
  195MOL0     H25725  -0.198   7.306  11.331  1.3823  0.6099 -0.4693
  195MOL0     H25726   0.662   8.377   9.903  0.3513 -0.3329 -0.3278
  195MOL0     H25727   0.860   8.405   9.807 -1.3541  0.0602  0.0934
  195MOL0     H25728   1.288   8.203   9.705 -2.0999  3.3065 -2.9628
  195MOL0     H25729   1.529   8.226   9.611 -1.8166 -0.7355 -1.6719
  195MOL0     H25730   1.774   8.602   9.726 -1.8591 -1.8578  1.5840
  195MOL0     H25731   1.679   8.600   9.584 -0.6772 -2.0989 -0.9378
  195MOL0     H25732   1.865   8.539   9.443 -0.3350  0.2251 -0.7110
  195MOL0     H25733   1.949   8.608   9.572 -2.3591  2.4477 -1.0992
  195MOL0     H25734   1.963   8.372   9.682  0.1870  0.2211  0.6544
  195MOL0     H25735   2.059   8.398   9.536  0.5230 -2.5183  0.3905
  195MOL0     H25736   1.903   8.189   9.563  0.7013 -0.9463 -0.6755
  195MOL0     H25737   1.791   8.278   9.473  0.6728  2.1479 -0.1138
  195MOL0     H25738   2.133   8.147   9.231 -0.9667  0.1296  0.5791
  195MOL0     H25739   1.550   8.611   9.802 -1.6374  0.7645 -1.6640
  195MOL0     H25740   1.339   8.582   9.906  0.7303  0.5487 -0.9221
  196MOL0     O25741   6.705   1.425   6.749 -0.4917  0.2710  0.3685
  196MOL0     C25742   6.798   1.423   6.673  0.4128 -0.1751 -0.4614
  196MOL0     O25743   6.821   1.511   6.569 -0.2503 -0.2172 -0.4191
  196MOL0     C25744   6.723   1.596   6.522  0.2343 -0.0096 -0.2400
  196MOL0     C25745   6.754   1.725   6.477 -0.3876  0.0443  0.0958
  196MOL0     C25746   6.662   1.796   6.393  0.8659 -0.4618 -0.5248
  196MOL0     C25747   6.547   1.738   6.347 -0.0260 -0.7238  0.2488
  196MOL0     O25748   6.477   1.793   6.245 -0.4506 -0.6198 -0.1014
  196MOL0     C25749   6.499   1.924   6.189 -0.2054 -0.3691  0.3374
  196MOL0     C25750   6.412   1.957   6.066  0.2421  0.7319  1.0982
  196MOL0     C25751   6.416   1.840   5.957 -0.4972  0.1417  0.0574
  196MOL0     C25752   6.287   1.847   5.874  0.7630 -0.1048  0.0858
  196MOL0     C25753   6.293   1.758   5.754 -1.0010 -0.9377  0.4323
  196MOL0     C25754   6.201   1.809   5.648 -0.6572  0.3098 -0.0986
  196MOL0     C25755   6.195   1.698   5.540 -0.0331 -0.4539  0.1860
  196MOL0     C25756   6.087   1.736   5.435 -0.1471  0.2131  0.6162
  196MOL0     N25757   5.953   1.769   5.496  0.6383 -0.0612  0.3053
  196MOL0     C25758   5.864   1.667   5.538  0.5744 -0.1451 -0.6429
  196MOL0     C25759   5.779   1.735   5.622  0.1585 -0.1065  0.6078
  196MOL0     C25760   5.672   1.678   5.706  0.1599 -0.2820  0.6575
  196MOL0     C25761   5.532   1.743   5.662 -0.4673 -0.2585 -0.3929
  196MOL0     C25762   5.428   1.713   5.775 -0.4090  0.1090 -0.2884
  196MOL0     C25763   5.284   1.747   5.734  0.4133  0.6309  0.4385
  196MOL0     O25764   5.231   1.877   5.763 -1.1146  0.3625 -0.2284
  196MOL0     C25765   5.098   1.887   5.775 -0.1691 -0.8354  0.7497
  196MOL0     C25766   5.002   1.796   5.731 -0.2327  0.3296  0.3827
  196MOL0     C25767   4.859   1.823   5.745 -0.3459  0.0587 -0.2359
  196MOL0     C25768   4.810   1.939   5.820 -0.1855  0.1335 -0.7013
  196MOL0     C25769   4.669   1.965   5.840  0.3380  0.1772 -0.4371
  196MOL0     O25770   4.580   1.864   5.823 -0.3430  0.8662  0.2483
  196MOL0     C25771   4.453   1.904   5.806  0.4357 -0.1821 -0.2119
  196MOL0     C25772   4.419   1.971   5.692  0.2430  1.4079 -0.3350
  196MOL0     C25773   4.287   2.004   5.669 -0.5242 -0.2270  0.7439
  196MOL0     C25774   4.187   1.987   5.763  0.5546  1.0180  0.1278
  196MOL0     O25775   4.056   2.025   5.739  0.0835 -0.1826 -0.3991
  196MOL0     C25776   3.968   1.921   5.696  0.3469  0.7529  0.3102
  196MOL0     C25777   3.830   1.984   5.690  0.5014 -0.1677 -0.5020
  196MOL0     C25778   3.733   1.869   5.646 -0.3627 -0.0655  0.1299
  196MOL0     C25779   3.591   1.916   5.648  0.1635 -0.1729  0.5369
  196MOL0     C25780   3.491   1.799   5.610 -0.3580 -0.6656 -0.0705
  196MOL0     C25781   3.352   1.851   5.631 -0.2136  0.2962 -0.3867
  196MOL0     C25782   3.254   1.733   5.599 -0.0710  0.8411 -0.2013
  196MOL0     C25783   3.116   1.781   5.571 -0.1114  0.3800 -0.5736
  196MOL0    Cl25784   3.000   1.633   5.550  0.2359 -0.0827 -0.3051
  196MOL0     C25785   4.220   1.916   5.876  0.9362  0.2044  0.2970
  196MOL0     C25786   4.351   1.872   5.891  0.7384 -0.0751  0.0976
  196MOL0     O25787   4.641   2.081   5.861 -0.1237  0.4112  0.2034
  196MOL0     C25788   4.913   2.023   5.870  0.4828 -0.2107  0.0304
  196MOL0     C25789   5.053   2.003   5.839  0.6375 -0.0115  0.1158
  196MOL0     N25790   5.811   1.874   5.627 -0.6150 -0.1439 -0.0756
  196MOL0     N25791   5.908   1.893   5.536 -0.4560  0.0515  0.5575
  196MOL0     C25792   6.507   1.612   6.398 -0.0240  0.0010 -0.3212
  196MOL0     C25793   6.598   1.537   6.478  0.6268  0.5843  1.1093
  196MOL0     C25794   6.904   1.317   6.688  0.8910 -0.1158 -0.4398
  196MOL0     C25795   7.021   1.307   6.616  0.0231 -0.1649 -0.4035
  196MOL0     C25796   7.117   1.210   6.649  0.0619 -0.1409 -0.6806
  196MOL0     C25797   7.095   1.113   6.744  0.2052  0.0907 -0.2491
  196MOL0     O25798   7.188   1.021   6.763  0.2579  0.9940 -0.1952
  196MOL0     C25799   7.180   0.935   6.879  0.7171 -0.5338 -0.6854
  196MOL0     C25800   7.092   0.821   6.845  0.0158 -0.7425  0.2924
  196MOL0     C25801   7.038   0.767   6.984 -0.4978  0.5813  0.5819
  196MOL0     C25802   6.915   0.682   6.961  0.3269 -0.9765 -0.2340
  196MOL0     C25803   6.850   0.651   7.090  0.2718  0.0896  0.2961
  196MOL0     C25804   6.777   0.632   7.192 -0.3066  0.9932  0.1934
  196MOL0     C25805   6.980   1.126   6.814  0.0454 -0.0262 -0.4471
  196MOL0     C25806   6.881   1.222   6.791  0.8713 -1.2003  0.1300
  196MOL0     H25807   6.850   1.765   6.508 -0.1066 -1.7623  1.7710
  196MOL0     H25808   6.677   1.894   6.350 -1.4527  1.3991  2.4913
  196MOL0     H25809   6.602   1.928   6.152 -0.1213  0.4976  0.6296
  196MOL0     H25810   6.481   2.002   6.263  1.4821 -0.1416  0.5383
  196MOL0     H25811   6.451   2.050   6.023  1.6542 -0.9327 -1.5061
  196MOL0     H25812   6.309   1.980   6.095 -1.5201 -0.8147 -3.0662
  196MOL0     H25813   6.431   1.743   6.006 -0.4586  1.1162  2.0628
  196MOL0     H25814   6.510   1.856   5.902 -0.9818 -2.4037 -1.7096
  196MOL0     H25815   6.204   1.838   5.945 -0.5505  2.0558 -1.0696
  196MOL0     H25816   6.272   1.950   5.843  1.7939  0.5038  1.4870
  196MOL0     H25817   6.269   1.654   5.780 -1.2973 -0.5907  1.5958
  196MOL0     H25818   6.392   1.756   5.709 -1.5907 -1.1928 -0.9108
  196MOL0     H25819   6.245   1.904   5.615 -3.4656  1.5565 -0.5840
  196MOL0     H25820   6.102   1.832   5.689  0.7415  0.0993  3.8392
  196MOL0     H25821   6.288   1.681   5.486  0.9308  0.3156  1.5355
  196MOL0     H25822   6.169   1.599   5.578  1.3159 -1.3232 -1.0709
  196MOL0     H25823   6.081   1.665   5.352  0.2209 -0.0952  0.8493
  196MOL0     H25824   6.116   1.827   5.382 -1.3910 -0.1569 -0.7645
  196MOL0     H25825   5.883   1.562   5.522  1.3967 -0.4155  1.6608
  196MOL0     H25826   5.711   1.716   5.801  0.5731  2.2276 -0.4305
  196MOL0     H25827   5.674   1.570   5.694 -0.2372 -0.2064 -0.1106
  196MOL0     H25828   5.513   1.696   5.566  0.1919  1.6216 -1.4994
  196MOL0     H25829   5.551   1.851   5.652  2.0043 -0.7494 -1.7245
  196MOL0     H25830   5.438   1.607   5.800 -4.5841 -0.5190 -0.5669
  196MOL0     H25831   5.452   1.780   5.857  2.4861 -0.9618 -0.1241
  196MOL0     H25832   5.237   1.668   5.793 -2.0157  0.8108 -1.1383
  196MOL0     H25833   5.267   1.714   5.632  1.6982 -0.5353  0.5796
  196MOL0     H25834   5.029   1.705   5.678 -1.3051 -1.4981  2.7600
  196MOL0     H25835   4.797   1.745   5.703  2.7688 -1.4093 -2.4550
  196MOL0     H25836   4.500   1.976   5.619 -0.2850  1.4925 -0.9270
  196MOL0     H25837   4.266   2.042   5.569  0.8248 -0.5004  0.3329
  196MOL0     H25838   3.991   1.842   5.768  3.4552  2.4112  1.3813
  196MOL0     H25839   3.998   1.878   5.600 -1.3190 -2.7672  1.2158
  196MOL0     H25840   3.830   2.067   5.619 -0.3452 -1.7134 -2.3933
  196MOL0     H25841   3.809   2.011   5.794 -0.5859 -1.7019 -0.2990
  196MOL0     H25842   3.740   1.796   5.727 -1.0736  1.5952  1.7627
  196MOL0     H25843   3.771   1.823   5.555  1.3636 -0.9515  1.2407
  196MOL0     H25844   3.563   1.944   5.750  0.4562 -4.0466  1.8812
  196MOL0     H25845   3.574   2.003   5.585 -0.6917 -2.7123 -3.0444
  196MOL0     H25846   3.505   1.724   5.688  0.4740 -1.2392 -0.7664
  196MOL0     H25847   3.514   1.764   5.509  1.5148  0.4863 -0.1047
  196MOL0     H25848   3.329   1.932   5.561 -3.3867  0.4192  0.6318
  196MOL0     H25849   3.349   1.888   5.734 -0.6506  4.3926 -1.7057
  196MOL0     H25850   3.293   1.672   5.516 -0.4350  0.4360 -0.0796
  196MOL0     H25851   3.246   1.676   5.692  4.1677  2.1998  1.2273
  196MOL0     H25852   3.113   1.840   5.479  0.0146 -0.0199 -0.8341
  196MOL0     H25853   3.069   1.849   5.643 -1.9182  0.0233 -1.3539
  196MOL0     H25854   4.143   1.896   5.951  1.6510 -2.0467  0.4856
  196MOL0     H25855   4.377   1.814   5.978 -1.3551 -0.9095  0.2261
  196MOL0     H25856   4.895   2.113   5.928  1.8437  1.4199 -1.9332
  196MOL0     H25857   5.135   2.063   5.876 -0.3045  0.2396  1.9184
  196MOL0     H25858   6.417   1.562   6.364  0.1137 -2.0615  2.0769
  196MOL0     H25859   6.566   1.436   6.503  2.6409 -0.1640  0.8603
  196MOL0     H25860   7.040   1.379   6.537  0.6066  0.3630  0.2164
  196MOL0     H25861   7.204   1.195   6.587  0.7814  3.8284 -0.8935
  196MOL0     H25862   7.153   0.983   6.974  1.4806 -2.3014  0.4809
  196MOL0     H25863   7.281   0.895   6.897  0.1261 -1.5892  0.4696
  196MOL0     H25864   7.006   0.859   6.789  1.5422  2.3283 -0.1736
  196MOL0     H25865   7.151   0.751   6.785 -1.0207 -0.5115 -1.0404
  196MOL0     H25866   7.001   0.852   7.042 -1.1294 -0.9836  2.6298
  196MOL0     H25867   7.117   0.723   7.047 -1.3284  2.3728  3.0496
  196MOL0     H25868   6.848   0.721   6.883  0.9380  0.2207 -0.1933
  196MOL0     H25869   6.938   0.586   6.915 -0.0986 -2.6847  2.8565
  196MOL0     H25870   6.719   0.613   7.280 -1.5374  0.2258 -0.7470
  196MOL0     H25871   6.953   1.053   6.889  1.3552  0.9608  1.0483
  196MOL0     H25872   6.787   1.225   6.846  0.7201 -0.0231 -0.1738
  197MOL0     O25873   5.945   0.022   4.683 -0.3351 -1.3871  0.3560
  197MOL0     C25874   6.005   0.072   4.777 -0.2010 -0.2992 -0.5787
  197MOL0     O25875   5.945   0.128   4.890 -0.1601 -0.3397  0.7444
  197MOL0     C25876   5.808   0.121   4.913  0.8423 -0.1645 -0.1073
  197MOL0     C25877   5.712   0.142   4.806 -0.1055  0.1835 -0.4352
  197MOL0     C25878   5.581   0.126   4.829  0.2039 -1.2323 -0.0968
  197MOL0     C25879   5.532   0.088   4.954 -0.7801 -0.0626  0.0783
  197MOL0     O25880   5.395   0.078   4.970 -0.1376 -0.2492  0.5039
  197MOL0     C25881   5.326   0.078   5.093 -0.0548 -1.1035 -0.3733
  197MOL0     C25882   5.176   0.062   5.073  0.5425 -0.3982  0.3366
  197MOL0     C25883   5.111   0.014   5.204  0.4601 -0.2173 -0.0360
  197MOL0     C25884   4.965   0.052   5.179  0.9215 -0.4308  0.0679
  197MOL0     C25885   4.874  -0.006   5.288 -0.4311  0.4498  0.5165
  197MOL0     C25886   4.866  -0.154   5.290  0.3440 -0.0679 -0.0652
  197MOL0     C25887   4.774  -0.207   5.397 -0.0722  0.0088  0.0436
  197MOL0     C25888   4.821  -0.187   5.546  0.4354 -0.6424 -0.5350
  197MOL0     N25889   4.971  -0.216   5.567  0.1396 -0.2686  0.1175
  197MOL0     C25890   5.041  -0.324   5.524  1.0016  0.3956 -0.0660
  197MOL0     C25891   5.168  -0.288   5.518 -0.1202  0.1250 -0.6311
  197MOL0     C25892   5.280  -0.385   5.499  0.3977  0.2720  0.2596
  197MOL0     C25893   5.412  -0.318   5.482 -0.4332 -0.2996  0.7923
  197MOL0     C25894   5.537  -0.407   5.471  0.1548  0.5606  0.3681
  197MOL0     C25895   5.562  -0.507   5.587  0.1342 -0.0202 -0.3856
  197MOL0     O25896   5.589  -0.445   5.710 -0.1175  0.0185  0.5404
  197MOL0     C25897   5.575  -0.517   5.820 -0.4672  0.1250  0.2728
  197MOL0     C25898   5.591  -0.446   5.948 -0.8501 -0.6692  0.2070
  197MOL0     C25899   5.575  -0.513   6.068 -0.0058  0.6379 -0.0435
  197MOL0     C25900   5.534  -0.648   6.070 -0.7586  0.3872  0.0187
  197MOL0     C25901   5.507  -0.721   6.198 -0.1308  0.1474 -0.0762
  197MOL0     O25902   5.409  -0.824   6.199 -0.6324  0.1959  0.0324
  197MOL0     C25903   5.291  -0.790   6.249  0.3842 -0.1892 -0.2172
  197MOL0     C25904   5.242  -0.657   6.277 -0.3756  0.1376  0.3237
  197MOL0     C25905   5.105  -0.641   6.312  0.1422 -0.2135  0.5011
  197MOL0     C25906   5.015  -0.742   6.338 -0.8998  0.8110 -0.6241
  197MOL0     O25907   4.893  -0.724   6.386  0.8098 -0.2903  0.1980
  197MOL0     C25908   4.812  -0.631   6.307  0.2653  0.3336  0.7023
  197MOL0     C25909   4.677  -0.623   6.373  0.2669 -0.2252  0.1305
  197MOL0     C25910   4.599  -0.503   6.314 -0.2251 -0.5749  0.0664
  197MOL0     C25911   4.457  -0.513   6.376 -0.3635 -0.0525 -0.7023
  197MOL0     C25912   4.356  -0.421   6.315 -0.3926  0.0919  0.1921
  197MOL0     C25913   4.218  -0.446   6.380 -0.6504 -0.1947  0.4268
  197MOL0     C25914   4.111  -0.353   6.305 -0.3051  0.1397 -0.6072
  197MOL0     C25915   3.967  -0.392   6.337  0.3098  0.4319 -0.5080
  197MOL0    Cl25916   3.870  -0.249   6.288 -0.3988 -0.0742 -0.0044
  197MOL0     C25917   5.068  -0.869   6.317 -0.2458 -0.6219  0.1780
  197MOL0     C25918   5.197  -0.893   6.269 -0.1535 -0.1064 -0.5060
  197MOL0     O25919   5.571  -0.688   6.295  0.7628  0.1801  0.0499
  197MOL0     C25920   5.520  -0.721   5.950  0.1824  1.1016  0.5197
  197MOL0     C25921   5.549  -0.659   5.830 -0.2693  0.0344 -0.5862
  197MOL0     N25922   5.179  -0.162   5.563  0.3888 -0.8574  0.5412
  197MOL0     N25923   5.067  -0.118   5.600 -0.2238 -0.1880  0.0283
  197MOL0     C25924   5.622   0.067   5.064  0.1765  0.0489  0.3943
  197MOL0     C25925   5.756   0.086   5.045 -0.7296  0.3207 -0.0565
  197MOL0     C25926   6.152   0.104   4.755  0.5633  0.1726  0.5249
  197MOL0     C25927   6.230   0.049   4.646  0.3416 -0.2462  0.1792
  197MOL0     C25928   6.364   0.090   4.623 -0.4965  0.9238 -0.1492
  197MOL0     C25929   6.426   0.191   4.699  0.4513 -1.4267  0.4974
  197MOL0     O25930   6.563   0.224   4.692 -0.3092 -0.5317 -0.2852
  197MOL0     C25931   6.635   0.177   4.576  0.8944  0.5777  0.7893
  197MOL0     C25932   6.772   0.231   4.585  0.5665 -0.2677  0.1306
  197MOL0     C25933   6.877   0.151   4.517  0.9376 -0.3467  0.0842
  197MOL0     C25934   7.024   0.190   4.543  0.4702  0.1606  0.1584
  197MOL0     C25935   7.055   0.318   4.474 -0.3827 -1.3028 -0.4344
  197MOL0     C25936   7.069   0.430   4.439  0.2672  0.3176  0.3470
  197MOL0     C25937   6.345   0.247   4.801 -0.8567  0.3291  1.0849
  197MOL0     C25938   6.211   0.212   4.827 -0.0178 -0.2423  0.2806
  197MOL0     H25939   5.745   0.173   4.707  0.8014  1.1129  0.1407
  197MOL0     H25940   5.511   0.152   4.750 -0.4324  2.5028  1.4631
  197MOL0     H25941   5.355   0.170   5.145  1.0303 -1.8165  0.3484
  197MOL0     H25942   5.368  -0.006   5.150 -0.8965 -2.4439 -1.6704
  197MOL0     H25943   5.153   0.001   4.986 -0.9862  1.6550 -0.7909
  197MOL0     H25944   5.144   0.165   5.055  1.2013 -0.3066 -0.3223
  197MOL0     H25945   5.150   0.057   5.296  0.1744  0.9005 -0.4321
  197MOL0     H25946   5.114  -0.096   5.206 -0.1747 -0.3081 -1.8540
  197MOL0     H25947   4.962   0.161   5.188 -0.2341 -0.5454  1.4338
  197MOL0     H25948   4.927   0.024   5.080 -1.7944 -0.7486  1.1329
  197MOL0     H25949   4.768   0.020   5.277 -1.2567 -2.7066  0.2826
  197MOL0     H25950   4.906   0.032   5.386 -2.4221  2.0417  0.6398
  197MOL0     H25951   4.963  -0.198   5.315 -1.0633 -1.8358  2.8138
  197MOL0     H25952   4.817  -0.175   5.194  0.0202  3.8337 -0.9337
  197MOL0     H25953   4.673  -0.167   5.386  0.6031  1.5192 -1.0518
  197MOL0     H25954   4.764  -0.314   5.377  0.2786 -0.1573  0.7139
  197MOL0     H25955   4.772  -0.260   5.611 -1.2136  0.2126 -0.7788
  197MOL0     H25956   4.790  -0.089   5.585  0.2664 -0.1364 -1.8894
  197MOL0     H25957   4.997  -0.420   5.501 -0.0653  0.6560  0.8095
  197MOL0     H25958   5.254  -0.438   5.406 -2.8388 -0.2439  1.3476
  197MOL0     H25959   5.281  -0.441   5.593 -0.5105 -0.7391 -0.3109
  197MOL0     H25960   5.424  -0.258   5.573  3.1504 -0.0315  0.2917
  197MOL0     H25961   5.410  -0.242   5.404  1.4100 -0.4891  0.5081
  197MOL0     H25962   5.522  -0.466   5.380 -2.5783  0.0001  1.0854
  197MOL0     H25963   5.624  -0.343   5.457  1.4990 -1.5969 -2.0159
  197MOL0     H25964   5.651  -0.563   5.559 -0.2184 -0.2057 -1.1721
  197MOL0     H25965   5.476  -0.575   5.595  1.2555 -1.3153  1.1032
  197MOL0     H25966   5.622  -0.342   5.951  1.3315 -1.2626  0.2003
  197MOL0     H25967   5.591  -0.457   6.160  0.5899 -2.7409  2.0975
  197MOL0     H25968   5.301  -0.568   6.261  1.6501 -1.1864  0.0173
  197MOL0     H25969   5.074  -0.538   6.325  1.1241  0.0381  0.9268
  197MOL0     H25970   4.806  -0.673   6.207  0.6346  0.0211  0.8055
  197MOL0     H25971   4.861  -0.534   6.300  1.9910 -0.5784 -0.8114
  197MOL0     H25972   4.694  -0.607   6.480 -1.3446  1.0995  0.2259
  197MOL0     H25973   4.621  -0.716   6.365  1.8899 -1.1041 -2.1885
  197MOL0     H25974   4.586  -0.501   6.206  0.3113  1.6029 -0.0170
  197MOL0     H25975   4.644  -0.411   6.354 -2.2217 -0.5254  2.4631
  197MOL0     H25976   4.417  -0.614   6.364 -1.7554  0.0806  2.1362
  197MOL0     H25977   4.462  -0.498   6.484  3.9037  1.3393 -0.8920
  197MOL0     H25978   4.347  -0.436   6.207  1.0599  0.6954 -0.0357
  197MOL0     H25979   4.396  -0.321   6.332  1.9599 -0.7425  0.0225
  197MOL0     H25980   4.210  -0.430   6.488 -4.2798 -1.5639  0.4753
  197MOL0     H25981   4.192  -0.551   6.363 -1.0180 -0.6523  3.2669
  197MOL0     H25982   4.131  -0.249   6.333  0.1192 -0.2369  0.5183
  197MOL0     H25983   4.124  -0.355   6.197  0.8018 -0.1424 -0.4783
  197MOL0     H25984   3.940  -0.404   6.442 -0.6793  2.3173 -0.5130
  197MOL0     H25985   3.932  -0.483   6.288 -0.5002 -1.8736  3.8578
  197MOL0     H25986   4.991  -0.942   6.341 -1.7506  1.5437  2.4362
  197MOL0     H25987   5.212  -0.998   6.243 -0.0654  0.4270 -2.8413
  197MOL0     H25988   5.487  -0.824   5.942 -3.6474  2.2824 -1.1850
  197MOL0     H25989   5.527  -0.724   5.745  2.6823 -0.9937 -0.6566
  197MOL0     H25990   5.585   0.043   5.164 -2.7983  0.2010 -0.5587
  197MOL0     H25991   5.824   0.067   5.128 -2.8897 -1.4500  1.4112
  197MOL0     H25992   6.193  -0.022   4.574  2.9427 -0.6542 -0.8678
  197MOL0     H25993   6.401   0.055   4.527 -3.3119 -0.0475 -0.9773
  197MOL0     H25994   6.580   0.211   4.488 -0.4505 -0.0217  1.3608
  197MOL0     H25995   6.641   0.068   4.563 -0.7331  0.7692 -2.8302
  197MOL0     H25996   6.787   0.335   4.556  0.0173  0.7766  3.2586
  197MOL0     H25997   6.797   0.230   4.691 -0.9037 -0.6405  0.5018
  197MOL0     H25998   6.860   0.147   4.408  3.1660  0.5473 -0.3439
  197MOL0     H25999   6.868   0.044   4.539  2.4717 -0.2081  1.5511
  197MOL0     H26000   7.039   0.210   4.650 -0.8685 -1.3871  0.6736
  197MOL0     H26001   7.082   0.109   4.500 -2.0734 -0.6973 -1.9087
  197MOL0     H26002   7.088   0.532   4.411  0.0032  1.1695  2.9716
  197MOL0     H26003   6.395   0.328   4.854  0.3158 -0.0597  0.6039
  197MOL0     H26004   6.148   0.270   4.894  1.6179  0.5280  1.2010
  198MOL0     O26005   0.689   4.420   9.415  0.7668 -0.3010  0.1767
  198MOL0     C26006   0.702   4.306   9.463 -1.2841  0.2271  0.2380
  198MOL0     O26007   0.611   4.232   9.518  0.1342 -0.4834 -0.1492
  198MOL0     C26008   0.483   4.266   9.523  0.5513 -0.9144 -0.0242
  198MOL0     C26009   0.443   4.396   9.568  0.0766  0.5226  0.1371
  198MOL0     C26010   0.307   4.410   9.577  0.5691  0.0313 -0.6647
  198MOL0     C26011   0.208   4.312   9.544  0.0246  0.2044 -0.5711
  198MOL0     O26012   0.078   4.329   9.578 -0.3100 -0.7096  0.6165
  198MOL0     C26013   0.014   4.454   9.534 -0.0303  0.4862  0.7805
  198MOL0     C26014  -0.134   4.458   9.568  0.3608 -0.4622  0.3108
  198MOL0     C26015  -0.201   4.596   9.551  0.0301 -0.7312 -0.5114
  198MOL0     C26016  -0.357   4.598   9.542 -0.4309  0.4446 -0.0753
  198MOL0     C26017  -0.412   4.733   9.500  0.3905 -0.0774  0.0635
  198MOL0     C26018  -0.566   4.721   9.499 -0.7393 -0.1951  0.4026
  198MOL0     C26019  -0.628   4.863   9.493  1.3933  0.5233  0.2743
  198MOL0     C26020  -0.645   4.919   9.347  0.4747 -0.1130 -0.1233
  198MOL0     N26021  -0.525   4.978   9.290 -0.1209 -0.0421  0.3379
  198MOL0     C26022  -0.446   5.071   9.347  0.0336  1.1123 -0.0118
  198MOL0     C26023  -0.330   5.082   9.268  0.0869  0.0595  0.1669
  198MOL0     C26024  -0.217   5.178   9.294 -0.3711  0.1296  0.0729
  198MOL0     C26025  -0.082   5.119   9.339 -0.0054  0.5456 -0.0066
  198MOL0     C26026  -0.020   5.013   9.241  0.5252  0.0825 -0.6069
  198MOL0     C26027   0.113   4.946   9.285  0.2654  0.1576 -0.4969
  198MOL0     O26028   0.069   4.846   9.377  0.0587 -0.6911  0.7144
  198MOL0     C26029   0.155   4.819   9.476 -0.5388  1.3944 -0.4830
  198MOL0     C26030   0.107   4.821   9.606  0.0085  0.6190 -0.4916
  198MOL0     C26031   0.192   4.797   9.716 -0.4725 -0.5377  1.1098
  198MOL0     C26032   0.324   4.759   9.701 -0.5480 -0.2336 -0.0288
  198MOL0     C26033   0.422   4.733   9.811  0.2778  0.4818 -0.3566
  198MOL0     O26034   0.552   4.724   9.775 -0.2069  0.2715  0.2993
  198MOL0     C26035   0.653   4.703   9.870 -0.0028 -0.6900 -0.5922
  198MOL0     C26036   0.654   4.768   9.993 -0.3530 -0.3729 -0.1796
  198MOL0     C26037   0.745   4.729  10.095 -0.0784  0.3203 -0.1200
  198MOL0     C26038   0.843   4.634  10.067 -0.1478 -1.0687 -0.3530
  198MOL0     O26039   0.939   4.604  10.162  0.0851 -0.1960  0.0383
  198MOL0     C26040   0.873   4.554  10.282 -0.4428 -0.3422 -0.2845
  198MOL0     C26041   0.985   4.506  10.381  0.8618 -0.1482  0.4019
  198MOL0     C26042   1.088   4.417  10.312  0.4901  0.2014 -0.0606
  198MOL0     C26043   1.175   4.346  10.415 -0.8856 -0.4130 -0.5914
  198MOL0     C26044   1.281   4.267  10.341  0.1190 -0.4589 -0.2896
  198MOL0     C26045   1.395   4.222  10.425  0.5967 -0.1674 -0.5613
  198MOL0     C26046   1.511   4.157  10.349  0.5337  0.3164  0.4509
  198MOL0     C26047   1.620   4.130  10.447 -0.3868 -0.2570 -0.8673
  198MOL0    Cl26048   1.746   4.043  10.345 -0.1496 -0.1652 -0.1674
  198MOL0     C26049   0.841   4.576   9.937 -0.8140 -0.4125 -0.3733
  198MOL0     C26050   0.750   4.606   9.846  1.0071 -0.3879  0.3794
  198MOL0     O26051   0.379   4.730   9.926  0.5684  0.1194 -0.2362
  198MOL0     C26052   0.367   4.744   9.565  1.0320 -0.3574 -0.4978
  198MOL0     C26053   0.284   4.784   9.459 -0.3514  0.2145 -0.8547
  198MOL0     N26054  -0.351   5.009   9.160  0.8233 -0.2122  0.2268
  198MOL0     N26055  -0.468   4.950   9.167 -0.1052 -0.8895 -0.5829
  198MOL0     C26056   0.251   4.185   9.519 -0.4235  0.1443 -0.3125
  198MOL0     C26057   0.391   4.167   9.508 -0.1156  0.1419  0.2315
  198MOL0     C26058   0.844   4.275   9.487 -0.7457 -0.1901 -0.4557
  198MOL0     C26059   0.951   4.320   9.397  0.5079  0.3682 -0.1280
  198MOL0     C26060   1.084   4.267   9.412 -0.2323 -0.6226 -0.4682
  198MOL0     C26061   1.112   4.190   9.522 -0.0486  0.2983  0.1714
  198MOL0     O26062   1.241   4.159   9.553 -0.2285  0.3772  0.2935
  198MOL0     C26063   1.294   4.068   9.654 -0.3376  0.1129 -0.0409
  198MOL0     C26064   1.443   4.034   9.621  0.4963 -0.1243 -0.3781
  198MOL0     C26065   1.441   3.959   9.487  0.1306  0.4165 -0.3579
  198MOL0     C26066   1.575   3.959   9.415  0.2085  0.0172  0.1333
  198MOL0     C26067   1.679   3.897   9.505  0.5205  0.1185  0.4724
  198MOL0     C26068   1.748   3.836   9.584 -0.2576 -0.3422 -0.2168
  198MOL0     C26069   1.007   4.150   9.610  0.0712  0.4223  0.0708
  198MOL0     C26070   0.881   4.196   9.595  0.1475  0.4591  0.3062
  198MOL0     H26071   0.512   4.479   9.583  0.2504  0.6996 -1.4374
  198MOL0     H26072   0.275   4.498   9.632 -0.3410 -0.2080 -0.7939
  198MOL0     H26073   0.028   4.480   9.428 -2.3801  1.1423  0.5690
  198MOL0     H26074   0.068   4.539   9.576 -0.3814  1.5960 -0.9245
  198MOL0     H26075  -0.138   4.431   9.674 -4.6306 -1.3870  0.1011
  198MOL0     H26076  -0.184   4.381   9.509 -0.6249  0.9952 -0.8338
  198MOL0     H26077  -0.160   4.643   9.461  0.1942 -0.4463 -0.2894
  198MOL0     H26078  -0.181   4.655   9.641 -1.6776 -0.4316 -0.2904
  198MOL0     H26079  -0.379   4.532   9.457 -0.8118  1.9721 -1.2197
  198MOL0     H26080  -0.399   4.567   9.638  1.1028  0.1811  0.5502
  198MOL0     H26081  -0.375   4.773   9.405  1.1667 -1.5969 -0.3122
  198MOL0     H26082  -0.384   4.796   9.585 -0.3681 -1.8149  1.6882
  198MOL0     H26083  -0.598   4.687   9.598  1.3006  1.5149  1.7388
  198MOL0     H26084  -0.606   4.666   9.413  0.0684 -0.5961  0.2739
  198MOL0     H26085  -0.733   4.861   9.524  0.4248  2.6933 -2.4516
  198MOL0     H26086  -0.580   4.931   9.564  1.1688 -1.8419  2.8826
  198MOL0     H26087  -0.713   5.003   9.362  1.9152  0.9254  0.7955
  198MOL0     H26088  -0.694   4.849   9.279 -0.0165 -0.5542  0.6750
  198MOL0     H26089  -0.460   5.121   9.443  0.4633  1.9297 -0.3609
  198MOL0     H26090  -0.248   5.253   9.368  1.6271  1.2417 -0.1447
  198MOL0     H26091  -0.215   5.234   9.199 -1.0311 -0.9573 -0.6017
  198MOL0     H26092  -0.086   5.072   9.438  1.5297  0.3004 -0.0363
  198MOL0     H26093  -0.014   5.204   9.355  0.5960  0.3077 -1.2045
  198MOL0     H26094  -0.095   4.934   9.227 -0.4747  0.0279  3.5389
  198MOL0     H26095  -0.010   5.062   9.144  1.1025  0.8752 -0.1553
  198MOL0     H26096   0.193   5.012   9.319 -0.9087  0.4244  1.9845
  198MOL0     H26097   0.160   4.891   9.202  3.4787  4.5523 -1.9404
  198MOL0     H26098   0.003   4.854   9.608  0.5871  2.7482 -1.7429
  198MOL0     H26099   0.169   4.807   9.821  1.0837 -0.2740  1.4578
  198MOL0     H26100   0.589   4.850  10.022  1.4359  1.1392 -0.2866
  198MOL0     H26101   0.743   4.771  10.195 -1.3830 -0.8719  0.3831
  198MOL0     H26102   0.797   4.478  10.264  0.0961 -0.8096 -0.6330
  198MOL0     H26103   0.836   4.642  10.336  2.0355  1.5991 -1.5492
  198MOL0     H26104   0.928   4.453  10.458 -0.2382  1.0366  0.4410
  198MOL0     H26105   1.049   4.581  10.429  1.5652 -0.6583  0.2838
  198MOL0     H26106   1.155   4.476  10.247 -0.5240  1.4679  0.0106
  198MOL0     H26107   1.029   4.359  10.240  0.8045  1.0448 -1.0285
  198MOL0     H26108   1.222   4.413  10.487  0.3399 -1.4755 -0.3812
  198MOL0     H26109   1.109   4.272  10.460  0.6614 -1.7306 -0.3992
  198MOL0     H26110   1.314   4.319  10.251  0.2887 -0.6251 -0.3257
  198MOL0     H26111   1.238   4.173  10.304  0.2062 -1.4338  1.9141
  198MOL0     H26112   1.346   4.151  10.493 -2.3357  1.7044 -0.5180
  198MOL0     H26113   1.432   4.298  10.494 -0.0531  0.3862 -0.8078
  198MOL0     H26114   1.484   4.072  10.286 -2.2944  1.8659 -0.5984
  198MOL0     H26115   1.549   4.234  10.281  0.9120 -0.3523 -0.1051
  198MOL0     H26116   1.586   4.076  10.536  0.0638  0.8126 -0.0261
  198MOL0     H26117   1.658   4.223  10.489 -0.1348 -0.8619  0.2977
  198MOL0     H26118   0.918   4.507   9.903 -0.6838  0.3216 -1.6261
  198MOL0     H26119   0.750   4.555   9.750  0.9157  1.6180 -0.7408
  198MOL0     H26120   0.466   4.705   9.546  0.9973 -0.6448 -0.1088
  198MOL0     H26121   0.330   4.764   9.363 -0.7192 -0.4690 -0.8947
  198MOL0     H26122   0.185   4.099   9.530  1.3384 -1.3520 -0.8679
  198MOL0     H26123   0.431   4.066   9.503  1.1698  0.6852 -1.8601
  198MOL0     H26124   0.930   4.376   9.307 -0.3251  1.7703  0.8898
  198MOL0     H26125   1.161   4.296   9.341 -0.5373  1.3799 -0.0363
  198MOL0     H26126   1.242   3.972   9.656  1.2014 -0.7645  1.7785
  198MOL0     H26127   1.292   4.117   9.752 -2.0095  1.4185 -0.6746
  198MOL0     H26128   1.497   4.129   9.622 -0.8459  0.7612 -2.7926
  198MOL0     H26129   1.483   3.963   9.694  0.8548 -1.1484 -1.5362
  198MOL0     H26130   1.375   4.008   9.414 -0.9228 -0.6327 -0.1349
  198MOL0     H26131   1.402   3.860   9.511  3.4943 -0.8462  0.5358
  198MOL0     H26132   1.560   3.909   9.318  1.3149  1.2498 -0.7006
  198MOL0     H26133   1.614   4.059   9.393 -0.0815 -0.1435 -1.2131
  198MOL0     H26134   1.819   3.791   9.651 -0.4954 -2.4987 -1.3004
  198MOL0     H26135   1.036   4.085   9.692 -0.6461  0.8378  0.6589
  198MOL0     H26136   0.798   4.177   9.662  0.2386  2.1495  0.9228
  199MOL0     O26137   7.835  10.366   9.783  0.0390  0.3098  0.1019
  199MOL0     C26138   7.910  10.449   9.733 -0.7020 -0.3595 -0.8655
  199MOL0     O26139   7.880  10.558   9.666  0.5022 -0.1663 -0.8422
  199MOL0     C26140   7.743  10.574   9.636 -0.3278  0.4097  0.0991
  199MOL0     C26141   7.651  10.591   9.736  0.8748  0.2090  0.0813
  199MOL0     C26142   7.522  10.625   9.693  0.9933 -0.0170  0.6383
  199MOL0     C26143   7.484  10.620   9.558  1.3870 -0.6918  0.2629
  199MOL0     O26144   7.373  10.689   9.505 -0.2141 -0.1525 -0.6355
  199MOL0     C26145   7.278  10.743   9.602 -0.4179  0.4015  0.2960
  199MOL0     C26146   7.186  10.638   9.655  0.4253 -0.3910 -0.1029
  199MOL0     C26147   7.130  10.547   9.545  0.1641  0.2662 -0.3946
  199MOL0     C26148   7.003  10.622   9.489  0.4029  0.1582 -0.1586
  199MOL0     C26149   6.957  10.556   9.364  0.3122 -0.5428 -1.0043
  199MOL0     C26150   6.836  10.644   9.315  0.1044 -0.3126 -0.4418
  199MOL0     C26151   6.718  10.633   9.410 -0.7021 -0.2050 -0.0014
  199MOL0     C26152   6.584  10.635   9.326  0.5671  0.0071  0.3267
  199MOL0     N26153   6.545  10.773   9.295  0.2751  0.4056  0.6637
  199MOL0     C26154   6.564  10.834   9.170 -0.1327 -0.4953 -0.1917
  199MOL0     C26155   6.510  10.956   9.194  0.8982  0.2012  0.1647
  199MOL0     C26156   6.531  11.072   9.095  0.4737  0.2111 -0.3365
  199MOL0     C26157   6.498  11.029   8.951  0.5611 -0.2697  0.6127
  199MOL0     C26158   6.493  11.157   8.851 -0.0417  0.1020 -1.1942
  199MOL0     C26159   6.375  11.154   8.751  0.1148  0.0229 -0.1707
  199MOL0     O26160   6.258  11.171   8.819  0.4006 -0.0745 -0.8841
  199MOL0     C26161   6.141  11.150   8.757  0.1372 -0.2991 -0.1764
  199MOL0     C26162   6.123  11.152   8.620  0.7975 -0.5418  0.0019
  199MOL0     C26163   5.989  11.134   8.573  0.1614 -0.2340 -0.2330
  199MOL0     C26164   5.881  11.115   8.657  0.1181 -0.5618  0.7311
  199MOL0     C26165   5.742  11.110   8.598  0.5064  0.4870  0.3628
  199MOL0     O26166   5.642  11.134   8.696 -0.0041 -0.0036  0.6809
  199MOL0     C26167   5.511  11.118   8.676  0.1012 -0.6324 -0.2262
  199MOL0     C26168   5.423  11.150   8.777 -0.2553  0.0500 -0.5044
  199MOL0     C26169   5.291  11.123   8.761  0.1178  0.4808  0.6991
  199MOL0     C26170   5.242  11.055   8.651 -0.2971  0.0678  0.2709
  199MOL0     O26171   5.117  11.009   8.654 -0.4376  0.1235  0.0775
  199MOL0     C26172   5.044  11.033   8.530  0.4629 -0.1242  0.2925
  199MOL0     C26173   4.902  11.070   8.577 -0.4576  0.1355  0.4945
  199MOL0     C26174   4.819  11.126   8.459 -0.3672 -0.8344 -0.6684
  199MOL0     C26175   4.674  11.149   8.501  0.4133 -0.3178 -0.8868
  199MOL0     C26176   4.596  11.203   8.379  0.2105 -0.1443 -0.1987
  199MOL0     C26177   4.459  11.261   8.404 -0.6094 -0.5575 -0.2170
  199MOL0     C26178   4.378  11.282   8.280 -0.0227  0.5293 -1.0521
  199MOL0     C26179   4.240  11.331   8.319 -0.2816 -0.7210  0.2448
  199MOL0    Cl26180   4.149  11.335   8.166  0.0245  0.2035  0.3823
  199MOL0     C26181   5.329  11.018   8.551  0.0778 -0.0073 -0.4966
  199MOL0     C26182   5.459  11.038   8.570 -0.6903 -0.5091 -0.3966
  199MOL0     O26183   5.722  11.100   8.473 -0.1902  0.3348  0.4602
  199MOL0     C26184   5.904  11.122   8.793 -0.0965  0.9321  0.2993
  199MOL0     C26185   6.034  11.134   8.841  0.2026 -0.0377 -0.6055
  199MOL0     N26186   6.443  10.965   9.312  0.4766 -0.0686  0.1498
  199MOL0     N26187   6.462  10.854   9.377  0.0225  0.7699  0.3193
  199MOL0     C26188   7.575  10.574   9.465 -0.1301  0.4317 -0.1747
  199MOL0     C26189   7.702  10.559   9.501 -0.7103  0.3467 -1.3124
  199MOL0     C26190   8.053  10.423   9.737 -0.3371 -0.5816  0.8230
  199MOL0     C26191   8.146  10.499   9.660  0.7498  0.5717 -0.2891
  199MOL0     C26192   8.283  10.491   9.690 -0.8405  0.3418  0.6366
  199MOL0     C26193   8.330  10.400   9.794  0.0806  0.7742  0.8949
  199MOL0     O26194   8.470  10.390   9.807 -0.4039  0.0653 -0.2730
  199MOL0     C26195   8.537  10.330   9.916  0.1526  0.6681  0.5437
  199MOL0     C26196   8.548  10.425  10.034 -0.7899  0.2729  0.6223
  199MOL0     C26197   8.628  10.546  10.010  0.0566  0.3708 -0.3446
  199MOL0     C26198   8.669  10.600  10.153  0.4359  0.2833 -1.3002
  199MOL0     C26199   8.774  10.697  10.128  0.6738 -0.3879 -0.7654
  199MOL0     C26200   8.866  10.779  10.121 -0.2551  0.4035  0.3209
  199MOL0     C26201   8.236  10.328   9.866  0.3924  0.0530  0.0319
  199MOL0     C26202   8.099  10.346   9.848 -0.3557  0.6358 -0.1199
  199MOL0     H26203   7.687  10.599   9.838 -0.0538 -1.4417  0.5802
  199MOL0     H26204   7.451  10.640   9.774  1.0283  0.1036  0.6466
  199MOL0     H26205   7.229  10.823   9.545  2.2067  2.0268  0.1824
  199MOL0     H26206   7.323  10.797   9.685  1.7631 -1.8064  0.6399
  199MOL0     H26207   7.096  10.682   9.700  0.9898  1.4487 -0.6984
  199MOL0     H26208   7.243  10.571   9.720 -0.0607  0.7245  1.5410
  199MOL0     H26209   7.101  10.446   9.577  0.7770  0.5500  1.1039
  199MOL0     H26210   7.202  10.529   9.465 -0.2019  0.5961 -0.8019
  199MOL0     H26211   6.925  10.628   9.566  0.9339 -1.1638  0.4902
  199MOL0     H26212   7.035  10.721   9.454  0.2581 -0.6136 -2.6420
  199MOL0     H26213   6.934  10.449   9.371  0.5159 -0.5385 -0.2570
  199MOL0     H26214   7.037  10.556   9.289 -1.3917  0.7421 -2.9511
  199MOL0     H26215   6.814  10.605   9.215  2.3256 -0.0747 -1.0703
  199MOL0     H26216   6.858  10.751   9.308  0.1880 -0.0823  2.2289
  199MOL0     H26217   6.723  10.539   9.465  0.5569 -1.3089 -1.8911
  199MOL0     H26218   6.721  10.712   9.485  1.0448  0.5435 -0.7995
  199MOL0     H26219   6.500  10.595   9.384 -0.5743  0.1677 -1.1651
  199MOL0     H26220   6.592  10.564   9.243  0.8825 -0.4852  0.7751
  199MOL0     H26221   6.608  10.789   9.081 -0.7217  2.7151 -2.2450
  199MOL0     H26222   6.633  11.112   9.098 -0.6219  3.1655  0.5073
  199MOL0     H26223   6.464  11.155   9.118 -1.0465 -0.7213 -1.2181
  199MOL0     H26224   6.401  10.978   8.955  0.1135  0.4222 -0.6661
  199MOL0     H26225   6.559  10.950   8.906  2.4612  2.6230 -2.3789
  199MOL0     H26226   6.485  11.257   8.895 -0.5657  1.2431 -3.7129
  199MOL0     H26227   6.585  11.149   8.793 -1.6015 -3.8884 -3.5390
  199MOL0     H26228   6.381  11.053   8.709 -1.5174 -0.5659  0.9168
  199MOL0     H26229   6.380  11.231   8.673 -0.2216 -0.6614 -0.8749
  199MOL0     H26230   6.203  11.188   8.556  0.4360  1.7936  0.7432
  199MOL0     H26231   5.971  11.139   8.466 -1.1409  1.6720  0.0249
  199MOL0     H26232   5.460  11.191   8.871 -1.1302  3.3039 -1.4486
  199MOL0     H26233   5.231  11.155   8.845  0.0660 -1.4144  1.4321
  199MOL0     H26234   5.046  10.948   8.461 -2.3191  0.5580 -0.7757
  199MOL0     H26235   5.088  11.116   8.474 -1.3889  0.2373 -0.7212
  199MOL0     H26236   4.899  11.142   8.659 -2.1135 -0.6943  1.2066
  199MOL0     H26237   4.856  10.977   8.612 -0.6146 -0.9758 -2.3534
  199MOL0     H26238   4.829  11.053   8.378  0.2317 -0.9325 -0.5116
  199MOL0     H26239   4.863  11.221   8.427  2.3253 -0.9518  2.1818
  199MOL0     H26240   4.623  11.056   8.529 -0.3206  0.3473  0.0269
  199MOL0     H26241   4.678  11.211   8.590 -0.2852 -1.5556  0.0383
  199MOL0     H26242   4.580  11.128   8.300 -1.8231 -0.3146  0.3168
  199MOL0     H26243   4.660  11.279   8.334  2.2818 -1.7004 -0.0504
  199MOL0     H26244   4.475  11.355   8.457  1.3806 -3.1525  4.3919
  199MOL0     H26245   4.402  11.191   8.467  1.5328 -1.2010  1.1100
  199MOL0     H26246   4.419  11.357   8.212  0.0966  1.3324 -0.1056
  199MOL0     H26247   4.372  11.183   8.232 -0.5465 -1.0329  1.9916
  199MOL0     H26248   4.252  11.433   8.356  1.6334 -0.9996  0.4919
  199MOL0     H26249   4.186  11.276   8.397  0.4150 -1.6235  0.1074
  199MOL0     H26250   5.287  10.969   8.464 -0.9714  0.7532 -0.4399
  199MOL0     H26251   5.524  11.009   8.488  0.3016  2.4291 -0.7942
  199MOL0     H26252   5.822  11.104   8.862 -0.6505 -0.2046 -0.6149
  199MOL0     H26253   6.050  11.138   8.948  5.0282 -1.8240 -1.0368
  199MOL0     H26254   7.555  10.571   9.358  2.1141  1.5814 -0.7037
  199MOL0     H26255   7.778  10.526   9.431  0.5796  1.2265 -0.3885
  199MOL0     H26256   8.110  10.559   9.577  1.8654  2.5808  0.6115
  199MOL0     H26257   8.346  10.550   9.624 -0.6433  1.8487  2.0977
  199MOL0     H26258   8.636  10.309   9.877  0.4168  3.0186 -0.1818
  199MOL0     H26259   8.478  10.249   9.960 -0.2368  1.6612  1.9350
  199MOL0     H26260   8.447  10.459  10.060 -0.8559  0.4914  0.1002
  199MOL0     H26261   8.581  10.365  10.119  1.3780 -0.5699 -0.7475
  199MOL0     H26262   8.567  10.620   9.958 -1.2548 -0.1828  0.3430
  199MOL0     H26263   8.721  10.534   9.955  0.3483  0.5402  0.1028
  199MOL0     H26264   8.584  10.648  10.201  1.5462  0.9989  0.0302
  199MOL0     H26265   8.714  10.519  10.210 -1.8463  0.5674  1.0728
  199MOL0     H26266   8.941  10.855  10.116 -2.9237  3.1465 -1.1625
  199MOL0     H26267   8.272  10.254   9.936 -3.1341  0.3626  2.4638
  199MOL0     H26268   8.022  10.298   9.907 -2.0047  3.6726  0.3890
  200MOL0     O26269   3.164   7.167   5.722  0.2036 -0.0732 -0.4173
  200MOL0     C26270   3.216   7.189   5.608  0.4568  0.6126 -1.2888
  200MOL0     O26271   3.143   7.206   5.490  0.4026  0.0093 -0.0670
  200MOL0     C26272   3.003   7.195   5.476 -0.1273  0.4162  0.8054
  200MOL0     C26273   2.954   7.241   5.355  0.9153 -0.9244 -0.1048
  200MOL0     C26274   2.821   7.246   5.327  1.2177  0.0935  0.4044
  200MOL0     C26275   2.726   7.196   5.422  0.8171  0.4998  0.2647
  200MOL0     O26276   2.592   7.211   5.392 -0.0646  0.0780  0.1814
  200MOL0     C26277   2.502   7.186   5.501 -0.0425 -0.6692  0.6976
  200MOL0     C26278   2.361   7.206   5.438 -0.1939  0.0372  0.3126
  200MOL0     C26279   2.249   7.218   5.546 -0.8900 -0.6796  0.3306
  200MOL0     C26280   2.197   7.082   5.595 -0.7263 -0.4728  1.1245
  200MOL0     C26281   2.137   7.092   5.730 -0.8152  0.7148  0.0179
  200MOL0     C26282   2.009   7.179   5.737  0.2567 -0.0818 -0.2281
  200MOL0     C26283   1.937   7.185   5.869 -0.0629 -0.2109 -0.6594
  200MOL0     C26284   1.810   7.259   5.848 -0.1596  0.1147 -0.9811
  200MOL0     N26285   1.838   7.405   5.828  0.6271  0.1925 -0.7344
  200MOL0     C26286   1.763   7.491   5.754 -0.4987 -0.2158  0.3785
  200MOL0     C26287   1.776   7.608   5.813  0.4450  0.7466  1.1545
  200MOL0     C26288   1.702   7.743   5.776 -1.0220  0.0515 -0.0399
  200MOL0     C26289   1.568   7.746   5.848 -0.0245 -0.1176  0.2196
  200MOL0     C26290   1.486   7.875   5.846  0.0746 -0.4638  0.7525
  200MOL0     C26291   1.348   7.879   5.906  1.3063  0.5571  0.6378
  200MOL0     O26292   1.262   7.799   5.826 -0.1996 -0.1092  0.0265
  200MOL0     C26293   1.125   7.812   5.849  0.6726 -0.1652  0.5755
  200MOL0     C26294   1.039   7.707   5.792  0.1173  0.4958  0.7113
  200MOL0     C26295   0.897   7.719   5.807  0.1358  0.2220  0.1660
  200MOL0     C26296   0.837   7.828   5.866 -0.3028 -0.7202  0.0387
  200MOL0     C26297   0.693   7.838   5.861  0.7463  0.3048  0.3671
  200MOL0     O26298   0.642   7.961   5.875 -0.1959  0.3371  0.7190
  200MOL0     C26299   0.508   7.991   5.870  0.0326 -0.9425 -0.5159
  200MOL0     C26300   0.415   7.926   5.794 -0.3337 -0.1973 -0.1343
  200MOL0     C26301   0.276   7.958   5.808 -0.6563  0.1425 -0.4007
  200MOL0     C26302   0.238   8.067   5.890  0.4001  0.2314  0.4620
  200MOL0     O26303   0.105   8.103   5.884 -0.5269  0.8150 -0.4735
  200MOL0     C26304   0.067   8.210   5.967  0.5627  0.4111  0.4460
  200MOL0     C26305  -0.083   8.233   5.939  0.2466  0.2954 -0.2564
  200MOL0     C26306  -0.154   8.358   6.009  0.2127  0.4108  0.1514
  200MOL0     C26307  -0.124   8.352   6.159  0.1524  0.0615  0.1150
  200MOL0     C26308  -0.229   8.429   6.236 -0.0409  0.6565 -0.4858
  200MOL0     C26309  -0.365   8.367   6.261  0.1010  1.0201  0.3445
  200MOL0     C26310  -0.460   8.443   6.355  0.0988  0.1671 -0.0993
  200MOL0     C26311  -0.496   8.579   6.312  0.2867 -0.7994 -0.2729
  200MOL0    Cl26312  -0.628   8.658   6.415 -0.4437  0.0128 -0.1251
  200MOL0     C26313   0.337   8.140   5.957  0.2875  0.6549 -0.1318
  200MOL0     C26314   0.466   8.098   5.951  0.7095 -0.4785  0.1250
  200MOL0     O26315   0.620   7.736   5.848 -0.1791  0.1331  0.2170
  200MOL0     C26316   0.921   7.923   5.935 -0.0097 -0.0053  0.0703
  200MOL0     C26317   1.067   7.913   5.928 -0.3873  0.3460  0.6902
  200MOL0     N26318   1.872   7.591   5.906 -0.4545 -0.4078  0.2432
  200MOL0     N26319   1.911   7.476   5.916  0.0856 -0.2528 -0.7655
  200MOL0     C26320   2.773   7.156   5.548 -0.4986 -1.3439 -0.3925
  200MOL0     C26321   2.909   7.157   5.578 -0.9317 -0.0418 -0.0361
  200MOL0     C26322   3.356   7.174   5.592  0.6657 -0.4833 -0.0758
  200MOL0     C26323   3.431   7.115   5.695 -0.6924  0.5640 -0.5299
  200MOL0     C26324   3.568   7.105   5.681  0.5501  0.6059  2.1981
  200MOL0     C26325   3.635   7.154   5.567 -0.1874 -0.2119 -0.1407
  200MOL0     O26326   3.775   7.150   5.579 -0.6474 -0.0973  0.1504
  200MOL0     C26327   3.863   7.191   5.475  0.5836 -0.2556  0.1632
  200MOL0     C26328   3.978   7.100   5.439 -0.5384 -0.1040  0.1592
  200MOL0     C26329   3.937   6.950   5.436 -0.6861  0.6763 -0.9662
  200MOL0     C26330   4.060   6.861   5.409  0.1815  0.0693  0.5983
  200MOL0     C26331   4.171   6.892   5.495 -0.1250 -0.1185 -1.2138
  200MOL0     C26332   4.259   6.923   5.578 -0.2363  0.0707  0.0993
  200MOL0     C26333   3.559   7.206   5.459  1.0037 -0.2649 -0.2183
  200MOL0     C26334   3.415   7.212   5.477 -0.4150  0.1816 -0.6219
  200MOL0     H26335   3.026   7.281   5.284 -0.6784 -0.0333 -1.2681
  200MOL0     H26336   2.792   7.286   5.230 -1.1395 -2.8215 -0.2451
  200MOL0     H26337   2.521   7.260   5.580  1.1857  0.3841 -0.5398
  200MOL0     H26338   2.508   7.078   5.518 -1.8408 -2.1537 -5.6510
  200MOL0     H26339   2.323   7.125   5.374 -0.0750  0.3678 -0.1812
  200MOL0     H26340   2.365   7.304   5.389  1.2842 -0.5554 -0.8469
  200MOL0     H26341   2.162   7.273   5.509  0.7446  1.4598 -0.5604
  200MOL0     H26342   2.290   7.281   5.626 -0.4159 -0.9648  0.3148
  200MOL0     H26343   2.131   7.027   5.528 -0.2639  0.7754 -0.4123
  200MOL0     H26344   2.290   7.026   5.611  1.0312  1.7102 -0.8006
  200MOL0     H26345   2.202   7.140   5.804  0.5329 -0.9579 -0.0337
  200MOL0     H26346   2.113   6.996   5.776 -2.4372  0.4964 -1.1994
  200MOL0     H26347   1.946   7.134   5.660 -1.4752 -0.6384  1.4233
  200MOL0     H26348   2.040   7.278   5.702 -1.7233  0.0795 -1.6983
  200MOL0     H26349   1.914   7.085   5.906 -1.2765  0.1040 -0.5373
  200MOL0     H26350   2.001   7.241   5.938 -0.2288  0.6792 -1.2073
  200MOL0     H26351   1.759   7.243   5.944  1.1816 -0.0630 -0.2835
  200MOL0     H26352   1.743   7.222   5.769  1.3578 -0.1420 -2.1973
  200MOL0     H26353   1.699   7.457   5.673 -0.2549  1.7177 -0.6821
  200MOL0     H26354   1.690   7.763   5.669  2.5743  0.6843 -0.4717
  200MOL0     H26355   1.774   7.820   5.808  0.1886 -0.6839 -0.9117
  200MOL0     H26356   1.591   7.732   5.953  0.3491 -0.8532  0.0465
  200MOL0     H26357   1.514   7.660   5.807 -0.1631 -0.5825  1.3506
  200MOL0     H26358   1.552   7.950   5.889  0.6091 -0.4482 -0.0693
  200MOL0     H26359   1.474   7.911   5.743  2.5231 -1.2236  0.1271
  200MOL0     H26360   1.316   7.983   5.921 -2.2536 -0.5487  1.5757
  200MOL0     H26361   1.358   7.840   6.007  1.8360  1.4616  0.9410
  200MOL0     H26362   1.086   7.618   5.750 -1.6580 -0.7976  1.3245
  200MOL0     H26363   0.840   7.644   5.752  1.6638  0.4956 -1.9072
  200MOL0     H26364   0.441   7.846   5.725 -3.9525 -1.2716 -0.4399
  200MOL0     H26365   0.195   7.910   5.755 -1.5407 -2.3665  2.8425
  200MOL0     H26366   0.130   8.297   5.950  0.8545 -0.0778 -1.2558
  200MOL0     H26367   0.081   8.181   6.071 -0.4987 -0.6965  0.3058
  200MOL0     H26368  -0.137   8.141   5.962 -1.3595  0.5734 -2.6197
  200MOL0     H26369  -0.096   8.248   5.832  0.5157  1.9129 -0.0828
  200MOL0     H26370  -0.259   8.356   5.980  0.3979 -3.4583 -0.6927
  200MOL0     H26371  -0.110   8.445   5.958 -2.0643 -0.9041 -4.5562
  200MOL0     H26372  -0.109   8.250   6.194  0.3964  0.2209  0.4853
  200MOL0     H26373  -0.028   8.404   6.165 -0.8456  2.2016 -1.0834
  200MOL0     H26374  -0.230   8.529   6.191 -4.1105  1.0654  0.1818
  200MOL0     H26375  -0.185   8.438   6.336  0.5753  4.0173 -0.9187
  200MOL0     H26376  -0.348   8.267   6.302 -1.6086  0.0290 -1.2022
  200MOL0     H26377  -0.421   8.361   6.167 -0.7315 -0.1219  0.8855
  200MOL0     H26378  -0.558   8.395   6.367 -1.0049  2.5827  1.2714
  200MOL0     H26379  -0.414   8.453   6.453  0.0416  0.7215 -0.1298
  200MOL0     H26380  -0.526   8.581   6.207  2.0463  2.7581 -0.8604
  200MOL0     H26381  -0.403   8.637   6.318 -1.4599  2.1913  0.1251
  200MOL0     H26382   0.317   8.213   6.034  0.5800  0.5455  0.0505
  200MOL0     H26383   0.544   8.155   6.002  0.1166  0.6027 -0.1448
  200MOL0     H26384   0.882   8.006   5.992 -1.2530 -1.2877  1.1423
  200MOL0     H26385   1.132   7.978   5.985  0.5482 -0.2534  0.3401
  200MOL0     H26386   2.700   7.114   5.618  0.4037 -0.3312  1.2197
  200MOL0     H26387   2.946   7.120   5.673 -1.6677 -0.6750  0.0126
  200MOL0     H26388   3.389   7.091   5.792  0.1213  2.3588  0.3141
  200MOL0     H26389   3.633   7.056   5.753  3.7370 -0.8121 -1.2360
  200MOL0     H26390   3.912   7.283   5.508  0.2725 -0.1715  0.3994
  200MOL0     H26391   3.807   7.222   5.386  0.5099 -1.8409 -0.3648
  200MOL0     H26392   4.025   7.133   5.346 -0.9652 -1.1791 -0.4516
  200MOL0     H26393   4.048   7.106   5.523 -0.1389 -0.4067 -0.1437
  200MOL0     H26394   3.866   6.933   5.354  0.2695  2.8034 -2.3309
  200MOL0     H26395   3.896   6.915   5.531  1.4878  0.6425  0.0242
  200MOL0     H26396   4.038   6.754   5.412 -0.4610  0.0913 -1.6799
  200MOL0     H26397   4.110   6.885   5.314 -0.2551  0.0573  0.3655
  200MOL0     H26398   4.347   6.940   5.637 -0.5611 -0.5890  0.8030
  200MOL0     H26399   3.605   7.239   5.367  1.7540  1.0957  0.6092
  200MOL0     H26400   3.352   7.264   5.406 -3.1923  0.3337  1.7411
  201MOL0     O26401   7.598   7.565   3.408 -0.0693 -0.7466 -0.1683
  201MOL0     C26402   7.608   7.455   3.458  1.0194  0.3731 -0.2064
  201MOL0     O26403   7.507   7.405   3.541  0.3168  0.2185  0.1924
  201MOL0     C26404   7.373   7.444   3.529 -0.2814  0.3033  0.1042
  201MOL0     C26405   7.308   7.497   3.413  0.4771  0.6321  0.3190
  201MOL0     C26406   7.166   7.506   3.412  0.3417  0.7651  0.2977
  201MOL0     C26407   7.087   7.474   3.533  0.5269 -0.4483 -0.0197
  201MOL0     O26408   6.949   7.481   3.520 -0.3490  0.1355 -0.0430
  201MOL0     C26409   6.868   7.423   3.628  0.4812  0.2331  1.1428
  201MOL0     C26410   6.729   7.406   3.565 -0.7163 -0.6227 -0.1320
  201MOL0     C26411   6.624   7.360   3.675 -0.1552  0.0057 -0.0912
  201MOL0     C26412   6.483   7.381   3.616 -0.3307 -0.0951 -0.7654
  201MOL0     C26413   6.374   7.331   3.713 -0.5941  0.4529  0.6468
  201MOL0     C26414   6.238   7.373   3.666 -0.1177  0.1770 -0.8095
  201MOL0     C26415   6.132   7.317   3.744 -0.0844 -0.0416 -0.3527
  201MOL0     C26416   6.001   7.346   3.680  0.0678  0.4954 -0.2569
  201MOL0     N26417   5.890   7.282   3.754  0.1389  0.7015 -0.1579
  201MOL0     C26418   5.786   7.219   3.695  0.1720  0.5323 -0.1646
  201MOL0     C26419   5.683   7.211   3.785  0.8653  0.5363  0.1536
  201MOL0     C26420   5.549   7.145   3.765 -1.3403  0.2244  0.2312
  201MOL0     C26421   5.557   6.994   3.792  0.1116 -0.1105 -0.0517
  201MOL0     C26422   5.438   6.914   3.735 -0.9768  0.7178  0.5472
  201MOL0     C26423   5.346   6.867   3.846 -0.3813 -0.4524  0.1809
  201MOL0     O26424   5.274   6.981   3.901  0.2147 -0.4155 -0.4092
  201MOL0     C26425   5.153   6.949   3.952  1.0075 -0.3381 -0.4797
  201MOL0     C26426   5.065   7.052   3.974 -0.4758 -0.3699 -0.0745
  201MOL0     C26427   4.947   7.029   4.054  0.0520  0.1588  1.0126
  201MOL0     C26428   4.916   6.900   4.099  0.7682  0.3798 -1.0536
  201MOL0     C26429   4.806   6.878   4.195  0.4735  0.8030  0.5631
  201MOL0     O26430   4.775   6.971   4.286  0.0123  0.1082  0.7983
  201MOL0     C26431   4.670   6.955   4.375 -0.5908  0.6145 -0.2654
  201MOL0     C26432   4.689   7.014   4.499  0.3754 -0.2002 -0.3010
  201MOL0     C26433   4.584   7.002   4.592  0.1723 -0.0824 -0.5195
  201MOL0     C26434   4.459   6.942   4.568  0.2495 -1.4594 -0.6809
  201MOL0     O26435   4.370   6.947   4.673 -0.6961  0.0757  0.1799
  201MOL0     C26436   4.246   6.879   4.662 -0.1244  0.4062  0.1531
  201MOL0     C26437   4.140   6.964   4.595  0.4023  0.7367 -0.0208
  201MOL0     C26438   4.089   7.082   4.679  0.3951  0.2154  0.2112
  201MOL0     C26439   3.979   7.152   4.589 -0.1255  0.4180  0.1580
  201MOL0     C26440   3.882   7.245   4.662  0.3226  0.2562 -0.7841
  201MOL0     C26441   3.757   7.277   4.569 -1.2314  0.1139 -0.2890
  201MOL0     C26442   3.664   7.158   4.549 -0.4923 -0.1986 -0.0453
  201MOL0     C26443   3.526   7.210   4.521 -0.1437  0.3418  0.2684
  201MOL0    Cl26444   3.423   7.064   4.494 -0.2524 -0.0344 -0.0011
  201MOL0     C26445   4.444   6.886   4.445  0.2168 -0.6072 -0.0278
  201MOL0     C26446   4.549   6.891   4.349 -0.1540 -0.1904  0.3176
  201MOL0     O26447   4.758   6.768   4.191  0.0194  0.8858  0.3399
  201MOL0     C26448   4.992   6.796   4.060 -0.1278 -0.3449  0.7533
  201MOL0     C26449   5.118   6.818   4.004  0.4867  0.2068 -0.7382
  201MOL0     N26450   5.737   7.258   3.901 -0.0584  0.0621 -0.3860
  201MOL0     N26451   5.849   7.311   3.881 -0.5808 -1.3483 -0.7336
  201MOL0     C26452   7.161   7.430   3.644  0.3841 -0.8104  0.4765
  201MOL0     C26453   7.301   7.414   3.636  0.1723 -0.1491  0.4129
  201MOL0     C26454   7.742   7.391   3.468  0.9821 -0.2604  0.2788
  201MOL0     C26455   7.860   7.467   3.458  0.0905  0.3289  0.5483
  201MOL0     C26456   7.987   7.408   3.477  0.7877 -0.3494 -0.1674
  201MOL0     C26457   8.002   7.278   3.507  0.4772  0.3145 -1.2722
  201MOL0     O26458   8.120   7.210   3.539  0.0499 -0.2887  0.9005
  201MOL0     C26459   8.234   7.287   3.574  0.0269  0.6082  0.4841
  201MOL0     C26460   8.316   7.302   3.447 -0.0271  0.3268 -0.4363
  201MOL0     C26461   8.447   7.377   3.482  1.1110 -0.0697  0.0657
  201MOL0     C26462   8.570   7.305   3.438 -0.3316 -0.4509  0.1024
  201MOL0     C26463   8.689   7.390   3.459  0.1169  0.5289  0.8960
  201MOL0     C26464   8.779   7.458   3.496 -0.1321 -1.2595  0.3856
  201MOL0     C26465   7.880   7.202   3.524  0.3682 -0.3385 -0.0807
  201MOL0     C26466   7.754   7.261   3.512  0.5338 -0.0950 -0.4177
  201MOL0     H26467   7.362   7.521   3.322  0.9436 -1.9626 -0.1610
  201MOL0     H26468   7.102   7.521   3.326 -0.8157 -3.6648  0.1714
  201MOL0     H26469   6.862   7.490   3.714  0.8103 -0.9387  2.1140
  201MOL0     H26470   6.903   7.326   3.666 -0.2589 -2.3465 -3.9111
  201MOL0     H26471   6.740   7.336   3.481 -0.8238  1.8598 -2.3801
  201MOL0     H26472   6.692   7.500   3.521 -1.3051  0.0318  1.6740
  201MOL0     H26473   6.636   7.423   3.763  0.0408 -1.7498  1.1951
  201MOL0     H26474   6.628   7.251   3.691  0.5996  0.0000 -0.2658
  201MOL0     H26475   6.470   7.487   3.592  1.0125  0.9863  2.6832
  201MOL0     H26476   6.476   7.327   3.521  1.5251 -2.4877  0.3258
  201MOL0     H26477   6.388   7.357   3.819 -1.8358 -0.3689  1.0388
  201MOL0     H26478   6.380   7.222   3.707  1.0548  0.5909 -1.0565
  201MOL0     H26479   6.223   7.344   3.562 -0.7964  1.9593 -1.2534
  201MOL0     H26480   6.239   7.482   3.676 -0.7120  0.0896  0.3212
  201MOL0     H26481   6.144   7.208   3.743  0.9452  0.0266 -2.9684
  201MOL0     H26482   6.124   7.349   3.848 -0.1986 -2.1423  0.3318
  201MOL0     H26483   5.996   7.308   3.578 -0.7905 -1.2912  0.4102
  201MOL0     H26484   5.976   7.453   3.680 -1.3344  0.1986 -1.4457
  201MOL0     H26485   5.781   7.188   3.591 -0.7381 -0.0461  0.0353
  201MOL0     H26486   5.529   7.149   3.658 -2.1239 -2.5527  0.1980
  201MOL0     H26487   5.480   7.200   3.830 -1.7362  0.0441 -0.0283
  201MOL0     H26488   5.581   6.981   3.898  4.3237 -0.0973 -0.8374
  201MOL0     H26489   5.647   6.966   3.736  0.3312 -0.6325  0.5502
  201MOL0     H26490   5.388   6.983   3.667 -2.1040  1.8057  2.3912
  201MOL0     H26491   5.469   6.820   3.690  1.3880  1.7009 -0.0569
  201MOL0     H26492   5.409   6.817   3.920  1.4163  1.7442  0.2479
  201MOL0     H26493   5.265   6.803   3.809 -2.9333 -0.1724  4.5317
  201MOL0     H26494   5.097   7.152   3.947  3.3413 -1.0261  1.3801
  201MOL0     H26495   4.880   7.112   4.077  0.0282  0.4998 -0.2179
  201MOL0     H26496   4.779   7.073   4.507 -0.9318  2.2426 -2.4597
  201MOL0     H26497   4.606   7.049   4.688  1.6905  2.0455 -1.8161
  201MOL0     H26498   4.214   6.845   4.762  1.9989 -2.9805 -0.1500
  201MOL0     H26499   4.260   6.783   4.611 -0.6740 -0.2056  1.1255
  201MOL0     H26500   4.057   6.893   4.585 -0.8678  1.8292  2.0994
  201MOL0     H26501   4.165   6.997   4.493 -1.9926  0.0275 -0.9101
  201MOL0     H26502   4.172   7.146   4.710 -0.7714  0.4509  3.1878
  201MOL0     H26503   4.042   7.047   4.772 -1.1984  0.0996 -0.5998
  201MOL0     H26504   4.037   7.205   4.512  3.8073  1.3253  3.4246
  201MOL0     H26505   3.921   7.076   4.536 -0.9667 -0.3920  2.1519
  201MOL0     H26506   3.925   7.341   4.692 -0.1962 -0.6175  3.4203
  201MOL0     H26507   3.830   7.198   4.746 -1.8360  2.0648 -1.0200
  201MOL0     H26508   3.788   7.329   4.478  0.4873 -0.2135  0.0745
  201MOL0     H26509   3.697   7.355   4.617  1.4051  1.5784  0.8395
  201MOL0     H26510   3.698   7.092   4.469  0.4964  0.5361 -0.2484
  201MOL0     H26511   3.656   7.090   4.634 -1.6934 -2.1209 -1.5825
  201MOL0     H26512   3.524   7.285   4.442 -0.8461  1.6217  1.4558
  201MOL0     H26513   3.482   7.254   4.612 -2.4191 -1.2317  0.0276
  201MOL0     H26514   4.346   6.846   4.422 -1.1600  2.5010 -0.0393
  201MOL0     H26515   4.526   6.860   4.247 -0.6759 -0.6066  0.5589
  201MOL0     H26516   4.957   6.696   4.087 -1.1340 -0.1263  0.3004
  201MOL0     H26517   5.177   6.729   3.990 -0.7142 -0.2997 -2.8670
  201MOL0     H26518   7.117   7.394   3.737  0.1782 -3.1062 -0.4374
  201MOL0     H26519   7.348   7.350   3.709  2.8704 -0.4180 -1.4101
  201MOL0     H26520   7.864   7.573   3.435 -0.7259  0.3723  0.5716
  201MOL0     H26521   8.072   7.472   3.456  1.3871 -0.8769  0.6073
  201MOL0     H26522   8.289   7.220   3.641 -0.2065 -0.0078  0.0715
  201MOL0     H26523   8.206   7.382   3.620 -0.0328  1.3966 -1.1200
  201MOL0     H26524   8.334   7.198   3.416 -0.6399  0.8452 -2.7284
  201MOL0     H26525   8.249   7.346   3.373 -0.9684  0.2767  0.3633
  201MOL0     H26526   8.450   7.394   3.590 -0.6544 -2.7423  0.6207
  201MOL0     H26527   8.445   7.469   3.421  1.8133  0.3270  0.6338
  201MOL0     H26528   8.584   7.218   3.503 -0.3608 -2.0340 -1.8845
  201MOL0     H26529   8.569   7.276   3.332  2.9671  2.2675 -0.8719
  201MOL0     H26530   8.863   7.524   3.504 -0.7415  0.1513 -3.1487
  201MOL0     H26531   7.900   7.103   3.564  1.3470  0.5941  1.8378
  201MOL0     H26532   7.667   7.197   3.524 -0.6028  1.6422  1.3114
  202MOL0     O26533   9.357   9.151   4.874 -0.4282 -0.0150  0.3662
  202MOL0     C26534   9.336   9.187   4.988 -0.2555 -0.0543 -0.1825
  202MOL0     O26535   9.427   9.240   5.075 -0.3637  0.1209  0.1402
  202MOL0     C26536   9.562   9.250   5.043  1.1548 -0.6165  0.7358
  202MOL0     C26537   9.615   9.279   4.917 -0.2085 -0.0264 -0.1390
  202MOL0     C26538   9.756   9.287   4.897 -0.0260  0.4325 -0.0449
  202MOL0     C26539   9.849   9.291   4.999  0.5664 -0.3873  0.7149
  202MOL0     O26540   9.979   9.316   4.980 -0.1830 -0.0665  0.1369
  202MOL0     C26541  10.031   9.397   4.862 -0.4283 -0.0562 -0.4896
  202MOL0     C26542  10.165   9.477   4.897  0.3190  0.6570  0.8579
  202MOL0     C26543  10.268   9.367   4.907 -0.4483  0.0973 -0.5801
  202MOL0     C26544  10.417   9.428   4.931  0.7214 -0.2725 -0.2161
  202MOL0     C26545  10.519   9.325   4.974  0.7110  0.3814  0.7420
  202MOL0     C26546  10.670   9.379   4.964 -0.2295 -0.9119 -0.1409
  202MOL0     C26547  10.777   9.289   5.020 -0.3695  0.6465 -0.2510
  202MOL0     C26548  10.891   9.379   5.078  0.4871  0.7251  0.4504
  202MOL0     N26549  10.995   9.292   5.134 -0.2984 -0.6018 -0.2907
  202MOL0     C26550  11.138   9.315   5.118 -1.2859 -0.2514  0.1904
  202MOL0     C26551  11.188   9.217   5.196  0.0360 -0.9247  1.1371
  202MOL0     C26552  11.332   9.178   5.200  0.6116 -0.4064 -0.1231
  202MOL0     C26553  11.421   9.218   5.081 -0.5315  0.2462 -0.4657
  202MOL0     C26554  11.574   9.192   5.096 -0.5985 -0.0203 -0.3370
  202MOL0     C26555  11.622   9.050   5.089 -0.1143 -0.3940 -0.2758
  202MOL0     O26556  11.656   9.019   4.955 -0.2433  0.0389  0.1710
  202MOL0     C26557  11.782   8.984   4.920  0.3111  0.1509 -0.0632
  202MOL0     C26558  11.801   8.927   4.798  0.2841  0.1056  0.9669
  202MOL0     C26559  11.923   8.896   4.748 -0.6828 -1.2960 -0.6731
  202MOL0     C26560  12.037   8.939   4.815  0.1124  0.3535  0.0510
  202MOL0     C26561  12.168   8.915   4.750 -0.0615 -0.8484 -0.3564
  202MOL0     O26562  12.162   8.899   4.612  0.4583  0.1532 -0.7641
  202MOL0     C26563  12.273   8.854   4.550 -0.1479  0.3069 -0.1956
  202MOL0     C26564  12.288   8.899   4.418  0.2670 -0.2231 -0.9495
  202MOL0     C26565  12.407   8.886   4.346 -1.3772 -0.0468 -0.3893
  202MOL0     C26566  12.509   8.814   4.401  0.1523  0.1139 -0.3909
  202MOL0     O26567  12.628   8.796   4.342  0.4312 -0.5207  0.7571
  202MOL0     C26568  12.653   8.830   4.204 -0.0795  0.4853  0.6701
  202MOL0     C26569  12.769   8.744   4.151 -0.7705 -0.1318 -0.3550
  202MOL0     C26570  12.788   8.783   4.007 -0.1867 -0.9167  0.3826
  202MOL0     C26571  12.932   8.766   3.954  0.4765 -0.0133 -0.0302
  202MOL0     C26572  13.027   8.878   4.004  0.1983  0.9171  0.6399
  202MOL0     C26573  12.994   9.013   3.947  0.5031  0.4149 -0.6749
  202MOL0     C26574  13.109   9.103   3.959 -0.0490  0.5823 -0.1687
  202MOL0     C26575  13.081   9.234   3.880 -0.4319  1.0650  0.1285
  202MOL0    Cl26576  13.220   9.353   3.910  0.0218 -0.3969 -0.1332
  202MOL0     C26577  12.498   8.760   4.527 -0.2853  0.3742 -1.0619
  202MOL0     C26578  12.381   8.780   4.605 -0.5258  0.2897  0.3597
  202MOL0     O26579  12.267   8.925   4.821 -0.2117 -0.5929  0.8010
  202MOL0     C26580  12.025   9.011   4.936 -0.1719  0.3678  0.2088
  202MOL0     C26581  11.896   9.028   4.988  0.8557  0.7559 -0.6559
  202MOL0     N26582  11.079   9.157   5.258 -0.5812 -0.1129 -0.2236
  202MOL0     N26583  10.962   9.195   5.228 -0.5860 -0.0480 -0.3557
  202MOL0     C26584   9.799   9.274   5.125  0.5205  0.4948  0.1132
  202MOL0     C26585   9.659   9.254   5.147 -0.1919 -0.1028  0.3019
  202MOL0     C26586   9.207   9.142   5.049  0.3573 -0.6635 -0.2582
  202MOL0     C26587   9.095   9.121   4.966 -0.6474  0.8058  0.3031
  202MOL0     C26588   8.969   9.099   5.028 -0.7177  0.3175 -0.5563
  202MOL0     C26589   8.953   9.104   5.165 -0.7437 -0.0123  0.5722
  202MOL0     O26590   8.823   9.084   5.208  0.5568 -0.4184  0.2309
  202MOL0     C26591   8.793   9.075   5.346 -0.0146 -0.1615  0.7124
  202MOL0     C26592   8.649   9.127   5.356  0.8223  0.4161 -0.0630
  202MOL0     C26593   8.605   9.131   5.502  0.6542  0.7006 -0.0213
  202MOL0     C26594   8.461   9.164   5.525 -0.6469 -0.5190  0.3074
  202MOL0     C26595   8.425   9.133   5.664  0.2641  0.2331  0.1266
  202MOL0     C26596   8.379   9.122   5.776 -0.9175 -0.4438  0.1140
  202MOL0     C26597   9.065   9.117   5.249  0.1449 -0.5173 -0.1912
  202MOL0     C26598   9.190   9.141   5.191 -0.6737  0.3780  0.0575
  202MOL0     H26599   9.550   9.289   4.830 -0.9763  1.7068  0.6009
  202MOL0     H26600   9.794   9.307   4.798  0.5934 -0.8977 -0.0942
  202MOL0     H26601   9.955   9.471   4.836  1.0731  2.5792  1.9396
  202MOL0     H26602  10.044   9.335   4.773  1.0871 -1.9395  0.9385
  202MOL0     H26603  10.164   9.533   4.991 -1.5130 -1.3522  2.1350
  202MOL0     H26604  10.189   9.553   4.822 -2.2747  0.3815 -0.3297
  202MOL0     H26605  10.279   9.314   4.812  3.8175  1.6102 -1.1381
  202MOL0     H26606  10.242   9.296   4.986 -0.0973 -0.0328 -0.5769
  202MOL0     H26607  10.443   9.484   4.841 -1.8763 -0.3912 -1.1123
  202MOL0     H26608  10.398   9.502   5.010 -2.1381  0.3097 -1.3180
  202MOL0     H26609  10.507   9.240   4.906 -1.5516  0.5977  0.8080
  202MOL0     H26610  10.501   9.285   5.074  1.7977 -1.1870  0.3563
  202MOL0     H26611  10.675   9.475   5.017  0.6125  0.4864 -2.5581
  202MOL0     H26612  10.679   9.405   4.858 -1.5411  0.1424 -0.0276
  202MOL0     H26613  10.723   9.233   5.097 -0.5279  1.1570  0.0145
  202MOL0     H26614  10.819   9.215   4.951 -0.1309  0.5920 -0.0461
  202MOL0     H26615  10.861   9.450   5.156  1.2828  1.6082 -0.0217
  202MOL0     H26616  10.924   9.440   4.993 -2.4653  0.8729 -0.7036
  202MOL0     H26617  11.188   9.386   5.053  0.3615 -2.9693 -1.7603
  202MOL0     H26618  11.324   9.074   5.232 -0.2701  0.1536  1.6391
  202MOL0     H26619  11.357   9.237   5.289 -1.1753  1.7018 -0.9520
  202MOL0     H26620  11.413   9.327   5.073 -1.1628  0.4025  1.6571
  202MOL0     H26621  11.382   9.162   4.995 -1.1136  0.4607 -0.3507
  202MOL0     H26622  11.618   9.251   5.015 -2.8713  0.4072 -1.3465
  202MOL0     H26623  11.605   9.230   5.194 -1.6869 -3.3775  1.4489
  202MOL0     H26624  11.541   8.987   5.126  1.5521 -1.9222  0.9356
  202MOL0     H26625  11.705   9.037   5.158 -0.1875  2.0646  0.3830
  202MOL0     H26626  11.720   8.910   4.728  0.7998  1.0518  0.1135
  202MOL0     H26627  11.923   8.859   4.646  0.8394 -1.5005 -0.6109
  202MOL0     H26628  12.207   8.959   4.379 -1.2379 -0.6676  1.2931
  202MOL0     H26629  12.415   8.929   4.247 -1.0297 -1.6932 -1.1210
  202MOL0     H26630  12.665   8.936   4.183  2.2650  0.3195  0.9359
  202MOL0     H26631  12.573   8.791   4.140  0.9147  1.4719 -1.2884
  202MOL0     H26632  12.744   8.637   4.160 -3.0641  0.5469  3.8156
  202MOL0     H26633  12.855   8.761   4.216 -1.4334 -1.8541  1.0596
  202MOL0     H26634  12.760   8.886   3.982 -3.4539 -1.4945  1.1791
  202MOL0     H26635  12.716   8.717   3.957 -1.5812  2.3510 -2.3487
  202MOL0     H26636  12.977   8.672   3.987  2.3926  0.8125 -0.1916
  202MOL0     H26637  12.935   8.766   3.845  2.5421 -2.8449 -0.0802
  202MOL0     H26638  13.132   8.853   3.985 -0.3114 -0.1016 -0.9656
  202MOL0     H26639  13.021   8.883   4.114  1.6501 -1.9461  0.9523
  202MOL0     H26640  12.907   9.056   3.997 -1.1958  0.5323 -3.5147
  202MOL0     H26641  12.965   8.994   3.843  0.6897 -3.4610 -0.1798
  202MOL0     H26642  13.138   9.124   4.063 -1.1701 -0.2561  0.3463
  202MOL0     H26643  13.185   9.046   3.905 -0.0656  0.2667  0.1352
  202MOL0     H26644  12.990   9.287   3.912  0.9063  2.6090  1.5615
  202MOL0     H26645  13.067   9.205   3.776  0.6404 -0.9518  0.4961
  202MOL0     H26646  12.583   8.700   4.559 -1.0243 -0.1545 -0.0154
  202MOL0     H26647  12.371   8.732   4.702 -0.5161  0.6720  0.5507
  202MOL0     H26648  12.112   9.048   4.989 -0.6946  0.3054  1.1382
  202MOL0     H26649  11.886   9.073   5.087 -0.7478 -0.3887 -0.2429
  202MOL0     H26650   9.859   9.267   5.215  2.9086  0.8486 -1.3538
  202MOL0     H26651   9.632   9.244   5.251  0.0147 -0.0938  0.3576
  202MOL0     H26652   9.099   9.122   4.857 -0.3956 -2.7590  0.1622
  202MOL0     H26653   8.879   9.082   4.970 -1.3632  3.2344 -0.5451
  202MOL0     H26654   8.856   9.141   5.407 -1.0424  0.2535  1.3566
  202MOL0     H26655   8.804   8.970   5.374  2.2405  0.1075  1.0377
  202MOL0     H26656   8.640   9.228   5.314 -5.4915  0.4652  0.3632
  202MOL0     H26657   8.587   9.064   5.292 -0.2593 -0.7654  2.0606
  202MOL0     H26658   8.657   9.207   5.560 -1.2182  0.5806  1.9125
  202MOL0     H26659   8.624   9.030   5.541 -0.4477  0.1493 -0.8663
  202MOL0     H26660   8.438   9.266   5.493  0.6074 -0.7052 -1.3391
  202MOL0     H26661   8.407   9.098   5.456 -0.5268  2.3147 -2.7698
  202MOL0     H26662   8.355   9.092   5.876 -1.2648  3.2973  1.2999
  202MOL0     H26663   9.061   9.115   5.357  0.2036  1.0135 -0.1345
  202MOL0     H26664   9.275   9.174   5.250  0.3100  0.2157 -1.2291
  203MOL0     O26665   9.818  11.190   6.269 -0.2757 -0.5165  0.6158
  203MOL0     C26666   9.894  11.093   6.261  0.8231  0.1992 -0.9324
  203MOL0     O26667   9.847  10.967   6.269 -0.0366  0.1804 -0.3261
  203MOL0     C26668   9.717  10.948   6.242  0.0008  0.5354  0.3613
  203MOL0     C26669   9.634  10.890   6.340 -0.5590  0.3037  0.2596
  203MOL0     C26670   9.500  10.878   6.314  0.9710 -0.4658  0.8086
  203MOL0     C26671   9.445  10.911   6.190 -0.4296 -0.2886  0.5431
  203MOL0     O26672   9.313  10.917   6.156 -0.4128  0.0926  0.0515
  203MOL0     C26673   9.215  10.844   6.232  0.5948 -0.1680  0.4272
  203MOL0     C26674   9.080  10.872   6.170  1.2297 -1.0278  0.2308
  203MOL0     C26675   9.078  10.855   6.022  0.1013  0.1811  0.5017
  203MOL0     C26676   8.951  10.905   5.948 -0.7144  0.1508  0.1033
  203MOL0     C26677   8.978  10.888   5.804  0.2392 -0.6887  0.9451
  203MOL0     C26678   8.879  10.958   5.711  0.2573 -0.0100  0.2566
  203MOL0     C26679   8.737  10.946   5.756  0.2685 -0.1841  0.6025
  203MOL0     C26680   8.643  10.953   5.640 -0.4082 -0.0725  0.6026
  203MOL0     N26681   8.508  10.965   5.696 -0.8064 -0.4913 -0.3756
  203MOL0     C26682   8.449  11.082   5.738 -0.2846 -0.4050 -0.2537
  203MOL0     C26683   8.315  11.049   5.750  0.8945  0.7823  0.0521
  203MOL0     C26684   8.216  11.144   5.817 -0.0804  0.1026  0.4088
  203MOL0     C26685   8.230  11.141   5.969 -0.0711 -0.2282 -0.8193
  203MOL0     C26686   8.125  11.228   6.053 -0.2114 -0.7754  0.3540
  203MOL0     C26687   7.973  11.203   6.026  0.5996 -0.0111 -0.1000
  203MOL0     O26688   7.938  11.070   6.064  0.0748  0.0710 -0.0938
  203MOL0     C26689   7.805  11.035   6.052  0.6820 -0.3858  0.1677
  203MOL0     C26690   7.766  10.912   6.105  1.3355 -0.4421 -0.4816
  203MOL0     C26691   7.629  10.874   6.106  0.5833 -0.8951  0.2720
  203MOL0     C26692   7.532  10.970   6.057 -0.4669 -0.5381  0.2282
  203MOL0     C26693   7.387  10.943   6.057 -0.0808 -0.2355  0.4771
  203MOL0     O26694   7.361  10.812   6.078 -0.2196 -0.2907  1.0845
  203MOL0     C26695   7.226  10.771   6.054  0.1756 -0.5100 -1.2959
  203MOL0     C26696   7.162  10.693   6.152  0.0954 -0.4870 -0.8239
  203MOL0     C26697   7.030  10.666   6.151  0.3831 -0.2381  0.0211
  203MOL0     C26698   6.950  10.703   6.043  0.4417  0.7645  0.5231
  203MOL0     O26699   6.820  10.640   6.014 -0.2345 -0.3243  0.7847
  203MOL0     C26700   6.764  10.554   6.106  0.1338 -0.0798  0.4063
  203MOL0     C26701   6.629  10.498   6.055 -0.0157  0.4980 -1.0755
  203MOL0     C26702   6.535  10.616   6.017 -0.2637  0.3147 -0.1046
  203MOL0     C26703   6.404  10.548   5.977  0.1452 -0.2105  0.4578
  203MOL0     C26704   6.304  10.642   5.915 -0.3458  0.2794 -0.2303
  203MOL0     C26705   6.164  10.584   5.895 -0.2572 -0.8392  0.5674
  203MOL0     C26706   6.057  10.686   5.904  0.0726  0.5503  0.0323
  203MOL0     C26707   5.917  10.637   5.888 -0.7422  1.4407  0.0234
  203MOL0    Cl26708   5.890  10.482   5.986  0.1837  0.0227 -0.2282
  203MOL0     C26709   7.016  10.772   5.939 -0.3998  0.5649  0.5407
  203MOL0     C26710   7.150  10.811   5.948 -0.0697 -0.0899 -0.2683
  203MOL0     O26711   7.306  11.037   6.035 -0.3903  0.1895 -0.0551
  203MOL0     C26712   7.571  11.091   5.994 -0.7678  0.4338 -0.0867
  203MOL0     C26713   7.704  11.122   6.007  0.7432 -0.5946  0.0943
  203MOL0     N26714   8.301  10.917   5.720 -0.0237  0.2568 -0.0289
  203MOL0     N26715   8.416  10.870   5.694 -1.0130  0.1619  0.3871
  203MOL0     C26716   9.530  10.965   6.087 -0.3072 -0.2532  0.2861
  203MOL0     C26717   9.663  10.981   6.108 -0.2721 -0.1697  0.2108
  203MOL0     C26718  10.035  11.105   6.248  1.0358 -0.6999  0.1770
  203MOL0     C26719  10.093  11.187   6.148  0.4405 -0.9074 -0.2409
  203MOL0     C26720  10.227  11.199   6.144 -0.1821  0.1152 -0.0592
  203MOL0     C26721  10.309  11.122   6.220  0.0285  0.0834  1.1023
  203MOL0     O26722  10.441  11.130   6.191 -0.3020 -0.3012 -0.1128
  203MOL0     C26723  10.536  11.041   6.257 -0.1826 -0.0029  0.0895
  203MOL0     C26724  10.675  11.075   6.217 -0.5031 -0.4573 -0.2451
  203MOL0     C26725  10.698  11.096   6.065  0.9637 -0.3362 -0.6237
  203MOL0     C26726  10.849  11.067   6.030  0.5008 -0.1252 -0.1338
  203MOL0     C26727  10.879  10.928   5.985 -0.3863 -0.3603 -0.2188
  203MOL0     C26728  10.886  10.822   5.940  0.3593 -0.4602 -0.3740
  203MOL0     C26729  10.256  11.029   6.316 -0.2120 -0.3561 -0.5878
  203MOL0     C26730  10.120  11.023   6.325  0.3117 -0.4571 -0.3933
  203MOL0     H26731   9.669  10.868   6.440 -1.2651 -0.3141  0.3830
  203MOL0     H26732   9.432  10.847   6.392  1.1872  1.6353  1.8995
  203MOL0     H26733   9.210  10.873   6.337  1.2097  0.4095  0.3005
  203MOL0     H26734   9.228  10.736   6.225  0.9446 -0.1261  0.4093
  203MOL0     H26735   9.053  10.975   6.196 -1.8433 -0.3454 -4.3514
  203MOL0     H26736   9.001  10.812   6.216 -2.6724  4.3282  1.6329
  203MOL0     H26737   9.086  10.747   6.008 -0.6750 -0.0698  1.8085
  203MOL0     H26738   9.168  10.905   5.985  0.5846  0.8668  2.4680
  203MOL0     H26739   8.863  10.844   5.970 -0.4384 -0.0610  0.6192
  203MOL0     H26740   8.936  11.008   5.980  1.6293  0.2003  1.2696
  203MOL0     H26741   8.978  10.781   5.780 -0.4783 -0.7403  1.1331
  203MOL0     H26742   9.079  10.926   5.785  0.4556 -1.3012  0.8481
  203MOL0     H26743   8.889  10.908   5.615  1.4803 -2.3503  1.5299
  203MOL0     H26744   8.913  11.061   5.693 -1.4690  0.8589  1.6542
  203MOL0     H26745   8.719  10.846   5.797 -1.6921 -0.2140 -0.2134
  203MOL0     H26746   8.709  11.019   5.834  0.2550 -0.6126  1.0035
  203MOL0     H26747   8.646  10.860   5.584  1.4265  1.1611 -1.5283
  203MOL0     H26748   8.677  11.034   5.575 -2.1126 -0.9054 -1.4301
  203MOL0     H26749   8.490  11.177   5.772  0.7075 -0.9544  0.1363
  203MOL0     H26750   8.125  11.111   5.766 -0.8446  1.3831  0.9029
  203MOL0     H26751   8.240  11.245   5.782  3.5919 -1.0279 -0.7647
  203MOL0     H26752   8.331  11.172   5.999  0.4793 -1.5679 -1.2118
  203MOL0     H26753   8.218  11.038   6.004  0.8823 -0.2199 -0.4401
  203MOL0     H26754   8.145  11.217   6.160 -2.9032  0.4071  1.0603
  203MOL0     H26755   8.149  11.331   6.024  1.9199 -1.1967  0.4874
  203MOL0     H26756   7.948  11.226   5.922 -1.0964  2.8481  0.8069
  203MOL0     H26757   7.915  11.277   6.082 -0.4750 -1.5280  0.8311
  203MOL0     H26758   7.837  10.835   6.131  2.9522  0.5995 -1.6266
  203MOL0     H26759   7.599  10.780   6.151  1.3715 -1.7000 -0.8576
  203MOL0     H26760   7.217  10.652   6.236 -1.6351 -0.8069  0.2203
  203MOL0     H26761   6.992  10.596   6.225  2.5001 -2.2459 -0.6717
  203MOL0     H26762   6.736  10.618   6.191 -4.1393  1.0036 -1.5519
  203MOL0     H26763   6.836  10.479   6.138  3.3968  1.5703 -2.3895
  203MOL0     H26764   6.578  10.439   6.133  0.3146  0.0476 -1.1930
  203MOL0     H26765   6.642  10.435   5.966 -0.6180  2.1594 -2.3827
  203MOL0     H26766   6.580  10.668   5.931 -0.3843  1.7317  0.6500
  203MOL0     H26767   6.516  10.691   6.095  1.7111  0.0348  0.7230
  203MOL0     H26768   6.423  10.469   5.903 -1.2473  1.0314 -1.2857
  203MOL0     H26769   6.360  10.494   6.062  1.5588 -1.6064  0.3512
  203MOL0     H26770   6.343  10.675   5.818  0.3965 -2.5613 -0.9936
  203MOL0     H26771   6.296  10.730   5.979  0.1083  0.5938 -0.5946
  203MOL0     H26772   6.148  10.508   5.972  1.6616  0.0183  1.8833
  203MOL0     H26773   6.152  10.534   5.798  0.8227  1.9891 -1.1388
  203MOL0     H26774   6.069  10.726   6.005  0.2996  0.9107 -0.1352
  203MOL0     H26775   6.075  10.772   5.839 -1.8174  1.2898  0.4282
  203MOL0     H26776   5.882  10.622   5.785 -1.4842  0.1724  0.4384
  203MOL0     H26777   5.848  10.715   5.921 -0.5379  1.4054  0.5394
  203MOL0     H26778   6.963  10.794   5.847 -0.8270  0.1630  0.6870
  203MOL0     H26779   7.201  10.856   5.863  0.2488 -0.3253 -0.2040
  203MOL0     H26780   7.506  11.166   5.950  2.4396  2.5434 -1.5210
  203MOL0     H26781   7.734  11.215   5.960  0.5175 -0.9475 -0.7705
  203MOL0     H26782   9.494  10.990   5.988  0.2442  0.3054  0.2256
  203MOL0     H26783   9.730  11.003   6.025 -1.7873  0.8901 -0.7835
  203MOL0     H26784  10.024  11.242   6.086 -2.0145 -0.0932  2.9333
  203MOL0     H26785  10.267  11.272   6.075  0.0576  0.8310  0.8096
  203MOL0     H26786  10.519  10.934   6.246 -1.7917  0.2997 -0.8556
  203MOL0     H26787  10.534  11.063   6.364 -1.0253  0.9003 -0.0930
  203MOL0     H26788  10.701  11.161   6.279  1.1081 -0.4669 -0.8735
  203MOL0     H26789  10.740  10.992   6.246 -1.9339 -2.0067 -1.2934
  203MOL0     H26790  10.672  11.199   6.037 -2.4568 -0.5472  1.2966
  203MOL0     H26791  10.636  11.025   6.010 -0.6207  2.0148 -2.0978
  203MOL0     H26792  10.874  11.130   5.944  1.1251  0.2135  0.2898
  203MOL0     H26793  10.907  11.103   6.115  2.2158  0.7713 -1.6139
  203MOL0     H26794  10.895  10.719   5.912 -1.1133 -0.4703 -0.9066
  203MOL0     H26795  10.318  10.971   6.384 -0.8811 -1.0553 -0.5603
  203MOL0     H26796  10.080  10.963   6.406  0.4585 -0.6641 -0.4755
  204MOL0     O26797   2.484   0.023   3.337 -0.2995  0.5383  0.3104
  204MOL0     C26798   2.506   0.037   3.212  0.1205  0.5940 -0.6559
  204MOL0     O26799   2.621   0.016   3.149  0.0995 -0.4606  0.4396
  204MOL0     C26800   2.733  -0.040   3.209  0.0005  0.4770 -0.2855
  204MOL0     C26801   2.771  -0.043   3.349  1.0747  0.3064  0.2986
  204MOL0     C26802   2.882  -0.109   3.401 -0.4060 -0.7096  0.5693
  204MOL0     C26803   2.958  -0.183   3.307  0.1605 -0.2048 -0.1460
  204MOL0     O26804   3.064  -0.244   3.360 -0.2834  0.6777  0.5943
  204MOL0     C26805   3.174  -0.230   3.282 -0.1053 -1.1661  0.5078
  204MOL0     C26806   3.286  -0.270   3.376  0.9866  0.1519 -0.0130
  204MOL0     C26807   3.404  -0.303   3.293 -0.7911  0.6095  0.4351
  204MOL0     C26808   3.529  -0.334   3.381  0.5239 -0.1476  0.1315
  204MOL0     C26809   3.646  -0.403   3.303 -0.4996 -0.3400 -0.7946
  204MOL0     C26810   3.616  -0.548   3.269  0.0630 -0.2705 -0.8734
  204MOL0     C26811   3.733  -0.639   3.231  1.1278  1.1813 -0.1556
  204MOL0     C26812   3.761  -0.626   3.080  0.2026  0.6942 -0.0162
  204MOL0     N26813   3.875  -0.713   3.054  0.0820 -0.8460 -0.4959
  204MOL0     C26814   4.004  -0.683   3.070 -0.1278  0.0449 -0.3562
  204MOL0     C26815   4.070  -0.789   3.016  0.3229 -0.8914 -0.5516
  204MOL0     C26816   4.220  -0.819   3.002 -0.7441  0.2386 -0.2233
  204MOL0     C26817   4.254  -0.934   3.107 -0.0898  0.5013 -0.7149
  204MOL0     C26818   4.401  -0.984   3.103 -0.0281 -0.4150  0.2829
  204MOL0     C26819   4.446  -1.090   3.198  0.0977  0.5607 -0.0778
  204MOL0     O26820   4.469  -1.215   3.132 -0.6780  0.4066 -0.2516
  204MOL0     C26821   4.588  -1.250   3.079  0.4036  0.9232  0.8384
  204MOL0     C26822   4.602  -1.372   3.011 -0.8988 -0.4157  0.5903
  204MOL0     C26823   4.721  -1.407   2.949  0.0115 -0.1216  0.5360
  204MOL0     C26824   4.832  -1.328   2.953 -0.0228  1.5778 -0.9001
  204MOL0     C26825   4.950  -1.371   2.871  0.7266 -0.5432  0.3621
  204MOL0     O26826   5.007  -1.278   2.798 -0.4703  0.0901  0.0200
  204MOL0     C26827   5.110  -1.328   2.712 -0.5727  0.2303 -0.3875
  204MOL0     C26828   5.230  -1.378   2.768 -0.0749 -0.6200 -0.1065
  204MOL0     C26829   5.328  -1.420   2.682 -0.7974  0.2584 -0.1384
  204MOL0     C26830   5.309  -1.426   2.545  0.9579 -0.2698  0.1636
  204MOL0     O26831   5.404  -1.471   2.462 -0.7898 -0.8960 -0.1547
  204MOL0     C26832   5.548  -1.498   2.504  0.8297 -0.1259 -0.0856
  204MOL0     C26833   5.618  -1.551   2.382  0.0004 -0.1732 -0.7029
  204MOL0     C26834   5.769  -1.577   2.413  0.1457  0.6682 -0.4222
  204MOL0     C26835   5.844  -1.608   2.285  0.6686 -0.1459  0.2754
  204MOL0     C26836   5.987  -1.602   2.296  0.1569  0.0384 -0.1183
  204MOL0     C26837   6.050  -1.708   2.391  0.4215 -0.7723 -1.5835
  204MOL0     C26838   6.196  -1.692   2.409 -0.0070 -0.4041 -0.1651
  204MOL0     C26839   6.249  -1.804   2.501  0.5811 -0.1017 -0.1086
  204MOL0    Cl26840   6.415  -1.772   2.552  0.0957  0.3132  0.0886
  204MOL0     C26841   5.181  -1.386   2.493  0.7713  0.4536 -0.8726
  204MOL0     C26842   5.084  -1.341   2.580  0.4873  0.3563  0.2838
  204MOL0     O26843   4.978  -1.488   2.883 -0.1043 -0.1839 -0.3431
  204MOL0     C26844   4.822  -1.207   3.022 -0.3058 -0.8071  0.5595
  204MOL0     C26845   4.701  -1.177   3.085 -0.0488 -1.1899 -0.0090
  204MOL0     N26846   3.972  -0.876   2.981 -0.1913 -0.2303 -0.1958
  204MOL0     N26847   3.854  -0.835   3.012  0.5894 -0.0828 -0.2813
  204MOL0     C26848   2.932  -0.174   3.168  0.5310  0.3463 -0.5465
  204MOL0     C26849   2.820  -0.107   3.119  0.7562  0.2401 -0.5030
  204MOL0     C26850   2.396   0.107   3.136  0.7599  0.8365 -0.3304
  204MOL0     C26851   2.410   0.117   2.992  0.1875  0.5219 -0.1677
  204MOL0     C26852   2.305   0.158   2.913 -0.4733 -0.3496  0.4444
  204MOL0     C26853   2.191   0.213   2.975  0.5810 -0.0519 -0.0984
  204MOL0     O26854   2.081   0.281   2.918 -0.1018 -0.4075 -0.1696
  204MOL0     C26855   2.101   0.324   2.786  0.7098  0.6649  0.5025
  204MOL0     C26856   1.967   0.377   2.731 -0.2237  0.3010 -0.0810
  204MOL0     C26857   1.974   0.419   2.586  0.3114  0.3032  0.0294
  204MOL0     C26858   1.836   0.490   2.544  0.0793 -1.1493 -0.6678
  204MOL0     C26859   1.821   0.508   2.402  0.1646  0.4796 -0.5204
  204MOL0     C26860   1.813   0.525   2.281 -0.0059  0.9217  0.2464
  204MOL0     C26861   2.191   0.219   3.117  0.4128 -0.1035  0.0995
  204MOL0     C26862   2.287   0.166   3.196 -0.1547  0.5040 -0.4966
  204MOL0     H26863   2.711   0.002   3.427  1.5057 -1.2635  1.6072
  204MOL0     H26864   2.921  -0.121   3.501  1.4884 -1.2343 -0.1775
  204MOL0     H26865   3.187  -0.124   3.258  0.9143 -0.7463  2.7072
  204MOL0     H26866   3.171  -0.299   3.197 -0.2304 -0.1813 -0.3158
  204MOL0     H26867   3.248  -0.352   3.437 -2.6828  0.8877 -1.0289
  204MOL0     H26868   3.312  -0.186   3.442  0.5389 -0.3618  0.8366
  204MOL0     H26869   3.423  -0.222   3.222 -1.7713  1.7309  1.4117
  204MOL0     H26870   3.386  -0.392   3.233 -0.8048 -1.0553  2.8035
  204MOL0     H26871   3.557  -0.238   3.425 -1.1374  0.1915  0.5300
  204MOL0     H26872   3.495  -0.389   3.469 -3.3518  3.6274  1.3293
  204MOL0     H26873   3.728  -0.415   3.375 -0.9670 -2.7435 -0.6046
  204MOL0     H26874   3.675  -0.356   3.209  1.5010 -0.8390 -0.4682
  204MOL0     H26875   3.541  -0.555   3.189  0.9103 -2.4491 -1.5610
  204MOL0     H26876   3.568  -0.590   3.358 -1.4613  1.8909 -0.6211
  204MOL0     H26877   3.821  -0.615   3.292 -0.9196  0.1916  3.5037
  204MOL0     H26878   3.718  -0.744   3.256 -1.4160  1.1671 -1.4107
  204MOL0     H26879   3.791  -0.521   3.069  0.8583  0.3810 -1.4486
  204MOL0     H26880   3.678  -0.653   3.013 -1.8646  1.1992  2.2163
  204MOL0     H26881   4.048  -0.599   3.123  0.1340  0.2243 -0.8515
  204MOL0     H26882   4.281  -0.729   3.006  2.0126 -1.4776 -0.7201
  204MOL0     H26883   4.235  -0.863   2.903  0.0093 -1.8893  0.7614
  204MOL0     H26884   4.183  -1.015   3.087 -0.3892 -0.2482  2.7080
  204MOL0     H26885   4.243  -0.900   3.210  1.6496  0.1621 -0.3938
  204MOL0     H26886   4.426  -1.032   3.008 -1.6663 -3.4938  1.2812
  204MOL0     H26887   4.458  -0.891   3.109  0.6490 -0.8221  0.2552
  204MOL0     H26888   4.357  -1.116   3.256  0.0074 -1.4968 -1.0382
  204MOL0     H26889   4.527  -1.050   3.259 -0.0918  0.8079  0.0155
  204MOL0     H26890   4.513  -1.434   3.007 -1.9445  1.0829 -0.4874
  204MOL0     H26891   4.722  -1.500   2.893  2.0913  0.5882 -0.7281
  204MOL0     H26892   5.234  -1.392   2.876 -1.2045  2.4557  0.4663
  204MOL0     H26893   5.421  -1.459   2.722  0.1538 -0.2591 -2.6162
  204MOL0     H26894   5.539  -1.570   2.586 -2.4195  1.4241  1.1311
  204MOL0     H26895   5.604  -1.416   2.550  2.3161  0.7395 -3.1756
  204MOL0     H26896   5.613  -1.486   2.294 -0.0208 -3.3245 -3.2305
  204MOL0     H26897   5.571  -1.644   2.348 -0.0825  0.6705 -3.1415
  204MOL0     H26898   5.772  -1.665   2.478 -0.2155  0.1344 -1.1106
  204MOL0     H26899   5.812  -1.493   2.468 -0.9802  0.3614  0.9875
  204MOL0     H26900   5.797  -1.698   2.245  1.4007 -0.5925  0.3988
  204MOL0     H26901   5.829  -1.526   2.214  1.3204  1.1925  1.6198
  204MOL0     H26902   6.028  -1.505   2.325  0.9150  0.1715 -1.5414
  204MOL0     H26903   6.024  -1.616   2.194  0.0573  1.3761 -0.3571
  204MOL0     H26904   6.024  -1.807   2.351 -1.9691 -0.8481  0.0088
  204MOL0     H26905   6.004  -1.686   2.487 -1.2230  0.4279 -2.5827
  204MOL0     H26906   6.243  -1.714   2.313 -1.5254 -3.0641 -0.4039
  204MOL0     H26907   6.220  -1.596   2.456 -1.8523 -0.0098  0.0546
  204MOL0     H26908   6.247  -1.898   2.445 -0.6430 -1.3000  1.8188
  204MOL0     H26909   6.194  -1.808   2.596  1.1049 -0.4246  0.1821
  204MOL0     H26910   5.174  -1.398   2.385  0.4388 -3.5299 -0.5296
  204MOL0     H26911   4.985  -1.339   2.537  0.3917  4.0218  0.3491
  204MOL0     H26912   4.899  -1.132   3.038 -2.7077  1.6652  1.3189
  204MOL0     H26913   4.706  -1.073   3.116  0.8053 -1.3514  0.4158
  204MOL0     H26914   3.006  -0.207   3.096  1.3125  1.3925 -0.2445
  204MOL0     H26915   2.795  -0.100   3.013  0.9197  0.0011 -0.5558
  204MOL0     H26916   2.502   0.088   2.943 -0.6709 -0.8281 -1.0318
  204MOL0     H26917   2.326   0.158   2.806  1.3322  0.2036  0.7544
  204MOL0     H26918   2.138   0.248   2.716 -2.6079 -0.5481 -0.0961
  204MOL0     H26919   2.162   0.415   2.791 -1.5801  2.3383 -0.3955
  204MOL0     H26920   1.889   0.301   2.739 -1.5985  1.6689 -0.0834
  204MOL0     H26921   1.934   0.459   2.795  2.0010  0.1193  1.4104
  204MOL0     H26922   1.981   0.334   2.518 -3.0686 -0.2720  0.2172
  204MOL0     H26923   2.064   0.481   2.576  0.5169 -0.0439 -0.2848
  204MOL0     H26924   1.756   0.425   2.581  0.2431 -2.9899 -3.3350
  204MOL0     H26925   1.820   0.585   2.596  0.5547 -1.7387  0.6130
  204MOL0     H26926   1.809   0.538   2.174  0.9010 -1.8358 -0.1945
  204MOL0     H26927   2.101   0.253   3.167  1.3938  0.7853  1.3103
  204MOL0     H26928   2.281   0.174   3.304  2.8076  0.9490 -0.2737
  205MOL0     O26929   1.246   0.149   6.954 -0.3489  0.3018 -0.1223
  205MOL0     C26930   1.253   0.028   6.940  0.2128 -0.2559 -0.7389
  205MOL0     O26931   1.153  -0.059   6.971 -0.0719  0.3179 -0.3822
  205MOL0     C26932   1.026  -0.016   6.953 -0.1921 -0.5013 -0.4359
  205MOL0     C26933   0.971   0.032   6.836 -0.3115  0.2948  0.4242
  205MOL0     C26934   0.829   0.057   6.818  0.2953 -0.3140 -0.2664
  205MOL0     C26935   0.742   0.057   6.928  0.6951 -0.5801  0.8738
  205MOL0     O26936   0.603   0.067   6.912 -0.4385  0.5554 -0.2521
  205MOL0     C26937   0.541   0.030   6.789 -0.0611 -0.3466  0.4296
  205MOL0     C26938   0.388   0.030   6.787  0.0733  1.4618  0.3238
  205MOL0     C26939   0.322  -0.035   6.911 -0.5526 -1.0185  0.5797
  205MOL0     C26940   0.171  -0.013   6.919 -0.3490  0.2578 -0.4149
  205MOL0     C26941   0.094  -0.072   6.799 -0.0360 -0.1269  0.3156
  205MOL0     C26942  -0.055  -0.055   6.826  0.1808 -0.6940 -0.3827
  205MOL0     C26943  -0.136  -0.093   6.699 -0.0968  0.1145 -0.1517
  205MOL0     C26944  -0.155  -0.243   6.668 -0.7350  0.8233 -0.3855
  205MOL0     N26945  -0.296  -0.271   6.656 -1.3595  0.2960 -0.6793
  205MOL0     C26946  -0.389  -0.262   6.753 -0.5698  0.4255  0.3050
  205MOL0     C26947  -0.511  -0.290   6.696  0.5460  0.5264 -1.3720
  205MOL0     C26948  -0.650  -0.277   6.756 -0.4852  0.1028  0.2009
  205MOL0     C26949  -0.751  -0.360   6.670 -0.3754 -0.1142 -0.9098
  205MOL0     C26950  -0.889  -0.315   6.706 -0.3524 -0.1641  0.4782
  205MOL0     C26951  -1.005  -0.410   6.675  0.0683 -0.5515  0.6453
  205MOL0     O26952  -0.977  -0.461   6.544 -0.0486  0.2444 -0.2849
  205MOL0     C26953  -1.091  -0.499   6.478  0.6808 -0.3900 -0.5790
  205MOL0     C26954  -1.077  -0.502   6.344 -0.3057 -0.0778  0.2004
  205MOL0     C26955  -1.177  -0.538   6.251  0.2295 -0.1533 -0.3799
  205MOL0     C26956  -1.306  -0.570   6.308  0.3649  0.2996  0.8722
  205MOL0     C26957  -1.408  -0.643   6.225  0.1331 -0.4546 -0.4670
  205MOL0     O26958  -1.517  -0.688   6.287 -0.1134 -0.4009 -0.5241
  205MOL0     C26959  -1.633  -0.720   6.223  0.6525  0.0820 -0.1053
  205MOL0     C26960  -1.689  -0.637   6.123  0.0493 -0.3862 -0.2518
  205MOL0     C26961  -1.813  -0.666   6.073 -0.1328  0.2795 -0.4488
  205MOL0     C26962  -1.884  -0.774   6.122 -0.9075 -0.4269  0.4546
  205MOL0     O26963  -2.005  -0.800   6.066  0.6588 -0.2807 -0.3114
  205MOL0     C26964  -2.106  -0.797   6.156 -0.0257  0.5698  0.1240
  205MOL0     C26965  -2.239  -0.767   6.089 -0.6291  0.2902 -0.3447
  205MOL0     C26966  -2.365  -0.837   6.142  0.7202  0.6194  0.6093
  205MOL0     C26967  -2.492  -0.788   6.074  1.0005 -0.0157 -0.2190
  205MOL0     C26968  -2.622  -0.876   6.104 -0.4929 -0.3484 -0.8152
  205MOL0     C26969  -2.689  -0.823   6.231  0.8291 -0.1901 -0.6768
  205MOL0     C26970  -2.805  -0.917   6.273 -0.3044  0.1073 -0.1450
  205MOL0     C26971  -2.878  -0.859   6.390 -0.2285  0.5372 -0.5715
  205MOL0    Cl26972  -3.026  -0.959   6.425 -0.2405  0.2150 -0.3530
  205MOL0     C26973  -1.827  -0.865   6.218  0.1912  0.5079  0.3630
  205MOL0     C26974  -1.700  -0.839   6.265  0.2145  0.8292 -0.0352
  205MOL0     O26975  -1.370  -0.670   6.107 -0.2426  0.0420 -0.2008
  205MOL0     C26976  -1.325  -0.560   6.439  0.0848  1.4465  0.5032
  205MOL0     C26977  -1.223  -0.514   6.526 -0.3086  0.3913  0.3217
  205MOL0     N26978  -0.487  -0.316   6.565 -0.2984 -0.1937  0.6504
  205MOL0     N26979  -0.366  -0.294   6.540 -0.2199  0.2167  0.5357
  205MOL0     C26980   0.796   0.014   7.047 -1.0299 -0.1194 -1.1333
  205MOL0     C26981   0.935  -0.027   7.058 -0.2219  0.2101  0.1452
  205MOL0     C26982   1.390  -0.029   6.910 -0.5055  0.5713  0.4891
  205MOL0     C26983   1.508   0.033   6.910  0.1225 -0.2324 -0.6622
  205MOL0     C26984   1.625  -0.038   6.898 -0.6809 -0.0758 -0.0447
  205MOL0     C26985   1.629  -0.173   6.870 -0.2911 -0.3305  0.2537
  205MOL0     O26986   1.750  -0.234   6.855 -0.5836  0.7143  0.8346
  205MOL0     C26987   1.749  -0.372   6.814 -0.3744  0.8597 -0.3937
  205MOL0     C26988   1.892  -0.415   6.773  0.5071 -0.0686 -0.5916
  205MOL0     C26989   1.924  -0.357   6.636 -0.0388  0.3931 -0.9239
  205MOL0     C26990   2.056  -0.416   6.591 -0.1668  0.4108  0.5925
  205MOL0     C26991   2.126  -0.331   6.496  0.5741 -0.3010 -0.3779
  205MOL0     C26992   2.197  -0.271   6.414 -0.2018  0.4168 -0.5060
  205MOL0     C26993   1.507  -0.239   6.857  0.6038  0.6514 -1.2163
  205MOL0     C26994   1.390  -0.168   6.892  0.0598  0.5567 -0.8323
  205MOL0     H26995   1.036   0.048   6.751  0.5143 -1.4327  0.6951
  205MOL0     H26996   0.797   0.085   6.718 -0.4479  1.0311  0.3214
  205MOL0     H26997   0.573  -0.068   6.754 -0.0971  0.0373 -0.7214
  205MOL0     H26998   0.570   0.109   6.719  2.4264  0.7856  2.5896
  205MOL0     H26999   0.355  -0.018   6.695 -2.1087  1.7241  0.9228
  205MOL0     H27000   0.351   0.131   6.769 -3.2016  0.0302 -1.6896
  205MOL0     H27001   0.360   0.015   7.000 -0.2011  0.1305 -0.1796
  205MOL0     H27002   0.363  -0.136   6.914  0.9693 -0.3911  3.3678
  205MOL0     H27003   0.139  -0.057   7.013  1.3817 -0.5538 -0.1497
  205MOL0     H27004   0.146   0.092   6.932 -0.0622  0.2644  0.1019
  205MOL0     H27005   0.121  -0.177   6.782 -0.0324  0.1351 -1.5735
  205MOL0     H27006   0.128  -0.012   6.713  0.0850 -0.5315  0.0765
  205MOL0     H27007  -0.083   0.040   6.871  0.5722 -0.9539  0.4389
  205MOL0     H27008  -0.082  -0.119   6.910  0.5188  0.9235  1.0114
  205MOL0     H27009  -0.232  -0.042   6.705 -1.0834 -1.6647 -0.1583
  205MOL0     H27010  -0.097  -0.048   6.607  0.5078 -0.1145 -0.0104
  205MOL0     H27011  -0.112  -0.303   6.749  3.0220  0.6015 -2.2957
  205MOL0     H27012  -0.099  -0.278   6.581  2.5126 -0.5938  2.0608
  205MOL0     H27013  -0.368  -0.205   6.843  0.0287 -0.1211  0.5249
  205MOL0     H27014  -0.691  -0.177   6.770 -2.6291 -0.7662  0.5266
  205MOL0     H27015  -0.632  -0.325   6.852  3.6615 -0.3643 -0.6310
  205MOL0     H27016  -0.744  -0.465   6.699 -1.1170 -0.7526 -2.8622
  205MOL0     H27017  -0.739  -0.347   6.562 -1.1074 -0.6811 -1.0729
  205MOL0     H27018  -0.890  -0.290   6.813  0.2372  0.9120  0.2493
  205MOL0     H27019  -0.916  -0.214   6.672 -0.9106 -0.3668  0.3096
  205MOL0     H27020  -1.100  -0.356   6.670 -0.0726 -0.8159  0.4439
  205MOL0     H27021  -0.993  -0.482   6.756  1.1261 -0.8382  0.2465
  205MOL0     H27022  -0.980  -0.473   6.307 -1.5396  4.6620  0.0705
  205MOL0     H27023  -1.160  -0.549   6.145 -1.9941 -1.5463 -0.6702
  205MOL0     H27024  -1.637  -0.545   6.098 -0.2827  0.9112  3.2725
  205MOL0     H27025  -1.863  -0.617   5.989  1.8541  1.4631 -1.0187
  205MOL0     H27026  -2.091  -0.714   6.225  2.4222  1.6518 -1.5729
  205MOL0     H27027  -2.107  -0.888   6.217  1.5150  0.9105  0.6887
  205MOL0     H27028  -2.236  -0.800   5.985 -0.7510 -2.3234  0.4094
  205MOL0     H27029  -2.260  -0.659   6.089  1.7276  0.8171 -0.5390
  205MOL0     H27030  -2.382  -0.823   6.249 -0.3971 -1.2043  0.7072
  205MOL0     H27031  -2.359  -0.945   6.125 -0.5445  0.7339 -0.6886
  205MOL0     H27032  -2.513  -0.687   6.111  0.1636 -0.1360 -0.3656
  205MOL0     H27033  -2.476  -0.799   5.967 -2.5728 -0.4248 -0.8106
  205MOL0     H27034  -2.588  -0.980   6.115 -0.2618 -0.6938 -4.0547
  205MOL0     H27035  -2.694  -0.865   6.023 -0.2985  4.5725 -0.6230
  205MOL0     H27036  -2.734  -0.724   6.231 -3.7716 -2.0032 -2.4894
  205MOL0     H27037  -2.615  -0.815   6.312  0.9403  0.6349 -0.8588
  205MOL0     H27038  -2.871  -0.925   6.187 -0.2806  3.3228 -0.5853
  205MOL0     H27039  -2.754  -1.012   6.293  0.0788  0.3354 -0.0224
  205MOL0     H27040  -2.908  -0.757   6.363 -1.0062  0.8209  1.2363
  205MOL0     H27041  -2.810  -0.851   6.476  0.3724 -4.0548 -0.4109
  205MOL0     H27042  -1.892  -0.944   6.254 -0.7788  1.5210  0.8755
  205MOL0     H27043  -1.653  -0.911   6.331  1.0663  1.3944 -0.0072
  205MOL0     H27044  -1.428  -0.577   6.470  0.5771 -0.6603  1.1255
  205MOL0     H27045  -1.255  -0.503   6.629 -2.1652 -2.7088  0.1938
  205MOL0     H27046   0.725   0.005   7.129  0.8585 -0.8341  0.4963
  205MOL0     H27047   0.963  -0.067   7.155  1.4596 -0.2343 -0.4922
  205MOL0     H27048   1.506   0.142   6.916 -2.0695 -0.2706  0.1958
  205MOL0     H27049   1.721   0.012   6.898 -0.0003 -1.0583  3.8767
  205MOL0     H27050   1.696  -0.393   6.720  1.9924 -2.8643 -1.1288
  205MOL0     H27051   1.716  -0.434   6.898 -0.7669  0.1792 -1.0336
  205MOL0     H27052   1.963  -0.383   6.849 -0.5465 -1.1343  0.9111
  205MOL0     H27053   1.903  -0.524   6.766  1.3100  0.0418 -1.1926
  205MOL0     H27054   1.948  -0.251   6.653  1.0763 -0.0805  0.8009
  205MOL0     H27055   1.841  -0.383   6.570 -1.5239  0.0755  0.9664
  205MOL0     H27056   2.129  -0.415   6.672  0.7658  2.2416 -0.2004
  205MOL0     H27057   2.055  -0.518   6.552  2.4024  0.6344 -0.2528
  205MOL0     H27058   2.269  -0.221   6.351 -1.5973 -0.2600 -2.7862
  205MOL0     H27059   1.506  -0.345   6.831 -0.0440 -0.2191  1.9938
  205MOL0     H27060   1.300  -0.227   6.907  0.8544 -0.6295 -0.6584
  206MOL0     O27061   7.978   7.835  11.068 -0.0904  0.6494  0.3310
  206MOL0     C27062   8.067   7.866  10.992 -0.1691 -0.0078 -0.1555
  206MOL0     O27063   8.057   7.944  10.887  0.1521 -0.0325 -0.2940
  206MOL0     C27064   7.933   7.981  10.847  0.4599 -0.2960  0.1363
  206MOL0     C27065   7.873   7.900  10.746 -0.5249  0.4745 -0.2528
  206MOL0     C27066   7.742   7.923  10.707 -0.1752 -0.3141  0.4938
  206MOL0     C27067   7.665   8.032  10.754  0.1120 -0.1840 -1.0056
  206MOL0     O27068   7.534   8.041  10.716  0.9797  0.4331  0.6820
  206MOL0     C27069   7.450   8.156  10.762 -0.7911  0.7889 -0.6712
  206MOL0     C27070   7.320   8.157  10.684  0.0447 -0.9682 -0.2061
  206MOL0     C27071   7.226   8.258  10.722 -0.1633  0.4027 -0.3047
  206MOL0     C27072   7.086   8.237  10.655  0.1355 -0.3589  0.7871
  206MOL0     C27073   7.008   8.374  10.636 -0.0618 -0.0072 -0.1549
  206MOL0     C27074   6.860   8.350  10.596  0.6827 -0.4228  0.2616
  206MOL0     C27075   6.776   8.482  10.599  0.0541 -0.2689  0.3826
  206MOL0     C27076   6.629   8.436  10.578 -0.1691  0.5084  0.3987
  206MOL0     N27077   6.528   8.540  10.600 -0.6895  0.0753 -0.0874
  206MOL0     C27078   6.537   8.676  10.576 -0.3944  0.2489 -0.5361
  206MOL0     C27079   6.416   8.726  10.610  0.2398  0.1347  0.9423
  206MOL0     C27080   6.377   8.870  10.604  0.0299  0.5697  0.3770
  206MOL0     C27081   6.477   8.966  10.675 -0.0618 -0.2591 -0.4115
  206MOL0     C27082   6.463   8.949  10.829  0.1218 -0.0484 -0.5302
  206MOL0     C27083   6.349   9.021  10.884  0.2397  0.8698 -0.1826
  206MOL0     O27084   6.376   9.158  10.886 -0.0562 -0.2891 -0.1604
  206MOL0     C27085   6.269   9.246  10.918 -0.5236  0.5865  0.7741
  206MOL0     C27086   6.279   9.378  10.885 -0.6553 -0.3157  0.4014
  206MOL0     C27087   6.180   9.474  10.892 -0.4133 -0.2189  0.3027
  206MOL0     C27088   6.055   9.439  10.950 -0.1321  0.7712 -0.0535
  206MOL0     C27089   5.950   9.551  10.965 -0.1211 -0.5239 -0.5362
  206MOL0     O27090   5.950   9.646  10.873  0.0813  0.5777 -0.8264
  206MOL0     C27091   5.860   9.752  10.882  0.4993  0.0856  0.0978
  206MOL0     C27092   5.718   9.729  10.889  0.3590 -0.1823 -0.5852
  206MOL0     C27093   5.623   9.839  10.884 -0.1482  0.4605  0.5439
  206MOL0     C27094   5.681   9.971  10.889 -0.0735  0.1572 -0.2695
  206MOL0     O27095   5.595  10.081  10.877  0.0292  0.2055  0.2495
  206MOL0     C27096   5.597  10.171  10.996  0.1175 -0.1076  0.0461
  206MOL0     C27097   5.481  10.137  11.093 -0.7110 -0.1779  0.0447
  206MOL0     C27098   5.496  10.212  11.223 -0.4955 -0.0788  0.3535
  206MOL0     C27099   5.449  10.351  11.211  0.0654  0.1272 -0.2917
  206MOL0     C27100   5.509  10.434  11.324  0.2608 -0.7277 -0.0715
  206MOL0     C27101   5.440  10.568  11.328 -0.2717 -0.8428 -0.4963
  206MOL0     C27102   5.492  10.639  11.459  0.6019 -0.0441 -0.3718
  206MOL0     C27103   5.504  10.786  11.432 -0.3421 -0.2653  1.3021
  206MOL0    Cl27104   5.346  10.874  11.419  0.3210 -0.2843 -0.1957
  206MOL0     C27105   5.822   9.990  10.884 -0.2320 -0.4791 -0.0540
  206MOL0     C27106   5.902   9.883  10.868 -0.0525  0.0844  0.6131
  206MOL0     O27107   5.878   9.555  11.067  0.2140  0.3860  0.6740
  206MOL0     C27108   6.031   9.297  10.982 -0.8654  0.2606 -0.3590
  206MOL0     C27109   6.135   9.203  10.959 -0.7152 -0.1099  0.2303
  206MOL0     N27110   6.342   8.617  10.656 -0.3679 -0.2779  0.2003
  206MOL0     N27111   6.409   8.514  10.651 -0.0322 -0.3098 -0.2503
  206MOL0     C27112   7.731   8.117  10.849  0.3522 -0.1697  0.4448
  206MOL0     C27113   7.863   8.094  10.892  0.0348 -0.3376 -0.1812
  206MOL0     C27114   8.191   7.794  11.006 -0.2830 -0.1098 -0.0216
  206MOL0     C27115   8.305   7.823  10.929 -0.9032  0.6714  1.1270
  206MOL0     C27116   8.421   7.742  10.946 -1.1315  0.0312 -0.6551
  206MOL0     C27117   8.429   7.638  11.039 -0.0954 -0.4646 -0.4823
  206MOL0     O27118   8.541   7.564  11.071  0.4346 -0.0978 -0.2149
  206MOL0     C27119   8.651   7.562  10.979 -0.4941 -0.8969  0.6136
  206MOL0     C27120   8.745   7.677  11.005 -0.1821 -0.1675  0.1591
  206MOL0     C27121   8.880   7.674  10.927 -0.9421 -0.1060 -0.5191
  206MOL0     C27122   9.004   7.611  11.014  0.3640 -0.5482  0.7100
  206MOL0     C27123   9.112   7.567  10.915 -0.2808 -0.2441  0.3192
  206MOL0     C27124   9.199   7.538  10.836  0.2399 -0.4692 -0.0587
  206MOL0     C27125   8.314   7.618  11.117 -0.1132 -0.6539 -0.0613
  206MOL0     C27126   8.201   7.693  11.109  0.6535  0.5356  0.2863
  206MOL0     H27127   7.932   7.820  10.703  1.0213 -0.4770  3.2807
  206MOL0     H27128   7.697   7.853  10.637 -0.0927  1.4449 -1.4134
  206MOL0     H27129   7.511   8.244  10.742 -0.5649  0.3990 -1.7984
  206MOL0     H27130   7.434   8.132  10.867 -0.4978 -2.3734 -1.2343
  206MOL0     H27131   7.267   8.062  10.699 -2.8409  0.9244  2.6437
  206MOL0     H27132   7.350   8.171  10.579  2.2454 -2.1812  0.1898
  206MOL0     H27133   7.264   8.356  10.691  3.6262 -0.5024  0.9551
  206MOL0     H27134   7.221   8.267  10.831 -0.0778  0.8112 -0.3302
  206MOL0     H27135   7.092   8.186  10.559 -1.0465 -2.8399  1.9357
  206MOL0     H27136   7.024   8.164  10.707  1.9331 -3.5951 -1.3113
  206MOL0     H27137   7.062   8.429  10.558 -1.2500 -2.5496 -2.9785
  206MOL0     H27138   7.008   8.429  10.730 -4.4923 -1.3089  0.8426
  206MOL0     H27139   6.825   8.274  10.667 -2.6034  0.5322 -0.1599
  206MOL0     H27140   6.852   8.312  10.494  1.1249  2.0367 -0.7727
  206MOL0     H27141   6.789   8.531  10.696 -0.0711  1.3511 -0.3918
  206MOL0     H27142   6.810   8.550  10.521 -0.2704 -0.8044 -0.2380
  206MOL0     H27143   6.602   8.347  10.636 -0.3959 -0.7801 -1.5702
  206MOL0     H27144   6.623   8.409  10.472 -0.3377  0.6297  0.3765
  206MOL0     H27145   6.622   8.718  10.524  0.9115 -3.0266 -1.3281
  206MOL0     H27146   6.280   8.879  10.655  0.6640  2.9745  1.2683
  206MOL0     H27147   6.366   8.895  10.498  1.9779  0.8954  0.2188
  206MOL0     H27148   6.462   9.071  10.649 -1.1401 -0.9385 -2.8981
  206MOL0     H27149   6.576   8.938  10.638 -0.7589 -2.8894 -0.4715
  206MOL0     H27150   6.465   8.845  10.864  0.8924  0.2759  0.4213
  206MOL0     H27151   6.555   9.000  10.860 -1.6129  1.3115  2.8503
  206MOL0     H27152   6.328   8.990  10.987  0.7419 -1.6944 -0.7733
  206MOL0     H27153   6.258   9.010  10.825  0.2516 -0.2077 -0.0286
  206MOL0     H27154   6.375   9.414  10.849 -1.2984  0.4818 -0.5703
  206MOL0     H27155   6.197   9.576  10.860 -0.0200 -0.1544  0.7110
  206MOL0     H27156   5.680   9.628  10.883 -0.4454 -0.0116  1.0780
  206MOL0     H27157   5.515   9.835  10.882 -0.1435 -2.2403 -3.0205
  206MOL0     H27158   5.586  10.276  10.969  1.7615 -0.1316 -0.7951
  206MOL0     H27159   5.696  10.162  11.041  0.6495 -0.9323 -1.2278
  206MOL0     H27160   5.488  10.031  11.119  0.3551  0.2705  1.7264
  206MOL0     H27161   5.385  10.137  11.042 -1.3058  0.0097  1.1389
  206MOL0     H27162   5.598  10.206  11.262 -0.4451  3.0123  0.9026
  206MOL0     H27163   5.431  10.171  11.301 -1.5346  0.8969  0.0399
  206MOL0     H27164   5.463  10.401  11.115 -0.3173 -1.9675 -1.5201
  206MOL0     H27165   5.341  10.350  11.225  0.3842  0.2114  2.7444
  206MOL0     H27166   5.616  10.448  11.307  0.2908 -0.8404  0.0246
  206MOL0     H27167   5.482  10.392  11.421 -3.6939 -1.1386 -1.1556
  206MOL0     H27168   5.333  10.548  11.333 -0.0148 -1.9552  1.1919
  206MOL0     H27169   5.453  10.623  11.234 -1.6377  1.8099  0.7520
  206MOL0     H27170   5.431  10.612  11.546 -2.1159  1.1328 -1.7820
  206MOL0     H27171   5.596  10.610  11.476  1.2242 -0.8149 -4.4520
  206MOL0     H27172   5.553  10.798  11.335 -2.7533 -0.2951  0.0195
  206MOL0     H27173   5.580  10.834  11.494  2.5886 -0.5984 -1.7476
  206MOL0     H27174   5.871  10.086  10.882  0.9203 -1.0545 -0.2617
  206MOL0     H27175   6.009   9.896  10.858 -0.0870  0.2592  0.4655
  206MOL0     H27176   5.933   9.261  11.012 -0.3097 -1.8795 -0.9085
  206MOL0     H27177   6.106   9.099  10.965  1.7658 -0.9048 -0.7031
  206MOL0     H27178   7.687   8.202  10.901  0.9540  0.0725  0.5681
  206MOL0     H27179   7.930   8.151  10.955  0.9094 -0.7107 -0.7520
  206MOL0     H27180   8.321   7.898  10.853  2.8409  0.6294  1.6457
  206MOL0     H27181   8.515   7.770  10.900 -0.9295 -0.2091 -0.3939
  206MOL0     H27182   8.624   7.561  10.873  2.7275 -1.6143 -0.3121
  206MOL0     H27183   8.710   7.471  10.995 -0.6795 -0.8979  1.3230
  206MOL0     H27184   8.688   7.768  10.985 -2.7818 -0.9893  3.1016
  206MOL0     H27185   8.771   7.658  11.110  1.2149 -2.9221 -0.5812
  206MOL0     H27186   8.908   7.772  10.888  0.6112 -0.0316  0.6663
  206MOL0     H27187   8.860   7.608  10.842  0.8065 -0.6694 -0.5340
  206MOL0     H27188   9.048   7.684  11.083 -2.7029  0.2853  1.9701
  206MOL0     H27189   8.962   7.523  11.064 -1.3940 -0.4183 -0.4494
  206MOL0     H27190   9.268   7.521  10.756  0.1942  0.3145 -0.2682
  206MOL0     H27191   8.322   7.553  11.203  1.5114  1.0051  1.1186
  206MOL0     H27192   8.114   7.660  11.166  0.2030  1.2845  0.0453
  207MOL0     O27193  10.241   6.656   4.060  0.1257  0.6841 -0.1449
  207MOL0     C27194  10.231   6.768   4.000 -1.0535 -0.1399  0.1558
  207MOL0     O27195  10.121   6.834   3.973 -0.0230 -0.5101 -0.4025
  207MOL0     C27196  10.007   6.759   3.993  0.0679  0.1829  0.5324
  207MOL0     C27197   9.916   6.815   4.091 -0.8539 -0.0009  0.3423
  207MOL0     C27198   9.798   6.751   4.115  0.3163  0.3023  0.7621
  207MOL0     C27199   9.760   6.637   4.038  0.6454  0.1728 -0.5853
  207MOL0     O27200   9.641   6.564   4.054 -0.0032 -0.4195  0.2515
  207MOL0     C27201   9.536   6.626   4.119 -0.4396 -0.6672  0.6981
  207MOL0     C27202   9.418   6.522   4.126  0.6928  0.2674  0.0347
  207MOL0     C27203   9.292   6.603   4.169 -0.0793  0.3213  0.8112
  207MOL0     C27204   9.172   6.510   4.148 -0.7234  0.7777  0.2724
  207MOL0     C27205   9.052   6.577   4.221 -0.2080 -0.3043  0.1920
  207MOL0     C27206   8.926   6.551   4.136  0.0141 -0.2493 -0.2113
  207MOL0     C27207   8.922   6.680   4.043  0.2922 -0.1544 -0.4724
  207MOL0     C27208   8.805   6.651   3.947  0.9377 -0.0007  0.0965
  207MOL0     N27209   8.676   6.619   4.024  0.4298 -0.5704 -0.0966
  207MOL0     C27210   8.599   6.717   4.088  0.9547 -0.5242  0.3988
  207MOL0     C27211   8.481   6.658   4.119 -1.1955 -0.4529  0.4068
  207MOL0     C27212   8.378   6.730   4.199  0.1714 -0.2933 -0.2701
  207MOL0     C27213   8.245   6.740   4.123 -0.1035  0.0216 -0.6193
  207MOL0     C27214   8.134   6.814   4.217  0.4949 -0.4124  1.2272
  207MOL0     C27215   7.992   6.802   4.154 -0.0234 -0.0906 -0.0164
  207MOL0     O27216   7.917   6.903   4.223 -0.4029  0.5610 -0.2904
  207MOL0     C27217   7.782   6.870   4.241 -0.2725 -0.1929 -0.0000
  207MOL0     C27218   7.711   6.769   4.168 -0.2001 -0.8528 -0.9253
  207MOL0     C27219   7.578   6.755   4.180  0.9828  0.2814  0.1464
  207MOL0     C27220   7.512   6.827   4.280  0.5960  1.2058 -0.5232
  207MOL0     C27221   7.371   6.807   4.296  0.1666  0.3841  0.2453
  207MOL0     O27222   7.307   6.769   4.183 -0.2273 -0.0591 -0.2311
  207MOL0     C27223   7.173   6.736   4.197  0.1199 -0.0374  0.0507
  207MOL0     C27224   7.130   6.603   4.233  0.5555  0.2782 -0.6886
  207MOL0     C27225   6.995   6.573   4.251 -0.4086  0.2369  0.7650
  207MOL0     C27226   6.905   6.677   4.250 -0.1273 -0.0012  0.4066
  207MOL0     O27227   6.778   6.643   4.278 -0.2981  0.3758 -0.3829
  207MOL0     C27228   6.673   6.742   4.272  0.3326  0.1769  0.0780
  207MOL0     C27229   6.550   6.694   4.341  0.6873 -0.0411 -0.1985
  207MOL0     C27230   6.445   6.803   4.361 -0.6011 -0.1760  0.7700
  207MOL0     C27231   6.318   6.738   4.416 -0.3604 -0.1951 -0.9626
  207MOL0     C27232   6.213   6.843   4.449  0.3671  0.5381 -0.0713
  207MOL0     C27233   6.066   6.815   4.445 -0.1938 -0.1283 -0.2195
  207MOL0     C27234   6.016   6.712   4.549  0.5959 -0.2858 -0.5147
  207MOL0     C27235   5.874   6.740   4.582  0.4001  0.7778 -0.0329
  207MOL0    Cl27236   5.830   6.610   4.693  0.3275 -0.2106 -0.3117
  207MOL0     C27237   6.942   6.814   4.218  0.3408  0.3564  0.0884
  207MOL0     C27238   7.079   6.833   4.186  0.2557 -0.3709 -0.5675
  207MOL0     O27239   7.310   6.834   4.406 -0.8211 -0.3248 -0.5838
  207MOL0     C27240   7.589   6.920   4.361  0.5641 -0.4722  0.6563
  207MOL0     C27241   7.719   6.947   4.328  0.2784 -0.4664  0.2402
  207MOL0     N27242   8.490   6.519   4.084 -0.1874  0.2092 -0.2731
  207MOL0     N27243   8.600   6.503   4.020  0.4587 -0.1757  0.3256
  207MOL0     C27244   9.845   6.588   3.932  0.3842 -0.1386 -0.7978
  207MOL0     C27245   9.966   6.650   3.917 -0.4683  0.5731  0.3238
  207MOL0     C27246  10.354   6.844   3.978 -0.8959  0.2843 -0.3765
  207MOL0     C27247  10.484   6.784   3.990  0.9247  0.5356 -1.2366
  207MOL0     C27248  10.601   6.854   3.971 -0.1085 -0.1002  1.0847
  207MOL0     C27249  10.602   6.988   3.957 -0.3475 -0.8632  0.1577
  207MOL0     O27250  10.728   7.053   3.949  0.7406 -0.2851 -0.0461
  207MOL0     C27251  10.735   7.195   3.961 -0.2302  0.1751 -0.0784
  207MOL0     C27252  10.875   7.265   3.951  0.0848  0.2927 -0.2116
  207MOL0     C27253  10.969   7.211   3.839  1.0929 -0.5290 -0.7507
  207MOL0     C27254  11.092   7.307   3.814  0.2860 -0.4617 -1.2485
  207MOL0     C27255  11.195   7.245   3.724  1.1543  0.4647 -0.8711
  207MOL0     C27256  11.266   7.190   3.647 -0.1086  0.1515 -1.1376
  207MOL0     C27257  10.479   7.057   3.955  1.1069  0.6478  0.5959
  207MOL0     C27258  10.354   6.985   3.955 -0.4232  0.4801  0.4700
  207MOL0     H27259   9.941   6.907   4.144 -0.0803  0.4537 -0.7833
  207MOL0     H27260   9.719   6.790   4.178 -4.0005 -2.6134 -2.2405
  207MOL0     H27261   9.500   6.703   4.051  4.2611  0.3966 -0.9745
  207MOL0     H27262   9.561   6.663   4.218  0.9274  1.0280 -0.2343
  207MOL0     H27263   9.441   6.441   4.196 -3.9715  0.7285  2.4628
  207MOL0     H27264   9.415   6.476   4.026  3.5982 -3.8499  1.5444
  207MOL0     H27265   9.276   6.700   4.120  0.8823 -1.0057 -2.4024
  207MOL0     H27266   9.309   6.630   4.274  0.6882  1.7064  0.3655
  207MOL0     H27267   9.156   6.482   4.043 -3.0801  1.0536  0.5048
  207MOL0     H27268   9.197   6.429   4.218  2.3068  1.1761 -0.1967
  207MOL0     H27269   9.074   6.684   4.230  1.1381 -0.3118 -2.1173
  207MOL0     H27270   9.042   6.533   4.320 -0.1810 -2.4333 -0.7062
  207MOL0     H27271   8.840   6.538   4.202 -2.0713 -1.3007 -2.9473
  207MOL0     H27272   8.933   6.455   4.084  1.0361 -1.7674  2.5573
  207MOL0     H27273   8.891   6.766   4.103 -2.8734 -1.3216 -0.2506
  207MOL0     H27274   9.020   6.696   3.997  0.8311 -0.4318  0.5609
  207MOL0     H27275   8.825   6.569   3.877  1.0371  0.6533 -0.6531
  207MOL0     H27276   8.781   6.744   3.896 -0.6960  1.5292  3.3373
  207MOL0     H27277   8.633   6.817   4.110 -1.5018  0.5483 -0.3110
  207MOL0     H27278   8.410   6.831   4.229  3.4720 -1.6493  1.3347
  207MOL0     H27279   8.367   6.675   4.293  1.0560 -0.0267  0.0041
  207MOL0     H27280   8.209   6.638   4.103 -0.6590  0.0157  0.3170
  207MOL0     H27281   8.257   6.803   4.035  0.3411  4.3512  2.2858
  207MOL0     H27282   8.118   6.762   4.312 -1.6857 -1.8097  0.1976
  207MOL0     H27283   8.145   6.922   4.219  0.0329 -0.3525  0.7217
  207MOL0     H27284   7.955   6.700   4.160 -0.2349  0.0744  2.7630
  207MOL0     H27285   8.009   6.834   4.051  0.8288  1.4718  0.5716
  207MOL0     H27286   7.747   6.704   4.089  0.8870  0.4830 -1.5701
  207MOL0     H27287   7.526   6.686   4.115  3.3055 -1.2575 -0.2089
  207MOL0     H27288   7.219   6.541   4.240  1.9777  2.4067  2.0389
  207MOL0     H27289   6.954   6.477   4.280 -2.3726 -0.0308 -2.4598
  207MOL0     H27290   6.640   6.768   4.171 -2.2272  0.6976  0.9591
  207MOL0     H27291   6.702   6.832   4.327  1.0969 -0.9656  1.6375
  207MOL0     H27292   6.576   6.650   4.438 -1.6184  2.4826  1.6943
  207MOL0     H27293   6.506   6.615   4.279 -1.1751 -3.4140  4.7896
  207MOL0     H27294   6.432   6.855   4.266  3.7600 -0.3353 -0.1128
  207MOL0     H27295   6.494   6.879   4.422  1.8759 -0.2724 -0.9521
  207MOL0     H27296   6.289   6.652   4.354  1.4617 -3.2153  2.0381
  207MOL0     H27297   6.336   6.692   4.513 -1.8501  0.9530 -0.0890
  207MOL0     H27298   6.226   6.924   4.376 -0.8471  0.3974 -0.4811
  207MOL0     H27299   6.241   6.883   4.547 -0.3673 -0.7292  0.6887
  207MOL0     H27300   6.047   6.778   4.343  1.8101 -2.3296  0.1315
  207MOL0     H27301   6.016   6.912   4.455  0.9094  0.8036 -2.7968
  207MOL0     H27302   6.021   6.611   4.508  0.2320 -0.7367  0.5095
  207MOL0     H27303   6.085   6.717   4.633  1.2502  3.9562 -1.1111
  207MOL0     H27304   5.807   6.732   4.495 -1.3879 -0.2598  1.3721
  207MOL0     H27305   5.867   6.837   4.630 -0.7967  0.5194  0.3489
  207MOL0     H27306   6.870   6.892   4.198  0.4393  0.4247 -0.0021
  207MOL0     H27307   7.114   6.929   4.148  3.1226 -1.5184 -1.0862
  207MOL0     H27308   7.536   6.979   4.435  0.3172 -0.2878  0.3398
  207MOL0     H27309   7.783   7.023   4.372  0.1383  0.3281 -0.8872
  207MOL0     H27310   9.819   6.506   3.865  2.3825 -0.7720 -0.8808
  207MOL0     H27311  10.031   6.617   3.837 -2.2191 -1.9695 -0.1923
  207MOL0     H27312  10.490   6.678   4.010  2.7918  0.7578 -0.4802
  207MOL0     H27313  10.697   6.804   3.978 -1.0029 -2.2537 -0.7306
  207MOL0     H27314  10.671   7.227   4.044 -1.8049 -0.9293 -0.8000
  207MOL0     H27315  10.676   7.224   3.874 -0.9294  0.4214  0.4654
  207MOL0     H27316  10.848   7.368   3.924  2.0537  0.5186 -1.5754
  207MOL0     H27317  10.922   7.273   4.049 -2.3882  0.4997  1.0223
  207MOL0     H27318  10.912   7.200   3.746 -1.1294  2.4038  0.1184
  207MOL0     H27319  11.002   7.121   3.891 -0.7471  0.4946  2.4301
  207MOL0     H27320  11.057   7.397   3.762  0.9104 -0.7661 -2.2131
  207MOL0     H27321  11.148   7.353   3.896  0.6404  1.5429 -2.5568
  207MOL0     H27322  11.327   7.136   3.578  1.6426  1.6994 -0.8772
  207MOL0     H27323  10.470   7.163   3.934  0.7227  0.1480 -2.0460
  207MOL0     H27324  10.260   7.040   3.958 -0.6802  0.0145  1.1401
  208MOL0     O27325   1.492   6.672   0.524 -0.3124  0.4992 -0.3991
  208MOL0     C27326   1.594   6.603   0.515  0.0850 -0.3070 -0.2645
  208MOL0     O27327   1.611   6.497   0.418  0.4439  0.2512 -0.0125
  208MOL0     C27328   1.496   6.464   0.348 -0.2426 -0.2241 -0.1025
  208MOL0     C27329   1.497   6.482   0.212  0.0860 -0.3979  0.4283
  208MOL0     C27330   1.406   6.440   0.123 -0.2686 -0.0507  0.2646
  208MOL0     C27331   1.296   6.377   0.176 -0.1805 -0.6949  0.2985
  208MOL0     O27332   1.181   6.346   0.097 -0.0795  0.1880  0.2507
  208MOL0     C27333   1.050   6.393   0.148  0.0101  0.2903 -0.1544
  208MOL0     C27334   0.959   6.429   0.019  0.2871  0.5679 -0.8506
  208MOL0     C27335   0.816   6.474   0.052 -0.2394  0.3173 -0.4598
  208MOL0     C27336   0.744   6.516  -0.069 -0.5061 -0.1467 -0.0176
  208MOL0     C27337   0.604   6.577  -0.028 -0.9747 -0.2794  0.7368
  208MOL0     C27338   0.505   6.534  -0.140  0.1448 -0.2621 -0.0564
  208MOL0     C27339   0.380   6.626  -0.139  0.3321  0.1170 -0.3364
  208MOL0     C27340   0.309   6.620  -0.273 -0.2178 -0.8294 -0.0408
  208MOL0     N27341   0.169   6.627  -0.252  0.2336  0.4642  0.1019
  208MOL0     C27342   0.097   6.531  -0.186 -0.4838 -0.3360 -0.8774
  208MOL0     C27343  -0.030   6.555  -0.224  0.3525  0.3293 -0.5577
  208MOL0     C27344  -0.145   6.451  -0.209  0.0672  0.0563 -0.4795
  208MOL0     C27345  -0.276   6.527  -0.171  0.3206  0.7023  0.0257
  208MOL0     C27346  -0.397   6.440  -0.192  0.5207 -0.0372 -0.5142
  208MOL0     C27347  -0.525   6.503  -0.135 -0.0160 -0.2882 -0.1076
  208MOL0     O27348  -0.596   6.590  -0.218 -0.0520 -0.7134 -0.4884
  208MOL0     C27349  -0.657   6.542  -0.328  0.6259 -0.4039 -0.9886
  208MOL0     C27350  -0.709   6.627  -0.420  0.1585 -0.0184  0.1420
  208MOL0     C27351  -0.793   6.599  -0.533 -0.8965 -0.6104 -0.4948
  208MOL0     C27352  -0.830   6.464  -0.552  0.5136 -0.4591 -0.5093
  208MOL0     C27353  -0.922   6.421  -0.665  0.1599  0.8575 -0.2166
  208MOL0     O27354  -0.941   6.286  -0.675 -0.4032 -0.4997  0.2895
  208MOL0     C27355  -0.994   6.245  -0.794 -0.7714 -0.4654 -0.0673
  208MOL0     C27356  -1.113   6.185  -0.785  0.6683 -0.3487  0.3828
  208MOL0     C27357  -1.181   6.130  -0.896 -0.9381 -0.7335 -0.4074
  208MOL0     C27358  -1.121   6.150  -1.027  0.2149 -0.2220 -0.5284
  208MOL0     O27359  -1.176   6.110  -1.145  0.3934 -0.0303 -0.1882
  208MOL0     C27360  -1.313   6.074  -1.150  0.1803  0.7191 -0.3304
  208MOL0     C27361  -1.344   5.925  -1.153  0.6946  0.7035  0.2887
  208MOL0     C27362  -1.497   5.907  -1.183  0.5379  0.3972 -1.3290
  208MOL0     C27363  -1.530   5.760  -1.235 -0.3444 -0.0314 -1.5109
  208MOL0     C27364  -1.675   5.759  -1.272  0.2042  0.1039 -0.1785
  208MOL0     C27365  -1.776   5.786  -1.155 -0.3973 -0.5518 -1.6405
  208MOL0     C27366  -1.918   5.744  -1.193 -1.0716  0.3041 -0.0380
  208MOL0     C27367  -1.985   5.852  -1.276  0.3842 -0.3210 -1.1954
  208MOL0    Cl27368  -2.153   5.806  -1.292 -0.1525 -0.2365 -0.0727
  208MOL0     C27369  -0.999   6.216  -1.032 -0.6184  0.5949 -0.1532
  208MOL0     C27370  -0.934   6.262  -0.919  0.2719 -0.3344  0.0453
  208MOL0     O27371  -0.955   6.499  -0.753  0.0309  0.2267 -0.4252
  208MOL0     C27372  -0.786   6.373  -0.456 -0.5799  0.1829  0.8803
  208MOL0     C27373  -0.694   6.405  -0.350 -0.0339 -1.1478  0.2898
  208MOL0     N27374  -0.037   6.674  -0.290  0.1381 -0.0974 -0.3848
  208MOL0     N27375   0.086   6.721  -0.299 -0.3609 -0.0284 -0.2329
  208MOL0     C27376   1.289   6.352   0.314  0.3711 -0.3688  0.1092
  208MOL0     C27377   1.385   6.397   0.403  0.8789  0.5741  0.2165
  208MOL0     C27378   1.706   6.633   0.599  0.7541 -0.7175 -0.5291
  208MOL0     C27379   1.702   6.737   0.689 -0.8203 -0.2644  0.2742
  208MOL0     C27380   1.813   6.769   0.766 -0.0579  0.1205 -0.9110
  208MOL0     C27381   1.929   6.689   0.759 -0.0817  0.8229 -0.2420
  208MOL0     O27382   2.037   6.733   0.837 -0.6917 -0.1666 -0.8887
  208MOL0     C27383   2.159   6.658   0.814 -0.0710  0.0581 -0.2182
  208MOL0     C27384   2.264   6.740   0.883  0.6684 -0.1045 -0.3357
  208MOL0     C27385   2.258   6.884   0.840 -0.0534  0.3980 -0.1202
  208MOL0     C27386   2.166   6.976   0.927  0.7641 -0.1905 -0.1774
  208MOL0     C27387   2.176   7.112   0.885  0.9901  0.1960  0.4612
  208MOL0     C27388   2.187   7.221   0.826  0.7933 -0.1597 -0.0744
  208MOL0     C27389   1.928   6.570   0.681  0.7945 -1.3176  0.1431
  208MOL0     C27390   1.819   6.549   0.598 -0.5734 -0.0064 -0.6730
  208MOL0     H27391   1.584   6.540   0.182 -0.9026 -0.1661 -2.3034
  208MOL0     H27392   1.422   6.458   0.018  1.6111 -0.4666  0.4526
  208MOL0     H27393   1.062   6.489   0.199  0.1616 -0.9067  2.1875
  208MOL0     H27394   0.998   6.314   0.201  0.9418 -0.1638  0.1046
  208MOL0     H27395   0.959   6.336  -0.037  1.6621 -1.1807  1.8409
  208MOL0     H27396   1.017   6.503  -0.037  1.5225  1.1737  1.0982
  208MOL0     H27397   0.836   6.556   0.122  0.9362 -0.7275  0.4796
  208MOL0     H27398   0.764   6.386   0.091  1.2157 -0.4137 -0.1197
  208MOL0     H27399   0.793   6.592  -0.131  0.1263 -2.6613 -2.8411
  208MOL0     H27400   0.721   6.425  -0.125  0.3122 -1.4518  1.6566
  208MOL0     H27401   0.615   6.685  -0.010 -2.9101 -0.3840  3.0912
  208MOL0     H27402   0.575   6.535   0.069  1.9071  0.8957  2.2560
  208MOL0     H27403   0.478   6.429  -0.133 -0.9488  0.0530  0.7876
  208MOL0     H27404   0.553   6.545  -0.238 -0.1497  0.9245 -0.0857
  208MOL0     H27405   0.313   6.590  -0.061 -1.2655 -0.0573 -1.7210
  208MOL0     H27406   0.400   6.731  -0.116  2.2482 -0.2529 -0.1841
  208MOL0     H27407   0.354   6.546  -0.339  2.2958  0.1685  0.4276
  208MOL0     H27408   0.333   6.716  -0.321 -1.9749 -0.9762 -1.3066
  208MOL0     H27409   0.126   6.435  -0.146 -1.1173 -0.2532 -0.1864
  208MOL0     H27410  -0.124   6.381  -0.127  0.0902 -1.6544 -1.8899
  208MOL0     H27411  -0.161   6.407  -0.308  1.0222  0.2356 -0.7229
  208MOL0     H27412  -0.298   6.618  -0.227  0.3233 -0.2151 -1.5272
  208MOL0     H27413  -0.279   6.555  -0.065 -0.3202  0.4371  0.0831
  208MOL0     H27414  -0.416   6.410  -0.296  0.4410 -0.9175 -0.2577
  208MOL0     H27415  -0.391   6.342  -0.144 -0.0517 -0.2523 -0.8568
  208MOL0     H27416  -0.511   6.565  -0.046 -0.5041  1.0177 -0.9096
  208MOL0     H27417  -0.599   6.425  -0.116 -1.1887  0.8428  0.1390
  208MOL0     H27418  -0.680   6.727  -0.390 -3.5492  0.5665  2.4004
  208MOL0     H27419  -0.822   6.668  -0.611 -1.3146 -0.8299 -0.5359
  208MOL0     H27420  -1.154   6.177  -0.685  2.6918  1.0836  1.4090
  208MOL0     H27421  -1.283   6.096  -0.879 -1.8794  3.1952  3.4768
  208MOL0     H27422  -1.343   6.113  -1.248  0.8218  2.1214  0.0027
  208MOL0     H27423  -1.372   6.131  -1.078 -0.2149  0.3792 -0.3888
  208MOL0     H27424  -1.314   5.868  -1.065 -3.0937 -0.0179  1.3022
  208MOL0     H27425  -1.298   5.880  -1.242  0.6641  2.7695 -0.8419
  208MOL0     H27426  -1.524   5.976  -1.263  0.8340  3.3727  0.9599
  208MOL0     H27427  -1.546   5.937  -1.090  1.3084 -1.3960 -0.2986
  208MOL0     H27428  -1.457   5.737  -1.313  2.1362  0.9692  0.3549
  208MOL0     H27429  -1.513   5.689  -1.154 -0.2568  2.0264  0.3876
  208MOL0     H27430  -1.699   5.658  -1.305  0.7636 -0.8676  2.1492
  208MOL0     H27431  -1.690   5.833  -1.351 -1.3145 -0.2762 -0.2871
  208MOL0     H27432  -1.782   5.887  -1.113 -0.5627 -0.7849 -1.0911
  208MOL0     H27433  -1.748   5.723  -1.071 -0.9465  1.7849  0.4295
  208MOL0     H27434  -1.906   5.648  -1.244  0.9960  0.8071 -0.6338
  208MOL0     H27435  -1.982   5.727  -1.106 -1.0763 -1.5235 -0.3645
  208MOL0     H27436  -1.922   5.861  -1.365  0.4789 -0.8135 -1.1819
  208MOL0     H27437  -1.993   5.948  -1.223 -2.8628  0.8975 -3.6004
  208MOL0     H27438  -0.950   6.215  -1.129  0.7108  0.9189  0.4973
  208MOL0     H27439  -0.833   6.301  -0.918 -0.5270  1.8516  0.3897
  208MOL0     H27440  -0.803   6.269  -0.484  1.2091  0.0919 -0.0068
  208MOL0     H27441  -0.663   6.331  -0.276 -2.6225 -0.0159  2.7096
  208MOL0     H27442   1.208   6.294   0.355 -1.2346 -0.8046 -3.3939
  208MOL0     H27443   1.365   6.377   0.508 -0.6097 -0.0186 -0.1632
  208MOL0     H27444   1.612   6.796   0.691  0.7318  2.2312  0.3814
  208MOL0     H27445   1.816   6.850   0.837 -0.8980  0.3981 -1.1787
  208MOL0     H27446   2.187   6.660   0.708 -1.7836  1.2613 -0.6949
  208MOL0     H27447   2.161   6.555   0.849  3.6387 -0.2337 -0.9388
  208MOL0     H27448   2.248   6.722   0.989 -1.5461 -4.6846 -1.2092
  208MOL0     H27449   2.364   6.710   0.850  0.2166  1.4357 -3.5416
  208MOL0     H27450   2.234   6.886   0.733  1.7972  2.7463 -0.5883
  208MOL0     H27451   2.362   6.921   0.835  0.9166 -2.2790 -3.4092
  208MOL0     H27452   2.060   6.952   0.913  0.4641  2.6777 -5.0062
  208MOL0     H27453   2.190   6.960   1.032  1.3206  0.1193 -0.2540
  208MOL0     H27454   2.207   7.298   0.754  1.0819 -1.1802 -1.1191
  208MOL0     H27455   2.014   6.508   0.655  1.8000  1.6899 -5.2778
  208MOL0     H27456   1.824   6.467   0.528  0.1472  0.2524 -0.9259
  209MOL0     O27457   8.387   1.209   4.807  0.1976 -0.0606 -0.3646
  209MOL0     C27458   8.356   1.125   4.892 -0.3771 -0.4404 -0.9678
  209MOL0     O27459   8.447   1.051   4.962 -0.3626 -0.4733  0.4310
  209MOL0     C27460   8.559   1.008   4.896  0.4160  0.6941 -0.0343
  209MOL0     C27461   8.561   0.904   4.799  0.8139  0.0820  0.5101
  209MOL0     C27462   8.679   0.870   4.724 -0.0716 -0.3264  0.4195
  209MOL0     C27463   8.795   0.933   4.757 -0.0347 -0.6301  0.5021
  209MOL0     O27464   8.916   0.896   4.703  0.2414  0.1000  0.2689
  209MOL0     C27465   8.990   1.005   4.640  0.1030 -0.2966  0.3106
  209MOL0     C27466   9.115   0.965   4.569 -0.0640 -0.7134 -0.3473
  209MOL0     C27467   9.177   1.100   4.507  0.3034  1.3200  0.0412
  209MOL0     C27468   9.314   1.064   4.448 -0.1226  0.0736 -0.0631
  209MOL0     C27469   9.346   1.163   4.333  0.2586  0.1404 -0.9779
  209MOL0     C27470   9.381   1.298   4.393 -0.4746  0.4329  0.1685
  209MOL0     C27471   9.428   1.404   4.286 -0.6894 -0.2422  0.3915
  209MOL0     C27472   9.531   1.508   4.345 -0.6361  0.9919  0.6716
  209MOL0     N27473   9.662   1.440   4.381 -0.0579  0.4276 -0.0137
  209MOL0     C27474   9.717   1.416   4.499 -0.5642 -1.1543 -0.2059
  209MOL0     C27475   9.840   1.360   4.476 -0.2664 -0.3491 -0.3502
  209MOL0     C27476   9.946   1.332   4.585  0.1758  0.5895 -0.1032
  209MOL0     C27477  10.050   1.435   4.584  0.4154  0.1524 -0.2437
  209MOL0     C27478  10.152   1.426   4.471  0.8104 -0.2892 -0.1479
  209MOL0     C27479  10.248   1.546   4.461 -0.5597 -1.1271  0.6949
  209MOL0     O27480  10.305   1.556   4.596  0.4333 -0.1314  0.1943
  209MOL0     C27481  10.272   1.656   4.682  0.3880 -0.2383 -0.2178
  209MOL0     C27482  10.264   1.787   4.642  0.8424 -0.3894 -0.2467
  209MOL0     C27483  10.216   1.893   4.724  0.6195 -1.1418 -0.3537
  209MOL0     C27484  10.189   1.862   4.861 -0.4275 -0.7959  0.7044
  209MOL0     C27485  10.143   1.965   4.960 -0.3362  0.6555 -0.6229
  209MOL0     O27486  10.143   1.922   5.086 -0.1267 -0.5427  0.6459
  209MOL0     C27487  10.083   2.002   5.170  0.6866 -0.4888 -1.1977
  209MOL0     C27488  10.147   2.117   5.231 -0.6074 -0.0838 -0.1481
  209MOL0     C27489  10.085   2.184   5.334 -0.0936  0.0419 -0.2737
  209MOL0     C27490   9.955   2.141   5.389 -0.4959  0.4626  0.5389
  209MOL0     O27491   9.890   2.199   5.497  0.3932 -0.1716  0.2555
  209MOL0     C27492   9.763   2.155   5.557  0.2707  1.2408  0.2093
  209MOL0     C27493   9.648   2.227   5.500  0.0640  0.3426  0.1601
  209MOL0     C27494   9.517   2.206   5.577  0.0704 -0.4962  0.2723
  209MOL0     C27495   9.404   2.207   5.476 -0.1270  1.3003  0.7509
  209MOL0     C27496   9.265   2.212   5.546 -0.5145  0.0450 -0.1231
  209MOL0     C27497   9.162   2.158   5.456 -0.2243  0.3658 -0.1610
  209MOL0     C27498   9.030   2.211   5.500  0.2053 -0.4227 -0.4078
  209MOL0     C27499   8.930   2.107   5.470 -0.7297 -0.5985  0.2872
  209MOL0    Cl27500   8.776   2.140   5.525 -0.0189 -0.0216  0.3288
  209MOL0     C27501   9.901   2.033   5.323  0.1554  0.6036  1.0808
  209MOL0     C27502   9.965   1.956   5.226 -0.3261  0.1148  0.1542
  209MOL0     O27503  10.113   2.079   4.923  0.1383  0.0350  0.4927
  209MOL0     C27504  10.214   1.729   4.903  0.0375 -0.0130  0.6936
  209MOL0     C27505  10.251   1.623   4.814 -0.4124 -0.4376 -0.0673
  209MOL0     N27506   9.853   1.337   4.344 -0.2888  0.2591 -0.3858
  209MOL0     N27507   9.742   1.383   4.286  0.0002 -0.0042 -0.1397
  209MOL0     C27508   8.800   1.037   4.845  0.0423  0.6058 -0.9198
  209MOL0     C27509   8.681   1.070   4.921 -0.4840  0.3540 -0.3679
  209MOL0     C27510   8.209   1.104   4.927  0.1762 -1.4968 -0.0376
  209MOL0     C27511   8.110   1.192   4.881 -0.2986 -0.7018 -0.2011
  209MOL0     C27512   7.979   1.170   4.909  0.2112  0.0571  0.3797
  209MOL0     C27513   7.930   1.059   4.976 -0.1220 -0.3519  0.3862
  209MOL0     O27514   7.795   1.035   4.991 -0.8186 -0.0157 -0.3134
  209MOL0     C27515   7.755   0.904   5.041  0.3078  0.3260  0.3173
  209MOL0     C27516   7.609   0.928   5.045 -0.2799 -0.4849  0.1748
  209MOL0     C27517   7.520   0.837   5.132 -0.1295  0.1603  0.6777
  209MOL0     C27518   7.373   0.875   5.115 -0.1123 -0.3210 -0.4869
  209MOL0     C27519   7.294   0.759   5.160  0.2090 -0.2202 -0.6667
  209MOL0     C27520   7.224   0.665   5.190 -0.8054  0.3403 -0.1041
  209MOL0     C27521   8.031   0.964   5.018  0.2935  0.9847  0.7879
  209MOL0     C27522   8.171   0.988   4.998  0.2651  0.5418 -0.9309
  209MOL0     H27523   8.472   0.852   4.765  0.9161  0.0314  0.3154
  209MOL0     H27524   8.678   0.802   4.640  2.4323  0.6744 -0.5086
  209MOL0     H27525   9.026   1.078   4.714 -0.5609 -0.1302  0.4855
  209MOL0     H27526   8.915   1.048   4.573 -1.7423 -0.3417  2.2204
  209MOL0     H27527   9.089   0.894   4.491  0.0474  1.4943 -2.5136
  209MOL0     H27528   9.182   0.922   4.645 -0.7779 -0.5171  0.4084
  209MOL0     H27529   9.179   1.185   4.575 -1.7808  0.3298  1.4548
  209MOL0     H27530   9.094   1.118   4.437 -1.8466 -0.8184  1.8418
  209MOL0     H27531   9.388   1.063   4.528 -0.1777  1.9779  0.0427
  209MOL0     H27532   9.318   0.963   4.405 -2.5039  0.1827 -0.7162
  209MOL0     H27533   9.256   1.174   4.271 -2.2159  0.5652  2.4296
  209MOL0     H27534   9.433   1.133   4.275  0.8658 -1.1474  0.5305
  209MOL0     H27535   9.457   1.267   4.465 -0.5984  2.5556  1.2946
  209MOL0     H27536   9.298   1.342   4.449  0.1309  1.8850 -0.0295
  209MOL0     H27537   9.480   1.341   4.213  0.1548 -0.3352  1.0700
  209MOL0     H27538   9.344   1.454   4.237  0.2614  0.1429 -0.8854
  209MOL0     H27539   9.481   1.553   4.431 -1.7160  1.1145 -0.0041
  209MOL0     H27540   9.555   1.594   4.282  0.6752 -0.0038 -0.2578
  209MOL0     H27541   9.676   1.430   4.598  0.8665 -2.0375  0.5490
  209MOL0     H27542   9.994   1.236   4.566  1.4831  0.8630  1.6175
  209MOL0     H27543   9.894   1.329   4.681 -1.7466  4.0932 -0.8402
  209MOL0     H27544  10.104   1.430   4.679  0.2231  3.1366  0.0939
  209MOL0     H27545   9.994   1.526   4.563  0.8994 -0.0076 -2.4101
  209MOL0     H27546  10.204   1.330   4.476 -3.8362 -3.1273 -1.0662
  209MOL0     H27547  10.093   1.424   4.380  2.7330  0.1163 -1.4639
  209MOL0     H27548  10.186   1.631   4.430 -0.4589 -1.5597 -0.7672
  209MOL0     H27549  10.334   1.529   4.396 -0.6919  0.3221  0.1043
  209MOL0     H27550  10.296   1.809   4.541 -0.7445  0.1603 -0.6520
  209MOL0     H27551  10.204   1.993   4.683 -0.7197 -1.7644 -1.5631
  209MOL0     H27552  10.244   2.146   5.193 -0.6373 -0.3421 -0.4261
  209MOL0     H27553  10.120   2.284   5.361 -1.6316  0.4190  0.4395
  209MOL0     H27554   9.760   2.176   5.664  1.3045 -2.2080  1.0616
  209MOL0     H27555   9.745   2.047   5.548  2.1816  0.8559  0.4412
  209MOL0     H27556   9.638   2.175   5.404 -2.0510  0.9476 -0.0028
  209MOL0     H27557   9.681   2.329   5.481  2.7737 -0.7928 -2.0396
  209MOL0     H27558   9.505   2.287   5.650  3.7378  0.3357  0.1803
  209MOL0     H27559   9.512   2.115   5.637 -1.4045 -0.9998 -0.5710
  209MOL0     H27560   9.411   2.288   5.403  0.7387  0.7669  0.2192
  209MOL0     H27561   9.402   2.110   5.424 -0.1392  1.9581 -0.5100
  209MOL0     H27562   9.251   2.319   5.566 -0.8602 -0.1191  0.5340
  209MOL0     H27563   9.259   2.153   5.638 -2.0780  2.4437  1.4265
  209MOL0     H27564   9.165   2.050   5.470 -0.7416  0.0523 -2.1848
  209MOL0     H27565   9.171   2.177   5.349  0.9950  0.9225  0.0199
  209MOL0     H27566   9.032   2.225   5.609 -0.0252 -0.4900 -0.3924
  209MOL0     H27567   9.000   2.304   5.450 -1.5499 -0.7427 -0.0218
  209MOL0     H27568   8.965   2.008   5.503  0.2729 -1.3180 -2.6208
  209MOL0     H27569   8.935   2.119   5.362 -1.2743  1.5156  0.4535
  209MOL0     H27570   9.800   2.000   5.343 -1.1022  2.1953 -2.0410
  209MOL0     H27571   9.920   1.868   5.181  0.1222  0.2894 -0.6641
  209MOL0     H27572  10.203   1.691   5.004 -1.2825  0.3406  0.7069
  209MOL0     H27573  10.247   1.520   4.848 -0.0992 -0.0861  1.0883
  209MOL0     H27574   8.894   1.084   4.872  0.6554 -0.3300 -1.3895
  209MOL0     H27575   8.684   1.150   4.994  1.0344  0.9823 -1.0717
  209MOL0     H27576   8.135   1.282   4.827 -2.2480  0.9186  1.4324
  209MOL0     H27577   7.899   1.226   4.863 -1.5254 -2.2983  0.3127
  209MOL0     H27578   7.792   0.892   5.143  0.1885 -0.3856  0.2810
  209MOL0     H27579   7.771   0.816   4.978 -2.4651  0.9832 -1.4805
  209MOL0     H27580   7.593   1.027   5.090 -0.2753 -1.3786  2.2458
  209MOL0     H27581   7.575   0.920   4.942 -0.8074  0.2342  0.2791
  209MOL0     H27582   7.548   0.847   5.237 -1.2580  0.6018  0.9480
  209MOL0     H27583   7.539   0.732   5.105  2.1767  0.7171 -0.1073
  209MOL0     H27584   7.346   0.960   5.179  0.2194 -0.9233  0.4683
  209MOL0     H27585   7.333   0.896   5.015  0.6178  2.1806 -0.3149
  209MOL0     H27586   7.168   0.584   5.232  1.4032 -0.9687  0.4491
  209MOL0     H27587   8.005   0.866   5.055  1.9351  0.0905 -0.2919
  209MOL0     H27588   8.238   0.909   5.031 -0.1821  1.1740  1.7265
  210MOL0     O27589   7.803   9.479   4.655 -0.2017  0.6160  0.3297
  210MOL0     C27590   7.801   9.473   4.531  0.2768  0.0131  0.3816
  210MOL0     O27591   7.691   9.449   4.451  0.3318  0.0294  0.0473
  210MOL0     C27592   7.567   9.417   4.506  0.3410  0.4914 -0.7323
  210MOL0     C27593   7.477   9.367   4.410 -0.8210  0.0715  0.1415
  210MOL0     C27594   7.351   9.327   4.454  0.6821  0.2181  0.3692
  210MOL0     C27595   7.311   9.317   4.591  0.1015  0.7942 -0.4865
  210MOL0     O27596   7.192   9.279   4.647  0.1688  0.7843 -0.1953
  210MOL0     C27597   7.106   9.226   4.540 -0.1575  0.3386  0.2067
  210MOL0     C27598   6.979   9.185   4.614 -0.6971  0.3825  0.7549
  210MOL0     C27599   6.868   9.143   4.523  0.1463  0.1253 -0.0569
  210MOL0     C27600   6.750   9.121   4.619 -0.2407 -0.6044 -0.4132
  210MOL0     C27601   6.625   9.068   4.554 -0.1542  0.5565  0.1599
  210MOL0     C27602   6.493   9.058   4.640  0.1302  0.0174  0.2538
  210MOL0     C27603   6.392   8.990   4.554  0.3000  0.3281 -0.2041
  210MOL0     C27604   6.267   8.975   4.629  1.2873 -0.2383 -0.7367
  210MOL0     N27605   6.170   8.888   4.554 -0.3340  0.3411 -0.2726
  210MOL0     C27606   6.133   8.908   4.421  0.0169 -1.2456 -0.0405
  210MOL0     C27607   6.065   8.793   4.395 -1.1382  0.1296 -0.0002
  210MOL0     C27608   5.986   8.770   4.274 -0.6148  0.9925 -0.0262
  210MOL0     C27609   5.857   8.860   4.272 -0.5741 -0.0675  0.2380
  210MOL0     C27610   5.740   8.776   4.300 -0.3084  0.0720 -0.0269
  210MOL0     C27611   5.705   8.687   4.177 -0.3254 -0.3985  0.4128
  210MOL0     O27612   5.657   8.741   4.052 -0.3694  0.4735 -0.5078
  210MOL0     C27613   5.524   8.771   4.040  0.1501 -0.4073  0.1161
  210MOL0     C27614   5.427   8.741   4.138  0.2513  0.1166 -0.2292
  210MOL0     C27615   5.295   8.775   4.118  0.1436 -0.4055  1.1720
  210MOL0     C27616   5.257   8.851   4.008  0.2324 -0.0958 -0.1575
  210MOL0     C27617   5.117   8.904   4.000  0.0891 -0.1040  0.7269
  210MOL0     O27618   5.089   8.966   3.875  0.2416  0.0076  0.5492
  210MOL0     C27619   4.966   9.024   3.850  0.1444  0.1522 -0.4254
  210MOL0     C27620   4.838   9.003   3.910 -0.0368  0.8750  0.0491
  210MOL0     C27621   4.718   9.075   3.899  0.1858  0.9469 -0.1429
  210MOL0     C27622   4.724   9.182   3.807 -0.3791  0.4590 -0.3404
  210MOL0     O27623   4.618   9.267   3.801  0.6420 -0.4448 -0.0728
  210MOL0     C27624   4.585   9.346   3.683  0.2487 -0.8047 -0.3635
  210MOL0     C27625   4.447   9.391   3.689  0.9722 -0.1133  0.3648
  210MOL0     C27626   4.402   9.472   3.806 -0.4932 -1.1299 -0.2230
  210MOL0     C27627   4.250   9.503   3.798 -0.0855  0.4888  0.4414
  210MOL0     C27628   4.194   9.566   3.925 -0.3438  0.4135 -0.5603
  210MOL0     C27629   4.045   9.607   3.905  0.6684  0.0249  0.4797
  210MOL0     C27630   3.955   9.486   3.897  0.3418  0.2173  0.9850
  210MOL0     C27631   3.808   9.518   3.892  0.3774 -0.1353 -0.1926
  210MOL0    Cl27632   3.768   9.638   3.771  0.1463 -0.0252  0.2621
  210MOL0     C27633   4.841   9.211   3.733  0.1278  0.4369 -0.0964
  210MOL0     C27634   4.948   9.126   3.751 -0.4193  0.2878 -0.0282
  210MOL0     O27635   5.042   8.893   4.096 -0.1730 -0.0586 -0.6547
  210MOL0     C27636   5.351   8.881   3.909 -0.1924 -0.4321 -0.0029
  210MOL0     C27637   5.489   8.841   3.925  0.7047  0.7410  0.0703
  210MOL0     N27638   6.067   8.714   4.505 -0.5792  0.4082 -0.2913
  210MOL0     N27639   6.137   8.764   4.598  0.0559  0.1591 -0.4271
  210MOL0     C27640   7.403   9.361   4.686 -0.1280 -0.1054 -0.1670
  210MOL0     C27641   7.527   9.416   4.648 -0.5845  0.4022  0.1854
  210MOL0     C27642   7.923   9.508   4.456  0.3008  0.7463  0.4753
  210MOL0     C27643   7.924   9.535   4.316 -0.9001 -0.1396  0.4279
  210MOL0     C27644   8.050   9.556   4.244 -0.1883  0.3114 -1.1859
  210MOL0     C27645   8.171   9.549   4.311  0.4589 -0.0964  0.4114
  210MOL0     O27646   8.282   9.570   4.235 -0.0824 -0.1256  0.6846
  210MOL0     C27647   8.405   9.498   4.257 -0.2838  0.2088  0.3042
  210MOL0     C27648   8.438   9.399   4.150 -0.3449  0.3412 -0.4231
  210MOL0     C27649   8.513   9.463   4.034  0.6723  0.6725  0.3518
  210MOL0     C27650   8.505   9.378   3.904 -0.3630 -0.8630  0.2792
  210MOL0     C27651   8.560   9.448   3.788 -0.3982  0.8683  0.0460
  210MOL0     C27652   8.606   9.526   3.708 -0.2376 -0.3020  0.2753
  210MOL0     C27653   8.166   9.522   4.450 -0.0362 -0.4476 -0.1186
  210MOL0     C27654   8.046   9.497   4.521 -0.6727 -0.5197  0.0740
  210MOL0     H27655   7.514   9.363   4.308  1.7227  0.1751  0.9872
  210MOL0     H27656   7.281   9.312   4.373 -0.2401  0.1441  1.1621
  210MOL0     H27657   7.145   9.139   4.487  0.4244 -1.0340  2.7168
  210MOL0     H27658   7.090   9.301   4.463  3.1109  0.8985 -0.0614
  210MOL0     H27659   6.935   9.267   4.672  0.4071  1.5642 -0.0316
  210MOL0     H27660   7.010   9.109   4.686  0.6340 -0.3077 -0.5114
  210MOL0     H27661   6.893   9.055   4.463  1.8282  0.7076 -0.2535
  210MOL0     H27662   6.844   9.230   4.461  1.8145  0.8519  0.2793
  210MOL0     H27663   6.783   9.061   4.704  0.3382 -0.0180 -0.2175
  210MOL0     H27664   6.721   9.217   4.662 -0.8187 -0.9849  0.0791
  210MOL0     H27665   6.662   8.969   4.527 -0.2240  0.9138 -1.3551
  210MOL0     H27666   6.597   9.123   4.464 -0.0011 -0.8746 -0.7920
  210MOL0     H27667   6.464   9.161   4.664  1.0346  0.1722  0.7027
  210MOL0     H27668   6.530   9.002   4.726 -0.0844 -1.5777 -0.6521
  210MOL0     H27669   6.373   9.029   4.454 -1.1475 -2.8136 -1.2803
  210MOL0     H27670   6.440   8.894   4.533  4.5964  2.3110 -0.6511
  210MOL0     H27671   6.223   9.073   4.650 -2.3480 -2.2619  2.1633
  210MOL0     H27672   6.295   8.944   4.730 -3.8162  1.8003  1.6509
  210MOL0     H27673   6.145   8.993   4.354 -2.3882 -1.2635 -0.5600
  210MOL0     H27674   5.953   8.666   4.268  0.9881  0.5513 -2.3843
  210MOL0     H27675   6.048   8.787   4.186 -0.7171 -0.1406 -0.3350
  210MOL0     H27676   5.849   8.905   4.172 -0.1256 -1.3029 -0.3828
  210MOL0     H27677   5.874   8.943   4.340  5.1246 -1.5754  1.1880
  210MOL0     H27678   5.737   8.715   4.392 -2.7100  0.1803  0.0315
  210MOL0     H27679   5.659   8.847   4.320 -0.6097 -0.3492  0.2770
  210MOL0     H27680   5.645   8.599   4.200 -2.5709  0.9566  0.0661
  210MOL0     H27681   5.802   8.645   4.148 -0.4225 -1.7828  1.9937
  210MOL0     H27682   5.438   8.692   4.235 -2.0103 -1.1768 -0.5659
  210MOL0     H27683   5.223   8.750   4.195 -0.5806  1.5774  1.2018
  210MOL0     H27684   4.826   8.922   3.982  1.8032  0.0420 -0.5288
  210MOL0     H27685   4.633   9.036   3.954 -0.8031  0.6157 -1.8510
  210MOL0     H27686   4.603   9.283   3.595 -2.5220  1.8506 -3.0674
  210MOL0     H27687   4.644   9.436   3.669 -0.7682 -0.0970 -0.2254
  210MOL0     H27688   4.394   9.296   3.679 -1.6980  1.2960  0.1124
  210MOL0     H27689   4.424   9.440   3.594 -1.1670 -0.5713  0.5851
  210MOL0     H27690   4.450   9.571   3.805 -2.1489 -0.2800 -0.1991
  210MOL0     H27691   4.425   9.424   3.902 -2.8695 -0.9752  0.4949
  210MOL0     H27692   4.236   9.571   3.714 -1.2373 -2.0013 -1.5270
  210MOL0     H27693   4.205   9.408   3.769 -0.9164 -0.0005  3.0520
  210MOL0     H27694   4.244   9.659   3.956  0.7254  0.2217 -1.5875
  210MOL0     H27695   4.207   9.492   4.004 -0.3585  0.4084 -0.5631
  210MOL0     H27696   4.039   9.673   3.818 -1.1876 -1.1906 -0.3794
  210MOL0     H27697   4.005   9.663   3.990  1.0298 -0.5797  1.0541
  210MOL0     H27698   3.974   9.425   3.808  1.9141  1.0196  0.7457
  210MOL0     H27699   3.967   9.415   3.980  2.0991 -3.2395 -1.9328
  210MOL0     H27700   3.783   9.554   3.992 -0.8749  1.8215 -1.1344
  210MOL0     H27701   3.748   9.428   3.880 -0.5694  0.5578 -0.7247
  210MOL0     H27702   4.862   9.287   3.658  3.3337  2.0012  2.1423
  210MOL0     H27703   5.044   9.149   3.705 -0.0429  1.4693  1.2664
  210MOL0     H27704   5.333   8.935   3.816  0.6221 -1.0084 -0.5075
  210MOL0     H27705   5.564   8.867   3.852  1.2909 -2.2008 -0.4636
  210MOL0     H27706   7.393   9.353   4.793  2.1698 -2.3658 -0.0260
  210MOL0     H27707   7.597   9.442   4.727 -0.8007  1.7648 -0.0357
  210MOL0     H27708   7.831   9.548   4.262 -1.1567  0.9080  1.0889
  210MOL0     H27709   8.045   9.559   4.135 -1.5756 -0.9740 -1.1969
  210MOL0     H27710   8.401   9.433   4.345  1.8071 -0.6890 -0.1986
  210MOL0     H27711   8.489   9.567   4.271 -1.0151  1.2373 -0.2235
  210MOL0     H27712   8.497   9.318   4.194 -0.8647  0.8817  1.3871
  210MOL0     H27713   8.347   9.354   4.109  0.4471 -1.9599  0.1857
  210MOL0     H27714   8.621   9.476   4.051  1.3791  0.2927 -3.0620
  210MOL0     H27715   8.470   9.562   4.016 -3.7461 -0.7514  1.9619
  210MOL0     H27716   8.560   9.285   3.925 -4.3832 -2.8266  3.4869
  210MOL0     H27717   8.401   9.348   3.890 -0.4763 -0.8805  1.0993
  210MOL0     H27718   8.658   9.587   3.636 -1.6024 -1.1127 -1.4692
  210MOL0     H27719   8.264   9.515   4.498  1.1740 -1.0234 -2.4922
  210MOL0     H27720   8.041   9.489   4.630 -1.3895 -1.8283 -0.0306
  211MOL0     O27721   1.379  10.001   7.749  0.6038  0.4494  0.0646
  211MOL0     C27722   1.433  10.105   7.753 -0.7524  0.5276  0.1362
  211MOL0     O27723   1.384  10.220   7.819 -0.0806  0.8359 -0.3660
  211MOL0     C27724   1.269  10.203   7.891 -0.9249 -0.2672  0.1828
  211MOL0     C27725   1.265  10.129   8.015  0.3041 -0.3775 -0.1873
  211MOL0     C27726   1.146  10.103   8.077 -0.6186  0.5483 -0.7001
  211MOL0     C27727   1.029  10.145   8.020  0.0876 -0.3594 -0.1364
  211MOL0     O27728   0.913  10.106   8.091  0.0336  0.1252 -0.6392
  211MOL0     C27729   0.811  10.207   8.098 -0.5149 -0.3108  0.2521
  211MOL0     C27730   0.706  10.162   8.202  0.9536 -0.0016  0.3544
  211MOL0     C27731   0.582  10.253   8.201 -0.4770 -0.0234  0.4016
  211MOL0     C27732   0.459  10.184   8.270  0.3124 -0.5731 -0.0394
  211MOL0     C27733   0.362  10.296   8.301 -0.1207 -0.0686 -0.1371
  211MOL0     C27734   0.233  10.231   8.359 -0.1993 -0.2411  0.1461
  211MOL0     C27735   0.123  10.192   8.258 -0.0394 -0.3375 -0.3081
  211MOL0     C27736  -0.020  10.180   8.330  0.8164 -0.3557  0.2741
  211MOL0     N27737  -0.064  10.311   8.382  0.6662 -0.5036  0.2221
  211MOL0     C27738  -0.135  10.397   8.307 -0.6565  0.5496 -0.6622
  211MOL0     C27739  -0.163  10.499   8.395 -0.2132  0.2181 -0.1488
  211MOL0     C27740  -0.249  10.626   8.375 -0.4366  0.8564  0.1670
  211MOL0     C27741  -0.197  10.727   8.475  0.4592 -0.3145  0.3299
  211MOL0     C27742  -0.292  10.851   8.474 -0.2950 -0.9678  0.1074
  211MOL0     C27743  -0.423  10.828   8.553  0.3858 -0.1847 -0.3372
  211MOL0     O27744  -0.504  10.945   8.534 -0.2453 -0.2535  0.1945
  211MOL0     C27745  -0.630  10.961   8.591 -0.9497 -0.5509  0.2803
  211MOL0     C27746  -0.683  10.869   8.682  0.3243  1.2024 -0.5651
  211MOL0     C27747  -0.809  10.901   8.737 -0.4282  0.2188  0.4413
  211MOL0     C27748  -0.867  11.032   8.709 -0.4432  0.1231 -0.7334
  211MOL0     C27749  -0.984  11.076   8.782  0.7449 -0.5674 -0.4800
  211MOL0     O27750  -1.063  11.180   8.733 -0.5712  0.3549  0.3314
  211MOL0     C27751  -1.182  11.203   8.805 -0.6443 -0.1473  0.4901
  211MOL0     C27752  -1.209  11.323   8.871  0.0983  0.1456  0.5069
  211MOL0     C27753  -1.329  11.348   8.927 -0.1487  1.1391 -0.6245
  211MOL0     C27754  -1.430  11.253   8.927 -0.9103  0.1609 -0.1259
  211MOL0     O27755  -1.539  11.297   8.992  0.5987 -0.2438  0.4633
  211MOL0     C27756  -1.653  11.205   8.974  0.2833 -0.0986 -0.6147
  211MOL0     C27757  -1.775  11.264   9.041  1.2854  0.5531  0.2226
  211MOL0     C27758  -1.891  11.165   9.041 -0.0528  0.0820  0.7699
  211MOL0     C27759  -2.006  11.220   9.128  0.5685  0.1912 -0.5280
  211MOL0     C27760  -2.108  11.113   9.153 -0.9748 -0.7329 -0.2049
  211MOL0     C27761  -2.232  11.165   9.228 -0.2512  0.1016  1.0403
  211MOL0     C27762  -2.355  11.084   9.196  0.4293 -0.2226  0.1517
  211MOL0     C27763  -2.487  11.142   9.250 -0.5209  0.4156 -0.2719
  211MOL0    Cl27764  -2.476  11.119   9.426  0.2154 -0.0138 -0.1615
  211MOL0     C27765  -1.409  11.137   8.856 -0.2974  0.8719 -0.2704
  211MOL0     C27766  -1.284  11.111   8.799  0.6325 -0.2670  0.3978
  211MOL0     O27767  -1.009  11.006   8.882  0.5044 -0.0954 -0.2121
  211MOL0     C27768  -0.806  11.116   8.626  0.9643 -0.1889 -0.1112
  211MOL0     C27769  -0.688  11.087   8.562  0.0027 -0.6356  0.3236
  211MOL0     N27770  -0.137  10.454   8.521 -0.5762  0.6813 -0.2136
  211MOL0     N27771  -0.066  10.351   8.517 -0.1387 -0.2232  0.1524
  211MOL0     C27772   1.035  10.233   7.904  0.4120  0.8428 -0.3731
  211MOL0     C27773   1.152  10.255   7.844 -0.7326 -0.1939 -0.3781
  211MOL0     C27774   1.550  10.124   7.661 -0.3333 -0.3727 -0.4452
  211MOL0     C27775   1.573  10.029   7.554 -0.6443 -0.2260  0.5859
  211MOL0     C27776   1.678  10.058   7.464 -1.1063 -1.6820  0.5281
  211MOL0     C27777   1.760  10.178   7.480  0.0899  0.2807  0.7424
  211MOL0     O27778   1.854  10.201   7.381  0.2081  0.3685  0.3824
  211MOL0     C27779   1.937  10.318   7.413  0.6192 -0.0198 -0.6955
  211MOL0     C27780   2.051  10.326   7.309  0.0423  0.7455  0.4409
  211MOL0     C27781   2.002  10.381   7.173  0.6756  0.7449  0.5278
  211MOL0     C27782   2.114  10.401   7.067  0.4296 -0.6717  0.5937
  211MOL0     C27783   2.173  10.274   7.027  0.2719 -0.1093 -0.6924
  211MOL0     C27784   2.234  10.168   7.016  0.9017 -0.4090  0.0429
  211MOL0     C27785   1.736  10.260   7.590  0.0816  0.3906  0.3386
  211MOL0     C27786   1.625  10.236   7.675 -0.8377 -0.1056  0.4818
  211MOL0     H27787   1.359  10.096   8.057  0.2905  0.0463  0.1897
  211MOL0     H27788   1.149  10.038   8.164  0.1663  0.2222 -0.9567
  211MOL0     H27789   0.761  10.219   8.001 -1.6130 -1.1414  0.6844
  211MOL0     H27790   0.863  10.300   8.118 -0.5240  0.2737 -2.1565
  211MOL0     H27791   0.752  10.163   8.302  0.7998  0.1266  0.4247
  211MOL0     H27792   0.669  10.062   8.177 -0.5057  0.7191 -0.4819
  211MOL0     H27793   0.545  10.291   8.105 -2.2123 -1.1624  0.5776
  211MOL0     H27794   0.609  10.343   8.256 -3.9731  0.8441  0.9429
  211MOL0     H27795   0.416  10.107   8.207 -0.1165 -1.3318  1.1555
  211MOL0     H27796   0.486  10.137   8.365  0.7020 -0.4184 -0.0720
  211MOL0     H27797   0.338  10.353   8.211 -0.3507  3.1440  1.8151
  211MOL0     H27798   0.398  10.367   8.376 -0.8304 -0.9752  1.1202
  211MOL0     H27799   0.192  10.310   8.423  1.7823 -0.1351  1.3587
  211MOL0     H27800   0.267  10.147   8.419  0.8162 -0.4078 -0.6359
  211MOL0     H27801   0.139  10.272   8.185  3.7837  2.1247  2.7997
  211MOL0     H27802   0.152  10.105   8.200  1.5231  1.2508 -2.0447
  211MOL0     H27803  -0.006  10.107   8.410  1.1514  0.2852  0.8019
  211MOL0     H27804  -0.098  10.146   8.262 -1.3436  0.4062  2.2512
  211MOL0     H27805  -0.143  10.388   8.199 -0.4734 -2.9913 -0.4917
  211MOL0     H27806  -0.345  10.579   8.394  0.9927 -2.7114 -0.5655
  211MOL0     H27807  -0.235  10.666   8.274 -0.2429  2.7526  0.8980
  211MOL0     H27808  -0.094  10.755   8.450  1.8280 -4.6072  0.2970
  211MOL0     H27809  -0.195  10.695   8.579 -1.7323  2.4845  1.3474
  211MOL0     H27810  -0.237  10.939   8.510  1.0817 -0.8370 -2.1264
  211MOL0     H27811  -0.314  10.871   8.368  1.9408 -2.5080 -0.7163
  211MOL0     H27812  -0.410  10.802   8.659  1.1674  0.7863 -0.1817
  211MOL0     H27813  -0.466  10.737   8.510  1.9616 -0.7540 -0.7695
  211MOL0     H27814  -0.642  10.775   8.716  2.6280  1.3429 -2.6535
  211MOL0     H27815  -0.870  10.839   8.802 -1.1271  1.6809  1.2271
  211MOL0     H27816  -1.139  11.402   8.895  0.2770 -0.6907  3.0964
  211MOL0     H27817  -1.347  11.439   8.984  1.9410  0.4754  1.2109
  211MOL0     H27818  -1.630  11.109   9.020 -1.5764 -1.5503 -2.5343
  211MOL0     H27819  -1.670  11.194   8.867 -0.7705  1.5482 -0.6678
  211MOL0     H27820  -1.811  11.348   8.982 -2.4840  0.0911  1.5901
  211MOL0     H27821  -1.747  11.304   9.139  1.4959  0.5680  0.1592
  211MOL0     H27822  -1.858  11.066   9.075 -0.3605 -1.2823 -2.5183
  211MOL0     H27823  -1.927  11.142   8.940 -0.4284 -1.4488  1.2285
  211MOL0     H27824  -1.979  11.264   9.224  1.5447  0.2415 -0.8172
  211MOL0     H27825  -2.052  11.295   9.063  0.9487 -1.0164 -2.2668
  211MOL0     H27826  -2.063  11.030   9.207 -3.4372 -2.0273 -0.0008
  211MOL0     H27827  -2.140  11.083   9.052  0.1909 -1.4409 -0.3871
  211MOL0     H27828  -2.247  11.271   9.204  0.8449  0.4409  1.7876
  211MOL0     H27829  -2.221  11.165   9.336  1.8215  1.5293  0.8911
  211MOL0     H27830  -2.364  11.071   9.088  1.0500 -0.5591  0.1376
  211MOL0     H27831  -2.339  10.987   9.244  1.5257 -0.8065 -1.3084
  211MOL0     H27832  -2.573  11.098   9.198 -0.4067  0.8262 -0.8157
  211MOL0     H27833  -2.492  11.248   9.226 -3.3309  0.8801  1.8592
  211MOL0     H27834  -1.481  11.056   8.853 -0.3600  0.9683 -1.7469
  211MOL0     H27835  -1.269  11.024   8.736 -1.0941  0.2528 -0.8020
  211MOL0     H27836  -0.863  11.206   8.606 -0.7618 -1.0956  0.5700
  211MOL0     H27837  -0.642  11.151   8.488 -0.7837 -0.0606  0.3281
  211MOL0     H27838   0.941  10.272   7.865 -0.1708  0.4556  0.6127
  211MOL0     H27839   1.149  10.319   7.757  2.1956 -0.8383 -1.0603
  211MOL0     H27840   1.519   9.937   7.538  0.3478 -0.8271  0.6190
  211MOL0     H27841   1.692   9.989   7.381  1.1889 -0.0155 -0.5914
  211MOL0     H27842   1.982  10.302   7.511  0.5287  0.1881 -0.6190
  211MOL0     H27843   1.878  10.410   7.405 -2.0668 -1.7741 -2.7506
  211MOL0     H27844   2.133  10.389   7.345  0.4123 -0.3232  1.5258
  211MOL0     H27845   2.099  10.228   7.297  0.3094  1.0795 -1.5638
  211MOL0     H27846   1.944  10.473   7.184  0.1984  0.2652  2.2990
  211MOL0     H27847   1.930  10.308   7.136  0.2395  0.9106  1.0281
  211MOL0     H27848   2.070  10.445   6.977  0.3796  4.6991  2.8818
  211MOL0     H27849   2.180  10.481   7.102 -1.0219  1.4392 -1.2109
  211MOL0     H27850   2.276  10.069   7.013  1.9470 -0.1192  2.4953
  211MOL0     H27851   1.789  10.354   7.607 -0.6467  0.6938  0.9778
  211MOL0     H27852   1.607  10.314   7.748  2.3670  3.3852 -2.0578
  212MOL0     O27853   4.531   7.319   2.033  0.1503  0.3325 -0.0183
  212MOL0     C27854   4.597   7.415   2.057  0.3250 -0.0783 -0.3152
  212MOL0     O27855   4.544   7.541   2.059 -0.2926 -0.0206 -0.1621
  212MOL0     C27856   4.406   7.552   2.039  0.1410 -0.3819 -0.2929
  212MOL0     C27857   4.364   7.499   1.916  0.6650  0.5154  0.8910
  212MOL0     C27858   4.229   7.513   1.881  0.1129  0.3072  0.4335
  212MOL0     C27859   4.137   7.591   1.968  0.3196 -0.3827  1.3996
  212MOL0     O27860   4.009   7.597   1.921  0.2699  0.8046  0.2327
  212MOL0     C27861   3.950   7.466   1.936  0.0703  0.0274 -0.1809
  212MOL0     C27862   3.799   7.481   1.961 -0.4885 -0.9792 -0.1510
  212MOL0     C27863   3.761   7.453   2.108  0.5404 -0.2751  0.5172
  212MOL0     C27864   3.607   7.463   2.125 -0.1593  0.5890  0.0491
  212MOL0     C27865   3.572   7.432   2.266 -0.4770  0.2325 -1.2167
  212MOL0     C27866   3.446   7.515   2.313 -0.2793  0.4766 -0.4688
  212MOL0     C27867   3.319   7.458   2.257 -0.4660  0.0516 -0.1394
  212MOL0     C27868   3.209   7.562   2.242  0.4090 -0.3733 -0.4968
  212MOL0     N27869   3.152   7.597   2.370  0.5566 -0.1867  0.3914
  212MOL0     C27870   3.079   7.516   2.452  0.3750  0.3745 -0.6886
  212MOL0     C27871   3.057   7.590   2.567 -1.2432  0.6772 -1.1210
  212MOL0     C27872   3.006   7.523   2.689  0.1809  1.1290  0.5818
  212MOL0     C27873   2.856   7.535   2.707  0.6777  0.3244  0.0890
  212MOL0     C27874   2.811   7.449   2.824  0.2965 -0.5424 -0.8066
  212MOL0     C27875   2.661   7.461   2.854 -0.0708  0.3033  0.3407
  212MOL0     O27876   2.614   7.377   2.963 -0.2668  0.5609  0.2732
  212MOL0     C27877   2.480   7.349   2.977  0.7179 -0.6143  0.5561
  212MOL0     C27878   2.385   7.423   2.903 -0.1950  0.8100 -0.0175
  212MOL0     C27879   2.253   7.391   2.904  0.0313  0.6238  0.0186
  212MOL0     C27880   2.202   7.310   3.003 -0.1486 -0.3131  0.2123
  212MOL0     C27881   2.054   7.319   3.042  0.0853  0.0953 -0.0418
  212MOL0     O27882   2.015   7.267   3.166 -0.1834 -0.3076 -0.2381
  212MOL0     C27883   1.885   7.255   3.196 -0.1653 -0.1059 -0.0991
  212MOL0     C27884   1.848   7.255   3.334 -0.2329 -0.1131  0.0916
  212MOL0     C27885   1.719   7.218   3.381  1.0086 -0.3504  0.6583
  212MOL0     C27886   1.617   7.199   3.288 -0.9692 -0.9767  0.7773
  212MOL0     O27887   1.483   7.178   3.320 -0.7217 -0.3857  0.0511
  212MOL0     C27888   1.434   7.172   3.454 -0.3570 -0.3536  0.0336
  212MOL0     C27889   1.288   7.149   3.452 -0.8601  0.1935 -0.6784
  212MOL0     C27890   1.249   7.000   3.442 -0.7465 -0.0397  0.3621
  212MOL0     C27891   1.105   6.981   3.487 -0.8044 -0.1024 -0.2825
  212MOL0     C27892   1.067   6.838   3.479  0.5179  0.3026  0.0730
  212MOL0     C27893   0.933   6.804   3.549  0.0642  0.4800  0.8171
  212MOL0     C27894   0.816   6.808   3.453  0.1418 -0.0077  0.4806
  212MOL0     C27895   0.683   6.761   3.519 -0.3635  0.3857  0.1240
  212MOL0    Cl27896   0.637   6.869   3.642  0.3670  0.3357  0.4126
  212MOL0     C27897   1.648   7.200   3.154  0.6414 -0.5622 -0.9994
  212MOL0     C27898   1.775   7.229   3.103 -0.2575  0.5157 -0.7593
  212MOL0     O27899   1.984   7.374   2.961 -0.2407 -0.7243 -0.1567
  212MOL0     C27900   2.295   7.234   3.085 -0.2549 -0.0124 -0.3760
  212MOL0     C27901   2.431   7.248   3.063 -0.5950 -0.3377  0.0858
  212MOL0     N27902   3.129   7.711   2.553  0.0685 -0.7784  0.4907
  212MOL0     N27903   3.185   7.708   2.434 -0.3983 -0.1333 -0.1162
  212MOL0     C27904   4.182   7.639   2.087 -0.4062  0.1497 -0.2950
  212MOL0     C27905   4.318   7.626   2.127  0.2632  0.2574 -0.2333
  212MOL0     C27906   4.739   7.397   2.079 -1.3070  0.1567 -0.5451
  212MOL0     C27907   4.810   7.272   2.075  1.1709 -0.9211  0.0495
  212MOL0     C27908   4.947   7.268   2.085 -0.9225  0.3376  0.6197
  212MOL0     C27909   5.026   7.376   2.100 -0.3793 -0.7129 -0.9141
  212MOL0     O27910   5.161   7.366   2.108 -0.2331  0.3958  1.0880
  212MOL0     C27911   5.252   7.477   2.104 -0.2487 -0.7972  0.0234
  212MOL0     C27912   5.387   7.436   2.148 -0.9058 -0.3785 -0.2591
  212MOL0     C27913   5.443   7.316   2.072 -0.5096 -0.3177 -0.3294
  212MOL0     C27914   5.592   7.294   2.097 -0.1861 -0.0912  0.0605
  212MOL0     C27915   5.668   7.375   2.005 -0.0509 -0.2856 -0.2369
  212MOL0     C27916   5.735   7.450   1.931  0.0547  0.3328  1.4118
  212MOL0     C27917   4.953   7.501   2.102 -0.1554  0.1115 -0.2422
  212MOL0     C27918   4.818   7.514   2.101  0.6275  0.5493 -0.2987
  212MOL0     H27919   4.425   7.449   1.842 -1.3214  0.4675 -0.8002
  212MOL0     H27920   4.189   7.481   1.785 -2.1823 -0.3767  1.5297
  212MOL0     H27921   3.997   7.409   2.016  0.8839 -2.1650 -2.1029
  212MOL0     H27922   3.971   7.421   1.838  0.1559  1.5998 -0.9277
  212MOL0     H27923   3.746   7.406   1.902 -0.1713 -0.8602 -0.5975
  212MOL0     H27924   3.760   7.579   1.932  0.7889 -0.8780 -1.6566
  212MOL0     H27925   3.803   7.529   2.174 -1.7906 -0.6223  2.5008
  212MOL0     H27926   3.797   7.351   2.123 -1.1167 -1.6865 -3.6266
  212MOL0     H27927   3.580   7.567   2.102 -4.1641 -0.2942 -0.0195
  212MOL0     H27928   3.558   7.392   2.058 -0.3471 -0.2562  1.0635
  212MOL0     H27929   3.648   7.476   2.332 -0.7601  1.3720 -1.6278
  212MOL0     H27930   3.566   7.328   2.301 -0.2010  1.6464  3.7384
  212MOL0     H27931   3.459   7.614   2.268 -1.0604 -0.0200 -1.8640
  212MOL0     H27932   3.433   7.514   2.421  2.8755  2.1506  0.0204
  212MOL0     H27933   3.333   7.414   2.158 -0.2303 -2.5604  0.9639
  212MOL0     H27934   3.282   7.379   2.324 -1.7203  2.0128  1.5961
  212MOL0     H27935   3.125   7.524   2.182 -0.5178  1.1425 -0.2113
  212MOL0     H27936   3.246   7.648   2.186  0.0711 -1.0834 -1.8626
  212MOL0     H27937   3.044   7.416   2.429  2.3478 -0.3094 -0.9062
  212MOL0     H27938   3.058   7.580   2.767  1.2283  1.2284 -0.1835
  212MOL0     H27939   3.039   7.419   2.696 -3.8664 -0.3248  0.6868
  212MOL0     H27940   2.797   7.512   2.618 -2.2270  2.4862  1.3133
  212MOL0     H27941   2.836   7.637   2.740 -1.2928  0.1768 -0.5604
  212MOL0     H27942   2.841   7.346   2.799  2.4580  0.1202 -1.1871
  212MOL0     H27943   2.864   7.490   2.910 -3.7271 -1.0565  2.2177
  212MOL0     H27944   2.606   7.407   2.776 -0.5688 -0.6336  1.3083
  212MOL0     H27945   2.634   7.567   2.850  0.5940  0.4384 -0.8633
  212MOL0     H27946   2.423   7.501   2.838  2.6765  0.8259  1.4889
  212MOL0     H27947   2.174   7.436   2.845 -0.6250  0.4009  0.7069
  212MOL0     H27948   1.927   7.254   3.408 -0.8008  3.3130  0.9102
  212MOL0     H27949   1.702   7.225   3.488 -0.0674 -0.6548  0.5172
  212MOL0     H27950   1.462   7.266   3.503 -0.3190 -0.0529 -0.5641
  212MOL0     H27951   1.492   7.090   3.498  2.4030  0.8777 -1.1031
  212MOL0     H27952   1.248   7.204   3.365 -1.4357  1.2313  0.2132
  212MOL0     H27953   1.240   7.185   3.543 -1.6179 -3.2857  0.4236
  212MOL0     H27954   1.309   6.929   3.500 -0.4126  0.0175  0.0886
  212MOL0     H27955   1.256   6.965   3.339  0.6152 -0.3345  0.5334
  212MOL0     H27956   1.097   6.996   3.595 -0.5820 -1.2753 -0.0895
  212MOL0     H27957   1.034   7.043   3.431 -0.7220  0.3332  0.0930
  212MOL0     H27958   1.147   6.779   3.523  0.4578  0.0869 -0.1039
  212MOL0     H27959   1.067   6.815   3.372  3.2545 -2.8533  0.5909
  212MOL0     H27960   0.909   6.867   3.635 -1.6116 -1.4417  1.8593
  212MOL0     H27961   0.941   6.704   3.593  2.4160 -1.0552 -2.6551
  212MOL0     H27962   0.811   6.911   3.416 -2.3237  0.1726  1.1239
  212MOL0     H27963   0.836   6.741   3.368  0.5557  0.8740 -0.1319
  212MOL0     H27964   0.706   6.667   3.570  1.2340  0.7112  0.0561
  212MOL0     H27965   0.603   6.749   3.445 -0.0957 -0.0750 -0.1003
  212MOL0     H27966   1.576   7.164   3.080  1.1452 -2.3524 -0.6777
  212MOL0     H27967   1.793   7.218   2.997 -0.0390  0.6704 -0.7394
  212MOL0     H27968   2.259   7.160   3.156 -1.0866  0.1550 -0.6076
  212MOL0     H27969   2.494   7.181   3.121 -3.8256 -2.1140  1.8266
  212MOL0     H27970   4.120   7.696   2.155  0.2440  1.0307 -0.4209
  212MOL0     H27971   4.349   7.677   2.218 -4.7996  1.3107  1.2420
  212MOL0     H27972   4.767   7.173   2.067  0.1919 -0.7572  2.3368
  212MOL0     H27973   5.004   7.176   2.085 -0.1859  0.7682 -0.5093
  212MOL0     H27974   5.225   7.560   2.170 -0.4778 -0.6348 -0.2721
  212MOL0     H27975   5.248   7.510   1.999 -1.9649  1.1573  0.6211
  212MOL0     H27976   5.453   7.522   2.135 -0.9193 -0.3638 -0.2322
  212MOL0     H27977   5.393   7.418   2.256  2.6193  0.0009 -0.2761
  212MOL0     H27978   5.412   7.315   1.968  1.6715 -0.5975 -1.0378
  212MOL0     H27979   5.400   7.229   2.123 -0.8834  0.6055  0.9957
  212MOL0     H27980   5.609   7.304   2.204  1.9332  0.4178 -0.2822
  212MOL0     H27981   5.622   7.195   2.062  0.3746  0.3689 -0.8178
  212MOL0     H27982   5.792   7.502   1.856 -1.5052  0.6397  0.3896
  212MOL0     H27983   5.001   7.596   2.117 -1.7160  0.6875  1.5193
  212MOL0     H27984   4.773   7.613   2.106  0.3675  0.4030  0.2512
  213MOL0     O27985   5.715   9.529   6.999 -0.2119  0.7096 -1.2357
  213MOL0     C27986   5.767   9.422   7.005 -1.3151  0.4973  0.2440
  213MOL0     O27987   5.715   9.296   6.996 -0.2113 -0.4573 -0.6420
  213MOL0     C27988   5.578   9.274   6.987 -0.0341 -0.6436 -0.1777
  213MOL0     C27989   5.525   9.186   7.085 -0.7814 -0.7261  0.1889
  213MOL0     C27990   5.393   9.148   7.073 -0.0642  0.1028  0.9187
  213MOL0     C27991   5.310   9.205   6.976  0.5519 -0.1792  0.0194
  213MOL0     O27992   5.176   9.180   6.985  0.9196  0.6744 -0.9481
  213MOL0     C27993   5.088   9.234   6.886 -0.7559  0.4412  0.3261
  213MOL0     C27994   4.939   9.203   6.908  0.0697  0.3215  0.1985
  213MOL0     C27995   4.896   9.068   6.879 -0.9348  0.7106  0.3068
  213MOL0     C27996   4.762   9.026   6.941  0.7726  0.7566 -0.2191
  213MOL0     C27997   4.637   9.051   6.857 -0.4537  0.4066  0.1714
  213MOL0     C27998   4.493   9.024   6.909  0.1231 -0.3281 -0.1271
  213MOL0     C27999   4.385   9.062   6.803 -0.7411  0.2028 -0.4748
  213MOL0     C28000   4.369   8.946   6.699 -0.4180 -0.3600  0.0831
  213MOL0     N28001   4.239   8.954   6.622 -0.9023  0.0211 -0.3856
  213MOL0     C28002   4.117   8.991   6.676  0.0965 -0.0873  0.4578
  213MOL0     C28003   4.029   8.984   6.572 -0.0946 -0.4124  0.2930
  213MOL0     C28004   3.884   9.001   6.583  0.0419  0.4550 -0.0070
  213MOL0     C28005   3.807   9.067   6.472  0.8353  0.2380  0.3008
  213MOL0     C28006   3.656   9.054   6.505  0.5251 -0.1195 -0.3865
  213MOL0     C28007   3.573   9.175   6.447  0.0466  0.1608  0.3882
  213MOL0     O28008   3.433   9.142   6.469 -0.1195  0.6079 -0.6412
  213MOL0     C28009   3.357   9.208   6.560  0.4306  0.2939 -0.2314
  213MOL0     C28010   3.247   9.140   6.619 -0.0996 -0.1631  1.8344
  213MOL0     C28011   3.162   9.205   6.706 -0.7147 -0.0177  0.0302
  213MOL0     C28012   3.167   9.343   6.731 -0.3455 -0.6074  0.3115
  213MOL0     C28013   3.064   9.415   6.821 -0.2504  0.3313 -0.6585
  213MOL0     O28014   2.952   9.341   6.846  0.8147 -0.3486 -0.5758
  213MOL0     C28015   2.858   9.404   6.914 -0.3413 -0.2030  0.3445
  213MOL0     C28016   2.728   9.421   6.861 -0.0046  0.2814 -0.3523
  213MOL0     C28017   2.616   9.452   6.935 -1.1583  0.1747 -0.7748
  213MOL0     C28018   2.635   9.472   7.076  0.6205 -0.2522 -0.1357
  213MOL0     O28019   2.526   9.506   7.157 -0.2940  0.4714 -0.0001
  213MOL0     C28020   2.526   9.434   7.280  0.2028  0.3800 -0.3036
  213MOL0     C28021   2.430   9.501   7.379  0.0919 -0.8296  0.4872
  213MOL0     C28022   2.285   9.494   7.340 -0.1646  0.1373 -0.4336
  213MOL0     C28023   2.204   9.559   7.450  0.0391  0.4351 -0.2312
  213MOL0     C28024   2.052   9.530   7.426 -0.2213 -0.1397 -0.7770
  213MOL0     C28025   1.973   9.627   7.512 -0.7554  0.0573  0.7605
  213MOL0     C28026   1.826   9.600   7.493 -0.1857  0.1038 -0.4490
  213MOL0     C28027   1.739   9.682   7.590  0.2278 -0.0033  0.5623
  213MOL0    Cl28028   1.755   9.588   7.753  0.5222 -0.3646  0.1679
  213MOL0     C28029   2.768   9.473   7.127 -0.9235  0.0439 -0.3719
  213MOL0     C28030   2.876   9.432   7.048 -0.1228 -0.4789 -0.8881
  213MOL0     O28031   3.094   9.530   6.858  0.5413 -0.2829  0.4582
  213MOL0     C28032   3.282   9.405   6.678 -0.0464  0.4891 -0.3503
  213MOL0     C28033   3.369   9.346   6.590 -0.8144 -0.0261  0.0191
  213MOL0     N28034   4.104   8.954   6.459 -0.0505  0.2434 -0.8291
  213MOL0     N28035   4.224   8.935   6.492 -0.0119 -0.2180 -0.2625
  213MOL0     C28036   5.364   9.287   6.880 -0.1597  0.1816 -0.9137
  213MOL0     C28037   5.497   9.322   6.884 -0.7289  0.2378 -0.3264
  213MOL0     C28038   5.914   9.422   7.028  0.1431 -0.9677 -0.4289
  213MOL0     C28039   5.985   9.537   6.990  0.2468  0.1487  0.9740
  213MOL0     C28040   6.124   9.528   7.000  0.5825 -0.6642  0.1974
  213MOL0     C28041   6.188   9.417   7.047  0.4649  0.2759  1.0182
  213MOL0     O28042   6.323   9.403   7.064 -0.2769 -0.4671 -0.9782
  213MOL0     C28043   6.408   9.516   7.042 -0.1917 -0.6136  0.4729
  213MOL0     C28044   6.552   9.462   7.075  0.2410 -0.1906  0.1925
  213MOL0     C28045   6.658   9.573   7.084 -0.3689  1.0039 -0.2911
  213MOL0     C28046   6.796   9.510   7.120  0.0756  0.1357 -0.1456
  213MOL0     C28047   6.894   9.615   7.094 -0.6382 -0.1591  0.8778
  213MOL0     C28048   6.981   9.698   7.088 -0.4262  0.1009  0.2545
  213MOL0     C28049   6.114   9.305   7.084 -1.0364  0.1561  0.3013
  213MOL0     C28050   5.975   9.303   7.085 -0.9971 -0.1029 -0.1688
  213MOL0     H28051   5.589   9.143   7.162  0.5086  3.5650  1.7773
  213MOL0     H28052   5.355   9.083   7.151  2.1546 -0.7384  1.3492
  213MOL0     H28053   5.108   9.189   6.788 -1.5748  1.2268 -0.2173
  213MOL0     H28054   5.088   9.343   6.883  0.5591  0.4460 -0.5103
  213MOL0     H28055   4.881   9.276   6.851 -1.8953 -0.1674  1.4753
  213MOL0     H28056   4.914   9.222   7.013 -2.3491  1.5198 -0.5243
  213MOL0     H28057   4.978   9.007   6.917 -0.2953 -1.2720 -3.7354
  213MOL0     H28058   4.890   9.048   6.772 -1.1238  0.5074  0.3536
  213MOL0     H28059   4.768   8.919   6.964 -0.3123  1.3289  3.4417
  213MOL0     H28060   4.749   9.070   7.040 -0.3462  1.3794 -0.6277
  213MOL0     H28061   4.649   9.007   6.757 -2.1578  0.7862 -0.2381
  213MOL0     H28062   4.628   9.160   6.847 -1.3508  0.3533  0.3540
  213MOL0     H28063   4.477   9.078   7.002  0.6558 -0.3288 -0.0321
  213MOL0     H28064   4.489   8.918   6.936  1.4222 -0.2342  0.4999
  213MOL0     H28065   4.289   9.077   6.854  0.2798  1.1852  1.2445
  213MOL0     H28066   4.410   9.153   6.748 -1.7484  0.1487 -1.0499
  213MOL0     H28067   4.371   8.844   6.739 -1.0617 -1.2195 -1.9559
  213MOL0     H28068   4.457   8.949   6.634  0.0176 -3.0313  0.4243
  213MOL0     H28069   4.097   9.023   6.778 -0.3001  0.0359  0.3422
  213MOL0     H28070   3.865   9.049   6.679  0.6153 -2.1799  1.5339
  213MOL0     H28071   3.838   8.902   6.588 -0.7051  0.6601 -2.0597
  213MOL0     H28072   3.817   9.009   6.379  1.0030 -1.7965  1.5354
  213MOL0     H28073   3.830   9.174   6.462  1.8278  0.1324  1.3892
  213MOL0     H28074   3.630   8.964   6.448  1.5451  0.1615 -1.3415
  213MOL0     H28075   3.634   9.038   6.611  1.4907 -1.1415 -0.3164
  213MOL0     H28076   3.582   9.179   6.338 -1.7573  0.1431  0.2052
  213MOL0     H28077   3.605   9.274   6.478 -2.3059  0.3723  2.4310
  213MOL0     H28078   3.238   9.037   6.585  2.6347 -0.2303  1.0450
  213MOL0     H28079   3.079   9.158   6.758  0.6426 -0.5644  1.7987
  213MOL0     H28080   2.706   9.401   6.756  1.9885  0.1767 -0.7749
  213MOL0     H28081   2.516   9.447   6.893 -0.7417 -1.7934 -1.6123
  213MOL0     H28082   2.628   9.432   7.320  0.9054  0.0131 -2.0237
  213MOL0     H28083   2.486   9.334   7.258  1.1227  0.0405 -0.4791
  213MOL0     H28084   2.459   9.606   7.371  1.8903 -1.3969 -1.5233
  213MOL0     H28085   2.445   9.456   7.478  1.5381 -2.1789 -0.2977
  213MOL0     H28086   2.257   9.388   7.349  0.7667  0.0044  1.4091
  213MOL0     H28087   2.272   9.531   7.238 -1.6712  0.0836 -0.2843
  213MOL0     H28088   2.235   9.520   7.548 -1.9681  2.6979  1.4186
  213MOL0     H28089   2.216   9.667   7.440  2.0552  0.2955  0.2899
  213MOL0     H28090   2.030   9.428   7.460 -1.4745  0.8622  1.6754
  213MOL0     H28091   2.022   9.544   7.322 -0.8284  0.0116 -0.5832
  213MOL0     H28092   1.981   9.730   7.476 -1.7361 -0.3680 -0.7689
  213MOL0     H28093   2.010   9.627   7.615 -1.4355 -0.1941  1.0070
  213MOL0     H28094   1.800   9.629   7.390  0.6958  0.3236 -0.6221
  213MOL0     H28095   1.797   9.495   7.498 -2.4191  0.6712 -0.3245
  213MOL0     H28096   1.640   9.694   7.545  0.6863  0.0116 -0.4652
  213MOL0     H28097   1.770   9.787   7.602 -0.2891  0.5626 -2.3111
  213MOL0     H28098   2.787   9.492   7.232 -1.7975  1.3491 -0.4426
  213MOL0     H28099   2.973   9.410   7.093  0.0001 -1.9855 -1.8274
  213MOL0     H28100   3.293   9.512   6.690 -2.6738  0.5793  2.7099
  213MOL0     H28101   3.444   9.413   6.549  0.2578 -0.7241  0.7650
  213MOL0     H28102   5.305   9.320   6.796 -2.0821 -0.8902 -0.0692
  213MOL0     H28103   5.542   9.374   6.800  0.4162 -1.9317 -1.1250
  213MOL0     H28104   5.938   9.627   6.952 -2.7095 -1.5757  0.1891
  213MOL0     H28105   6.173   9.612   6.953  0.0179 -0.8113 -0.6658
  213MOL0     H28106   6.381   9.595   7.113  2.6525  0.9259  0.0206
  213MOL0     H28107   6.409   9.561   6.943  0.2623 -1.4009  0.1074
  213MOL0     H28108   6.550   9.423   7.178 -0.3473  2.3381  1.2287
  213MOL0     H28109   6.582   9.380   7.010  0.2346  0.8097 -1.1011
  213MOL0     H28110   6.633   9.648   7.160  0.1774 -0.4818  1.4550
  213MOL0     H28111   6.660   9.610   6.981 -3.0257  1.2432 -0.3416
  213MOL0     H28112   6.810   9.474   7.222  2.5841  0.6151 -0.2591
  213MOL0     H28113   6.814   9.425   7.055  1.2499  0.4848 -0.2928
  213MOL0     H28114   7.057   9.774   7.085 -1.6648  1.3593 -0.5257
  213MOL0     H28115   6.165   9.229   7.142  1.7141  2.7293  1.4610
  213MOL0     H28116   5.917   9.216   7.112  1.5526 -1.0048  2.9300
  214MOL0     O28117   2.775   2.936   2.569  0.5460 -0.1017  0.4206
  214MOL0     C28118   2.832   3.042   2.607  0.0273 -0.4443 -0.1531
  214MOL0     O28119   2.768   3.145   2.656  0.6875 -0.3115  0.6853
  214MOL0     C28120   2.633   3.166   2.644 -0.4346 -0.8499 -0.3564
  214MOL0     C28121   2.531   3.078   2.608 -1.1094  0.3031 -0.2465
  214MOL0     C28122   2.401   3.113   2.632  1.1483 -0.3401 -0.6091
  214MOL0     C28123   2.370   3.244   2.674 -0.2328 -0.4254 -0.2068
  214MOL0     O28124   2.243   3.301   2.685  0.2167  0.0608 -0.1831
  214MOL0     C28125   2.140   3.201   2.699  0.3470  0.0816 -0.5053
  214MOL0     C28126   2.007   3.260   2.734  0.7687 -1.1528 -0.2066
  214MOL0     C28127   1.912   3.167   2.803  0.1844 -0.7004  0.3836
  214MOL0     C28128   1.847   3.067   2.717 -0.3374  0.7162  0.3219
  214MOL0     C28129   1.724   2.993   2.777 -0.5437  0.0744 -0.4487
  214MOL0     C28130   1.595   3.081   2.761 -0.1094 -0.3071  0.2711
  214MOL0     C28131   1.468   2.999   2.805 -0.2142 -0.4826 -0.4645
  214MOL0     C28132   1.351   3.093   2.832 -0.3468 -0.0272 -0.0707
  214MOL0     N28133   1.232   3.026   2.878 -0.2531  0.0294 -0.4897
  214MOL0     C28134   1.165   3.045   2.998  0.0112  0.1026 -0.5691
  214MOL0     C28135   1.083   2.933   3.010  0.7912 -0.6885 -0.1905
  214MOL0     C28136   0.995   2.908   3.123 -0.2991 -0.6961 -0.0334
  214MOL0     C28137   0.848   2.869   3.071 -0.2129  0.5860 -0.4119
  214MOL0     C28138   0.761   2.862   3.196  0.4438  0.8309 -0.9591
  214MOL0     C28139   0.616   2.805   3.170  0.2822  0.2600 -0.7422
  214MOL0     O28140   0.561   2.776   3.296  1.0884 -0.1753  0.1576
  214MOL0     C28141   0.443   2.706   3.304 -0.2238  1.1146 -0.1408
  214MOL0     C28142   0.387   2.672   3.437  0.7148 -0.0648  0.2774
  214MOL0     C28143   0.280   2.588   3.439  0.5949 -0.4673 -0.2210
  214MOL0     C28144   0.211   2.555   3.321 -0.2407  0.9999  1.0395
  214MOL0     C28145   0.085   2.467   3.334 -0.1730  0.0688 -0.2849
  214MOL0     O28146   0.042   2.416   3.456  0.0118  0.6948  0.1877
  214MOL0     C28147  -0.039   2.300   3.457 -0.6357 -0.1533  0.3761
  214MOL0     C28148  -0.038   2.206   3.354  0.3627 -0.0919  0.7584
  214MOL0     C28149  -0.120   2.088   3.360 -0.1335 -0.3233  0.2305
  214MOL0     C28150  -0.196   2.061   3.474  0.2247  0.3467 -0.6594
  214MOL0     O28151  -0.287   1.960   3.488 -0.4462 -0.1137  0.1756
  214MOL0     C28152  -0.294   1.837   3.410 -0.8278  0.6448 -0.4010
  214MOL0     C28153  -0.317   1.717   3.495 -0.6170  0.7202  0.0414
  214MOL0     C28154  -0.427   1.731   3.604 -0.4537 -0.2932 -0.0786
  214MOL0     C28155  -0.495   1.603   3.659 -0.6982 -0.0822 -0.0111
  214MOL0     C28156  -0.608   1.634   3.751 -0.2622  0.3410  0.6059
  214MOL0     C28157  -0.677   1.507   3.804  0.3708  0.2854  0.0362
  214MOL0     C28158  -0.828   1.527   3.836 -0.3254  0.2985 -1.3970
  214MOL0     C28159  -0.911   1.544   3.707  0.0454 -0.5269  0.7136
  214MOL0    Cl28160  -0.903   1.417   3.579 -0.2218  0.1218 -0.0991
  214MOL0     C28161  -0.196   2.160   3.574 -0.7076 -0.3073  0.4658
  214MOL0     C28162  -0.119   2.272   3.565 -0.2344  0.2493  0.5087
  214MOL0     O28163   0.018   2.456   3.232 -0.2231 -0.4809 -0.7189
  214MOL0     C28164   0.250   2.592   3.192  0.2509  0.6316  0.6909
  214MOL0     C28165   0.369   2.673   3.191  0.2681  0.6679  0.4734
  214MOL0     N28166   1.105   2.857   2.893  0.1517 -0.0450 -0.3824
  214MOL0     N28167   1.178   2.919   2.812 -0.7543  0.2975  0.3554
  214MOL0     C28168   2.466   3.333   2.711 -1.3878  0.2999 -1.0203
  214MOL0     C28169   2.600   3.288   2.709 -0.4474 -0.5214 -0.5291
  214MOL0     C28170   2.984   3.040   2.622  0.6740  0.0122 -0.5080
  214MOL0     C28171   3.043   3.141   2.702  0.0045  0.4047 -0.1052
  214MOL0     C28172   3.183   3.146   2.715 -1.0275  0.5889  0.6062
  214MOL0     C28173   3.268   3.053   2.649 -0.0547  0.2202  0.1201
  214MOL0     O28174   3.403   3.066   2.677  0.4071  0.2770  0.4304
  214MOL0     C28175   3.497   3.000   2.585  0.0722 -0.0165 -0.1639
  214MOL0     C28176   3.640   3.050   2.614  0.3553 -0.1381  0.1412
  214MOL0     C28177   3.675   3.184   2.568 -1.5598 -0.5939 -0.4367
  214MOL0     C28178   3.798   3.229   2.653  0.5966  0.5368  0.0990
  214MOL0     C28179   3.914   3.266   2.566  0.3069  0.0367 -0.0412
  214MOL0     C28180   4.007   3.298   2.488  0.6562  0.7449  0.2450
  214MOL0     C28181   3.203   2.954   2.569  0.4996 -0.0783  0.4875
  214MOL0     C28182   3.066   2.949   2.548 -0.0919 -0.2191  0.0269
  214MOL0     H28183   2.548   2.975   2.580 -3.6670 -0.8586  1.9864
  214MOL0     H28184   2.327   3.039   2.604  1.4238  0.2041 -3.0061
  214MOL0     H28185   2.175   3.133   2.777  0.2962  3.0836  2.3419
  214MOL0     H28186   2.118   3.157   2.601 -1.0247  1.2104 -0.7368
  214MOL0     H28187   1.960   3.303   2.645 -0.6236 -0.0894  0.9884
  214MOL0     H28188   2.030   3.342   2.802  0.8399 -0.7444 -0.7157
  214MOL0     H28189   1.837   3.231   2.851 -1.2610 -2.3959  0.4641
  214MOL0     H28190   1.965   3.112   2.881 -1.8904 -1.1269  1.5537
  214MOL0     H28191   1.823   3.094   2.613  1.4102  0.9247 -0.0621
  214MOL0     H28192   1.918   2.984   2.710  0.3495  1.2731  0.6733
  214MOL0     H28193   1.740   2.974   2.884  0.7722  1.9075 -0.2747
  214MOL0     H28194   1.719   2.898   2.723  4.1553 -2.0682  2.2347
  214MOL0     H28195   1.588   3.108   2.655  3.3505  0.8804  0.1864
  214MOL0     H28196   1.612   3.172   2.819  1.7410  0.1381 -0.8581
  214MOL0     H28197   1.444   2.929   2.725  0.8505  1.1145 -2.2609
  214MOL0     H28198   1.488   2.942   2.897 -0.6847 -0.9967 -0.6726
  214MOL0     H28199   1.320   3.157   2.749  1.0704 -0.4021 -0.9230
  214MOL0     H28200   1.373   3.166   2.911 -1.2849  0.1117  0.0729
  214MOL0     H28201   1.175   3.116   3.079  2.6284  0.5021 -1.1425
  214MOL0     H28202   0.990   2.997   3.187 -0.0298 -0.1771 -0.7139
  214MOL0     H28203   1.046   2.834   3.185 -0.4722  0.5394  1.6450
  214MOL0     H28204   0.845   2.778   3.012  1.3481 -0.6486  1.3079
  214MOL0     H28205   0.819   2.953   3.008 -3.1180 -0.2677 -0.3423
  214MOL0     H28206   0.810   2.788   3.261  1.0538 -0.6480 -2.9885
  214MOL0     H28207   0.752   2.959   3.245  0.5763 -0.3930  1.6648
  214MOL0     H28208   0.626   2.720   3.103  1.2063 -0.7070  0.5782
  214MOL0     H28209   0.561   2.887   3.123 -1.3805 -0.2727  0.1804
  214MOL0     H28210   0.446   2.707   3.522 -2.5167  0.7247  2.3925
  214MOL0     H28211   0.241   2.555   3.535  1.0817 -1.9625 -0.5148
  214MOL0     H28212   0.014   2.233   3.262  0.7881  2.3125  1.6254
  214MOL0     H28213  -0.141   2.023   3.275 -0.5927  2.2836 -1.7941
  214MOL0     H28214  -0.202   1.834   3.351  0.8366  1.8978  1.9586
  214MOL0     H28215  -0.381   1.843   3.344 -0.3567 -0.7983 -1.1900
  214MOL0     H28216  -0.227   1.681   3.546 -2.3225  0.5313  3.1586
  214MOL0     H28217  -0.349   1.634   3.431 -0.3714 -1.5346  2.6466
  214MOL0     H28218  -0.512   1.776   3.553 -1.1337 -1.7229 -0.2400
  214MOL0     H28219  -0.400   1.794   3.690 -0.4387 -1.2374  0.6333
  214MOL0     H28220  -0.529   1.539   3.577 -0.7644 -0.1146  0.0415
  214MOL0     H28221  -0.410   1.554   3.708 -2.9135 -1.8895  2.3169
  214MOL0     H28222  -0.676   1.702   3.699 -0.6304 -0.0471  0.5718
  214MOL0     H28223  -0.569   1.690   3.837 -0.1618 -0.2910  0.9798
  214MOL0     H28224  -0.612   1.472   3.885  1.3249  1.8690 -0.0152
  214MOL0     H28225  -0.674   1.431   3.725 -3.9210  0.0873 -0.1937
  214MOL0     H28226  -0.863   1.440   3.893 -1.5443  1.3186 -0.5299
  214MOL0     H28227  -0.852   1.608   3.905 -0.7176 -1.2621  0.3932
  214MOL0     H28228  -0.880   1.637   3.659 -2.4634  1.5556  2.7928
  214MOL0     H28229  -1.017   1.552   3.734  0.4382  0.8760  2.0325
  214MOL0     H28230  -0.266   2.150   3.657 -0.6181  1.1014  0.7304
  214MOL0     H28231  -0.126   2.350   3.641  0.9290  2.2139 -1.2892
  214MOL0     H28232   0.201   2.579   3.096  0.3779  1.9025  0.4414
  214MOL0     H28233   0.402   2.703   3.092  0.1187  0.1407  0.2620
  214MOL0     H28234   2.443   3.429   2.756 -0.9884  0.5965 -1.4379
  214MOL0     H28235   2.677   3.346   2.758  0.2101 -1.4342 -0.4579
  214MOL0     H28236   2.985   3.216   2.754  0.8935  0.1273  1.3761
  214MOL0     H28237   3.239   3.213   2.779 -0.6692  1.2118 -0.3520
  214MOL0     H28238   3.473   3.020   2.480 -2.2471  1.7963  0.6121
  214MOL0     H28239   3.480   2.893   2.604 -2.6825  0.2721 -0.6474
  214MOL0     H28240   3.655   3.044   2.722 -1.2059 -0.0548  0.3843
  214MOL0     H28241   3.707   2.977   2.569 -1.4028 -1.0240 -1.1914
  214MOL0     H28242   3.601   3.255   2.606 -0.3901  1.2934 -1.5017
  214MOL0     H28243   3.699   3.188   2.462  0.8691  1.2489  0.0844
  214MOL0     H28244   3.780   3.300   2.734 -0.9002  0.3376 -0.0216
  214MOL0     H28245   3.843   3.150   2.715  2.7446  2.2859  0.9039
  214MOL0     H28246   4.076   3.328   2.411 -0.4285  1.3315 -0.5311
  214MOL0     H28247   3.255   2.875   2.516 -0.2427  0.5404 -1.2404
  214MOL0     H28248   3.022   2.869   2.490  1.2468 -0.5519 -0.5519
  215MOL0     O28249   7.984   1.697   5.911  0.0913 -0.4374 -0.4877
  215MOL0     C28250   8.052   1.670   6.010  0.3508  0.5500  0.0725
  215MOL0     O28251   8.009   1.589   6.109 -0.3708 -0.2967  0.4184
  215MOL0     C28252   7.889   1.521   6.094 -0.5700  0.4297 -0.1023
  215MOL0     C28253   7.763   1.585   6.116 -0.3472 -0.2122  0.7359
  215MOL0     C28254   7.650   1.510   6.122 -0.0811 -0.5785  0.4487
  215MOL0     C28255   7.647   1.369   6.095  0.1095 -0.1939  0.2408
  215MOL0     O28256   7.539   1.290   6.094  0.1788 -0.5552  0.1082
  215MOL0     C28257   7.431   1.333   6.182  0.1174  0.0431  0.2151
  215MOL0     C28258   7.307   1.248   6.157  0.3075 -0.1325 -0.0788
  215MOL0     C28259   7.210   1.254   6.277 -0.4384  0.2893  0.0887
  215MOL0     C28260   7.101   1.148   6.280  0.0079 -0.4053 -1.2916
  215MOL0     C28261   7.146   1.024   6.349 -1.0246  0.4642 -0.8149
  215MOL0     C28262   7.056   0.910   6.336 -0.1514 -0.3021 -0.2544
  215MOL0     C28263   7.054   0.815   6.454  0.4452  0.3958  0.2095
  215MOL0     C28264   6.942   0.717   6.458  0.1194  0.8487  0.7078
  215MOL0     N28265   6.809   0.774   6.451  0.1392  0.5158 -0.5460
  215MOL0     C28266   6.757   0.886   6.517  1.2575 -0.5187 -0.1250
  215MOL0     C28267   6.640   0.906   6.449  0.2089 -0.4189  0.5135
  215MOL0     C28268   6.556   1.034   6.463  0.2286  0.1476 -0.0115
  215MOL0     C28269   6.576   1.132   6.342 -0.3288  0.3461 -0.5001
  215MOL0     C28270   6.724   1.175   6.328  0.1065  0.3489 -0.6801
  215MOL0     C28271   6.720   1.295   6.251 -0.0291 -0.1413  0.3697
  215MOL0     O28272   6.844   1.337   6.184  0.1031  0.2622 -0.1176
  215MOL0     C28273   6.848   1.461   6.121  0.1988  0.0775 -0.0595
  215MOL0     C28274   6.739   1.543   6.104 -0.1329  0.2544 -0.6125
  215MOL0     C28275   6.743   1.672   6.052  0.8305 -0.0541 -0.0256
  215MOL0     C28276   6.871   1.713   6.004  0.4677 -0.1030  0.2474
  215MOL0     C28277   6.876   1.841   5.930  0.0850 -1.6323 -0.2921
  215MOL0     O28278   6.768   1.924   5.947 -0.4204  0.4098  0.0797
  215MOL0     C28279   6.778   2.049   5.897  0.1649 -0.0199  0.4187
  215MOL0     C28280   6.883   2.138   5.931 -0.1316 -0.2308  0.2377
  215MOL0     C28281   6.894   2.266   5.872  0.0139  0.0517  1.1038
  215MOL0     C28282   6.793   2.323   5.786 -0.1239 -0.0274 -1.0032
  215MOL0     O28283   6.811   2.442   5.722  0.6221 -1.3798  0.0028
  215MOL0     C28284   6.914   2.532   5.758  0.2792  0.4398 -0.6756
  215MOL0     C28285   6.896   2.662   5.681 -0.5788 -0.0575  0.2683
  215MOL0     C28286   6.812   2.767   5.758 -0.2313 -0.3504  0.0419
  215MOL0     C28287   6.821   2.904   5.683  0.9393  0.0905 -1.4558
  215MOL0     C28288   6.721   3.000   5.757 -0.8475  0.3942  0.3580
  215MOL0     C28289   6.727   3.146   5.692 -0.4566  0.5619 -0.5776
  215MOL0     C28290   6.872   3.210   5.681  0.9344  0.5167 -0.2789
  215MOL0     C28291   6.959   3.200   5.808 -0.8705  0.0051 -0.0372
  215MOL0    Cl28292   7.114   3.286   5.757  0.2155  0.4406  0.1814
  215MOL0     C28293   6.687   2.238   5.753  0.3216 -0.2192 -0.3216
  215MOL0     C28294   6.675   2.109   5.813 -0.1329 -0.4669  0.0032
  215MOL0     O28295   6.972   1.869   5.854  0.2366  0.7485  0.3910
  215MOL0     C28296   6.974   1.624   6.005 -0.0730 -0.1010 -0.2500
  215MOL0     C28297   6.968   1.500   6.074 -0.3868  0.5472 -0.2716
  215MOL0     N28298   6.612   0.816   6.351  0.2221  0.8578  0.7083
  215MOL0     N28299   6.716   0.738   6.356  0.1410  0.2703  0.2238
  215MOL0     C28300   7.768   1.307   6.063 -0.3088 -0.0991  0.1529
  215MOL0     C28301   7.889   1.385   6.072  0.4342  0.6012 -0.5587
  215MOL0     C28302   8.192   1.714   6.021 -0.0369 -0.8386 -0.3961
  215MOL0     C28303   8.267   1.686   6.136  0.7694 -0.5215  0.2236
  215MOL0     C28304   8.387   1.746   6.164 -0.6906 -0.1682  0.1030
  215MOL0     C28305   8.436   1.845   6.072 -0.4663 -0.2022 -0.7746
  215MOL0     O28306   8.539   1.936   6.105 -0.3816  0.4117 -0.3962
  215MOL0     C28307   8.615   1.909   6.220 -0.1839  0.0786 -0.0100
  215MOL0     C28308   8.706   2.028   6.241  0.1583  0.0343  0.0381
  215MOL0     C28309   8.647   2.149   6.292  0.3764 -1.3908 -0.1270
  215MOL0     C28310   8.604   2.141   6.437  0.4529  0.1414  0.0943
  215MOL0     C28311   8.706   2.091   6.531 -0.1241 -0.9099 -0.3994
  215MOL0     C28312   8.793   2.053   6.606  0.5695  0.1057 -0.6432
  215MOL0     C28313   8.374   1.861   5.953  0.7366  0.0099 -0.8848
  215MOL0     C28314   8.254   1.796   5.919 -0.5665 -0.3060 -0.4649
  215MOL0     H28315   7.750   1.689   6.142 -1.1787 -0.3899  1.0812
  215MOL0     H28316   7.555   1.559   6.138  1.4107  2.4678  0.5164
  215MOL0     H28317   7.409   1.440   6.173  2.7703  0.5903 -0.9062
  215MOL0     H28318   7.457   1.327   6.288  0.0713  0.3444  0.2448
  215MOL0     H28319   7.333   1.143   6.141  4.8165  0.6316  0.9479
  215MOL0     H28320   7.256   1.282   6.066 -0.9635  0.3615  0.7859
  215MOL0     H28321   7.166   1.354   6.274  0.8333  0.8676  0.1063
  215MOL0     H28322   7.267   1.239   6.369  0.7533 -1.5911 -0.8865
  215MOL0     H28323   7.016   1.191   6.334  1.7425  2.5518 -0.7366
  215MOL0     H28324   7.067   1.119   6.180 -1.5333  1.1065 -1.2406
  215MOL0     H28325   7.173   1.040   6.454 -1.5100  2.1598 -0.9088
  215MOL0     H28326   7.245   1.005   6.306 -0.5928  0.8877 -0.0269
  215MOL0     H28327   7.075   0.861   6.240  1.9520  1.5018 -0.8520
  215MOL0     H28328   6.956   0.951   6.321  0.5878  0.7678 -2.7863
  215MOL0     H28329   7.148   0.759   6.457 -0.4625 -1.3627 -1.8639
  215MOL0     H28330   7.038   0.875   6.544  1.9877  0.2553  0.6084
  215MOL0     H28331   6.950   0.652   6.546 -2.6192  0.5747  0.8286
  215MOL0     H28332   6.956   0.651   6.372 -1.0522  0.5543  0.7182
  215MOL0     H28333   6.793   0.951   6.596 -1.8035  3.1648 -1.4691
  215MOL0     H28334   6.582   1.088   6.554 -0.0636 -0.5992  0.5246
  215MOL0     H28335   6.450   1.017   6.480  0.0959  0.6597 -0.3062
  215MOL0     H28336   6.510   1.217   6.362 -2.5340 -1.0401 -1.4187
  215MOL0     H28337   6.532   1.087   6.252 -2.3300  0.3046  0.4561
  215MOL0     H28338   6.776   1.191   6.422 -2.9783 -0.6054  1.3454
  215MOL0     H28339   6.779   1.090   6.286  1.8472  0.5970  0.9460
  215MOL0     H28340   6.686   1.374   6.318 -3.0490 -0.7985 -0.2523
  215MOL0     H28341   6.646   1.280   6.172  0.5484  1.7327 -0.5932
  215MOL0     H28342   6.644   1.495   6.127  2.2259 -4.3577  0.9022
  215MOL0     H28343   6.654   1.734   6.039  0.8606 -0.4861 -3.0623
  215MOL0     H28344   6.957   2.095   5.998  0.2127  0.8857  0.5953
  215MOL0     H28345   6.980   2.324   5.902  0.7825 -0.9791  0.9444
  215MOL0     H28346   7.011   2.495   5.724  0.4198 -1.7343  1.8054
  215MOL0     H28347   6.907   2.544   5.866 -0.5328 -1.5771 -0.4546
  215MOL0     H28348   6.860   2.641   5.580  4.6188 -0.7530 -1.7059
  215MOL0     H28349   6.994   2.709   5.673 -0.3642 -0.3382  1.1875
  215MOL0     H28350   6.834   2.773   5.865 -0.2754 -0.9188  0.0851
  215MOL0     H28351   6.706   2.739   5.753 -0.8036  1.5554  0.5650
  215MOL0     H28352   6.924   2.941   5.677  0.5789  1.2382 -0.7437
  215MOL0     H28353   6.775   2.888   5.585 -2.5430 -1.2399  0.2160
  215MOL0     H28354   6.742   2.996   5.864  0.1099  1.2105  0.2156
  215MOL0     H28355   6.617   2.969   5.743 -0.4528 -0.5584 -0.6964
  215MOL0     H28356   6.662   3.213   5.750 -0.5040 -0.3248  0.4149
  215MOL0     H28357   6.678   3.131   5.595 -2.6509 -2.9045  0.8753
  215MOL0     H28358   6.920   3.175   5.589  2.3195  0.4292  0.4450
  215MOL0     H28359   6.858   3.318   5.664  0.1020  0.5277  0.4522
  215MOL0     H28360   6.991   3.096   5.818 -0.0137  0.1640 -0.9945
  215MOL0     H28361   6.915   3.239   5.900  1.5146  2.7919  0.0629
  215MOL0     H28362   6.614   2.261   5.676  1.4545 -1.0126 -1.6509
  215MOL0     H28363   6.594   2.051   5.771  0.8631 -0.7297 -1.6500
  215MOL0     H28364   7.063   1.671   5.965  0.5512 -0.4467  0.7199
  215MOL0     H28365   7.058   1.442   6.090 -1.1441 -1.2491 -2.0616
  215MOL0     H28366   7.777   1.205   6.029 -0.2029  0.1804 -0.6697
  215MOL0     H28367   7.981   1.333   6.046 -0.4862 -1.0044 -0.7479
  215MOL0     H28368   8.208   1.626   6.205 -2.6075 -0.1751 -2.0973
  215MOL0     H28369   8.423   1.727   6.264 -0.0801  1.2825  0.1837
  215MOL0     H28370   8.667   1.814   6.209 -2.3908 -1.2426  0.4123
  215MOL0     H28371   8.555   1.905   6.312  3.2183  1.4669  2.4869
  215MOL0     H28372   8.795   2.003   6.300 -0.5768  1.6537  1.9511
  215MOL0     H28373   8.744   2.053   6.142 -1.2759 -0.8090 -0.7448
  215MOL0     H28374   8.554   2.167   6.237  1.7674  0.4931 -2.0163
  215MOL0     H28375   8.717   2.227   6.263  0.0417 -1.3144 -0.7299
  215MOL0     H28376   8.554   2.234   6.465  0.4063  0.2652 -0.3888
  215MOL0     H28377   8.519   2.071   6.433  0.3044  0.3752 -0.9572
  215MOL0     H28378   8.881   2.019   6.659 -0.7155 -2.3288  0.0587
  215MOL0     H28379   8.410   1.932   5.879 -1.0146  0.8776 -0.9635
  215MOL0     H28380   8.207   1.822   5.825 -1.7502 -1.0540 -0.0984
  216MOL0     O28381  10.187   9.910   4.225  0.4778 -0.1819  0.0006
  216MOL0     C28382  10.223   9.934   4.106  0.3469 -0.5629  0.3365
  216MOL0     O28383  10.140   9.983   4.004 -0.0825  0.0505  0.6971
  216MOL0     C28384  10.014  10.007   4.028  0.1052  0.2865 -0.0542
  216MOL0     C28385   9.963  10.072   4.143 -1.5841 -1.0843  0.0801
  216MOL0     C28386   9.840  10.131   4.138 -0.0668 -0.6148 -0.5087
  216MOL0     C28387   9.754  10.091   4.034  0.1865  0.1457 -0.3737
  216MOL0     O28388   9.620  10.123   4.048  0.8721 -0.4074  0.7267
  216MOL0     C28389   9.517  10.105   3.943 -0.0270  0.1473  0.9211
  216MOL0     C28390   9.411  10.206   3.983  0.0683 -0.0032  0.2096
  216MOL0     C28391   9.304  10.218   3.879 -0.2297 -0.0311  0.1192
  216MOL0     C28392   9.209  10.336   3.900  0.0992 -0.2844  0.5984
  216MOL0     C28393   9.072  10.333   3.816 -0.1241 -0.7907 -0.3549
  216MOL0     C28394   9.101  10.353   3.663 -0.6496  0.4333 -0.9642
  216MOL0     C28395   8.968  10.342   3.584 -0.1260  0.2032  0.3626
  216MOL0     C28396   8.865  10.463   3.608 -0.1715  0.0105 -0.3058
  216MOL0     N28397   8.749  10.443   3.524  0.9969 -0.1156  0.2585
  216MOL0     C28398   8.630  10.522   3.512  0.0374  0.2311  0.3502
  216MOL0     C28399   8.558  10.457   3.417  0.0797  0.2673  1.0576
  216MOL0     C28400   8.424  10.511   3.366 -0.0914 -0.0712  1.0354
  216MOL0     C28401   8.320  10.406   3.346 -0.2777  0.3252  0.0009
  216MOL0     C28402   8.266  10.348   3.469  0.8537 -0.5589  0.0179
  216MOL0     C28403   8.172  10.221   3.463 -0.5350  1.1292  0.4117
  216MOL0     O28404   8.094  10.205   3.580  0.1307 -0.3103  0.3763
  216MOL0     C28405   7.997  10.105   3.565 -0.0304 -1.1703 -0.7353
  216MOL0     C28406   8.011   9.991   3.491  0.0179  0.1739  0.2458
  216MOL0     C28407   7.924   9.883   3.500 -1.0929  1.0791  0.4373
  216MOL0     C28408   7.813   9.897   3.593 -0.3894  0.5376  0.6514
  216MOL0     C28409   7.705   9.789   3.602 -0.2089  0.2193  0.2558
  216MOL0     O28410   7.589   9.824   3.660 -0.4192  0.3846  0.0473
  216MOL0     C28411   7.474   9.749   3.663 -0.5369 -0.4995 -0.6820
  216MOL0     C28412   7.447   9.632   3.591  0.3902 -1.1652  0.5675
  216MOL0     C28413   7.320   9.572   3.594 -1.3466  0.0074  0.1200
  216MOL0     C28414   7.217   9.643   3.660  0.2288 -0.0978  1.1477
  216MOL0     O28415   7.093   9.594   3.652  0.0077 -0.1671 -0.1384
  216MOL0     C28416   7.066   9.519   3.773  0.8751 -0.2576  1.0880
  216MOL0     C28417   6.912   9.514   3.791 -0.7043 -0.5044 -0.3791
  216MOL0     C28418   6.844   9.451   3.671 -0.1307 -0.0862  0.0699
  216MOL0     C28419   6.693   9.421   3.706 -0.3786 -0.7845 -0.3157
  216MOL0     C28420   6.601   9.384   3.594 -0.1725  0.4010  0.3556
  216MOL0     C28421   6.582   9.488   3.494  0.0626 -0.6180  0.1735
  216MOL0     C28422   6.475   9.447   3.395 -0.6653  0.3367  0.5500
  216MOL0     C28423   6.534   9.405   3.260  0.2575 -0.0242  0.3779
  216MOL0    Cl28424   6.601   9.236   3.279  0.2408 -0.4629  0.2845
  216MOL0     C28425   7.250   9.754   3.742  0.2472 -0.5651 -0.2515
  216MOL0     C28426   7.381   9.805   3.752  0.9818  0.2715  0.2888
  216MOL0     O28427   7.732   9.679   3.550  0.3494  0.8933  0.4260
  216MOL0     C28428   7.805  10.011   3.667  0.4649 -0.5878  0.3390
  216MOL0     C28429   7.900  10.111   3.663 -0.1854  0.0802 -0.0011
  216MOL0     N28430   8.628  10.340   3.375 -0.2211  0.1285  0.2754
  216MOL0     N28431   8.737  10.341   3.432 -0.4249  1.1601  0.2302
  216MOL0     C28432   9.803  10.024   3.917 -0.0830 -0.1261 -0.6209
  216MOL0     C28433   9.935   9.982   3.909  0.1843 -0.1563 -0.2034
  216MOL0     C28434  10.365   9.919   4.077 -0.2575 -0.1079  0.6218
  216MOL0     C28435  10.448   9.851   4.167 -0.1478 -0.9109 -0.8522
  216MOL0     C28436  10.584   9.839   4.140 -0.7160  0.1633 -0.2203
  216MOL0     C28437  10.639   9.869   4.009 -0.4268  0.0600 -1.0106
  216MOL0     O28438  10.768   9.817   3.995 -0.2360 -0.2666  0.4288
  216MOL0     C28439  10.837   9.839   3.872  0.3756  0.4864 -0.4994
  216MOL0     C28440  10.955   9.746   3.856 -0.5536  0.5111  0.5024
  216MOL0     C28441  11.066   9.753   3.968  0.8547 -0.7411  0.6972
  216MOL0     C28442  11.097   9.892   4.016  0.0825  0.8151 -0.1815
  216MOL0     C28443  11.241   9.899   4.044  0.9471  0.0261 -0.1141
  216MOL0     C28444  11.361   9.921   4.069 -0.5439 -0.1879  0.2624
  216MOL0     C28445  10.552   9.934   3.914 -0.2329  0.2386 -0.4921
  216MOL0     C28446  10.419   9.963   3.950  0.1326 -0.7360 -0.4820
  216MOL0     H28447  10.034  10.093   4.222  0.0881 -2.5578 -0.9530
  216MOL0     H28448   9.810  10.191   4.222  0.4483  1.8600 -2.0034
  216MOL0     H28449   9.472  10.009   3.916 -0.5585  1.1777 -2.3238
  216MOL0     H28450   9.553  10.148   3.848 -1.0949  0.8217  0.8060
  216MOL0     H28451   9.452  10.305   4.005 -1.3330  0.6487  0.0177
  216MOL0     H28452   9.365  10.175   4.077  0.4176  0.2909  0.4802
  216MOL0     H28453   9.241  10.131   3.896  1.9200 -1.6394  0.2729
  216MOL0     H28454   9.342  10.224   3.777  0.0284  0.5584  0.2452
  216MOL0     H28455   9.180  10.333   4.005  0.0618 -3.0958  0.5924
  216MOL0     H28456   9.266  10.428   3.885  0.7798 -0.7843  0.0293
  216MOL0     H28457   8.997  10.409   3.840 -2.5929 -2.4798 -2.2332
  216MOL0     H28458   9.028  10.234   3.830  0.8782 -1.3294 -0.8458
  216MOL0     H28459   9.177  10.289   3.619  0.8536  0.8695  0.8854
  216MOL0     H28460   9.130  10.458   3.662 -2.4463  1.0107  0.2423
  216MOL0     H28461   8.991  10.333   3.478 -1.3313  0.4462  0.0637
  216MOL0     H28462   8.912  10.248   3.595  0.6672 -1.1755 -4.8679
  216MOL0     H28463   8.905  10.564   3.591 -0.3267  0.4036  1.4458
  216MOL0     H28464   8.833  10.465   3.713  1.4632 -0.2201  0.2376
  216MOL0     H28465   8.605  10.614   3.564 -1.1326 -0.6703  1.4429
  216MOL0     H28466   8.434  10.553   3.265 -1.0518  0.2006  1.0439
  216MOL0     H28467   8.397  10.585   3.442 -0.0347 -1.0001  1.9949
  216MOL0     H28468   8.368  10.320   3.298 -1.8485 -0.6108  0.0272
  216MOL0     H28469   8.238  10.454   3.292  0.2165  3.9919  2.2145
  216MOL0     H28470   8.345  10.320   3.540  0.2159 -0.7829  0.6599
  216MOL0     H28471   8.202  10.428   3.509  0.1697 -1.8967  1.7833
  216MOL0     H28472   8.237  10.134   3.447 -1.1299  0.7458  0.0498
  216MOL0     H28473   8.110  10.234   3.374 -0.4612 -3.9770 -0.6892
  216MOL0     H28474   8.086   9.989   3.412  0.2831 -1.2116  0.5025
  216MOL0     H28475   7.948   9.787   3.454  1.4972  2.0322 -0.4225
  216MOL0     H28476   7.518   9.592   3.520 -0.4668 -0.1703 -0.9080
  216MOL0     H28477   7.312   9.476   3.543 -0.3241 -0.8562  1.5116
  216MOL0     H28478   7.111   9.553   3.867 -0.0020 -1.6090  2.0357
  216MOL0     H28479   7.109   9.422   3.749  2.1427  0.6803 -0.5671
  216MOL0     H28480   6.873   9.612   3.819  1.8563  0.3075  0.6278
  216MOL0     H28481   6.895   9.444   3.874  0.2479 -1.3209 -0.8552
  216MOL0     H28482   6.891   9.358   3.639 -0.7296 -0.9247  1.5588
  216MOL0     H28483   6.853   9.522   3.588 -0.8248 -1.7994 -1.5444
  216MOL0     H28484   6.694   9.336   3.774 -0.3189 -1.0880 -0.6922
  216MOL0     H28485   6.660   9.511   3.759 -1.3060 -3.1262  3.4227
  216MOL0     H28486   6.503   9.363   3.639 -0.4475  3.3795  1.4203
  216MOL0     H28487   6.646   9.297   3.546 -1.7825  1.3535 -3.1835
  216MOL0     H28488   6.670   9.521   3.439 -1.2617 -1.1340 -2.3883
  216MOL0     H28489   6.554   9.581   3.544  0.0031 -1.9779  2.8991
  216MOL0     H28490   6.409   9.367   3.431 -2.0359 -0.3696 -3.0906
  216MOL0     H28491   6.417   9.540   3.385  0.8863  1.2694 -0.1136
  216MOL0     H28492   6.612   9.474   3.227  0.9746 -0.4971  1.0585
  216MOL0     H28493   6.455   9.396   3.185 -0.9688 -0.3830  1.6756
  216MOL0     H28494   7.177   9.812   3.799  0.3156 -0.3094 -0.4201
  216MOL0     H28495   7.392   9.885   3.825 -1.3383 -0.6604  1.8045
  216MOL0     H28496   7.729  10.042   3.739  0.4255  2.1776 -0.7924
  216MOL0     H28497   7.888  10.205   3.716  0.1675 -0.0561  0.3275
  216MOL0     H28498   9.733   9.989   3.841  2.0037 -0.9090 -2.2770
  216MOL0     H28499   9.981   9.934   3.823  0.5353 -0.2283  0.0232
  216MOL0     H28500  10.414   9.815   4.264  1.0471  0.7037  0.2413
  216MOL0     H28501  10.653   9.784   4.203 -0.3508  1.8469  0.9221
  216MOL0     H28502  10.880   9.939   3.868  2.4257 -0.3834 -1.7168
  216MOL0     H28503  10.771   9.815   3.788 -1.1488 -0.7123  0.9457
  216MOL0     H28504  10.927   9.641   3.846  2.5930 -0.2875 -1.5395
  216MOL0     H28505  10.994   9.773   3.758 -0.7279  1.1710  0.6119
  216MOL0     H28506  11.158   9.705   3.933  0.4942 -1.3780  0.6152
  216MOL0     H28507  11.038   9.695   4.056 -0.2940  0.9139  1.4634
  216MOL0     H28508  11.081   9.979   3.951  0.9206  0.5043 -0.8210
  216MOL0     H28509  11.036   9.908   4.105 -1.3317  0.2910 -1.0017
  216MOL0     H28510  11.464   9.936   4.094 -0.0934 -1.7102 -0.5736
  216MOL0     H28511  10.580   9.955   3.812 -1.2405  0.1256 -0.8031
  216MOL0     H28512  10.361  10.018   3.876  2.0353  0.3004 -1.2759
  217MOL0     O28513   8.850   2.342   4.803  0.0420  0.7069  0.5640
  217MOL0     C28514   8.812   2.317   4.689 -1.0225  0.7743  0.3582
  217MOL0     O28515   8.894   2.295   4.584  0.1791 -0.1067  0.5126
  217MOL0     C28516   9.028   2.271   4.602 -0.3339  0.3629  0.6137
  217MOL0     C28517   9.117   2.365   4.655  0.5148 -0.7244 -0.1126
  217MOL0     C28518   9.253   2.338   4.653 -0.1532 -0.2608  0.3988
  217MOL0     C28519   9.308   2.223   4.607 -0.1374  0.5247 -0.6448
  217MOL0     O28520   9.441   2.176   4.619  0.9428 -0.4139 -0.9880
  217MOL0     C28521   9.545   2.281   4.607  0.8790  0.2334 -0.4494
  217MOL0     C28522   9.592   2.286   4.455 -0.6441 -0.2178 -0.0866
  217MOL0     C28523   9.492   2.342   4.353  0.2703 -0.5355 -0.2895
  217MOL0     C28524   9.546   2.365   4.211 -0.5697 -0.0582 -0.7718
  217MOL0     C28525   9.653   2.482   4.221 -0.3914 -0.1037  0.1669
  217MOL0     C28526   9.685   2.520   4.079  0.6917 -0.2745 -1.1861
  217MOL0     C28527   9.813   2.607   4.080  0.0968 -0.5832  0.4770
  217MOL0     C28528   9.828   2.730   4.169  0.0331 -0.2677  0.2299
  217MOL0     N28529   9.705   2.806   4.167  0.1495 -0.7366  0.5464
  217MOL0     C28530   9.650   2.870   4.056  0.3147  0.0726  0.5615
  217MOL0     C28531   9.536   2.926   4.110 -0.1753 -0.7891 -0.2720
  217MOL0     C28532   9.444   3.009   4.043  0.5199  0.5047 -0.0863
  217MOL0     C28533   9.298   2.961   4.063  0.4752  0.5287  0.4366
  217MOL0     C28534   9.271   2.845   3.955  0.0680 -0.1908 -0.6683
  217MOL0     C28535   9.128   2.821   3.943  0.4524 -0.5334  0.0287
  217MOL0     O28536   9.100   2.727   3.838  0.0477 -1.0136 -0.4478
  217MOL0     C28537   8.975   2.692   3.816 -0.6939 -0.1406 -0.2185
  217MOL0     C28538   8.869   2.726   3.904 -0.0158  0.3257 -0.1050
  217MOL0     C28539   8.740   2.673   3.890  0.4513 -0.6849 -0.1797
  217MOL0     C28540   8.710   2.597   3.777  0.6157 -0.0109  0.6892
  217MOL0     C28541   8.580   2.534   3.753  1.1708  0.1308 -0.2753
  217MOL0     O28542   8.567   2.450   3.647  0.1115  0.3373 -0.6162
  217MOL0     C28543   8.447   2.379   3.625 -0.1003  0.8498  0.5772
  217MOL0     C28544   8.424   2.361   3.492 -0.5175  0.0362  0.2601
  217MOL0     C28545   8.311   2.288   3.454  0.6419  0.3854 -0.2549
  217MOL0     C28546   8.220   2.229   3.543 -0.2223  0.0290 -0.4122
  217MOL0     O28547   8.101   2.163   3.513 -0.1989 -0.0755 -0.1493
  217MOL0     C28548   8.088   2.125   3.373  0.1157  0.2592  0.4239
  217MOL0     C28549   7.969   2.022   3.363  0.2352 -0.3640  0.0316
  217MOL0     C28550   7.956   1.981   3.211  0.7041  0.7341 -0.2877
  217MOL0     C28551   8.058   1.875   3.168 -0.4118 -0.2999  0.3573
  217MOL0     C28552   8.065   1.846   3.020 -0.0269 -1.1239 -0.5339
  217MOL0     C28553   8.173   1.741   2.984  0.4857 -0.3295  0.1205
  217MOL0     C28554   8.160   1.719   2.826 -0.3425 -0.2463 -0.0738
  217MOL0     C28555   8.255   1.608   2.763 -0.4164  0.3636  0.6297
  217MOL0    Cl28556   8.426   1.645   2.769  0.0918 -0.0435 -0.2754
  217MOL0     C28557   8.241   2.261   3.681 -0.1625  0.3273 -0.2070
  217MOL0     C28558   8.354   2.334   3.715  0.4231 -0.3645 -0.6110
  217MOL0     O28559   8.494   2.553   3.838 -0.5915 -0.7373  0.0019
  217MOL0     C28560   8.820   2.553   3.689  0.3828 -0.4726  1.1180
  217MOL0     C28561   8.947   2.605   3.711 -0.6925 -0.1123  0.9347
  217MOL0     N28562   9.519   2.891   4.241 -0.1044  0.4066 -1.3862
  217MOL0     N28563   9.619   2.815   4.275 -0.3554 -0.5510 -0.0125
  217MOL0     C28564   9.225   2.136   4.539  0.7289  0.0490  0.1394
  217MOL0     C28565   9.082   2.157   4.539 -0.2189 -0.1340 -0.4836
  217MOL0     C28566   8.669   2.317   4.659 -0.4165  0.6972  0.4141
  217MOL0     C28567   8.581   2.389   4.739  0.4252 -0.6693 -0.5091
  217MOL0     C28568   8.441   2.384   4.715  1.0355  0.0802  0.1189
  217MOL0     C28569   8.388   2.295   4.618 -0.0026 -0.2823 -0.1363
  217MOL0     O28570   8.255   2.285   4.584  0.3477  0.0459  0.0609
  217MOL0     C28571   8.166   2.394   4.617 -0.3418 -0.4566 -0.0829
  217MOL0     C28572   8.024   2.355   4.589 -0.1696  0.7099 -0.4568
  217MOL0     C28573   7.988   2.357   4.443  0.5878 -0.5925  0.0047
  217MOL0     C28574   7.881   2.256   4.410  0.3634 -0.0912 -1.6542
  217MOL0     C28575   7.838   2.279   4.272 -0.8139 -1.1491 -0.9057
  217MOL0     C28576   7.797   2.286   4.161 -0.2643  0.4755  0.2919
  217MOL0     C28577   8.472   2.218   4.542  0.1157 -0.3051  0.8569
  217MOL0     C28578   8.612   2.231   4.565  1.0694  0.4237  1.0897
  217MOL0     H28579   9.079   2.457   4.698 -1.3781 -0.6969 -1.6985
  217MOL0     H28580   9.321   2.411   4.696 -2.0155 -0.2310  3.6415
  217MOL0     H28581   9.630   2.255   4.670  0.3727 -0.5134 -0.0592
  217MOL0     H28582   9.518   2.385   4.631  4.0583  1.4536 -1.6490
  217MOL0     H28583   9.627   2.187   4.423  2.4924  1.0374 -0.8944
  217MOL0     H28584   9.678   2.352   4.449 -1.4155  0.8337  0.2243
  217MOL0     H28585   9.466   2.444   4.384  0.7225  0.2324 -2.3169
  217MOL0     H28586   9.395   2.293   4.348 -0.6436  1.2976 -2.5450
  217MOL0     H28587   9.594   2.277   4.167 -1.0607 -2.0199  2.3040
  217MOL0     H28588   9.466   2.394   4.142 -1.6295 -0.0244  0.4397
  217MOL0     H28589   9.747   2.445   4.262 -0.9605 -1.8621 -0.0279
  217MOL0     H28590   9.614   2.556   4.291  0.2788 -1.5370  2.1255
  217MOL0     H28591   9.604   2.580   4.037  1.0079  1.6369  0.7467
  217MOL0     H28592   9.698   2.434   4.013  0.0508 -0.3290 -1.2469
  217MOL0     H28593   9.893   2.534   4.099  0.2870 -1.0572 -1.7605
  217MOL0     H28594   9.829   2.639   3.976 -0.8980 -0.9410  0.2024
  217MOL0     H28595   9.910   2.787   4.127 -1.0756  0.5945 -0.8299
  217MOL0     H28596   9.852   2.711   4.274 -1.7966  2.8702  1.3362
  217MOL0     H28597   9.688   2.888   3.956  2.5254  3.4469  1.8190
  217MOL0     H28598   9.479   3.009   3.939 -1.1719 -0.3397 -0.6852
  217MOL0     H28599   9.447   3.113   4.074  1.1002  0.1455  1.1110
  217MOL0     H28600   9.240   3.050   4.039  2.2625  1.0180 -2.7409
  217MOL0     H28601   9.274   2.933   4.166 -1.7872 -1.8735 -0.6080
  217MOL0     H28602   9.309   2.884   3.860 -0.7977  0.5228 -0.7426
  217MOL0     H28603   9.329   2.754   3.971  0.2667  0.1108  0.3842
  217MOL0     H28604   9.075   2.911   3.914  1.9619  0.1757 -0.6424
  217MOL0     H28605   9.089   2.788   4.040 -2.0046  2.3672  0.1504
  217MOL0     H28606   8.878   2.780   3.998 -1.2951 -2.5441  1.8260
  217MOL0     H28607   8.662   2.693   3.963 -0.0115 -0.7067 -0.6543
  217MOL0     H28608   8.483   2.411   3.416  3.4245  1.5723  3.9518
  217MOL0     H28609   8.301   2.278   3.346 -0.3757  0.4322 -0.1794
  217MOL0     H28610   8.181   2.087   3.330 -1.0944 -1.2352 -0.9629
  217MOL0     H28611   8.060   2.217   3.322  0.8590  1.4401  2.0322
  217MOL0     H28612   7.874   2.064   3.397 -0.1789 -1.6201  0.4654
  217MOL0     H28613   7.992   1.929   3.415 -1.0142 -0.0368  1.2243
  217MOL0     H28614   7.971   2.068   3.147  0.4727  0.8560 -0.1785
  217MOL0     H28615   7.856   1.940   3.190  1.1414  0.2890 -1.6660
  217MOL0     H28616   8.159   1.902   3.199  0.5071 -1.3362 -1.5463
  217MOL0     H28617   8.033   1.782   3.219  3.3519 -2.6853 -1.7075
  217MOL0     H28618   8.090   1.946   2.982 -1.8223 -1.2827 -2.3026
  217MOL0     H28619   7.964   1.818   2.992  0.1037  0.1296 -2.4609
  217MOL0     H28620   8.151   1.642   3.026 -0.3561 -0.5849 -0.8672
  217MOL0     H28621   8.269   1.777   3.021  0.7122 -2.4020  1.7222
  217MOL0     H28622   8.061   1.683   2.795 -0.7912 -0.0907  1.1224
  217MOL0     H28623   8.193   1.810   2.776  1.7934 -0.8195  0.2147
  217MOL0     H28624   8.224   1.596   2.659 -0.0175  0.4705  0.4942
  217MOL0     H28625   8.227   1.516   2.816 -0.2459 -0.6474 -0.9742
  217MOL0     H28626   8.165   2.225   3.750  0.2954 -1.0622 -0.3922
  217MOL0     H28627   8.373   2.354   3.820  0.8603 -0.3235 -0.6956
  217MOL0     H28628   8.787   2.496   3.603 -0.9317  1.4749  0.2696
  217MOL0     H28629   9.034   2.584   3.650  0.7954  1.0907  2.5628
  217MOL0     H28630   9.269   2.043   4.507 -0.3942 -0.8840  1.2190
  217MOL0     H28631   9.019   2.081   4.492 -0.6973  1.3814 -2.4156
  217MOL0     H28632   8.616   2.461   4.812 -1.7901  1.4054 -1.3828
  217MOL0     H28633   8.378   2.448   4.776  1.2232 -1.2318  1.7412
  217MOL0     H28634   8.203   2.476   4.555  1.1426 -1.2348 -0.2840
  217MOL0     H28635   8.177   2.417   4.724  2.0663 -1.4948 -0.0371
  217MOL0     H28636   8.010   2.255   4.629 -2.3132  1.2909  0.3836
  217MOL0     H28637   7.960   2.427   4.641 -1.3482 -0.3615 -0.3706
  217MOL0     H28638   8.079   2.330   4.389 -0.2049  0.7840 -2.1350
  217MOL0     H28639   7.956   2.460   4.420 -1.2372 -0.8220  1.2346
  217MOL0     H28640   7.914   2.152   4.421  1.7698  0.3877 -1.2257
  217MOL0     H28641   7.807   2.258   4.491  2.1234 -2.1565  0.1514
  217MOL0     H28642   7.749   2.300   4.067 -0.4330 -1.0613  0.1337
  217MOL0     H28643   8.435   2.154   4.463 -1.9746  0.8505  0.8442
  217MOL0     H28644   8.676   2.160   4.513 -2.6380 -1.6811 -1.0970
  218MOL0     O28645  10.988   6.177   0.726 -0.2727  0.1595 -0.3478
  218MOL0     C28646  11.030   6.292   0.732  0.6853  0.8680 -0.0380
  218MOL0     O28647  10.961   6.392   0.794  0.0554 -0.1760  0.6746
  218MOL0     C28648  10.834   6.378   0.848 -0.5514  0.6048  0.4499
  218MOL0     C28649  10.741   6.481   0.824 -0.2263 -0.2948  1.0477
  218MOL0     C28650  10.602   6.474   0.851 -0.1742  0.0744 -0.7220
  218MOL0     C28651  10.563   6.367   0.926 -0.6399  0.4013 -0.4509
  218MOL0     O28652  10.432   6.355   0.966 -0.5025  0.2177 -0.3188
  218MOL0     C28653  10.359   6.261   0.898  0.3318 -0.4836  0.6012
  218MOL0     C28654  10.300   6.171   1.008 -0.4392  0.8424 -0.5312
  218MOL0     C28655  10.231   6.043   0.949  0.1825 -1.1876  0.2475
  218MOL0     C28656  10.185   5.940   1.054 -0.3051  1.5187  0.8692
  218MOL0     C28657  10.202   5.787   1.012 -0.7290 -0.8653  0.5091
  218MOL0     C28658  10.136   5.745   0.884  0.1938  0.2735  0.5343
  218MOL0     C28659  10.144   5.590   0.878 -0.7123 -0.3807  0.7338
  218MOL0     C28660  10.067   5.533   0.759  0.6818 -0.5208 -0.0855
  218MOL0     N28661  10.041   5.385   0.754  0.2974 -0.5670 -0.4681
  218MOL0     C28662   9.963   5.320   0.846  1.0485  0.0169 -0.1689
  218MOL0     C28663   9.929   5.198   0.796  0.6384 -0.2152 -0.9391
  218MOL0     C28664   9.823   5.115   0.857  0.2654 -0.4353  0.4680
  218MOL0     C28665   9.699   5.138   0.776  0.1524  0.1057 -0.0283
  218MOL0     C28666   9.584   5.049   0.843  0.1431 -0.0182 -1.2920
  218MOL0     C28667   9.461   5.062   0.752  0.3941 -0.0884 -0.1474
  218MOL0     O28668   9.344   4.999   0.812 -0.3992 -0.5144 -0.5480
  218MOL0     C28669   9.235   4.981   0.732  0.0570  0.5997  0.3175
  218MOL0     C28670   9.222   5.024   0.598  0.0445  0.0772 -0.0096
  218MOL0     C28671   9.098   5.003   0.541  0.5645  0.0423  0.1755
  218MOL0     C28672   8.992   4.935   0.604 -0.6717 -0.7713  0.0382
  218MOL0     C28673   8.860   4.916   0.530  0.4033  0.2398 -0.5472
  218MOL0     O28674   8.767   4.834   0.593 -0.7941 -0.3187 -0.1386
  218MOL0     C28675   8.646   4.822   0.524 -0.0986 -0.1664  1.0496
  218MOL0     C28676   8.618   4.706   0.457 -0.9625  0.1100 -0.3611
  218MOL0     C28677   8.491   4.689   0.411 -0.5941  0.0880 -0.5794
  218MOL0     C28678   8.390   4.782   0.423 -0.2303 -0.0933  0.8777
  218MOL0     O28679   8.260   4.753   0.390 -0.5667  0.2898 -0.0204
  218MOL0     C28680   8.222   4.636   0.322  0.1318  0.5480  0.4097
  218MOL0     C28681   8.080   4.663   0.293  0.6190  0.3879 -0.7192
  218MOL0     C28682   8.024   4.528   0.251 -0.8901  0.2059  0.5635
  218MOL0     C28683   7.879   4.525   0.200 -0.0674  0.1226  0.0433
  218MOL0     C28684   7.845   4.381   0.159 -0.6348 -0.2832 -0.5150
  218MOL0     C28685   7.697   4.365   0.142  0.0799 -0.0639 -0.2290
  218MOL0     C28686   7.652   4.214   0.147  0.2961 -0.2061  0.0715
  218MOL0     C28687   7.511   4.196   0.087  0.0060 -0.1804 -0.9970
  218MOL0    Cl28688   7.394   4.313   0.168  0.0760 -0.0420  0.2776
  218MOL0     C28689   8.422   4.901   0.469 -0.9526 -0.5350  0.0906
  218MOL0     C28690   8.547   4.916   0.535 -0.6713  0.3806  1.0041
  218MOL0     O28691   8.847   4.972   0.418  0.3465  0.4167  0.2817
  218MOL0     C28692   9.010   4.893   0.733  0.1400  0.1394  0.0042
  218MOL0     C28693   9.134   4.913   0.797 -0.3476  0.6518 -0.0269
  218MOL0     N28694  10.002   5.180   0.683 -0.1884 -0.6689 -0.3042
  218MOL0     N28695  10.061   5.295   0.651 -0.3705 -0.4939 -0.7537
  218MOL0     C28696  10.651   6.263   0.959  0.1526  0.0620 -0.6887
  218MOL0     C28697  10.781   6.261   0.920  0.2813 -0.4163  0.1217
  218MOL0     C28698  11.162   6.315   0.673  0.7977  0.9036 -0.1438
  218MOL0     C28699  11.240   6.212   0.617  0.2913 -0.2058 -0.5201
  218MOL0     C28700  11.370   6.227   0.575 -0.2012 -0.4048 -0.5944
  218MOL0     C28701  11.422   6.359   0.562  0.0802 -0.4147  0.0647
  218MOL0     O28702  11.546   6.367   0.502 -0.4426 -0.3118  0.0381
  218MOL0     C28703  11.604   6.496   0.476 -1.3211  0.9293  0.1420
  218MOL0     C28704  11.658   6.552   0.614  0.3641 -0.6019 -0.1659
  218MOL0     C28705  11.785   6.499   0.653 -0.4104 -0.0936 -0.1094
  218MOL0     C28706  11.832   6.564   0.785  0.1790 -0.3258 -0.4265
  218MOL0     C28707  11.857   6.712   0.776  0.4599  0.0022 -0.5674
  218MOL0     C28708  11.875   6.835   0.781 -0.4593  0.4623 -0.4118
  218MOL0     C28709  11.340   6.468   0.607  0.4189  0.9847 -0.5647
  218MOL0     C28710  11.211   6.447   0.662  0.7707  0.4502  0.6488
  218MOL0     H28711  10.767   6.565   0.760 -2.8041 -0.7878 -0.8084
  218MOL0     H28712  10.524   6.546   0.828 -2.7063 -3.1425 -3.1670
  218MOL0     H28713  10.413   6.204   0.822 -0.8261  2.3920 -2.6391
  218MOL0     H28714  10.279   6.316   0.848  0.4594 -0.4050  0.4845
  218MOL0     H28715  10.234   6.221   1.080 -2.4010  0.7354 -2.1409
  218MOL0     H28716  10.378   6.128   1.070 -0.4888  1.8968  0.2727
  218MOL0     H28717  10.295   6.001   0.870  0.9462  2.6426 -1.3970
  218MOL0     H28718  10.152   6.079   0.883  1.6474  2.9592  0.4628
  218MOL0     H28719  10.249   5.951   1.142  1.4392  0.8742 -0.2478
  218MOL0     H28720  10.080   5.955   1.081 -0.9226 -2.0748  0.9374
  218MOL0     H28721  10.158   5.734   1.097 -3.0702  1.9536  1.2114
  218MOL0     H28722  10.308   5.759   1.018 -0.2833  0.9812  1.9419
  218MOL0     H28723  10.189   5.792   0.801  2.3651 -0.2176  1.5676
  218MOL0     H28724  10.031   5.776   0.888  0.4346  1.2980 -0.4709
  218MOL0     H28725  10.246   5.553   0.869 -0.2979  1.0874 -1.0545
  218MOL0     H28726  10.106   5.536   0.966 -2.8678 -1.1024 -0.5453
  218MOL0     H28727  10.129   5.560   0.673 -3.8820  0.1214 -3.5650
  218MOL0     H28728   9.968   5.576   0.746  1.1996 -0.0348 -3.1125
  218MOL0     H28729   9.928   5.360   0.940 -0.1284 -0.7006 -0.2813
  218MOL0     H28730   9.803   5.133   0.963  3.0659 -1.7505  1.3126
  218MOL0     H28731   9.850   5.010   0.844 -1.7550 -0.9679  0.3484
  218MOL0     H28732   9.712   5.111   0.671  0.5961  1.1577 -0.2492
  218MOL0     H28733   9.661   5.240   0.785  0.6663  0.2746  0.2502
  218MOL0     H28734   9.608   4.942   0.839 -3.0804 -0.8208 -1.9806
  218MOL0     H28735   9.555   5.079   0.944  1.3002 -3.6058  0.2741
  218MOL0     H28736   9.479   5.013   0.656 -1.9972 -2.7051  0.5935
  218MOL0     H28737   9.436   5.166   0.732 -1.2391  0.1028  2.3699
  218MOL0     H28738   9.298   5.076   0.541  0.6921 -1.2119 -0.3589
  218MOL0     H28739   9.105   5.044   0.441  5.0552 -0.4417  0.0901
  218MOL0     H28740   8.695   4.629   0.451 -1.3423 -0.5138  1.8850
  218MOL0     H28741   8.473   4.591   0.369  3.0041  0.2863 -3.1091
  218MOL0     H28742   8.235   4.550   0.388 -1.5326 -0.7188 -0.8234
  218MOL0     H28743   8.270   4.607   0.228  0.0469 -3.4983  1.4371
  218MOL0     H28744   8.084   4.741   0.216 -1.4668  0.6425 -0.6337
  218MOL0     H28745   8.032   4.706   0.381 -0.3809  0.6568 -1.3776
  218MOL0     H28746   8.036   4.459   0.335 -0.8964 -4.2066 -2.7099
  218MOL0     H28747   8.087   4.486   0.171 -0.2897 -0.7657  1.5228
  218MOL0     H28748   7.821   4.576   0.277  0.1664  2.0409 -0.9923
  218MOL0     H28749   7.865   4.594   0.116 -1.1184 -0.9150 -0.6725
  218MOL0     H28750   7.884   4.310   0.233  0.1409  0.1397 -0.5097
  218MOL0     H28751   7.905   4.358   0.071  3.0861 -0.7338  1.9026
  218MOL0     H28752   7.673   4.402   0.042 -0.6290 -0.9752 -0.4105
  218MOL0     H28753   7.636   4.420   0.214  0.9371  0.4660  0.1018
  218MOL0     H28754   7.721   4.155   0.086  0.1659 -2.1868  1.7349
  218MOL0     H28755   7.647   4.187   0.253 -3.0533  1.1037  0.3585
  218MOL0     H28756   7.477   4.095   0.111  1.3569 -1.0802 -2.6188
  218MOL0     H28757   7.508   4.208  -0.022 -1.6286  0.6297 -0.8915
  218MOL0     H28758   8.358   4.988   0.479 -1.1495 -0.8830  2.1299
  218MOL0     H28759   8.561   5.005   0.596 -1.4530  0.8250  0.5575
  218MOL0     H28760   8.948   4.821   0.785  0.6438 -0.7128 -0.5379
  218MOL0     H28761   9.156   4.874   0.896 -1.2903 -2.8955 -1.0558
  218MOL0     H28762  10.613   6.180   1.018  2.4875 -0.5800 -0.0126
  218MOL0     H28763  10.831   6.176   0.965 -1.0692 -0.3574  1.8593
  218MOL0     H28764  11.192   6.115   0.616 -0.1359  0.0093 -0.6937
  218MOL0     H28765  11.432   6.142   0.549 -0.9064 -0.5788 -1.7642
  218MOL0     H28766  11.531   6.564   0.431 -3.2797  0.5886  2.5855
  218MOL0     H28767  11.690   6.497   0.408 -0.9990 -0.2632  0.5150
  218MOL0     H28768  11.661   6.661   0.601 -2.2683 -0.5520 -0.7882
  218MOL0     H28769  11.594   6.529   0.700  2.6353  1.1743  2.1840
  218MOL0     H28770  11.857   6.516   0.573 -3.4129  0.0065 -3.0010
  218MOL0     H28771  11.777   6.394   0.684 -0.3612  0.2950  1.2665
  218MOL0     H28772  11.759   6.544   0.864  1.3825  1.3058  1.1855
  218MOL0     H28773  11.923   6.519   0.825  1.1652  1.3393 -0.6744
  218MOL0     H28774  11.893   6.941   0.780 -2.0166  0.7937  1.4098
  218MOL0     H28775  11.377   6.570   0.600 -3.1599  2.4605 -0.3141
  218MOL0     H28776  11.155   6.534   0.695 -0.9090  0.7607 -2.5813
  219MOL0     O28777   1.527   7.938   7.773  1.0743  0.3327  0.2804
  219MOL0     C28778   1.606   7.999   7.847  0.4128  0.4949  0.2801
  219MOL0     O28779   1.611   8.000   7.987 -0.2149 -0.3685  0.2498
  219MOL0     C28780   1.507   7.934   8.048 -0.3064  0.7436  0.2449
  219MOL0     C28781   1.379   7.991   8.052 -0.0944 -0.0722  0.2371
  219MOL0     C28782   1.281   7.927   8.125  0.9504  0.1292 -0.7170
  219MOL0     C28783   1.307   7.813   8.203 -0.0716  0.5063  0.1936
  219MOL0     O28784   1.204   7.758   8.272  0.3393  0.2729  0.0983
  219MOL0     C28785   1.081   7.831   8.295 -0.1469  0.0750 -0.6811
  219MOL0     C28786   0.977   7.736   8.365  0.1647 -0.8345 -0.6463
  219MOL0     C28787   0.835   7.791   8.366  0.8288  1.0826 -0.3536
  219MOL0     C28788   0.768   7.725   8.486  0.0796 -0.1874 -0.0820
  219MOL0     C28789   0.612   7.713   8.460 -0.0939 -0.9915  1.0914
  219MOL0     C28790   0.540   7.625   8.566  0.1072  0.2988 -0.1337
  219MOL0     C28791   0.385   7.612   8.566 -0.4679  0.4420 -0.9423
  219MOL0     C28792   0.314   7.742   8.583 -0.0944 -0.8275 -0.5218
  219MOL0     N28793   0.170   7.738   8.556  0.6791 -0.3362  0.0694
  219MOL0     C28794   0.079   7.840   8.514 -0.4687  0.5805  1.5557
  219MOL0     C28795  -0.043   7.777   8.539 -0.4455 -0.0090  0.5485
  219MOL0     C28796  -0.184   7.835   8.516  0.0258 -0.0733 -0.1502
  219MOL0     C28797  -0.275   7.815   8.638  0.0756  0.2610 -0.6212
  219MOL0     C28798  -0.407   7.889   8.621  0.8172  0.4746  0.1030
  219MOL0     C28799  -0.489   7.902   8.748 -0.0167  0.8862 -0.2419
  219MOL0     O28800  -0.527   7.771   8.808 -0.6129  0.0764  0.0474
  219MOL0     C28801  -0.633   7.698   8.762 -0.4645  0.0807 -0.0538
  219MOL0     C28802  -0.655   7.570   8.825 -0.5969 -0.6018  0.0065
  219MOL0     C28803  -0.769   7.497   8.799  0.9541  0.5134 -0.6523
  219MOL0     C28804  -0.861   7.538   8.703 -0.6918  1.1165  0.0457
  219MOL0     C28805  -0.976   7.450   8.663 -0.6584 -0.2678  0.4139
  219MOL0     O28806  -1.048   7.487   8.549  0.8071  0.5861 -0.1285
  219MOL0     C28807  -1.176   7.436   8.538 -0.6695 -0.4285 -0.1228
  219MOL0     C28808  -1.211   7.413   8.401 -0.1823  0.8669 -0.1425
  219MOL0     C28809  -1.346   7.384   8.374  0.0906  0.4059 -0.6032
  219MOL0     C28810  -1.441   7.383   8.486  0.9980  0.3608  0.1275
  219MOL0     O28811  -1.580   7.371   8.461 -0.1569  0.6688  0.3755
  219MOL0     C28812  -1.630   7.427   8.335 -0.4234  0.2404  1.2826
  219MOL0     C28813  -1.763   7.485   8.349  0.3356  0.0760 -0.5548
  219MOL0     C28814  -1.870   7.371   8.381  0.1355 -0.0778 -0.0360
  219MOL0     C28815  -2.012   7.425   8.370 -0.0434 -0.0575 -0.1659
  219MOL0     C28816  -2.114   7.331   8.436  0.2101  0.2239  0.3731
  219MOL0     C28817  -2.262   7.371   8.434 -1.0130  0.8242  0.2634
  219MOL0     C28818  -2.317   7.369   8.289 -0.6276  0.5360  0.0961
  219MOL0     C28819  -2.454   7.431   8.273 -0.7870 -0.8453  0.1790
  219MOL0    Cl28820  -2.576   7.313   8.337  0.1092 -0.2714  0.2337
  219MOL0     C28821  -1.391   7.383   8.620  0.3159 -0.0791 -0.5464
  219MOL0     C28822  -1.262   7.422   8.643 -0.5248 -0.3503 -0.1977
  219MOL0     O28823  -1.005   7.364   8.742  0.7611 -0.2403 -0.6551
  219MOL0     C28824  -0.843   7.668   8.644  0.4405 -0.0919  0.2674
  219MOL0     C28825  -0.728   7.745   8.672 -0.3104  0.1829  0.5908
  219MOL0     N28826  -0.026   7.647   8.587 -0.5732  0.0471 -0.0391
  219MOL0     N28827   0.104   7.635   8.600 -0.0688  0.0499  0.0063
  219MOL0     C28828   1.435   7.760   8.207 -0.9355 -0.7666  0.1087
  219MOL0     C28829   1.536   7.828   8.138  0.1289 -0.1885  0.4148
  219MOL0     C28830   1.719   8.070   7.778  0.5099  0.4718  0.7826
  219MOL0     C28831   1.833   8.123   7.843  0.0799 -0.1280 -0.1309
  219MOL0     C28832   1.939   8.172   7.777 -0.2845 -0.8076 -0.0576
  219MOL0     C28833   1.940   8.173   7.637  1.0756 -0.0325 -0.1415
  219MOL0     O28834   2.039   8.232   7.566 -0.1093 -0.0776 -0.1356
  219MOL0     C28835   2.171   8.207   7.603  0.7384  0.8716 -0.4928
  219MOL0     C28836   2.253   8.339   7.597  0.0216  0.2734 -0.1584
  219MOL0     C28837   2.245   8.419   7.472 -0.5783 -0.2864 -0.8950
  219MOL0     C28838   2.273   8.351   7.339  0.8172  0.7335  0.3005
  219MOL0     C28839   2.395   8.280   7.357  0.1023  0.4026  0.0327
  219MOL0     C28840   2.502   8.215   7.367 -0.0922 -0.7969 -0.7325
  219MOL0     C28841   1.835   8.123   7.570  0.5140 -0.7663  0.4099
  219MOL0     C28842   1.722   8.065   7.634 -0.4433  0.7238 -0.1806
  219MOL0     H28843   1.356   8.088   8.009 -0.7988 -0.8888 -1.3227
  219MOL0     H28844   1.186   7.979   8.122  0.9870  0.1649 -1.4409
  219MOL0     H28845   1.029   7.853   8.202 -1.0520 -0.8687 -0.4113
  219MOL0     H28846   1.091   7.911   8.369 -3.5403 -0.6137  0.7284
  219MOL0     H28847   1.012   7.709   8.465 -0.3415 -1.3995 -0.6135
  219MOL0     H28848   0.968   7.639   8.317  0.0887 -1.4777  0.6136
  219MOL0     H28849   0.784   7.757   8.275  0.9586 -2.1671  0.6491
  219MOL0     H28850   0.831   7.900   8.373 -1.7040  1.0842 -0.9087
  219MOL0     H28851   0.809   7.624   8.495  1.8090  0.5451  0.8284
  219MOL0     H28852   0.800   7.774   8.578  0.1128 -1.3959  0.5760
  219MOL0     H28853   0.596   7.685   8.356 -1.9880 -0.2002  1.1258
  219MOL0     H28854   0.567   7.813   8.470  0.4581 -0.5450 -0.6545
  219MOL0     H28855   0.573   7.672   8.659 -1.7587  1.6264 -0.0782
  219MOL0     H28856   0.582   7.525   8.549 -2.2981 -1.4909  3.1233
  219MOL0     H28857   0.358   7.563   8.472  3.0973 -0.9738 -1.3745
  219MOL0     H28858   0.349   7.543   8.643 -2.3795  0.5480 -1.6817
  219MOL0     H28859   0.370   7.812   8.520  0.1462  0.2229  0.7934
  219MOL0     H28860   0.323   7.780   8.686  3.2868  0.7678 -1.2636
  219MOL0     H28861   0.096   7.942   8.481  0.6102 -0.4643 -1.4547
  219MOL0     H28862  -0.218   7.788   8.424 -1.6302 -2.9033  1.7544
  219MOL0     H28863  -0.171   7.943   8.505 -1.4504  0.1594  0.2447
  219MOL0     H28864  -0.225   7.840   8.732 -2.7570 -0.9498  1.3477
  219MOL0     H28865  -0.301   7.710   8.646 -1.3886  0.5734 -0.9241
  219MOL0     H28866  -0.397   7.978   8.559 -0.2058 -0.3859 -1.3560
  219MOL0     H28867  -0.468   7.833   8.550  0.8426  0.2111  0.2844
  219MOL0     H28868  -0.579   7.965   8.746 -0.4838  0.2373  0.1037
  219MOL0     H28869  -0.433   7.943   8.833 -3.0614 -0.3345  2.5721
  219MOL0     H28870  -0.580   7.542   8.898 -1.0632  1.0585  1.1897
  219MOL0     H28871  -0.783   7.404   8.854  0.4067 -0.2485 -2.0269
  219MOL0     H28872  -1.138   7.402   8.321 -2.0126 -1.5584 -1.6068
  219MOL0     H28873  -1.376   7.356   8.274 -1.4342  1.2223 -0.4038
  219MOL0     H28874  -1.617   7.360   8.249 -0.9790  3.8386 -1.8633
  219MOL0     H28875  -1.566   7.510   8.305  0.3484 -0.3820  1.1551
  219MOL0     H28876  -1.791   7.533   8.255  3.0818  3.3944  0.1321
  219MOL0     H28877  -1.758   7.557   8.431 -3.1506 -1.9636  1.7344
  219MOL0     H28878  -1.851   7.328   8.479 -0.9176 -0.5474 -0.0246
  219MOL0     H28879  -1.861   7.289   8.309 -0.1624 -1.2644  1.2472
  219MOL0     H28880  -2.018   7.522   8.418  0.6946  0.1796 -0.5363
  219MOL0     H28881  -2.034   7.437   8.263 -0.7058  1.0962  0.0885
  219MOL0     H28882  -2.100   7.324   8.544  1.3525 -1.6949  0.1436
  219MOL0     H28883  -2.099   7.239   8.379  2.3144 -0.3363  1.7454
  219MOL0     H28884  -2.276   7.466   8.486  0.4470  1.0784  0.2387
  219MOL0     H28885  -2.318   7.296   8.492  0.9195  0.4922  1.8081
  219MOL0     H28886  -2.251   7.409   8.211  1.7851 -2.5293  0.3421
  219MOL0     H28887  -2.340   7.264   8.265  0.6228 -0.4131  2.6941
  219MOL0     H28888  -2.463   7.452   8.166 -1.8623 -1.2625  0.1670
  219MOL0     H28889  -2.458   7.519   8.338 -6.0638 -1.0894  0.6577
  219MOL0     H28890  -1.458   7.375   8.705  0.4912  1.5350 -0.2389
  219MOL0     H28891  -1.235   7.438   8.748 -0.4055 -0.6301 -0.1845
  219MOL0     H28892  -0.924   7.701   8.580 -1.5753  0.0085  2.7608
  219MOL0     H28893  -0.705   7.833   8.612  3.4932 -1.6371 -1.0329
  219MOL0     H28894   1.443   7.662   8.253 -0.7070 -0.6145  0.3993
  219MOL0     H28895   1.640   7.796   8.133  0.7512  1.8592 -1.2223
  219MOL0     H28896   1.831   8.132   7.951 -3.4336  1.0418 -0.1691
  219MOL0     H28897   2.026   8.221   7.821 -0.0039  1.0179 -2.4734
  219MOL0     H28898   2.218   8.142   7.528 -0.6736 -0.7883  0.0088
  219MOL0     H28899   2.191   8.157   7.698  2.7650  0.2254 -1.1869
  219MOL0     H28900   2.218   8.404   7.677  0.1300  0.0550  0.0689
  219MOL0     H28901   2.356   8.305   7.615 -1.1855 -2.7442  1.8383
  219MOL0     H28902   2.308   8.508   7.477  1.4499 -1.7220  1.4685
  219MOL0     H28903   2.140   8.448   7.470 -0.6787 -0.6418 -0.7562
  219MOL0     H28904   2.196   8.285   7.297  2.2444 -0.3469 -0.6867
  219MOL0     H28905   2.292   8.426   7.262  0.5195  0.9376  0.4211
  219MOL0     H28906   2.599   8.170   7.361 -0.9694 -2.9551  0.0394
  219MOL0     H28907   1.839   8.125   7.462  1.6620 -0.0523  0.4518
  219MOL0     H28908   1.635   8.022   7.586 -1.8188 -0.7667  3.3182
  220MOL0     O28909   9.675   0.057   2.912  0.5952 -0.6472 -0.1213
  220MOL0     C28910   9.797   0.053   2.879  0.2676  0.0215 -0.7914
  220MOL0     O28911   9.840   0.030   2.751  0.2835 -0.5032 -0.3568
  220MOL0     C28912   9.745   0.006   2.653 -0.0308  0.5848  0.1749
  220MOL0     C28913   9.662  -0.109   2.658 -0.9370 -0.6872 -0.2572
  220MOL0     C28914   9.565  -0.135   2.554  0.6708  0.7479  0.1146
  220MOL0     C28915   9.551  -0.040   2.442 -0.0037  1.2306 -0.2634
  220MOL0     O28916   9.462  -0.041   2.340 -0.7177 -0.2143  0.3412
  220MOL0     C28917   9.338  -0.108   2.365 -0.2190  0.1277 -0.2458
  220MOL0     C28918   9.260  -0.120   2.231  1.0435 -0.4861  0.6742
  220MOL0     C28919   9.116  -0.151   2.243  0.4457  0.0328  0.1602
  220MOL0     C28920   9.060  -0.172   2.105 -0.4549  0.1344  0.5445
  220MOL0     C28921   8.924  -0.250   2.115 -0.7998 -0.1419  0.3258
  220MOL0     C28922   8.867  -0.266   1.976 -0.1848 -0.0594  1.3143
  220MOL0     C28923   8.723  -0.318   1.989 -0.1953  0.2661 -0.0017
  220MOL0     C28924   8.643  -0.278   1.863 -0.0468 -0.1582 -0.5563
  220MOL0     N28925   8.499  -0.288   1.896  0.1861  0.2497 -0.6996
  220MOL0     C28926   8.418  -0.396   1.871 -0.4412 -0.7255 -0.2138
  220MOL0     C28927   8.296  -0.369   1.926 -0.2325 -0.2760 -1.1716
  220MOL0     C28928   8.167  -0.463   1.930  0.0987 -1.1507 -0.3847
  220MOL0     C28929   8.041  -0.376   1.969  0.7840  0.1611  0.1994
  220MOL0     C28930   7.918  -0.473   1.975 -0.1161  0.8815  1.0049
  220MOL0     C28931   7.784  -0.401   1.998 -0.0311  0.2501 -0.0865
  220MOL0     O28932   7.702  -0.500   2.063  0.7715  0.5571 -0.1509
  220MOL0     C28933   7.562  -0.480   2.068  0.1400 -0.2752 -0.6896
  220MOL0     C28934   7.491  -0.382   1.997 -0.6105  0.4116 -0.2808
  220MOL0     C28935   7.354  -0.396   1.978  1.3435  0.8376  0.2797
  220MOL0     C28936   7.283  -0.503   2.041 -0.0003  0.2881  1.0238
  220MOL0     C28937   7.132  -0.507   2.035 -0.3569 -0.3162  0.3960
  220MOL0     O28938   7.076  -0.614   2.100 -0.3573  0.7024 -0.2246
  220MOL0     C28939   6.942  -0.641   2.100 -0.9367 -0.9660  0.0986
  220MOL0     C28940   6.833  -0.550   2.090 -0.2762  0.0122  0.1955
  220MOL0     C28941   6.705  -0.600   2.086  0.3370  0.6391 -0.3493
  220MOL0     C28942   6.682  -0.739   2.124 -0.6557  0.5819  0.3197
  220MOL0     O28943   6.553  -0.777   2.136  0.1022 -0.1868  0.4933
  220MOL0     C28944   6.523  -0.906   2.079 -0.5746 -0.0742 -0.4292
  220MOL0     C28945   6.386  -0.948   2.117  0.3899  0.3995 -0.8529
  220MOL0     C28946   6.269  -0.847   2.095 -0.2128  0.7852  0.3003
  220MOL0     C28947   6.127  -0.905   2.145 -0.7939 -0.0820 -0.2789
  220MOL0     C28948   6.070  -1.021   2.066  0.2231  0.3355 -1.0385
  220MOL0     C28949   6.045  -1.013   1.916  0.1243 -1.2962 -0.3148
  220MOL0     C28950   5.967  -1.132   1.871 -1.0050  0.2096  0.7843
  220MOL0     C28951   5.898  -1.110   1.741  0.1138 -0.0817  0.5468
  220MOL0    Cl28952   6.017  -1.091   1.613 -0.1704  0.4073  0.3749
  220MOL0     C28953   6.793  -0.820   2.150 -0.0935  0.1253  0.4891
  220MOL0     C28954   6.923  -0.773   2.127 -0.2821  0.0765  0.6801
  220MOL0     O28955   7.072  -0.410   1.981 -0.0330 -0.6831 -0.7759
  220MOL0     C28956   7.354  -0.599   2.116 -1.9287 -0.3294  0.1551
  220MOL0     C28957   7.491  -0.581   2.131  0.1062 -0.9709 -0.5483
  220MOL0     N28958   8.315  -0.241   1.977  0.6412 -0.1705 -0.3393
  220MOL0     N28959   8.425  -0.188   1.953 -0.2798  0.3254  1.1519
  220MOL0     C28960   9.637   0.071   2.442 -0.3431  0.6331  0.0399
  220MOL0     C28961   9.733   0.088   2.544  1.0632  0.6267  0.2415
  220MOL0     C28962   9.892   0.103   2.985 -0.5160 -0.0960  0.6812
  220MOL0     C28963   9.849   0.143   3.120 -1.2104  0.0585  0.4847
  220MOL0     C28964   9.943   0.232   3.189  0.6507 -0.0495 -0.1455
  220MOL0     C28965  10.068   0.264   3.139  0.1487 -0.6557 -0.0503
  220MOL0     O28966  10.155   0.347   3.209 -0.1859  0.6053 -0.1978
  220MOL0     C28967  10.186   0.317   3.345 -0.5835  0.5838  0.2643
  220MOL0     C28968  10.326   0.368   3.386 -0.0813  0.1537 -0.0145
  220MOL0     C28969  10.420   0.322   3.279  0.1431  0.2557  0.0503
  220MOL0     C28970  10.566   0.355   3.311  0.1470  1.2979 -0.1601
  220MOL0     C28971  10.590   0.496   3.310 -0.3648 -0.1582  0.3970
  220MOL0     C28972  10.610   0.617   3.289 -0.1685  0.0207 -1.1098
  220MOL0     C28973  10.108   0.217   3.013 -0.4231  0.4701 -0.3451
  220MOL0     C28974  10.019   0.145   2.938  0.4902  0.5532  0.0095
  220MOL0     H28975   9.673  -0.164   2.751 -1.2484  1.2122  0.9688
  220MOL0     H28976   9.508  -0.226   2.568  2.4050 -0.5927 -1.0626
  220MOL0     H28977   9.280  -0.044   2.433  0.1172 -0.5909  0.7389
  220MOL0     H28978   9.353  -0.206   2.412 -1.1170  0.4859  0.8518
  220MOL0     H28979   9.300  -0.200   2.169 -0.9458 -1.3189  0.3765
  220MOL0     H28980   9.269  -0.023   2.180 -2.0900 -0.2347  0.3954
  220MOL0     H28981   9.066  -0.065   2.288  2.2497  0.1690  2.0227
  220MOL0     H28982   9.115  -0.241   2.305  1.5198 -1.6490 -2.1050
  220MOL0     H28983   9.049  -0.073   2.060  0.4657  0.3736  0.8382
  220MOL0     H28984   9.126  -0.227   2.038 -0.7548  2.5566 -1.9029
  220MOL0     H28985   8.851  -0.195   2.175 -1.2556 -0.8143  0.4077
  220MOL0     H28986   8.934  -0.350   2.160 -0.9502  0.2259  1.1885
  220MOL0     H28987   8.929  -0.327   1.911 -0.7542  1.5674 -0.8657
  220MOL0     H28988   8.855  -0.166   1.932 -1.0911 -2.1716 -3.9037
  220MOL0     H28989   8.715  -0.426   2.000  1.7612  0.2550  1.9083
  220MOL0     H28990   8.672  -0.276   2.077 -2.3616  0.0532 -1.0829
  220MOL0     H28991   8.671  -0.335   1.774 -0.7326  1.7120 -2.0381
  220MOL0     H28992   8.671  -0.177   1.834 -2.3636  0.1980 -1.8328
  220MOL0     H28993   8.429  -0.493   1.823  1.3113 -2.7253  3.7370
  220MOL0     H28994   8.173  -0.539   2.008 -2.1225  0.5959  1.6225
  220MOL0     H28995   8.146  -0.509   1.833 -0.4514 -1.0513 -0.3162
  220MOL0     H28996   8.017  -0.294   1.900  1.2374 -0.7525 -1.0814
  220MOL0     H28997   8.058  -0.328   2.066 -0.8502 -2.0985  1.6966
  220MOL0     H28998   7.907  -0.541   1.890  0.0982 -1.1386  2.5175
  220MOL0     H28999   7.930  -0.535   2.064  0.6047  1.2338  1.1588
  220MOL0     H29000   7.739  -0.363   1.906 -1.9767  0.6681  0.9888
  220MOL0     H29001   7.787  -0.305   2.051  1.0532  2.1332 -3.2744
  220MOL0     H29002   7.546  -0.307   1.941 -0.2248 -1.0788 -1.9665
  220MOL0     H29003   7.312  -0.325   1.907  0.5795  0.2217  0.0988
  220MOL0     H29004   6.855  -0.445   2.103  0.8909 -0.3797  1.7348
  220MOL0     H29005   6.625  -0.529   2.073  1.0987  1.6509  0.3154
  220MOL0     H29006   6.592  -0.981   2.118 -0.2155  0.6352  0.3297
  220MOL0     H29007   6.543  -0.901   1.971 -4.0760 -0.4341 -1.2237
  220MOL0     H29008   6.396  -0.969   2.224 -0.3475 -1.5550 -1.1365
  220MOL0     H29009   6.365  -1.046   2.074 -0.7329  0.8597 -1.3982
  220MOL0     H29010   6.263  -0.821   1.989 -1.6782  2.9230  0.8320
  220MOL0     H29011   6.284  -0.755   2.152 -0.0771  0.1246  1.3616
  220MOL0     H29012   6.140  -0.936   2.249  1.4201  0.3256 -0.3803
  220MOL0     H29013   6.045  -0.833   2.148 -1.2060 -0.4843  3.9072
  220MOL0     H29014   5.969  -1.023   2.109  0.5097  0.1175 -0.3632
  220MOL0     H29015   6.120  -1.117   2.083 -0.9790 -0.3481 -1.2701
  220MOL0     H29016   6.137  -0.992   1.859  0.8460  2.1012  1.8137
  220MOL0     H29017   5.984  -0.924   1.899 -0.4971 -1.0774  2.6584
  220MOL0     H29018   6.034  -1.218   1.862 -0.0644  1.1434 -1.7037
  220MOL0     H29019   5.888  -1.145   1.947 -1.2395  0.4385  0.5830
  220MOL0     H29020   5.828  -1.026   1.744 -0.0464 -0.2162  0.5751
  220MOL0     H29021   5.833  -1.197   1.725  0.0050  0.0811  0.0830
  220MOL0     H29022   6.794  -0.925   2.175 -2.7411  0.3612  1.8716
  220MOL0     H29023   7.005  -0.841   2.147  0.2299  0.3826 -0.2871
  220MOL0     H29024   7.298  -0.681   2.160 -3.5239  0.9781  0.6394
  220MOL0     H29025   7.543  -0.653   2.193 -0.3378  0.4891  1.6360
  220MOL0     H29026   9.639   0.138   2.357  1.1408  0.7368  0.1345
  220MOL0     H29027   9.800   0.173   2.536  2.1716  0.0208  2.3533
  220MOL0     H29028   9.746   0.125   3.149 -2.0922 -0.1478 -2.4085
  220MOL0     H29029   9.922   0.283   3.282  1.1996 -2.5763  1.4550
  220MOL0     H29030  10.182   0.210   3.372  0.9975  1.0365  2.6530
  220MOL0     H29031  10.104   0.366   3.397 -1.4073  0.6528 -1.0547
  220MOL0     H29032  10.325   0.477   3.396  1.1991  0.0696  1.2845
  220MOL0     H29033  10.347   0.322   3.483 -0.7569 -0.3454 -0.0948
  220MOL0     H29034  10.394   0.372   3.185  0.1980  1.7308  0.7918
  220MOL0     H29035  10.404   0.215   3.266 -1.6303  0.1535  2.4663
  220MOL0     H29036  10.590   0.311   3.408  2.8974  3.3218  0.1924
  220MOL0     H29037  10.632   0.300   3.244 -1.8099  0.3555 -1.3896
  220MOL0     H29038  10.621   0.723   3.286 -1.5050  0.2224 -0.1626
  220MOL0     H29039  10.206   0.242   2.971  0.1436 -1.4314 -0.2472
  220MOL0     H29040  10.052   0.132   2.836 -1.5699  0.0356 -0.6499
  221MOL0     O29041   1.292   9.161   5.459 -0.1102 -0.1007 -0.0414
  221MOL0     C29042   1.375   9.253   5.478  0.0723 -0.2370  0.6378
  221MOL0     O29043   1.407   9.316   5.593  0.0824 -0.2608  0.5046
  221MOL0     C29044   1.326   9.275   5.695  0.2078 -0.4104  0.4200
  221MOL0     C29045   1.233   9.373   5.746  0.1414 -0.3137 -0.1125
  221MOL0     C29046   1.170   9.349   5.866  0.1652  0.7320 -0.2530
  221MOL0     C29047   1.177   9.227   5.938 -0.6064  0.3277  0.3041
  221MOL0     O29048   1.098   9.208   6.047  0.1541 -0.5409  1.0101
  221MOL0     C29049   1.156   9.109   6.133  0.7907  0.8225 -0.2577
  221MOL0     C29050   1.086   9.101   6.271  0.1113 -0.2207 -0.4076
  221MOL0     C29051   0.940   9.105   6.255 -0.0220 -0.3144 -0.5347
  221MOL0     C29052   0.854   9.068   6.379  1.3880 -0.5277 -0.2430
  221MOL0     C29053   0.708   9.114   6.350 -0.2283  0.7462  0.8236
  221MOL0     C29054   0.624   9.078   6.473  0.1747  0.2649  0.0469
  221MOL0     C29055   0.483   9.136   6.474 -0.0205  0.7551  0.3005
  221MOL0     C29056   0.420   9.090   6.612 -0.7117  0.0252  0.1958
  221MOL0     N29057   0.272   9.124   6.627  0.2448  0.1629  0.5926
  221MOL0     C29058   0.205   9.221   6.696 -0.0785  0.1740  0.1120
  221MOL0     C29059   0.073   9.188   6.674  0.1386 -0.0353  0.0182
  221MOL0     C29060  -0.041   9.278   6.734 -0.7022 -0.9886 -0.4173
  221MOL0     C29061  -0.157   9.188   6.780  0.1091 -0.2088 -0.8659
  221MOL0     C29062  -0.268   9.268   6.851  0.4631 -0.4650  0.0365
  221MOL0     C29063  -0.310   9.397   6.782 -0.1215  0.4134  0.9269
  221MOL0     O29064  -0.403   9.463   6.868 -0.1318  1.0407 -0.3261
  221MOL0     C29065  -0.532   9.425   6.843  0.1153  0.2118  0.6733
  221MOL0     C29066  -0.583   9.315   6.763 -0.4369 -0.0326 -0.0740
  221MOL0     C29067  -0.717   9.304   6.745 -0.2151 -0.8022  0.0053
  221MOL0     C29068  -0.813   9.395   6.801 -0.4691  0.0487 -0.9561
  221MOL0     C29069  -0.954   9.373   6.766 -0.0959 -0.1012  0.1395
  221MOL0     O29070  -0.989   9.250   6.730 -0.6603  0.0400  0.0805
  221MOL0     C29071  -1.119   9.218   6.700 -0.1415  0.1008  0.7480
  221MOL0     C29072  -1.236   9.256   6.764  0.4137 -0.2295  0.4556
  221MOL0     C29073  -1.363   9.209   6.716  0.3561 -0.5001  0.4132
  221MOL0     C29074  -1.373   9.133   6.595 -1.0134 -0.5689 -0.5755
  221MOL0     O29075  -1.492   9.089   6.567 -0.5216  0.1718  0.7852
  221MOL0     C29076  -1.507   9.021   6.448 -0.3642  0.3313  0.5784
  221MOL0     C29077  -1.653   9.017   6.406 -0.9435  0.2510 -0.3690
  221MOL0     C29078  -1.733   8.915   6.494 -0.1675  0.0841 -0.3443
  221MOL0     C29079  -1.883   8.898   6.447 -0.7486  0.2724  0.1605
  221MOL0     C29080  -1.872   8.827   6.312 -1.1729 -0.6915 -0.9025
  221MOL0     C29081  -2.015   8.779   6.255 -0.1338 -0.7510 -1.2610
  221MOL0     C29082  -1.999   8.696   6.134  0.4724  0.8332  0.1541
  221MOL0     C29083  -2.109   8.739   6.036 -0.0813 -0.5742 -0.2040
  221MOL0    Cl29084  -2.095   8.646   5.882 -0.0368 -0.2666  0.2809
  221MOL0     C29085  -1.252   9.084   6.538  0.0898 -0.3660  0.0649
  221MOL0     C29086  -1.134   9.127   6.595 -0.4432 -0.2173  0.7075
  221MOL0     O29087  -1.025   9.471   6.764 -0.5598  1.0833 -0.1074
  221MOL0     C29088  -0.762   9.502   6.877  0.3584  0.3477  0.2799
  221MOL0     C29089  -0.626   9.519   6.889 -0.1899  0.5632 -0.5769
  221MOL0     N29090   0.063   9.070   6.605  1.0733  0.0460 -0.5331
  221MOL0     N29091   0.178   9.044   6.564 -1.0758 -0.0488  0.1000
  221MOL0     C29092   1.261   9.128   5.875 -0.3888  0.5988  0.1104
  221MOL0     C29093   1.339   9.153   5.762  0.9316 -0.0571  0.1915
  221MOL0     C29094   1.444   9.300   5.354 -0.0004 -0.5548 -0.1009
  221MOL0     C29095   1.400   9.267   5.225 -0.0204 -0.1022 -1.0241
  221MOL0     C29096   1.470   9.324   5.113 -0.0458 -0.2779 -0.0330
  221MOL0     C29097   1.583   9.409   5.127  0.7802  0.3904 -0.5047
  221MOL0     O29098   1.643   9.467   5.018 -0.1582  0.8668 -0.3101
  221MOL0     C29099   1.755   9.411   4.957  0.2074 -0.4634 -0.2505
  221MOL0     C29100   1.828   9.510   4.869 -0.0013 -0.3272 -0.9808
  221MOL0     C29101   1.969   9.461   4.820 -0.6326 -0.6777 -0.6695
  221MOL0     C29102   2.044   9.581   4.753  0.1646 -0.2059  0.7770
  221MOL0     C29103   2.116   9.665   4.842 -0.1293 -0.1549  0.2163
  221MOL0     C29104   2.178   9.738   4.919  0.4965 -0.4931 -0.6326
  221MOL0     C29105   1.628   9.431   5.253  0.2634  0.2250  0.3607
  221MOL0     C29106   1.556   9.385   5.363 -0.3098  0.7599 -0.5162
  221MOL0     H29107   1.214   9.469   5.700 -1.0913 -1.1159 -1.3944
  221MOL0     H29108   1.118   9.436   5.904  0.3573 -0.0565  1.9534
  221MOL0     H29109   1.261   9.127   6.155 -0.1498  2.1545  4.0675
  221MOL0     H29110   1.133   9.017   6.078  1.1652  0.2082  0.5751
  221MOL0     H29111   1.126   9.188   6.324  2.5876 -0.0446 -2.3455
  221MOL0     H29112   1.111   9.009   6.323  1.6303  0.6165  0.4171
  221MOL0     H29113   0.910   9.030   6.181 -1.7209  0.1164 -0.3049
  221MOL0     H29114   0.910   9.204   6.220 -2.3423 -0.4734  0.8316
  221MOL0     H29115   0.867   8.964   6.409  2.1281 -0.4544 -0.2860
  221MOL0     H29116   0.894   9.129   6.461  1.5616  0.1544 -0.8318
  221MOL0     H29117   0.677   9.060   6.261 -0.9644  3.8510 -0.9576
  221MOL0     H29118   0.706   9.222   6.330 -1.9691  1.2311  3.1289
  221MOL0     H29119   0.671   9.119   6.563  0.4083 -0.9360  0.4823
  221MOL0     H29120   0.612   8.971   6.489 -0.3312  0.5025  1.4401
  221MOL0     H29121   0.494   9.243   6.457 -0.2424  0.5111 -1.6187
  221MOL0     H29122   0.424   9.092   6.394 -2.9859 -0.3119  2.8600
  221MOL0     H29123   0.492   9.122   6.689  0.0904  0.4592 -0.7218
  221MOL0     H29124   0.414   8.981   6.606 -0.9587  0.0373  0.2182
  221MOL0     H29125   0.235   9.305   6.757 -0.7651 -1.8866  3.5713
  221MOL0     H29126  -0.071   9.353   6.660 -0.2354  0.4176  0.7837
  221MOL0     H29127   0.005   9.322   6.823  1.9897 -1.8240 -1.2696
  221MOL0     H29128  -0.116   9.103   6.835  0.0830  0.1454 -0.2830
  221MOL0     H29129  -0.201   9.146   6.689  1.1828  0.8463 -1.9053
  221MOL0     H29130  -0.352   9.199   6.856  0.6093 -0.5874  0.8170
  221MOL0     H29131  -0.224   9.295   6.947  1.9253  3.5832 -1.5226
  221MOL0     H29132  -0.353   9.379   6.683 -0.5962  0.0556  1.1983
  221MOL0     H29133  -0.221   9.458   6.765 -0.3356  0.0294 -2.1052
  221MOL0     H29134  -0.515   9.243   6.720 -0.0692 -0.5516  1.3228
  221MOL0     H29135  -0.745   9.215   6.690  0.4623  0.0950 -1.8882
  221MOL0     H29136  -1.228   9.314   6.856  2.5364 -1.2609  0.9727
  221MOL0     H29137  -1.449   9.244   6.771 -0.2199  0.3241 -0.9446
  221MOL0     H29138  -1.464   8.922   6.463  2.3941  1.3326 -0.1491
  221MOL0     H29139  -1.450   9.061   6.364 -0.4895  1.3505  0.9693
  221MOL0     H29140  -1.658   8.982   6.302 -1.6197 -0.9606  0.0367
  221MOL0     H29141  -1.689   9.120   6.401  0.2550  0.6260 -3.0532
  221MOL0     H29142  -1.735   8.947   6.599  1.5808 -0.0570 -0.2513
  221MOL0     H29143  -1.688   8.816   6.488 -1.3252 -0.4220 -0.9639
  221MOL0     H29144  -1.925   8.824   6.515 -2.5561 -2.1013 -3.2767
  221MOL0     H29145  -1.941   8.991   6.454 -0.6552  0.3277  0.2168
  221MOL0     H29146  -1.817   8.734   6.326 -1.0030 -0.9455 -2.9114
  221MOL0     H29147  -1.825   8.891   6.235 -2.7798 -1.8361 -2.9333
  221MOL0     H29148  -2.079   8.866   6.242 -0.8395 -0.9911  0.3406
  221MOL0     H29149  -2.067   8.718   6.329  0.1292  0.0173 -0.4255
  221MOL0     H29150  -1.899   8.695   6.089  0.5850 -1.5981  0.3508
  221MOL0     H29151  -2.023   8.591   6.148 -1.3009  1.0689 -0.7925
  221MOL0     H29152  -2.086   8.845   6.019  1.9557 -0.8568  0.4431
  221MOL0     H29153  -2.205   8.730   6.088 -0.7733  1.0416 -1.1224
  221MOL0     H29154  -1.263   9.006   6.464 -0.7661 -1.2536  1.1007
  221MOL0     H29155  -1.049   9.075   6.552 -0.4583 -0.7712  1.3333
  221MOL0     H29156  -0.831   9.576   6.915 -0.2486 -0.5528  0.9902
  221MOL0     H29157  -0.589   9.607   6.940 -2.5178  0.9966  0.4618
  221MOL0     H29158   1.274   9.026   5.911 -3.0713  0.7175  1.6978
  221MOL0     H29159   1.404   9.078   5.720  2.6364  0.7524  1.2874
  221MOL0     H29160   1.309   9.214   5.197  0.2567  0.1276 -2.4440
  221MOL0     H29161   1.438   9.311   5.011 -2.5262  4.2064 -0.0449
  221MOL0     H29162   1.728   9.326   4.893 -0.4598  0.3563 -1.0922
  221MOL0     H29163   1.826   9.384   5.035 -0.5358  2.6355  1.6721
  221MOL0     H29164   1.768   9.547   4.786 -2.1993  0.5466  0.8933
  221MOL0     H29165   1.844   9.594   4.938 -1.7005 -0.0774 -0.8519
  221MOL0     H29166   1.951   9.383   4.746 -2.6055 -0.9953  0.0963
  221MOL0     H29167   2.035   9.430   4.902 -1.3843  1.7776  0.9776
  221MOL0     H29168   2.109   9.546   4.672  0.8831  0.1745  1.1767
  221MOL0     H29169   1.964   9.645   4.714  1.1457  2.6056  3.0655
  221MOL0     H29170   2.234   9.809   4.977  0.0622  0.1732 -1.0150
  221MOL0     H29171   1.720   9.487   5.265  0.4431 -0.0745  0.3637
  221MOL0     H29172   1.584   9.402   5.467 -1.3677  0.2155 -0.1154
  222MOL0     O29173   8.941   3.295   4.747 -0.2309  0.4553 -0.0676
  222MOL0     C29174   8.964   3.416   4.752 -0.7590  0.4393  0.0154
  222MOL0     O29175   8.889   3.509   4.695 -0.1313  0.5755  0.2672
  222MOL0     C29176   8.769   3.466   4.644 -0.1879  0.0160  0.5439
  222MOL0     C29177   8.773   3.409   4.513  0.5583  0.0066 -0.1998
  222MOL0     C29178   8.648   3.380   4.455  0.1420 -0.2345 -0.5419
  222MOL0     C29179   8.527   3.368   4.528  0.6980  0.0372  0.3989
  222MOL0     O29180   8.418   3.320   4.461 -0.2863 -0.0165  0.0776
  222MOL0     C29181   8.330   3.240   4.535  1.0838  0.0565 -0.8113
  222MOL0     C29182   8.182   3.285   4.504 -0.3930  0.5851  0.0788
  222MOL0     C29183   8.126   3.248   4.370 -0.2410 -0.0187  1.0834
  222MOL0     C29184   7.977   3.288   4.347 -0.2836  0.2162  0.6713
  222MOL0     C29185   7.932   3.293   4.201  0.4412  0.7191 -0.2465
  222MOL0     C29186   7.953   3.163   4.128 -0.5834  0.6117  1.0329
  222MOL0     C29187   7.892   3.148   3.982 -0.2654  0.9737  0.4225
  222MOL0     C29188   7.944   3.012   3.931 -0.1129 -0.1369  0.5486
  222MOL0     N29189   7.854   2.974   3.818 -0.1771  0.0002 -0.4158
  222MOL0     C29190   7.881   2.977   3.685 -0.6368 -0.4127  0.0821
  222MOL0     C29191   7.768   2.927   3.631  1.2708  0.2048  0.4004
  222MOL0     C29192   7.746   2.915   3.484  0.0987  0.2254 -0.0874
  222MOL0     C29193   7.625   3.006   3.446 -0.0511  0.5241  0.0472
  222MOL0     C29194   7.628   3.157   3.481 -0.9357 -0.5521 -0.4816
  222MOL0     C29195   7.562   3.184   3.616 -0.5118 -0.1091 -0.4123
  222MOL0     O29196   7.530   3.320   3.641  0.3411 -0.1634 -0.5651
  222MOL0     C29197   7.630   3.402   3.691  0.5377  0.2776  0.8037
  222MOL0     C29198   7.766   3.363   3.712 -0.7088 -0.0736  0.7050
  222MOL0     C29199   7.851   3.468   3.755  0.0293  0.1303  1.0365
  222MOL0     C29200   7.815   3.592   3.778 -0.2695 -0.2725 -0.7834
  222MOL0     C29201   7.920   3.692   3.797 -0.9024 -0.3028 -0.4865
  222MOL0     O29202   8.050   3.659   3.763  0.4770 -0.0801  0.2744
  222MOL0     C29203   8.149   3.756   3.777  0.0144  0.3367  0.6386
  222MOL0     C29204   8.235   3.778   3.670 -0.0579 -0.2540 -0.5320
  222MOL0     C29205   8.341   3.871   3.683  0.0384 -0.5417  0.0401
  222MOL0     C29206   8.363   3.939   3.804  0.7258  0.2567  0.2778
  222MOL0     O29207   8.469   4.025   3.814 -0.2779 -0.1785  0.3469
  222MOL0     C29208   8.531   4.060   3.940  0.2416 -0.2318 -0.1610
  222MOL0     C29209   8.660   4.139   3.897 -0.3727  0.6961  0.5451
  222MOL0     C29210   8.627   4.262   3.817 -0.3452 -0.2658 -0.3096
  222MOL0     C29211   8.739   4.365   3.821 -0.2665  0.2740  0.1942
  222MOL0     C29212   8.739   4.451   3.949  0.0356 -0.0756 -0.3176
  222MOL0     C29213   8.878   4.528   3.960  0.6996 -0.1235 -0.5318
  222MOL0     C29214   8.989   4.434   4.007  0.0910  0.7184 -0.1992
  222MOL0     C29215   9.119   4.500   4.031 -0.3616  0.5517 -0.8176
  222MOL0    Cl29216   9.103   4.643   4.141 -0.3244 -0.3091 -0.0444
  222MOL0     C29217   8.281   3.910   3.917 -0.3597  0.5320  0.5092
  222MOL0     C29218   8.165   3.819   3.906 -0.2977 -0.1010  0.6314
  222MOL0     O29219   7.885   3.801   3.847 -0.0652 -0.6150  0.2905
  222MOL0     C29220   7.675   3.630   3.750 -0.1405 -0.4404 -0.0025
  222MOL0     C29221   7.585   3.529   3.712 -0.0688 -0.4975 -0.2118
  222MOL0     N29222   7.675   2.899   3.727  0.3806 -0.5445 -0.3895
  222MOL0     N29223   7.730   2.921   3.840 -0.0970 -0.4048  0.6157
  222MOL0     C29224   8.531   3.421   4.658 -0.3910  0.3040 -0.0597
  222MOL0     C29225   8.652   3.472   4.718  0.0172  0.5289  0.1245
  222MOL0     C29226   9.086   3.459   4.824 -0.5589 -1.1111  0.7305
  222MOL0     C29227   9.108   3.597   4.846  0.5883 -0.5384  0.1695
  222MOL0     C29228   9.216   3.652   4.901  0.3433  0.8102  0.4278
  222MOL0     C29229   9.321   3.569   4.944  0.3153 -0.1856  0.4364
  222MOL0     O29230   9.430   3.627   5.000 -0.0799 -0.5972 -0.5090
  222MOL0     C29231   9.531   3.551   5.069 -0.2311  0.6962  0.2213
  222MOL0     C29232   9.627   3.491   4.969 -0.3760 -0.1178 -0.2087
  222MOL0     C29233   9.702   3.606   4.893 -0.7516  0.7539 -0.3069
  222MOL0     C29234   9.621   3.658   4.776  0.7014  0.1582 -0.1723
  222MOL0     C29235   9.701   3.766   4.714 -0.0192  0.1815  0.1643
  222MOL0     C29236   9.769   3.847   4.654  0.1847  0.5764 -0.7363
  222MOL0     C29237   9.305   3.429   4.921 -0.2584  0.2570 -0.3007
  222MOL0     C29238   9.193   3.376   4.855 -0.0621 -0.6256  0.4738
  222MOL0     H29239   8.865   3.403   4.456 -0.6493  1.6535 -2.4736
  222MOL0     H29240   8.648   3.352   4.350  1.3016  0.0497 -0.6349
  222MOL0     H29241   8.347   3.239   4.643 -0.7934 -0.1000 -0.4825
  222MOL0     H29242   8.354   3.139   4.501  2.0094 -0.1614  0.4209
  222MOL0     H29243   8.177   3.395   4.508 -0.1349  0.5716  0.9181
  222MOL0     H29244   8.109   3.250   4.577 -1.7591  0.3450 -1.3511
  222MOL0     H29245   8.131   3.140   4.358  1.5952  0.2784 -1.5669
  222MOL0     H29246   8.192   3.291   4.294  0.9373 -1.5780  1.1794
  222MOL0     H29247   7.914   3.220   4.405  1.6303 -0.1477  2.4383
  222MOL0     H29248   7.962   3.387   4.391 -0.0486  1.4158 -1.8215
  222MOL0     H29249   7.987   3.375   4.153  1.0077  3.4903  4.4606
  222MOL0     H29250   7.824   3.312   4.194 -0.1922 -1.4776  2.1110
  222MOL0     H29251   7.925   3.080   4.194 -0.6953  0.5470  0.9049
  222MOL0     H29252   8.059   3.157   4.101 -1.2696  2.2489 -2.7876
  222MOL0     H29253   7.783   3.134   3.987  0.0049 -2.3812 -0.7008
  222MOL0     H29254   7.920   3.235   3.922  2.1099 -0.3036 -0.4545
  222MOL0     H29255   7.934   2.938   4.011 -0.0112  0.1910  0.8681
  222MOL0     H29256   8.047   3.010   3.895  0.8004  2.1293  2.7744
  222MOL0     H29257   7.978   2.999   3.641  0.0329  3.4070  3.0313
  222MOL0     H29258   7.723   2.810   3.463 -1.3538  0.7698 -1.4162
  222MOL0     H29259   7.836   2.937   3.426 -1.1675  3.4537 -1.0707
  222MOL0     H29260   7.528   2.968   3.481 -1.5889  2.2577 -2.0490
  222MOL0     H29261   7.616   3.018   3.338  0.0124 -1.2946 -0.1823
  222MOL0     H29262   7.734   3.185   3.482 -0.9848  0.1116 -3.4031
  222MOL0     H29263   7.580   3.217   3.403 -2.2579 -0.5316  0.3249
  222MOL0     H29264   7.611   3.136   3.701 -2.3737  1.4882  1.6878
  222MOL0     H29265   7.464   3.136   3.607 -0.9861  1.1592 -2.8235
  222MOL0     H29266   7.813   3.266   3.702 -1.0768 -0.3820  1.8975
  222MOL0     H29267   7.955   3.440   3.774  0.5204  1.7601  0.8727
  222MOL0     H29268   8.213   3.723   3.580  1.1997  1.0178 -1.6783
  222MOL0     H29269   8.397   3.892   3.592 -0.5700 -2.0896 -0.7373
  222MOL0     H29270   8.553   3.966   3.992 -1.9268 -0.2128  0.8854
  222MOL0     H29271   8.469   4.119   4.007 -0.7606 -0.2368 -1.0611
  222MOL0     H29272   8.724   4.087   3.825 -2.8023  0.6384 -1.7141
  222MOL0     H29273   8.717   4.166   3.986 -0.5677 -1.3394  1.3504
  222MOL0     H29274   8.542   4.314   3.863  0.8255  0.2441  1.3749
  222MOL0     H29275   8.606   4.234   3.714  0.9423 -0.6674 -0.4797
  222MOL0     H29276   8.832   4.310   3.802  0.4110  1.6138 -0.5279
  222MOL0     H29277   8.721   4.436   3.740 -2.5979  2.6678  2.6143
  222MOL0     H29278   8.726   4.387   4.036  0.3592 -0.6987 -0.7240
  222MOL0     H29279   8.656   4.521   3.936  0.6269  0.9203  0.9451
  222MOL0     H29280   8.868   4.614   4.026  0.6315 -1.2056  0.9163
  222MOL0     H29281   8.902   4.560   3.858 -1.5543 -1.7260 -1.6517
  222MOL0     H29282   8.958   4.392   4.103 -0.3617  1.7445  0.1115
  222MOL0     H29283   9.006   4.351   3.938  1.4664  0.5979  0.2577
  222MOL0     H29284   9.156   4.534   3.933 -2.8438  2.4007 -1.1861
  222MOL0     H29285   9.190   4.435   4.084 -0.4676 -1.0899 -2.5555
  222MOL0     H29286   8.290   3.965   4.010  0.6037 -1.1661  1.4711
  222MOL0     H29287   8.097   3.819   3.991 -1.5226 -0.6822 -0.3060
  222MOL0     H29288   7.637   3.732   3.749  0.6688 -0.1353 -0.1606
  222MOL0     H29289   7.480   3.554   3.702 -0.5070 -2.8729 -2.5431
  222MOL0     H29290   8.448   3.431   4.728  0.1958  2.2012  0.4194
  222MOL0     H29291   8.655   3.534   4.807 -0.0080  0.3130  0.2736
  222MOL0     H29292   9.029   3.666   4.816  1.3848  0.6030  0.5980
  222MOL0     H29293   9.207   3.754   4.935 -3.3801  0.5778  0.5626
  222MOL0     H29294   9.495   3.464   5.125  0.4501  1.0970  1.3019
  222MOL0     H29295   9.581   3.624   5.133  0.7265  0.7720 -0.5783
  222MOL0     H29296   9.705   3.446   5.031 -0.6874  0.1303  0.3764
  222MOL0     H29297   9.582   3.424   4.895 -2.9931 -0.5555  1.6348
  222MOL0     H29298   9.792   3.567   4.846 -0.5704 -2.0267  2.0470
  222MOL0     H29299   9.729   3.686   4.962  2.3446  1.1831 -1.8440
  222MOL0     H29300   9.615   3.574   4.706  0.5753  2.2687 -2.8802
  222MOL0     H29301   9.520   3.699   4.790 -0.0876 -1.7479 -0.0749
  222MOL0     H29302   9.831   3.912   4.595  0.8619  0.4810 -0.1405
  222MOL0     H29303   9.381   3.357   4.950 -1.7448 -1.0843  0.3512
  222MOL0     H29304   9.201   3.272   4.826 -0.4922 -0.6088  0.2957
  223MOL0     O29305   4.293   7.366   7.514 -0.2038 -0.4069  0.0300
  223MOL0     C29306   4.352   7.306   7.608  0.2350 -1.2474  1.1349
  223MOL0     O29307   4.302   7.268   7.723 -0.1452  0.4684 -0.7267
  223MOL0     C29308   4.174   7.298   7.768  0.5518  0.1510  0.8890
  223MOL0     C29309   4.156   7.350   7.897 -0.2366 -0.1164 -0.8387
  223MOL0     C29310   4.023   7.362   7.941  0.3835 -0.3035  1.0742
  223MOL0     C29311   3.913   7.349   7.856  0.6476  0.4349 -0.1575
  223MOL0     O29312   3.786   7.374   7.891 -0.2631  0.1321  0.0892
  223MOL0     C29313   3.741   7.428   8.018  0.3482  0.4236 -0.3658
  223MOL0     C29314   3.582   7.428   8.030 -0.8001 -0.2362  0.3779
  223MOL0     C29315   3.524   7.524   7.924  0.5272 -0.2936 -0.2009
  223MOL0     C29316   3.367   7.514   7.929 -0.0189  0.3739 -0.7985
  223MOL0     C29317   3.302   7.634   7.845 -0.9207  0.7368 -0.4479
  223MOL0     C29318   3.144   7.639   7.863 -0.1125 -0.0526  1.2716
  223MOL0     C29319   3.100   7.775   7.809  0.0318  0.1119  0.1300
  223MOL0     C29320   2.962   7.771   7.753 -0.0723  0.3298  0.2035
  223MOL0     N29321   2.854   7.765   7.857  0.2969 -0.0391  0.3403
  223MOL0     C29322   2.826   7.661   7.938 -0.3543 -0.1295  0.7645
  223MOL0     C29323   2.736   7.704   8.030 -0.1744 -0.3317 -0.8830
  223MOL0     C29324   2.661   7.616   8.124  0.8978  0.0736 -0.1792
  223MOL0     C29325   2.759   7.538   8.215 -0.4302  0.3482  0.2808
  223MOL0     C29326   2.699   7.428   8.296  0.1965 -0.1930  0.0978
  223MOL0     C29327   2.618   7.482   8.407 -0.1316  0.9655  0.7859
  223MOL0     O29328   2.549   7.385   8.486 -0.0983  0.2177  0.5547
  223MOL0     C29329   2.419   7.411   8.531 -0.0963 -0.0749  0.4391
  223MOL0     C29330   2.371   7.539   8.557 -0.2944 -0.7688  0.3338
  223MOL0     C29331   2.236   7.557   8.604  0.2017  0.8581 -0.1476
  223MOL0     C29332   2.163   7.447   8.646  0.3138  0.6429  0.0444
  223MOL0     C29333   2.025   7.449   8.686 -0.3380 -0.0307 -0.0819
  223MOL0     O29334   1.975   7.333   8.747  0.1040  0.1208 -0.7841
  223MOL0     C29335   1.844   7.313   8.797  0.6976 -0.1277 -0.0121
  223MOL0     C29336   1.817   7.193   8.861  0.3885 -0.2462  0.5983
  223MOL0     C29337   1.697   7.156   8.918 -0.5010  0.3413 -0.3862
  223MOL0     C29338   1.596   7.255   8.928 -0.1566  0.0820  0.2048
  223MOL0     O29339   1.475   7.238   9.001  0.1158  0.4457  0.8371
  223MOL0     C29340   1.470   7.127   9.094  1.0647 -0.2070 -0.9933
  223MOL0     C29341   1.341   7.145   9.174  0.2312  0.4550 -0.4023
  223MOL0     C29342   1.221   7.173   9.076 -0.1433  0.0242  0.4136
  223MOL0     C29343   1.103   7.185   9.170  0.0756 -0.9055 -0.5077
  223MOL0     C29344   0.971   7.246   9.100 -0.0160  0.0132 -0.9274
  223MOL0     C29345   0.853   7.214   9.188  0.2907  0.2107 -0.4273
  223MOL0     C29346   0.713   7.244   9.128  0.1212 -1.0692 -0.4006
  223MOL0     C29347   0.605   7.170   9.207 -0.2945  0.8555 -0.1944
  223MOL0    Cl29348   0.579   6.998   9.152 -0.0382 -0.1926 -0.4484
  223MOL0     C29349   1.617   7.377   8.859 -0.2999  0.3002  0.8828
  223MOL0     C29350   1.736   7.406   8.787 -0.5093  0.3409  0.2414
  223MOL0     O29351   1.967   7.556   8.672 -0.4902 -0.4199 -0.7211
  223MOL0     C29352   2.221   7.319   8.632  0.0269 -0.3674  0.1306
  223MOL0     C29353   2.340   7.298   8.563 -0.2749 -0.2710 -0.1568
  223MOL0     N29354   2.712   7.839   8.002 -0.1342 -0.2116 -0.4604
  223MOL0     N29355   2.784   7.875   7.897 -0.5659 -0.0530 -0.6314
  223MOL0     C29356   3.923   7.290   7.731 -0.4751 -0.6950 -0.5424
  223MOL0     C29357   4.059   7.275   7.682 -0.3358 -0.1568  0.7352
  223MOL0     C29358   4.486   7.264   7.582  0.6190 -0.5988  0.3514
  223MOL0     C29359   4.568   7.321   7.481 -0.5719 -0.3541 -0.0674
  223MOL0     C29360   4.699   7.277   7.469  0.4618 -0.1126 -0.2633
  223MOL0     C29361   4.744   7.171   7.539  0.3724  0.1515  0.2854
  223MOL0     O29362   4.873   7.126   7.535  0.1624  0.3215 -0.2297
  223MOL0     C29363   4.957   7.183   7.638 -0.7479  0.1953 -0.0997
  223MOL0     C29364   4.995   7.321   7.596 -0.4877 -0.2129  0.2844
  223MOL0     C29365   5.105   7.374   7.671 -0.2043  0.3524 -0.8600
  223MOL0     C29366   5.105   7.357   7.826 -0.7298 -0.2176 -0.5114
  223MOL0     C29367   5.227   7.413   7.886  0.7069 -0.3922  0.9429
  223MOL0     C29368   5.324   7.449   7.949 -0.6476 -0.7444  0.1145
  223MOL0     C29369   4.657   7.110   7.637  0.6704 -0.2944  0.4520
  223MOL0     C29370   4.529   7.150   7.652  0.2152 -0.0767 -0.1299
  223MOL0     H29371   4.234   7.360   7.971 -0.4280  1.3284 -0.8152
  223MOL0     H29372   4.001   7.402   8.039  4.3656 -0.0180  2.0120
  223MOL0     H29373   3.785   7.527   8.022  1.3151  0.0522 -1.2788
  223MOL0     H29374   3.783   7.363   8.095  1.0703  2.1665  0.7675
  223MOL0     H29375   3.551   7.450   8.133  1.0759 -0.9966  1.1514
  223MOL0     H29376   3.560   7.324   8.005  0.3613 -0.0750 -1.5425
  223MOL0     H29377   3.561   7.514   7.821 -0.4273 -2.6282 -0.3763
  223MOL0     H29378   3.538   7.630   7.950 -1.0702  0.0941 -0.8016
  223MOL0     H29379   3.337   7.417   7.888  2.9717 -0.8419 -0.4081
  223MOL0     H29380   3.330   7.509   8.031  0.0840  0.7220 -0.7438
  223MOL0     H29381   3.316   7.620   7.738 -1.4520  0.7347 -0.5223
  223MOL0     H29382   3.351   7.727   7.877  1.8849  0.0700 -2.4724
  223MOL0     H29383   3.113   7.612   7.964  1.1727 -4.7199  0.6638
  223MOL0     H29384   3.099   7.561   7.801  1.7315  0.3660 -0.7223
  223MOL0     H29385   3.108   7.852   7.887 -0.0388  0.4556 -0.2001
  223MOL0     H29386   3.171   7.797   7.729 -0.2992 -1.4421 -0.6160
  223MOL0     H29387   2.946   7.685   7.687 -1.6960 -0.8933  2.0705
  223MOL0     H29388   2.947   7.868   7.705  1.3510  0.3861 -0.1775
  223MOL0     H29389   2.873   7.565   7.921  1.1831  0.8847 -1.1779
  223MOL0     H29390   2.600   7.543   8.070  0.8571  0.0054 -0.0400
  223MOL0     H29391   2.595   7.679   8.184 -0.8182 -0.9274 -0.9328
  223MOL0     H29392   2.823   7.608   8.270  2.6062 -1.9307 -0.0594
  223MOL0     H29393   2.823   7.488   8.141 -1.2134  2.4374 -1.9576
  223MOL0     H29394   2.632   7.360   8.242  0.3190 -1.5050  1.5196
  223MOL0     H29395   2.781   7.367   8.336  1.2905  0.8988 -0.4584
  223MOL0     H29396   2.555   7.563   8.367 -1.5958 -0.5180 -0.0350
  223MOL0     H29397   2.695   7.534   8.465 -0.5908  1.4847  0.9450
  223MOL0     H29398   2.429   7.628   8.535  1.2063 -2.2935 -2.4429
  223MOL0     H29399   2.184   7.651   8.618  0.5476  1.5266 -2.7901
  223MOL0     H29400   1.897   7.121   8.853  1.3607  0.7929  0.7771
  223MOL0     H29401   1.679   7.061   8.966  1.2363 -0.1150 -0.5569
  223MOL0     H29402   1.559   7.128   9.157  1.4195 -3.8739 -1.2256
  223MOL0     H29403   1.468   7.030   9.044  0.2876 -0.3254 -0.7467
  223MOL0     H29404   1.356   7.223   9.250 -2.0013 -1.2961  2.0007
  223MOL0     H29405   1.321   7.048   9.219  1.5123 -0.6502 -2.1061
  223MOL0     H29406   1.205   7.101   8.995  0.2400  2.5023 -2.0464
  223MOL0     H29407   1.233   7.270   9.026 -0.2357 -0.7731 -1.2330
  223MOL0     H29408   1.074   7.084   9.202  1.1816 -0.8609  0.7215
  223MOL0     H29409   1.140   7.230   9.263  1.0687 -3.6590  0.5763
  223MOL0     H29410   0.952   7.198   9.004  4.7565 -1.1473 -1.5533
  223MOL0     H29411   0.982   7.353   9.076 -1.4563  0.6920  1.0970
  223MOL0     H29412   0.856   7.278   9.276  0.0206  1.1691 -1.0966
  223MOL0     H29413   0.867   7.110   9.216  0.7614 -0.1121 -1.7692
  223MOL0     H29414   0.692   7.350   9.117  0.2501 -0.9993  0.0256
  223MOL0     H29415   0.701   7.202   9.027  0.4171 -2.1570 -0.0033
  223MOL0     H29416   0.508   7.219   9.208 -0.1552  1.2387 -1.7798
  223MOL0     H29417   0.632   7.164   9.313  2.5803  0.4041 -0.8667
  223MOL0     H29418   1.538   7.452   8.867 -0.1394  0.5404  0.2914
  223MOL0     H29419   1.749   7.494   8.724  1.4773  0.2281  0.4194
  223MOL0     H29420   2.168   7.232   8.667 -0.8787  0.4316  0.8090
  223MOL0     H29421   2.362   7.194   8.544 -2.7328 -1.0212  0.7565
  223MOL0     H29422   3.828   7.265   7.685 -1.5456  1.6353  0.2493
  223MOL0     H29423   4.091   7.239   7.585  0.2212  0.4530  0.6913
  223MOL0     H29424   4.546   7.402   7.412  1.6992  0.4164  0.0227
  223MOL0     H29425   4.767   7.320   7.396 -1.8689 -0.5579 -2.8799
  223MOL0     H29426   5.045   7.119   7.646 -0.3922  0.7015  0.0663
  223MOL0     H29427   4.906   7.181   7.735 -0.4175 -0.2617  0.0696
  223MOL0     H29428   5.036   7.315   7.495  1.9134  1.8600  1.0151
  223MOL0     H29429   4.908   7.387   7.605 -0.6822 -0.1342 -1.7580
  223MOL0     H29430   5.120   7.476   7.635  3.2913 -0.0350 -0.8318
  223MOL0     H29431   5.194   7.324   7.632 -0.6884 -0.1533 -1.3268
  223MOL0     H29432   5.028   7.427   7.861 -1.0533 -0.3410 -0.9775
  223MOL0     H29433   5.089   7.258   7.869 -0.7491  0.5017  1.2323
  223MOL0     H29434   5.400   7.490   8.011  0.2763 -1.3531 -0.5948
  223MOL0     H29435   4.692   7.035   7.706  0.9523 -1.4438 -0.8946
  223MOL0     H29436   4.471   7.094   7.724  1.0599  0.6076  1.1144
  224MOL0     O29437   0.203   5.248   0.498  0.5402  0.4978 -0.2388
  224MOL0     C29438   0.129   5.153   0.526 -0.0606  0.0891 -0.1581
  224MOL0     O29439   0.123   5.030   0.466 -0.7015 -0.4500 -0.2992
  224MOL0     C29440   0.218   4.992   0.372 -0.0741 -0.0632  0.5183
  224MOL0     C29441   0.201   5.006   0.232  0.9211  0.7278 -0.0350
  224MOL0     C29442   0.300   4.962   0.138  0.0433 -0.5830 -1.1317
  224MOL0     C29443   0.421   4.910   0.193  0.0567  0.0728 -0.1700
  224MOL0     O29444   0.518   4.866   0.116 -0.1427 -0.0311 -0.0245
  224MOL0     C29445   0.503   4.857  -0.024 -0.1622 -0.3229 -0.3350
  224MOL0     C29446   0.616   4.789  -0.089  0.2101  0.3412  0.6820
  224MOL0     C29447   0.741   4.881  -0.108  0.0120 -0.4978 -0.4897
  224MOL0     C29448   0.845   4.813  -0.196  0.3876 -0.3456  0.0255
  224MOL0     C29449   0.964   4.905  -0.221 -0.0422 -0.6838 -0.4454
  224MOL0     C29450   1.048   4.861  -0.345 -0.3513 -0.1836 -0.6863
  224MOL0     C29451   1.155   4.967  -0.354  0.6470  0.0415 -0.2527
  224MOL0     C29452   1.255   4.937  -0.460  0.6553  0.0605 -0.5597
  224MOL0     N29453   1.350   5.051  -0.472  0.1644 -0.3684 -0.6553
  224MOL0     C29454   1.469   5.080  -0.406 -0.3426  0.1570 -0.4038
  224MOL0     C29455   1.517   5.198  -0.448 -0.9859 -0.2334  1.1565
  224MOL0     C29456   1.658   5.248  -0.416 -0.3972 -0.6640 -0.0469
  224MOL0     C29457   1.673   5.386  -0.482  0.5579 -0.3535  0.0406
  224MOL0     C29458   1.808   5.457  -0.443 -0.1413  0.0604  0.0495
  224MOL0     C29459   1.830   5.573  -0.537  0.3524  1.1275  0.6932
  224MOL0     O29460   1.863   5.526  -0.672  0.0887  0.2333 -0.1458
  224MOL0     C29461   2.003   5.531  -0.708 -0.2436  0.1282  0.2760
  224MOL0     C29462   2.037   5.574  -0.833 -0.3014 -0.2363  0.0143
  224MOL0     C29463   2.170   5.586  -0.867  0.1900 -0.0185 -0.6516
  224MOL0     C29464   2.276   5.567  -0.776 -0.1060  0.3245  0.0239
  224MOL0     C29465   2.416   5.602  -0.802 -0.6764  1.0842 -0.5731
  224MOL0     O29466   2.516   5.589  -0.710 -0.2903  0.1764  0.5797
  224MOL0     C29467   2.638   5.629  -0.747 -0.5497 -0.2603 -0.1305
  224MOL0     C29468   2.744   5.542  -0.775 -0.6460  0.2505 -0.4071
  224MOL0     C29469   2.875   5.592  -0.819 -0.2685 -0.0973 -0.7357
  224MOL0     C29470   2.899   5.732  -0.814 -0.4990 -0.1084  0.7831
  224MOL0     O29471   3.011   5.787  -0.859 -0.3797 -0.8877 -0.4097
  224MOL0     C29472   3.123   5.704  -0.891 -0.7020  0.0417 -0.4782
  224MOL0     C29473   3.250   5.790  -0.920  0.2293  0.1473  0.5818
  224MOL0     C29474   3.241   5.856  -1.058 -0.4493 -0.2144  0.4613
  224MOL0     C29475   3.365   5.948  -1.092  0.2408  0.1935 -0.3191
  224MOL0     C29476   3.387   5.968  -1.244 -0.0400 -0.4372 -0.7218
  224MOL0     C29477   3.503   6.070  -1.264 -0.2797  0.0859  0.0654
  224MOL0     C29478   3.521   6.101  -1.415 -0.4808 -1.2634  0.1607
  224MOL0     C29479   3.662   6.156  -1.442 -0.1872 -0.1108 -0.6141
  224MOL0    Cl29480   3.702   6.131  -1.615  0.1005  0.2073  0.0323
  224MOL0     C29481   2.791   5.820  -0.770 -0.1989 -0.3608 -1.3160
  224MOL0     C29482   2.671   5.770  -0.726 -0.1712  0.9176 -0.0169
  224MOL0     O29483   2.433   5.642  -0.919 -0.1821 -0.1485 -1.0190
  224MOL0     C29484   2.247   5.516  -0.646  0.5034 -1.0130  0.1754
  224MOL0     C29485   2.108   5.505  -0.611  0.9476  0.2911  0.4584
  224MOL0     N29486   1.423   5.253  -0.528 -0.0840  0.2917 -0.0040
  224MOL0     N29487   1.324   5.165  -0.552  0.0694  0.5743  0.0402
  224MOL0     C29488   0.439   4.884   0.330 -0.1030 -0.1097  0.1925
  224MOL0     C29489   0.338   4.927   0.417  0.0525 -0.1410  0.1822
  224MOL0     C29490   0.026   5.191   0.631 -0.4420  0.7641 -0.3984
  224MOL0     C29491   0.025   5.324   0.677 -0.1598  1.1067  1.3375
  224MOL0     C29492  -0.070   5.359   0.776 -0.1643  0.2177  0.7201
  224MOL0     C29493  -0.154   5.260   0.824  0.4671 -0.0170  0.2378
  224MOL0     O29494  -0.241   5.277   0.925 -0.3375 -0.4279  0.4430
  224MOL0     C29495  -0.323   5.397   0.914  0.4243  0.1539  0.2599
  224MOL0     C29496  -0.457   5.386   0.988 -0.1281 -0.1076 -0.4337
  224MOL0     C29497  -0.541   5.513   0.955  0.2004 -0.6455  0.6957
  224MOL0     C29498  -0.685   5.501   1.016 -0.2877 -0.1521 -0.9690
  224MOL0     C29499  -0.675   5.456   1.154  0.3056 -0.8777  0.1214
  224MOL0     C29500  -0.668   5.417   1.271 -0.5478 -0.1828 -0.3036
  224MOL0     C29501  -0.152   5.132   0.773  0.0158  0.2021  1.1089
  224MOL0     C29502  -0.063   5.099   0.678 -0.4789  0.1477  0.0465
  224MOL0     H29503   0.101   5.037   0.201  0.8099 -0.1550 -0.6087
  224MOL0     H29504   0.289   4.976   0.031  1.9462  0.8927 -1.1986
  224MOL0     H29505   0.491   4.960  -0.060 -1.2315  0.1808  1.3240
  224MOL0     H29506   0.413   4.798  -0.048 -0.4463 -1.0103  2.1792
  224MOL0     H29507   0.578   4.773  -0.191  0.5047 -2.4023  0.9130
  224MOL0     H29508   0.630   4.692  -0.041  1.6635 -0.2795 -0.8855
  224MOL0     H29509   0.786   4.898  -0.009 -1.7599  0.7853  0.1477
  224MOL0     H29510   0.712   4.977  -0.150  0.7628  0.5700  1.3198
  224MOL0     H29511   0.882   4.728  -0.138  1.6675 -0.0682 -0.3635
  224MOL0     H29512   0.801   4.783  -0.292 -0.2516  0.0286  0.1937
  224MOL0     H29513   1.030   4.910  -0.134  0.1892  3.0191 -0.6952
  224MOL0     H29514   0.932   5.008  -0.238  1.1427 -0.4618 -1.4248
  224MOL0     H29515   0.987   4.839  -0.433 -0.0516 -2.0220 -0.4654
  224MOL0     H29516   1.093   4.766  -0.314  0.0503  0.2221  0.0104
  224MOL0     H29517   1.099   5.057  -0.384  0.2215 -0.4518 -0.9932
  224MOL0     H29518   1.209   4.975  -0.260 -3.0936  0.7056  2.0283
  224MOL0     H29519   1.206   4.932  -0.558 -1.2730 -0.4922  0.3840
  224MOL0     H29520   1.313   4.848  -0.434  1.6647  0.2627 -1.9868
  224MOL0     H29521   1.524   5.013  -0.340  0.4942  2.4274  1.3208
  224MOL0     H29522   1.730   5.170  -0.443  0.2109 -0.2542  0.3618
  224MOL0     H29523   1.677   5.262  -0.309  0.7053  0.0286 -0.3202
  224MOL0     H29524   1.592   5.455  -0.459  0.1356  0.0066 -2.3096
  224MOL0     H29525   1.666   5.366  -0.589 -1.8482  2.4440 -0.4329
  224MOL0     H29526   1.799   5.493  -0.340  2.4068  0.9098  0.0499
  224MOL0     H29527   1.896   5.391  -0.435  0.9045  1.6564  3.1033
  224MOL0     H29528   1.909   5.644  -0.510 -0.4045  2.3238 -0.1283
  224MOL0     H29529   1.733   5.622  -0.548 -1.9007 -2.6485  1.6474
  224MOL0     H29530   1.968   5.588  -0.915  1.3396  2.4550 -1.0465
  224MOL0     H29531   2.195   5.623  -0.966  1.9325 -0.5791 -0.4599
  224MOL0     H29532   2.729   5.434  -0.774 -0.3297  0.1950  1.0327
  224MOL0     H29533   2.938   5.519  -0.868  1.0247 -0.3128  1.1461
  224MOL0     H29534   3.104   5.643  -0.981 -0.2049 -2.3191  0.9298
  224MOL0     H29535   3.144   5.632  -0.812  0.8894 -1.5121 -2.2076
  224MOL0     H29536   3.339   5.729  -0.907  0.2881  0.2046  0.4511
  224MOL0     H29537   3.261   5.869  -0.845 -1.2106  0.2995  0.6581
  224MOL0     H29538   3.152   5.919  -1.068 -0.8666 -1.2101 -4.1239
  224MOL0     H29539   3.227   5.780  -1.136  0.8167  0.5955 -0.5837
  224MOL0     H29540   3.356   6.049  -1.052 -2.3754  0.2830 -0.9561
  224MOL0     H29541   3.450   5.900  -1.043  0.0729  0.8958  0.6930
  224MOL0     H29542   3.297   6.005  -1.294  1.6119  0.4961 -3.1497
  224MOL0     H29543   3.424   5.869  -1.273  0.1483 -1.6343  2.9632
  224MOL0     H29544   3.591   6.015  -1.228 -0.3260  0.2063  0.3658
  224MOL0     H29545   3.492   6.164  -1.209 -0.3430 -1.2794  2.5589
  224MOL0     H29546   3.514   6.006  -1.469 -0.6106 -0.4006 -1.3885
  224MOL0     H29547   3.444   6.162  -1.462 -0.0742 -0.8898 -0.0364
  224MOL0     H29548   3.735   6.096  -1.388  0.3431 -0.9339 -2.1960
  224MOL0     H29549   3.653   6.262  -1.416 -1.7626 -0.1681 -0.8052
  224MOL0     H29550   2.800   5.928  -0.782  0.7446 -0.6018 -3.1166
  224MOL0     H29551   2.594   5.838  -0.690 -0.3555  0.6441  0.1102
  224MOL0     H29552   2.328   5.498  -0.576  0.7901  0.8182  0.3682
  224MOL0     H29553   2.076   5.487  -0.509 -0.4738  2.9997  0.5666
  224MOL0     H29554   0.530   4.835   0.362 -0.7261 -1.2037  0.3545
  224MOL0     H29555   0.345   4.913   0.525 -1.5601  1.2511  0.5085
  224MOL0     H29556   0.104   5.394   0.652  0.7928  1.0562  3.9517
  224MOL0     H29557  -0.064   5.453   0.830 -1.2814  0.0071  1.2479
  224MOL0     H29558  -0.348   5.419   0.809 -0.6949  1.4904  0.7812
  224MOL0     H29559  -0.258   5.476   0.953  1.5522 -0.3863 -0.4467
  224MOL0     H29560  -0.511   5.295   0.962 -1.1312  1.3785 -4.1872
  224MOL0     H29561  -0.426   5.372   1.092 -2.5030  0.9267  0.5003
  224MOL0     H29562  -0.550   5.525   0.847  0.2902  2.5593  0.9496
  224MOL0     H29563  -0.508   5.610   0.993 -2.2555  1.3827 -1.9402
  224MOL0     H29564  -0.732   5.599   1.026  2.1832  0.9842  0.3363
  224MOL0     H29565  -0.745   5.425   0.965  1.1066 -1.6449 -0.4422
  224MOL0     H29566  -0.679   5.388   1.373  1.2382  0.7025  0.1683
  224MOL0     H29567  -0.212   5.051   0.814 -1.8161  0.2513 -1.2945
  224MOL0     H29568  -0.063   4.992   0.658  2.0543 -0.4536  2.6089
  225MOL0     O29569   2.446   7.695   2.692  0.8653  0.2182 -0.4264
  225MOL0     C29570   2.439   7.819   2.689 -0.2033 -0.2898  0.3618
  225MOL0     O29571   2.322   7.896   2.712 -0.8106  0.4076  0.4266
  225MOL0     C29572   2.206   7.839   2.762 -0.6612 -1.2112  0.6742
  225MOL0     C29573   2.202   7.761   2.874  0.3116  0.7538  0.4432
  225MOL0     C29574   2.084   7.722   2.936 -0.0960  0.6716  0.3476
  225MOL0     C29575   1.965   7.752   2.876  0.1184  0.3596  0.5834
  225MOL0     O29576   1.838   7.746   2.928  0.2608  0.3273  0.0485
  225MOL0     C29577   1.826   7.655   3.045  0.8143 -0.1618 -0.4887
  225MOL0     C29578   1.703   7.552   3.025  0.4845 -0.2142  0.1132
  225MOL0     C29579   1.574   7.632   3.021  0.4402  0.2666  0.2238
  225MOL0     C29580   1.457   7.535   3.014 -0.8717 -0.2756  0.3389
  225MOL0     C29581   1.331   7.607   2.985 -0.0313  0.5622  0.4340
  225MOL0     C29582   1.209   7.514   2.960  0.3649 -0.1151  0.3275
  225MOL0     C29583   1.151   7.463   3.090 -0.0694 -0.3985  0.3082
  225MOL0     C29584   1.057   7.345   3.064  0.0774 -0.3585  0.4421
  225MOL0     N29585   0.929   7.388   3.006 -0.6505  0.2579  0.0255
  225MOL0     C29586   0.839   7.464   3.067  0.1039  0.5278 -0.0527
  225MOL0     C29587   0.743   7.496   2.972  0.1779  0.3067  0.0938
  225MOL0     C29588   0.616   7.583   3.002  0.3800 -0.4108 -0.7250
  225MOL0     C29589   0.507   7.488   3.050  1.3110  0.0457  0.5185
  225MOL0     C29590   0.386   7.568   3.103  0.5467  0.0294  0.1922
  225MOL0     C29591   0.259   7.471   3.115 -0.1650  0.4975 -0.5719
  225MOL0     O29592   0.176   7.556   3.180  0.6644 -0.3431  0.4798
  225MOL0     C29593   0.057   7.502   3.219 -0.8613  0.7410  0.0763
  225MOL0     C29594   0.020   7.370   3.189  0.3542 -0.1396 -0.4260
  225MOL0     C29595  -0.102   7.321   3.245  0.6266 -0.4545 -0.4385
  225MOL0     C29596  -0.174   7.392   3.333 -0.1684 -0.2639 -0.5456
  225MOL0     C29597  -0.293   7.335   3.400  0.1710  0.1341  0.4872
  225MOL0     O29598  -0.368   7.417   3.476 -0.9656 -0.3647 -0.3762
  225MOL0     C29599  -0.492   7.384   3.517  0.2366  0.0270  0.3320
  225MOL0     C29600  -0.543   7.258   3.574  0.0459  0.5079  0.2995
  225MOL0     C29601  -0.670   7.249   3.625  0.5512 -0.7601  0.0410
  225MOL0     C29602  -0.764   7.352   3.602 -0.3717  0.7047 -0.5374
  225MOL0     O29603  -0.891   7.360   3.651  0.6066  0.1941  0.2892
  225MOL0     C29604  -0.965   7.239   3.677 -0.1415  0.3190  0.0065
  225MOL0     C29605  -1.112   7.270   3.723  0.5655 -0.3184 -0.2486
  225MOL0     C29606  -1.191   7.133   3.733  1.0945 -0.3743  0.1334
  225MOL0     C29607  -1.338   7.147   3.766  0.3458 -0.0433  0.1373
  225MOL0     C29608  -1.405   7.008   3.761 -0.3906  0.6386 -0.4763
  225MOL0     C29609  -1.512   7.001   3.867 -0.4657  0.4313  0.5994
  225MOL0     C29610  -1.634   7.096   3.842 -0.4774 -0.4205 -0.2182
  225MOL0     C29611  -1.768   7.042   3.905 -1.1507  0.8265  0.4088
  225MOL0    Cl29612  -1.744   7.018   4.075 -0.0052 -0.2086  0.4844
  225MOL0     C29613  -0.717   7.466   3.541 -0.5383 -0.0844 -0.5414
  225MOL0     C29614  -0.590   7.486   3.495  0.2296  0.0726 -0.2993
  225MOL0     O29615  -0.323   7.215   3.380  0.7005 -0.6442  0.3066
  225MOL0     C29616  -0.126   7.523   3.369  0.4387  0.4679  0.7023
  225MOL0     C29617  -0.012   7.573   3.311  0.5447  0.9607 -0.0192
  225MOL0     N29618   0.777   7.428   2.851  0.2264 -0.3555  0.9403
  225MOL0     N29619   0.888   7.364   2.880  0.4743 -0.0192  0.3931
  225MOL0     C29620   1.962   7.828   2.758 -0.1390  0.2058 -0.3044
  225MOL0     C29621   2.085   7.876   2.703 -0.0934  0.5201  0.7754
  225MOL0     C29622   2.558   7.893   2.631  1.0186  0.5138 -0.0734
  225MOL0     C29623   2.687   7.835   2.601  0.1824 -0.0110  0.2255
  225MOL0     C29624   2.795   7.915   2.561 -0.6648 -0.3506  0.6523
  225MOL0     C29625   2.786   8.052   2.538  0.3846 -0.0435  0.9759
  225MOL0     O29626   2.890   8.126   2.485  0.5621  0.3286  0.0259
  225MOL0     C29627   3.024   8.085   2.503 -0.1349  0.5654  0.2294
  225MOL0     C29628   3.114   8.186   2.423 -0.1939  0.0737  0.5713
  225MOL0     C29629   3.263   8.148   2.456  0.2610  0.4100 -0.0587
  225MOL0     C29630   3.371   8.237   2.382  0.0489 -0.2193  0.5277
  225MOL0     C29631   3.363   8.379   2.424 -0.3167 -0.5685  0.7148
  225MOL0     C29632   3.360   8.496   2.437 -0.2482 -0.3507  0.9398
  225MOL0     C29633   2.656   8.111   2.559 -0.0765  0.9318 -0.2986
  225MOL0     C29634   2.548   8.034   2.609  0.5074  0.1038 -0.3427
  225MOL0     H29635   2.289   7.733   2.934 -0.2514 -1.7301  0.2018
  225MOL0     H29636   2.095   7.664   3.027  0.5247 -0.2005 -0.2686
  225MOL0     H29637   1.798   7.717   3.131 -0.5668 -1.7098  0.2211
  225MOL0     H29638   1.916   7.600   3.077  0.2464 -0.2344  1.0452
  225MOL0     H29639   1.688   7.496   3.118 -0.3512  3.4343  2.4184
  225MOL0     H29640   1.713   7.489   2.937  0.7048  0.4965 -0.3842
  225MOL0     H29641   1.578   7.697   2.933  1.8974  0.8107  0.6703
  225MOL0     H29642   1.560   7.690   3.113 -1.0770  1.5119 -0.7360
  225MOL0     H29643   1.479   7.477   2.924  0.0292 -0.4302  0.6520
  225MOL0     H29644   1.447   7.468   3.100  0.9218 -1.9274 -0.6643
  225MOL0     H29645   1.342   7.669   2.895  2.2099  1.2158  1.1112
  225MOL0     H29646   1.301   7.671   3.069 -0.7676 -1.4865  1.7986
  225MOL0     H29647   1.224   7.433   2.888 -0.6285 -1.3866  1.4916
  225MOL0     H29648   1.127   7.571   2.915 -1.7180 -2.1989  1.2477
  225MOL0     H29649   1.230   7.438   3.162  1.5795  1.6081 -0.6827
  225MOL0     H29650   1.103   7.548   3.139 -1.5725 -0.2472 -1.3613
  225MOL0     H29651   1.025   7.301   3.159 -2.4415 -1.2411 -0.7164
  225MOL0     H29652   1.100   7.274   2.992 -3.9979 -2.6129 -0.0562
  225MOL0     H29653   0.840   7.505   3.168 -2.4222 -2.3622  1.2922
  225MOL0     H29654   0.581   7.633   2.912 -1.7986  0.6711  0.6258
  225MOL0     H29655   0.633   7.655   3.083 -0.3258  0.2774 -1.1747
  225MOL0     H29656   0.542   7.421   3.130  0.1141 -1.9187 -0.5289
  225MOL0     H29657   0.472   7.430   2.964  0.5403  2.4544 -0.8737
  225MOL0     H29658   0.409   7.618   3.198  0.5409  0.7449 -0.1786
  225MOL0     H29659   0.368   7.652   3.035 -0.4726  2.0818  2.8153
  225MOL0     H29660   0.291   7.389   3.180  1.5924  2.1138  0.7268
  225MOL0     H29661   0.218   7.434   3.021 -2.1043  1.8303 -0.3189
  225MOL0     H29662   0.094   7.312   3.136  2.5354 -0.9881  3.2043
  225MOL0     H29663  -0.122   7.216   3.227 -0.8751 -0.5241  1.3334
  225MOL0     H29664  -0.480   7.172   3.594 -0.6265 -0.9922 -3.2677
  225MOL0     H29665  -0.697   7.162   3.685  0.4988 -0.0943  0.9994
  225MOL0     H29666  -0.912   7.180   3.753 -1.7405  1.3103  1.9510
  225MOL0     H29667  -0.974   7.185   3.582  0.6332  1.9772 -1.0535
  225MOL0     H29668  -1.167   7.327   3.648 -0.2224 -1.3220 -0.4489
  225MOL0     H29669  -1.109   7.332   3.813 -1.1894 -2.8001  1.6579
  225MOL0     H29670  -1.139   7.082   3.815  3.0838 -2.6871 -2.3904
  225MOL0     H29671  -1.178   7.082   3.637 -0.3481 -0.5577  0.0141
  225MOL0     H29672  -1.346   7.192   3.866  0.9597 -0.9902  0.6193
  225MOL0     H29673  -1.390   7.211   3.693 -0.6447 -1.5271 -0.5060
  225MOL0     H29674  -1.332   6.935   3.799  0.7919  3.0769  2.3031
  225MOL0     H29675  -1.441   6.989   3.660  1.9480 -0.0110 -1.2472
  225MOL0     H29676  -1.472   7.032   3.964 -1.4108 -1.2411  1.5884
  225MOL0     H29677  -1.551   6.898   3.874 -0.8289  0.0828 -3.9272
  225MOL0     H29678  -1.617   7.190   3.895 -0.8506 -0.7872  0.5738
  225MOL0     H29679  -1.646   7.125   3.737 -0.5951  1.9812  0.4167
  225MOL0     H29680  -1.789   6.945   3.858  5.1408 -0.4414 -0.7507
  225MOL0     H29681  -1.851   7.112   3.890 -0.3012  2.5060  2.9578
  225MOL0     H29682  -0.777   7.553   3.519 -0.7509 -0.8720 -3.4549
  225MOL0     H29683  -0.563   7.579   3.447 -3.0937  2.5560  2.1578
  225MOL0     H29684  -0.161   7.577   3.456  0.6134  0.0537  1.0298
  225MOL0     H29685   0.030   7.665   3.350 -1.5884  0.5518  3.6583
  225MOL0     H29686   1.866   7.847   2.710  0.7447 -0.3092 -2.4303
  225MOL0     H29687   2.082   7.935   2.612 -1.8827 -2.8198 -1.5699
  225MOL0     H29688   2.686   7.726   2.603 -1.8555 -0.1703 -2.9266
  225MOL0     H29689   2.889   7.864   2.543 -0.2356  0.7728 -0.4203
  225MOL0     H29690   3.040   7.981   2.471  0.8965  1.3349 -1.9525
  225MOL0     H29691   3.045   8.104   2.608  0.5476  1.5167 -0.0677
  225MOL0     H29692   3.093   8.176   2.316 -0.6846 -1.9618  0.8202
  225MOL0     H29693   3.105   8.289   2.461  1.2291  0.6111 -0.4543
  225MOL0     H29694   3.285   8.043   2.435  0.6953  0.0512  1.9583
  225MOL0     H29695   3.284   8.166   2.562  0.2057  0.4137 -0.0486
  225MOL0     H29696   3.475   8.213   2.405 -1.0501 -2.4709  3.7783
  225MOL0     H29697   3.370   8.233   2.272  0.0816  0.2148  0.5081
  225MOL0     H29698   3.362   8.599   2.467 -0.9337  0.3500 -1.1802
  225MOL0     H29699   2.633   8.216   2.542  2.3771  1.4178 -1.0956
  225MOL0     H29700   2.458   8.087   2.638  2.0538  2.2413  0.8406
  226MOL0     O29701   9.990   1.829   5.566  0.7358 -0.0220 -0.2696
  226MOL0     C29702  10.081   1.762   5.611 -0.4417  0.6087 -0.6787
  226MOL0     O29703  10.064   1.649   5.693 -0.0985  0.1758  0.1883
  226MOL0     C29704   9.952   1.629   5.776 -0.5106  0.9119  0.0908
  226MOL0     C29705   9.908   1.500   5.794 -1.1263  1.7191  0.3485
  226MOL0     C29706   9.803   1.465   5.884  0.4170 -1.1715 -0.2784
  226MOL0     C29707   9.733   1.572   5.949 -0.0573  0.0118  0.6201
  226MOL0     O29708   9.635   1.553   6.042 -0.1755 -0.2778  0.4768
  226MOL0     C29709   9.596   1.417   6.074 -0.8445 -0.1177  0.3251
  226MOL0     C29710   9.463   1.412   6.160  0.1393  0.4085 -0.5544
  226MOL0     C29711   9.323   1.439   6.088  0.4699  0.0608  0.3178
  226MOL0     C29712   9.210   1.436   6.186  0.9250  0.1460  0.3095
  226MOL0     C29713   9.089   1.515   6.135  0.1412 -0.3608 -0.3886
  226MOL0     C29714   9.093   1.671   6.118 -0.3320  0.0911  0.4488
  226MOL0     C29715   8.969   1.734   6.053 -0.6344  0.1465  0.1812
  226MOL0     C29716   8.948   1.692   5.905  0.1058 -0.5587 -1.5420
  226MOL0     N29717   8.853   1.587   5.884 -0.0494  0.8014 -0.4047
  226MOL0     C29718   8.716   1.609   5.886 -0.0980  0.1713 -0.0635
  226MOL0     C29719   8.676   1.503   5.815  0.3164  0.3225 -0.5972
  226MOL0     C29720   8.536   1.476   5.788  0.2596 -0.2471  0.1502
  226MOL0     C29721   8.466   1.434   5.914  0.3987  0.1828 -0.3624
  226MOL0     C29722   8.316   1.432   5.893  0.1971 -0.1001  0.6577
  226MOL0     C29723   8.269   1.301   5.826  0.1894  0.0426 -0.2537
  226MOL0     O29724   8.130   1.291   5.820  1.5264  0.9091 -0.5088
  226MOL0     C29725   8.049   1.369   5.734  0.7442 -0.0499 -0.1820
  226MOL0     C29726   8.103   1.451   5.633  0.8556  0.0287 -0.0476
  226MOL0     C29727   8.013   1.519   5.546 -0.5678 -0.4154 -0.1684
  226MOL0     C29728   7.867   1.505   5.558  0.4679  0.5392 -0.3859
  226MOL0     C29729   7.767   1.578   5.478 -0.2602 -0.7122 -0.7421
  226MOL0     O29730   7.639   1.549   5.488  0.2837 -0.2041  0.5135
  226MOL0     C29731   7.536   1.609   5.416  0.0775  0.6220  0.2184
  226MOL0     C29732   7.529   1.729   5.341  0.1982  0.7235  0.3141
  226MOL0     C29733   7.407   1.760   5.269 -0.2432 -0.1632  0.0170
  226MOL0     C29734   7.296   1.682   5.276 -0.0171  0.8913  0.4370
  226MOL0     O29735   7.179   1.711   5.198 -0.5813 -0.5044 -0.0854
  226MOL0     C29736   7.105   1.596   5.153  0.0314  0.0127  0.9577
  226MOL0     C29737   7.000   1.657   5.059  0.7467 -0.0224 -0.2961
  226MOL0     C29738   6.914   1.767   5.125  0.1993 -1.1729  0.3130
  226MOL0     C29739   6.831   1.845   5.014 -0.1088 -0.0862 -0.3710
  226MOL0     C29740   6.769   1.976   5.057  0.0050  0.5780  0.3198
  226MOL0     C29741   6.633   1.964   5.132 -0.4584  0.3299  0.6446
  226MOL0     C29742   6.519   1.919   5.045  0.3323 -0.2729 -0.2907
  226MOL0     C29743   6.390   1.953   5.111 -0.7241  0.5923  0.2923
  226MOL0    Cl29744   6.365   1.832   5.241 -0.4338 -0.6424  0.4561
  226MOL0     C29745   7.297   1.572   5.363  0.2673  0.6980  0.0743
  226MOL0     C29746   7.416   1.540   5.432  0.6756 -0.1035 -0.5744
  226MOL0     O29747   7.813   1.666   5.408 -0.7810 -0.4810  0.2120
  226MOL0     C29748   7.817   1.415   5.659 -0.6520 -0.2860 -0.0581
  226MOL0     C29749   7.908   1.353   5.748 -1.0187  0.2591  1.0370
  226MOL0     N29750   8.779   1.423   5.781 -0.0462 -0.0540  0.6342
  226MOL0     N29751   8.887   1.466   5.831  0.3427  0.5075  0.1526
  226MOL0     C29752   9.782   1.700   5.932 -0.6702  0.7320 -0.3084
  226MOL0     C29753   9.889   1.730   5.847 -0.0306 -0.4063  0.1283
  226MOL0     C29754  10.214   1.804   5.586 -0.1655  0.3796 -0.0760
  226MOL0     C29755  10.248   1.921   5.513 -0.3365  0.2727 -0.5091
  226MOL0     C29756  10.382   1.964   5.496 -0.6942  0.6941  0.5726
  226MOL0     C29757  10.482   1.885   5.552  0.5235 -0.6605 -1.1546
  226MOL0     O29758  10.609   1.927   5.545 -0.1509  0.1752  0.8484
  226MOL0     C29759  10.657   2.013   5.439 -0.0347 -0.3535 -0.3117
  226MOL0     C29760  10.807   1.975   5.423  0.6412  0.6601  0.3392
  226MOL0     C29761  10.888   1.992   5.554  1.3944 -0.2442  0.6100
  226MOL0     C29762  11.043   1.981   5.520  0.5567  0.2564  0.4276
  226MOL0     C29763  11.122   2.025   5.639 -0.2584 -0.6861  0.1096
  226MOL0     C29764  11.183   2.086   5.723 -0.0741 -0.0419 -0.2236
  226MOL0     C29765  10.450   1.782   5.638  0.4894 -0.1217  0.4624
  226MOL0     C29766  10.322   1.744   5.661  0.5512 -0.4047 -0.2691
  226MOL0     H29767   9.965   1.424   5.742 -0.3412  0.6377  2.6270
  226MOL0     H29768   9.786   1.361   5.907  0.5745 -1.1051  0.1308
  226MOL0     H29769   9.678   1.369   6.129  0.2867  1.9139  0.5331
  226MOL0     H29770   9.577   1.359   5.983 -1.1766  2.4563 -1.3665
  226MOL0     H29771   9.465   1.479   6.246 -1.2741 -0.8894  0.5393
  226MOL0     H29772   9.456   1.314   6.207 -3.2028  1.2762  1.0482
  226MOL0     H29773   9.305   1.352   6.024  2.0383 -0.7881  0.9841
  226MOL0     H29774   9.335   1.527   6.025  0.5196  0.3153  0.6772
  226MOL0     H29775   9.189   1.330   6.201  2.1831 -0.3200 -1.0709
  226MOL0     H29776   9.239   1.481   6.281 -0.9050 -0.3532  1.1625
  226MOL0     H29777   9.008   1.497   6.206  3.2265  0.5011  3.7320
  226MOL0     H29778   9.055   1.477   6.038 -2.4818  2.4083 -0.7014
  226MOL0     H29779   9.177   1.711   6.060 -0.0199 -0.2783  0.6442
  226MOL0     H29780   9.104   1.718   6.217  1.5051  0.0785  0.2928
  226MOL0     H29781   8.878   1.720   6.111 -2.5898 -0.4775 -2.8050
  226MOL0     H29782   8.991   1.841   6.050  0.1344 -0.0094  0.0123
  226MOL0     H29783   9.048   1.664   5.873  0.0350 -0.0077 -2.2618
  226MOL0     H29784   8.914   1.781   5.851 -1.9946  0.7383  1.6006
  226MOL0     H29785   8.665   1.694   5.930  2.2319  1.9931 -0.6572
  226MOL0     H29786   8.521   1.386   5.728 -2.0496 -0.7930  1.3905
  226MOL0     H29787   8.486   1.560   5.739  3.2524  1.4135 -0.2556
  226MOL0     H29788   8.481   1.507   5.993 -1.4047  0.7378 -0.4854
  226MOL0     H29789   8.506   1.335   5.940  3.9269  0.7676 -2.9402
  226MOL0     H29790   8.268   1.440   5.991 -1.7148  0.2390 -0.2549
  226MOL0     H29791   8.280   1.517   5.835 -1.4128 -0.6700  0.7488
  226MOL0     H29792   8.300   1.212   5.883 -2.1168 -0.1093  0.8716
  226MOL0     H29793   8.294   1.290   5.721 -1.4068  1.3363 -0.8085
  226MOL0     H29794   8.209   1.474   5.630  0.1871  3.6649  0.0526
  226MOL0     H29795   8.056   1.577   5.465  0.1360  1.1084  1.2174
  226MOL0     H29796   7.599   1.811   5.336  0.3901  0.6067  0.9749
  226MOL0     H29797   7.402   1.847   5.204 -1.7697  0.1637  0.5293
  226MOL0     H29798   7.064   1.535   5.234  0.9071  0.0750  1.4581
  226MOL0     H29799   7.164   1.540   5.080 -2.2146  0.9587 -1.7566
  226MOL0     H29800   6.926   1.583   5.027 -0.2119 -0.3450  2.4183
  226MOL0     H29801   7.052   1.701   4.973 -0.9529  2.4856 -0.1600
  226MOL0     H29802   6.975   1.833   5.188 -1.3181 -3.5649  4.7692
  226MOL0     H29803   6.846   1.721   5.198 -2.0532  2.4599  0.6937
  226MOL0     H29804   6.891   1.861   4.924 -0.2209  0.5808 -0.3323
  226MOL0     H29805   6.744   1.781   4.996  1.0921 -1.6449 -0.8739
  226MOL0     H29806   6.747   2.030   4.965 -0.2753  0.5700  0.3799
  226MOL0     H29807   6.843   2.041   5.103  2.0386  1.4694 -3.7831
  226MOL0     H29808   6.613   2.060   5.181 -0.1640  1.6275 -1.6374
  226MOL0     H29809   6.636   1.889   5.212 -1.0607  0.7742  1.0984
  226MOL0     H29810   6.525   1.967   4.947  0.1207  2.5546  0.9856
  226MOL0     H29811   6.527   1.812   5.026 -0.3307 -0.3589 -0.1218
  226MOL0     H29812   6.309   1.964   5.038 -0.0402 -2.6766 -1.1333
  226MOL0     H29813   6.396   2.048   5.165 -1.1931 -0.1340  1.6691
  226MOL0     H29814   7.203   1.522   5.382  0.1903 -0.3245 -2.5350
  226MOL0     H29815   7.412   1.467   5.512  2.7030  2.2690  1.8835
  226MOL0     H29816   7.710   1.395   5.670 -0.3980 -0.8929  1.6880
  226MOL0     H29817   7.875   1.286   5.827  1.7465 -0.5630  1.6350
  226MOL0     H29818   9.741   1.773   6.001 -0.6652 -0.8515  1.4542
  226MOL0     H29819   9.935   1.827   5.834 -1.1670  0.3354  1.3115
  226MOL0     H29820  10.164   1.977   5.473 -1.4333  0.4007  1.8027
  226MOL0     H29821  10.414   2.057   5.451  1.5745 -0.5463 -0.5755
  226MOL0     H29822  10.652   2.117   5.473 -1.5172 -0.2996 -0.6071
  226MOL0     H29823  10.609   1.993   5.342 -2.0777  1.3077  0.2843
  226MOL0     H29824  10.819   1.870   5.396  2.4435  1.4797 -2.3902
  226MOL0     H29825  10.846   2.041   5.345 -0.0893  1.5745  0.7251
  226MOL0     H29826  10.857   1.927   5.636  0.5685 -0.6819 -0.0421
  226MOL0     H29827  10.870   2.098   5.578  0.6128  0.2798 -2.0055
  226MOL0     H29828  11.073   1.881   5.488  1.3278  0.7704 -0.4928
  226MOL0     H29829  11.069   2.049   5.438  1.3094  0.2644  0.6653
  226MOL0     H29830  11.233   2.140   5.801 -0.9340  2.2623 -1.1658
  226MOL0     H29831  10.531   1.728   5.686 -1.0438 -2.0581  1.0143
  226MOL0     H29832  10.302   1.664   5.732 -0.5493  0.3099  0.2645
  227MOL0     O29833   8.810   1.876   4.639  0.8906  0.4497 -0.1303
  227MOL0     C29834   8.867   1.811   4.558 -0.5785  0.6192  0.4392
  227MOL0     O29835   8.816   1.764   4.440  0.3458 -0.2696 -0.3259
  227MOL0     C29836   8.682   1.773   4.435  0.6812  0.1623 -0.2277
  227MOL0     C29837   8.601   1.694   4.516  0.8321 -0.1610 -0.0241
  227MOL0     C29838   8.466   1.712   4.506  0.1685  0.0867  0.3832
  227MOL0     C29839   8.410   1.816   4.432 -0.6537  0.4686  0.0691
  227MOL0     O29840   8.279   1.835   4.456  0.4178 -0.0432  0.0705
  227MOL0     C29841   8.205   1.864   4.336 -0.0929 -0.7196  0.4154
  227MOL0     C29842   8.077   1.770   4.324  0.1225  0.0710 -0.2221
  227MOL0     C29843   7.991   1.789   4.450 -0.5684  0.4469  0.5830
  227MOL0     C29844   7.876   1.683   4.438 -0.1583  0.0551  0.0650
  227MOL0     C29845   7.756   1.700   4.526  0.0579 -0.0013  0.0476
  227MOL0     C29846   7.643   1.598   4.495 -0.0869  0.8295  0.1490
  227MOL0     C29847   7.508   1.621   4.561  0.3454  0.0342  0.1571
  227MOL0     C29848   7.494   1.545   4.693  0.0088 -0.0901 -0.1353
  227MOL0     N29849   7.346   1.536   4.708 -0.2767  0.2271  1.3918
  227MOL0     C29850   7.259   1.440   4.660  0.5190 -0.5846 -0.0980
  227MOL0     C29851   7.132   1.489   4.693  0.0878 -0.0211 -0.4067
  227MOL0     C29852   6.994   1.421   4.690  0.2369  0.9938  0.3579
  227MOL0     C29853   6.875   1.512   4.721  1.0947  0.0982 -0.1463
  227MOL0     C29854   6.770   1.430   4.789  0.1527  0.1884 -0.5848
  227MOL0     C29855   6.635   1.494   4.795  0.7522  0.3814 -0.5158
  227MOL0     O29856   6.557   1.435   4.904 -0.1089  0.5199 -0.2165
  227MOL0     C29857   6.432   1.485   4.924 -0.3133  1.0601 -0.3947
  227MOL0     C29858   6.345   1.417   5.006  0.0367  0.1549 -0.3174
  227MOL0     C29859   6.211   1.456   5.024  0.2826 -0.0039 -0.1990
  227MOL0     C29860   6.168   1.572   4.952  0.1060  0.3156 -0.4057
  227MOL0     C29861   6.033   1.627   4.983 -0.3058  0.3163  0.0171
  227MOL0     O29862   5.986   1.586   5.104  0.0614 -0.7711  1.1673
  227MOL0     C29863   5.870   1.640   5.145  0.1616 -0.2930 -0.4682
  227MOL0     C29864   5.781   1.549   5.202  1.0284 -0.4137  0.2383
  227MOL0     C29865   5.659   1.587   5.252 -0.3417  0.2990  0.4027
  227MOL0     C29866   5.621   1.720   5.249  0.6989  0.3568  0.4070
  227MOL0     O29867   5.502   1.774   5.291 -0.0696 -0.2434  0.5433
  227MOL0     C29868   5.384   1.688   5.288 -1.0992 -0.6212  0.2407
  227MOL0     C29869   5.258   1.765   5.318  0.3571 -0.3174 -0.6509
  227MOL0     C29870   5.127   1.689   5.300  0.2550  0.3167 -0.4527
  227MOL0     C29871   5.007   1.757   5.352 -0.5195 -0.2468 -0.2046
  227MOL0     C29872   4.888   1.673   5.327 -0.2711  0.5106  0.9374
  227MOL0     C29873   4.754   1.759   5.318 -0.5312 -0.1845  0.0097
  227MOL0     C29874   4.628   1.675   5.293  0.0276 -0.5986 -0.0731
  227MOL0     C29875   4.498   1.755   5.304 -0.0277 -0.1735 -0.4328
  227MOL0    Cl29876   4.506   1.896   5.198  0.2546  0.4701 -0.3191
  227MOL0     C29877   5.716   1.813   5.195  0.0969  0.2489  0.2903
  227MOL0     C29878   5.841   1.777   5.145 -0.2789  0.8283  0.0113
  227MOL0     O29879   5.993   1.713   4.905  0.6899  0.2676  0.1497
  227MOL0     C29880   6.253   1.630   4.857 -0.2479  0.3576  0.2833
  227MOL0     C29881   6.388   1.589   4.843  0.7721  0.9855 -0.2529
  227MOL0     N29882   7.158   1.622   4.733  0.2128  0.3432 -1.0297
  227MOL0     N29883   7.276   1.647   4.733 -0.6579 -0.0248  0.0084
  227MOL0     C29884   8.497   1.901   4.358  0.1288  0.8422 -1.3682
  227MOL0     C29885   8.632   1.877   4.360 -0.3069 -0.5175  0.1301
  227MOL0     C29886   9.009   1.773   4.589 -0.5524  0.5112 -0.1179
  227MOL0     C29887   9.088   1.709   4.494  0.3211  0.2911  0.5280
  227MOL0     C29888   9.228   1.689   4.519 -0.4572  0.2884 -0.6350
  227MOL0     C29889   9.274   1.728   4.648  0.1046 -1.0200 -0.5470
  227MOL0     O29890   9.413   1.720   4.658 -0.0378 -0.0186 -0.3516
  227MOL0     C29891   9.480   1.746   4.781  0.6452  0.0604  0.5233
  227MOL0     C29892   9.628   1.724   4.761 -0.2858 -0.7636  0.8756
  227MOL0     C29893   9.681   1.834   4.679  0.0106  0.2668 -0.3353
  227MOL0     C29894   9.834   1.813   4.652  0.3680 -0.1048  0.1587
  227MOL0     C29895   9.888   1.946   4.597 -0.3652  0.4608 -0.7293
  227MOL0     C29896   9.936   2.045   4.550 -0.4296 -0.5296 -0.2862
  227MOL0     C29897   9.190   1.792   4.741 -0.6326 -1.2800  0.0212
  227MOL0     C29898   9.057   1.805   4.713  0.0755 -0.2528 -0.3177
  227MOL0     H29899   8.644   1.606   4.564  1.8685 -0.2236 -1.0261
  227MOL0     H29900   8.410   1.642   4.567  1.9552 -2.7725 -1.0427
  227MOL0     H29901   8.275   1.858   4.252 -1.0634 -0.3922 -0.4333
  227MOL0     H29902   8.186   1.971   4.349  1.3607 -0.2719 -0.8086
  227MOL0     H29903   8.103   1.663   4.319 -1.2038 -0.2632 -0.1817
  227MOL0     H29904   8.019   1.796   4.236  1.8033 -1.6517 -1.9421
  227MOL0     H29905   7.946   1.889   4.453 -1.6860 -0.0506  0.8427
  227MOL0     H29906   8.046   1.780   4.544 -1.9817 -0.7219  1.3505
  227MOL0     H29907   7.831   1.693   4.338 -1.2121 -0.3838  0.4776
  227MOL0     H29908   7.924   1.585   4.440 -0.0430  0.0411 -1.8061
  227MOL0     H29909   7.724   1.803   4.512 -0.0797 -0.4095 -3.6145
  227MOL0     H29910   7.790   1.681   4.629 -1.3976 -1.3979  0.3089
  227MOL0     H29911   7.672   1.494   4.516 -1.3123  0.3313 -0.5215
  227MOL0     H29912   7.635   1.605   4.386  1.8579  3.6862  0.0797
  227MOL0     H29913   7.493   1.728   4.578 -1.8537  0.1097 -1.6729
  227MOL0     H29914   7.428   1.586   4.495 -1.6242  0.2023  2.3296
  227MOL0     H29915   7.535   1.606   4.774 -0.0905 -1.9104  1.3642
  227MOL0     H29916   7.548   1.449   4.692 -0.4445 -0.3620 -1.7587
  227MOL0     H29917   7.293   1.340   4.632  0.5237 -0.8195  0.7145
  227MOL0     H29918   6.998   1.339   4.762  2.7608  1.2863  0.6656
  227MOL0     H29919   6.974   1.392   4.587 -2.3726  2.0728  0.4970
  227MOL0     H29920   6.831   1.556   4.631  1.6526 -1.0704 -1.0244
  227MOL0     H29921   6.904   1.602   4.778  2.0112  1.5525 -2.7263
  227MOL0     H29922   6.754   1.338   4.731  1.9988  0.5698 -1.7798
  227MOL0     H29923   6.814   1.403   4.885  2.8847  2.9534 -0.9153
  227MOL0     H29924   6.585   1.476   4.699  0.9310  2.9650 -1.1784
  227MOL0     H29925   6.646   1.602   4.813  0.4325  0.5465 -1.2700
  227MOL0     H29926   6.386   1.336   5.065 -0.9598 -0.7698 -0.8589
  227MOL0     H29927   6.143   1.393   5.080  2.3658 -1.5284  0.7260
  227MOL0     H29928   5.814   1.446   5.205  1.6740 -0.2403 -0.6160
  227MOL0     H29929   5.588   1.513   5.289  1.8825 -1.1470  2.0369
  227MOL0     H29930   5.406   1.610   5.362  2.9123  0.6036  0.6236
  227MOL0     H29931   5.376   1.637   5.192  1.2119 -0.3293 -0.1795
  227MOL0     H29932   5.260   1.858   5.260  0.0709 -0.4585 -0.8906
  227MOL0     H29933   5.255   1.785   5.425 -1.7187  1.3396 -0.9486
  227MOL0     H29934   5.135   1.594   5.353 -1.4442 -0.6003 -1.7327
  227MOL0     H29935   5.115   1.655   5.197  1.0000  0.2428 -0.5244
  227MOL0     H29936   5.009   1.778   5.459  1.0531  0.5276 -0.3654
  227MOL0     H29937   4.989   1.853   5.302 -2.7468 -0.1402  0.6793
  227MOL0     H29938   4.886   1.587   5.395  1.7528 -0.8183 -0.5680
  227MOL0     H29939   4.912   1.620   5.234  1.1663  0.4396  1.3280
  227MOL0     H29940   4.764   1.827   5.233  2.5375 -0.6477 -0.0985
  227MOL0     H29941   4.746   1.813   5.412  0.5354 -0.4021  0.2311
  227MOL0     H29942   4.633   1.635   5.191 -2.2107  1.0306 -0.8822
  227MOL0     H29943   4.623   1.597   5.370 -0.6429 -0.1967  0.2941
  227MOL0     H29944   4.475   1.787   5.406  0.6000 -0.4086 -0.2103
  227MOL0     H29945   4.417   1.696   5.260 -0.5959 -0.2054  0.6170
  227MOL0     H29946   5.687   1.917   5.189  0.4675  0.2779 -1.1710
  227MOL0     H29947   5.924   1.838   5.110  0.4387  0.5414  1.1916
  227MOL0     H29948   6.228   1.717   4.797 -1.8403  1.1734  2.0512
  227MOL0     H29949   6.451   1.638   4.770 -0.5581  1.9606 -0.7901
  227MOL0     H29950   8.467   1.993   4.308  0.0465  1.3032 -0.4800
  227MOL0     H29951   8.705   1.937   4.307 -1.5940  0.8031 -0.2103
  227MOL0     H29952   9.044   1.688   4.397  0.7893  0.9528  0.1645
  227MOL0     H29953   9.299   1.640   4.454  0.7751  0.0717  0.8194
  227MOL0     H29954   9.436   1.677   4.853  0.2359  2.3137  2.5358
  227MOL0     H29955   9.469   1.851   4.807  0.9528  0.1032  0.4845
  227MOL0     H29956   9.680   1.735   4.857  1.0423  1.2944 -0.0040
  227MOL0     H29957   9.644   1.627   4.714 -0.9777 -1.9204  2.9042
  227MOL0     H29958   9.657   1.922   4.738 -0.2326 -0.0660  0.0694
  227MOL0     H29959   9.629   1.843   4.583  1.1470  1.4267 -0.8647
  227MOL0     H29960   9.900   1.788   4.735  3.9358  4.1454 -1.0111
  227MOL0     H29961   9.852   1.745   4.569 -1.8892  3.0480 -3.2544
  227MOL0     H29962   9.956   2.132   4.491 -1.6242 -1.1694 -1.6813
  227MOL0     H29963   9.237   1.832   4.830 -1.5012 -0.1909  0.0149
  227MOL0     H29964   8.995   1.851   4.789  0.3283  0.2511 -0.4112
  228MOL0     O29965   1.850   8.736   6.568  0.1183  1.1269 -0.0587
  228MOL0     C29966   1.747   8.794   6.567  0.4938  0.4900  0.0196
  228MOL0     O29967   1.712   8.891   6.485 -0.1280  0.1064  0.1650
  228MOL0     C29968   1.822   8.944   6.410  0.3374 -0.3043  0.0204
  228MOL0     C29969   1.903   8.865   6.318  0.0332  0.2359 -0.7160
  228MOL0     C29970   2.007   8.919   6.243  0.2847  0.0007  0.1423
  228MOL0     C29971   2.032   9.059   6.259  0.6490  0.4198 -0.1012
  228MOL0     O29972   2.125   9.129   6.180 -0.0606  0.3022 -0.4759
  228MOL0     C29973   2.238   9.044   6.134 -0.1989 -0.7649 -0.4651
  228MOL0     C29974   2.357   9.149   6.111  0.6744  0.8061 -0.5205
  228MOL0     C29975   2.476   9.090   6.036  0.4718  0.3350  0.1124
  228MOL0     C29976   2.570   9.197   5.981  0.1797  0.5892 -0.0674
  228MOL0     C29977   2.687   9.136   5.903  0.2854  0.3526  0.4752
  228MOL0     C29978   2.788   9.246   5.877 -0.1015 -0.0834 -0.1910
  228MOL0     C29979   2.908   9.194   5.800 -0.0016  0.3003  0.0236
  228MOL0     C29980   2.985   9.308   5.718 -0.1660 -0.0254  0.0338
  228MOL0     N29981   3.003   9.424   5.800 -0.0192 -1.3579 -0.1977
  228MOL0     C29982   3.069   9.425   5.922 -0.7113 -0.8426  0.3563
  228MOL0     C29983   3.061   9.555   5.962  0.5193  0.2142  0.3283
  228MOL0     C29984   3.116   9.611   6.096 -0.6485 -0.0279  0.1877
  228MOL0     C29985   3.190   9.742   6.077  0.2234 -0.1848 -0.1914
  228MOL0     C29986   3.279   9.784   6.194 -0.5147 -0.0143  0.2541
  228MOL0     C29987   3.217   9.831   6.322 -0.0264 -0.6405  0.4297
  228MOL0     O29988   3.148   9.726   6.389 -0.6192 -0.0412  0.1914
  228MOL0     C29989   3.013   9.749   6.421 -0.2728  0.0364  0.4004
  228MOL0     C29990   2.917   9.810   6.339 -0.6217  0.1009 -0.6597
  228MOL0     C29991   2.777   9.820   6.378 -0.9566  0.1250 -0.0083
  228MOL0     C29992   2.736   9.765   6.503  0.4741  0.4565  0.3500
  228MOL0     C29993   2.599   9.780   6.577  0.2647  0.0113  0.5345
  228MOL0     O29994   2.564   9.681   6.665  0.1830  0.6044  0.2093
  228MOL0     C29995   2.469   9.714   6.757 -1.1303  0.1736  0.2031
  228MOL0     C29996   2.336   9.729   6.725 -0.1015 -0.4621  0.1954
  228MOL0     C29997   2.242   9.761   6.819 -0.7040 -0.8206 -0.0650
  228MOL0     C29998   2.281   9.783   6.951 -0.0262  0.1331 -0.5504
  228MOL0     O29999   2.198   9.809   7.055  0.4275 -0.4665 -0.0570
  228MOL0     C30000   2.058   9.849   7.032 -0.2148  0.3541 -0.2471
  228MOL0     C30001   1.980   9.881   7.154 -0.4786  1.2040 -0.2983
  228MOL0     C30002   1.828   9.883   7.138 -0.1593  0.1678 -1.0290
  228MOL0     C30003   1.782  10.003   7.063  0.5178 -0.2668 -0.6678
  228MOL0     C30004   1.635   9.994   7.001 -0.6606 -0.4938 -0.4218
  228MOL0     C30005   1.528  10.010   7.109  0.7919 -0.3016 -0.9205
  228MOL0     C30006   1.506  10.167   7.128  0.0447  1.1622  0.1242
  228MOL0     C30007   1.374  10.192   7.194 -0.6757  0.1160 -0.2484
  228MOL0    Cl30008   1.231  10.128   7.105 -0.2691 -0.0045  0.2854
  228MOL0     C30009   2.414   9.776   6.983 -0.4144  0.1878  0.5449
  228MOL0     C30010   2.512   9.753   6.881  0.1106  0.4466 -0.6654
  228MOL0     O30011   2.527   9.873   6.532  0.2210  0.1137 -0.3391
  228MOL0     C30012   2.841   9.699   6.583  0.4287 -0.6154  0.4691
  228MOL0     C30013   2.969   9.692   6.540  0.0088  0.4638 -0.7023
  228MOL0     N30014   3.003   9.633   5.859 -0.4689  0.2399  0.1345
  228MOL0     N30015   2.971   9.553   5.758 -0.0842 -0.3715 -0.5635
  228MOL0     C30016   1.956   9.138   6.349 -0.4898  0.8053  0.3076
  228MOL0     C30017   1.849   9.080   6.417  0.5081 -0.3638  0.1068
  228MOL0     C30018   1.643   8.730   6.659 -0.1141  0.1290 -0.2426
  228MOL0     C30019   1.518   8.794   6.684  0.5106 -0.9812 -0.4538
  228MOL0     C30020   1.419   8.736   6.768 -0.0202 -0.0998 -0.8146
  228MOL0     C30021   1.442   8.614   6.838 -0.2404  0.5784  1.3185
  228MOL0     O30022   1.353   8.554   6.932  0.8421 -0.1787 -0.3243
  228MOL0     C30023   1.218   8.605   6.934 -0.7267 -1.2868 -0.3451
  228MOL0     C30024   1.134   8.529   7.042 -0.2006  0.7547  0.3738
  228MOL0     C30025   1.166   8.577   7.186 -0.5228  1.2046 -0.5952
  228MOL0     C30026   1.068   8.518   7.288  0.8922  0.2360 -1.6619
  228MOL0     C30027   1.059   8.592   7.415  0.0161  0.7119 -0.4893
  228MOL0     C30028   1.063   8.646   7.523 -0.0053 -0.0266 -0.0814
  228MOL0     C30029   1.573   8.559   6.825  0.8836 -0.0613  0.7683
  228MOL0     C30030   1.667   8.612   6.735 -0.3317  0.5663 -0.0746
  228MOL0     H30031   1.888   8.758   6.310 -0.3884  0.0512  1.7791
  228MOL0     H30032   2.069   8.863   6.175  1.1310  0.2101  0.7286
  228MOL0     H30033   2.222   8.998   6.036 -1.5939  0.0387 -0.6541
  228MOL0     H30034   2.260   8.975   6.216 -1.8505 -1.5856 -0.6683
  228MOL0     H30035   2.397   9.196   6.201 -0.3286  2.2444 -0.7822
  228MOL0     H30036   2.329   9.238   6.054  1.0372  0.2239 -1.6448
  228MOL0     H30037   2.442   9.039   5.946  0.3156 -0.2719  0.5013
  228MOL0     H30038   2.533   9.017   6.095  1.6100  0.8824 -0.2944
  228MOL0     H30039   2.511   9.261   5.914 -0.9483 -0.4435 -0.0966
  228MOL0     H30040   2.607   9.260   6.062 -1.9342 -0.5386  1.9172
  228MOL0     H30041   2.652   9.095   5.808  3.1563 -0.5900 -0.2633
  228MOL0     H30042   2.723   9.049   5.958 -1.1137  0.6673  1.9910
  228MOL0     H30043   2.811   9.309   5.963  0.6599  2.2159 -1.9645
  228MOL0     H30044   2.727   9.321   5.826 -1.6458 -0.1948  1.4045
  228MOL0     H30045   2.977   9.135   5.862 -0.4948 -1.6543 -1.1876
  228MOL0     H30046   2.874   9.114   5.733 -1.9342  0.0674  1.2027
  228MOL0     H30047   2.934   9.334   5.625 -2.1722 -0.4631  0.9692
  228MOL0     H30048   3.084   9.270   5.689 -1.1899 -0.9902 -2.4728
  228MOL0     H30049   3.120   9.344   5.975  1.1247  1.1738  1.8331
  228MOL0     H30050   3.176   9.536   6.148 -0.1214 -0.6613 -1.2806
  228MOL0     H30051   3.030   9.629   6.161 -0.9432  0.8983 -0.4363
  228MOL0     H30052   3.112   9.819   6.080 -3.4636 -3.5593  3.4597
  228MOL0     H30053   3.254   9.741   5.988 -0.5440 -0.6673 -0.7592
  228MOL0     H30054   3.351   9.705   6.216  0.4418  0.8449  0.2803
  228MOL0     H30055   3.342   9.868   6.165  0.0029  0.3088  2.2057
  228MOL0     H30056   3.153   9.917   6.301 -0.6722 -1.3320 -0.5016
  228MOL0     H30057   3.299   9.866   6.385  1.0212 -0.0208 -1.2118
  228MOL0     H30058   2.936   9.855   6.242  1.7166 -1.3989 -0.9757
  228MOL0     H30059   2.700   9.860   6.313 -0.8397 -0.2713 -0.3996
  228MOL0     H30060   2.317   9.721   6.618  1.1897  2.9033 -0.4274
  228MOL0     H30061   2.138   9.771   6.789 -0.8167 -3.0716 -0.6344
  228MOL0     H30062   2.005   9.765   6.986  2.8888 -1.1099 -1.4425
  228MOL0     H30063   2.057   9.931   6.959  0.2116 -1.5767 -2.5396
  228MOL0     H30064   2.026   9.970   7.198  1.1396 -1.0418  3.0022
  228MOL0     H30065   2.002   9.799   7.222  1.3632  0.0710 -2.1190
  228MOL0     H30066   1.795   9.903   7.241 -0.0439  1.2553 -1.1994
  228MOL0     H30067   1.786   9.793   7.091  0.5931 -1.2629  0.8688
  228MOL0     H30068   1.793  10.093   7.124  2.2779  0.0399 -1.3587
  228MOL0     H30069   1.855  10.018   6.982  0.2194  1.0407 -0.7210
  228MOL0     H30070   1.627   9.892   6.961 -0.3974 -1.3947  1.6841
  228MOL0     H30071   1.627  10.061   6.915  0.7319 -2.2832 -2.0463
  228MOL0     H30072   1.565   9.973   7.204 -1.1588  0.6087  0.2680
  228MOL0     H30073   1.440   9.946   7.097 -0.6747  1.0191  1.9211
  228MOL0     H30074   1.592  10.202   7.184  1.8145 -1.0914 -0.9996
  228MOL0     H30075   1.508  10.225   7.035 -1.5414  2.5094  0.8828
  228MOL0     H30076   1.357  10.297   7.218  2.7258 -0.0813  4.2228
  228MOL0     H30077   1.375  10.142   7.291  1.8340  0.7987  0.1550
  228MOL0     H30078   2.453   9.805   7.080 -0.4851  0.8275  0.3842
  228MOL0     H30079   2.618   9.755   6.904 -0.2187  1.3394  0.9052
  228MOL0     H30080   2.826   9.658   6.682 -0.0781 -0.3945  0.4849
  228MOL0     H30081   3.045   9.643   6.600 -0.5582 -1.9571 -1.8537
  228MOL0     H30082   1.984   9.242   6.361 -4.1596  1.8350  1.4865
  228MOL0     H30083   1.789   9.142   6.484  0.6201  0.5813 -0.6396
  228MOL0     H30084   1.497   8.885   6.630 -2.0977 -1.6458 -0.6815
  228MOL0     H30085   1.326   8.792   6.775 -0.7202 -1.3891  0.8111
  228MOL0     H30086   1.168   8.590   6.838 -0.5416  4.7431 -1.8091
  228MOL0     H30087   1.218   8.713   6.953  0.1455 -1.5643  1.4904
  228MOL0     H30088   1.027   8.548   7.027 -0.5516  0.0086  1.7843
  228MOL0     H30089   1.168   8.426   7.035  0.4454  0.7597  2.8407
  228MOL0     H30090   1.157   8.686   7.193 -2.7401  1.0761 -0.9201
  228MOL0     H30091   1.270   8.552   7.209 -1.5256 -2.9145  0.2538
  228MOL0     H30092   0.968   8.526   7.245  0.7117 -1.7422 -1.6960
  228MOL0     H30093   1.088   8.411   7.297  0.6094  0.0461 -3.0682
  228MOL0     H30094   1.070   8.707   7.610  0.9241  1.9550 -1.4794
  228MOL0     H30095   1.614   8.481   6.888  0.8589  1.4221  2.6956
  228MOL0     H30096   1.759   8.555   6.727  0.4870  1.4385  2.2113
  229MOL0     O30097   7.862   7.986   2.206 -0.1607 -0.5603  0.4868
  229MOL0     C30098   7.874   8.053   2.108  0.4348  0.5156  0.7733
  229MOL0     O30099   7.762   8.098   2.032 -0.0068  0.4025 -0.4260
  229MOL0     C30100   7.629   8.054   2.043 -0.8060 -0.1647 -0.3043
  229MOL0     C30101   7.579   7.958   2.139 -0.4288 -0.7388 -0.5376
  229MOL0     C30102   7.440   7.925   2.145 -0.3837 -0.3635 -0.2235
  229MOL0     C30103   7.350   7.999   2.074 -0.5916 -0.1582 -0.7093
  229MOL0     O30104   7.218   7.976   2.084  0.2754 -0.1679 -0.3423
  229MOL0     C30105   7.142   8.084   2.146  0.4965 -0.8831 -0.9398
  229MOL0     C30106   7.062   8.165   2.047 -0.5555 -0.3199 -0.3105
  229MOL0     C30107   6.912   8.147   2.065 -0.6612 -0.3544 -0.0892
  229MOL0     C30108   6.825   8.226   1.965 -0.1418 -0.0639 -0.3072
  229MOL0     C30109   6.678   8.208   2.000  0.5907  0.7171  0.2787
  229MOL0     C30110   6.600   8.235   1.875  0.7732  0.5308 -0.4927
  229MOL0     C30111   6.451   8.204   1.903  0.1587 -0.0443  0.0459
  229MOL0     C30112   6.410   8.062   1.946  0.3875 -0.2201  0.5701
  229MOL0     N30113   6.267   8.060   1.969 -0.3759 -0.4939  0.5606
  229MOL0     C30114   6.201   8.007   2.077  0.0982  0.6235  0.6382
  229MOL0     C30115   6.073   7.998   2.037  0.2324  0.6303 -0.8690
  229MOL0     C30116   5.971   7.927   2.114 -1.1797 -0.0255  0.6295
  229MOL0     C30117   5.826   7.985   2.099 -0.7685 -0.2407 -0.6126
  229MOL0     C30118   5.726   7.889   2.168  0.5864 -0.2606  0.7317
  229MOL0     C30119   5.586   7.957   2.163 -0.0001 -0.3281 -0.3180
  229MOL0     O30120   5.508   7.918   2.042  0.6621 -0.5133 -0.0711
  229MOL0     C30121   5.370   7.952   2.045 -0.3465 -0.1532  0.5053
  229MOL0     C30122   5.320   8.081   2.064 -0.1187  0.4288  0.3624
  229MOL0     C30123   5.179   8.101   2.071 -0.2141 -0.0402  0.4977
  229MOL0     C30124   5.091   7.995   2.052 -0.8612 -0.2798  0.5866
  229MOL0     C30125   4.951   8.012   2.074  0.0867 -0.4211  0.5154
  229MOL0     O30126   4.869   7.912   2.035  0.0272 -0.5186 -0.7661
  229MOL0     C30127   4.741   7.925   2.061  1.2376 -0.0912  0.1398
  229MOL0     C30128   4.684   7.858   2.167 -0.4983 -0.8903 -0.1288
  229MOL0     C30129   4.541   7.872   2.189 -0.2655 -0.7759  0.5578
  229MOL0     C30130   4.457   7.939   2.110  0.1919  0.2428 -0.3737
  229MOL0     O30131   4.322   7.939   2.133 -0.2542  0.0851  0.2718
  229MOL0     C30132   4.270   8.077   2.135 -0.1823 -0.2769 -1.2174
  229MOL0     C30133   4.144   8.098   2.222  0.6717 -0.3832 -0.2337
  229MOL0     C30134   4.102   8.239   2.212  0.6671  0.3321  0.2722
  229MOL0     C30135   3.969   8.268   2.278  0.5442 -0.9313 -0.0346
  229MOL0     C30136   3.916   8.410   2.239 -0.6001 -0.1197  0.1259
  229MOL0     C30137   3.781   8.434   2.299  1.1223  0.1461  1.0277
  229MOL0     C30138   3.745   8.577   2.323  0.0301  0.1131 -1.2192
  229MOL0     C30139   3.710   8.649   2.199  0.2139 -0.2595  0.2365
  229MOL0    Cl30140   3.676   8.821   2.220 -0.1739 -0.0853  0.4999
  229MOL0     C30141   4.514   8.009   2.001 -0.9512  0.0212 -0.1666
  229MOL0     C30142   4.659   8.006   1.982  0.3807  0.1552 -0.1409
  229MOL0     O30143   4.919   8.122   2.123 -0.7069 -0.0294  0.0429
  229MOL0     C30144   5.144   7.863   2.019  0.0189  0.2862  0.0300
  229MOL0     C30145   5.284   7.843   2.020  0.1467 -0.2682 -0.8601
  229MOL0     N30146   6.060   8.044   1.908 -0.0451  0.0075 -0.6135
  229MOL0     N30147   6.175   8.075   1.864  0.0839  0.1860  0.5047
  229MOL0     C30148   7.400   8.094   1.980  0.2499 -0.3843 -0.7400
  229MOL0     C30149   7.531   8.121   1.958 -0.1882  0.2889 -0.7845
  229MOL0     C30150   8.008   8.089   2.060  0.5034 -0.9712 -0.3142
  229MOL0     C30151   8.021   8.147   1.929  0.1535 -0.3449  0.4172
  229MOL0     C30152   8.143   8.198   1.882 -0.4549 -0.2255 -0.0278
  229MOL0     C30153   8.248   8.214   1.968  0.5961  0.2626 -0.3376
  229MOL0     O30154   8.359   8.281   1.925 -0.2347 -1.0756 -0.4727
  229MOL0     C30155   8.464   8.304   2.015  0.0247  0.4517 -0.2914
  229MOL0     C30156   8.589   8.360   1.941  0.5335  0.1673  0.0398
  229MOL0     C30157   8.554   8.498   1.886 -0.1588 -0.6251  1.0052
  229MOL0     C30158   8.649   8.553   1.779 -0.8618 -0.3847 -0.3410
  229MOL0     C30159   8.798   8.551   1.811  0.7437 -0.4611  0.2460
  229MOL0     C30160   8.913   8.547   1.844  0.3898 -1.5796  0.0375
  229MOL0     C30161   8.226   8.163   2.105 -0.2880 -0.9867  0.4812
  229MOL0     C30162   8.115   8.094   2.149  0.3673  0.0002  0.2909
  229MOL0     H30163   7.637   7.892   2.203 -1.7009 -1.4783 -0.1214
  229MOL0     H30164   7.406   7.845   2.209 -2.7938  1.5707  1.1190
  229MOL0     H30165   7.211   8.157   2.189  1.1133 -0.6378 -2.2866
  229MOL0     H30166   7.071   8.055   2.225 -1.5974  1.9229 -1.5983
  229MOL0     H30167   7.092   8.144   1.944  0.4362  0.5918 -0.2253
  229MOL0     H30168   7.083   8.272   2.054  2.2437 -0.8623  0.7706
  229MOL0     H30169   6.885   8.186   2.163 -0.9604  3.2954 -1.4487
  229MOL0     H30170   6.883   8.042   2.061 -3.2293  0.3154 -1.6067
  229MOL0     H30171   6.844   8.334   1.967  0.1584 -0.1221  1.4691
  229MOL0     H30172   6.842   8.197   1.861 -0.9136  0.7340 -0.6773
  229MOL0     H30173   6.643   8.267   2.085 -1.4102  0.3443 -0.2281
  229MOL0     H30174   6.663   8.106   2.035  0.3274  0.6319 -0.0733
  229MOL0     H30175   6.642   8.181   1.789 -2.2647  3.2367 -4.0098
  229MOL0     H30176   6.596   8.340   1.845  1.1099  0.9955  0.9806
  229MOL0     H30177   6.417   8.269   1.985  1.3941  0.8088 -0.0964
  229MOL0     H30178   6.386   8.230   1.819 -1.1334 -1.3223  0.6052
  229MOL0     H30179   6.464   8.022   2.032 -1.3592 -2.0774  0.8766
  229MOL0     H30180   6.436   7.992   1.866  2.9820 -1.7828  2.6344
  229MOL0     H30181   6.239   7.984   2.176  1.3314 -1.3555 -0.2331
  229MOL0     H30182   5.999   7.926   2.220  1.0462  1.5192  0.1330
  229MOL0     H30183   5.978   7.823   2.081  5.9476  0.0109  0.4226
  229MOL0     H30184   5.793   7.989   1.994  2.6454 -5.1532 -2.1943
  229MOL0     H30185   5.834   8.082   2.150  1.2822 -2.1115  2.9875
  229MOL0     H30186   5.708   7.796   2.113 -2.2953  0.3831  0.4037
  229MOL0     H30187   5.760   7.874   2.271  0.9207 -0.4680  0.5921
  229MOL0     H30188   5.596   8.066   2.162  0.0637 -0.2643  1.7530
  229MOL0     H30189   5.522   7.927   2.247 -1.0570  0.5997 -0.7781
  229MOL0     H30190   5.394   8.161   2.068  1.2543 -0.8569  2.5713
  229MOL0     H30191   5.137   8.200   2.085  0.4050  0.5047 -1.2301
  229MOL0     H30192   4.746   7.789   2.223 -0.6898 -0.6934  0.3386
  229MOL0     H30193   4.490   7.828   2.274  0.4289  0.4879  1.6530
  229MOL0     H30194   4.235   8.111   2.037 -1.7544  1.2104 -0.1945
  229MOL0     H30195   4.345   8.141   2.182 -1.2081 -0.4312  0.7042
  229MOL0     H30196   4.156   8.072   2.327 -1.6485  1.6357  0.6267
  229MOL0     H30197   4.059   8.038   2.188 -1.2101  0.8831  2.0041
  229MOL0     H30198   4.092   8.266   2.106 -4.1763 -0.8124  0.2144
  229MOL0     H30199   4.176   8.301   2.264  2.4463 -0.3136 -1.3615
  229MOL0     H30200   3.892   8.199   2.241 -0.4011  1.3284 -2.6904
  229MOL0     H30201   3.962   8.251   2.386  0.9749 -0.1328  0.1298
  229MOL0     H30202   3.906   8.409   2.130 -3.1218 -1.9025  0.2774
  229MOL0     H30203   3.987   8.487   2.269 -0.7229  0.1986 -0.3795
  229MOL0     H30204   3.786   8.389   2.398 -2.2679 -1.0279  0.7983
  229MOL0     H30205   3.710   8.381   2.235  3.5726 -1.3333 -0.6172
  229MOL0     H30206   3.658   8.583   2.389 -0.0091  1.3263 -1.3637
  229MOL0     H30207   3.829   8.633   2.365  0.4881 -1.8828  0.7602
  229MOL0     H30208   3.621   8.607   2.151  1.8924 -1.1082 -2.3444
  229MOL0     H30209   3.788   8.639   2.123 -1.1845 -0.6361 -1.2068
  229MOL0     H30210   4.455   8.068   1.931  0.7366 -0.3297 -1.9468
  229MOL0     H30211   4.709   8.050   1.897 -1.1410  1.6627 -0.3057
  229MOL0     H30212   5.079   7.777   2.008 -0.1642  0.7448 -3.6143
  229MOL0     H30213   5.324   7.742   2.016 -0.0487 -0.3327 -1.3112
  229MOL0     H30214   7.335   8.150   1.913  2.1925  1.4460 -1.2023
  229MOL0     H30215   7.557   8.203   1.892  0.2647  1.8235  1.1705
  229MOL0     H30216   7.936   8.149   1.861  1.5771 -0.3438 -1.4691
  229MOL0     H30217   8.148   8.225   1.777 -0.1041 -0.2403 -0.0185
  229MOL0     H30218   8.507   8.207   2.043 -0.7404 -1.5562 -5.0746
  229MOL0     H30219   8.455   8.370   2.102 -0.0383  0.1016 -0.0294
  229MOL0     H30220   8.667   8.363   2.017 -0.8809 -1.8828  1.7048
  229MOL0     H30221   8.618   8.287   1.865 -0.7794 -0.7458  0.3894
  229MOL0     H30222   8.563   8.568   1.970  0.0509 -0.5740  0.9406
  229MOL0     H30223   8.451   8.491   1.852  0.0944  1.2440 -0.2987
  229MOL0     H30224   8.613   8.505   1.687  0.4740 -0.8916 -0.6184
  229MOL0     H30225   8.619   8.658   1.770 -0.1802  0.1193  2.3962
  229MOL0     H30226   9.009   8.536   1.889  0.2479 -3.2579  0.0031
  229MOL0     H30227   8.303   8.172   2.182 -0.1768  2.2449  0.1494
  229MOL0     H30228   8.118   8.044   2.245  2.8495 -1.8436 -0.6537
  230MOL0     O30229   0.024   7.540   7.808  0.1400 -0.5578  0.1098
  230MOL0     C30230   0.059   7.620   7.720 -0.0188  0.1361 -0.6206
  230MOL0     O30231  -0.016   7.663   7.615 -0.1567 -0.3850  0.0378
  230MOL0     C30232  -0.152   7.640   7.614 -0.4661 -0.0346  0.3736
  230MOL0     C30233  -0.204   7.548   7.528 -0.5410 -0.3973  0.1909
  230MOL0     C30234  -0.345   7.529   7.523  0.3999 -1.0118 -0.1429
  230MOL0     C30235  -0.437   7.601   7.596 -0.1328 -0.4369  0.6836
  230MOL0     O30236  -0.581   7.592   7.574 -0.7516 -0.5650 -0.1077
  230MOL0     C30237  -0.648   7.503   7.497 -0.4626  0.2573  0.1088
  230MOL0     C30238  -0.800   7.527   7.528  0.5046  0.5929  0.4833
  230MOL0     C30239  -0.889   7.425   7.466 -0.4188  0.4077  0.2631
  230MOL0     C30240  -1.028   7.422   7.525  0.5354 -0.4301 -0.2802
  230MOL0     C30241  -1.094   7.293   7.484  0.2389  0.2773  0.5516
  230MOL0     C30242  -1.244   7.299   7.522  0.1587  0.4596  1.1867
  230MOL0     C30243  -1.313   7.166   7.478 -0.0795 -0.6686  0.5626
  230MOL0     C30244  -1.457   7.161   7.531  0.9278  0.4349 -0.1168
  230MOL0     N30245  -1.528   7.040   7.471 -0.8877  0.2516  0.0444
  230MOL0     C30246  -1.605   7.050   7.360 -0.4033  0.0116  0.3468
  230MOL0     C30247  -1.663   6.926   7.340 -0.5519  0.2112  0.1479
  230MOL0     C30248  -1.757   6.884   7.227  0.2057  0.1839  0.2221
  230MOL0     C30249  -1.893   6.842   7.291 -2.0377  0.4984 -0.8348
  230MOL0     C30250  -1.996   6.806   7.184  0.3753 -0.1944 -0.6882
  230MOL0     C30251  -2.116   6.721   7.238 -0.8266  0.7739 -0.3331
  230MOL0     O30252  -2.197   6.690   7.122  0.0292 -0.8855 -0.0715
  230MOL0     C30253  -2.329   6.654   7.150  0.5433  0.4960  0.1278
  230MOL0     C30254  -2.371   6.615   7.277 -0.3369  1.5150 -0.8090
  230MOL0     C30255  -2.508   6.584   7.289 -0.7298 -0.1322  0.7583
  230MOL0     C30256  -2.598   6.596   7.183 -0.1153 -0.1726 -0.5477
  230MOL0     C30257  -2.743   6.573   7.206 -0.0212  0.6268  0.1124
  230MOL0     O30258  -2.817   6.588   7.093  0.4655  0.3211 -0.1154
  230MOL0     C30259  -2.953   6.571   7.086  0.7217  0.1942  0.6147
  230MOL0     C30260  -3.009   6.476   7.003 -0.0801 -0.8022  0.5862
  230MOL0     C30261  -3.149   6.457   7.000  0.7034 -0.3539  0.0123
  230MOL0     C30262  -3.234   6.533   7.082 -0.1103  0.6366  0.5990
  230MOL0     O30263  -3.368   6.523   7.086  0.5227  0.2040 -0.3534
  230MOL0     C30264  -3.438   6.538   6.952 -0.0065 -0.8053 -1.1260
  230MOL0     C30265  -3.570   6.622   6.962 -0.2013 -0.2326 -0.0416
  230MOL0     C30266  -3.667   6.576   7.073 -0.0926 -0.7826 -0.4422
  230MOL0     C30267  -3.710   6.429   7.082  0.1792  0.2450  0.5205
  230MOL0     C30268  -3.806   6.394   7.191  0.3017 -0.9188  0.1378
  230MOL0     C30269  -3.833   6.248   7.189  0.4568  1.0938 -0.3227
  230MOL0     C30270  -3.934   6.197   7.292 -0.7927 -0.2989  0.0062
  230MOL0     C30271  -3.995   6.065   7.241 -0.2209 -0.5955  0.3505
  230MOL0    Cl30272  -4.076   5.986   7.379  0.2339 -0.0548 -0.1485
  230MOL0     C30273  -3.175   6.627   7.164 -0.1050 -0.6432  0.2156
  230MOL0     C30274  -3.037   6.642   7.169 -0.2946 -0.2902 -0.0351
  230MOL0     O30275  -2.786   6.552   7.321  0.6199  0.6611  0.2984
  230MOL0     C30276  -2.546   6.617   7.061  0.2361  0.2136  0.9485
  230MOL0     C30277  -2.412   6.638   7.045 -1.2330 -0.0805 -0.2739
  230MOL0     N30278  -1.631   6.849   7.453 -0.6493 -0.5570 -0.0811
  230MOL0     N30279  -1.542   6.913   7.522 -0.3244 -0.1400 -0.1839
  230MOL0     C30280  -0.383   7.691   7.684  0.3130  0.0384  0.9055
  230MOL0     C30281  -0.244   7.709   7.701  0.0961 -0.3211  0.1747
  230MOL0     C30282   0.205   7.653   7.696 -0.9378  0.4020  0.5448
  230MOL0     C30283   0.300   7.556   7.731  0.4660  0.4438 -0.0770
  230MOL0     C30284   0.441   7.572   7.698  0.0950 -0.0199 -0.6092
  230MOL0     C30285   0.483   7.695   7.647 -0.0228 -0.4549  0.6454
  230MOL0     O30286   0.613   7.726   7.606 -0.3624 -0.2740  0.2633
  230MOL0     C30287   0.705   7.616   7.593  0.1941  0.0247  0.4617
  230MOL0     C30288   0.843   7.669   7.544  0.3306  0.0245 -0.5365
  230MOL0     C30289   0.937   7.559   7.553  0.6939  0.6974 -0.9350
  230MOL0     C30290   1.073   7.585   7.500  0.4784 -0.9237  0.8092
  230MOL0     C30291   1.143   7.461   7.479 -0.2980 -0.2117  1.0622
  230MOL0     C30292   1.190   7.350   7.453  0.1877 -0.3130 -0.2894
  230MOL0     C30293   0.384   7.795   7.615  0.5088 -0.2480  0.0151
  230MOL0     C30294   0.247   7.774   7.632 -0.0383  0.1047  0.3151
  230MOL0     H30295  -0.151   7.484   7.457 -0.4824 -0.2199  0.0759
  230MOL0     H30296  -0.399   7.461   7.459 -1.6348 -0.3319  0.7418
  230MOL0     H30297  -0.625   7.398   7.513  1.2758  0.8561  1.9606
  230MOL0     H30298  -0.632   7.518   7.390 -1.5585 -3.6287 -0.7384
  230MOL0     H30299  -0.832   7.624   7.490 -0.5118 -0.0627 -0.3671
  230MOL0     H30300  -0.819   7.527   7.636 -0.0982 -0.3264  0.3843
  230MOL0     H30301  -0.854   7.323   7.479 -1.6240  0.0945  1.2410
  230MOL0     H30302  -0.890   7.428   7.357  0.9885 -2.0291  0.1295
  230MOL0     H30303  -1.020   7.432   7.633 -1.3318  3.5302 -0.3334
  230MOL0     H30304  -1.089   7.509   7.499 -0.0607 -0.6355  0.4172
  230MOL0     H30305  -1.041   7.213   7.535 -0.1353  0.0716  0.6237
  230MOL0     H30306  -1.084   7.297   7.376  1.2384  1.1192  0.6580
  230MOL0     H30307  -1.283   7.386   7.469 -0.7738 -1.5020 -1.5438
  230MOL0     H30308  -1.257   7.299   7.631 -5.2799 -0.8400  0.8041
  230MOL0     H30309  -1.305   7.163   7.369  0.7151  3.1277  0.3838
  230MOL0     H30310  -1.249   7.084   7.513 -0.6465 -0.6068  1.7557
  230MOL0     H30311  -1.500   7.254   7.494  2.1605  1.3289  0.5962
  230MOL0     H30312  -1.462   7.163   7.640  2.6047  1.0164 -0.0187
  230MOL0     H30313  -1.622   7.137   7.298  2.6099  1.1383  0.9692
  230MOL0     H30314  -1.720   6.797   7.172  1.7508  0.3295  0.9809
  230MOL0     H30315  -1.770   6.965   7.155  1.2424 -0.4776 -0.7468
  230MOL0     H30316  -1.929   6.929   7.347 -0.6067 -0.1619  1.2407
  230MOL0     H30317  -1.882   6.762   7.364 -3.1829  1.3954  0.3682
  230MOL0     H30318  -2.031   6.902   7.144 -1.2169  0.9798  3.1548
  230MOL0     H30319  -1.946   6.747   7.106 -1.6394 -1.0468 -1.4067
  230MOL0     H30320  -2.171   6.775   7.315  0.1139  0.9773  0.2082
  230MOL0     H30321  -2.074   6.625   7.268 -2.7149 -0.2966 -0.9582
  230MOL0     H30322  -2.314   6.608   7.369  0.6196  2.7067 -1.2745
  230MOL0     H30323  -2.545   6.542   7.382 -0.1187 -0.3466  0.9113
  230MOL0     H30324  -2.935   6.419   6.947  3.0297  2.9896  0.3573
  230MOL0     H30325  -3.197   6.379   6.942 -1.2090  0.3801  0.5225
  230MOL0     H30326  -3.467   6.440   6.913  1.5087 -2.6546  2.0192
  230MOL0     H30327  -3.365   6.588   6.887  1.5156 -0.7513  0.5415
  230MOL0     H30328  -3.618   6.625   6.864  1.1741  1.0175 -0.7210
  230MOL0     H30329  -3.551   6.728   6.977 -5.5916  0.5993  3.7046
  230MOL0     H30330  -3.763   6.626   7.055 -0.6360 -1.7374 -0.2411
  230MOL0     H30331  -3.623   6.608   7.167 -1.5367 -1.5092  0.5168
  230MOL0     H30332  -3.758   6.403   6.987 -0.0296  1.3740  0.3010
  230MOL0     H30333  -3.618   6.372   7.091  0.2509  0.1479 -0.6579
  230MOL0     H30334  -3.903   6.445   7.190  0.3426 -0.8385  0.1876
  230MOL0     H30335  -3.770   6.436   7.286 -0.9883 -0.2042  0.3354
  230MOL0     H30336  -3.745   6.188   7.212 -1.2765 -0.7854  1.8299
  230MOL0     H30337  -3.870   6.218   7.090 -0.1906  0.4700  0.1012
  230MOL0     H30338  -3.883   6.176   7.386 -0.5090  0.6956  0.0916
  230MOL0     H30339  -4.016   6.269   7.302  0.5154  1.3765 -0.7989
  230MOL0     H30340  -3.926   5.994   7.194  0.1345  0.7164 -1.1886
  230MOL0     H30341  -4.068   6.093   7.164 -1.1699 -2.1430  0.6435
  230MOL0     H30342  -3.243   6.693   7.217 -0.6423 -1.6668  0.8302
  230MOL0     H30343  -2.990   6.715   7.234  2.3758 -2.3898  0.5825
  230MOL0     H30344  -2.600   6.640   6.969  0.5349  4.7427  1.6521
  230MOL0     H30345  -2.379   6.654   6.942 -0.9797 -0.3576 -0.2372
  230MOL0     H30346  -0.455   7.750   7.741  0.5181 -0.1087  1.3191
  230MOL0     H30347  -0.202   7.794   7.754  0.1867 -0.9668  1.1598
  230MOL0     H30348   0.270   7.462   7.775  2.2151  0.2492  0.7886
  230MOL0     H30349   0.520   7.503   7.725 -0.0895  0.0292  0.0894
  230MOL0     H30350   0.665   7.558   7.509  0.5380  1.7119 -0.9038
  230MOL0     H30351   0.717   7.568   7.691 -0.3530  1.5792  1.3252
  230MOL0     H30352   0.839   7.706   7.441  0.6684  1.0840 -0.1880
  230MOL0     H30353   0.873   7.751   7.611 -0.6534  0.6453 -0.8347
  230MOL0     H30354   0.894   7.472   7.502  1.0923 -1.1760  1.7415
  230MOL0     H30355   0.934   7.548   7.661 -2.8049 -0.2926 -1.0322
  230MOL0     H30356   1.052   7.635   7.405 -0.7582 -0.2461  1.4160
  230MOL0     H30357   1.118   7.658   7.569 -1.1261  1.0247 -0.0917
  230MOL0     H30358   1.221   7.251   7.426 -1.0839 -0.8738  0.2184
  230MOL0     H30359   0.420   7.894   7.587  0.3473  0.5097  2.2369
  230MOL0     H30360   0.181   7.854   7.600  0.9650  0.1136 -1.9594
  231MOL0     O30361   1.753   6.298   1.866  0.8797  0.7384 -0.0404
  231MOL0     C30362   1.843   6.231   1.922  0.8298  0.3445  0.7968
  231MOL0     O30363   1.824   6.106   1.958 -0.0975 -0.0062  0.3299
  231MOL0     C30364   1.703   6.045   1.928 -1.2807  0.3322 -0.5770
  231MOL0     C30365   1.631   5.974   2.029  0.1060 -0.4584 -0.2762
  231MOL0     C30366   1.505   5.921   2.003  0.1111 -0.0647 -0.3374
  231MOL0     C30367   1.446   5.936   1.879 -0.9402  0.1546  0.1539
  231MOL0     O30368   1.317   5.889   1.864 -0.1183  0.1493 -0.9381
  231MOL0     C30369   1.219   5.985   1.834  0.7778 -0.5903 -0.4750
  231MOL0     C30370   1.102   5.909   1.775 -0.6547  0.7034 -0.1653
  231MOL0     C30371   1.026   5.819   1.874 -0.5638 -0.4858  0.8549
  231MOL0     C30372   0.900   5.777   1.805  0.0139  0.0813  0.1630
  231MOL0     C30373   0.831   5.647   1.870 -0.2848 -0.7537  0.3611
  231MOL0     C30374   0.712   5.598   1.790 -0.0068  0.0287  0.1984
  231MOL0     C30375   0.589   5.685   1.832 -0.6256  0.2296  0.6934
  231MOL0     C30376   0.454   5.642   1.779  0.4429  1.2335  0.0339
  231MOL0     N30377   0.354   5.745   1.801  0.5200 -0.1608 -0.1976
  231MOL0     C30378   0.343   5.882   1.767 -0.4405  0.7395  0.0147
  231MOL0     C30379   0.232   5.922   1.821 -0.7272 -0.4039  0.6038
  231MOL0     C30380   0.188   6.063   1.801 -1.1992  0.1393  0.1776
  231MOL0     C30381   0.035   6.074   1.826 -0.5589 -0.2281 -0.1076
  231MOL0     C30382  -0.002   6.120   1.965  0.4624  0.1326 -1.2349
  231MOL0     C30383  -0.155   6.134   1.978 -0.1266 -0.2076 -0.6589
  231MOL0     O30384  -0.210   6.236   1.898  0.7838 -0.4362 -0.6367
  231MOL0     C30385  -0.334   6.288   1.933  0.4001 -0.0607 -0.7520
  231MOL0     C30386  -0.383   6.400   1.862 -0.3356  0.4692  0.6115
  231MOL0     C30387  -0.517   6.440   1.880 -0.5383 -0.9870  0.5222
  231MOL0     C30388  -0.595   6.384   1.977 -0.0478 -0.0368 -0.0531
  231MOL0     C30389  -0.735   6.426   1.994  0.4534  0.0462  0.8582
  231MOL0     O30390  -0.812   6.367   2.093 -0.2992  0.5105  0.1067
  231MOL0     C30391  -0.938   6.412   2.127  0.2218 -0.2294  0.4761
  231MOL0     C30392  -0.999   6.541   2.109  0.0604  0.4930 -0.4444
  231MOL0     C30393  -1.125   6.583   2.162 -0.4558 -0.2654 -0.1305
  231MOL0     C30394  -1.203   6.491   2.234 -0.1339  0.8253 -0.4940
  231MOL0     O30395  -1.324   6.543   2.277  0.3966  0.5984  1.1816
  231MOL0     C30396  -1.380   6.481   2.394  0.6106  0.6067 -1.0084
  231MOL0     C30397  -1.522   6.531   2.426 -0.2687 -0.4353  0.2942
  231MOL0     C30398  -1.611   6.496   2.305  1.2027  0.0851 -0.3497
  231MOL0     C30399  -1.764   6.513   2.333  0.1218 -0.4304  0.3876
  231MOL0     C30400  -1.817   6.649   2.383  0.9827  0.3054 -0.0615
  231MOL0     C30401  -1.805   6.765   2.283  0.3399 -0.4040 -0.0995
  231MOL0     C30402  -1.900   6.744   2.160 -0.1822  0.1590 -0.1805
  231MOL0     C30403  -2.047   6.783   2.188 -0.1320 -0.7969  0.1716
  231MOL0    Cl30404  -2.118   6.645   2.290 -0.2603  0.2785  0.1322
  231MOL0     C30405  -1.141   6.365   2.259  0.5093  0.1716 -0.6930
  231MOL0     C30406  -1.018   6.334   2.211  0.7579  0.7200  0.0543
  231MOL0     O30407  -0.786   6.505   1.914 -0.4412 -0.7101  0.1906
  231MOL0     C30408  -0.543   6.287   2.059 -0.2114 -0.2431 -0.7978
  231MOL0     C30409  -0.412   6.240   2.037 -0.5141 -0.4731 -0.2493
  231MOL0     N30410   0.172   5.816   1.891  0.4305  0.5258 -0.8300
  231MOL0     N30411   0.249   5.714   1.882 -0.1830 -0.2049 -0.1051
  231MOL0     C30412   1.519   5.990   1.768  1.3713 -0.0343 -0.7556
  231MOL0     C30413   1.648   6.045   1.793  0.2208  0.0610 -0.0776
  231MOL0     C30414   1.968   6.291   1.956 -0.1134  0.6338  0.6121
  231MOL0     C30415   1.986   6.429   1.954  0.8124  0.6027 -0.3008
  231MOL0     C30416   2.108   6.490   1.978  0.8275  1.1208 -0.2315
  231MOL0     C30417   2.227   6.421   1.996 -0.1336 -0.4041  0.1174
  231MOL0     O30418   2.348   6.480   2.013 -0.2083 -0.3385 -0.0498
  231MOL0     C30419   2.457   6.396   2.057 -0.5700 -0.0746  0.6046
  231MOL0     C30420   2.583   6.490   2.050 -0.3385 -0.2343  0.1226
  231MOL0     C30421   2.710   6.419   2.101 -0.1484 -0.0952  0.9856
  231MOL0     C30422   2.841   6.477   2.060 -0.8492  0.2333 -0.5221
  231MOL0     C30423   2.864   6.619   2.098  0.0830  0.0415 -0.0676
  231MOL0     C30424   2.882   6.736   2.133 -0.3224 -0.2232 -0.0154
  231MOL0     C30425   2.207   6.278   1.989  0.5754 -0.4678 -0.4437
  231MOL0     C30426   2.081   6.219   1.973  0.4133  0.4916  0.5598
  231MOL0     H30427   1.669   5.972   2.130  0.8842  2.1166 -0.4398
  231MOL0     H30428   1.441   5.878   2.079 -1.8349  1.1759 -1.1902
  231MOL0     H30429   1.249   6.065   1.766 -1.5697  3.0289  2.3188
  231MOL0     H30430   1.175   6.031   1.924 -1.7049  0.0683 -1.9433
  231MOL0     H30431   1.134   5.853   1.686  1.0620  2.8128 -0.9789
  231MOL0     H30432   1.030   5.984   1.741 -2.6258  0.1306  2.4994
  231MOL0     H30433   1.004   5.879   1.962  0.0773  1.1826 -0.0649
  231MOL0     H30434   1.090   5.734   1.900 -0.4660 -0.8168 -0.4075
  231MOL0     H30435   0.835   5.865   1.812  1.4109  1.1822 -0.3464
  231MOL0     H30436   0.925   5.766   1.699  0.3949 -0.5490  0.3166
  231MOL0     H30437   0.790   5.667   1.969  1.2033  1.5206  0.6205
  231MOL0     H30438   0.905   5.568   1.886 -0.6607 -1.0320  0.7200
  231MOL0     H30439   0.696   5.493   1.816 -2.0556 -0.3371 -2.1507
  231MOL0     H30440   0.732   5.603   1.682 -0.5472 -1.6583 -0.0108
  231MOL0     H30441   0.582   5.684   1.941 -2.2967  1.3379  0.6255
  231MOL0     H30442   0.602   5.791   1.809  0.2930  0.1174  0.6399
  231MOL0     H30443   0.424   5.548   1.826 -0.0303 -0.5151 -3.4689
  231MOL0     H30444   0.456   5.623   1.672  0.5741 -0.1848  0.2656
  231MOL0     H30445   0.413   5.938   1.705 -0.7807  0.3956 -0.6915
  231MOL0     H30446   0.216   6.089   1.698  2.0676  0.9740  1.1511
  231MOL0     H30447   0.251   6.131   1.859  1.9122 -1.6399 -0.8466
  231MOL0     H30448  -0.002   5.972   1.811 -0.1260 -0.5598  1.0191
  231MOL0     H30449  -0.013   6.141   1.754 -0.2860  0.9613  0.8079
  231MOL0     H30450   0.043   6.051   2.037  4.5774  2.0001 -1.7445
  231MOL0     H30451   0.039   6.218   1.989  0.1963 -0.1480  0.5331
  231MOL0     H30452  -0.174   6.166   2.081 -2.5538  3.1435 -1.9902
  231MOL0     H30453  -0.203   6.038   1.953 -1.2100  0.2881 -0.5456
  231MOL0     H30454  -0.322   6.437   1.781 -0.5064  0.8664  0.6643
  231MOL0     H30455  -0.556   6.513   1.810  2.0129  1.7730  1.7570
  231MOL0     H30456  -0.943   6.613   2.051 -0.1600  0.3892 -0.7922
  231MOL0     H30457  -1.151   6.688   2.146  1.2938  0.4367  1.2782
  231MOL0     H30458  -1.313   6.505   2.477 -1.0123  1.4638  0.1153
  231MOL0     H30459  -1.370   6.372   2.387  0.8713  0.6630 -1.5892
  231MOL0     H30460  -1.511   6.638   2.447  0.3119 -0.5187  0.4212
  231MOL0     H30461  -1.564   6.493   2.519 -0.6350 -0.2727  0.1995
  231MOL0     H30462  -1.602   6.398   2.258  0.7398 -0.1021 -0.0497
  231MOL0     H30463  -1.576   6.570   2.232  4.2019 -1.1519 -0.3356
  231MOL0     H30464  -1.815   6.488   2.240  0.7510  1.8366 -0.6207
  231MOL0     H30465  -1.788   6.430   2.400  1.0136 -2.4392 -1.6556
  231MOL0     H30466  -1.745   6.661   2.464  1.5804 -2.6731 -0.0438
  231MOL0     H30467  -1.915   6.637   2.429 -0.2371 -4.2994 -3.1678
  231MOL0     H30468  -1.704   6.759   2.241  0.2294  0.9921 -0.6211
  231MOL0     H30469  -1.834   6.859   2.330  0.2133 -1.1092  1.2757
  231MOL0     H30470  -1.857   6.809   2.084  4.4174 -0.5590  1.4626
  231MOL0     H30471  -1.895   6.644   2.118  1.3290 -0.7641  1.9973
  231MOL0     H30472  -2.093   6.787   2.089 -0.5691  0.8149  0.4106
  231MOL0     H30473  -2.047   6.886   2.225 -0.4125 -0.3408 -1.0472
  231MOL0     H30474  -1.188   6.287   2.319 -1.0512  0.4656 -1.4898
  231MOL0     H30475  -0.979   6.235   2.233  3.2084  1.4604 -0.6893
  231MOL0     H30476  -0.596   6.250   2.147 -2.0356  0.6638 -1.4815
  231MOL0     H30477  -0.400   6.148   2.094  1.7768 -0.5451 -0.7758
  231MOL0     H30478   1.466   5.987   1.674 -0.2088  0.0599  0.0927
  231MOL0     H30479   1.710   6.097   1.721 -0.0187 -0.9339 -1.0291
  231MOL0     H30480   1.902   6.498   1.949  1.4324  1.7620  2.6889
  231MOL0     H30481   2.109   6.598   1.976  0.8333  1.2068  2.2590
  231MOL0     H30482   2.469   6.306   1.997 -3.4710 -0.1817  0.0614
  231MOL0     H30483   2.438   6.359   2.159 -1.6694  0.8722  0.7740
  231MOL0     H30484   2.589   6.523   1.946 -0.2346 -1.0059 -0.1176
  231MOL0     H30485   2.571   6.579   2.113  0.5846  0.2650 -0.3807
  231MOL0     H30486   2.699   6.320   2.056  0.2722  1.7299 -3.6789
  231MOL0     H30487   2.704   6.412   2.210  1.0803 -1.9279  0.9832
  231MOL0     H30488   2.920   6.424   2.114  0.1415 -0.1893 -2.3079
  231MOL0     H30489   2.856   6.456   1.953  0.9213  0.7939 -0.4185
  231MOL0     H30490   2.868   6.836   2.169  0.1682 -0.1648  0.0213
  231MOL0     H30491   2.291   6.209   1.992  1.7171  0.7709 -2.2767
  231MOL0     H30492   2.076   6.111   1.961 -1.4025  0.7234 -1.3706
  232MOL0     O30493   7.634   3.268  10.349 -0.3464  0.9182  0.6088
  232MOL0     C30494   7.729   3.334  10.388 -1.1078 -0.3440  0.3549
  232MOL0     O30495   7.723   3.444  10.469  0.3902  0.1181  0.1663
  232MOL0     C30496   7.602   3.473  10.522  0.0532  1.1368  0.8055
  232MOL0     C30497   7.580   3.472  10.655  0.7272  0.0340 -0.2480
  232MOL0     C30498   7.464   3.515  10.724 -0.5404  0.8012 -0.0240
  232MOL0     C30499   7.363   3.548  10.646  0.6584  0.2167  0.2656
  232MOL0     O30500   7.245   3.596  10.702  0.4453  0.2683 -0.5767
  232MOL0     C30501   7.192   3.724  10.679 -0.0950 -0.9965 -0.3682
  232MOL0     C30502   7.074   3.765  10.776  0.1461  0.7929  0.4100
  232MOL0     C30503   6.947   3.701  10.726  0.2266 -0.6254 -0.3446
  232MOL0     C30504   6.826   3.762  10.797 -0.4715  0.1874  0.1862
  232MOL0     C30505   6.788   3.698  10.930  0.3887  0.0153  0.6372
  232MOL0     C30506   6.671   3.769  10.999  0.4096  0.4573  0.6931
  232MOL0     C30507   6.534   3.770  10.924 -0.3642  0.7261  0.3764
  232MOL0     C30508   6.424   3.827  11.017 -0.2014 -0.5536  0.4231
  232MOL0     N30509   6.298   3.810  10.949  0.2223  0.5524  0.9929
  232MOL0     C30510   6.193   3.717  10.965  0.1556 -0.7468  0.5577
  232MOL0     C30511   6.100   3.757  10.877  0.0117 -0.5285 -0.7097
  232MOL0     C30512   5.969   3.700  10.858  0.5581 -0.3385 -0.2508
  232MOL0     C30513   5.875   3.741  10.968 -0.0674 -0.8718  0.2607
  232MOL0     C30514   5.729   3.693  10.955  0.0225  0.8373 -0.0831
  232MOL0     C30515   5.644   3.782  10.878 -0.5395 -0.5803  0.0111
  232MOL0     O30516   5.513   3.727  10.898  1.0075  0.8369 -0.0997
  232MOL0     C30517   5.393   3.784  10.845  0.5068 -0.7700 -0.1676
  232MOL0     C30518   5.387   3.915  10.792 -0.7396 -0.0722  0.4732
  232MOL0     C30519   5.271   3.964  10.735  0.1337 -0.1764 -0.6805
  232MOL0     C30520   5.153   3.879  10.726  0.0212  0.1801 -0.4947
  232MOL0     C30521   5.029   3.926  10.665  0.1019  0.9099  0.7070
  232MOL0     O30522   4.920   3.838  10.669 -0.7737 -0.1702 -0.1363
  232MOL0     C30523   4.794   3.881  10.671  0.6081 -0.7203  0.0906
  232MOL0     C30524   4.702   3.773  10.668  0.5874  0.8433 -0.4970
  232MOL0     C30525   4.568   3.795  10.658 -0.1691  0.1289 -0.4509
  232MOL0     C30526   4.519   3.928  10.667  0.2208  0.6768 -0.0637
  232MOL0     O30527   4.379   3.932  10.644  0.3951 -0.0621 -0.2309
  232MOL0     C30528   4.318   4.057  10.683 -0.1243 -0.2289  0.2987
  232MOL0     C30529   4.179   4.046  10.734  1.0121 -0.3489 -0.3958
  232MOL0     C30530   4.080   3.981  10.639 -0.3991 -0.3335 -0.3744
  232MOL0     C30531   3.940   3.977  10.694 -0.4300  0.2174 -0.1537
  232MOL0     C30532   3.845   3.913  10.599  0.1918 -0.0348 -0.0872
  232MOL0     C30533   3.710   3.932  10.671 -0.5516  0.8052 -0.3345
  232MOL0     C30534   3.590   3.872  10.587  0.1239 -0.4661 -0.8314
  232MOL0     C30535   3.461   3.874  10.663  0.0205 -0.0231 -0.8703
  232MOL0    Cl30536   3.414   4.026  10.735  0.4477 -0.1337  0.1118
  232MOL0     C30537   4.606   4.036  10.683  0.4073  0.3713  0.2330
  232MOL0     C30538   4.747   4.013  10.686  0.8848 -0.3549 -0.0046
  232MOL0     O30539   5.028   4.035  10.618 -0.0897 -0.9244  0.8886
  232MOL0     C30540   5.165   3.750  10.781 -0.0678  0.0698 -0.1339
  232MOL0     C30541   5.280   3.710  10.843 -0.7048  0.0607 -0.4375
  232MOL0     N30542   6.147   3.858  10.791  0.8521 -0.0038  0.2813
  232MOL0     N30543   6.263   3.882  10.838  0.4655 -0.4464 -0.5715
  232MOL0     C30544   7.365   3.531  10.504  0.1580  0.7532 -0.3293
  232MOL0     C30545   7.489   3.493  10.445 -0.3998 -0.5719 -0.2950
  232MOL0     C30546   7.860   3.287  10.327 -0.3353 -0.2413 -0.6218
  232MOL0     C30547   7.978   3.359  10.354 -0.0746 -0.8367  0.0315
  232MOL0     C30548   8.102   3.331  10.294 -0.4751 -0.8221  1.2360
  232MOL0     C30549   8.111   3.218  10.220  0.1306  0.1791  0.9093
  232MOL0     O30550   8.231   3.195  10.156  0.0996  0.5885  0.0525
  232MOL0     C30551   8.297   3.073  10.190 -0.5322 -0.6486  0.5634
  232MOL0     C30552   8.453   3.084  10.199  0.9392  0.3496  0.3220
  232MOL0     C30553   8.506   3.122  10.064 -0.1305  0.6629  0.2199
  232MOL0     C30554   8.656   3.124  10.066 -0.2921 -0.1128 -0.0934
  232MOL0     C30555   8.718   3.202  10.172  0.5803 -0.4438  0.3600
  232MOL0     C30556   8.774   3.258  10.258 -0.3910  0.2446 -0.0215
  232MOL0     C30557   7.997   3.138  10.197 -0.6810 -0.5064 -0.1713
  232MOL0     C30558   7.872   3.169  10.246 -0.4914 -0.0656 -0.1737
  232MOL0     H30559   7.666   3.453  10.719  1.3860  0.4459 -0.9905
  232MOL0     H30560   7.459   3.516  10.832  2.4640 -1.6886  0.2675
  232MOL0     H30561   7.155   3.737  10.577 -2.3562  2.7749  0.7362
  232MOL0     H30562   7.263   3.807  10.689 -2.1493  1.0304 -1.6809
  232MOL0     H30563   7.076   3.874  10.777  0.9150  0.8172 -1.0230
  232MOL0     H30564   7.095   3.730  10.877  2.8303 -2.1938 -0.9676
  232MOL0     H30565   6.939   3.592  10.726 -3.2641 -0.4758 -0.4990
  232MOL0     H30566   6.931   3.742  10.625  2.9693  1.6071 -0.0136
  232MOL0     H30567   6.823   3.871  10.804 -3.0459  0.1671  0.3750
  232MOL0     H30568   6.746   3.743  10.724  1.5657  3.7770 -3.4056
  232MOL0     H30569   6.872   3.698  10.999  0.9818  1.6253 -0.0292
  232MOL0     H30570   6.762   3.595  10.903 -0.5547  1.0223 -2.8999
  232MOL0     H30571   6.696   3.873  11.021  1.6484  0.7529 -1.7261
  232MOL0     H30572   6.650   3.719  11.094 -1.8136  2.0807  1.1364
  232MOL0     H30573   6.538   3.839  10.839  2.8723 -0.2955 -0.4784
  232MOL0     H30574   6.505   3.666  10.906  2.5568  0.1729 -1.9421
  232MOL0     H30575   6.448   3.932  11.034  0.6361 -0.3928 -1.4370
  232MOL0     H30576   6.421   3.776  11.113 -0.9143 -0.2147  0.5856
  232MOL0     H30577   6.188   3.637  11.039 -0.4485 -1.6181 -0.3903
  232MOL0     H30578   5.982   3.592  10.871  1.1396 -0.4494 -1.5489
  232MOL0     H30579   5.935   3.721  10.756 -0.2044  1.1826  0.2934
  232MOL0     H30580   5.870   3.851  10.972 -0.5008 -0.8719 -0.1766
  232MOL0     H30581   5.914   3.717  11.067 -0.7030 -0.0986  0.7140
  232MOL0     H30582   5.727   3.597  10.902 -1.7033  1.0176 -0.3991
  232MOL0     H30583   5.685   3.685  11.055  2.2299 -0.9494  0.8224
  232MOL0     H30584   5.664   3.785  10.770  3.6432  0.8742  0.6284
  232MOL0     H30585   5.656   3.885  10.913 -2.3163  1.0838 -3.7179
  232MOL0     H30586   5.476   3.978  10.789 -0.0130 -1.0815  0.2000
  232MOL0     H30587   5.255   4.059  10.685 -1.8200 -0.0982 -0.0157
  232MOL0     H30588   4.739   3.671  10.667  1.4949  1.1139  1.4566
  232MOL0     H30589   4.500   3.712  10.641  1.5005 -1.4583  0.3459
  232MOL0     H30590   4.315   4.133  10.604 -0.7380  1.0360  1.4973
  232MOL0     H30591   4.379   4.092  10.767 -0.0275  0.2733  0.0219
  232MOL0     H30592   4.142   4.147  10.751 -1.2566 -0.8869 -1.7685
  232MOL0     H30593   4.183   3.996  10.831  1.9610  2.3024  1.0202
  232MOL0     H30594   4.116   3.879  10.625 -0.7892 -0.1704 -3.2573
  232MOL0     H30595   4.081   4.038  10.546  2.2706  1.2836  0.5438
  232MOL0     H30596   3.931   3.929  10.791  1.7109 -0.1033 -0.0705
  232MOL0     H30597   3.905   4.079  10.707  2.2514  1.3594 -1.1771
  232MOL0     H30598   3.865   3.808  10.576 -0.4781  0.5260 -3.9137
  232MOL0     H30599   3.833   3.970  10.506 -1.0762  2.3560  1.4297
  232MOL0     H30600   3.679   4.036  10.684  1.5024  1.8751 -3.0244
  232MOL0     H30601   3.716   3.881  10.767  0.6621  0.0153 -0.8027
  232MOL0     H30602   3.578   3.923  10.491  1.3882  0.4719 -0.5165
  232MOL0     H30603   3.608   3.769  10.556 -0.9559 -0.4258 -1.6692
  232MOL0     H30604   3.477   3.808  10.749  0.4409  0.6908 -0.3925
  232MOL0     H30605   3.378   3.834  10.604 -0.2170 -0.3019 -0.3537
  232MOL0     H30606   4.561   4.134  10.692  1.0081  0.9688 -2.5643
  232MOL0     H30607   4.812   4.097  10.711  1.9948 -1.5396  1.2191
  232MOL0     H30608   5.082   3.680  10.779 -0.9199  1.0753 -0.3180
  232MOL0     H30609   5.284   3.619  10.903  2.8260  0.8155  0.7342
  232MOL0     H30610   7.276   3.552  10.446 -0.5022  0.1373  0.4344
  232MOL0     H30611   7.488   3.481  10.337  0.5398  0.0758 -0.3902
  232MOL0     H30612   7.972   3.446  10.419 -4.2783 -0.6993 -0.2243
  232MOL0     H30613   8.192   3.389  10.312 -0.9323  0.4940 -0.4902
  232MOL0     H30614   8.273   2.998  10.115 -0.8813  0.1613 -0.1446
  232MOL0     H30615   8.261   3.037  10.287 -3.1643  0.7643  0.1904
  232MOL0     H30616   8.467   3.153  10.284 -1.7769  0.2945  0.8806
  232MOL0     H30617   8.486   2.984  10.229  2.5359 -0.3706 -3.3364
  232MOL0     H30618   8.473   3.221  10.034  2.1457  1.8290  1.2706
  232MOL0     H30619   8.467   3.046   9.996 -1.0583 -0.9709  2.4302
  232MOL0     H30620   8.695   3.025  10.091  1.1766  1.2199  3.8737
  232MOL0     H30621   8.693   3.151   9.967  0.0012  2.3047  0.6063
  232MOL0     H30622   8.821   3.320  10.331 -1.4392  0.8036  0.1987
  232MOL0     H30623   8.008   3.058  10.124  0.0974  1.1475 -1.9534
  232MOL0     H30624   7.789   3.105  10.221 -0.3949  0.3862 -1.7175
  233MOL0     O30625   0.466  10.961   1.703 -0.7102  0.4911 -0.0714
  233MOL0     C30626   0.411  10.877   1.629  0.3832 -0.4079  0.5251
  233MOL0     O30627   0.464  10.812   1.525 -0.0444  0.3919  0.1072
  233MOL0     C30628   0.580  10.847   1.463  0.4039  0.7263 -0.4902
  233MOL0     C30629   0.640  10.971   1.461 -0.1303  0.1107  0.5158
  233MOL0     C30630   0.764  11.005   1.394 -0.1789 -0.1113  0.2787
  233MOL0     C30631   0.822  10.910   1.312  0.5608 -0.3908 -0.2059
  233MOL0     O30632   0.921  10.938   1.223  0.3408 -0.2111 -0.1472
  233MOL0     C30633   1.014  10.830   1.183 -0.8205  0.2893 -0.5447
  233MOL0     C30634   1.134  10.891   1.106  0.9936 -0.1436 -0.3567
  233MOL0     C30635   1.222  10.976   1.196 -0.3130  0.6755 -0.4972
  233MOL0     C30636   1.334  11.050   1.121 -0.6387 -0.5346  0.3295
  233MOL0     C30637   1.438  11.097   1.226  0.0155  0.2093  0.4154
  233MOL0     C30638   1.573  11.142   1.174  0.5026  0.4628 -0.6091
  233MOL0     C30639   1.619  11.059   1.051 -0.5722 -0.0395  0.5824
  233MOL0     C30640   1.734  11.113   0.967  0.7601  0.1790 -0.1606
  233MOL0     N30641   1.852  11.150   1.048  0.4311 -0.3298 -0.1615
  233MOL0     C30642   1.966  11.084   1.014  0.0759  0.1387 -0.7387
  233MOL0     C30643   2.062  11.151   1.085 -0.2650  0.5449 -0.3447
  233MOL0     C30644   2.201  11.105   1.096  0.5576  0.4580 -0.5226
  233MOL0     C30645   2.280  11.162   1.214  0.2316 -0.6544  0.1870
  233MOL0     C30646   2.221  11.144   1.355  0.6507  0.5785 -0.3542
  233MOL0     C30647   2.153  11.011   1.375  0.2286  0.6215 -0.3832
  233MOL0     O30648   2.131  10.989   1.509  0.7468 -0.0070  0.1638
  233MOL0     C30649   2.007  11.010   1.563 -0.0885  0.2162 -0.8551
  233MOL0     C30650   1.879  11.030   1.505  1.0438  0.5420  0.2903
  233MOL0     C30651   1.760  11.037   1.573  0.3224 -0.0310 -0.0442
  233MOL0     C30652   1.757  11.014   1.712  0.6816  0.7284  0.5166
  233MOL0     C30653   1.633  11.018   1.795 -0.0208 -0.0588 -0.0651
  233MOL0     O30654   1.532  11.099   1.744 -0.0859  0.2299 -0.0319
  233MOL0     C30655   1.413  11.106   1.814  0.5152 -0.6875  0.0179
  233MOL0     C30656   1.389  11.109   1.955  0.3240 -0.2402  0.4315
  233MOL0     C30657   1.258  11.125   2.005  0.2110 -0.3237  0.9509
  233MOL0     C30658   1.157  11.160   1.917 -0.5049 -0.3451  0.7099
  233MOL0     O30659   1.025  11.153   1.951 -0.0856  0.0058  0.0627
  233MOL0     C30660   0.973  11.290   1.963 -0.3241 -0.2036  0.1420
  233MOL0     C30661   0.824  11.279   2.009 -0.0281  0.5137 -0.4099
  233MOL0     C30662   0.768  11.418   2.040  0.4973 -0.7087 -0.4351
  233MOL0     C30663   0.644  11.424   2.126 -0.4469 -0.6734  0.1764
  233MOL0     C30664   0.568  11.552   2.118  0.7015 -0.2810  0.5850
  233MOL0     C30665   0.507  11.579   1.980  0.2355  0.2678 -0.1248
  233MOL0     C30666   0.410  11.692   1.992  0.5830 -0.0225  0.7173
  233MOL0     C30667   0.319  11.710   1.862 -0.2658  0.0083 -1.4720
  233MOL0    Cl30668   0.193  11.827   1.912  0.4328 -0.2554  0.1826
  233MOL0     C30669   1.186  11.173   1.776  0.7381 -0.4029  0.4749
  233MOL0     C30670   1.311  11.145   1.722 -0.5766  0.3377 -0.2322
  233MOL0     O30671   1.623  10.948   1.893  0.0744  0.1233  0.1675
  233MOL0     C30672   1.885  10.993   1.779 -1.0967  0.1862  0.7444
  233MOL0     C30673   2.004  10.992   1.700 -0.2469 -0.0617 -0.5598
  233MOL0     N30674   2.002  11.264   1.142  0.0402  0.4335 -0.4039
  233MOL0     N30675   1.878  11.253   1.127  0.0000  0.0102 -0.2758
  233MOL0     C30676   0.762  10.784   1.310 -0.1148  0.2279  0.1035
  233MOL0     C30677   0.645  10.751   1.387  0.0794  0.1762  0.1426
  233MOL0     C30678   0.267  10.856   1.666  0.4984  0.0590  0.1982
  233MOL0     C30679   0.197  10.943   1.749  0.1755 -0.0038  0.6822
  233MOL0     C30680   0.059  10.932   1.785  0.4867 -0.4981  0.5434
  233MOL0     C30681  -0.004  10.818   1.741  0.5693  0.2559 -0.3121
  233MOL0     O30682  -0.141  10.806   1.776 -0.4212  0.4884  0.2671
  233MOL0     C30683  -0.211  10.693   1.719 -0.6088 -0.1384 -0.4215
  233MOL0     C30684  -0.356  10.716   1.736 -0.3447 -0.1707 -0.9465
  233MOL0     C30685  -0.405  10.824   1.657 -0.0607 -0.4351 -1.2159
  233MOL0     C30686  -0.560  10.808   1.637  0.6669 -0.4206 -0.6436
  233MOL0     C30687  -0.609  10.929   1.586  1.1260  0.4134  0.3341
  233MOL0     C30688  -0.651  11.032   1.534  0.7097  0.4877 -0.1206
  233MOL0     C30689   0.065  10.734   1.654 -0.2038 -0.0042  0.2912
  233MOL0     C30690   0.194  10.746   1.613  0.3873 -0.3035 -0.1874
  233MOL0     H30691   0.598  11.056   1.514 -1.3827 -0.7013  0.8835
  233MOL0     H30692   0.799  11.107   1.386 -1.7176  0.4529  0.3045
  233MOL0     H30693   0.980  10.756   1.110  0.9246 -1.4806  0.3359
  233MOL0     H30694   1.048  10.783   1.275 -2.1373  3.1763  1.5773
  233MOL0     H30695   1.092  10.949   1.023  0.5671 -1.6162 -1.2080
  233MOL0     H30696   1.194  10.815   1.055  1.2611  1.8002 -3.2314
  233MOL0     H30697   1.265  10.909   1.270 -0.0927 -0.7236 -1.8557
  233MOL0     H30698   1.156  11.046   1.250 -1.8023 -0.7394 -0.4060
  233MOL0     H30699   1.369  10.978   1.047 -2.5311 -0.2649 -0.8868
  233MOL0     H30700   1.297  11.144   1.078  0.1808  0.6558  2.0675
  233MOL0     H30701   1.456  11.015   1.297  1.4974 -1.9202 -2.1974
  233MOL0     H30702   1.400  11.182   1.282 -0.8143 -0.2843  0.6090
  233MOL0     H30703   1.650  11.142   1.252 -0.5744  1.7573  0.5192
  233MOL0     H30704   1.550  11.243   1.139  1.4632  1.6102  1.8385
  233MOL0     H30705   1.657  10.963   1.088  0.2497  0.3438  0.7461
  233MOL0     H30706   1.539  11.046   0.978 -1.2517  1.7934  0.9543
  233MOL0     H30707   1.704  11.208   0.922  2.5448  1.4377  1.1181
  233MOL0     H30708   1.771  11.050   0.885  1.2188 -0.4710  0.5270
  233MOL0     H30709   1.976  10.989   0.962  0.6865 -0.0489 -0.2979
  233MOL0     H30710   2.251  11.152   1.011 -0.0540 -1.2991 -1.9177
  233MOL0     H30711   2.210  10.997   1.083 -1.6723  0.1298  0.1204
  233MOL0     H30712   2.286  11.270   1.199  2.0043 -0.6678  0.5214
  233MOL0     H30713   2.380  11.117   1.208  1.5865  2.2619 -1.1235
  233MOL0     H30714   2.306  11.159   1.422  1.8924  0.9129 -1.9431
  233MOL0     H30715   2.143  11.218   1.376  0.2915  0.5793 -1.5883
  233MOL0     H30716   2.204  10.917   1.352  0.9665  0.7832  0.5264
  233MOL0     H30717   2.063  10.999   1.315  1.8723 -0.6992 -2.7294
  233MOL0     H30718   1.876  11.039   1.397  1.3031  1.4291  0.3473
  233MOL0     H30719   1.674  11.064   1.513  0.2756 -1.9579 -0.9479
  233MOL0     H30720   1.462  11.071   2.025  1.2680  0.7323  0.0045
  233MOL0     H30721   1.237  11.109   2.111 -2.3319 -1.4764  0.3402
  233MOL0     H30722   0.978  11.350   1.872 -0.5001 -0.1189  0.1887
  233MOL0     H30723   1.034  11.344   2.036 -0.7516 -1.0760  1.1722
  233MOL0     H30724   0.816  11.215   2.098  0.0654  1.3525  0.2130
  233MOL0     H30725   0.767  11.243   1.922 -0.5178  3.0773 -1.2163
  233MOL0     H30726   0.751  11.463   1.942  0.3964  0.6364  0.1756
  233MOL0     H30727   0.846  11.473   2.093 -0.7352 -0.3385  1.0952
  233MOL0     H30728   0.579  11.348   2.081  0.4385 -0.5206 -1.4260
  233MOL0     H30729   0.672  11.389   2.226  1.1707 -2.8004 -0.9229
  233MOL0     H30730   0.635  11.634   2.146 -0.1048  0.7991 -0.5007
  233MOL0     H30731   0.485  11.557   2.189 -0.4273  0.2992 -0.7140
  233MOL0     H30732   0.452  11.491   1.946  0.2733 -0.5097  1.7513
  233MOL0     H30733   0.590  11.604   1.912 -1.2050 -1.4093 -2.6744
  233MOL0     H30734   0.340  11.685   2.076 -1.0356 -1.4898 -0.6843
  233MOL0     H30735   0.466  11.785   2.006  1.2302  0.1544 -2.3870
  233MOL0     H30736   0.269  11.619   1.827 -1.1784  0.1944 -0.7100
  233MOL0     H30737   0.379  11.758   1.784 -0.7310 -0.2240 -1.9804
  233MOL0     H30738   1.105  11.181   1.704  0.7537 -1.6421  0.2957
  233MOL0     H30739   1.341  11.143   1.618 -0.8185  1.3283 -0.3325
  233MOL0     H30740   1.893  10.978   1.887  3.8010  0.6484  0.6880
  233MOL0     H30741   2.098  10.987   1.755 -0.6863  1.0230  0.3043
  233MOL0     H30742   0.792  10.706   1.242  0.8137  0.5005  0.1885
  233MOL0     H30743   0.608  10.652   1.362  1.0150  0.1901 -1.4071
  233MOL0     H30744   0.250  11.029   1.787 -3.0960  2.1932  0.7303
  233MOL0     H30745   0.007  11.000   1.852  0.1440 -0.5576  0.3396
  233MOL0     H30746  -0.169  10.604   1.767  0.2145  0.4258 -0.0578
  233MOL0     H30747  -0.190  10.688   1.612 -0.2541 -0.8784 -0.3221
  233MOL0     H30748  -0.411  10.621   1.733  1.8175 -1.6430  1.3959
  233MOL0     H30749  -0.377  10.753   1.837  0.9598 -0.5665 -0.5099
  233MOL0     H30750  -0.374  10.831   1.552 -0.4398 -0.3802 -1.3254
  233MOL0     H30751  -0.386  10.922   1.701  0.8580 -1.3209  0.4384
  233MOL0     H30752  -0.582  10.733   1.561  1.6496  0.8469 -2.2504
  233MOL0     H30753  -0.608  10.803   1.735  1.5414  2.4433  0.0268
  233MOL0     H30754  -0.688  11.117   1.479  1.1909 -0.8838 -2.7413
  233MOL0     H30755   0.012  10.647   1.614 -1.3061  0.6361  0.3266
  233MOL0     H30756   0.235  10.665   1.555 -0.4261 -0.9083  0.0586
  234MOL0     O30757   8.388   9.069  10.460 -0.5118  0.6319 -0.3604
  234MOL0     C30758   8.430   9.082  10.348  0.3119  0.0173  0.0700
  234MOL0     O30759   8.354   9.082  10.233 -0.2129  0.0399 -0.1252
  234MOL0     C30760   8.224   9.103  10.234 -0.0581  0.3338  0.2982
  234MOL0     C30761   8.174   9.145  10.108 -0.3531  0.0351 -0.1251
  234MOL0     C30762   8.035   9.173  10.099  0.0738 -0.4691 -0.4908
  234MOL0     C30763   7.944   9.154  10.209  0.3209 -0.0329  0.1660
  234MOL0     O30764   7.814   9.181  10.202  0.4526 -0.3714  0.1361
  234MOL0     C30765   7.760   9.166  10.071  0.5115  0.1920  0.6704
  234MOL0     C30766   7.608   9.148  10.077 -1.0366  0.1455 -0.6447
  234MOL0     C30767   7.539   9.185   9.951  0.0873  0.1051  0.0024
  234MOL0     C30768   7.392   9.195   9.979 -0.1479 -0.6493  0.9949
  234MOL0     C30769   7.303   9.206   9.855 -0.3476 -0.4472 -0.2291
  234MOL0     C30770   7.158   9.226   9.897  0.6856  0.7483  0.8741
  234MOL0     C30771   7.072   9.261   9.777 -0.2159  0.7981  0.3290
  234MOL0     C30772   6.927   9.299   9.804 -0.0796 -0.6890 -0.7860
  234MOL0     N30773   6.843   9.211   9.885 -0.3531  0.5850 -0.0996
  234MOL0     C30774   6.822   9.238  10.014  0.3027  0.5930 -0.4065
  234MOL0     C30775   6.717   9.168  10.056  0.6977  0.5410 -0.6050
  234MOL0     C30776   6.693   9.125  10.194 -0.1048 -0.2156 -0.8198
  234MOL0     C30777   6.779   9.020  10.242 -0.0832 -0.5889 -0.0257
  234MOL0     C30778   6.751   8.989  10.394  0.8302 -0.3883 -0.1514
  234MOL0     C30779   6.858   8.893  10.454 -0.2363  0.4056 -1.5118
  234MOL0     O30780   6.815   8.860  10.582  0.3252  0.1642 -0.0193
  234MOL0     C30781   6.906   8.808  10.673 -0.3209  0.3008 -0.1493
  234MOL0     C30782   7.036   8.767  10.645  0.4927 -0.4542  0.8107
  234MOL0     C30783   7.114   8.694  10.740  0.1911  0.2360 -0.3280
  234MOL0     C30784   7.061   8.655  10.868 -0.7168 -0.2820  0.2618
  234MOL0     C30785   7.147   8.574  10.956 -0.7063 -1.5356 -0.1518
  234MOL0     O30786   7.271   8.533  10.908 -0.3470 -0.8122 -0.3522
  234MOL0     C30787   7.361   8.465  10.992  0.1007  1.1226 -0.5239
  234MOL0     C30788   7.322   8.378  11.102 -0.7304 -0.1322 -0.3575
  234MOL0     C30789   7.420   8.324  11.186 -0.4781 -0.9196 -0.6815
  234MOL0     C30790   7.553   8.357  11.148 -0.0358  0.6149  0.7586
  234MOL0     O30791   7.665   8.302  11.208 -0.3880  0.7809 -0.5971
  234MOL0     C30792   7.645   8.210  11.317 -0.3669 -0.3115  0.3703
  234MOL0     C30793   7.779   8.177  11.381  0.5518 -0.0680  0.1246
  234MOL0     C30794   7.885   8.115  11.287 -0.6663 -0.3106  0.8265
  234MOL0     C30795   8.025   8.101  11.356 -0.2322  0.6745 -0.1360
  234MOL0     C30796   8.026   8.022  11.488 -0.5906  0.2962  0.2032
  234MOL0     C30797   8.016   7.879  11.434  0.1743  0.1005  0.3474
  234MOL0     C30798   7.995   7.796  11.570 -0.8467  0.8404 -0.6516
  234MOL0     C30799   8.000   7.644  11.540 -0.8267  0.0544 -0.2094
  234MOL0    Cl30800   8.150   7.588  11.454 -0.0928 -0.1352  0.2155
  234MOL0     C30801   7.587   8.445  11.040  0.1074  0.3841 -0.4362
  234MOL0     C30802   7.487   8.504  10.967 -0.5205 -0.4515  0.4942
  234MOL0     O30803   7.110   8.562  11.071  0.1071 -0.0764 -0.0674
  234MOL0     C30804   6.927   8.697  10.898 -0.5648 -0.2092 -0.1056
  234MOL0     C30805   6.853   8.770  10.800 -0.5822  0.7936  0.4624
  234MOL0     N30806   6.665   9.104   9.946 -0.2402  0.3142 -0.4253
  234MOL0     N30807   6.744   9.129   9.841 -0.8452 -0.3921 -0.0504
  234MOL0     C30808   7.996   9.102  10.328  0.4492 -0.3978  0.7102
  234MOL0     C30809   8.136   9.078  10.336  0.3692 -0.3904  0.4663
  234MOL0     C30810   8.576   9.104  10.332 -0.6661 -0.1327  0.0830
  234MOL0     C30811   8.667   9.091  10.441  0.0504  0.4880  0.1728
  234MOL0     C30812   8.803   9.117  10.423  0.3997  1.2379 -0.2864
  234MOL0     C30813   8.854   9.150  10.302 -0.2404 -0.6117 -0.0914
  234MOL0     O30814   8.989   9.176  10.274 -0.6522  0.2863 -0.4685
  234MOL0     C30815   9.094   9.172  10.376  0.5033  0.0979  1.1302
  234MOL0     C30816   9.231   9.167  10.307 -0.0295  0.2383  0.5761
  234MOL0     C30817   9.346   9.195  10.399 -0.2761 -0.0059 -0.8043
  234MOL0     C30818   9.486   9.190  10.330  0.6183 -0.4942 -0.0371
  234MOL0     C30819   9.596   9.250  10.411  0.0150  0.1840 -0.2305
  234MOL0     C30820   9.686   9.300  10.467  0.3595  0.1084 -0.2731
  234MOL0     C30821   8.767   9.154  10.188  0.3976  0.3066  0.1497
  234MOL0     C30822   8.635   9.130  10.208  1.0666  0.0062  0.3277
  234MOL0     H30823   8.234   9.157  10.019 -2.6202 -1.8316 -2.0489
  234MOL0     H30824   7.987   9.222  10.014 -2.3676  3.4057  2.7794
  234MOL0     H30825   7.795   9.075  10.022 -1.5759 -2.3691  3.4981
  234MOL0     H30826   7.784   9.256  10.014 -0.1157  0.6634  1.1303
  234MOL0     H30827   7.577   9.207  10.164  1.9638  2.1627 -0.8058
  234MOL0     H30828   7.578   9.045  10.095  0.3525 -0.1015  0.4102
  234MOL0     H30829   7.559   9.118   9.867  1.7328 -0.8022  1.0670
  234MOL0     H30830   7.576   9.281   9.915  0.6977 -1.1444 -3.0548
  234MOL0     H30831   7.352   9.105  10.027 -1.6099 -0.9150 -0.6182
  234MOL0     H30832   7.382   9.288  10.036  1.1027  1.4761 -2.0232
  234MOL0     H30833   7.316   9.117   9.792 -1.0357 -1.5361  1.1197
  234MOL0     H30834   7.336   9.294   9.798  3.3504 -0.6964  1.2257
  234MOL0     H30835   7.146   9.304   9.973 -0.8993  2.6489 -1.1729
  234MOL0     H30836   7.131   9.131   9.945  3.0172 -1.3046 -1.5459
  234MOL0     H30837   7.112   9.347   9.723  0.2439  0.3759 -0.0225
  234MOL0     H30838   7.071   9.174   9.709 -2.6017  0.6987  0.4219
  234MOL0     H30839   6.884   9.318   9.705 -0.2692 -0.4932 -0.6670
  234MOL0     H30840   6.923   9.399   9.847 -0.5517 -1.4418  1.0250
  234MOL0     H30841   6.882   9.307  10.073 -1.0164  1.0741  0.4019
  234MOL0     H30842   6.589   9.089  10.199  0.4161 -1.8785 -1.3499
  234MOL0     H30843   6.699   9.204  10.269  3.3963 -0.5900 -0.5355
  234MOL0     H30844   6.880   9.061  10.235 -0.7907  1.9948  2.7307
  234MOL0     H30845   6.766   8.935  10.174 -1.8726 -0.3186 -0.0835
  234MOL0     H30846   6.741   9.083  10.451 -1.0300 -0.9678  0.5317
  234MOL0     H30847   6.652   8.944  10.388  0.9193 -0.4294 -1.7885
  234MOL0     H30848   6.955   8.942  10.462  0.1054 -0.4014 -0.5018
  234MOL0     H30849   6.864   8.801  10.394 -0.6041 -1.2810  0.9130
  234MOL0     H30850   7.081   8.773  10.547  2.2868 -2.7378  1.3965
  234MOL0     H30851   7.213   8.659  10.713  1.1069  0.8165  1.9879
  234MOL0     H30852   7.219   8.347  11.114 -0.4443 -0.7883  0.4893
  234MOL0     H30853   7.389   8.279  11.279 -3.4891  2.6722  0.3008
  234MOL0     H30854   7.603   8.119  11.273 -1.3064  0.5512 -0.5801
  234MOL0     H30855   7.584   8.245  11.401 -0.1274 -1.7312  1.1671
  234MOL0     H30856   7.760   8.107  11.463  0.1140  1.3293  1.2390
  234MOL0     H30857   7.816   8.273  11.416  2.6905  0.3359 -2.8332
  234MOL0     H30858   7.910   8.184  11.206  3.5227 -0.4973  1.7416
  234MOL0     H30859   7.850   8.018  11.252  3.3612 -2.2766  1.7531
  234MOL0     H30860   8.088   8.058  11.278  0.7986 -1.9957  2.0039
  234MOL0     H30861   8.053   8.203  11.384 -0.8993  1.4580 -2.1251
  234MOL0     H30862   7.951   8.058  11.558  0.1622  2.4547 -0.0313
  234MOL0     H30863   8.123   8.031  11.538 -1.7850  0.6263  2.5932
  234MOL0     H30864   8.107   7.862  11.377  2.0097  1.6254  2.6610
  234MOL0     H30865   7.922   7.871  11.377 -1.1657  0.4148  2.4015
  234MOL0     H30866   8.077   7.814  11.640  0.4227 -3.0074 -0.9245
  234MOL0     H30867   7.906   7.821  11.627 -0.1021 -0.8211  1.3237
  234MOL0     H30868   7.919   7.617  11.472 -0.1295 -0.3887 -0.8879
  234MOL0     H30869   7.998   7.581  11.629  1.7560 -0.8291 -0.6771
  234MOL0     H30870   7.693   8.456  11.018 -0.1857  0.8026 -1.7353
  234MOL0     H30871   7.511   8.564  10.880  0.4270 -0.4876  0.7289
  234MOL0     H30872   6.881   8.671  10.993  1.6018 -3.9309  0.1232
  234MOL0     H30873   6.755   8.805  10.830  0.2579  2.1507  1.7092
  234MOL0     H30874   7.926   9.077  10.407 -0.1029 -0.3009  0.2545
  234MOL0     H30875   8.166   9.031  10.429 -1.0289 -0.9432  0.6721
  234MOL0     H30876   8.639   9.068  10.542  0.8204 -0.3291  0.2111
  234MOL0     H30877   8.866   9.077  10.502 -0.2254 -0.8801 -0.7763
  234MOL0     H30878   9.078   9.080  10.432 -4.7612  0.1245  0.1690
  234MOL0     H30879   9.082   9.261  10.438 -3.4687  1.1417 -0.8153
  234MOL0     H30880   9.253   9.067  10.267 -0.2716  0.2521  0.4078
  234MOL0     H30881   9.236   9.245  10.230 -0.4896 -0.8680 -0.6123
  234MOL0     H30882   9.337   9.126  10.484 -0.3990  0.9091 -0.0539
  234MOL0     H30883   9.336   9.297  10.437 -0.8470  0.1376 -1.3244
  234MOL0     H30884   9.507   9.094  10.281  2.0521  1.2256 -3.1154
  234MOL0     H30885   9.480   9.246  10.236 -0.4477  0.3025  0.4786
  234MOL0     H30886   9.772   9.351  10.505  2.1672 -1.7230 -1.7117
  234MOL0     H30887   8.799   9.173  10.086  1.3035  0.8736  0.5255
  234MOL0     H30888   8.572   9.157  10.124  1.6931  2.7527  0.6638
  235MOL0     O30889   6.725   3.186   7.736 -0.3306 -0.4339 -0.2105
  235MOL0     C30890   6.819   3.129   7.671  1.7339  0.5550  0.3790
  235MOL0     O30891   6.803   3.025   7.590 -0.4235  0.5569  0.4572
  235MOL0     C30892   6.677   2.969   7.577 -0.3687  0.1042  0.6015
  235MOL0     C30893   6.605   2.899   7.679  1.6066  0.0452 -0.4119
  235MOL0     C30894   6.466   2.864   7.659 -0.4607  0.7217  0.4675
  235MOL0     C30895   6.411   2.900   7.537  1.0537  1.0440 -0.1221
  235MOL0     O30896   6.281   2.855   7.512  0.4255  0.5853  1.0216
  235MOL0     C30897   6.176   2.907   7.590  0.0491  0.6881 -0.2035
  235MOL0     C30898   6.067   2.795   7.606 -0.0776 -0.2651 -1.3536
  235MOL0     C30899   5.933   2.866   7.651 -0.6240  0.5032 -0.4763
  235MOL0     C30900   5.812   2.779   7.609  0.7983  0.8896 -0.6100
  235MOL0     C30901   5.689   2.830   7.687 -0.4736  0.1045 -0.1582
  235MOL0     C30902   5.596   2.710   7.693 -0.1619  0.4559 -0.3916
  235MOL0     C30903   5.470   2.756   7.769 -0.3783 -0.5246 -0.1512
  235MOL0     C30904   5.367   2.639   7.771 -0.6734 -0.5369 -0.9564
  235MOL0     N30905   5.228   2.668   7.799  0.3999  0.0332 -0.9493
  235MOL0     C30906   5.118   2.659   7.720  0.2939 -0.7212 -0.5924
  235MOL0     C30907   5.010   2.695   7.786  0.1070 -0.3519 -0.4675
  235MOL0     C30908   4.872   2.694   7.732 -0.5205 -0.2063  0.4909
  235MOL0     C30909   4.769   2.611   7.811  0.0801 -0.5107 -0.0732
  235MOL0     C30910   4.634   2.610   7.741 -0.1233 -0.0448  0.0733
  235MOL0     C30911   4.521   2.529   7.811  0.3193 -0.6621 -0.0041
  235MOL0     O30912   4.492   2.581   7.944  0.4317  0.5063  0.5899
  235MOL0     C30913   4.397   2.522   8.029  0.2090 -0.2942 -0.3485
  235MOL0     C30914   4.329   2.403   7.999  0.4842 -0.4020  0.7203
  235MOL0     C30915   4.223   2.359   8.077  0.3291  0.3639 -0.1713
  235MOL0     C30916   4.188   2.427   8.197  0.5935 -0.2192  0.3601
  235MOL0     C30917   4.063   2.390   8.276 -0.4099 -0.5430 -0.8384
  235MOL0     O30918   4.014   2.476   8.370  0.4108  0.9335  0.3688
  235MOL0     C30919   3.910   2.436   8.446 -0.2036  0.2710  0.3129
  235MOL0     C30920   3.784   2.492   8.409 -0.6704 -0.1284 -0.4097
  235MOL0     C30921   3.668   2.474   8.489 -0.2113 -0.8154  0.0500
  235MOL0     C30922   3.679   2.382   8.601 -0.1661 -0.1486  0.7257
  235MOL0     O30923   3.567   2.348   8.662  0.4168 -0.4388 -0.0684
  235MOL0     C30924   3.460   2.433   8.682 -0.1199 -0.2176  0.2934
  235MOL0     C30925   3.382   2.390   8.807 -0.9762  0.0174  0.3886
  235MOL0     C30926   3.260   2.474   8.835 -0.7761 -0.2093 -0.5340
  235MOL0     C30927   3.143   2.409   8.768 -0.0335 -0.5531 -0.2241
  235MOL0     C30928   3.014   2.489   8.804 -0.0272  0.3590  0.0440
  235MOL0     C30929   2.909   2.495   8.699 -0.0552 -0.3461 -0.1682
  235MOL0     C30930   2.792   2.578   8.752 -0.9705  0.7219  0.5545
  235MOL0     C30931   2.678   2.609   8.652 -0.8290  0.2679  0.0351
  235MOL0    Cl30932   2.568   2.470   8.605  0.3697 -0.1112  0.0571
  235MOL0     C30933   3.795   2.308   8.616  0.1970  0.6567 -0.4752
  235MOL0     C30934   3.913   2.343   8.548  0.7235  1.0777 -0.1149
  235MOL0     O30935   4.010   2.282   8.246 -0.0466 -0.5210 -0.1998
  235MOL0     C30936   4.254   2.543   8.230 -0.0879  0.1481  0.5184
  235MOL0     C30937   4.358   2.586   8.142 -0.9978 -0.1055  0.3810
  235MOL0     N30938   5.058   2.736   7.914  0.1292 -0.2562 -0.3000
  235MOL0     N30939   5.186   2.710   7.924 -0.7431 -0.4346  0.6386
  235MOL0     C30940   6.480   2.969   7.438 -0.7069 -0.0334 -0.1888
  235MOL0     C30941   6.613   3.000   7.460  0.5338  0.7242  1.2280
  235MOL0     C30942   6.961   3.163   7.708 -0.0792  0.2928 -1.0860
  235MOL0     C30943   7.068   3.122   7.621 -0.0016 -0.2445 -0.3825
  235MOL0     C30944   7.197   3.131   7.667 -0.4997 -1.0645 -0.0134
  235MOL0     C30945   7.226   3.200   7.785 -0.3716  0.3156  0.2851
  235MOL0     O30946   7.351   3.229   7.843 -0.4350 -0.2611 -0.2837
  235MOL0     C30947   7.470   3.191   7.780  0.3134 -0.5865 -0.5844
  235MOL0     C30948   7.499   3.276   7.658 -0.1654 -0.2290 -0.1743
  235MOL0     C30949   7.496   3.429   7.685 -0.5796  0.4283  0.3903
  235MOL0     C30950   7.521   3.511   7.553  0.3537 -0.3719 -0.3613
  235MOL0     C30951   7.557   3.653   7.572  0.4866 -0.0587  0.2637
  235MOL0     C30952   7.578   3.773   7.577  0.4210 -0.1425  0.2291
  235MOL0     C30953   7.120   3.248   7.856  0.6168 -0.4966 -0.0705
  235MOL0     C30954   6.989   3.232   7.818  0.2824  0.0536  1.2482
  235MOL0     H30955   6.657   2.876   7.772 -2.0864 -0.2271  1.7790
  235MOL0     H30956   6.414   2.805   7.734  0.2490  0.9929  1.1857
  235MOL0     H30957   6.136   2.981   7.520 -1.5998 -0.7757 -0.8653
  235MOL0     H30958   6.192   2.933   7.695 -3.0649 -0.4485  0.6520
  235MOL0     H30959   6.097   2.716   7.675  0.1728 -1.6888 -3.0335
  235MOL0     H30960   6.051   2.741   7.512 -1.2255 -1.9006 -0.2757
  235MOL0     H30961   5.921   2.958   7.592  0.5034  0.3248 -1.0135
  235MOL0     H30962   5.927   2.885   7.758 -0.8584  2.8464 -0.8454
  235MOL0     H30963   5.793   2.782   7.501 -1.0617  2.5816 -0.2982
  235MOL0     H30964   5.822   2.677   7.648 -1.8918  0.4015 -1.0078
  235MOL0     H30965   5.647   2.918   7.636  1.0609  1.3836  0.6995
  235MOL0     H30966   5.716   2.865   7.787  1.9241  0.3398 -0.8123
  235MOL0     H30967   5.641   2.619   7.735  0.9554 -0.7027 -3.7838
  235MOL0     H30968   5.564   2.686   7.591 -3.1684  0.2633  0.5137
  235MOL0     H30969   5.498   2.788   7.870  1.9398  3.5437 -1.8428
  235MOL0     H30970   5.431   2.835   7.704  1.3236  1.0848  0.6867
  235MOL0     H30971   5.404   2.560   7.837  0.9741  0.0654 -1.0937
  235MOL0     H30972   5.376   2.588   7.675 -3.3215 -0.4451 -1.3152
  235MOL0     H30973   5.117   2.642   7.613  1.1627  0.8482 -0.8731
  235MOL0     H30974   4.873   2.663   7.627 -0.3517 -1.7113  0.9207
  235MOL0     H30975   4.832   2.796   7.734 -0.0211  0.0702 -1.6230
  235MOL0     H30976   4.762   2.657   7.910  2.2238  3.7456 -1.6223
  235MOL0     H30977   4.817   2.513   7.820 -1.6253 -1.4755 -1.1159
  235MOL0     H30978   4.602   2.714   7.727  2.8148  1.0444  0.6890
  235MOL0     H30979   4.645   2.564   7.642  0.6006 -1.0130  0.5953
  235MOL0     H30980   4.543   2.422   7.820 -0.5224 -0.7548  1.2518
  235MOL0     H30981   4.433   2.539   7.747  0.8619  1.6905 -0.4763
  235MOL0     H30982   4.353   2.348   7.908 -1.7088  2.0837 -1.5583
  235MOL0     H30983   4.161   2.275   8.046  1.8214 -1.5116  1.7151
  235MOL0     H30984   3.782   2.563   8.326  2.9736  0.5419 -0.1048
  235MOL0     H30985   3.574   2.524   8.466 -0.0770 -0.1011  0.9699
  235MOL0     H30986   3.393   2.415   8.597  0.6995 -0.2399 -0.3638
  235MOL0     H30987   3.495   2.536   8.690  2.1931 -0.6987 -2.1426
  235MOL0     H30988   3.450   2.403   8.892 -0.3729 -0.6619  0.0177
  235MOL0     H30989   3.360   2.283   8.801 -0.1322 -0.0679 -1.8095
  235MOL0     H30990   3.265   2.573   8.788 -1.3411 -1.4656 -3.4462
  235MOL0     H30991   3.246   2.480   8.943  0.3953  0.2260 -0.3857
  235MOL0     H30992   3.155   2.404   8.659 -0.4744 -1.1258 -0.2493
  235MOL0     H30993   3.132   2.310   8.813  0.5456 -0.2222  0.6743
  235MOL0     H30994   3.032   2.592   8.836 -1.1774  1.1955 -1.8760
  235MOL0     H30995   2.975   2.440   8.894 -1.6411  2.1107  0.3621
  235MOL0     H30996   2.855   2.404   8.672 -0.7032 -0.0918  0.2576
  235MOL0     H30997   2.950   2.538   8.607  0.5910 -1.4109 -0.3992
  235MOL0     H30998   2.742   2.542   8.843  0.6514  0.4148  1.3693
  235MOL0     H30999   2.831   2.674   8.786  0.7863  1.1143 -2.2412
  235MOL0     H31000   2.732   2.644   8.564  1.0463 -0.6470  0.7624
  235MOL0     H31001   2.612   2.684   8.696 -1.5329 -0.2526 -0.1212
  235MOL0     H31002   3.793   2.229   8.690 -1.0960  0.8022 -0.3176
  235MOL0     H31003   3.994   2.282   8.585 -0.2380 -0.6285 -0.6830
  235MOL0     H31004   4.224   2.597   8.319  1.3359 -2.8336  3.0120
  235MOL0     H31005   4.403   2.683   8.160 -0.1024 -0.6862  1.4608
  235MOL0     H31006   6.428   3.008   7.351  0.6590 -0.3151 -1.1792
  235MOL0     H31007   6.657   3.054   7.376 -2.1809  1.5991  0.2512
  235MOL0     H31008   7.041   3.080   7.524  2.0294 -0.9238 -0.7062
  235MOL0     H31009   7.274   3.095   7.599 -0.1457  1.0940 -0.8674
  235MOL0     H31010   7.456   3.087   7.749 -2.2431 -0.2464 -0.7456
  235MOL0     H31011   7.559   3.196   7.843  0.6965  2.4419 -1.2028
  235MOL0     H31012   7.606   3.257   7.641  1.6110  5.1446  2.4953
  235MOL0     H31013   7.433   3.253   7.575  0.8667 -0.4677 -0.9539
  235MOL0     H31014   7.577   3.449   7.755 -0.0841 -1.2443  0.3454
  235MOL0     H31015   7.403   3.453   7.737  0.8871  1.4631  2.6984
  235MOL0     H31016   7.608   3.466   7.505 -0.5349 -0.9783 -1.4375
  235MOL0     H31017   7.430   3.500   7.493 -1.6109  1.2392  2.1208
  235MOL0     H31018   7.605   3.876   7.594  1.4278 -0.5723  1.4115
  235MOL0     H31019   7.130   3.292   7.955  0.7052  2.4395 -1.2767
  235MOL0     H31020   6.912   3.275   7.883 -0.8015  1.2194 -0.7224
  236MOL0     O31021   3.019   6.664   2.751 -0.4380 -0.3118  0.0692
  236MOL0     C31022   3.065   6.644   2.862  0.3260  0.9259 -0.3731
  236MOL0     O31023   2.993   6.596   2.977  0.2628 -0.3700 -0.0630
  236MOL0     C31024   2.852   6.587   2.977  0.5496 -1.0067 -0.0088
  236MOL0     C31025   2.792   6.485   3.058  0.4230  0.3580  0.5246
  236MOL0     C31026   2.654   6.475   3.072  0.5047 -0.3647  0.5636
  236MOL0     C31027   2.565   6.552   2.994  0.1124 -0.0840 -0.8619
  236MOL0     O31028   2.428   6.521   3.003  0.5678 -0.3747 -0.1390
  236MOL0     C31029   2.335   6.586   2.914  0.1111 -0.0549 -0.1103
  236MOL0     C31030   2.345   6.548   2.766 -0.2486 -0.5271  0.1363
  236MOL0     C31031   2.243   6.619   2.675  1.5742  0.3356  0.1334
  236MOL0     C31032   2.103   6.572   2.719  0.0746  0.0872 -0.0334
  236MOL0     C31033   1.998   6.649   2.630  0.9861 -0.1042  0.0196
  236MOL0     C31034   1.856   6.608   2.664 -0.0269 -1.3685  0.6513
  236MOL0     C31035   1.755   6.684   2.570 -0.4367  0.2110  0.6557
  236MOL0     C31036   1.624   6.682   2.634  0.4414 -0.4736  0.6341
  236MOL0     N31037   1.532   6.752   2.552 -0.4205  0.1431 -0.6560
  236MOL0     C31038   1.514   6.885   2.548  0.6044  0.6200  0.0430
  236MOL0     C31039   1.393   6.912   2.491  0.1441  0.0562  0.1732
  236MOL0     C31040   1.316   7.041   2.492 -0.4219 -0.0202 -0.3635
  236MOL0     C31041   1.199   7.052   2.580  0.3513 -0.2685 -0.3686
  236MOL0     C31042   1.071   6.967   2.558  0.5900 -0.1637  0.9274
  236MOL0     C31043   0.955   7.011   2.638 -0.1544 -0.0664 -0.0468
  236MOL0     O31044   0.838   6.932   2.600  0.5338  0.6754  0.4331
  236MOL0     C31045   0.718   6.976   2.651 -0.3864  0.0864  0.0461
  236MOL0     C31046   0.609   6.905   2.624 -0.3063 -0.5993 -0.6496
  236MOL0     C31047   0.481   6.947   2.663  0.4968 -0.8490 -0.2298
  236MOL0     C31048   0.464   7.070   2.726  0.1596  1.1384  0.3626
  236MOL0     C31049   0.329   7.112   2.770  0.1544  0.0333  0.0263
  236MOL0     O31050   0.215   7.039   2.730 -0.3948 -0.5487  0.6601
  236MOL0     C31051   0.100   7.096   2.774 -0.4958 -0.2682 -0.3232
  236MOL0     C31052   0.047   7.033   2.882  0.0927 -0.4704  0.3530
  236MOL0     C31053  -0.065   7.084   2.944 -0.1404  0.4802 -0.8592
  236MOL0     C31054  -0.133   7.199   2.899 -0.1162 -0.3358  0.2385
  236MOL0     O31055  -0.244   7.234   2.973 -0.1988 -0.1137  1.0967
  236MOL0     C31056  -0.321   7.344   2.916 -0.5518  0.4599 -0.0678
  236MOL0     C31057  -0.443   7.370   3.008  0.5682  0.4811  0.5706
  236MOL0     C31058  -0.535   7.242   3.023 -0.4275 -0.3917 -0.1799
  236MOL0     C31059  -0.655   7.269   3.112  0.0273 -0.2645 -0.6048
  236MOL0     C31060  -0.747   7.145   3.107 -0.3602 -1.0368  0.3888
  236MOL0     C31061  -0.870   7.145   3.201 -0.1645 -0.2785  0.4904
  236MOL0     C31062  -0.951   7.270   3.184 -0.6093 -0.1474  0.1802
  236MOL0     C31063  -1.090   7.257   3.256  0.1040 -0.0927  0.0903
  236MOL0    Cl31064  -1.147   7.426   3.262  0.3971 -0.4024 -0.0463
  236MOL0     C31065  -0.076   7.261   2.795  0.0744 -0.5821  0.3549
  236MOL0     C31066   0.040   7.209   2.728  0.4118 -0.0123  0.5353
  236MOL0     O31067   0.329   7.219   2.833  0.3948 -0.2979  0.5402
  236MOL0     C31068   0.575   7.140   2.751 -0.6463  0.0461  0.5131
  236MOL0     C31069   0.707   7.097   2.724  0.3589 -0.4371  0.8655
  236MOL0     N31070   1.349   6.793   2.448  0.5514 -0.2823 -1.1196
  236MOL0     N31071   1.421   6.698   2.492  0.4463 -0.0561 -0.2789
  236MOL0     C31072   2.618   6.662   2.927  0.0119 -0.3506 -0.0914
  236MOL0     C31073   2.764   6.676   2.908  0.2058 -0.0310  0.1434
  236MOL0     C31074   3.216   6.644   2.871  0.2224  0.1138 -0.3547
  236MOL0     C31075   3.277   6.669   2.994  0.1846 -0.7842 -0.0329
  236MOL0     C31076   3.414   6.672   3.001  0.5088 -0.0615  0.0806
  236MOL0     C31077   3.498   6.653   2.882 -1.8829  0.1482  0.2397
  236MOL0     O31078   3.628   6.663   2.861  0.1511  0.3109  0.0592
  236MOL0     C31079   3.715   6.615   2.964 -0.4619  0.8749 -0.3647
  236MOL0     C31080   3.787   6.732   3.032 -0.0400 -0.2954  0.7022
  236MOL0     C31081   3.895   6.793   2.945  0.4542  0.3996  0.4274
  236MOL0     C31082   3.939   6.917   3.008 -0.0787  0.1592 -0.5383
  236MOL0     C31083   4.067   6.964   2.939  0.2193  0.2648 -0.1101
  236MOL0     C31084   4.161   7.014   2.888 -0.6364 -0.0977  0.3340
  236MOL0     C31085   3.433   6.633   2.763  0.0938  0.0506  0.2187
  236MOL0     C31086   3.294   6.618   2.756 -0.9155  0.0530 -0.8386
  236MOL0     H31087   2.849   6.441   3.139  2.8750 -0.7702 -1.6603
  236MOL0     H31088   2.617   6.401   3.143 -0.0321 -1.6090 -0.9657
  236MOL0     H31089   2.346   6.693   2.931 -0.0081  0.6282 -3.5361
  236MOL0     H31090   2.235   6.550   2.941  0.1399  0.1939  0.3193
  236MOL0     H31091   2.326   6.442   2.750 -0.5178 -0.2448 -1.6490
  236MOL0     H31092   2.448   6.561   2.730 -0.3463 -3.6981 -1.6438
  236MOL0     H31093   2.256   6.598   2.569  2.1668 -0.7369  0.4011
  236MOL0     H31094   2.248   6.728   2.680 -1.3947  0.5176  1.2804
  236MOL0     H31095   2.096   6.464   2.703  1.0833 -0.1157  0.7761
  236MOL0     H31096   2.089   6.591   2.826  0.4043  1.7785 -0.2649
  236MOL0     H31097   2.018   6.629   2.525  1.8265  0.8218 -0.0108
  236MOL0     H31098   2.013   6.757   2.640  0.8031  0.0102 -0.8731
  236MOL0     H31099   1.847   6.629   2.771  1.0540  2.9607  0.0901
  236MOL0     H31100   1.853   6.502   2.637  1.1756 -0.9965 -1.0886
  236MOL0     H31101   1.798   6.784   2.561  1.0625 -0.5115 -0.7692
  236MOL0     H31102   1.752   6.643   2.469 -2.1674  2.2814 -0.2253
  236MOL0     H31103   1.622   6.738   2.728 -1.0395 -0.9792  0.9302
  236MOL0     H31104   1.590   6.580   2.656 -3.1812  0.5686  0.4814
  236MOL0     H31105   1.578   6.961   2.592 -0.5771 -0.3393  3.7980
  236MOL0     H31106   1.287   7.087   2.397  0.2188  2.6563  0.6399
  236MOL0     H31107   1.389   7.112   2.533 -0.4709  0.7948 -1.6185
  236MOL0     H31108   1.166   7.157   2.577  0.6136 -0.2021 -2.7644
  236MOL0     H31109   1.242   7.032   2.679 -1.1619 -0.2408  0.3349
  236MOL0     H31110   1.036   6.960   2.455 -1.7691  3.6359  1.2635
  236MOL0     H31111   1.098   6.865   2.586  1.9539 -0.4840 -1.3119
  236MOL0     H31112   0.942   7.118   2.618 -3.1932  0.5325  3.8984
  236MOL0     H31113   0.973   6.998   2.745 -2.8757  0.4229  0.5499
  236MOL0     H31114   0.625   6.813   2.568  2.6963  0.1029 -1.1216
  236MOL0     H31115   0.397   6.881   2.645 -0.5875 -0.1623  1.9693
  236MOL0     H31116   0.094   6.942   2.918  1.4134 -0.3834 -1.0598
  236MOL0     H31117  -0.107   7.037   3.033 -0.1351 -1.6171 -1.9013
  236MOL0     H31118  -0.357   7.320   2.816  2.0092  3.3901 -1.8535
  236MOL0     H31119  -0.258   7.433   2.919  1.5071 -0.9375  1.0869
  236MOL0     H31120  -0.507   7.451   2.971 -0.4019 -0.2346  0.6384
  236MOL0     H31121  -0.403   7.398   3.106  0.4461  1.2817  0.3968
  236MOL0     H31122  -0.472   7.166   3.069  1.0077 -1.0372 -3.0096
  236MOL0     H31123  -0.583   7.211   2.930 -2.4364  1.1519  0.2619
  236MOL0     H31124  -0.625   7.292   3.215 -1.4427 -2.1344  0.3012
  236MOL0     H31125  -0.716   7.350   3.071  0.1902  0.1290 -0.0828
  236MOL0     H31126  -0.682   7.064   3.142  3.5459  1.3582 -0.7046
  236MOL0     H31127  -0.790   7.128   3.008 -1.5937 -2.4527  1.1404
  236MOL0     H31128  -0.841   7.130   3.306  1.7768  3.2789  0.6465
  236MOL0     H31129  -0.925   7.058   3.166 -0.0240  0.7500 -2.5502
  236MOL0     H31130  -0.896   7.358   3.218 -4.6966  2.2785  1.2022
  236MOL0     H31131  -0.966   7.285   3.077  3.1042 -1.1435 -0.6484
  236MOL0     H31132  -1.080   7.218   3.357 -0.6615  1.7947  0.9373
  236MOL0     H31133  -1.161   7.194   3.202  0.1952  0.3296 -0.5401
  236MOL0     H31134  -0.121   7.345   2.743  1.4954 -1.0182 -1.7167
  236MOL0     H31135   0.082   7.248   2.635  1.9184 -0.3905  1.0226
  236MOL0     H31136   0.580   7.241   2.791  2.2687 -0.1234  0.8400
  236MOL0     H31137   0.787   7.169   2.717  1.0297 -1.0504  1.9982
  236MOL0     H31138   2.554   6.733   2.876  0.0968  0.6585  1.1791
  236MOL0     H31139   2.799   6.756   2.844 -2.5951  1.0626 -0.1303
  236MOL0     H31140   3.217   6.694   3.080 -1.0398 -1.0674 -0.7859
  236MOL0     H31141   3.460   6.713   3.091 -0.6131  1.4592  0.0017
  236MOL0     H31142   3.795   6.558   2.916 -1.6723 -2.5781  1.4341
  236MOL0     H31143   3.663   6.554   3.037 -0.5220  1.7869  0.3825
  236MOL0     H31144   3.720   6.810   3.069  0.4092  1.3850 -1.7978
  236MOL0     H31145   3.835   6.689   3.121  1.4883 -0.6534 -0.2631
  236MOL0     H31146   3.848   6.818   2.849  3.3874 -1.7355 -1.7683
  236MOL0     H31147   3.975   6.721   2.923 -0.6362 -0.6095 -0.3512
  236MOL0     H31148   3.868   7.000   3.011  0.6152  0.8495  4.1303
  236MOL0     H31149   3.952   6.890   3.113 -1.7410  0.6011 -0.1899
  236MOL0     H31150   4.243   7.058   2.834  0.2677 -1.8674  0.2093
  236MOL0     H31151   3.486   6.609   2.672  0.1850  1.1790 -0.0387
  236MOL0     H31152   3.254   6.592   2.658  1.1572 -3.0821 -0.9952
  237MOL0     O31153   8.067   6.048   4.975 -0.3875 -0.2809  0.3613
  237MOL0     C31154   8.125   6.118   4.894  0.1492  0.1759  0.2109
  237MOL0     O31155   8.057   6.202   4.805 -0.1125 -0.0152  0.0780
  237MOL0     C31156   7.918   6.198   4.793  0.4019 -0.0678 -0.4611
  237MOL0     C31157   7.837   6.081   4.781 -0.7500  0.2135  0.5469
  237MOL0     C31158   7.698   6.077   4.779 -0.1873 -0.4359  1.3920
  237MOL0     C31159   7.628   6.199   4.779  0.0617 -0.7221  0.1864
  237MOL0     O31160   7.491   6.205   4.764  0.0538 -0.3920  0.2167
  237MOL0     C31161   7.408   6.166   4.872  0.0057 -0.2442 -0.3301
  237MOL0     C31162   7.270   6.157   4.815 -0.1524  0.0274  0.7971
  237MOL0     C31163   7.187   6.086   4.916  0.4449 -0.0229  0.0916
  237MOL0     C31164   7.040   6.109   4.883 -0.3040  0.3532 -0.3042
  237MOL0     C31165   6.969   6.030   4.994 -0.1329 -0.0215  0.0136
  237MOL0     C31166   6.820   6.037   4.989  0.5010 -0.7281 -0.7680
  237MOL0     C31167   6.735   5.929   5.064  0.0372  0.0793  0.3468
  237MOL0     C31168   6.579   5.967   5.083  0.0780 -0.2512 -0.1358
  237MOL0     N31169   6.487   5.893   4.990  0.6312  0.1766  0.0689
  237MOL0     C31170   6.431   5.782   5.053  0.5369  0.4402  0.0776
  237MOL0     C31171   6.340   5.743   4.963  0.8275 -0.0807 -1.7185
  237MOL0     C31172   6.244   5.627   4.976  0.0448  0.8896 -0.3208
  237MOL0     C31173   6.322   5.510   4.905  0.1190  0.1922  1.0638
  237MOL0     C31174   6.215   5.401   4.880  0.4507 -0.3743 -0.4565
  237MOL0     C31175   6.075   5.445   4.826 -0.2212 -0.7281 -1.2309
  237MOL0     O31176   6.010   5.326   4.769 -0.2059  0.2971 -0.7473
  237MOL0     C31177   5.883   5.316   4.820 -0.0087 -0.5006 -0.0512
  237MOL0     C31178   5.866   5.284   4.952  0.6506  0.5455 -0.3854
  237MOL0     C31179   5.736   5.273   5.008  0.5070  0.5338 -0.6811
  237MOL0     C31180   5.625   5.323   4.933  0.0205 -1.0746 -0.0243
  237MOL0     C31181   5.490   5.340   4.991 -0.5261  0.3078  0.0049
  237MOL0     O31182   5.411   5.434   4.930  0.3796  0.1735 -0.0176
  237MOL0     C31183   5.286   5.464   4.976 -0.6227  0.2772 -0.4925
  237MOL0     C31184   5.205   5.522   4.882  0.3661  0.0501 -0.1195
  237MOL0     C31185   5.078   5.568   4.917  0.1702 -0.0572 -0.4762
  237MOL0     C31186   5.027   5.549   5.050  0.5900  0.3831  0.5898
  237MOL0     O31187   4.911   5.594   5.087  1.0606  0.2566 -0.3202
  237MOL0     C31188   4.820   5.651   4.984 -0.3296 -0.2177  0.3705
  237MOL0     C31189   4.692   5.673   5.052  0.5401 -0.7484  0.0466
  237MOL0     C31190   4.710   5.777   5.172  0.3035  0.4848  1.0009
  237MOL0     C31191   4.582   5.862   5.184  0.8358  0.0143 -0.2940
  237MOL0     C31192   4.573   5.938   5.317  0.8092  0.2064 -0.2032
  237MOL0     C31193   4.427   5.976   5.352 -0.0239  0.6191  0.9206
  237MOL0     C31194   4.428   6.031   5.488  0.4427 -0.0739 -0.8533
  237MOL0     C31195   4.320   6.136   5.495  0.5144 -0.0201 -0.7277
  237MOL0    Cl31196   4.292   6.198   5.668 -0.6961  0.0800  0.5967
  237MOL0     C31197   5.115   5.490   5.147  0.2175 -0.1081 -0.1041
  237MOL0     C31198   5.239   5.439   5.108 -0.3857  0.5667  0.2668
  237MOL0     O31199   5.459   5.264   5.083  0.1181  0.7966 -0.2495
  237MOL0     C31200   5.641   5.347   4.795 -1.2609 -0.4232  0.2873
  237MOL0     C31201   5.773   5.345   4.736 -0.8331 -0.4881  0.3426
  237MOL0     N31202   6.346   5.824   4.850  0.3294  0.1646  0.2176
  237MOL0     N31203   6.428   5.923   4.869 -0.3223  0.4562  0.5664
  237MOL0     C31204   7.697   6.317   4.780  0.6808 -0.0294  0.3022
  237MOL0     C31205   7.839   6.318   4.784 -0.6870  0.8821 -0.8729
  237MOL0     C31206   8.269   6.108   4.883  0.3390 -0.3912  0.3651
  237MOL0     C31207   8.344   6.203   4.821  0.2281  0.0613  0.0700
  237MOL0     C31208   8.482   6.208   4.827  0.9844 -0.9921  0.7169
  237MOL0     C31209   8.554   6.101   4.889  0.1593 -0.2111 -0.0053
  237MOL0     O31210   8.692   6.090   4.886 -0.4649  0.1945  0.6172
  237MOL0     C31211   8.767   6.202   4.843  0.2886 -0.7888  0.4551
  237MOL0     C31212   8.901   6.204   4.910 -0.6407  0.0896  0.0319
  237MOL0     C31213   8.968   6.065   4.896  0.3109  0.0408 -0.0611
  237MOL0     C31214   9.096   6.046   4.984  0.1127 -0.8818 -0.0443
  237MOL0     C31215   9.191   6.143   4.949  0.7959  0.8147  0.2194
  237MOL0     C31216   9.279   6.220   4.909  0.1012 -0.1402 -0.8485
  237MOL0     C31217   8.477   6.002   4.950 -0.6036 -0.2018  0.4990
  237MOL0     C31218   8.334   5.994   4.937 -0.2219 -0.2893 -0.2586
  237MOL0     H31219   7.886   5.984   4.787  0.7366  0.7712 -1.6495
  237MOL0     H31220   7.639   5.986   4.782  0.1115 -0.6285  1.5076
  237MOL0     H31221   7.424   6.231   4.959 -2.6030 -1.3030  1.0496
  237MOL0     H31222   7.441   6.067   4.906 -0.0136  0.1366  0.8448
  237MOL0     H31223   7.255   6.095   4.726  0.8664  0.8203  0.0374
  237MOL0     H31224   7.233   6.258   4.791 -0.4935  0.2139  2.0426
  237MOL0     H31225   7.201   6.123   5.017 -3.0056  1.1105  0.2759
  237MOL0     H31226   7.223   5.984   4.898  1.6740  0.7525 -2.4404
  237MOL0     H31227   7.018   6.215   4.898 -0.6335  0.1731  0.4844
  237MOL0     H31228   7.022   6.069   4.782  2.7502 -0.0637 -0.7928
  237MOL0     H31229   7.003   6.051   5.096  2.7703 -2.1302 -0.3827
  237MOL0     H31230   7.000   5.926   4.977  1.3200  0.6920 -2.2003
  237MOL0     H31231   6.782   6.033   4.887 -1.4106  1.9199 -0.2646
  237MOL0     H31232   6.791   6.134   5.032 -4.4698 -2.5242  0.5965
  237MOL0     H31233   6.758   5.833   5.017  2.4628  1.1622 -0.8429
  237MOL0     H31234   6.764   5.921   5.169 -1.1172  2.0313  0.8607
  237MOL0     H31235   6.573   6.073   5.056  0.1566 -0.0293  0.6927
  237MOL0     H31236   6.551   5.961   5.188  4.5997  0.6732  1.3522
  237MOL0     H31237   6.447   5.737   5.150 -0.4191  2.3362  1.1774
  237MOL0     H31238   6.147   5.659   4.936 -0.0815  0.5881 -0.2574
  237MOL0     H31239   6.226   5.601   5.081  0.6696 -2.7093 -0.9936
  237MOL0     H31240   6.412   5.469   4.952  0.5248 -0.4624 -0.2374
  237MOL0     H31241   6.358   5.553   4.810 -0.2344 -0.8227  0.4576
  237MOL0     H31242   6.255   5.335   4.802  0.1679 -2.4123  1.0376
  237MOL0     H31243   6.187   5.344   4.969 -1.5574  1.8007  0.3977
  237MOL0     H31244   6.084   5.524   4.750 -2.6060  1.2458  0.3757
  237MOL0     H31245   6.007   5.488   4.899 -1.8445 -1.7974 -2.0415
  237MOL0     H31246   5.950   5.237   5.002 -0.6900 -2.5459 -0.7940
  237MOL0     H31247   5.726   5.253   5.114  4.0058  2.9672  0.2519
  237MOL0     H31248   5.231   5.535   4.778 -0.4669  0.6553 -0.2632
  237MOL0     H31249   5.024   5.623   4.840  2.2840 -0.4262 -2.3297
  237MOL0     H31250   4.807   5.579   4.903  1.1770  1.5183 -1.4907
  237MOL0     H31251   4.851   5.739   4.927 -0.8778  1.3512  2.3670
  237MOL0     H31252   4.631   5.587   5.080 -3.0286  0.8976 -1.8775
  237MOL0     H31253   4.628   5.723   4.978 -0.5290  1.3296  2.2363
  237MOL0     H31254   4.795   5.844   5.154  0.6575  0.2740  1.8313
  237MOL0     H31255   4.719   5.712   5.260 -0.3472 -0.7235  0.1881
  237MOL0     H31256   4.588   5.931   5.100  1.1220 -0.2118 -0.4619
  237MOL0     H31257   4.492   5.801   5.176  0.7089  0.4204 -2.6820
  237MOL0     H31258   4.637   6.027   5.312  2.4962 -0.9014  0.8865
  237MOL0     H31259   4.607   5.878   5.402  0.3521  1.6128  1.0163
  237MOL0     H31260   4.354   5.896   5.333  0.8220 -0.1667  0.8994
  237MOL0     H31261   4.408   6.056   5.280  2.6610  0.7230  0.2023
  237MOL0     H31262   4.393   5.953   5.557  0.3455 -0.5549 -1.4324
  237MOL0     H31263   4.528   6.065   5.516 -0.0592 -0.2579  1.2775
  237MOL0     H31264   4.226   6.090   5.463  0.7710 -0.7238 -0.4769
  237MOL0     H31265   4.342   6.217   5.424  3.5574  0.6361  0.7679
  237MOL0     H31266   5.081   5.487   5.250  0.9572 -2.2727  0.1336
  237MOL0     H31267   5.298   5.398   5.190 -0.6869 -1.6753 -0.5467
  237MOL0     H31268   5.552   5.362   4.734 -1.2088  1.9627  0.6767
  237MOL0     H31269   5.781   5.365   4.630  3.9071 -0.0155  0.5502
  237MOL0     H31270   7.645   6.411   4.788  3.1196  1.2983  1.8176
  237MOL0     H31271   7.887   6.415   4.775 -0.8724  1.0602 -0.0447
  237MOL0     H31272   8.297   6.287   4.773  0.7275  0.1416 -0.2829
  237MOL0     H31273   8.517   6.290   4.764 -1.7413  0.2933  0.7222
  237MOL0     H31274   8.719   6.295   4.874  3.0352  0.2825  1.8884
  237MOL0     H31275   8.775   6.204   4.734  0.4854 -0.6089  0.4731
  237MOL0     H31276   8.966   6.281   4.866 -0.0472 -0.3578  0.1185
  237MOL0     H31277   8.898   6.224   5.018  1.9667  0.9857  0.0123
  237MOL0     H31278   9.003   6.039   4.795  1.6810  1.4175  0.0261
  237MOL0     H31279   8.897   5.989   4.929 -1.3094  2.6254  2.9527
  237MOL0     H31280   9.064   6.068   5.087  1.8657 -0.9104  0.5471
  237MOL0     H31281   9.144   5.949   4.974  0.5200 -0.7759  0.7728
  237MOL0     H31282   9.363   6.283   4.888 -1.3247  1.8425 -0.8298
  237MOL0     H31283   8.532   5.918   4.993  2.0720  1.2390  0.1442
  237MOL0     H31284   8.279   5.910   4.979 -2.4675  0.0708 -2.2600
  238MOL0     O31285   2.247   5.144   9.891  0.0362 -0.3498 -0.1358
  238MOL0     C31286   2.309   5.203   9.979 -0.0102 -0.5700 -0.4656
  238MOL0     O31287   2.263   5.226  10.098 -0.3688 -0.1703 -0.8555
  238MOL0     C31288   2.147   5.174  10.157  0.2049 -0.9630  0.2167
  238MOL0     C31289   2.047   5.104  10.096  0.4091 -0.6849 -0.1914
  238MOL0     C31290   1.937   5.067  10.176 -0.0433  0.1573 -0.5648
  238MOL0     C31291   1.923   5.105  10.312 -0.0268 -0.8239  0.0354
  238MOL0     O31292   1.823   5.059  10.384 -0.0602  0.5465 -0.4580
  238MOL0     C31293   1.729   5.162  10.416  0.6386 -0.4317  0.3425
  238MOL0     C31294   1.631   5.185  10.299 -0.7333 -0.2757  0.5400
  238MOL0     C31295   1.501   5.251  10.338  1.0238  0.9587  0.6002
  238MOL0     C31296   1.434   5.292  10.210  0.2604  0.3925  0.0642
  238MOL0     C31297   1.295   5.350  10.235 -0.1700  0.1720  0.0764
  238MOL0     C31298   1.238   5.417  10.111 -0.2265 -0.4256 -0.3562
  238MOL0     C31299   1.141   5.528  10.140 -0.1041 -0.0846 -0.5048
  238MOL0     C31300   1.009   5.482  10.213 -0.4696  0.6549  1.3451
  238MOL0     N31301   0.928   5.599  10.257  0.3569  0.3908 -0.5878
  238MOL0     C31302   0.955   5.656  10.378 -0.3668  0.2344  0.0944
  238MOL0     C31303   0.857   5.743  10.396 -0.6255 -0.2128 -0.3980
  238MOL0     C31304   0.830   5.827  10.517 -0.2628 -0.4047 -0.7181
  238MOL0     C31305   0.738   5.753  10.623  0.0717 -1.1994  0.7598
  238MOL0     C31306   0.587   5.758  10.563  0.2348  0.2051 -0.3693
  238MOL0     C31307   0.480   5.708  10.674 -0.3955  0.2593 -0.2878
  238MOL0     O31308   0.454   5.812  10.767  0.4871 -0.0967  0.1519
  238MOL0     C31309   0.355   5.808  10.865 -0.1425  0.2704 -0.0760
  238MOL0     C31310   0.338   5.918  10.951 -0.1748 -0.3204  0.3855
  238MOL0     C31311   0.235   5.923  11.051  0.3076  1.0761  0.2146
  238MOL0     C31312   0.144   5.819  11.052 -0.6051  0.0138  0.5591
  238MOL0     C31313   0.029   5.822  11.146  0.4567  0.2998  0.0976
  238MOL0     O31314  -0.076   5.739  11.120  0.3590  0.1842 -0.1172
  238MOL0     C31315  -0.182   5.745  11.208  0.1714  0.7775  0.1207
  238MOL0     C31316  -0.307   5.749  11.146 -0.3825  0.6265 -0.1989
  238MOL0     C31317  -0.424   5.771  11.216 -0.1112  0.2714  0.2635
  238MOL0     C31318  -0.422   5.778  11.358 -0.6389 -0.1075  0.6762
  238MOL0     O31319  -0.536   5.793  11.430  0.2620  0.0289  0.2805
  238MOL0     C31320  -0.576   5.673  11.506  0.3658 -0.4676  0.2730
  238MOL0     C31321  -0.708   5.707  11.571 -0.4566 -0.0683  1.2073
  238MOL0     C31322  -0.743   5.605  11.678  0.1560 -0.2410  0.7990
  238MOL0     C31323  -0.699   5.460  11.657 -0.4040  0.1450  0.2553
  238MOL0     C31324  -0.693   5.377  11.794 -0.0072  0.6750  0.0843
  238MOL0     C31325  -0.711   5.230  11.776  0.3672 -0.5788  1.1300
  238MOL0     C31326  -0.713   5.155  11.901 -0.4972  0.1841  0.0463
  238MOL0     C31327  -0.573   5.091  11.930  0.4342  0.4427 -0.0556
  238MOL0    Cl31328  -0.570   5.017  12.098  0.4697  0.7119 -0.1701
  238MOL0     C31329  -0.305   5.760  11.415 -0.1177 -0.3161 -0.4483
  238MOL0     C31330  -0.188   5.744  11.348  0.3682  0.1422  0.0176
  238MOL0     O31331   0.053   5.884  11.249  0.3616  0.0992 -0.1175
  238MOL0     C31332   0.162   5.707  10.965 -0.4179  0.4530  0.1978
  238MOL0     C31333   0.253   5.706  10.865 -0.6595  0.3891 -0.0933
  238MOL0     N31334   0.781   5.745  10.283  0.0527  0.2517  0.6497
  238MOL0     N31335   0.818   5.655  10.203  0.4915 -0.3671  0.0576
  238MOL0     C31336   2.025   5.179  10.373  0.6279 -0.5646 -0.2347
  238MOL0     C31337   2.136   5.210  10.295  0.0330  1.0611  0.1775
  238MOL0     C31338   2.428   5.279   9.940 -0.1032 -0.4873 -0.1978
  238MOL0     C31339   2.479   5.397  10.006  0.1454 -0.1232  0.3574
  238MOL0     C31340   2.600   5.455   9.957 -0.3905  0.3493  0.1374
  238MOL0     C31341   2.665   5.404   9.840  0.4166 -0.1541 -0.0072
  238MOL0     O31342   2.789   5.451   9.808 -0.3651  0.2784 -0.2660
  238MOL0     C31343   2.893   5.362   9.748  0.5263 -0.0988  0.4129
  238MOL0     C31344   3.019   5.436   9.748 -0.3691 -0.5716 -0.0706
  238MOL0     C31345   3.011   5.563   9.667  0.1535 -0.0253  1.0129
  238MOL0     C31346   3.154   5.641   9.675  0.8557 -0.3160 -0.3722
  238MOL0     C31347   3.161   5.761   9.593 -0.7283  0.4024 -0.1939
  238MOL0     C31348   3.171   5.863   9.530  0.7887  0.5775 -0.0479
  238MOL0     C31349   2.612   5.297   9.773  0.5321  0.4465 -0.0556
  238MOL0     C31350   2.494   5.235   9.819 -0.1588 -0.2205 -0.4035
  238MOL0     H31351   2.048   5.057   9.999 -5.6052  2.0046 -2.0271
  238MOL0     H31352   1.860   5.000  10.141 -0.5086 -0.3478  1.2932
  238MOL0     H31353   1.781   5.257  10.432  2.8717 -0.9812 -2.6976
  238MOL0     H31354   1.669   5.136  10.503 -1.2779  1.6497 -0.2340
  238MOL0     H31355   1.624   5.086  10.252 -2.0634 -0.1403  0.4161
  238MOL0     H31356   1.691   5.246  10.230  0.8196  1.1283  2.9772
  238MOL0     H31357   1.524   5.332  10.408 -2.7093 -2.0175  5.9470
  238MOL0     H31358   1.438   5.179  10.391  1.3044  2.0423  2.4843
  238MOL0     H31359   1.497   5.359  10.149 -0.0192 -0.3459 -1.0746
  238MOL0     H31360   1.424   5.205  10.144  1.3027  0.7042 -0.5374
  238MOL0     H31361   1.299   5.412  10.325 -0.1770 -3.4577  2.8039
  238MOL0     H31362   1.235   5.261  10.256 -0.6013  0.6936  1.1625
  238MOL0     H31363   1.192   5.343  10.046 -1.9729 -0.4420  0.8433
  238MOL0     H31364   1.320   5.468  10.059 -1.3715  2.0601  0.1728
  238MOL0     H31365   1.182   5.605  10.205  0.3092 -0.5031 -0.2657
  238MOL0     H31366   1.121   5.570  10.041  0.4190  0.6156 -0.3184
  238MOL0     H31367   1.046   5.424  10.297  0.1568  0.4103  0.9091
  238MOL0     H31368   0.949   5.416  10.149  0.1692  1.5572 -0.2427
  238MOL0     H31369   1.040   5.640  10.443 -0.3610  0.3370  0.1122
  238MOL0     H31370   0.787   5.924  10.491 -1.6539 -0.5743  0.7887
  238MOL0     H31371   0.928   5.836  10.565 -0.3763  0.2990 -0.6056
  238MOL0     H31372   0.745   5.795  10.724 -0.6860 -0.5223  0.5404
  238MOL0     H31373   0.772   5.650  10.632  0.3879 -1.4489 -2.2352
  238MOL0     H31374   0.558   5.858  10.530  0.1292  0.3622  0.1899
  238MOL0     H31375   0.576   5.699  10.472 -1.5143 -0.2302  0.0901
  238MOL0     H31376   0.521   5.622  10.727 -1.3477 -0.3560 -0.5275
  238MOL0     H31377   0.385   5.675  10.633 -0.1022 -1.6934  0.5100
  238MOL0     H31378   0.416   5.994  10.950 -2.6735  2.4822  0.9522
  238MOL0     H31379   0.229   6.011  11.115 -1.9172  0.3699  1.0799
  238MOL0     H31380  -0.315   5.747  11.038  1.2755 -1.8242 -0.3617
  238MOL0     H31381  -0.517   5.776  11.160 -0.4319 -2.6054  0.3870
  238MOL0     H31382  -0.496   5.650  11.577  1.8275 -0.5992 -1.3534
  238MOL0     H31383  -0.585   5.592  11.434 -1.2614  0.2606 -0.3720
  238MOL0     H31384  -0.781   5.706  11.490  2.4672  0.1258 -1.6693
  238MOL0     H31385  -0.707   5.807  11.614 -0.8416 -0.7719  2.9166
  238MOL0     H31386  -0.851   5.616  11.695  0.1043  1.1851 -0.1992
  238MOL0     H31387  -0.686   5.625  11.769 -0.3287  2.6059  0.5725
  238MOL0     H31388  -0.760   5.406  11.584  1.6388  0.0527 -1.4708
  238MOL0     H31389  -0.597   5.473  11.619 -0.7380  0.2805 -0.6131
  238MOL0     H31390  -0.763   5.416  11.869  0.0134 -1.6268  1.3784
  238MOL0     H31391  -0.592   5.396  11.833  0.0500  1.3622 -0.3752
  238MOL0     H31392  -0.633   5.190  11.711 -0.8695  0.3681 -1.0384
  238MOL0     H31393  -0.803   5.203  11.724  2.1581 -1.7390 -1.6705
  238MOL0     H31394  -0.737   5.228  11.979 -0.5693  1.2188 -0.9240
  238MOL0     H31395  -0.792   5.079  11.895  1.9073 -2.3974 -1.5047
  238MOL0     H31396  -0.495   5.165  11.948  0.3771  0.2167  1.2891
  238MOL0     H31397  -0.532   5.026  11.852 -0.7819 -0.4790  0.0324
  238MOL0     H31398  -0.301   5.760  11.524  0.1662  2.9640 -0.3678
  238MOL0     H31399  -0.100   5.720  11.406  0.0510  3.1573  1.9440
  238MOL0     H31400   0.080   5.637  10.971 -0.6081  0.6105 -0.5140
  238MOL0     H31401   0.259   5.619  10.800  1.7735 -1.1909  2.0557
  238MOL0     H31402   2.021   5.212  10.477 -0.9383  1.6543 -0.9240
  238MOL0     H31403   2.212   5.270  10.344 -0.9856  1.8687  0.8083
  238MOL0     H31404   2.434   5.446  10.092 -2.0890  1.7795 -1.7528
  238MOL0     H31405   2.643   5.542  10.008 -2.3581  0.0583  2.4626
  238MOL0     H31406   2.877   5.338   9.643  2.0628 -0.5080  0.2442
  238MOL0     H31407   2.898   5.266   9.800 -1.7948  0.1780  1.2818
  238MOL0     H31408   3.041   5.471   9.850 -2.9063  1.8380 -0.2297
  238MOL0     H31409   3.098   5.370   9.710  0.5080  0.8957 -0.8828
  238MOL0     H31410   2.931   5.629   9.701 -0.3306 -0.4483  0.7039
  238MOL0     H31411   2.986   5.532   9.565 -0.5538  0.1779  1.1167
  238MOL0     H31412   3.177   5.662   9.780  1.3666  1.0695 -0.7302
  238MOL0     H31413   3.234   5.572   9.646  0.8979 -1.7010  2.6624
  238MOL0     H31414   3.178   5.956   9.478  2.1267 -0.3219 -1.5723
  238MOL0     H31415   2.656   5.268   9.678 -2.0421  2.9149 -2.1769
  238MOL0     H31416   2.464   5.150   9.759 -0.3479  0.2206 -0.9407
  239MOL0     O31417   0.406   3.672   5.465 -0.2418 -0.0677 -1.3020
  239MOL0     C31418   0.481   3.579   5.500  0.1854 -0.0016 -0.3115
  239MOL0     O31419   0.452   3.490   5.599 -0.1906 -0.1283  0.2676
  239MOL0     C31420   0.339   3.506   5.676  0.7902 -0.3111 -0.9921
  239MOL0     C31421   0.328   3.627   5.749  0.7689 -0.0128 -1.0467
  239MOL0     C31422   0.212   3.648   5.827 -0.7270 -0.6275 -0.2893
  239MOL0     C31423   0.117   3.556   5.847 -0.2149  0.4061 -0.2385
  239MOL0     O31424   0.006   3.588   5.916  0.3179 -0.2635 -0.6692
  239MOL0     C31425  -0.130   3.534   5.900 -0.2846 -0.2245 -0.2322
  239MOL0     C31426  -0.210   3.591   6.008  0.3361 -0.6084  0.2077
  239MOL0     C31427  -0.210   3.745   6.016 -0.1258  0.6550 -0.0121
  239MOL0     C31428  -0.313   3.796   5.919  0.0463  0.5014 -0.3484
  239MOL0     C31429  -0.333   3.949   5.953 -0.3325  0.6061 -0.4762
  239MOL0     C31430  -0.457   4.019   5.905  0.0194 -0.1754  0.3143
  239MOL0     C31431  -0.594   3.956   5.911  0.5922 -0.4044  0.6126
  239MOL0     C31432  -0.701   4.042   5.840  0.5195 -0.4581  0.3584
  239MOL0     N31433  -0.843   3.989   5.823 -0.0755  0.7567  0.0666
  239MOL0     C31434  -0.941   3.986   5.919  0.4989 -0.0830  0.1110
  239MOL0     C31435  -1.055   3.982   5.848 -0.1493 -0.1574  0.6707
  239MOL0     C31436  -1.187   3.982   5.909 -0.0138  0.0344  0.1779
  239MOL0     C31437  -1.302   3.992   5.808 -0.9205  0.0373 -0.2997
  239MOL0     C31438  -1.432   3.964   5.877 -0.4730  0.4306  0.4771
  239MOL0     C31439  -1.558   3.995   5.786  0.5469  0.1359 -0.3638
  239MOL0     O31440  -1.674   3.956   5.861 -0.0818  0.0833  0.1508
  239MOL0     C31441  -1.798   3.986   5.805  0.4047 -0.4376 -0.2791
  239MOL0     C31442  -1.820   4.085   5.711  0.0099 -0.0226  1.2222
  239MOL0     C31443  -1.941   4.115   5.652 -0.8643  0.7177 -0.2031
  239MOL0     C31444  -2.053   4.042   5.705 -0.1214  0.1813  0.2862
  239MOL0     C31445  -2.189   4.050   5.640 -0.2673  0.4858  0.7295
  239MOL0     O31446  -2.301   4.023   5.713 -0.3651 -1.0000  0.2696
  239MOL0     C31447  -2.409   3.988   5.643  0.9226  0.1453 -0.1128
  239MOL0     C31448  -2.496   4.079   5.603  0.1488  0.1703  0.5827
  239MOL0     C31449  -2.617   4.050   5.554  0.0916  0.3285 -0.4392
  239MOL0     C31450  -2.651   3.916   5.538  0.5042 -0.4990 -0.3730
  239MOL0     O31451  -2.771   3.888   5.479  0.2702 -0.8210 -0.8371
  239MOL0     C31452  -2.860   3.986   5.434 -0.2812 -0.7545  0.2330
  239MOL0     C31453  -3.003   3.943   5.458  0.4337  0.1164  0.0663
  239MOL0     C31454  -3.101   4.002   5.361  0.1425  0.9050 -0.7967
  239MOL0     C31455  -3.235   3.935   5.382 -0.7472 -0.1669  0.4406
  239MOL0     C31456  -3.340   4.011   5.302  0.6414 -0.1361  0.1584
  239MOL0     C31457  -3.479   3.970   5.353  1.1840  0.3646 -0.2492
  239MOL0     C31458  -3.590   4.014   5.258 -0.1193  0.1900 -0.4137
  239MOL0     C31459  -3.728   3.997   5.326 -0.5292 -0.1451  0.5059
  239MOL0    Cl31460  -3.759   4.105   5.462  0.4716 -0.6171 -0.1280
  239MOL0     C31461  -2.559   3.814   5.553 -0.7959 -0.3770 -0.5771
  239MOL0     C31462  -2.445   3.856   5.626 -0.6002  0.6176  0.4778
  239MOL0     O31463  -2.180   4.074   5.520 -0.1061  0.4754 -0.1838
  239MOL0     C31464  -2.029   3.943   5.809  0.3501  0.4441  0.2902
  239MOL0     C31465  -1.906   3.920   5.855 -0.2537  0.3752  0.4580
  239MOL0     N31466  -1.022   3.990   5.711 -0.3744 -0.2154 -0.1256
  239MOL0     N31467  -0.893   3.984   5.700  1.0216  0.8150  0.6673
  239MOL0     C31468   0.133   3.432   5.786  0.3888  0.2684 -0.1449
  239MOL0     C31469   0.240   3.403   5.693  0.0539  0.3411 -0.8546
  239MOL0     C31470   0.611   3.573   5.425  0.1811  0.2282  0.4221
  239MOL0     C31471   0.633   3.639   5.309 -0.1677 -0.3113  0.1664
  239MOL0     C31472   0.758   3.628   5.243  0.1422  0.0481  0.0357
  239MOL0     C31473   0.864   3.556   5.304 -0.5010 -0.1640  0.4720
  239MOL0     O31474   0.993   3.551   5.252 -0.6898 -0.3277 -0.4416
  239MOL0     C31475   1.020   3.619   5.131  0.2753 -0.8524  0.0098
  239MOL0     C31476   1.167   3.594   5.095  0.2085 -0.4918  0.1117
  239MOL0     C31477   1.250   3.671   5.200  0.5449  0.7821  0.4943
  239MOL0     C31478   1.387   3.622   5.190 -0.5569 -0.1966  0.6245
  239MOL0     C31479   1.452   3.653   5.065  0.9039 -0.4869  0.1233
  239MOL0     C31480   1.512   3.691   4.969 -0.3948 -0.0448 -0.6200
  239MOL0     C31481   0.835   3.478   5.410 -0.9540 -0.3998 -0.2033
  239MOL0     C31482   0.708   3.489   5.477 -0.9395 -0.0487 -0.0210
  239MOL0     H31483   0.405   3.703   5.736 -0.4811  1.0406 -2.6315
  239MOL0     H31484   0.203   3.746   5.873  2.2879 -0.0143 -0.7641
  239MOL0     H31485  -0.125   3.426   5.912 -2.7148 -0.6120 -1.9061
  239MOL0     H31486  -0.157   3.567   5.799  1.7972 -1.2674 -1.1969
  239MOL0     H31487  -0.171   3.555   6.104  0.7030  0.0340  0.3068
  239MOL0     H31488  -0.314   3.557   6.001 -0.7084  2.1876  0.5389
  239MOL0     H31489  -0.116   3.794   5.987 -0.2815 -0.0697 -1.8689
  239MOL0     H31490  -0.233   3.774   6.119  1.6615 -2.5003  1.4140
  239MOL0     H31491  -0.284   3.780   5.815 -1.5918 -1.3779 -0.5762
  239MOL0     H31492  -0.407   3.746   5.947 -1.0522  2.5510 -0.1644
  239MOL0     H31493  -0.244   4.001   5.918  2.3539 -3.2305 -0.0106
  239MOL0     H31494  -0.338   3.956   6.062  0.0237 -1.0087 -0.3237
  239MOL0     H31495  -0.437   4.039   5.799  0.9349 -0.5672  0.4080
  239MOL0     H31496  -0.462   4.110   5.965  3.0698  1.8690 -2.1785
  239MOL0     H31497  -0.585   3.863   5.855 -1.0279 -0.3140  0.1582
  239MOL0     H31498  -0.624   3.940   6.016  0.8239  2.3197  1.1778
  239MOL0     H31499  -0.669   4.080   5.742  0.3107 -1.8070 -0.2482
  239MOL0     H31500  -0.707   4.131   5.903  1.7636  0.1972 -0.3992
  239MOL0     H31501  -0.936   4.001   6.027 -0.7471 -0.1853  0.1965
  239MOL0     H31502  -1.199   4.060   5.985 -1.1863  1.0892 -1.0350
  239MOL0     H31503  -1.208   3.882   5.948  0.2451 -1.2408 -2.6843
  239MOL0     H31504  -1.286   3.910   5.738  0.2546 -0.5589  0.6302
  239MOL0     H31505  -1.301   4.095   5.772 -1.7412  0.2860  0.3699
  239MOL0     H31506  -1.427   3.858   5.903  2.6602  0.5823  0.8430
  239MOL0     H31507  -1.437   4.021   5.970  2.0769  1.3049  0.1521
  239MOL0     H31508  -1.548   3.938   5.693 -2.7924  0.1425 -0.8697
  239MOL0     H31509  -1.556   4.101   5.759  1.8453 -0.2644 -2.0413
  239MOL0     H31510  -1.741   4.127   5.650 -0.6509 -3.7884 -2.7429
  239MOL0     H31511  -1.956   4.180   5.567  2.5760 -0.3120 -1.7911
  239MOL0     H31512  -2.470   4.184   5.602 -0.3265  0.2915 -0.3036
  239MOL0     H31513  -2.678   4.133   5.521  1.3766  1.8420  0.8508
  239MOL0     H31514  -2.839   3.993   5.327 -0.6771 -4.0193 -0.1811
  239MOL0     H31515  -2.864   4.083   5.483 -2.3230  0.4750 -2.1387
  239MOL0     H31516  -3.039   3.986   5.552 -0.1756  1.4074 -0.7379
  239MOL0     H31517  -3.011   3.835   5.442 -1.2216  0.6024 -2.9668
  239MOL0     H31518  -3.069   3.989   5.257 -2.1996 -1.8457 -1.3269
  239MOL0     H31519  -3.103   4.107   5.390  1.7588  0.6368  0.4749
  239MOL0     H31520  -3.239   3.835   5.339  0.5463  0.3534 -0.9703
  239MOL0     H31521  -3.256   3.927   5.489 -1.8935 -0.5548  0.2044
  239MOL0     H31522  -3.337   3.976   5.198 -1.2099 -0.2873  0.1147
  239MOL0     H31523  -3.320   4.118   5.294 -1.0793  0.0719 -2.9578
  239MOL0     H31524  -3.497   4.021   5.448 -3.4112  1.6926 -1.5791
  239MOL0     H31525  -3.496   3.864   5.369  0.2343  0.5692  0.1413
  239MOL0     H31526  -3.573   4.121   5.245  1.0603 -0.0480 -1.0077
  239MOL0     H31527  -3.573   3.964   5.162  1.8929  1.4094 -0.7504
  239MOL0     H31528  -3.752   3.893   5.348  0.8719 -0.3546  1.1765
  239MOL0     H31529  -3.797   4.038   5.251  1.0731 -0.1354 -1.0419
  239MOL0     H31530  -2.574   3.707   5.550  0.6097 -0.7252  1.9036
  239MOL0     H31531  -2.381   3.772   5.653  1.1092  1.6312 -0.2609
  239MOL0     H31532  -2.116   3.886   5.842  0.3774  0.1599 -0.1191
  239MOL0     H31533  -1.890   3.848   5.935  1.1894  0.2835  0.1240
  239MOL0     H31534   0.061   3.352   5.800 -0.3004  0.8230 -0.4088
  239MOL0     H31535   0.243   3.319   5.624  2.3478  0.5968 -1.1403
  239MOL0     H31536   0.560   3.703   5.261  0.6529  0.4034 -0.1461
  239MOL0     H31537   0.768   3.687   5.152  1.0539  2.0591  1.3743
  239MOL0     H31538   1.018   3.726   5.155  1.4696 -1.2558  2.1991
  239MOL0     H31539   0.946   3.593   5.055 -0.3427 -2.0787  0.9892
  239MOL0     H31540   1.175   3.487   5.117  1.3120 -0.8848 -1.8825
  239MOL0     H31541   1.186   3.632   4.994  0.9637 -0.5938  0.2109
  239MOL0     H31542   1.208   3.652   5.299 -0.8556 -0.2835 -0.2605
  239MOL0     H31543   1.239   3.777   5.178  1.4358  0.7756 -0.0454
  239MOL0     H31544   1.446   3.676   5.266  1.6460  1.3843 -2.0253
  239MOL0     H31545   1.391   3.514   5.208 -2.2938 -0.4006 -0.1078
  239MOL0     H31546   1.568   3.712   4.880  2.1469 -2.2201  0.3270
  239MOL0     H31547   0.914   3.414   5.449 -2.4617 -2.2047  0.0239
  239MOL0     H31548   0.701   3.428   5.566 -0.8095  0.5313  0.3917
  240MOL0     O31549   3.400   5.945   2.691  0.2278 -0.4269  0.6278
  240MOL0     C31550   3.434   5.864   2.610 -0.5757 -0.4153 -1.2935
  240MOL0     O31551   3.359   5.761   2.563 -1.1145 -0.2321 -0.0992
  240MOL0     C31552   3.235   5.733   2.617  0.6231  0.6171 -0.4176
  240MOL0     C31553   3.128   5.822   2.622 -0.9566  0.3546 -1.3454
  240MOL0     C31554   2.997   5.779   2.672 -0.4649  0.0320 -0.2467
  240MOL0     C31555   2.975   5.641   2.709 -0.1410 -0.1854 -0.3117
  240MOL0     O31556   2.853   5.577   2.733 -0.7202  0.2112  0.6293
  240MOL0     C31557   2.734   5.658   2.747  0.8234  0.7633  0.1622
  240MOL0     C31558   2.633   5.569   2.803 -0.2769 -0.7568 -0.1845
  240MOL0     C31559   2.505   5.639   2.856 -0.0187 -0.2709  0.4202
  240MOL0     C31560   2.414   5.537   2.930  0.4555  0.4462  1.2824
  240MOL0     C31561   2.260   5.583   2.922  0.1609  0.1067  0.3554
  240MOL0     C31562   2.231   5.657   3.054  0.4393  0.5477  0.5968
  240MOL0     C31563   2.086   5.715   3.075  0.1648  0.2729  0.4045
  240MOL0     C31564   2.078   5.796   3.206  0.5276  0.3233 -0.1102
  240MOL0     N31565   1.946   5.838   3.235  0.7031 -0.0445  0.1759
  240MOL0     C31566   1.828   5.788   3.193  0.3439  0.5564 -0.0122
  240MOL0     C31567   1.720   5.875   3.226  0.1156  0.4565  0.7045
  240MOL0     C31568   1.566   5.841   3.215  0.3127 -0.1201  0.4498
  240MOL0     C31569   1.531   5.728   3.316 -1.2391  0.5256  0.2284
  240MOL0     C31570   1.383   5.691   3.313 -0.7067 -0.0050  0.1016
  240MOL0     C31571   1.326   5.634   3.184  0.2375  0.3373 -0.1813
  240MOL0     O31572   1.194   5.586   3.214  0.1874  0.3887 -0.1318
  240MOL0     C31573   1.090   5.603   3.126  0.6360 -0.6383 -0.6084
  240MOL0     C31574   1.093   5.658   3.001  0.9184 -0.0439 -0.4974
  240MOL0     C31575   0.983   5.667   2.921  0.2562  0.5889 -0.0063
  240MOL0     C31576   0.855   5.635   2.979 -1.4030 -0.1617  1.0260
  240MOL0     C31577   0.727   5.674   2.906  0.2187  0.8791 -0.2476
  240MOL0     O31578   0.611   5.678   2.978  0.0359  0.5615  0.0380
  240MOL0     C31579   0.490   5.722   2.925  0.2922  0.0919  0.4862
  240MOL0     C31580   0.455   5.852   2.950  0.5083  1.1355 -0.4741
  240MOL0     C31581   0.320   5.890   2.922 -0.0619 -0.1074 -0.1298
  240MOL0     C31582   0.232   5.810   2.849  0.1878 -0.4764  0.7661
  240MOL0     O31583   0.112   5.863   2.825  0.3588 -0.0645  0.5114
  240MOL0     C31584   0.023   5.783   2.747 -0.0811  0.1756  0.4855
  240MOL0     C31585  -0.102   5.869   2.728  0.8651  0.0829 -0.4422
  240MOL0     C31586  -0.200   5.783   2.651  0.6710  0.3341 -0.0244
  240MOL0     C31587  -0.334   5.863   2.620 -0.2035 -0.1337  1.0869
  240MOL0     C31588  -0.417   5.782   2.521 -0.0257 -0.1201 -0.0334
  240MOL0     C31589  -0.541   5.864   2.469  0.0844  0.5810  0.2886
  240MOL0     C31590  -0.663   5.781   2.418 -0.2121 -0.2895 -0.4727
  240MOL0     C31591  -0.773   5.865   2.361 -0.2742 -0.1458  0.5237
  240MOL0    Cl31592  -0.912   5.750   2.328  0.0865  0.2441 -0.3368
  240MOL0     C31593   0.273   5.677   2.821  0.1584  0.3799  0.2605
  240MOL0     C31594   0.400   5.634   2.863 -0.7927  0.3467  0.1673
  240MOL0     O31595   0.736   5.711   2.792  0.1604  0.2405 -0.4526
  240MOL0     C31596   0.855   5.577   3.107  0.5712  0.8587  0.0715
  240MOL0     C31597   0.971   5.563   3.182  0.3096  1.0404 -0.0918
  240MOL0     N31598   1.778   5.978   3.286  0.1316  0.5992  0.2711
  240MOL0     N31599   1.901   5.956   3.291 -0.6630  0.5771  0.6002
  240MOL0     C31600   3.090   5.556   2.705 -0.1407  0.6955  0.9740
  240MOL0     C31601   3.212   5.603   2.652  0.3553  1.0483  0.6327
  240MOL0     C31602   3.570   5.880   2.558 -0.0276 -0.2009  0.5622
  240MOL0     C31603   3.609   5.788   2.465 -0.3454 -0.4703  0.5080
  240MOL0     C31604   3.743   5.791   2.416  0.4646  0.6341  0.4182
  240MOL0     C31605   3.833   5.891   2.457 -0.0228  0.3896  0.9013
  240MOL0     O31606   3.962   5.907   2.408 -0.6943 -0.2882 -0.1925
  240MOL0     C31607   4.022   5.826   2.307 -0.3681 -0.8196  0.1033
  240MOL0     C31608   4.122   5.914   2.232 -0.2941  0.5235  0.1849
  240MOL0     C31609   4.224   5.823   2.179  0.1120 -0.5671 -0.6712
  240MOL0     C31610   4.370   5.875   2.204 -0.8317  0.0246 -0.0560
  240MOL0     C31611   4.467   5.775   2.159 -0.1577  0.1093 -0.1222
  240MOL0     C31612   4.542   5.687   2.126 -0.1793 -0.5416 -0.0476
  240MOL0     C31613   3.797   5.979   2.557  0.2133  0.4367  0.1567
  240MOL0     C31614   3.664   5.972   2.609  0.0094  0.8329  0.6222
  240MOL0     H31615   3.139   5.925   2.589  4.2516  0.5988  0.2899
  240MOL0     H31616   2.926   5.859   2.687  1.4635  1.9501 -0.8576
  240MOL0     H31617   2.695   5.704   2.655  0.2244  2.1830  1.0906
  240MOL0     H31618   2.748   5.737   2.821 -3.4948  0.4382  1.5797
  240MOL0     H31619   2.673   5.525   2.895 -4.0716  2.7731  3.5501
  240MOL0     H31620   2.602   5.500   2.724 -1.6049  1.4580 -1.6992
  240MOL0     H31621   2.452   5.665   2.763 -2.2282 -1.6010  1.2194
  240MOL0     H31622   2.521   5.730   2.915  1.9419 -0.3083 -0.0103
  240MOL0     H31623   2.421   5.435   2.892  0.4168  1.6059 -2.1002
  240MOL0     H31624   2.440   5.531   3.037 -2.0682 -1.5608  1.8714
  240MOL0     H31625   2.191   5.498   2.922 -0.7169  0.7755 -1.3464
  240MOL0     H31626   2.241   5.643   2.832  1.4483 -0.9031 -0.6312
  240MOL0     H31627   2.309   5.730   3.076  1.0439 -0.5456  2.2395
  240MOL0     H31628   2.239   5.590   3.140 -3.4822  1.7387  2.1130
  240MOL0     H31629   2.048   5.776   2.992  0.5489  0.3902  0.3115
  240MOL0     H31630   2.020   5.629   3.084 -2.0482  1.9908  1.5579
  240MOL0     H31631   2.143   5.882   3.191  0.6211  0.0436 -1.4701
  240MOL0     H31632   2.122   5.731   3.282  0.3181 -1.4672 -1.4510
  240MOL0     H31633   1.822   5.686   3.155  2.0080  1.6292 -3.5746
  240MOL0     H31634   1.544   5.805   3.114 -0.9634 -1.2569  1.0890
  240MOL0     H31635   1.504   5.928   3.238 -0.3187  1.0322 -4.4687
  240MOL0     H31636   1.547   5.771   3.415 -1.9866  2.5862 -0.4929
  240MOL0     H31637   1.592   5.638   3.303 -0.2730  0.9127  1.7642
  240MOL0     H31638   1.362   5.619   3.392 -0.5980 -1.2065 -0.9220
  240MOL0     H31639   1.321   5.776   3.342  1.3399  1.4114  0.5051
  240MOL0     H31640   1.389   5.549   3.159 -0.1866 -0.6403  1.8519
  240MOL0     H31641   1.331   5.707   3.102 -2.2180 -0.6629 -1.3429
  240MOL0     H31642   1.188   5.693   2.962  0.7833 -0.9731 -1.7021
  240MOL0     H31643   1.002   5.709   2.823  2.8998  1.3895  0.7813
  240MOL0     H31644   0.530   5.915   2.996  1.5520 -1.3643  1.5467
  240MOL0     H31645   0.277   5.984   2.956 -4.4123 -1.6872 -0.6075
  240MOL0     H31646   0.002   5.688   2.797  1.1951 -1.0239 -1.1487
  240MOL0     H31647   0.072   5.760   2.652 -0.5561  0.4668  0.1656
  240MOL0     H31648  -0.086   5.955   2.662 -0.3868 -0.0366 -0.9215
  240MOL0     H31649  -0.144   5.909   2.821 -0.3463  2.9839 -2.1136
  240MOL0     H31650  -0.223   5.693   2.709 -1.3024 -0.0052 -1.2420
  240MOL0     H31651  -0.152   5.757   2.556 -1.0906 -2.0300 -0.3647
  240MOL0     H31652  -0.396   5.892   2.705 -1.4219  0.3412  0.0842
  240MOL0     H31653  -0.308   5.960   2.576 -3.2770  0.9232  1.4080
  240MOL0     H31654  -0.450   5.684   2.556  1.4078 -0.7625 -0.4120
  240MOL0     H31655  -0.359   5.752   2.433 -2.2452 -0.6512 -1.4011
  240MOL0     H31656  -0.506   5.933   2.392 -0.7803  1.3488  0.5550
  240MOL0     H31657  -0.576   5.929   2.550  0.9444 -0.5682  1.6060
  240MOL0     H31658  -0.627   5.717   2.337 -1.4031 -0.9395 -0.5057
  240MOL0     H31659  -0.702   5.709   2.491 -4.3567  2.1161 -0.0138
  240MOL0     H31660  -0.735   5.919   2.274  1.7475  1.4793  2.2813
  240MOL0     H31661  -0.796   5.937   2.440 -0.1444  2.2751 -1.5183
  240MOL0     H31662   0.212   5.614   2.757 -2.1773  3.6076 -0.9692
  240MOL0     H31663   0.442   5.537   2.838 -2.9680 -0.5304 -0.2921
  240MOL0     H31664   0.764   5.571   3.166  0.1205  1.2143 -0.5673
  240MOL0     H31665   0.967   5.531   3.286  1.0882 -2.2120 -0.9307
  240MOL0     H31666   3.091   5.449   2.722  1.8432  0.8253  1.9736
  240MOL0     H31667   3.295   5.535   2.635 -0.5774 -0.3375  1.3881
  240MOL0     H31668   3.549   5.703   2.435  0.0836 -1.9180  3.3657
  240MOL0     H31669   3.776   5.705   2.359  1.0893  1.4569 -0.4869
  240MOL0     H31670   3.965   5.771   2.232  0.5210 -0.8213 -0.5913
  240MOL0     H31671   4.079   5.748   2.358  1.5110  0.4772  0.1214
  240MOL0     H31672   4.080   5.958   2.141  0.3911 -1.5243 -1.1786
  240MOL0     H31673   4.163   5.982   2.307 -1.5119 -0.6891  2.0400
  240MOL0     H31674   4.197   5.811   2.074 -0.2014  0.0723 -0.6637
  240MOL0     H31675   4.223   5.726   2.229  3.1745 -0.2489  0.2120
  240MOL0     H31676   4.387   5.969   2.150 -1.0595  1.7178  2.5922
  240MOL0     H31677   4.394   5.892   2.310 -0.4021 -0.3068 -0.0997
  240MOL0     H31678   4.616   5.622   2.084 -1.1529 -1.9112  0.2997
  240MOL0     H31679   3.878   6.042   2.591 -1.4399  2.3128  0.7875
  240MOL0     H31680   3.634   6.031   2.695 -0.9624 -0.9345  1.5367
  241MOL0     O31681  11.091   0.374   2.756  0.7069 -0.6250  0.2130
  241MOL0     C31682  10.995   0.434   2.698 -0.1038 -0.2299 -0.2030
  241MOL0     O31683  10.984   0.569   2.699  0.0046 -0.3017  0.4119
  241MOL0     C31684  11.085   0.645   2.751 -0.2831 -0.8945  0.4730
  241MOL0     C31685  11.095   0.670   2.888  0.2378  0.2610  0.1331
  241MOL0     C31686  11.198   0.737   2.934  0.0913  0.3114  1.0573
  241MOL0     C31687  11.299   0.786   2.842 -0.0059 -0.2406 -0.3362
  241MOL0     O31688  11.410   0.851   2.881 -0.4173  0.7472  0.1097
  241MOL0     C31689  11.475   0.803   3.000 -0.5114  0.0586 -0.4011
  241MOL0     C31690  11.537   0.666   2.982  0.6137  0.3494 -0.4061
  241MOL0     C31691  11.618   0.612   3.107  1.3931 -0.8725 -0.0932
  241MOL0     C31692  11.669   0.472   3.100  0.3186 -0.8045  0.0634
  241MOL0     C31693  11.771   0.453   3.214  0.0831  0.0418 -0.4317
  241MOL0     C31694  11.734   0.494   3.357 -0.1168  0.0005 -0.5831
  241MOL0     C31695  11.843   0.463   3.462 -0.4120 -0.6845  0.6775
  241MOL0     C31696  11.882   0.315   3.463  0.4545  0.4561 -0.3022
  241MOL0     N31697  11.756   0.231   3.486 -0.1805 -0.2819  0.6900
  241MOL0     C31698  11.688   0.168   3.384 -0.4156  0.6176  0.0782
  241MOL0     C31699  11.605   0.078   3.446 -0.6425  0.8285 -0.1611
  241MOL0     C31700  11.522  -0.032   3.381 -0.4608  0.0556 -0.2359
  241MOL0     C31701  11.391   0.019   3.312  0.1361  0.1696 -0.6177
  241MOL0     C31702  11.283   0.046   3.421 -0.1631  0.2462  0.3056
  241MOL0     C31703  11.150  -0.010   3.373 -0.5140 -0.2524  0.1524
  241MOL0     O31704  11.054   0.026   3.477 -0.7664 -0.1945  0.4671
  241MOL0     C31705  10.924  -0.006   3.455  0.0878 -1.4878  0.7787
  241MOL0     C31706  10.887  -0.110   3.369  0.0593 -0.0202  0.1559
  241MOL0     C31707  10.755  -0.144   3.348 -0.5225 -0.0333  0.4809
  241MOL0     C31708  10.652  -0.088   3.418 -1.3872  0.1821 -0.4328
  241MOL0     C31709  10.512  -0.126   3.393 -0.3755 -0.9325  1.2775
  241MOL0     O31710  10.421  -0.025   3.409  0.2735  0.4146 -0.2118
  241MOL0     C31711  10.293  -0.066   3.389 -0.1696  0.0853  0.3427
  241MOL0     C31712  10.238  -0.074   3.260 -0.1041 -0.6523 -0.5228
  241MOL0     C31713  10.098  -0.090   3.248  0.9334 -0.5735 -0.1802
  241MOL0     C31714  10.007  -0.091   3.355  0.0754  0.1024  0.2037
  241MOL0     O31715   9.872  -0.079   3.332 -0.1749 -0.4490  0.2375
  241MOL0     C31716   9.771  -0.133   3.432 -0.4197  0.0094 -0.0672
  241MOL0     C31717   9.628  -0.132   3.373 -0.0140 -0.9794 -1.0932
  241MOL0     C31718   9.502  -0.110   3.481 -0.6681 -0.3838 -0.1567
  241MOL0     C31719   9.360  -0.142   3.423  0.6264 -0.3599 -0.6511
  241MOL0     C31720   9.254  -0.190   3.531 -0.2761  0.0653 -0.3200
  241MOL0     C31721   9.128  -0.233   3.455 -0.2965 -0.0234 -0.0867
  241MOL0     C31722   9.019  -0.278   3.553  1.0557 -0.0944 -0.4681
  241MOL0     C31723   8.881  -0.310   3.494 -1.3277 -0.1522  1.3340
  241MOL0    Cl31724   8.894  -0.444   3.372  0.0780  0.3993 -0.0107
  241MOL0     C31725  10.066  -0.081   3.475  0.3536  0.1813  0.2740
  241MOL0     C31726  10.206  -0.073   3.490 -0.5499 -0.4603 -0.0813
  241MOL0     O31727  10.494  -0.240   3.359  0.3085  0.2505 -0.3510
  241MOL0     C31728  10.684   0.019   3.505  0.3944 -0.7658 -1.9330
  241MOL0     C31729  10.817   0.065   3.515  0.5905 -0.2897 -0.5839
  241MOL0     N31730  11.627   0.091   3.577 -0.3930  0.8764 -0.9586
  241MOL0     N31731  11.718   0.178   3.605 -0.3298 -0.4340 -0.4585
  241MOL0     C31732  11.289   0.761   2.704 -1.0644  0.7684 -0.8256
  241MOL0     C31733  11.186   0.690   2.664  0.1547  0.1315  0.1453
  241MOL0     C31734  10.890   0.366   2.632  0.1638 -0.2213  0.5234
  241MOL0     C31735  10.882   0.227   2.628 -0.0891  0.0054  0.9593
  241MOL0     C31736  10.794   0.160   2.549  0.4392 -0.4018 -0.2318
  241MOL0     C31737  10.694   0.228   2.472  0.3067 -0.4338 -0.6578
  241MOL0     O31738  10.597   0.169   2.391 -0.2126 -0.4232  0.0627
  241MOL0     C31739  10.556   0.033   2.419  0.3459 -0.0946  0.1677
  241MOL0     C31740  10.523  -0.043   2.288 -0.3269 -0.6562 -0.6143
  241MOL0     C31741  10.642  -0.056   2.189  0.5399  0.2011 -0.8320
  241MOL0     C31742  10.762  -0.140   2.248  1.1619 -0.3504  0.2369
  241MOL0     C31743  10.856  -0.173   2.146 -0.2724 -0.5799 -0.2678
  241MOL0     C31744  10.932  -0.193   2.052 -0.1209 -0.4427  1.2445
  241MOL0     C31745  10.697   0.369   2.482  1.3597  0.0709  0.3435
  241MOL0     C31746  10.794   0.442   2.557  0.2046 -0.5588  0.4126
  241MOL0     H31747  11.015   0.633   2.951  0.9639  1.9026  2.1236
  241MOL0     H31748  11.211   0.748   3.042  1.5369 -0.0637  0.9481
  241MOL0     H31749  11.401   0.807   3.081 -1.2101  0.1987 -1.0344
  241MOL0     H31750  11.558   0.866   3.032  0.5015 -1.5866  0.3771
  241MOL0     H31751  11.599   0.671   2.892  0.0772  1.1896 -0.7438
  241MOL0     H31752  11.463   0.589   2.958 -0.3648  1.1435 -0.0023
  241MOL0     H31753  11.549   0.623   3.192 -0.6739 -1.7066 -1.5675
  241MOL0     H31754  11.703   0.679   3.124 -0.3101  2.4263 -3.0966
  241MOL0     H31755  11.584   0.403   3.109  0.1276 -0.7804 -1.3087
  241MOL0     H31756  11.708   0.461   2.998 -1.5633  3.4293 -1.3385
  241MOL0     H31757  11.873   0.485   3.190  0.7042 -2.0992 -0.8966
  241MOL0     H31758  11.783   0.344   3.212  1.4633  0.1077 -4.6052
  241MOL0     H31759  11.636   0.451   3.379  0.6750 -1.5078  0.1432
  241MOL0     H31760  11.716   0.602   3.364 -3.4392 -0.3612 -1.4415
  241MOL0     H31761  11.933   0.521   3.438 -1.3755 -0.4416 -3.0778
  241MOL0     H31762  11.805   0.491   3.560 -1.2459 -1.5967  0.6333
  241MOL0     H31763  11.945   0.303   3.552  0.2887 -0.3984 -0.2941
  241MOL0     H31764  11.938   0.294   3.371 -0.0265  2.0725 -0.9944
  241MOL0     H31765  11.691   0.189   3.277 -1.8756  1.1811  0.1230
  241MOL0     H31766  11.514  -0.110   3.457  1.9169  1.8044  1.9537
  241MOL0     H31767  11.584  -0.067   3.298  0.1083  2.4854 -0.9160
  241MOL0     H31768  11.355  -0.053   3.238 -2.2343  0.0723  0.5070
  241MOL0     H31769  11.408   0.113   3.259  0.7902  0.1316 -0.4781
  241MOL0     H31770  11.313  -0.008   3.512 -0.1472 -0.5110 -0.1439
  241MOL0     H31771  11.280   0.153   3.443 -1.1111  0.5383 -1.1304
  241MOL0     H31772  11.167  -0.117   3.358  0.1317 -0.4632  2.1683
  241MOL0     H31773  11.122   0.032   3.275  0.2057 -0.9314 -0.3583
  241MOL0     H31774  10.960  -0.182   3.331 -2.8137 -1.1333 -3.9292
  241MOL0     H31775  10.733  -0.230   3.285  1.3561 -0.5825  0.5181
  241MOL0     H31776  10.294  -0.059   3.169  1.1114 -0.4337  0.2481
  241MOL0     H31777  10.046  -0.081   3.153  1.7212  1.2286 -0.4869
  241MOL0     H31778   9.776  -0.076   3.525 -0.9841  0.3478 -0.2340
  241MOL0     H31779   9.797  -0.236   3.459 -1.6334 -0.1139  0.7084
  241MOL0     H31780   9.602  -0.223   3.319 -0.0079 -1.6871  0.0666
  241MOL0     H31781   9.633  -0.043   3.310  1.4859  0.0102  0.3310
  241MOL0     H31782   9.501  -0.012   3.530 -0.3576  0.0348 -0.9767
  241MOL0     H31783   9.523  -0.189   3.554 -0.5653  1.7805  2.3198
  241MOL0     H31784   9.323  -0.047   3.383 -0.5593 -0.2415  0.6593
  241MOL0     H31785   9.370  -0.217   3.343 -0.6427  0.8935 -2.0553
  241MOL0     H31786   9.235  -0.114   3.607 -0.5656  0.7551 -1.0692
  241MOL0     H31787   9.302  -0.278   3.575  0.8511 -0.9924 -3.3542
  241MOL0     H31788   9.166  -0.311   3.388  4.1012  0.2946  1.6780
  241MOL0     H31789   9.093  -0.144   3.402 -0.3349 -1.0467 -1.8880
  241MOL0     H31790   9.063  -0.360   3.611 -2.8122 -1.1273  1.3551
  241MOL0     H31791   8.996  -0.199   3.625 -0.3826 -0.4781 -0.4784
  241MOL0     H31792   8.849  -0.216   3.449 -2.3849 -0.1900  1.9759
  241MOL0     H31793   8.809  -0.329   3.574 -2.6237 -1.0926 -0.0099
  241MOL0     H31794  10.004  -0.087   3.564  0.2245  1.2440  0.2768
  241MOL0     H31795  10.244  -0.068   3.592 -1.7510  0.2747  0.3460
  241MOL0     H31796  10.610   0.083   3.552  2.3080 -0.8288  1.4806
  241MOL0     H31797  10.829   0.152   3.578 -4.5727  1.5578 -1.6645
  241MOL0     H31798  11.359   0.787   2.626 -2.9665  2.0388 -2.1900
  241MOL0     H31799  11.183   0.646   2.565  1.7516  0.4732 -0.0710
  241MOL0     H31800  10.947   0.163   2.686  0.3985  1.4441  2.0307
  241MOL0     H31801  10.793   0.053   2.569  2.0199 -0.1513  1.3878
  241MOL0     H31802  10.466   0.033   2.481  0.2850 -1.6865  0.1039
  241MOL0     H31803  10.626  -0.018   2.485  1.9156  1.4556 -0.2269
  241MOL0     H31804  10.487  -0.142   2.318  0.7606 -0.9171 -0.1205
  241MOL0     H31805  10.444   0.011   2.236  1.7911  3.0426 -0.3144
  241MOL0     H31806  10.678   0.043   2.159 -1.0739  0.5734 -1.6462
  241MOL0     H31807  10.613  -0.107   2.096  3.3348 -2.3165 -0.5000
  241MOL0     H31808  10.815  -0.084   2.326  0.3622 -0.7698  1.0951
  241MOL0     H31809  10.725  -0.234   2.289  0.1453  0.8500  2.2197
  241MOL0     H31810  10.994  -0.207   1.966 -0.1494  1.4960  0.8519
  241MOL0     H31811  10.621   0.428   2.432  0.5488 -0.0738  1.3696
  241MOL0     H31812  10.792   0.550   2.553 -0.4600 -0.6014 -0.8643
  242MOL0     O31813   2.448   2.948  10.840 -0.7013  0.1613  0.0510
  242MOL0     C31814   2.542   2.882  10.791 -0.5792 -0.7055  0.4560
  242MOL0     O31815   2.534   2.759  10.735  0.8771  0.3913  0.8852
  242MOL0     C31816   2.409   2.694  10.710  0.0841 -0.1458 -0.6588
  242MOL0     C31817   2.324   2.754  10.623  0.8780  0.7387  0.0386
  242MOL0     C31818   2.208   2.695  10.572  0.1531 -0.6315 -0.4647
  242MOL0     C31819   2.178   2.568  10.610 -0.2937 -0.6102 -0.7989
  242MOL0     O31820   2.077   2.500  10.556 -0.1009 -0.1484  0.0786
  242MOL0     C31821   1.971   2.579  10.505 -0.1183 -0.0036 -0.7490
  242MOL0     C31822   1.844   2.487  10.517  0.4629  0.1136 -0.4595
  242MOL0     C31823   1.709   2.558  10.519 -0.5608 -0.8030  0.6165
  242MOL0     C31824   1.640   2.565  10.380 -0.4508 -0.2335  0.9195
  242MOL0     C31825   1.509   2.639  10.382 -0.1262 -0.5980 -0.0130
  242MOL0     C31826   1.429   2.638  10.248 -0.1561  0.2780 -1.0942
  242MOL0     C31827   1.315   2.748  10.253 -0.4287  0.1493 -0.2912
  242MOL0     C31828   1.202   2.713  10.350 -0.8025  0.0411  0.3474
  242MOL0     N31829   1.123   2.595  10.328 -0.1591  0.1485 -0.6736
  242MOL0     C31830   1.138   2.474  10.400 -0.0556  0.0917 -0.3949
  242MOL0     C31831   1.048   2.390  10.339  0.5922  0.2178 -0.1092
  242MOL0     C31832   1.013   2.253  10.392  0.0048 -0.9173  0.0390
  242MOL0     C31833   0.870   2.221  10.376 -0.4488 -0.2266  0.0026
  242MOL0     C31834   0.867   2.067  10.417 -0.0148  0.0172  0.6994
  242MOL0     C31835   0.724   2.018  10.423  0.3746 -0.1275 -0.7467
  242MOL0     O31836   0.726   1.880  10.445 -0.8422 -0.1999 -0.1999
  242MOL0     C31837   0.629   1.821  10.522  0.3261  0.3104 -0.3025
  242MOL0     C31838   0.606   1.691  10.499  0.0835  0.9672  0.1773
  242MOL0     C31839   0.507   1.620  10.558 -0.6395 -0.7399  0.3815
  242MOL0     C31840   0.427   1.681  10.658  0.1046 -0.3791 -0.4313
  242MOL0     C31841   0.305   1.608  10.709  0.5674 -0.5636  0.6373
  242MOL0     O31842   0.311   1.477  10.680  0.2619  0.4077  0.7307
  242MOL0     C31843   0.241   1.376  10.740  0.3546  0.1687  0.6901
  242MOL0     C31844   0.240   1.253  10.674 -0.5585  0.1165  0.5132
  242MOL0     C31845   0.160   1.147  10.712 -0.4330 -0.9244 -0.1061
  242MOL0     C31846   0.083   1.165  10.821 -0.0680 -0.0422 -0.1753
  242MOL0     O31847   0.010   1.054  10.856 -0.1253 -0.4395  0.2975
  242MOL0     C31848  -0.126   1.047  10.826  0.2036 -0.1426  1.3466
  242MOL0     C31849  -0.163   0.939  10.727  0.2521  0.2307 -0.7908
  242MOL0     C31850  -0.326   0.946  10.700  0.1731 -0.3342 -0.2168
  242MOL0     C31851  -0.388   0.836  10.615 -0.6533  0.0981  0.1350
  242MOL0     C31852  -0.446   0.719  10.701  0.1577 -0.1034 -0.4208
  242MOL0     C31853  -0.522   0.620  10.615 -0.3288 -0.1987  0.2363
  242MOL0     C31854  -0.623   0.540  10.699 -0.6404  0.9037  0.0139
  242MOL0     C31855  -0.737   0.483  10.618 -0.0323  0.3393 -0.0703
  242MOL0    Cl31856  -0.821   0.350  10.705  0.1214 -0.1588  0.0748
  242MOL0     C31857   0.079   1.285  10.891 -0.6051  0.5413 -0.0219
  242MOL0     C31858   0.157   1.394  10.855  0.3132 -0.8882  0.7228
  242MOL0     O31859   0.227   1.670  10.776  0.3814 -0.2344 -0.0875
  242MOL0     C31860   0.467   1.813  10.701  0.2221 -0.8249  0.8164
  242MOL0     C31861   0.564   1.883  10.630 -0.6181  0.4775  0.1287
  242MOL0     N31862   0.994   2.458  10.231  0.3038  0.2302 -0.6192
  242MOL0     N31863   1.040   2.574  10.225  0.1112 -0.7497  0.6537
  242MOL0     C31864   2.270   2.504  10.699  0.2348  0.3524 -0.0846
  242MOL0     C31865   2.392   2.561  10.744  0.3166 -0.2247  0.6615
  242MOL0     C31866   2.678   2.943  10.785 -0.1914  0.5660  0.3922
  242MOL0     C31867   2.782   2.885  10.709 -0.0423 -0.9233 -0.3509
  242MOL0     C31868   2.908   2.945  10.696 -0.7703 -0.3510  0.0401
  242MOL0     C31869   2.933   3.057  10.780  0.4802 -0.4424  0.8231
  242MOL0     O31870   3.057   3.104  10.771 -0.2170 -0.3385  0.5847
  242MOL0     C31871   3.098   3.229  10.830  0.1014 -0.0071 -0.5371
  242MOL0     C31872   3.169   3.206  10.966 -0.0355 -0.3308  0.2269
  242MOL0     C31873   3.309   3.160  10.935 -0.4059 -0.0996 -0.0762
  242MOL0     C31874   3.409   3.253  10.999 -0.8382  0.3493 -0.2734
  242MOL0     C31875   3.548   3.207  10.976  0.2604  0.0667 -0.3039
  242MOL0     C31876   3.655   3.151  10.956 -0.1290 -0.1799 -0.4245
  242MOL0     C31877   2.835   3.117  10.864 -1.0238  0.1695  0.7460
  242MOL0     C31878   2.712   3.054  10.868  0.3297 -0.4775 -0.2151
  242MOL0     H31879   2.345   2.858  10.600  0.5712  0.5225 -1.3645
  242MOL0     H31880   2.160   2.755  10.495  1.9623  1.2416 -0.2157
  242MOL0     H31881   1.984   2.620  10.404  0.5243 -0.9617 -1.0652
  242MOL0     H31882   1.939   2.660  10.572  0.0276 -0.2815 -0.3426
  242MOL0     H31883   1.839   2.437  10.615 -1.9474 -0.1428 -0.6526
  242MOL0     H31884   1.842   2.404  10.445  1.2035 -0.8102  0.5361
  242MOL0     H31885   1.724   2.659  10.560  1.7915 -0.3319 -1.1743
  242MOL0     H31886   1.644   2.505  10.589 -1.1626  1.2304  1.6603
  242MOL0     H31887   1.694   2.620  10.302 -4.2629 -0.7958 -2.5020
  242MOL0     H31888   1.615   2.466  10.340 -1.1183  0.5881 -0.8222
  242MOL0     H31889   1.528   2.740  10.421  0.6442 -0.8134  0.1797
  242MOL0     H31890   1.440   2.605  10.460 -2.0920  2.6422 -0.1069
  242MOL0     H31891   1.375   2.544  10.234 -1.8113  1.0369 -0.1473
  242MOL0     H31892   1.504   2.650  10.170 -0.1413 -2.0949 -1.5278
  242MOL0     H31893   1.363   2.846  10.269  0.1807  0.4275 -3.1199
  242MOL0     H31894   1.274   2.783  10.158  1.8037  4.6689  0.1052
  242MOL0     H31895   1.137   2.800  10.339 -2.1212 -1.1891 -2.6812
  242MOL0     H31896   1.242   2.718  10.452  0.8952 -0.6973 -0.2597
  242MOL0     H31897   1.195   2.451  10.489  1.0346 -2.3640 -1.6214
  242MOL0     H31898   1.040   2.246  10.498 -1.1744 -0.0420  0.4304
  242MOL0     H31899   1.079   2.187  10.335  0.3680 -1.4600  1.0612
  242MOL0     H31900   0.826   2.241  10.277 -1.0978 -0.4812  0.2346
  242MOL0     H31901   0.813   2.278  10.450 -0.6277 -2.5399  1.7448
  242MOL0     H31902   0.929   2.001  10.355 -0.0779 -0.1376  0.8010
  242MOL0     H31903   0.901   2.056  10.521  1.3374 -2.7318  0.0673
  242MOL0     H31904   0.670   2.034  10.329 -0.9251 -3.0963 -0.6209
  242MOL0     H31905   0.677   2.063  10.511  2.9280 -2.3710  1.9661
  242MOL0     H31906   0.648   1.653  10.406 -0.7146  0.4412  0.0170
  242MOL0     H31907   0.493   1.516  10.532 -1.5755 -0.5129 -0.0613
  242MOL0     H31908   0.315   1.243  10.596  0.1563  3.8715  0.5518
  242MOL0     H31909   0.155   1.049  10.665 -0.6160 -0.3689 -1.2555
  242MOL0     H31910  -0.158   1.144  10.787  2.4217  0.1074  0.0122
  242MOL0     H31911  -0.170   1.019  10.922  3.1544  0.7277  3.0646
  242MOL0     H31912  -0.131   0.841  10.766 -1.4337 -0.9058 -2.1304
  242MOL0     H31913  -0.115   0.943  10.629 -0.1846 -0.0656 -1.0210
  242MOL0     H31914  -0.345   1.042  10.651  1.5551  0.3596  0.5336
  242MOL0     H31915  -0.377   0.955  10.797  1.4972  0.7528  0.4152
  242MOL0     H31916  -0.462   0.884  10.551 -0.5823  0.4410  0.3058
  242MOL0     H31917  -0.312   0.807  10.541  0.5826  1.8626  0.6392
  242MOL0     H31918  -0.511   0.761  10.778 -0.8496  1.0786 -1.8856
  242MOL0     H31919  -0.356   0.674  10.745  0.0033  0.7548  0.8322
  242MOL0     H31920  -0.450   0.559  10.559  3.1447  0.4124  3.6025
  242MOL0     H31921  -0.579   0.684  10.547  0.7253  0.3667 -0.1447
  242MOL0     H31922  -0.568   0.460  10.750 -0.2866  0.7439 -0.6056
  242MOL0     H31923  -0.660   0.617  10.767 -0.1966  0.9261  0.2369
  242MOL0     H31924  -0.708   0.442  10.520 -0.6643  1.2023 -0.6279
  242MOL0     H31925  -0.807   0.563  10.593  0.7361  1.0062 -0.1134
  242MOL0     H31926   0.021   1.292  10.983  2.4386  1.4430  1.9739
  242MOL0     H31927   0.157   1.483  10.917  0.0358 -0.3640 -0.0176
  242MOL0     H31928   0.420   1.860  10.787  1.3316  0.0290  0.9713
  242MOL0     H31929   0.604   1.968  10.685  0.4209  0.4174 -0.4976
  242MOL0     H31930   2.245   2.403  10.732 -0.2227  0.7391  0.7892
  242MOL0     H31931   2.470   2.503  10.791  1.5441 -0.2515 -1.2929
  242MOL0     H31932   2.764   2.789  10.662  1.7882 -2.4653  1.9426
  242MOL0     H31933   2.994   2.895  10.652 -0.8754 -0.2601 -0.2682
  242MOL0     H31934   3.017   3.302  10.841 -0.2363 -0.5834  0.9987
  242MOL0     H31935   3.167   3.274  10.758  1.7991  2.3512  2.3033
  242MOL0     H31936   3.170   3.301  11.020  1.1681 -1.4564  2.3240
  242MOL0     H31937   3.117   3.137  11.032  2.8547  0.0324  3.1358
  242MOL0     H31938   3.326   3.140  10.829  1.2717 -0.7555  0.2865
  242MOL0     H31939   3.316   3.057  10.972 -4.6379 -0.4473  0.2775
  242MOL0     H31940   3.398   3.358  10.968  2.4818  0.7226 -0.5795
  242MOL0     H31941   3.387   3.240  11.106 -1.0443  1.9220 -0.0999
  242MOL0     H31942   3.746   3.110  10.917 -0.2742  0.2039 -1.1878
  242MOL0     H31943   2.862   3.200  10.929  1.7614  2.2105 -2.6777
  242MOL0     H31944   2.647   3.096  10.944  2.4179  0.9213  0.8733
  243MOL0     O31945   2.790   1.573   1.978  0.1454 -0.5180 -0.5436
  243MOL0     C31946   2.800   1.456   2.010  0.6181  0.2302  0.4779
  243MOL0     O31947   2.711   1.385   2.078 -0.1565 -0.0035 -0.1366
  243MOL0     C31948   2.582   1.436   2.104  0.3633  0.4819  0.1384
  243MOL0     C31949   2.502   1.489   1.996 -0.4452  0.0440 -0.9549
  243MOL0     C31950   2.367   1.530   2.022  0.0273 -0.2099 -0.2421
  243MOL0     C31951   2.310   1.537   2.148 -0.2252  0.1557 -0.2104
  243MOL0     O31952   2.183   1.582   2.172  0.3175 -0.1115  0.2775
  243MOL0     C31953   2.097   1.604   2.062 -0.6330  0.0334 -0.2320
  243MOL0     C31954   1.957   1.624   2.111  1.2286  0.1053  0.1368
  243MOL0     C31955   1.954   1.760   2.184 -0.2448  0.1666 -0.1963
  243MOL0     C31956   1.808   1.781   2.218  0.5510  0.1901  0.5732
  243MOL0     C31957   1.787   1.918   2.292 -0.1857 -0.2381  0.1384
  243MOL0     C31958   1.800   2.050   2.201  0.2857  0.7578 -0.5824
  243MOL0     C31959   1.733   2.180   2.258  0.1350 -0.2049 -0.0945
  243MOL0     C31960   1.781   2.186   2.404  0.1913 -0.6873  0.5739
  243MOL0     N31961   1.744   2.318   2.469 -0.3010 -0.5137 -0.2199
  243MOL0     C31962   1.621   2.364   2.493 -0.1742 -0.0146  0.2946
  243MOL0     C31963   1.645   2.481   2.553  0.1157 -0.2760  0.2072
  243MOL0     C31964   1.551   2.587   2.594 -1.1264 -0.1892 -0.7169
  243MOL0     C31965   1.411   2.549   2.559  0.0229 -0.6777  0.1902
  243MOL0     C31966   1.304   2.628   2.637  0.2382 -0.5784 -0.2996
  243MOL0     C31967   1.288   2.587   2.779  0.0369  0.3649 -0.2997
  243MOL0     O31968   1.235   2.464   2.806 -0.2362  0.3059  0.5468
  243MOL0     C31969   1.095   2.457   2.816 -0.6883  0.0669 -0.3507
  243MOL0     C31970   1.006   2.556   2.789 -0.8003  0.2841  0.0889
  243MOL0     C31971   0.868   2.541   2.825 -0.4410 -0.4783 -0.7301
  243MOL0     C31972   0.828   2.419   2.889 -0.4350  0.0371 -0.2711
  243MOL0     C31973   0.677   2.391   2.930 -0.1431  0.0194 -0.0374
  243MOL0     O31974   0.579   2.461   2.870 -0.1843  0.2484  0.1892
  243MOL0     C31975   0.452   2.414   2.859  0.0968 -0.4887 -0.2721
  243MOL0     C31976   0.380   2.341   2.959  0.3864 -0.9757 -0.2164
  243MOL0     C31977   0.255   2.286   2.932 -0.0133  0.0024  0.7798
  243MOL0     C31978   0.192   2.317   2.807 -0.5754 -0.2215  0.5316
  243MOL0     O31979   0.077   2.261   2.769 -0.5498 -0.2099  0.2071
  243MOL0     C31980   0.084   2.172   2.662  0.5829  0.6322  0.3446
  243MOL0     C31981  -0.059   2.132   2.632 -0.4484  0.4503  0.2359
  243MOL0     C31982  -0.070   2.068   2.499  0.6047 -0.4984 -1.2370
  243MOL0     C31983  -0.216   2.037   2.444 -0.1507 -0.5788  0.8030
  243MOL0     C31984  -0.235   2.070   2.291  0.2227  1.1250  0.1194
  243MOL0     C31985  -0.383   2.054   2.267  0.0994  0.1849  0.6028
  243MOL0     C31986  -0.423   2.098   2.128  0.7199  0.2290  0.2244
  243MOL0     C31987  -0.353   2.028   2.014 -0.1695 -0.5433 -0.0874
  243MOL0    Cl31988  -0.436   1.872   1.980 -0.0191 -0.4318 -0.2105
  243MOL0     C31989   0.256   2.395   2.718 -0.9882  0.2717  0.2072
  243MOL0     C31990   0.384   2.438   2.739  0.9949  0.1845  0.4219
  243MOL0     O31991   0.654   2.287   2.991  0.2252 -0.5456 -0.0843
  243MOL0     C31992   0.923   2.332   2.929 -1.3116  0.5857 -0.5349
  243MOL0     C31993   1.054   2.344   2.891 -0.4131 -0.2614  0.3316
  243MOL0     N31994   1.779   2.500   2.566 -0.2131  0.3219 -0.0231
  243MOL0     N31995   1.841   2.399   2.516  0.3514 -0.7175  0.4492
  243MOL0     C31996   2.397   1.497   2.251  0.6688 -0.3698 -0.2476
  243MOL0     C31997   2.526   1.442   2.231 -0.0386 -0.3890 -0.5387
  243MOL0     C31998   2.930   1.392   1.986 -0.8123 -0.1173 -0.4918
  243MOL0     C31999   2.958   1.275   2.056  0.6214  0.5406  0.4530
  243MOL0     C32000   3.085   1.225   2.055  0.2932  0.0447  0.0001
  243MOL0     C32001   3.186   1.293   1.987 -0.7771  0.5447  0.6128
  243MOL0     O32002   3.305   1.225   1.982  0.5326  0.1813  0.3091
  243MOL0     C32003   3.426   1.309   1.967  0.4618 -0.0229 -0.8107
  243MOL0     C32004   3.549   1.218   1.986 -0.8582 -0.1393 -0.3936
  243MOL0     C32005   3.678   1.298   1.951  0.0125  0.4841 -0.5080
  243MOL0     C32006   3.802   1.211   1.925 -0.1374 -0.3514  0.1022
  243MOL0     C32007   3.843   1.142   2.049  0.7952  1.1978  0.2001
  243MOL0     C32008   3.870   1.095   2.152 -0.0948 -0.0368 -0.2933
  243MOL0     C32009   3.161   1.407   1.918  0.3018 -0.3900 -0.2617
  243MOL0     C32010   3.031   1.462   1.917  0.5725  0.0170 -0.9655
  243MOL0     H32011   2.531   1.482   1.891  1.5484  1.4232 -0.5577
  243MOL0     H32012   2.317   1.569   1.933 -0.3868  2.1185  0.9384
  243MOL0     H32013   2.103   1.519   1.994  1.6803 -1.6398  1.8912
  243MOL0     H32014   2.123   1.696   2.009 -0.9242 -0.7175 -1.7308
  243MOL0     H32015   1.917   1.548   2.179  4.7492 -1.7368  0.3893
  243MOL0     H32016   1.895   1.630   2.022  0.5581 -2.7799  0.3390
  243MOL0     H32017   1.980   1.843   2.118 -0.8778  0.7856  0.3191
  243MOL0     H32018   2.009   1.767   2.279  1.9354 -1.1524 -1.2590
  243MOL0     H32019   1.740   1.766   2.133  0.8688 -0.5757  0.4475
  243MOL0     H32020   1.784   1.707   2.295  2.6123 -0.9552  0.1814
  243MOL0     H32021   1.862   1.930   2.370  2.1029 -1.2039 -1.8002
  243MOL0     H32022   1.694   1.917   2.351 -0.1998  3.0598  0.3686
  243MOL0     H32023   1.763   2.030   2.100  2.2412 -1.6577 -0.9327
  243MOL0     H32024   1.907   2.067   2.181  0.1226  2.4434 -0.1737
  243MOL0     H32025   1.778   2.264   2.203  0.2860 -0.9168 -1.0722
  243MOL0     H32026   1.626   2.175   2.240  0.1534  0.9658 -0.6309
  243MOL0     H32027   1.890   2.178   2.402  0.2708  0.3049 -1.8088
  243MOL0     H32028   1.729   2.109   2.462 -1.7800 -0.9307 -1.4000
  243MOL0     H32029   1.526   2.323   2.462 -0.9889  2.1781 -0.3215
  243MOL0     H32030   1.574   2.683   2.548  0.3190 -0.0533  0.2077
  243MOL0     H32031   1.571   2.611   2.698 -0.4475  1.8246 -1.2738
  243MOL0     H32032   1.393   2.445   2.588 -2.6432 -1.0440 -2.3022
  243MOL0     H32033   1.410   2.566   2.451 -3.4723  0.7827  0.3388
  243MOL0     H32034   1.332   2.734   2.645 -0.9021 -0.3205  0.7279
  243MOL0     H32035   1.207   2.626   2.586  0.8731  2.3452 -1.8153
  243MOL0     H32036   1.242   2.662   2.845  0.7868 -0.3130  1.0564
  243MOL0     H32037   1.389   2.589   2.822 -0.4728 -0.0616  0.9604
  243MOL0     H32038   1.044   2.643   2.736  0.0054 -0.6748 -0.9603
  243MOL0     H32039   0.791   2.613   2.800  1.4298  2.2458  0.8198
  243MOL0     H32040   0.416   2.323   3.060 -0.0923 -2.2190 -0.2595
  243MOL0     H32041   0.211   2.222   3.008  0.9727 -1.0711  0.4782
  243MOL0     H32042   0.140   2.082   2.688  1.2633  0.4065 -1.7166
  243MOL0     H32043   0.123   2.212   2.568 -1.5797 -0.6893 -1.2184
  243MOL0     H32044  -0.115   2.225   2.621  1.0131  1.0808 -2.7685
  243MOL0     H32045  -0.102   2.072   2.712 -1.3879 -1.0468 -1.3344
  243MOL0     H32046  -0.019   1.971   2.506 -2.8500 -2.3564  2.6105
  243MOL0     H32047  -0.024   2.130   2.421  1.7532 -1.3048 -1.2280
  243MOL0     H32048  -0.235   1.934   2.475  1.8885 -0.9946  0.7706
  243MOL0     H32049  -0.278   2.108   2.500 -1.0778 -1.0692  0.4113
  243MOL0     H32050  -0.182   1.998   2.228 -2.3338 -1.1915  0.4223
  243MOL0     H32051  -0.205   2.175   2.278 -0.9674  1.8840  2.7445
  243MOL0     H32052  -0.444   2.108   2.340 -0.3694 -0.2133  0.5136
  243MOL0     H32053  -0.407   1.948   2.279  0.6306 -0.0781 -0.5713
  243MOL0     H32054  -0.526   2.072   2.103  0.6554  0.8625 -0.1923
  243MOL0     H32055  -0.391   2.202   2.115  2.6087 -0.2298  0.9262
  243MOL0     H32056  -0.247   2.013   2.036 -0.6615 -1.5759  1.7824
  243MOL0     H32057  -0.375   2.079   1.920 -3.1929  0.8130  1.2245
  243MOL0     H32058   0.209   2.410   2.622  1.9293 -1.2062 -1.6083
  243MOL0     H32059   0.421   2.500   2.658 -0.6630  0.5776 -0.0905
  243MOL0     H32060   0.886   2.250   2.989  0.2871  0.2992  0.1111
  243MOL0     H32061   1.122   2.265   2.924 -1.0214  0.1781  2.8136
  243MOL0     H32062   2.349   1.510   2.347 -1.4467  1.7255 -1.4861
  243MOL0     H32063   2.586   1.399   2.309  1.5159  1.0066 -0.9195
  243MOL0     H32064   2.880   1.217   2.105  0.8088  1.6405  2.1092
  243MOL0     H32065   3.102   1.125   2.095  0.2573 -0.2636 -0.7291
  243MOL0     H32066   3.427   1.385   2.046  1.6936  0.1398 -0.9665
  243MOL0     H32067   3.438   1.358   1.870  0.6164  0.1307 -0.7146
  243MOL0     H32068   3.550   1.200   2.093  1.0175 -1.7678 -0.6359
  243MOL0     H32069   3.547   1.125   1.929  1.8685 -0.4540 -0.0792
  243MOL0     H32070   3.696   1.363   2.037  1.0358 -0.1697 -0.2063
  243MOL0     H32071   3.660   1.354   1.859  1.1732  1.7057 -0.0256
  243MOL0     H32072   3.794   1.145   1.838  0.9279 -0.2165 -0.1126
  243MOL0     H32073   3.886   1.280   1.908  1.3599 -2.1268  0.0581
  243MOL0     H32074   3.887   1.040   2.242 -0.9692 -1.1459 -0.7856
  243MOL0     H32075   3.228   1.460   1.851  0.5797 -0.2890  0.0931
  243MOL0     H32076   3.012   1.558   1.870  2.0544  0.6133 -0.4004
  244MOL0     O32077   0.481   4.179   1.977  0.2133 -1.0891 -0.3459
  244MOL0     C32078   0.474   4.303   1.966 -0.1662  0.0531 -0.3041
  244MOL0     O32079   0.356   4.373   1.963 -0.4612 -0.5171 -0.2955
  244MOL0     C32080   0.243   4.298   1.994  0.1107  0.0641  0.3752
  244MOL0     C32081   0.228   4.243   2.123  0.0031 -0.6426 -0.1952
  244MOL0     C32082   0.110   4.184   2.159 -0.2392  0.0076  0.4898
  244MOL0     C32083   0.005   4.170   2.060 -0.1258 -0.3327  0.0834
  244MOL0     O32084  -0.106   4.103   2.079 -0.3237  0.2141  0.2336
  244MOL0     C32085  -0.146   4.095   2.207  0.0121  0.2420 -1.5963
  244MOL0     C32086  -0.288   4.046   2.194 -0.0378 -0.6084  1.0043
  244MOL0     C32087  -0.301   3.899   2.178  0.3973  0.7974  0.6491
  244MOL0     C32088  -0.450   3.853   2.159 -0.2386 -0.5824 -0.3258
  244MOL0     C32089  -0.479   3.701   2.165 -0.0835  0.3908  0.2678
  244MOL0     C32090  -0.620   3.674   2.122  0.5502  0.2623  0.1289
  244MOL0     C32091  -0.730   3.699   2.227 -0.4679 -0.8777  0.2163
  244MOL0     C32092  -0.815   3.593   2.283 -0.7097  0.0876 -0.1863
  244MOL0     N32093  -0.907   3.526   2.185 -0.2071  0.0699 -0.1550
  244MOL0     C32094  -1.043   3.528   2.194  0.6587 -0.5432 -0.7254
  244MOL0     C32095  -1.093   3.455   2.092  0.1333  0.8623  0.2541
  244MOL0     C32096  -1.239   3.441   2.054 -0.1923 -0.3499 -1.1580
  244MOL0     C32097  -1.283   3.300   2.093  0.3177  0.5196 -0.5079
  244MOL0     C32098  -1.430   3.275   2.075 -0.3635  0.1605 -0.2318
  244MOL0     C32099  -1.474   3.139   2.131 -0.0369  0.4390 -0.0040
  244MOL0     O32100  -1.623   3.139   2.128 -0.0186  0.2324  0.1707
  244MOL0     C32101  -1.689   3.030   2.165 -0.2920 -0.8923 -0.0794
  244MOL0     C32102  -1.812   3.054   2.221  0.2063  1.3326 -0.9027
  244MOL0     C32103  -1.889   2.947   2.263 -0.8495 -0.6087 -0.4881
  244MOL0     C32104  -1.839   2.813   2.249 -0.0826  0.8233  0.7795
  244MOL0     C32105  -1.929   2.699   2.284 -0.0536 -0.2783  0.2966
  244MOL0     O32106  -1.870   2.571   2.311 -0.2490 -0.3677  0.0587
  244MOL0     C32107  -1.964   2.481   2.355 -0.6364 -0.7904 -0.2618
  244MOL0     C32108  -1.940   2.416   2.479 -0.4473 -0.0116  0.6729
  244MOL0     C32109  -2.007   2.295   2.513 -0.7771  0.0032 -0.0135
  244MOL0     C32110  -2.104   2.245   2.428 -0.5002 -0.3210 -0.8990
  244MOL0     O32111  -2.178   2.138   2.462 -0.1291  0.6119  0.1033
  244MOL0     C32112  -2.236   2.132   2.592  0.3019  0.2364  0.3406
  244MOL0     C32113  -2.343   2.022   2.602  0.0501 -0.0146 -0.0111
  244MOL0     C32114  -2.460   2.027   2.504  0.1963  0.7172  0.1907
  244MOL0     C32115  -2.552   1.912   2.546  0.6521  0.0338  0.1473
  244MOL0     C32116  -2.679   1.921   2.460 -0.0254 -0.3172  0.3767
  244MOL0     C32117  -2.793   1.833   2.489  0.9253 -0.4773  0.4422
  244MOL0     C32118  -2.899   1.837   2.367 -0.2814 -0.5242  1.4429
  244MOL0     C32119  -3.012   1.740   2.392 -0.1071  0.4527 -0.5682
  244MOL0    Cl32120  -3.154   1.803   2.302  0.0122 -0.3463  0.1970
  244MOL0     C32121  -2.141   2.320   2.317 -1.2248  0.0401  0.9041
  244MOL0     C32122  -2.064   2.428   2.275  0.0786  0.3793 -0.4376
  244MOL0     O32123  -2.047   2.722   2.285  0.4219  0.0400  0.2748
  244MOL0     C32124  -1.713   2.798   2.193 -0.0672 -0.3118 -0.6628
  244MOL0     C32125  -1.634   2.905   2.156  0.6885  0.2185 -0.1987
  244MOL0     N32126  -0.978   3.387   2.037  0.3723  0.3720 -0.3237
  244MOL0     N32127  -0.871   3.436   2.094 -0.1395  0.2854 -0.9212
  244MOL0     C32128   0.023   4.215   1.929 -0.7912 -0.4742  0.6325
  244MOL0     C32129   0.144   4.280   1.895  0.4713  0.7187  0.8302
  244MOL0     C32130   0.600   4.377   1.953  0.0682  0.9737  0.3235
  244MOL0     C32131   0.730   4.313   1.942  0.9404 -0.3518 -0.4043
  244MOL0     C32132   0.847   4.394   1.939 -0.7062 -0.1053 -0.1147
  244MOL0     C32133   0.842   4.537   1.937 -0.1565  0.2558  0.0771
  244MOL0     O32134   0.958   4.596   1.931 -0.1318  0.1356 -0.0561
  244MOL0     C32135   0.970   4.740   1.957  0.5793  0.9471 -0.1168
  244MOL0     C32136   1.119   4.771   1.982 -0.5223 -0.2305  0.2755
  244MOL0     C32137   1.159   4.728   2.120 -0.0338  0.2582 -0.5244
  244MOL0     C32138   1.293   4.665   2.140 -0.4009  0.2493  0.5412
  244MOL0     C32139   1.392   4.768   2.105  1.0241 -0.4434  0.3545
  244MOL0     C32140   1.483   4.846   2.095 -0.1192  0.4864  0.6472
  244MOL0     C32141   0.717   4.596   1.972 -0.4217  0.6168 -0.3226
  244MOL0     C32142   0.601   4.519   1.973  0.5793  0.1976 -0.5764
  244MOL0     H32143   0.307   4.260   2.195  1.6557  0.0833 -2.0960
  244MOL0     H32144   0.105   4.134   2.255 -2.7304 -1.1915 -0.1599
  244MOL0     H32145  -0.147   4.196   2.249 -1.3621  0.2365 -1.5782
  244MOL0     H32146  -0.094   4.024   2.272 -1.7367  0.6956  0.4143
  244MOL0     H32147  -0.334   4.096   2.109  0.8547  1.4279  1.6688
  244MOL0     H32148  -0.344   4.082   2.281  1.5630  0.7301  1.5208
  244MOL0     H32149  -0.260   3.859   2.271  0.6485  0.6603  0.4814
  244MOL0     H32150  -0.240   3.860   2.096 -0.3760  0.9803 -0.0169
  244MOL0     H32151  -0.500   3.903   2.243  0.9625 -0.1096  0.1365
  244MOL0     H32152  -0.492   3.892   2.066 -0.1680 -1.9053 -0.9369
  244MOL0     H32153  -0.462   3.655   2.263 -0.9717 -0.6419 -0.0477
  244MOL0     H32154  -0.412   3.650   2.095 -1.9656 -1.4879 -0.2519
  244MOL0     H32155  -0.632   3.567   2.103  0.6164  0.3801 -0.6067
  244MOL0     H32156  -0.645   3.721   2.027 -0.3382  0.1591  0.3019
  244MOL0     H32157  -0.687   3.754   2.311 -1.3455  0.8202 -0.4077
  244MOL0     H32158  -0.797   3.773   2.181 -2.0848 -1.7076  1.1265
  244MOL0     H32159  -0.880   3.641   2.356 -2.2513  0.6349 -1.8445
  244MOL0     H32160  -0.752   3.517   2.330  2.1577  1.5051 -1.5331
  244MOL0     H32161  -1.103   3.583   2.266  1.5043  0.5728 -0.8581
  244MOL0     H32162  -1.261   3.463   1.949 -2.2072  1.5208 -0.4331
  244MOL0     H32163  -1.309   3.504   2.111 -0.8983 -3.4003  1.6183
  244MOL0     H32164  -1.251   3.288   2.197  1.0203  2.0308 -0.5181
  244MOL0     H32165  -1.233   3.232   2.024  0.2462 -2.3290  2.0466
  244MOL0     H32166  -1.469   3.351   2.143 -0.6610 -1.7529  1.8752
  244MOL0     H32167  -1.451   3.286   1.968 -4.3581  3.4765  0.6316
  244MOL0     H32168  -1.434   3.114   2.230  0.4428  0.2667 -0.2389
  244MOL0     H32169  -1.437   3.061   2.063  0.1969 -0.0156  0.6346
  244MOL0     H32170  -1.847   3.155   2.235 -0.5652  0.8155  1.2333
  244MOL0     H32171  -1.986   2.969   2.307  0.1183 -0.5614  1.7286
  244MOL0     H32172  -1.857   2.465   2.529 -0.1483  1.4036 -1.1269
  244MOL0     H32173  -1.978   2.254   2.608  0.5005  0.2655 -0.2741
  244MOL0     H32174  -2.283   2.229   2.613  1.7687  0.7209  1.6359
  244MOL0     H32175  -2.155   2.115   2.663  1.2333  1.8290 -0.2951
  244MOL0     H32176  -2.386   2.027   2.703  0.1093  1.1690 -0.0204
  244MOL0     H32177  -2.287   1.929   2.610 -0.2465 -0.0887  1.4065
  244MOL0     H32178  -2.423   2.017   2.402 -1.9124 -1.8782 -0.4312
  244MOL0     H32179  -2.518   2.119   2.517  1.6188  1.3343  3.3136
  244MOL0     H32180  -2.501   1.815   2.541  2.6243  0.9602  1.0774
  244MOL0     H32181  -2.584   1.941   2.647 -2.7761  2.5167 -1.4467
  244MOL0     H32182  -2.652   1.899   2.356 -0.8773 -1.0134  0.2868
  244MOL0     H32183  -2.715   2.024   2.461 -1.2909 -0.7551  1.2986
  244MOL0     H32184  -2.840   1.882   2.574  0.9620  0.9664 -0.3428
  244MOL0     H32185  -2.762   1.731   2.515 -1.9430 -1.4247  0.4304
  244MOL0     H32186  -2.937   1.938   2.352 -1.6902 -1.2146  0.1758
  244MOL0     H32187  -2.856   1.812   2.270  1.4213  1.0755  1.7187
  244MOL0     H32188  -3.023   1.740   2.501  1.9337 -0.0123 -0.3245
  244MOL0     H32189  -2.991   1.640   2.352 -0.3301  0.5484 -0.9266
  244MOL0     H32190  -2.226   2.290   2.255 -0.6145  1.8907 -0.9602
  244MOL0     H32191  -2.095   2.474   2.182 -1.1136  0.2380 -0.1242
  244MOL0     H32192  -1.663   2.702   2.191 -2.0256 -1.3851 -0.5860
  244MOL0     H32193  -1.532   2.891   2.122  0.8086 -2.4453  1.0145
  244MOL0     H32194  -0.042   4.197   1.844  0.2133  0.0804 -0.2868
  244MOL0     H32195   0.164   4.312   1.793  0.3364 -0.5115  0.4040
  244MOL0     H32196   0.743   4.206   1.926 -4.7209 -1.3202 -0.3994
  244MOL0     H32197   0.947   4.351   1.945 -1.8570 -3.2720 -1.4815
  244MOL0     H32198   0.908   4.762   2.044 -0.3704  0.6182 -0.6978
  244MOL0     H32199   0.925   4.790   1.871  0.6981 -0.8472 -1.2955
  244MOL0     H32200   1.176   4.720   1.904 -1.4396  0.7028 -1.0556
  244MOL0     H32201   1.134   4.879   1.973 -0.8941 -0.2477 -0.6237
  244MOL0     H32202   1.094   4.650   2.160 -1.4552  1.7969  0.2914
  244MOL0     H32203   1.147   4.808   2.194  1.3228 -0.2136  0.2514
  244MOL0     H32204   1.315   4.624   2.239  0.8160 -1.3944 -0.3647
  244MOL0     H32205   1.304   4.584   2.068  0.0460 -0.6171  1.5736
  244MOL0     H32206   1.569   4.907   2.077  0.1467 -0.2113 -0.5720
  244MOL0     H32207   0.710   4.702   1.995 -2.1410  0.3953  0.3434
  244MOL0     H32208   0.504   4.562   1.997 -0.1526 -2.5202  1.8504
  245MOL0     O32209   4.682   9.758   3.414 -0.4180  0.2354 -0.5664
  245MOL0     C32210   4.724   9.876   3.416 -1.1507  0.2486  0.0609
  245MOL0     O32211   4.664   9.975   3.486  0.6170  0.2819 -0.7690
  245MOL0     C32212   4.557   9.961   3.564  0.6427  0.0038  0.2010
  245MOL0     C32213   4.502   9.844   3.615 -0.4802 -0.1004  0.8654
  245MOL0     C32214   4.401   9.845   3.710 -0.8831 -0.4987 -0.1914
  245MOL0     C32215   4.354   9.970   3.747  0.7201 -0.0602 -0.3085
  245MOL0     O32216   4.256   9.982   3.843  0.1011  0.2224 -0.0058
  245MOL0     C32217   4.123   9.957   3.804 -0.2138 -0.4483  0.4683
  245MOL0     C32218   4.027   9.962   3.918 -0.1555 -0.4672 -0.0057
  245MOL0     C32219   3.884   9.989   3.871 -0.4881 -0.3375 -0.6019
  245MOL0     C32220   3.789   9.994   3.990 -0.2233 -0.3125 -0.4342
  245MOL0     C32221   3.653  10.057   3.955 -0.2088  0.5610  0.1650
  245MOL0     C32222   3.570  10.084   4.085 -0.1267  0.8488  0.2551
  245MOL0     C32223   3.439  10.159   4.064  0.2229 -0.0509  0.5314
  245MOL0     C32224   3.360  10.138   4.197 -0.3143 -0.5517  0.8718
  245MOL0     N32225   3.439  10.181   4.313 -0.4440  0.9468  0.8569
  245MOL0     C32226   3.521  10.094   4.382  0.0868  0.0457 -0.9238
  245MOL0     C32227   3.593  10.184   4.459 -0.2405  0.2201  0.9964
  245MOL0     C32228   3.702  10.149   4.557 -0.1788  0.3841 -0.4350
  245MOL0     C32229   3.836  10.199   4.496 -0.4834  0.3171 -0.0498
  245MOL0     C32230   3.909  10.129   4.392  0.8205  0.1311  0.3294
  245MOL0     C32231   4.009  10.020   4.438  0.6101 -0.2466  0.5655
  245MOL0     O32232   4.076   9.977   4.320  0.4891 -0.2009  0.2626
  245MOL0     C32233   4.174   9.888   4.335 -0.1131 -0.0308 -0.0164
  245MOL0     C32234   4.250   9.868   4.220 -0.3469  0.2449 -0.2849
  245MOL0     C32235   4.338   9.757   4.213  0.3785 -0.1233  0.0143
  245MOL0     C32236   4.372   9.687   4.334  1.4246 -0.1292  0.0864
  245MOL0     C32237   4.477   9.582   4.334  0.5328 -0.1400 -0.2357
  245MOL0     O32238   4.529   9.540   4.209 -0.5430  0.1275 -0.6840
  245MOL0     C32239   4.663   9.528   4.187  0.2648  0.2853 -0.1306
  245MOL0     C32240   4.701   9.437   4.086 -1.2385  0.5088  0.1432
  245MOL0     C32241   4.824   9.427   4.043 -0.3315  0.6839  0.3091
  245MOL0     C32242   4.926   9.496   4.103  0.3259 -0.8094  0.9217
  245MOL0     O32243   5.061   9.487   4.075 -0.0584  0.0046 -0.2003
  245MOL0     C32244   5.114   9.386   3.986  0.3606  1.1493  0.8887
  245MOL0     C32245   5.260   9.401   3.985  0.1971 -0.1843  0.2800
  245MOL0     C32246   5.332   9.294   3.911 -0.0188 -0.0269  0.0938
  245MOL0     C32247   5.479   9.332   3.931 -0.0511  0.3455 -0.1583
  245MOL0     C32248   5.562   9.225   3.858  0.4709  0.9521  0.1302
  245MOL0     C32249   5.701   9.275   3.838 -0.5345 -0.1206  0.1875
  245MOL0     C32250   5.786   9.299   3.963  0.0163  0.1590  0.6229
  245MOL0     C32251   5.797   9.176   4.058 -0.1168 -0.4288  1.1474
  245MOL0    Cl32252   5.834   9.229   4.227  0.3774 -0.7417  0.4499
  245MOL0     C32253   4.898   9.588   4.208 -0.4930  0.8628  0.0475
  245MOL0     C32254   4.763   9.604   4.248 -0.3823 -0.8243  0.1610
  245MOL0     O32255   4.521   9.545   4.445 -0.4757  0.8601  0.1272
  245MOL0     C32256   4.302   9.723   4.453 -0.2458  0.3587  0.2084
  245MOL0     C32257   4.210   9.824   4.454  0.1950  1.0670 -1.0325
  245MOL0     N32258   3.551  10.316   4.427 -0.1985  0.0346  0.4947
  245MOL0     N32259   3.461  10.304   4.346  0.2754 -0.0610 -0.2262
  245MOL0     C32260   4.406  10.090   3.702 -0.5982  0.0938 -0.6815
  245MOL0     C32261   4.510  10.084   3.611  0.1521 -0.0232 -0.3394
  245MOL0     C32262   4.852   9.907   3.343  0.0081 -0.7780 -0.4660
  245MOL0     C32263   4.924   9.799   3.289 -0.4506 -0.4092 -0.5385
  245MOL0     C32264   5.054   9.824   3.227  0.2431  0.3029 -0.0145
  245MOL0     C32265   5.110   9.951   3.232 -0.4551 -0.7904  0.5206
  245MOL0     O32266   5.235   9.975   3.189 -1.0735 -0.7479  0.0626
  245MOL0     C32267   5.336   9.909   3.269 -0.2174  0.1067 -0.2698
  245MOL0     C32268   5.473   9.943   3.202 -0.0728 -0.2124 -0.6639
  245MOL0     C32269   5.475   9.893   3.060 -0.2332 -0.8007  0.4853
  245MOL0     C32270   5.614   9.918   3.006 -0.1224 -0.2930 -0.6321
  245MOL0     C32271   5.720   9.829   3.057  0.7260 -0.4675 -1.3962
  245MOL0     C32272   5.803   9.757   3.109 -0.0609  0.2795  0.4273
  245MOL0     C32273   5.029  10.054   3.280 -0.4653 -0.5580  0.9170
  245MOL0     C32274   4.902  10.037   3.338  0.1952 -0.0756  0.2720
  245MOL0     H32275   4.532   9.744   3.583 -1.5013  0.4778 -2.2055
  245MOL0     H32276   4.348   9.762   3.756 -2.8040 -0.0719 -1.4956
  245MOL0     H32277   4.123   9.864   3.746  1.0947  0.1185 -0.4958
  245MOL0     H32278   4.103  10.038   3.733 -0.9630  0.3814  1.5896
  245MOL0     H32279   4.056  10.046   3.981 -3.5943  1.9547 -1.3618
  245MOL0     H32280   4.030   9.869   3.977 -0.0735 -0.2927  0.2672
  245MOL0     H32281   3.848   9.911   3.803 -3.1446  0.8645 -0.6707
  245MOL0     H32282   3.896  10.085   3.820  0.6475  1.7250  3.1622
  245MOL0     H32283   3.766   9.898   4.037 -1.2333  1.0618  2.0633
  245MOL0     H32284   3.836  10.063   4.061 -2.8887  1.3791 -0.1605
  245MOL0     H32285   3.605   9.993   3.881  1.0701 -0.2883  0.0376
  245MOL0     H32286   3.680  10.148   3.903 -1.2016  1.5028  1.2313
  245MOL0     H32287   3.636  10.142   4.150  1.3587  0.0158 -0.4373
  245MOL0     H32288   3.549   9.987   4.131 -1.1116  0.1793 -1.5111
  245MOL0     H32289   3.451  10.266   4.044  0.1661  0.4383  2.8607
  245MOL0     H32290   3.381  10.113   3.983 -0.0497  0.4845  0.4177
  245MOL0     H32291   3.314  10.039   4.210  0.1187 -0.7806  0.6964
  245MOL0     H32292   3.272  10.202   4.189  1.2984  1.5604 -2.3567
  245MOL0     H32293   3.547   9.989   4.383  0.5796  0.0993 -2.9893
  245MOL0     H32294   3.702  10.042   4.576  0.4657 -0.0959 -2.7688
  245MOL0     H32295   3.679  10.202   4.650 -0.1991 -0.1273 -0.1450
  245MOL0     H32296   3.902  10.221   4.580 -0.6359 -0.3087  0.2361
  245MOL0     H32297   3.819  10.298   4.451  0.8956  0.0909 -1.1362
  245MOL0     H32298   3.834  10.087   4.324  1.3888 -2.2557  1.0844
  245MOL0     H32299   3.958  10.201   4.326  0.9709  0.1650  0.4777
  245MOL0     H32300   3.959   9.934   4.483  1.2189 -0.9288 -0.0309
  245MOL0     H32301   4.074  10.063   4.515  0.4659 -0.0891  0.5999
  245MOL0     H32302   4.232   9.924   4.129  0.6164  0.6234 -0.2620
  245MOL0     H32303   4.392   9.734   4.121 -0.9368 -0.6936 -0.6378
  245MOL0     H32304   4.619   9.375   4.050 -1.0191  0.1653  0.2346
  245MOL0     H32305   4.856   9.348   3.975 -0.2143  1.2884 -0.3510
  245MOL0     H32306   5.072   9.391   3.886 -0.1121 -0.4470  0.9700
  245MOL0     H32307   5.078   9.289   4.023 -1.3239  0.1171 -2.9340
  245MOL0     H32308   5.297   9.402   4.088  1.5164  2.4697 -0.1219
  245MOL0     H32309   5.280   9.500   3.942 -1.2931  0.0498  0.0789
  245MOL0     H32310   5.299   9.303   3.808 -1.5251  0.0720  0.5561
  245MOL0     H32311   5.314   9.195   3.953  1.0715 -0.2924 -0.0354
  245MOL0     H32312   5.497   9.431   3.888  0.8264  0.1266 -0.3151
  245MOL0     H32313   5.502   9.346   4.037 -2.7861 -0.1323  0.5900
  245MOL0     H32314   5.514   9.194   3.764  1.0006  1.4637 -0.3183
  245MOL0     H32315   5.561   9.130   3.912  2.1223 -0.1573 -1.6616
  245MOL0     H32316   5.693   9.373   3.790  1.4012  0.5294  1.0799
  245MOL0     H32317   5.754   9.201   3.778 -0.7019 -0.7107  0.7520
  245MOL0     H32318   5.886   9.328   3.931  0.1753 -0.3345  0.6639
  245MOL0     H32319   5.740   9.383   4.015 -1.4683 -1.1762  1.5715
  245MOL0     H32320   5.877   9.114   4.017  0.0130 -0.3511  1.2827
  245MOL0     H32321   5.703   9.119   4.062 -0.4356 -0.0306 -0.0504
  245MOL0     H32322   4.984   9.644   4.244 -1.1780  0.1350  3.1246
  245MOL0     H32323   4.726   9.669   4.327 -3.5708 -1.8780 -0.2962
  245MOL0     H32324   4.324   9.668   4.544 -0.3210  2.3629  1.4809
  245MOL0     H32325   4.168   9.846   4.551  2.7039  2.2685 -0.1354
  245MOL0     H32326   4.376  10.188   3.738 -0.1379  0.0606 -0.1775
  245MOL0     H32327   4.558  10.170   3.565  2.4821 -1.6050 -1.0050
  245MOL0     H32328   4.889   9.697   3.275  1.7936 -1.0444 -2.1755
  245MOL0     H32329   5.116   9.737   3.208  0.7677  0.1387  2.1752
  245MOL0     H32330   5.318   9.801   3.268  0.9485 -0.1017  0.0241
  245MOL0     H32331   5.326   9.935   3.375 -2.5459  0.2781 -0.4618
  245MOL0     H32332   5.486  10.051   3.204 -3.7419  0.3457 -0.9246
  245MOL0     H32333   5.552   9.896   3.263  0.2447  1.1629  0.0260
  245MOL0     H32334   5.404   9.945   2.994  1.9355  0.7275 -0.7508
  245MOL0     H32335   5.449   9.787   3.048 -2.6485 -0.4072  1.5797
  245MOL0     H32336   5.613   9.906   2.897  0.6818  0.3400 -0.7238
  245MOL0     H32337   5.645  10.022   3.020 -1.8397 -0.0014  1.4095
  245MOL0     H32338   5.877   9.707   3.168 -0.9152 -0.2532  1.0817
  245MOL0     H32339   5.073  10.153   3.284  0.3184 -0.8881  0.7524
  245MOL0     H32340   4.845  10.125   3.366 -0.9961 -0.2635 -1.4176
  246MOL0     O32341   1.820   8.901   0.330  0.0644  0.3788  0.3155
  246MOL0     C32342   1.913   8.857   0.399  0.1903 -0.6918  0.2498
  246MOL0     O32343   1.909   8.752   0.481 -0.8290  0.0194 -0.0810
  246MOL0     C32344   1.792   8.680   0.487 -0.2441 -0.0329 -0.6931
  246MOL0     C32345   1.661   8.732   0.481  0.4398 -0.2676  0.1868
  246MOL0     C32346   1.551   8.654   0.475 -0.7408  0.8366  0.6677
  246MOL0     C32347   1.566   8.523   0.506  0.7248 -0.2910 -0.0868
  246MOL0     O32348   1.443   8.460   0.506 -0.3021 -0.0144  0.1846
  246MOL0     C32349   1.432   8.328   0.554  0.2289 -0.1501  0.5519
  246MOL0     C32350   1.292   8.285   0.512  0.3376  0.6827  0.6122
  246MOL0     C32351   1.269   8.138   0.549  0.5505  0.0117 -1.0553
  246MOL0     C32352   1.122   8.097   0.537 -0.7083 -0.5820 -0.2244
  246MOL0     C32353   1.098   7.947   0.555 -0.2393  0.7178 -0.1780
  246MOL0     C32354   1.145   7.884   0.684 -0.4188 -0.2007  0.1034
  246MOL0     C32355   1.101   7.951   0.808 -0.1849  0.4153 -1.3916
  246MOL0     C32356   0.959   7.921   0.849  0.7728  0.1529 -0.7969
  246MOL0     N32357   0.942   7.785   0.895  0.7637 -0.3438  0.0224
  246MOL0     C32358   0.928   7.741   1.028  0.4814  0.5834  0.1059
  246MOL0     C32359   0.877   7.611   1.025  0.0398 -0.1503 -0.0417
  246MOL0     C32360   0.841   7.528   1.142 -1.2563  0.0012  0.3723
  246MOL0     C32361   0.691   7.504   1.158 -0.2297 -0.0488 -0.4488
  246MOL0     C32362   0.653   7.418   1.278 -0.2364  0.0581 -0.2133
  246MOL0     C32363   0.501   7.404   1.311 -0.1145 -1.0626  0.1447
  246MOL0     O32364   0.491   7.360   1.447 -0.1917  0.2412  0.0472
  246MOL0     C32365   0.371   7.336   1.505  0.1851  0.6108  0.0006
  246MOL0     C32366   0.368   7.289   1.634  0.3774  0.0769  0.5828
  246MOL0     C32367   0.248   7.250   1.696 -0.5791 -0.3513 -1.0073
  246MOL0     C32368   0.128   7.271   1.632 -0.6616  0.0783 -0.0117
  246MOL0     C32369  -0.004   7.238   1.698 -0.0913 -0.8045  0.5218
  246MOL0     O32370  -0.114   7.281   1.637 -0.0110 -0.0662 -0.6756
  246MOL0     C32371  -0.229   7.273   1.709 -0.0522 -0.7125 -0.1927
  246MOL0     C32372  -0.311   7.150   1.711  0.0377 -0.0871 -0.1273
  246MOL0     C32373  -0.431   7.148   1.775  0.0781 -0.2240 -0.3028
  246MOL0     C32374  -0.480   7.265   1.836  0.0209 -0.1030  0.2774
  246MOL0     O32375  -0.611   7.263   1.874 -0.2894  0.0102  0.2016
  246MOL0     C32376  -0.707   7.298   1.782  0.4559  0.0561  0.9589
  246MOL0     C32377  -0.842   7.295   1.855  0.1440  0.3181 -0.9689
  246MOL0     C32378  -0.854   7.411   1.963 -0.7671  0.0860  0.2168
  246MOL0     C32379  -0.989   7.407   2.030  0.1656 -0.0611  0.4240
  246MOL0     C32380  -0.985   7.488   2.159  0.2221 -0.8064 -0.4285
  246MOL0     C32381  -1.114   7.459   2.242  0.2610 -0.9243  0.5441
  246MOL0     C32382  -1.106   7.490   2.390  0.0812  0.3808 -0.3546
  246MOL0     C32383  -1.243   7.489   2.464  0.2115  0.0610 -0.5820
  246MOL0    Cl32384  -1.313   7.639   2.384  0.2921 -0.1096 -0.0874
  246MOL0     C32385  -0.411   7.383   1.823  0.0998  0.2726  0.0234
  246MOL0     C32386  -0.290   7.392   1.756  0.4668  0.6913  0.6944
  246MOL0     O32387   0.003   7.182   1.806 -1.2256  0.5970  0.0042
  246MOL0     C32388   0.133   7.317   1.502 -0.0126  0.2853  0.4674
  246MOL0     C32389   0.250   7.352   1.433  0.6098  0.2466  0.3802
  246MOL0     N32390   0.875   7.579   0.889 -0.5507 -0.1125  0.3733
  246MOL0     N32391   0.903   7.688   0.813  0.2688 -0.2911 -0.2548
  246MOL0     C32392   1.693   8.470   0.521 -0.6141 -0.8243  0.1317
  246MOL0     C32393   1.807   8.548   0.507 -0.1456 -0.2492 -0.4657
  246MOL0     C32394   2.043   8.914   0.356 -0.1342  0.2872 -0.1030
  246MOL0     C32395   2.047   9.030   0.268  0.1372  0.8142 -0.0765
  246MOL0     C32396   2.165   9.066   0.212  0.3346  0.3803 -0.2133
  246MOL0     C32397   2.279   9.002   0.248  0.0671  0.1124 -1.1551
  246MOL0     O32398   2.407   9.031   0.214 -0.5342 -0.7610  0.9643
  246MOL0     C32399   2.441   9.167   0.175  0.0737  0.5704 -0.4720
  246MOL0     C32400   2.585   9.182   0.132  0.3419  0.6503 -1.4216
  246MOL0     C32401   2.615   9.084   0.010  0.2168  0.1661  0.1224
  246MOL0     C32402   2.704   8.961   0.054  0.3484  0.3154  0.1780
  246MOL0     C32403   2.839   9.013   0.089 -1.3444  1.2146 -0.6587
  246MOL0     C32404   2.949   9.058   0.114 -0.1976  0.0471  0.6471
  246MOL0     C32405   2.280   8.891   0.326  0.4669  0.0344 -0.2782
  246MOL0     C32406   2.161   8.845   0.386 -0.2374 -1.2311 -0.7977
  246MOL0     H32407   1.629   8.836   0.487 -0.3611 -0.5243  0.4085
  246MOL0     H32408   1.449   8.689   0.467 -1.6918 -2.0234 -1.4794
  246MOL0     H32409   1.430   8.331   0.663  0.7100  2.0421  0.5403
  246MOL0     H32410   1.512   8.261   0.520  0.1505  0.7081 -1.4590
  246MOL0     H32411   1.287   8.286   0.403 -0.0188 -0.3731  0.6106
  246MOL0     H32412   1.214   8.352   0.550  0.2161  1.4257 -0.8751
  246MOL0     H32413   1.296   8.119   0.653 -4.0108  0.5102  0.4728
  246MOL0     H32414   1.326   8.070   0.485 -1.1829 -2.8869  0.2741
  246MOL0     H32415   1.062   8.158   0.606  0.3095  0.1813  0.0055
  246MOL0     H32416   1.088   8.123   0.437  0.3070 -1.3573 -0.7807
  246MOL0     H32417   1.148   7.892   0.474  0.4778 -0.1939  0.8582
  246MOL0     H32418   0.992   7.921   0.554 -0.1360  0.2856 -0.4202
  246MOL0     H32419   1.253   7.869   0.674 -0.8146 -3.4330 -0.4332
  246MOL0     H32420   1.105   7.782   0.696 -0.3811 -0.2765 -0.3928
  246MOL0     H32421   1.176   7.924   0.882 -0.8954  0.2584 -0.7140
  246MOL0     H32422   1.099   8.060   0.797 -0.7876  0.3595 -1.9081
  246MOL0     H32423   0.891   7.945   0.766 -0.6803  0.0683  0.3338
  246MOL0     H32424   0.947   7.990   0.932 -2.7902  0.0265 -1.0291
  246MOL0     H32425   0.954   7.789   1.122  0.9475 -2.4377  1.6321
  246MOL0     H32426   0.876   7.574   1.234 -0.3316 -0.4170  0.2414
  246MOL0     H32427   0.881   7.427   1.127 -1.3313  0.1014 -0.5884
  246MOL0     H32428   0.666   7.460   1.061  0.5246  0.5382 -0.9218
  246MOL0     H32429   0.636   7.598   1.167  0.8459  0.5494  0.1004
  246MOL0     H32430   0.679   7.315   1.253 -0.2072 -0.4897  1.9380
  246MOL0     H32431   0.711   7.451   1.364  2.4829  0.3012 -2.0126
  246MOL0     H32432   0.458   7.348   1.228  2.7930 -1.3852 -1.2615
  246MOL0     H32433   0.450   7.501   1.308 -0.4845 -1.2396  0.5294
  246MOL0     H32434   0.462   7.284   1.687  1.3662  0.9505 -1.0118
  246MOL0     H32435   0.264   7.200   1.791 -0.1685 -0.1414 -0.9614
  246MOL0     H32436  -0.270   7.059   1.666 -1.9767 -2.0283  1.7232
  246MOL0     H32437  -0.490   7.057   1.780 -1.7694  1.0123  1.6801
  246MOL0     H32438  -0.705   7.220   1.705  1.4792 -0.1315  1.1609
  246MOL0     H32439  -0.695   7.398   1.738 -0.8742  0.3744  1.2748
  246MOL0     H32440  -0.852   7.203   1.914 -0.9136  0.3079 -1.1377
  246MOL0     H32441  -0.923   7.296   1.781 -1.2986 -3.4958  0.3024
  246MOL0     H32442  -0.837   7.507   1.915  0.6774  0.3741  1.2230
  246MOL0     H32443  -0.779   7.406   2.043 -1.7759  1.8408  1.3277
  246MOL0     H32444  -1.052   7.459   1.957  2.3864  3.3521  0.7296
  246MOL0     H32445  -1.016   7.303   2.052  0.6244 -0.3951 -0.5466
  246MOL0     H32446  -0.975   7.594   2.135  0.0606 -0.6819  0.0306
  246MOL0     H32447  -0.904   7.458   2.226  0.1321  0.3699  0.2371
  246MOL0     H32448  -1.138   7.353   2.225 -1.1909 -0.1838 -3.0684
  246MOL0     H32449  -1.193   7.509   2.184  0.0982 -1.7671  0.0214
  246MOL0     H32450  -1.039   7.420   2.443 -2.0951 -1.7213 -0.2131
  246MOL0     H32451  -1.073   7.593   2.409 -1.8431  0.9803 -0.1012
  246MOL0     H32452  -1.233   7.507   2.571 -1.0899 -2.4355  0.0381
  246MOL0     H32453  -1.304   7.399   2.460  0.4645 -0.1771  0.7610
  246MOL0     H32454  -0.444   7.481   1.853  0.3141  0.2038  0.4931
  246MOL0     H32455  -0.231   7.480   1.730  1.2409 -0.8352 -3.6818
  246MOL0     H32456   0.044   7.345   1.446 -0.8019 -1.2198  0.9011
  246MOL0     H32457   0.235   7.383   1.330 -1.7687 -0.8529  0.3304
  246MOL0     H32458   1.695   8.363   0.537 -0.3449 -0.5465  2.3509
  246MOL0     H32459   1.906   8.504   0.504 -0.7030 -1.6549  0.5113
  246MOL0     H32460   1.952   9.077   0.244  0.3353  1.3651  0.1887
  246MOL0     H32461   2.172   9.165   0.169  1.4124  0.9478  1.1891
  246MOL0     H32462   2.438   9.224   0.269 -1.4356 -0.1923 -0.0201
  246MOL0     H32463   2.372   9.203   0.098 -1.0278  1.2088  0.7546
  246MOL0     H32464   2.592   9.285   0.096  5.1771  0.6623 -1.1258
  246MOL0     H32465   2.636   9.162   0.226  3.0579 -0.1216 -2.9521
  246MOL0     H32466   2.667   9.135  -0.072  0.0167 -4.7509 -3.5851
  246MOL0     H32467   2.520   9.054  -0.034  1.0384  0.8463 -2.2826
  246MOL0     H32468   2.663   8.909   0.141 -1.9097  0.4328 -0.7455
  246MOL0     H32469   2.704   8.895  -0.034  1.2875  0.4153  0.0979
  246MOL0     H32470   3.051   9.084   0.132  0.1537 -2.8637  4.0953
  246MOL0     H32471   2.376   8.845   0.344  1.5649  2.1301 -0.4829
  246MOL0     H32472   2.149   8.751   0.439  0.3079 -0.8851 -0.0555
  247MOL0     O32473   8.536   1.378   4.088  0.4088 -0.2477 -0.0588
  247MOL0     C32474   8.541   1.500   4.056  0.5287 -0.2065 -0.0958
  247MOL0     O32475   8.428   1.584   4.023  0.5509  0.4863 -0.0637
  247MOL0     C32476   8.304   1.521   4.002 -0.3629  0.7773  0.5483
  247MOL0     C32477   8.187   1.596   4.025  1.2009  0.0153 -0.7901
  247MOL0     C32478   8.060   1.539   3.992 -0.6186 -0.2505  0.4841
  247MOL0     C32479   8.048   1.409   3.945  0.7704  0.5547  0.5393
  247MOL0     O32480   7.923   1.366   3.917 -0.0969  0.7069 -0.1718
  247MOL0     C32481   7.883   1.237   3.860 -0.1300  1.3221 -0.2114
  247MOL0     C32482   7.728   1.249   3.827 -0.4672  0.5361  0.1696
  247MOL0     C32483   7.712   1.344   3.698 -0.5646 -0.2390  0.0632
  247MOL0     C32484   7.568   1.379   3.674 -0.6983 -0.2748  0.0057
  247MOL0     C32485   7.536   1.443   3.534 -0.0145  0.4986 -0.2264
  247MOL0     C32486   7.399   1.494   3.519  0.5240  0.4110  0.1661
  247MOL0     C32487   7.284   1.385   3.506  0.6863 -0.1656  0.7768
  247MOL0     C32488   7.159   1.450   3.434 -0.1849 -0.3217  0.9924
  247MOL0     N32489   7.039   1.361   3.461 -1.0315 -1.0690  0.1968
  247MOL0     C32490   7.020   1.230   3.431 -0.0815  0.5027  0.3631
  247MOL0     C32491   6.919   1.199   3.525  0.4431  0.9001 -0.7590
  247MOL0     C32492   6.869   1.071   3.563  0.5835 -0.1557  0.0671
  247MOL0     C32493   6.824   1.052   3.713 -0.2791  0.2592 -0.5502
  247MOL0     C32494   6.786   0.907   3.750  0.2375 -0.0064 -0.3607
  247MOL0     C32495   6.643   0.869   3.694 -0.9265 -0.3267  0.1805
  247MOL0     O32496   6.592   0.760   3.776 -0.2890 -0.2529 -0.3109
  247MOL0     C32497   6.458   0.724   3.752 -0.5438  1.1403  1.2799
  247MOL0     C32498   6.375   0.784   3.649 -0.1661 -0.6738 -0.5323
  247MOL0     C32499   6.238   0.748   3.649  0.4839 -0.5001 -0.8394
  247MOL0     C32500   6.182   0.664   3.748 -0.5895 -0.4255 -0.0112
  247MOL0     C32501   6.041   0.651   3.767 -0.1829  0.7743  0.3379
  247MOL0     O32502   5.968   0.691   3.657  0.1174 -0.2759 -0.4679
  247MOL0     C32503   5.837   0.651   3.657 -0.6606  0.2574  0.1156
  247MOL0     C32504   5.794   0.520   3.662 -0.0204  0.1344  0.5026
  247MOL0     C32505   5.658   0.490   3.670  0.1219 -0.0839  0.5965
  247MOL0     C32506   5.554   0.587   3.668 -0.2876 -0.0369 -0.6125
  247MOL0     O32507   5.426   0.550   3.683 -0.0558 -0.8341  0.1482
  247MOL0     C32508   5.329   0.655   3.669  0.1489 -0.0731 -0.0801
  247MOL0     C32509   5.191   0.595   3.693  0.3739  0.0858  0.7444
  247MOL0     C32510   5.081   0.708   3.675  0.3829 -0.5977 -0.1944
  247MOL0     C32511   4.936   0.662   3.698  1.0788  0.0297 -0.0178
  247MOL0     C32512   4.836   0.770   3.661 -0.1887  0.1634  0.7499
  247MOL0     C32513   4.691   0.719   3.686  0.2209  0.0468  0.2139
  247MOL0     C32514   4.587   0.819   3.649  0.6891  0.1653 -0.0447
  247MOL0     C32515   4.443   0.772   3.677  0.3611 -0.1965  0.5136
  247MOL0    Cl32516   4.404   0.625   3.560 -0.1534  0.2885 -0.5047
  247MOL0     C32517   5.602   0.718   3.654 -0.6401 -0.0590 -0.3710
  247MOL0     C32518   5.741   0.748   3.648  1.3628 -0.2645 -0.1070
  247MOL0     O32519   5.992   0.596   3.870 -0.6059 -0.2206  1.0174
  247MOL0     C32520   6.268   0.595   3.832 -0.0066  0.5237 -0.6098
  247MOL0     C32521   6.408   0.628   3.834  0.2661  0.8088 -0.1865
  247MOL0     N32522   6.881   1.312   3.594  0.2646 -0.7724 -0.3126
  247MOL0     N32523   6.956   1.403   3.553 -0.3062  0.0866  0.5273
  247MOL0     C32524   8.164   1.339   3.914 -0.3981 -0.4029  0.4116
  247MOL0     C32525   8.293   1.392   3.939 -0.8500  0.1069 -0.0125
  247MOL0     C32526   8.669   1.560   4.068 -0.5195 -0.1722  0.2636
  247MOL0     C32527   8.683   1.706   4.046  0.2440  0.7343 -0.2261
  247MOL0     C32528   8.803   1.773   4.075 -0.0184 -0.0351 -0.1339
  247MOL0     C32529   8.916   1.710   4.122  0.0405 -0.1104  1.1933
  247MOL0     O32530   9.041   1.761   4.147  0.2299 -0.1294 -0.2429
  247MOL0     C32531   9.056   1.908   4.135  0.4107  0.2580 -0.2779
  247MOL0     C32532   9.192   1.951   4.187  0.2940 -0.5496 -0.0694
  247MOL0     C32533   9.300   1.858   4.135 -1.0710 -1.1178 -0.6070
  247MOL0     C32534   9.432   1.935   4.120  0.2446  0.5692 -1.0955
  247MOL0     C32535   9.536   1.833   4.089  0.4271  0.5287  0.3133
  247MOL0     C32536   9.626   1.758   4.065  0.0102  0.7934 -0.3710
  247MOL0     C32537   8.900   1.575   4.150  0.0972 -0.1830  0.2002
  247MOL0     C32538   8.780   1.501   4.125 -0.2194 -0.1117  0.2133
  247MOL0     H32539   8.199   1.692   4.074  1.4801 -0.5408  0.2905
  247MOL0     H32540   7.966   1.591   4.008  0.3259  1.7054 -0.0482
  247MOL0     H32541   7.889   1.163   3.940  1.8762 -0.4827 -1.9529
  247MOL0     H32542   7.937   1.205   3.771  1.1254 -0.8065  1.2243
  247MOL0     H32543   7.665   1.287   3.907 -1.0191  0.6294 -0.2980
  247MOL0     H32544   7.691   1.149   3.803 -0.4715  1.1436 -2.8084
  247MOL0     H32545   7.755   1.290   3.614  0.7048  1.0447 -0.1576
  247MOL0     H32546   7.769   1.435   3.718  1.9099 -1.3496 -1.5407
  247MOL0     H32547   7.504   1.290   3.686 -2.1841  0.6571 -0.6544
  247MOL0     H32548   7.535   1.446   3.754  2.7829  2.0042 -0.2720
  247MOL0     H32549   7.571   1.367   3.463  0.2837  0.2997  0.1312
  247MOL0     H32550   7.606   1.527   3.525  0.5913 -0.1529 -2.2224
  247MOL0     H32551   7.401   1.538   3.419 -0.6655 -2.4657 -1.2300
  247MOL0     H32552   7.371   1.567   3.596  1.5056  0.9625  0.0089
  247MOL0     H32553   7.313   1.300   3.444 -2.6679 -0.2646 -0.9109
  247MOL0     H32554   7.266   1.348   3.607 -2.5191  0.6351  0.6167
  247MOL0     H32555   7.175   1.457   3.326  0.6992  0.3168  1.1575
  247MOL0     H32556   7.131   1.551   3.467  0.9539  0.4398 -0.2828
  247MOL0     H32557   7.084   1.169   3.368  0.0953  0.5697  0.4756
  247MOL0     H32558   6.947   0.996   3.543  0.4977 -0.7313  1.7567
  247MOL0     H32559   6.784   1.041   3.500  0.8527 -3.4130  1.0554
  247MOL0     H32560   6.751   1.128   3.744 -1.5118 -0.1513 -2.2935
  247MOL0     H32561   6.915   1.073   3.769 -0.3315 -1.5872  0.3087
  247MOL0     H32562   6.870   0.840   3.730 -2.0634 -3.3672  0.3921
  247MOL0     H32563   6.777   0.896   3.858  1.4604 -1.8512 -0.3952
  247MOL0     H32564   6.649   0.838   3.589  1.5042 -2.3345  0.8226
  247MOL0     H32565   6.567   0.947   3.707 -0.7560  0.2409 -1.9361
  247MOL0     H32566   6.413   0.840   3.565 -2.0707 -1.0116 -1.6879
  247MOL0     H32567   6.174   0.784   3.569 -0.0157 -1.6145 -0.9534
  247MOL0     H32568   5.872   0.446   3.649 -0.1056  0.0005  0.7421
  247MOL0     H32569   5.628   0.386   3.672  0.0798 -0.0605  1.3379
  247MOL0     H32570   5.326   0.697   3.568  0.2925 -2.6676 -1.2432
  247MOL0     H32571   5.340   0.734   3.744  1.6640 -0.5374  0.2213
  247MOL0     H32572   5.174   0.547   3.790 -0.7782 -0.1509  0.4373
  247MOL0     H32573   5.171   0.514   3.621 -1.8614  0.5430  0.8026
  247MOL0     H32574   5.092   0.757   3.578 -1.8847  2.3478  0.8896
  247MOL0     H32575   5.103   0.788   3.746 -0.4717  1.1412 -1.8009
  247MOL0     H32576   4.908   0.581   3.630 -2.8474 -0.6998  2.1922
  247MOL0     H32577   4.917   0.622   3.798 -2.3252 -0.0085 -0.5589
  247MOL0     H32578   4.846   0.804   3.557 -0.9563 -0.1073  0.5764
  247MOL0     H32579   4.854   0.847   3.736 -1.9495  0.2651  1.1069
  247MOL0     H32580   4.667   0.679   3.785 -1.8359 -0.2910 -0.3749
  247MOL0     H32581   4.680   0.630   3.623 -0.8924  1.0403 -1.0518
  247MOL0     H32582   4.606   0.912   3.703  0.7937  1.0115 -1.4858
  247MOL0     H32583   4.588   0.853   3.545  0.4128 -2.2811 -0.9217
  247MOL0     H32584   4.369   0.853   3.670  0.6934  0.0165 -0.8912
  247MOL0     H32585   4.441   0.733   3.779 -2.8016  0.8771  0.9663
  247MOL0     H32586   5.533   0.801   3.642 -0.3470  0.0111 -1.6514
  247MOL0     H32587   5.755   0.856   3.638 -0.3704  0.4424  3.4536
  247MOL0     H32588   6.225   0.525   3.903  1.9510  0.0628  0.1879
  247MOL0     H32589   6.470   0.584   3.911  0.5051  0.6175 -0.4837
  247MOL0     H32590   8.140   1.252   3.854 -0.9138 -1.5228  2.1483
  247MOL0     H32591   8.384   1.340   3.908 -0.7191  0.5488 -0.3854
  247MOL0     H32592   8.596   1.760   4.011  0.6059  2.3123  1.1327
  247MOL0     H32593   8.804   1.881   4.061 -1.8391  0.1686  0.9596
  247MOL0     H32594   8.978   1.951   4.199  0.3851  0.5468 -0.4990
  247MOL0     H32595   9.050   1.949   4.033 -2.2130  1.2916  0.2052
  247MOL0     H32596   9.207   2.047   4.136  0.6672 -0.3543  0.3944
  247MOL0     H32597   9.193   1.952   4.297  4.6016  0.0719  0.0390
  247MOL0     H32598   9.266   1.828   4.035 -1.0900 -0.7261 -0.7209
  247MOL0     H32599   9.308   1.766   4.194  0.6446 -0.4414  0.2850
  247MOL0     H32600   9.428   2.009   4.039  1.9705  3.9701  1.6383
  247MOL0     H32601   9.470   1.989   4.208  1.4897  1.2524 -2.0153
  247MOL0     H32602   9.698   1.682   4.042 -2.4094 -1.4064 -1.1987
  247MOL0     H32603   8.986   1.529   4.196  0.4063  1.5943  1.4715
  247MOL0     H32604   8.795   1.395   4.144 -0.5418 -0.0447  0.8499
  248MOL0     O32605   7.448   6.056   3.960  0.0205 -0.0322  0.0397
  248MOL0     C32606   7.522   5.958   3.967 -0.4258 -1.0316 -0.2066
  248MOL0     O32607   7.480   5.821   3.958  0.0528 -0.0971  0.5245
  248MOL0     C32608   7.348   5.784   3.969  0.8659 -0.4696 -0.2308
  248MOL0     C32609   7.242   5.862   3.992  0.9574 -0.0570 -0.1614
  248MOL0     C32610   7.118   5.804   4.013  0.3585 -0.4517 -0.3474
  248MOL0     C32611   7.091   5.666   4.013 -0.3043  0.1517  0.3801
  248MOL0     O32612   6.962   5.634   4.006  0.7372  0.5181  0.0427
  248MOL0     C32613   6.915   5.533   4.095 -0.4451 -0.1112  0.3516
  248MOL0     C32614   6.778   5.563   4.170  0.4777 -0.0355  0.3706
  248MOL0     C32615   6.668   5.568   4.063  0.2897 -0.4289 -0.3438
  248MOL0     C32616   6.639   5.439   3.990 -0.0976  0.8936  0.1328
  248MOL0     C32617   6.512   5.428   3.893  0.2966  0.2306 -0.5709
  248MOL0     C32618   6.387   5.416   3.972  0.7167 -0.3871 -1.0007
  248MOL0     C32619   6.265   5.385   3.886 -1.0545  0.6864  0.6898
  248MOL0     C32620   6.136   5.370   3.956 -0.3951 -0.2337  0.1411
  248MOL0     N32621   6.025   5.321   3.873  0.1373 -0.1632 -0.5322
  248MOL0     C32622   5.958   5.400   3.785  0.5893  0.3970  0.0841
  248MOL0     C32623   5.853   5.329   3.740  0.0215 -0.0351  0.4909
  248MOL0     C32624   5.747   5.366   3.635  0.0221  0.4380  0.6547
  248MOL0     C32625   5.615   5.398   3.700  0.0123  0.0613 -0.0689
  248MOL0     C32626   5.526   5.456   3.584  0.3769 -1.1696  0.8311
  248MOL0     C32627   5.395   5.504   3.638  0.0313 -0.7550  0.2742
  248MOL0     O32628   5.300   5.398   3.651  0.6535  0.8101 -0.0567
  248MOL0     C32629   5.180   5.414   3.713  0.8179  0.3564  0.1934
  248MOL0     C32630   5.108   5.299   3.727 -0.0441  0.8501  0.5156
  248MOL0     C32631   4.979   5.297   3.786  0.6278  0.3441 -0.0401
  248MOL0     C32632   4.913   5.420   3.813  0.1794  0.1818 -0.0236
  248MOL0     C32633   4.778   5.422   3.886  0.5708  0.0833 -0.0824
  248MOL0     O32634   4.729   5.300   3.900  0.5805  0.3244 -0.4346
  248MOL0     C32635   4.599   5.291   3.928  0.5892  0.1050 -0.1738
  248MOL0     C32636   4.561   5.238   4.054 -0.3917 -0.7852 -0.1478
  248MOL0     C32637   4.429   5.247   4.101 -0.4131  0.4227 -0.2928
  248MOL0     C32638   4.324   5.280   4.015 -0.7523  0.2476  0.2683
  248MOL0     O32639   4.203   5.258   4.062 -0.4995 -0.5916  0.5108
  248MOL0     C32640   4.093   5.311   3.988  1.0059  0.2956 -0.3993
  248MOL0     C32641   3.967   5.267   4.067  0.3608 -0.4043 -0.3868
  248MOL0     C32642   3.964   5.350   4.203 -0.0092  0.8309  0.0859
  248MOL0     C32643   3.857   5.297   4.287  0.1621  0.5759  0.5455
  248MOL0     C32644   3.815   5.384   4.398  0.0964 -0.6995 -0.1699
  248MOL0     C32645   3.683   5.334   4.466 -0.5923  0.4683 -0.4493
  248MOL0     C32646   3.649   5.412   4.596 -0.3710  0.7076  0.4488
  248MOL0     C32647   3.501   5.384   4.638  0.1760 -0.5965  0.1364
  248MOL0    Cl32648   3.471   5.207   4.674 -0.0370  0.4428  0.2379
  248MOL0     C32649   4.357   5.342   3.891  0.2230  0.8063 -0.4634
  248MOL0     C32650   4.502   5.350   3.853  1.0188 -0.5707  0.1493
  248MOL0     O32651   4.725   5.529   3.926  0.6949 -0.6539  0.2013
  248MOL0     C32652   4.994   5.537   3.800 -0.3655  0.2870 -0.2467
  248MOL0     C32653   5.126   5.537   3.759  0.8003  0.5429 -0.0940
  248MOL0     N32654   5.875   5.192   3.789  0.2936  0.0021 -0.1939
  248MOL0     N32655   5.987   5.192   3.858  0.8715  0.3278 -0.0435
  248MOL0     C32656   7.198   5.588   4.001 -0.4750  0.4643 -0.1997
  248MOL0     C32657   7.328   5.640   3.982 -0.7507 -0.6881  0.1440
  248MOL0     C32658   7.675   5.981   3.984 -0.0216 -0.0856  0.6819
  248MOL0     C32659   7.772   5.875   3.992 -0.5970  0.3011  0.0835
  248MOL0     C32660   7.905   5.897   3.981 -0.0367 -0.4848 -0.4541
  248MOL0     C32661   7.954   6.027   3.978  0.2969 -0.6350 -0.9017
  248MOL0     O32662   8.085   6.041   3.975 -0.2844 -0.1321  0.6102
  248MOL0     C32663   8.145   6.164   4.017  0.2849 -0.2956  0.8751
  248MOL0     C32664   8.293   6.162   3.983  0.0066 -0.1727  0.3365
  248MOL0     C32665   8.370   6.057   4.059 -0.0250 -1.0916  0.5227
  248MOL0     C32666   8.515   6.042   3.995  0.2045  0.2424  0.5413
  248MOL0     C32667   8.599   5.979   4.093  0.2217 -0.2831  0.3884
  248MOL0     C32668   8.670   5.909   4.164 -0.3182  0.1852 -0.2383
  248MOL0     C32669   7.859   6.133   3.963 -0.0164  0.1833  0.7882
  248MOL0     C32670   7.726   6.106   3.961 -0.0617 -0.0626  0.0954
  248MOL0     H32671   7.238   5.970   3.983 -0.3445 -0.0623  0.1916
  248MOL0     H32672   7.032   5.869   4.029  0.0762 -1.1078  0.9219
  248MOL0     H32673   6.999   5.517   4.163  0.7285  0.8533 -0.8175
  248MOL0     H32674   6.904   5.441   4.038 -0.0013 -0.4720  0.8446
  248MOL0     H32675   6.764   5.651   4.233 -1.7678 -1.5143  2.0972
  248MOL0     H32676   6.754   5.475   4.231  1.8818 -1.1559 -0.6035
  248MOL0     H32677   6.693   5.649   3.994  0.3435 -1.8472 -2.0659
  248MOL0     H32678   6.569   5.586   4.106  0.8365  1.4007  0.2506
  248MOL0     H32679   6.719   5.414   3.920 -1.5913 -1.7508 -0.7845
  248MOL0     H32680   6.631   5.349   4.052  1.0038  0.7802  0.1211
  248MOL0     H32681   6.525   5.340   3.830 -1.6737 -0.5353  0.0417
  248MOL0     H32682   6.518   5.512   3.822 -1.1644 -0.2093 -1.2576
  248MOL0     H32683   6.363   5.512   4.018 -2.3301 -1.4070 -0.1992
  248MOL0     H32684   6.386   5.344   4.054 -1.0669 -0.2603 -0.8686
  248MOL0     H32685   6.246   5.464   3.813  0.6625  1.1793  0.7238
  248MOL0     H32686   6.287   5.292   3.832 -0.7462  1.6327 -0.8989
  248MOL0     H32687   6.108   5.467   3.999  1.1597  0.4994 -0.4209
  248MOL0     H32688   6.153   5.309   4.045  2.0691  2.5258  1.7324
  248MOL0     H32689   5.991   5.501   3.760  0.4086  1.5317  3.8802
  248MOL0     H32690   5.741   5.288   3.558  1.5880  0.5924  0.3366
  248MOL0     H32691   5.778   5.453   3.576 -1.0171  0.5175  0.2006
  248MOL0     H32692   5.637   5.478   3.770 -0.0481  1.1135 -1.2225
  248MOL0     H32693   5.560   5.318   3.751 -2.7566  2.1496  0.4447
  248MOL0     H32694   5.583   5.541   3.544  0.7650 -1.6645  0.3236
  248MOL0     H32695   5.503   5.394   3.497 -1.8320 -0.3667  0.7814
  248MOL0     H32696   5.357   5.577   3.566  2.9145 -1.6277 -2.3600
  248MOL0     H32697   5.415   5.558   3.731 -3.3442 -0.8985  1.1858
  248MOL0     H32698   5.165   5.209   3.703 -0.8225 -0.0162  1.8043
  248MOL0     H32699   4.920   5.207   3.802  1.7023 -0.4551 -0.4759
  248MOL0     H32700   4.647   5.202   4.109 -0.6438  1.0039  1.5159
  248MOL0     H32701   4.420   5.223   4.206  2.2323 -0.8085 -0.2765
  248MOL0     H32702   4.081   5.252   3.896  2.1901  2.3863 -1.9701
  248MOL0     H32703   4.095   5.418   3.967 -1.7487  0.4947 -0.1104
  248MOL0     H32704   3.970   5.160   4.089  1.4994  0.0366  1.8590
  248MOL0     H32705   3.874   5.291   4.015  1.0177  0.6156 -1.1254
  248MOL0     H32706   3.941   5.454   4.179 -1.0377  0.1064 -2.3131
  248MOL0     H32707   4.058   5.338   4.258 -0.2463 -0.5790  0.2289
  248MOL0     H32708   3.769   5.285   4.224  0.7892  3.3952 -1.0657
  248MOL0     H32709   3.895   5.200   4.319  0.2469 -0.1669 -1.6678
  248MOL0     H32710   3.796   5.482   4.355 -2.1263  0.2367  2.5697
  248MOL0     H32711   3.902   5.381   4.464 -0.3264 -1.5428  0.3764
  248MOL0     H32712   3.687   5.227   4.488  0.8303  0.4537 -0.6688
  248MOL0     H32713   3.600   5.361   4.400 -2.0014 -0.8249  0.7050
  248MOL0     H32714   3.721   5.380   4.672  1.1890  1.5845 -0.6126
  248MOL0     H32715   3.656   5.521   4.588  0.0731  0.6568  0.1373
  248MOL0     H32716   3.422   5.429   4.579  0.2730  2.6517  2.2267
  248MOL0     H32717   3.495   5.431   4.737  1.0575  0.0723 -0.1156
  248MOL0     H32718   4.276   5.373   3.825 -0.0576  0.1085 -0.4604
  248MOL0     H32719   4.524   5.405   3.762 -4.1222  0.3363 -0.8602
  248MOL0     H32720   4.953   5.631   3.836 -0.3109 -0.1997  1.1477
  248MOL0     H32721   5.190   5.624   3.771  1.0801  0.2565  0.5674
  248MOL0     H32722   7.185   5.481   3.990 -0.0398  0.3592  0.2542
  248MOL0     H32723   7.408   5.572   3.958 -1.5179 -1.5819  0.0672
  248MOL0     H32724   7.741   5.771   3.992 -0.0590  0.1382  0.4658
  248MOL0     H32725   7.975   5.815   3.989  1.0817  0.5964  2.4640
  248MOL0     H32726   8.130   6.188   4.122 -0.3731 -0.1853  0.7616
  248MOL0     H32727   8.105   6.243   3.951  1.7934 -0.4431 -0.2778
  248MOL0     H32728   8.318   6.156   3.877  2.1686  1.2954  0.6946
  248MOL0     H32729   8.340   6.257   4.010  2.3371 -2.2149  4.5290
  248MOL0     H32730   8.312   5.965   4.074  2.0013 -2.5663 -0.2420
  248MOL0     H32731   8.394   6.095   4.158  2.4181 -4.2940  1.3523
  248MOL0     H32732   8.509   5.973   3.910 -0.1557  1.2393 -0.2688
  248MOL0     H32733   8.553   6.137   3.957 -0.9782 -0.1808 -1.8893
  248MOL0     H32734   8.732   5.835   4.211  0.1990 -1.1037 -2.7668
  248MOL0     H32735   7.886   6.235   3.937 -3.1541  0.7227 -1.0036
  248MOL0     H32736   7.653   6.183   3.938 -0.1157  0.1359  0.8834
  249MOL0     O32737   0.540   9.921   5.472 -0.2113  0.0759  1.3314
  249MOL0     C32738   0.487   9.926   5.361 -0.4918 -0.0144  0.6069
  249MOL0     O32739   0.554   9.944   5.238  0.0654  0.4943 -0.7643
  249MOL0     C32740   0.681   9.911   5.213 -0.5769  0.1668  0.3804
  249MOL0     C32741   0.783   9.930   5.302 -0.4703  0.0957 -0.7427
  249MOL0     C32742   0.914   9.904   5.268 -0.8724  0.2470  0.1371
  249MOL0     C32743   0.945   9.846   5.146  0.2948  0.5299 -0.7607
  249MOL0     O32744   1.069   9.811   5.110  1.4613  0.0478 -0.3817
  249MOL0     C32745   1.162   9.914   5.090  0.4409 -0.3413 -1.0694
  249MOL0     C32746   1.129  10.007   4.977  0.2342 -0.8666  0.1581
  249MOL0     C32747   1.252  10.081   4.915 -0.3398  0.0786 -0.5095
  249MOL0     C32748   1.330  10.164   5.020  0.1691  0.0490  0.4330
  249MOL0     C32749   1.459  10.237   4.965  0.1809  0.4246  0.2399
  249MOL0     C32750   1.557  10.276   5.073 -0.8961  0.1133 -0.1665
  249MOL0     C32751   1.513  10.410   5.148 -0.2368 -0.5505  0.4270
  249MOL0     C32752   1.626  10.455   5.242 -0.2386  0.5818 -0.8830
  249MOL0     N32753   1.652  10.343   5.337  0.2361 -1.3185 -0.6007
  249MOL0     C32754   1.746  10.250   5.311  0.0939  0.1948 -0.5453
  249MOL0     C32755   1.750  10.178   5.424 -0.3545 -0.8458 -0.1845
  249MOL0     C32756   1.829  10.054   5.433 -0.7252  0.6569  0.0712
  249MOL0     C32757   1.777   9.938   5.516  0.2668  0.5400  0.5573
  249MOL0     C32758   1.842   9.801   5.487 -0.4051  0.6783  0.4142
  249MOL0     C32759   1.842   9.749   5.344  0.4842 -0.0658  0.6201
  249MOL0     O32760   1.903   9.618   5.333  0.0407  0.4419 -0.4671
  249MOL0     C32761   2.042   9.624   5.318  1.6285 -0.8193 -1.0287
  249MOL0     C32762   2.103   9.502   5.315 -0.5977  0.6898 -0.2332
  249MOL0     C32763   2.235   9.492   5.275 -0.5452 -0.0324 -0.3520
  249MOL0     C32764   2.307   9.606   5.230  0.1310 -0.0033  0.5670
  249MOL0     C32765   2.453   9.595   5.198 -0.2264  0.0660 -0.4858
  249MOL0     O32766   2.505   9.475   5.236  0.3176 -0.4006 -0.2153
  249MOL0     C32767   2.639   9.466   5.248 -0.0011 -1.6965  0.2802
  249MOL0     C32768   2.721   9.412   5.145 -0.3389  0.4305  0.8832
  249MOL0     C32769   2.860   9.406   5.148 -0.3321  0.6157  0.0158
  249MOL0     C32770   2.925   9.438   5.273  0.0687 -0.4248  0.0291
  249MOL0     O32771   3.062   9.431   5.282 -0.0666 -0.2417 -0.5505
  249MOL0     C32772   3.141   9.324   5.224 -0.6633  0.4773  0.3815
  249MOL0     C32773   3.122   9.198   5.313  0.2466 -0.5921 -0.3783
  249MOL0     C32774   3.231   9.207   5.423 -0.0976 -0.3158  0.0353
  249MOL0     C32775   3.234   9.079   5.507  0.4117  0.5224 -0.9228
  249MOL0     C32776   3.328   9.095   5.632 -0.3537  0.0044  0.3769
  249MOL0     C32777   3.389   8.961   5.668  0.0124 -0.3992  0.1600
  249MOL0     C32778   3.521   8.938   5.610  0.4120  0.4692  0.2282
  249MOL0     C32779   3.599   8.829   5.667 -0.4476 -0.2958  0.2338
  249MOL0    Cl32780   3.756   8.815   5.583  0.0691  0.1123  0.3500
  249MOL0     C32781   2.845   9.488   5.374 -0.2493  0.1868  0.3713
  249MOL0     C32782   2.705   9.512   5.366  0.0859  0.4697 -0.1690
  249MOL0     O32783   2.525   9.691   5.173 -0.0993  0.1510  0.1534
  249MOL0     C32784   2.246   9.735   5.236  0.0718  0.2959 -0.3098
  249MOL0     C32785   2.115   9.737   5.288  0.4889  0.5996 -0.0380
  249MOL0     N32786   1.651  10.223   5.505 -0.0011  0.1169 -0.1323
  249MOL0     N32787   1.592  10.320   5.455  0.5235 -0.3654 -0.1944
  249MOL0     C32788   0.840   9.829   5.056 -0.8854 -0.5064 -0.4270
  249MOL0     C32789   0.709   9.866   5.084  0.3916  1.0118 -0.4662
  249MOL0     C32790   0.342   9.930   5.371  0.3338 -0.5470  0.0641
  249MOL0     C32791   0.265   9.946   5.255 -0.2412 -0.4188 -0.2223
  249MOL0     C32792   0.130   9.972   5.269 -0.3871 -1.1289 -0.4396
  249MOL0     C32793   0.061   9.989   5.387 -0.6323 -0.0466 -0.1314
  249MOL0     O32794  -0.075  10.008   5.385 -1.3411  0.2192  0.4506
  249MOL0     C32795  -0.160   9.994   5.497 -0.1452 -0.4101  0.3153
  249MOL0     C32796  -0.299  10.042   5.468  0.5129  0.3178 -0.2398
  249MOL0     C32797  -0.395  10.070   5.584  1.4737 -0.1085 -0.3845
  249MOL0     C32798  -0.526  10.149   5.551 -0.1662 -0.5305 -0.4390
  249MOL0     C32799  -0.601  10.193   5.667 -0.1112  0.2607 -0.4014
  249MOL0     C32800  -0.651  10.234   5.770  0.2644  0.6414 -0.1081
  249MOL0     C32801   0.135   9.950   5.502  0.3015 -0.3240 -0.5722
  249MOL0     C32802   0.272   9.928   5.495 -0.0518 -0.0637  0.6113
  249MOL0     H32803   0.773   9.968   5.403 -0.4953 -4.0711  1.0233
  249MOL0     H32804   0.993   9.922   5.340  0.2645  2.4443 -1.5434
  249MOL0     H32805   1.259   9.867   5.070  1.8664  0.8822  2.2590
  249MOL0     H32806   1.163   9.966   5.186  0.2502 -2.0179 -0.1138
  249MOL0     H32807   1.056  10.078   5.016  0.0628 -1.4865  0.9946
  249MOL0     H32808   1.083   9.942   4.902 -2.7299 -1.3162  2.2174
  249MOL0     H32809   1.216  10.149   4.837  1.4423  0.8746 -0.6958
  249MOL0     H32810   1.315  10.009   4.862 -1.0259 -0.5297 -0.5044
  249MOL0     H32811   1.249  10.218   5.069 -0.8991 -0.6382 -0.5140
  249MOL0     H32812   1.369  10.093   5.094 -0.7324  0.4127  1.2832
  249MOL0     H32813   1.428  10.328   4.913  2.0808  0.8718 -0.1901
  249MOL0     H32814   1.509  10.165   4.900  1.1704 -0.7332  2.1841
  249MOL0     H32815   1.655  10.288   5.026 -0.8746 -1.7026 -0.6538
  249MOL0     H32816   1.574  10.191   5.140  2.0873  0.3390 -0.5197
  249MOL0     H32817   1.504  10.489   5.073  2.2364 -1.6301 -1.1308
  249MOL0     H32818   1.416  10.398   5.196 -1.4099  0.5502 -1.5221
  249MOL0     H32819   1.591  10.542   5.298  1.3523 -0.6975  2.3173
  249MOL0     H32820   1.717  10.486   5.189  0.1802  0.8006 -0.0550
  249MOL0     H32821   1.813  10.238   5.226  1.6928  1.6279  0.4530
  249MOL0     H32822   1.931  10.081   5.464 -0.7265  2.0426 -1.0543
  249MOL0     H32823   1.848  10.016   5.332  1.7348  4.0088 -0.9222
  249MOL0     H32824   1.669   9.923   5.507  0.0440  1.1801  1.8275
  249MOL0     H32825   1.800   9.947   5.623 -1.3626 -1.6512  1.1706
  249MOL0     H32826   1.947   9.814   5.514 -0.0271 -0.7549 -0.2548
  249MOL0     H32827   1.799   9.729   5.558  1.0294  0.6082  1.2602
  249MOL0     H32828   1.879   9.817   5.267 -0.8172 -0.2881 -0.2400
  249MOL0     H32829   1.738   9.743   5.310  0.9060  0.1775 -0.7878
  249MOL0     H32830   2.055   9.407   5.336 -0.3415  0.3618 -1.0848
  249MOL0     H32831   2.290   9.400   5.295  0.7860  0.7324 -0.4125
  249MOL0     H32832   2.664   9.372   5.062  1.6081  0.8005 -0.7029
  249MOL0     H32833   2.905   9.354   5.063  0.5937 -0.2051  0.9738
  249MOL0     H32834   3.247   9.350   5.222 -0.1057 -1.1270  3.4190
  249MOL0     H32835   3.122   9.308   5.117 -0.7550  0.3369  0.4181
  249MOL0     H32836   3.142   9.105   5.259 -1.1579 -2.6357  2.3775
  249MOL0     H32837   3.016   9.192   5.341  0.6001  0.9635  1.5176
  249MOL0     H32838   3.232   9.290   5.494  0.5292 -0.1446 -0.1637
  249MOL0     H32839   3.335   9.220   5.393  0.1763  0.6211  1.3103
  249MOL0     H32840   3.133   9.057   5.542  0.8296  1.7398  1.1513
  249MOL0     H32841   3.267   8.997   5.441  1.0986  0.7652 -0.8944
  249MOL0     H32842   3.265   9.127   5.715 -0.1388  1.5332 -0.0264
  249MOL0     H32843   3.404   9.173   5.624  0.9489 -1.1600  0.9551
  249MOL0     H32844   3.325   8.873   5.663  1.2184 -1.3384  0.7791
  249MOL0     H32845   3.415   8.982   5.772 -0.6850  0.6580  0.1425
  249MOL0     H32846   3.502   8.919   5.504 -3.1992 -0.6193  0.9307
  249MOL0     H32847   3.579   9.030   5.622 -0.0117  0.8979 -0.8968
  249MOL0     H32848   3.548   8.733   5.659  1.2501 -1.0392 -3.5040
  249MOL0     H32849   3.612   8.855   5.773  3.0299 -1.0042  0.0886
  249MOL0     H32850   2.901   9.512   5.465  2.0644 -0.0374 -0.9047
  249MOL0     H32851   2.648   9.554   5.448 -0.6353 -3.3676  1.5319
  249MOL0     H32852   2.296   9.830   5.221  1.4624 -0.0894  1.5481
  249MOL0     H32853   2.085   9.841   5.296 -0.7677  0.1411  1.6201
  249MOL0     H32854   0.861   9.794   4.955 -1.5960 -0.9186 -0.4391
  249MOL0     H32855   0.631   9.854   5.009  0.8528 -0.1519 -0.7887
  249MOL0     H32856   0.302   9.924   5.155  0.0023 -3.6272  0.4348
  249MOL0     H32857   0.064   9.983   5.184 -3.0494  1.4988  1.7641
  249MOL0     H32858  -0.130  10.051   5.586 -2.6373  1.1155  0.2672
  249MOL0     H32859  -0.165   9.894   5.541 -2.7014 -0.3767  0.2775
  249MOL0     H32860  -0.296  10.135   5.410 -0.3332  1.4306  1.4355
  249MOL0     H32861  -0.346   9.964   5.408  0.6026 -2.2336  2.7864
  249MOL0     H32862  -0.345  10.132   5.659  1.4877  1.1858 -1.4199
  249MOL0     H32863  -0.417   9.974   5.630  1.5460 -0.1580 -0.4546
  249MOL0     H32864  -0.495  10.244   5.507 -0.3143  0.4932  1.5673
  249MOL0     H32865  -0.594  10.087   5.492 -0.9722  0.0882 -0.1868
  249MOL0     H32866  -0.692  10.258   5.866 -1.3021  0.5177 -0.7155
  249MOL0     H32867   0.080   9.943   5.596  0.6181 -2.9050 -0.5262
  249MOL0     H32868   0.315   9.906   5.592  0.3800 -4.7650 -0.4279
  250MOL0     O32869   0.474  10.251   0.111 -0.3200 -0.9586  0.6837
  250MOL0     C32870   0.539  10.198   0.016 -0.4100  0.4847 -0.0422
  250MOL0     O32871   0.484  10.123  -0.083  0.2054 -0.2359 -0.5890
  250MOL0     C32872   0.354  10.076  -0.084  0.5600  0.3962  0.0294
  250MOL0     C32873   0.275  10.054   0.028  1.2734 -0.3990 -0.1104
  250MOL0     C32874   0.148   9.993   0.014 -0.0801 -0.0167  0.1643
  250MOL0     C32875   0.103   9.954  -0.115  0.1002  0.2064  0.0045
  250MOL0     O32876  -0.012   9.878  -0.137  0.0727 -0.1074  0.1623
  250MOL0     C32877  -0.099   9.932  -0.230  0.9675 -0.3087  0.0213
  250MOL0     C32878  -0.190   9.824  -0.266  0.1693  0.5258 -0.3043
  250MOL0     C32879  -0.274   9.849  -0.390 -0.2503  0.0270 -0.3603
  250MOL0     C32880  -0.404   9.770  -0.400  0.3603 -0.3265 -0.0806
  250MOL0     C32881  -0.401   9.632  -0.479  0.2167  0.1833 -0.6983
  250MOL0     C32882  -0.529   9.545  -0.449 -0.1676 -0.2087  0.1544
  250MOL0     C32883  -0.499   9.401  -0.500 -0.0893  0.1903 -0.0642
  250MOL0     C32884  -0.541   9.376  -0.651 -0.4628  0.3022  0.7700
  250MOL0     N32885  -0.653   9.282  -0.668  0.1730  0.9815  0.1867
  250MOL0     C32886  -0.785   9.305  -0.660  0.6818 -0.2527 -0.0898
  250MOL0     C32887  -0.852   9.185  -0.686  0.3667 -0.1713 -0.0193
  250MOL0     C32888  -0.995   9.176  -0.734 -0.1069  0.5438 -0.1196
  250MOL0     C32889  -1.056   9.036  -0.704 -0.9739  0.0584 -0.4272
  250MOL0     C32890  -1.200   9.022  -0.771  0.6471 -0.3325  0.0242
  250MOL0     C32891  -1.260   8.894  -0.705 -0.5406  0.1343  0.2551
  250MOL0     O32892  -1.368   8.836  -0.768  0.3375  0.2914 -0.5584
  250MOL0     C32893  -1.493   8.855  -0.720  0.0908 -1.2009 -0.0821
  250MOL0     C32894  -1.576   8.753  -0.753 -0.5317 -0.8708 -0.5747
  250MOL0     C32895  -1.707   8.751  -0.703  0.4280 -0.3049 -0.8379
  250MOL0     C32896  -1.753   8.858  -0.626  0.3158 -0.3333  0.2803
  250MOL0     C32897  -1.893   8.849  -0.580  0.0322 -0.4963 -0.1225
  250MOL0     O32898  -1.959   8.729  -0.607  0.0143  0.0918  0.0234
  250MOL0     C32899  -2.081   8.712  -0.542 -0.5167 -0.4844 -0.3764
  250MOL0     C32900  -2.201   8.750  -0.597  0.6942  0.0032 -0.3576
  250MOL0     C32901  -2.320   8.722  -0.529 -0.3857 -0.5809 -0.6721
  250MOL0     C32902  -2.317   8.647  -0.404  0.4990 -0.3552 -0.0640
  250MOL0     O32903  -2.440   8.608  -0.359 -0.5844 -0.3530 -0.0510
  250MOL0     C32904  -2.451   8.510  -0.257 -0.0551 -0.0758  0.6887
  250MOL0     C32905  -2.432   8.364  -0.314  0.6304 -0.5432  0.9295
  250MOL0     C32906  -2.542   8.317  -0.411  0.5594  0.2034  0.9446
  250MOL0     C32907  -2.554   8.165  -0.423 -0.0564 -1.0492 -0.2889
  250MOL0     C32908  -2.585   8.098  -0.288  0.6436 -0.4782 -0.1868
  250MOL0     C32909  -2.711   8.152  -0.217  0.4840 -0.3578  0.2785
  250MOL0     C32910  -2.713   8.066  -0.088  0.4186  0.0750  0.2977
  250MOL0     C32911  -2.840   8.097  -0.015  0.0750 -0.9689  0.2099
  250MOL0    Cl32912  -2.844   8.009   0.149 -0.3688  0.2632  0.1803
  250MOL0     C32913  -2.195   8.611  -0.363  1.0323 -0.2436 -0.3361
  250MOL0     C32914  -2.077   8.635  -0.430 -0.3757  0.6590  0.5865
  250MOL0     O32915  -1.940   8.951  -0.535  0.7730  0.7088 -0.2425
  250MOL0     C32916  -1.669   8.964  -0.587 -0.0260  0.5327 -0.2541
  250MOL0     C32917  -1.536   8.963  -0.632  0.5586 -0.9482 -0.3750
  250MOL0     N32918  -0.759   9.086  -0.701  0.1190 -0.2970 -0.0951
  250MOL0     N32919  -0.646   9.146  -0.693 -0.6440  0.2258  0.1870
  250MOL0     C32920   0.180   9.968  -0.229  0.3940  0.1169 -0.7744
  250MOL0     C32921   0.303  10.038  -0.208 -0.3889 -0.8735 -0.7813
  250MOL0     C32922   0.688  10.203   0.003 -0.1931  0.3196  0.2933
  250MOL0     C32923   0.756  10.152  -0.104 -0.3774  0.2595 -0.3087
  250MOL0     C32924   0.896  10.165  -0.125 -0.5527  0.6873  0.6567
  250MOL0     C32925   0.972  10.220  -0.021 -0.1877 -0.8953 -0.1685
  250MOL0     O32926   1.110  10.236  -0.023  0.4783  0.5323  0.4540
  250MOL0     C32927   1.183  10.122  -0.076 -0.1096  0.3313 -0.4330
  250MOL0     C32928   1.322  10.129  -0.013 -0.1672  0.5021  0.2872
  250MOL0     C32929   1.415  10.026  -0.081 -0.0584  0.4827  0.6170
  250MOL0     C32930   1.561  10.039  -0.023 -0.1666 -0.2548 -0.5223
  250MOL0     C32931   1.653  10.134  -0.095  0.2109  0.2175 -0.8271
  250MOL0     C32932   1.726  10.213  -0.159  0.3507  0.2203  0.0337
  250MOL0     C32933   0.905  10.283   0.084  0.1939  0.4639 -0.0533
  250MOL0     C32934   0.760  10.286   0.087 -0.1196 -0.3783  0.4069
  250MOL0     H32935   0.305  10.097   0.123  0.0734  3.4905 -1.2977
  250MOL0     H32936   0.083   9.973   0.099  0.6534  3.1567  1.6533
  250MOL0     H32937  -0.048   9.971  -0.319  0.9928 -1.8092 -0.6409
  250MOL0     H32938  -0.160  10.010  -0.185  1.2727  0.3375 -0.6547
  250MOL0     H32939  -0.250   9.787  -0.182 -0.9327  1.2334 -0.7564
  250MOL0     H32940  -0.122   9.745  -0.300  0.4811  0.0466  1.3044
  250MOL0     H32941  -0.210   9.829  -0.475  1.2692  2.4495  0.1033
  250MOL0     H32942  -0.300   9.956  -0.393 -3.8155 -0.5192  2.8382
  250MOL0     H32943  -0.422   9.731  -0.300  0.2410  0.0868  0.0596
  250MOL0     H32944  -0.482   9.836  -0.439  0.7504  0.9339  1.1742
  250MOL0     H32945  -0.314   9.573  -0.450  0.5197  0.3283 -1.2947
  250MOL0     H32946  -0.401   9.650  -0.587 -2.8949  2.0381 -0.5052
  250MOL0     H32947  -0.621   9.593  -0.484 -1.7045  0.0172  3.9894
  250MOL0     H32948  -0.551   9.526  -0.343 -0.2523  1.9261  0.5494
  250MOL0     H32949  -0.392   9.381  -0.490 -0.4601 -2.8303 -1.1788
  250MOL0     H32950  -0.549   9.323  -0.442  1.2377  0.0830  0.9844
  250MOL0     H32951  -0.456   9.330  -0.702 -1.1521  1.0111 -1.0866
  250MOL0     H32952  -0.563   9.472  -0.698  1.6488  0.9952  1.0849
  250MOL0     H32953  -0.832   9.403  -0.668 -0.6639 -1.0063 -2.2660
  250MOL0     H32954  -0.992   9.185  -0.843 -1.4833 -2.4646 -0.5163
  250MOL0     H32955  -1.061   9.254  -0.694  0.8260  1.0388  0.5154
  250MOL0     H32956  -1.049   9.020  -0.596  1.5479  2.0274 -0.1895
  250MOL0     H32957  -0.999   8.962  -0.761  0.2956  0.0311  0.8161
  250MOL0     H32958  -1.262   9.110  -0.750  2.4948  1.0272  0.0158
  250MOL0     H32959  -1.202   9.015  -0.880 -2.9686 -0.9676 -0.0059
  250MOL0     H32960  -1.276   8.921  -0.601  3.8153  0.4896  1.0230
  250MOL0     H32961  -1.181   8.818  -0.702 -0.3683  0.1457 -1.9660
  250MOL0     H32962  -1.547   8.661  -0.803 -2.3365 -1.9342  0.2024
  250MOL0     H32963  -1.766   8.670  -0.744 -2.3770  1.9686 -1.5972
  250MOL0     H32964  -2.200   8.797  -0.695 -3.6664 -0.0081 -0.5797
  250MOL0     H32965  -2.418   8.758  -0.562 -0.7049  1.4023  2.1001
  250MOL0     H32966  -2.546   8.517  -0.204  1.5861  3.3739  3.5665
  250MOL0     H32967  -2.376   8.539  -0.183  1.0220  0.1000 -0.4401
  250MOL0     H32968  -2.438   8.301  -0.225 -0.9125 -2.0562 -0.1900
  250MOL0     H32969  -2.335   8.346  -0.361  0.3810 -0.5703  0.4207
  250MOL0     H32970  -2.529   8.362  -0.510  0.0260  1.0102  1.2318
  250MOL0     H32971  -2.639   8.348  -0.371  0.6891 -0.6521  1.9766
  250MOL0     H32972  -2.643   8.134  -0.479 -0.7677 -1.5572  1.0760
  250MOL0     H32973  -2.477   8.109  -0.476  1.9050  0.2172  1.0943
  250MOL0     H32974  -2.506   8.108  -0.213 -1.1534 -1.2378  1.9211
  250MOL0     H32975  -2.588   7.993  -0.318 -0.2033 -0.2997 -0.7617
  250MOL0     H32976  -2.801   8.145  -0.279  1.1473  1.7891 -1.0303
  250MOL0     H32977  -2.705   8.258  -0.188 -2.0808  0.2428 -1.0854
  250MOL0     H32978  -2.694   7.959  -0.098 -0.8743  0.0423 -3.5331
  250MOL0     H32979  -2.632   8.107  -0.028 -0.3206 -0.6754  1.8651
  250MOL0     H32980  -2.923   8.077  -0.084  0.3158  2.4044 -1.2375
  250MOL0     H32981  -2.854   8.202   0.010 -3.1357 -0.8495 -1.5324
  250MOL0     H32982  -2.184   8.562  -0.268  2.6672 -0.8027 -0.7937
  250MOL0     H32983  -1.986   8.582  -0.405 -0.5487 -0.0492 -0.2633
  250MOL0     H32984  -1.705   9.050  -0.532 -1.0948 -0.0761  0.0152
  250MOL0     H32985  -1.468   9.046  -0.620  0.6032 -0.9552 -0.5768
  250MOL0     H32986   0.160   9.924  -0.326  1.9658 -1.1877 -0.5431
  250MOL0     H32987   0.365  10.057  -0.295  4.1585 -1.4397  2.0387
  250MOL0     H32988   0.693  10.096  -0.173  0.5413  0.0103 -0.9566
  250MOL0     H32989   0.945  10.119  -0.211 -0.1882  1.7018  0.3116
  250MOL0     H32990   1.183  10.122  -0.185  3.4846 -1.7955 -0.6138
  250MOL0     H32991   1.130  10.031  -0.047 -2.4751  1.1288 -1.9477
  250MOL0     H32992   1.368  10.227  -0.029  2.9296 -0.7824  0.5091
  250MOL0     H32993   1.314  10.122   0.096 -3.0393 -0.3190  0.1140
  250MOL0     H32994   1.421  10.047  -0.188 -1.2072 -1.7198  0.0688
  250MOL0     H32995   1.380   9.925  -0.056  1.3067  0.1113  1.1217
  250MOL0     H32996   1.545  10.065   0.082  0.3668  1.5187 -0.8363
  250MOL0     H32997   1.597   9.936  -0.024 -0.0490 -0.4192  3.6087
  250MOL0     H32998   1.787  10.276  -0.219 -0.5408  1.4816  0.4119
  250MOL0     H32999   0.963  10.346   0.152 -0.0538  0.3986  0.2186
  250MOL0     H33000   0.707  10.334   0.169  0.2999  1.8092 -0.5209
  251MOL0     O33001   8.188   3.139   8.362 -0.7504 -0.5511  0.0882
  251MOL0     C33002   8.292   3.072   8.362 -0.2086 -0.2915  0.1257
  251MOL0     O33003   8.303   2.938   8.393  0.2118 -0.1385 -0.0682
  251MOL0     C33004   8.196   2.856   8.416 -0.2370 -0.5957 -0.8465
  251MOL0     C33005   8.214   2.718   8.394 -0.9737 -0.8249  0.2739
  251MOL0     C33006   8.118   2.630   8.432 -0.3565  0.0619  1.0205
  251MOL0     C33007   7.999   2.670   8.488  0.3255 -0.4693  0.3293
  251MOL0     O33008   7.910   2.567   8.511  0.0351  1.1129 -0.1269
  251MOL0     C33009   7.814   2.599   8.614 -0.2362  0.4864 -0.3972
  251MOL0     C33010   7.759   2.471   8.661 -0.0698  0.5021  0.0733
  251MOL0     C33011   7.650   2.502   8.763  0.0817 -0.1709 -0.1759
  251MOL0     C33012   7.595   2.367   8.820  0.1429  0.2082 -0.0290
  251MOL0     C33013   7.484   2.386   8.924 -0.6336  1.0494 -0.1200
  251MOL0     C33014   7.448   2.248   8.997  0.0874 -0.4357 -0.5502
  251MOL0     C33015   7.566   2.178   9.071 -0.0586 -0.0509  0.5245
  251MOL0     C33016   7.638   2.083   8.981 -0.0436  0.2781  0.6846
  251MOL0     N33017   7.678   1.967   9.056 -0.1012  0.4433  0.0755
  251MOL0     C33018   7.646   1.835   9.010 -0.3642 -0.5374  0.1075
  251MOL0     C33019   7.693   1.754   9.108  0.6209  0.2419  0.0503
  251MOL0     C33020   7.703   1.612   9.120 -1.4671  0.5629 -0.3381
  251MOL0     C33021   7.601   1.523   9.053  0.0702 -0.0283  0.0374
  251MOL0     C33022   7.460   1.530   9.124 -0.1563  0.4407  0.1941
  251MOL0     C33023   7.366   1.441   9.063  0.2419 -0.1234  0.4443
  251MOL0     O33024   7.242   1.459   9.136 -0.2183  0.0406  0.1528
  251MOL0     C33025   7.122   1.442   9.074  0.4333 -0.3983 -0.1376
  251MOL0     C33026   7.012   1.481   9.146 -0.0890 -0.2868 -0.0767
  251MOL0     C33027   6.878   1.481   9.093 -0.1062  0.7615 -0.5944
  251MOL0     C33028   6.863   1.449   8.957  0.2151  0.6031  0.5208
  251MOL0     C33029   6.727   1.450   8.893 -0.3806 -0.1477 -0.7631
  251MOL0     O33030   6.729   1.434   8.756 -0.6442  0.0485  0.1749
  251MOL0     C33031   6.609   1.431   8.703 -0.5405 -0.6966  0.3347
  251MOL0     C33032   6.559   1.554   8.650  0.5439  0.2891 -0.1885
  251MOL0     C33033   6.436   1.535   8.581 -0.7171  0.5919  0.2273
  251MOL0     C33034   6.367   1.419   8.571  0.6269  0.6302 -0.9925
  251MOL0     O33035   6.244   1.411   8.505  0.8166  0.3431  0.2730
  251MOL0     C33036   6.149   1.321   8.561  0.3547  0.4088 -0.0930
  251MOL0     C33037   6.013   1.355   8.496  0.2732 -0.1930 -0.6212
  251MOL0     C33038   5.921   1.244   8.548 -0.0009 -0.2113 -0.0368
  251MOL0     C33039   5.787   1.252   8.477 -0.3699  0.4867 -0.0236
  251MOL0     C33040   5.695   1.132   8.520 -0.1907  0.2124  0.3169
  251MOL0     C33041   5.564   1.143   8.455 -0.0851  0.1050  0.4465
  251MOL0     C33042   5.476   1.034   8.513  0.9623  0.2361  0.6523
  251MOL0     C33043   5.338   1.049   8.431  0.3402  0.3128  0.4350
  251MOL0    Cl33044   5.211   0.941   8.498 -0.3124 -0.1455 -0.2400
  251MOL0     C33045   6.421   1.300   8.621 -0.9084 -0.6651 -0.5128
  251MOL0     C33046   6.547   1.313   8.684  0.9336  0.5446 -0.0474
  251MOL0     O33047   6.624   1.470   8.963  0.1312 -0.1082  0.0008
  251MOL0     C33048   6.970   1.414   8.885 -0.1756 -0.7957 -0.0178
  251MOL0     C33049   7.098   1.418   8.938 -0.9289 -0.1555 -0.7598
  251MOL0     N33050   7.767   1.835   9.189  0.8165  0.2436  0.3351
  251MOL0     N33051   7.764   1.957   9.159 -0.2476  0.9732 -0.0173
  251MOL0     C33052   7.974   2.813   8.502 -0.0295 -1.1622  0.1062
  251MOL0     C33053   8.073   2.905   8.470 -0.2257 -0.5204 -0.2903
  251MOL0     C33054   8.418   3.138   8.314 -1.3418 -0.2010  0.6003
  251MOL0     C33055   8.529   3.059   8.268  0.6695 -0.2743  0.4665
  251MOL0     C33056   8.651   3.116   8.232  0.7209 -0.6578 -0.7612
  251MOL0     C33057   8.664   3.251   8.237  0.2927  0.7494 -0.3973
  251MOL0     O33058   8.785   3.303   8.197 -0.1061  0.0837 -0.2324
  251MOL0     C33059   8.851   3.411   8.269 -0.4128 -0.5492  0.3136
  251MOL0     C33060   8.835   3.542   8.191 -0.4137  0.2064 -0.5847
  251MOL0     C33061   8.949   3.564   8.090  0.1600  0.3348  0.9924
  251MOL0     C33062   8.953   3.448   7.978 -0.3094 -0.1467 -0.2096
  251MOL0     C33063   9.057   3.476   7.877 -0.5138  0.1043 -0.4293
  251MOL0     C33064   9.152   3.487   7.801 -0.2216  0.4774 -0.0620
  251MOL0     C33065   8.559   3.332   8.283  0.4736 -0.3528 -0.1773
  251MOL0     C33066   8.439   3.277   8.313 -0.5344 -0.0123  0.2449
  251MOL0     H33067   8.306   2.668   8.363 -1.3386 -3.2239  2.6909
  251MOL0     H33068   8.124   2.523   8.413  2.0689  0.3740 -0.2773
  251MOL0     H33069   7.733   2.658   8.568  0.3684  2.3046  0.7613
  251MOL0     H33070   7.867   2.657   8.690 -0.5283 -0.9834  0.9864
  251MOL0     H33071   7.839   2.411   8.706  1.4852  1.5955 -1.1342
  251MOL0     H33072   7.724   2.420   8.571  0.1340  1.3617 -0.5050
  251MOL0     H33073   7.573   2.571   8.726 -1.8278 -1.0613  1.9045
  251MOL0     H33074   7.706   2.556   8.840 -1.3086  0.2633  0.5733
  251MOL0     H33075   7.550   2.299   8.747  1.1673  0.5967 -1.0596
  251MOL0     H33076   7.680   2.324   8.874  0.1038  2.9434  2.4602
  251MOL0     H33077   7.398   2.421   8.866  1.1800  0.9464 -3.1031
  251MOL0     H33078   7.513   2.462   8.996  2.2091 -1.1579  1.2885
  251MOL0     H33079   7.393   2.173   8.939 -0.5350 -1.1270  0.8842
  251MOL0     H33080   7.385   2.273   9.082  2.6473 -1.7291  1.9158
  251MOL0     H33081   7.641   2.244   9.117 -1.5984 -0.0255  3.2295
  251MOL0     H33082   7.525   2.129   9.159  0.8677 -2.0516 -0.1027
  251MOL0     H33083   7.729   2.133   8.949 -0.8534  0.6453 -1.1678
  251MOL0     H33084   7.591   2.063   8.884 -1.7388  2.5908  0.9423
  251MOL0     H33085   7.605   1.801   8.915  0.3282  2.5348 -1.3944
  251MOL0     H33086   7.694   1.595   9.228  0.2768 -1.8099 -0.4800
  251MOL0     H33087   7.801   1.584   9.080 -0.0465 -1.0426  3.6952
  251MOL0     H33088   7.632   1.419   9.057 -1.7225 -0.6670 -1.3323
  251MOL0     H33089   7.587   1.567   8.954 -1.1499 -1.1736 -0.3292
  251MOL0     H33090   7.480   1.494   9.225  2.6803 -1.8896 -1.0298
  251MOL0     H33091   7.421   1.632   9.129 -1.3277 -0.0035  0.4219
  251MOL0     H33092   7.405   1.338   9.065  1.6598  0.2932 -1.9847
  251MOL0     H33093   7.354   1.457   8.955  1.7181 -3.2098 -0.3059
  251MOL0     H33094   7.031   1.517   9.247  1.7698 -2.6428  0.4819
  251MOL0     H33095   6.794   1.509   9.155 -1.3918 -0.8906 -1.5138
  251MOL0     H33096   6.609   1.650   8.657  1.0526  0.1192 -1.3316
  251MOL0     H33097   6.387   1.622   8.538  0.5949  0.5318 -1.5278
  251MOL0     H33098   6.137   1.336   8.669  0.5548 -2.6105  0.4442
  251MOL0     H33099   6.172   1.215   8.544  0.0832  0.2592  0.4387
  251MOL0     H33100   6.016   1.349   8.387 -1.2343  1.1506 -0.7699
  251MOL0     H33101   5.971   1.451   8.528  1.1125 -0.5554  1.7643
  251MOL0     H33102   5.894   1.271   8.651 -0.9275  1.1534 -0.6118
  251MOL0     H33103   5.965   1.144   8.542 -0.4927 -0.4793  0.6127
  251MOL0     H33104   5.738   1.345   8.508 -0.3287  0.8511 -1.0328
  251MOL0     H33105   5.797   1.260   8.369  1.2539  2.6410  0.2181
  251MOL0     H33106   5.690   1.132   8.629  1.7619 -0.4825  0.4358
  251MOL0     H33107   5.743   1.035   8.500  0.4445  1.0456 -2.7037
  251MOL0     H33108   5.571   1.121   8.348 -1.9629  2.9505 -0.3815
  251MOL0     H33109   5.522   1.244   8.463 -0.1565  0.0297  1.0648
  251MOL0     H33110   5.517   0.933   8.500  0.5448  0.0058  1.0892
  251MOL0     H33111   5.451   1.053   8.618 -2.7690 -0.8949  0.1252
  251MOL0     H33112   5.350   1.019   8.326 -1.2505 -0.9754  0.5832
  251MOL0     H33113   5.307   1.154   8.438  0.3697  0.3491  0.0705
  251MOL0     H33114   6.375   1.202   8.608  0.5670 -1.4403 -0.0794
  251MOL0     H33115   6.587   1.217   8.713  0.1036 -0.1828 -1.2285
  251MOL0     H33116   6.961   1.384   8.781  1.0116 -1.6631  0.1097
  251MOL0     H33117   7.186   1.387   8.883 -0.2911 -1.0229  0.6671
  251MOL0     H33118   7.884   2.843   8.555  1.4761 -2.0913  3.5017
  251MOL0     H33119   8.048   3.009   8.489  1.7316  0.3784 -2.1909
  251MOL0     H33120   8.512   2.953   8.254  0.2500 -0.3222  1.2894
  251MOL0     H33121   8.724   3.043   8.198 -1.9245 -3.7493 -0.2802
  251MOL0     H33122   8.957   3.385   8.282 -0.2900  0.3604  1.2488
  251MOL0     H33123   8.795   3.412   8.363 -2.5963 -1.2856 -0.9150
  251MOL0     H33124   8.738   3.535   8.140  0.2504 -4.0998 -1.6139
  251MOL0     H33125   8.835   3.626   8.262 -1.3703 -0.9418  0.8238
  251MOL0     H33126   9.040   3.577   8.149  0.9370  0.7466 -0.2430
  251MOL0     H33127   8.930   3.653   8.030  0.9246 -0.5134 -0.5723
  251MOL0     H33128   8.971   3.355   8.033 -1.9013 -1.6963 -2.1406
  251MOL0     H33129   8.858   3.433   7.925  0.2303 -2.3565 -0.6207
  251MOL0     H33130   9.244   3.490   7.746  0.7305  1.3935  1.5112
  251MOL0     H33131   8.557   3.441   8.286 -0.8501 -0.3700  2.3066
  251MOL0     H33132   8.353   3.336   8.343 -1.2586 -1.0057  0.1432
  252MOL0     O33133   6.405   6.114  10.267 -0.1786  0.1495 -1.0472
  252MOL0     C33134   6.474   6.205  10.240  0.5893 -0.2338 -0.1332
  252MOL0     O33135   6.430   6.331  10.214  0.3268 -0.1085 -0.1993
  252MOL0     C33136   6.305   6.374  10.253 -0.1724  0.6519 -0.2526
  252MOL0     C33137   6.250   6.353  10.379 -0.3470 -0.0486  0.5699
  252MOL0     C33138   6.128   6.410  10.411 -0.4845 -0.5060 -0.5765
  252MOL0     C33139   6.071   6.505  10.330 -0.1911 -0.2962  0.2317
  252MOL0     O33140   5.956   6.560  10.371 -0.1354 -0.4945 -0.4372
  252MOL0     C33141   5.878   6.620  10.275 -0.5850  0.1163  0.9781
  252MOL0     C33142   5.750   6.684  10.336 -0.1989 -0.4184  0.4887
  252MOL0     C33143   5.649   6.707  10.226  0.2463 -0.2141  0.7747
  252MOL0     C33144   5.526   6.768  10.282 -0.1440  0.1922 -0.1030
  252MOL0     C33145   5.413   6.772  10.178  0.0400 -0.4987  0.0909
  252MOL0     C33146   5.282   6.815  10.246  0.3051  0.3689  0.1886
  252MOL0     C33147   5.167   6.847  10.150  0.6412 -0.0031  0.2451
  252MOL0     C33148   5.130   6.726  10.071 -0.7414 -0.3604 -0.1987
  252MOL0     N33149   5.000   6.729   9.994  0.2482 -0.6407  0.0893
  252MOL0     C33150   4.949   6.821   9.912  0.3024 -0.2411 -0.8461
  252MOL0     C33151   4.816   6.805   9.907 -0.0420  0.1680  0.0788
  252MOL0     C33152   4.726   6.889   9.827 -0.0507  0.6755  0.1351
  252MOL0     C33153   4.750   6.856   9.680  0.1093  1.0335 -0.4658
  252MOL0     C33154   4.653   6.925   9.588  0.1747  0.5682 -0.1089
  252MOL0     C33155   4.508   6.890   9.616 -0.1115  0.0618  0.3737
  252MOL0     O33156   4.464   6.979   9.718  0.1146 -0.1793 -0.4793
  252MOL0     C33157   4.318   6.974   9.744 -0.8930  0.9754  0.4288
  252MOL0     C33158   4.283   7.052   9.847  0.9193 -0.7560  0.4872
  252MOL0     C33159   4.149   7.067   9.884  0.1803  0.3987 -0.0280
  252MOL0     C33160   4.053   6.996   9.809 -0.2703  0.6971 -0.0469
  252MOL0     C33161   3.912   7.003   9.846  0.1196  0.3716  0.4521
  252MOL0     O33162   3.884   7.110   9.930 -0.6800 -0.2601  0.0562
  252MOL0     C33163   3.775   7.096  10.018 -0.1181  0.3175 -0.9278
  252MOL0     C33164   3.770   6.998  10.123 -0.2416  0.3841 -0.1761
  252MOL0     C33165   3.654   6.986  10.200 -1.0274  0.0685  0.0897
  252MOL0     C33166   3.545   7.070  10.189  0.0671 -0.0940  0.1432
  252MOL0     O33167   3.441   7.077  10.278  0.2108  0.8274 -0.2852
  252MOL0     C33168   3.446   7.003  10.406 -0.2974  0.0922  0.5251
  252MOL0     C33169   3.317   6.930  10.406  0.7053 -0.3808 -0.7513
  252MOL0     C33170   3.185   7.026  10.429  0.2235  0.6593 -0.1980
  252MOL0     C33171   3.062   6.953  10.487  0.4058 -0.1640  0.3633
  252MOL0     C33172   2.951   7.056  10.533 -0.2751 -0.8819  0.3117
  252MOL0     C33173   2.834   6.986  10.581 -0.1302 -0.2171 -0.1599
  252MOL0     C33174   2.846   6.946  10.734  0.5386  0.2768  0.5541
  252MOL0     C33175   2.717   6.881  10.765  0.2343 -0.5603 -0.5795
  252MOL0    Cl33176   2.599   7.004  10.809 -0.1796 -0.0189 -0.4409
  252MOL0     C33177   3.545   7.164  10.086 -0.3001  0.0652 -0.0786
  252MOL0     C33178   3.656   7.178   9.997 -0.3765  0.1448 -0.6769
  252MOL0     O33179   3.830   6.923   9.802  0.3148 -0.4399  0.1307
  252MOL0     C33180   4.091   6.905   9.710  0.8574 -0.0744 -0.5765
  252MOL0     C33181   4.224   6.891   9.679 -0.1691 -0.5128 -0.7406
  252MOL0     N33182   4.793   6.683   9.972 -0.3618  0.0543  0.1099
  252MOL0     N33183   4.902   6.639  10.022  0.1846 -0.4411 -0.4164
  252MOL0     C33184   6.129   6.535  10.204 -0.2383  0.3469  0.0950
  252MOL0     C33185   6.244   6.470  10.167 -0.4359 -0.3160 -0.5490
  252MOL0     C33186   6.625   6.169  10.232  0.1476 -0.2040  0.3553
  252MOL0     C33187   6.689   6.051  10.282  0.2705  0.1461  0.0574
  252MOL0     C33188   6.832   6.040  10.267 -0.6746  0.0679 -1.0678
  252MOL0     C33189   6.912   6.141  10.216 -0.7078 -0.0143 -0.6725
  252MOL0     O33190   7.054   6.154  10.236 -0.9874 -0.0448 -0.1812
  252MOL0     C33191   7.123   6.048  10.309  0.7032 -0.6175 -0.3149
  252MOL0     C33192   7.267   6.100  10.330 -0.0742  0.5960 -0.0556
  252MOL0     C33193   7.333   5.987  10.407  0.3870 -0.0200 -0.4879
  252MOL0     C33194   7.470   6.046  10.468  0.8866 -0.5563  0.8038
  252MOL0     C33195   7.534   5.946  10.545 -1.0315 -0.3499 -0.5932
  252MOL0     C33196   7.580   5.854  10.616 -0.0302 -0.2787 -0.6763
  252MOL0     C33197   6.848   6.261  10.175 -0.3724  0.0821  0.5735
  252MOL0     C33198   6.707   6.269  10.177  0.6063 -0.8831 -0.4804
  252MOL0     H33199   6.279   6.271  10.444  1.0930  1.3447  1.7450
  252MOL0     H33200   6.089   6.376  10.506  0.4658 -0.0604 -0.0220
  252MOL0     H33201   5.837   6.542  10.211  0.4468  1.7702 -1.8581
  252MOL0     H33202   5.930   6.692  10.212  1.0010 -1.4212  0.4779
  252MOL0     H33203   5.774   6.774  10.393  0.4558 -1.4114  1.8214
  252MOL0     H33204   5.701   6.623  10.412  0.1920 -0.6501  0.5584
  252MOL0     H33205   5.637   6.608  10.180  1.6523 -0.0555  0.0110
  252MOL0     H33206   5.693   6.766  10.145 -1.0295 -0.6986 -0.3138
  252MOL0     H33207   5.488   6.721  10.373 -1.2995  1.2293 -0.0289
  252MOL0     H33208   5.546   6.873  10.308 -0.3460  0.0022  0.8615
  252MOL0     H33209   5.405   6.684  10.114  0.3023  0.5152 -1.3842
  252MOL0     H33210   5.439   6.838  10.095 -2.0698  0.2377 -0.0217
  252MOL0     H33211   5.306   6.906  10.300 -2.1591  1.4713 -0.4315
  252MOL0     H33212   5.249   6.730  10.306  0.5495 -0.1879 -0.4527
  252MOL0     H33213   5.085   6.893  10.207 -0.3201 -1.8241  0.4309
  252MOL0     H33214   5.197   6.921  10.075 -0.5293  1.2300  0.9513
  252MOL0     H33215   5.121   6.644  10.143  1.6817  1.9698  3.0607
  252MOL0     H33216   5.215   6.711  10.004 -1.7374 -2.8915 -1.0076
  252MOL0     H33217   5.012   6.897   9.865  2.6467 -0.7674  1.2217
  252MOL0     H33218   4.743   6.995   9.850 -1.9969  1.0827 -0.1337
  252MOL0     H33219   4.623   6.869   9.858  0.0508 -1.3770 -0.7582
  252MOL0     H33220   4.742   6.747   9.682 -1.9801  1.1669  0.4793
  252MOL0     H33221   4.855   6.877   9.654  0.6938 -1.1869 -0.1101
  252MOL0     H33222   4.668   7.032   9.605  0.4354  0.1219  3.0960
  252MOL0     H33223   4.676   6.898   9.485 -2.0942 -0.4173 -0.4154
  252MOL0     H33224   4.506   6.787   9.653  1.5703 -0.5207 -1.0610
  252MOL0     H33225   4.449   6.915   9.527 -1.8460  2.6957  2.1097
  252MOL0     H33226   4.365   7.097   9.902 -0.9652  0.2059  2.6943
  252MOL0     H33227   4.135   7.125   9.975  0.3170  2.4732 -1.2729
  252MOL0     H33228   3.857   6.935  10.137  1.0518  1.9593 -0.8272
  252MOL0     H33229   3.672   6.907  10.272 -0.1194  0.6361  0.4963
  252MOL0     H33230   3.449   7.065  10.497  0.6606 -2.0413  2.0323
  252MOL0     H33231   3.531   6.934  10.411 -0.4748 -0.1004  4.3331
  252MOL0     H33232   3.331   6.855  10.485  0.4784  0.9566  0.6102
  252MOL0     H33233   3.298   6.870  10.317 -0.3352  0.5819 -1.1979
  252MOL0     H33234   3.154   7.072  10.335 -2.3887  2.9383  1.6008
  252MOL0     H33235   3.218   7.102  10.501 -0.4364 -0.1026  0.9545
  252MOL0     H33236   3.014   6.887  10.413  3.4722 -1.9592 -0.1936
  252MOL0     H33237   3.090   6.890  10.573  1.3829 -1.9791 -1.2046
  252MOL0     H33238   2.922   7.123  10.451  1.1315 -0.7448 -0.1012
  252MOL0     H33239   2.982   7.126  10.611 -1.9933  1.3932 -0.9278
  252MOL0     H33240   2.815   6.908  10.506  3.3227 -0.2877 -1.1289
  252MOL0     H33241   2.753   7.059  10.574  1.2408  1.3706 -0.2824
  252MOL0     H33242   2.934   6.883  10.749  0.4987 -0.5240 -2.0256
  252MOL0     H33243   2.865   7.032  10.799 -1.1450 -0.5175  2.2097
  252MOL0     H33244   2.727   6.807  10.845  1.9677  0.5030  0.2594
  252MOL0     H33245   2.680   6.822  10.681 -0.6940  0.5126 -0.9516
  252MOL0     H33246   3.463   7.235  10.094  1.2650  1.8147  1.2288
  252MOL0     H33247   3.669   7.261   9.929 -1.0792 -0.8118 -2.0299
  252MOL0     H33248   4.019   6.851   9.649 -1.0037  3.5533 -1.8754
  252MOL0     H33249   4.255   6.819   9.604  1.0476  1.5132 -2.2851
  252MOL0     H33250   6.096   6.610  10.133 -1.8547 -1.0739 -0.7006
  252MOL0     H33251   6.292   6.493  10.072 -4.0096  2.2329 -1.9630
  252MOL0     H33252   6.634   5.970  10.328  1.1424 -0.1175  0.6790
  252MOL0     H33253   6.868   5.945  10.308 -3.4281  0.3692  2.5777
  252MOL0     H33254   7.120   5.954  10.254 -0.3177 -0.0355 -1.3018
  252MOL0     H33255   7.078   6.037  10.408  0.8568 -1.0223 -0.2912
  252MOL0     H33256   7.333   6.108  10.244  0.3880 -1.2850  0.0845
  252MOL0     H33257   7.263   6.190  10.393 -0.2731  0.7691 -0.3157
  252MOL0     H33258   7.351   5.899  10.344  0.4876 -0.9266  0.7711
  252MOL0     H33259   7.269   5.951  10.488  2.6320 -3.7313 -0.1262
  252MOL0     H33260   7.530   6.081  10.383 -1.9127  1.5842 -0.4734
  252MOL0     H33261   7.447   6.130  10.533  1.1047  0.5555 -0.5102
  252MOL0     H33262   7.625   5.780  10.678  0.6075  0.3147 -0.4251
  252MOL0     H33263   6.917   6.343  10.157  0.9129 -1.2654 -0.9295
  252MOL0     H33264   6.669   6.369  10.156 -1.6865 -1.0409  2.3534
  253MOL0     O33265   0.349   9.182   9.871 -0.1261  0.1181 -0.0645
  253MOL0     C33266   0.359   9.189   9.750 -0.8547 -0.6802 -0.0903
  253MOL0     O33267   0.262   9.220   9.659 -0.0094  0.0363 -0.3640
  253MOL0     C33268   0.145   9.257   9.717 -0.1064  0.0441 -0.4423
  253MOL0     C33269   0.036   9.193   9.667 -0.6696 -0.0719  1.0317
  253MOL0     C33270  -0.092   9.216   9.718  0.4013 -0.6332 -0.0738
  253MOL0     C33271  -0.105   9.299   9.828 -0.1631  0.1577  0.6476
  253MOL0     O33272  -0.219   9.323   9.901 -0.2304 -0.0398  0.5910
  253MOL0     C33273  -0.337   9.311   9.825 -0.2596 -0.2843  0.0194
  253MOL0     C33274  -0.442   9.329   9.931  0.2832 -0.6028 -0.5721
  253MOL0     C33275  -0.476   9.198   9.998  0.0388  0.2999 -0.6331
  253MOL0     C33276  -0.588   9.213  10.096 -0.7440 -0.1562 -0.0145
  253MOL0     C33277  -0.632   9.069  10.140 -0.0776 -1.0412 -0.3231
  253MOL0     C33278  -0.740   9.008  10.046 -0.5517 -0.0992 -0.6902
  253MOL0     C33279  -0.883   9.042  10.081  0.8530  0.3846  0.4337
  253MOL0     C33280  -0.985   8.960   9.998 -0.1720  0.7287  1.0623
  253MOL0     N33281  -1.127   8.996  10.034 -0.7475  0.3821 -0.2741
  253MOL0     C33282  -1.227   8.897  10.042 -0.0594 -0.0793 -0.3832
  253MOL0     C33283  -1.334   8.962  10.100 -0.2280  0.2026 -0.4963
  253MOL0     C33284  -1.461   8.909  10.126 -0.7894 -0.2640  0.1918
  253MOL0     C33285  -1.565   8.943  10.021 -0.5534 -0.0355 -0.2309
  253MOL0     C33286  -1.700   8.893  10.060  0.0721 -0.0716 -0.2345
  253MOL0     C33287  -1.809   8.920   9.958  0.5662  0.6998  0.1237
  253MOL0     O33288  -1.926   8.877  10.027 -0.5128 -0.0448  0.1518
  253MOL0     C33289  -2.045   8.909   9.962 -0.1153 -0.2371 -0.0426
  253MOL0     C33290  -2.148   8.920  10.057  0.0692 -0.1752  0.4829
  253MOL0     C33291  -2.281   8.930  10.015 -0.9019  0.0483 -0.9355
  253MOL0     C33292  -2.316   8.928   9.877  0.1544  0.5370 -0.1500
  253MOL0     C33293  -2.459   8.933   9.835  0.3578  0.0586  1.0969
  253MOL0     O33294  -2.552   8.928   9.935 -0.3474  0.0681  0.3491
  253MOL0     C33295  -2.687   8.895   9.914 -0.4659 -0.4834 -0.0576
  253MOL0     C33296  -2.744   8.815  10.015  0.7836 -0.8588 -0.0667
  253MOL0     C33297  -2.880   8.779  10.018  0.2477  0.2359  0.6506
  253MOL0     C33298  -2.969   8.835   9.925  0.5006  0.0617 -0.3214
  253MOL0     O33299  -3.104   8.813   9.900  0.2424 -0.0116  0.5555
  253MOL0     C33300  -3.164   8.694   9.947  0.3040 -0.4012  0.5521
  253MOL0     C33301  -3.113   8.558   9.889 -0.2944 -0.2406  0.7002
  253MOL0     C33302  -3.144   8.552   9.741  0.2817  0.1142  0.0421
  253MOL0     C33303  -3.299   8.558   9.717  0.3368 -0.7628 -0.0295
  253MOL0     C33304  -3.327   8.550   9.565 -0.6282  0.5445 -0.2976
  253MOL0     C33305  -3.474   8.502   9.539  0.6929 -0.1046  0.6884
  253MOL0     C33306  -3.473   8.448   9.397 -0.0254  0.9799  0.5206
  253MOL0     C33307  -3.600   8.382   9.362 -1.0482  0.3733  0.5506
  253MOL0    Cl33308  -3.618   8.234   9.465  0.0161  0.0172 -0.3023
  253MOL0     C33309  -2.914   8.922   9.833 -0.6901 -0.4076 -0.4145
  253MOL0     C33310  -2.781   8.953   9.822 -0.3675 -0.7186 -0.9670
  253MOL0     O33311  -2.486   8.929   9.709 -0.5647  0.5624 -0.0247
  253MOL0     C33312  -2.205   8.934   9.786 -0.4887  0.8945  0.5439
  253MOL0     C33313  -2.072   8.920   9.821  0.4483 -0.3093 -0.3493
  253MOL0     N33314  -1.299   9.094  10.113  0.0665 -0.1424  0.1471
  253MOL0     N33315  -1.172   9.110  10.084  0.6803 -0.3517  0.3335
  253MOL0     C33316   0.010   9.375   9.869  0.5133  0.3112 -0.2231
  253MOL0     C33317   0.134   9.354   9.814  0.0812 -0.4040  0.2384
  253MOL0     C33318   0.501   9.155   9.692  0.3969 -0.4162 -0.1827
  253MOL0     C33319   0.520   9.153   9.554 -0.0317  0.7492  0.3252
  253MOL0     C33320   0.643   9.141   9.495 -0.0373  0.0687  0.5431
  253MOL0     C33321   0.755   9.116   9.571  0.2367 -0.6311 -0.3932
  253MOL0     O33322   0.875   9.085   9.517 -0.1054 -0.0002  0.0888
  253MOL0     C33323   0.916   9.140   9.392 -0.6052  0.2326 -0.1857
  253MOL0     C33324   1.065   9.120   9.372 -0.8357  0.1496 -0.2240
  253MOL0     C33325   1.135   9.204   9.267 -0.2603 -0.0990 -0.8623
  253MOL0     C33326   1.292   9.195   9.277 -0.4642  0.2060 -0.5424
  253MOL0     C33327   1.354   9.294   9.192 -0.6885 -0.6285 -0.4814
  253MOL0     C33328   1.404   9.365   9.110 -0.1565 -0.1189 -0.7555
  253MOL0     C33329   0.737   9.115   9.718  0.3574 -0.8618  0.2713
  253MOL0     C33330   0.613   9.134   9.777  1.0743 -0.3033  0.3442
  253MOL0     H33331   0.040   9.140   9.572  2.4157  3.5633 -1.1502
  253MOL0     H33332  -0.179   9.172   9.670  0.2513 -1.9308  1.3318
  253MOL0     H33333  -0.343   9.214   9.774 -0.4290 -1.0764  1.4922
  253MOL0     H33334  -0.337   9.396   9.757  3.1846  0.0382  0.2153
  253MOL0     H33335  -0.526   9.374   9.878  1.1492 -0.6370 -2.0440
  253MOL0     H33336  -0.415   9.404  10.005  0.5708 -0.4191 -0.8591
  253MOL0     H33337  -0.386   9.154  10.042 -1.5407  1.1383  3.8713
  253MOL0     H33338  -0.506   9.118   9.929 -1.7838 -0.3957  0.8684
  253MOL0     H33339  -0.558   9.263  10.188  1.0205  0.7189 -1.0307
  253MOL0     H33340  -0.678   9.261  10.055 -1.7662 -0.1963  2.0666
  253MOL0     H33341  -0.671   9.071  10.242 -0.8265  0.2718 -0.5958
  253MOL0     H33342  -0.541   9.009  10.145  1.9774  1.8321 -0.4343
  253MOL0     H33343  -0.731   8.899  10.053 -0.8134 -0.1220 -0.7140
  253MOL0     H33344  -0.721   9.049   9.946 -0.2926  0.6646 -0.3353
  253MOL0     H33345  -0.902   9.034  10.188  0.0426 -0.9308  0.2145
  253MOL0     H33346  -0.913   9.139  10.040 -0.0824 -1.0041 -2.4161
  253MOL0     H33347  -0.970   8.854  10.021 -0.8438  0.2898 -0.3867
  253MOL0     H33348  -0.964   8.974   9.892  1.2802 -0.9207  1.0860
  253MOL0     H33349  -1.221   8.796  10.006 -0.5567  0.1304 -1.0831
  253MOL0     H33350  -1.488   8.963  10.217  2.1576  2.3553 -0.2860
  253MOL0     H33351  -1.467   8.801  10.137 -1.2779 -0.0831  2.0294
  253MOL0     H33352  -1.533   8.903   9.925  0.1905 -1.1955  0.4736
  253MOL0     H33353  -1.571   9.051  10.008  1.5508  0.4456  2.0460
  253MOL0     H33354  -1.697   8.786  10.081 -1.4756 -0.1735 -0.4466
  253MOL0     H33355  -1.730   8.953  10.146  0.5244 -1.3763  0.8716
  253MOL0     H33356  -1.793   8.863   9.866  0.6791  1.2202 -0.1809
  253MOL0     H33357  -1.811   9.027   9.935  1.3969  0.9845  1.2524
  253MOL0     H33358  -2.127   8.919  10.163 -1.8241  2.5354  0.9867
  253MOL0     H33359  -2.360   8.941  10.089  1.8741  4.1447  1.8527
  253MOL0     H33360  -2.673   8.773  10.085 -1.0978 -2.9972  0.6669
  253MOL0     H33361  -2.908   8.708  10.095  2.0185  0.3671  1.4482
  253MOL0     H33362  -3.273   8.705   9.941  0.3333 -0.7271 -1.1803
  253MOL0     H33363  -3.149   8.694  10.055 -0.8073 -2.9516  0.8015
  253MOL0     H33364  -3.163   8.472   9.935  0.8230 -1.5117 -0.3741
  253MOL0     H33365  -3.008   8.531   9.904  0.0559  1.1881  0.9427
  253MOL0     H33366  -3.115   8.457   9.694  0.4632  0.4453 -0.5320
  253MOL0     H33367  -3.089   8.621   9.676  4.1996  1.2267  4.0238
  253MOL0     H33368  -3.362   8.491   9.776 -4.1065  0.9202 -2.3724
  253MOL0     H33369  -3.343   8.653   9.749 -2.0769 -0.9665 -2.4070
  253MOL0     H33370  -3.258   8.477   9.521 -0.6240 -1.6263  2.9475
  253MOL0     H33371  -3.316   8.648   9.519 -1.0803  0.3577 -0.8122
  253MOL0     H33372  -3.534   8.594   9.544  0.4922 -0.1263 -0.9089
  253MOL0     H33373  -3.510   8.429   9.611 -1.2130 -1.0763 -1.1534
  253MOL0     H33374  -3.457   8.529   9.325 -0.8604  0.5624 -0.1603
  253MOL0     H33375  -3.396   8.374   9.374  0.5007  2.2083 -2.1340
  253MOL0     H33376  -3.601   8.349   9.258 -4.6069  0.4924  0.4257
  253MOL0     H33377  -3.684   8.450   9.376 -1.3142  0.4280 -1.1457
  253MOL0     H33378  -2.988   8.962   9.764 -3.1440 -3.0436  0.4726
  253MOL0     H33379  -2.742   9.022   9.748  2.6587  1.1355  2.0865
  253MOL0     H33380  -2.221   8.937   9.679  1.0881 -2.4960  0.0940
  253MOL0     H33381  -1.992   8.926   9.748 -0.1532  4.0471 -0.9002
  253MOL0     H33382   0.009   9.447   9.950  0.4058  0.5271 -0.4141
  253MOL0     H33383   0.221   9.401   9.858 -1.0965  0.9579  1.2373
  253MOL0     H33384   0.445   9.172   9.477 -0.1446 -0.5068  0.1015
  253MOL0     H33385   0.654   9.145   9.387  1.9280 -2.7436  0.5490
  253MOL0     H33386   0.901   9.248   9.392  0.6635  0.4428 -1.1864
  253MOL0     H33387   0.856   9.101   9.309 -1.8665  0.1947  0.7238
  253MOL0     H33388   1.108   9.143   9.470  1.1430  0.1096 -1.0343
  253MOL0     H33389   1.087   9.014   9.357  0.2347 -0.0215  2.1146
  253MOL0     H33390   1.101   9.308   9.269  2.7719  1.0156  2.4782
  253MOL0     H33391   1.115   9.160   9.169 -0.5272 -2.7905  0.3191
  253MOL0     H33392   1.330   9.223   9.376  2.7985  1.7731 -2.0874
  253MOL0     H33393   1.318   9.095   9.241  1.6810 -0.7779  3.1778
  253MOL0     H33394   1.429   9.431   9.029  0.0561 -1.6566 -1.9782
  253MOL0     H33395   0.817   9.086   9.787  1.1136  2.1790  0.8134
  253MOL0     H33396   0.605   9.125   9.885 -2.4502  1.2610  0.3717
  254MOL0     O33397   2.855   4.912   1.897 -0.4677 -0.3934  0.4479
  254MOL0     C33398   2.915   5.006   1.944 -0.0507  0.2316  1.0920
  254MOL0     O33399   2.856   5.110   2.007  0.3502 -0.3740 -0.4096
  254MOL0     C33400   2.727   5.098   2.043 -0.0393  0.2497 -0.1416
  254MOL0     C33401   2.689   5.040   2.171  0.2110 -0.3143  0.3280
  254MOL0     C33402   2.549   5.022   2.198 -0.5807  0.6959 -0.1073
  254MOL0     C33403   2.456   5.059   2.104 -0.0481 -0.9185 -1.0311
  254MOL0     O33404   2.314   5.044   2.117  0.4628  0.6928  0.2210
  254MOL0     C33405   2.271   4.944   2.216 -0.3013  0.0428  0.4271
  254MOL0     C33406   2.258   4.806   2.154 -0.0344 -0.7268 -0.3056
  254MOL0     C33407   2.139   4.801   2.064  1.0722 -0.2979 -0.1744
  254MOL0     C33408   2.128   4.662   2.001 -0.4406 -0.4005 -0.7928
  254MOL0     C33409   1.988   4.632   1.925  0.0445  0.0885 -0.1540
  254MOL0     C33410   1.865   4.649   2.014 -0.1877  0.2915 -0.0163
  254MOL0     C33411   1.882   4.592   2.160 -0.8109 -0.6273  0.0440
  254MOL0     C33412   1.787   4.664   2.265  0.0723  0.4567 -0.3774
  254MOL0     N33413   1.807   4.613   2.407 -0.1920 -0.2656 -0.4481
  254MOL0     C33414   1.919   4.587   2.468  0.1745  0.2011 -0.0701
  254MOL0     C33415   1.885   4.547   2.587  0.3337 -0.1681 -0.8388
  254MOL0     C33416   1.978   4.500   2.692 -0.1171  0.2616  0.1796
  254MOL0     C33417   2.029   4.628   2.769  0.1617  0.5794 -0.5289
  254MOL0     C33418   2.142   4.593   2.873 -0.0117  0.2325 -0.1090
  254MOL0     C33419   2.207   4.725   2.932 -0.3423  0.3960  0.5163
  254MOL0     O33420   2.237   4.706   3.077 -0.1101 -0.0972 -0.0577
  254MOL0     C33421   2.137   4.729   3.177 -0.9412  0.8538  0.1984
  254MOL0     C33422   2.177   4.728   3.310  0.6004  0.0199 -1.3931
  254MOL0     C33423   2.080   4.744   3.410  0.9018 -0.1960  0.5449
  254MOL0     C33424   1.944   4.766   3.377 -0.1361  0.3925 -1.0698
  254MOL0     C33425   1.842   4.772   3.482 -0.0776  0.1581  0.3526
  254MOL0     O33426   1.717   4.763   3.443 -0.6048 -1.0045  0.1607
  254MOL0     C33427   1.611   4.753   3.526 -0.3859  0.2904  0.0749
  254MOL0     C33428   1.599   4.648   3.631 -0.8917 -0.5655  0.3289
  254MOL0     C33429   1.492   4.642   3.712  0.2081  0.6806 -0.8886
  254MOL0     C33430   1.373   4.722   3.694 -0.1488 -0.1275  0.4537
  254MOL0     O33431   1.258   4.725   3.769  1.0225  0.2440 -0.3819
  254MOL0     C33432   1.249   4.659   3.894 -0.1918 -0.2769 -0.0312
  254MOL0     C33433   1.128   4.697   3.964 -0.5870  0.0148 -0.3838
  254MOL0     C33434   1.120   4.623   4.103  0.9202  0.5623  0.8533
  254MOL0     C33435   1.030   4.689   4.203 -0.0124  0.0208  0.1718
  254MOL0     C33436   1.013   4.604   4.332  0.8248  0.0070  0.3714
  254MOL0     C33437   0.883   4.622   4.405 -0.4281  0.1427  0.1225
  254MOL0     C33438   0.881   4.548   4.536  0.8707  0.3679 -0.3578
  254MOL0     C33439   0.733   4.537   4.592  0.0093  0.2113 -0.0934
  254MOL0    Cl33440   0.667   4.688   4.656 -0.1541  0.0931  0.0713
  254MOL0     C33441   1.384   4.821   3.592  0.0406 -0.0297 -0.3963
  254MOL0     C33442   1.501   4.833   3.508 -0.2396  0.0485 -0.3566
  254MOL0     O33443   1.872   4.793   3.599  0.7271  0.4883 -0.0560
  254MOL0     C33444   1.908   4.767   3.241  1.1162 -0.1477 -0.5149
  254MOL0     C33445   2.001   4.758   3.144  0.0166 -0.2657  0.4333
  254MOL0     N33446   1.751   4.566   2.601 -0.2013  0.1218  0.3427
  254MOL0     N33447   1.703   4.604   2.490  0.3910 -0.2491 -0.1287
  254MOL0     C33448   2.494   5.132   1.992  0.2856  0.5668  0.3048
  254MOL0     C33449   2.630   5.137   1.959  0.7364  0.8675  0.7400
  254MOL0     C33450   3.057   5.016   1.930 -0.4529 -0.5595  0.3358
  254MOL0     C33451   3.127   5.119   1.994 -0.8724  0.4955  0.4815
  254MOL0     C33452   3.266   5.141   1.979 -0.1514  0.1209  1.1629
  254MOL0     C33453   3.338   5.043   1.902  0.3456  0.2659 -0.1190
  254MOL0     O33454   3.476   5.041   1.885  0.4425 -0.0059  0.0003
  254MOL0     C33455   3.555   5.163   1.886  1.2795  0.0029 -0.4771
  254MOL0     C33456   3.668   5.162   1.792 -0.9476 -0.2281 -0.6068
  254MOL0     C33457   3.620   5.150   1.654 -0.2501  0.7663  0.2265
  254MOL0     C33458   3.731   5.116   1.552 -0.4515 -0.0708  0.2841
  254MOL0     C33459   3.688   5.133   1.409 -1.5385 -0.6014 -0.3165
  254MOL0     C33460   3.636   5.149   1.301  0.2228 -0.6782 -0.2381
  254MOL0     C33461   3.265   4.927   1.857 -0.1729 -0.6448  1.0437
  254MOL0     C33462   3.129   4.918   1.872  0.0762  0.7746  0.1797
  254MOL0     H33463   2.755   4.998   2.246  0.9047 -1.1937 -0.7199
  254MOL0     H33464   2.523   4.960   2.284 -0.1187  0.4666 -0.1294
  254MOL0     H33465   2.174   4.975   2.256  0.1414  3.4337 -0.7892
  254MOL0     H33466   2.336   4.941   2.304 -1.3789 -3.3918  1.2475
  254MOL0     H33467   2.236   4.733   2.233  0.2517 -0.7060 -0.2075
  254MOL0     H33468   2.351   4.793   2.097  1.1019  2.3339  0.6995
  254MOL0     H33469   2.142   4.882   1.991  0.8671  1.7396  1.9473
  254MOL0     H33470   2.047   4.809   2.123  0.9856  0.9654 -0.4530
  254MOL0     H33471   2.206   4.644   1.928  0.1973  1.6523 -0.6791
  254MOL0     H33472   2.137   4.589   2.082 -3.2214  0.6136  0.5787
  254MOL0     H33473   1.996   4.528   1.892  3.1523  0.5393 -1.1905
  254MOL0     H33474   1.974   4.695   1.836 -1.3418  0.6740  0.4507
  254MOL0     H33475   1.783   4.587   1.977  0.7462 -1.3308  0.5198
  254MOL0     H33476   1.832   4.753   2.018 -0.8962  0.0550  0.6219
  254MOL0     H33477   1.865   4.485   2.176  1.0431 -0.6394  2.4408
  254MOL0     H33478   1.985   4.600   2.197 -0.5476  1.4541 -0.9787
  254MOL0     H33479   1.681   4.644   2.245 -1.2836  0.9667  4.9255
  254MOL0     H33480   1.813   4.769   2.248 -1.5640  0.4939 -3.3522
  254MOL0     H33481   2.019   4.588   2.426 -0.1374 -0.2236 -0.8368
  254MOL0     H33482   2.066   4.452   2.648  1.0735  0.6685  2.0130
  254MOL0     H33483   1.926   4.430   2.757  0.4207  0.0864  0.4233
  254MOL0     H33484   1.945   4.667   2.827  1.0332  0.3464  0.9243
  254MOL0     H33485   2.063   4.702   2.695  0.4082  0.9340 -0.0650
  254MOL0     H33486   2.106   4.523   2.949  1.0298 -0.2860 -0.0739
  254MOL0     H33487   2.219   4.543   2.813  0.0967  0.6493 -0.3231
  254MOL0     H33488   2.156   4.819   2.912  0.6381  0.7630 -0.3534
  254MOL0     H33489   2.303   4.724   2.878 -0.4855 -1.8674  0.2153
  254MOL0     H33490   2.280   4.704   3.335  0.5619  1.1588 -0.0422
  254MOL0     H33491   2.110   4.739   3.514  2.4764 -1.9358  0.0687
  254MOL0     H33492   1.690   4.591   3.651 -1.5750 -1.8051  0.0032
  254MOL0     H33493   1.497   4.566   3.789  2.2546  1.3190 -0.3285
  254MOL0     H33494   1.338   4.685   3.952  0.0398 -1.6853  0.2831
  254MOL0     H33495   1.254   4.553   3.868 -1.4291 -0.0524 -1.3413
  254MOL0     H33496   1.042   4.667   3.903  0.1612 -0.6168 -1.1538
  254MOL0     H33497   1.134   4.806   3.976 -2.1855  0.0684  0.1227
  254MOL0     H33498   1.226   4.629   4.131  1.8330  1.2176 -2.3249
  254MOL0     H33499   1.081   4.522   4.088  2.0272  0.3323 -0.8688
  254MOL0     H33500   1.073   4.786   4.230  0.5886 -0.8070  2.3546
  254MOL0     H33501   0.933   4.704   4.154 -0.8129 -0.3260  1.5956
  254MOL0     H33502   1.092   4.632   4.401  1.4216  1.8450 -0.9659
  254MOL0     H33503   1.019   4.500   4.297 -1.0082 -0.3069  0.8742
  254MOL0     H33504   0.800   4.583   4.346  0.0348 -1.0472  0.2337
  254MOL0     H33505   0.865   4.729   4.419  0.9792  0.0501  3.7609
  254MOL0     H33506   0.942   4.457   4.526 -0.0374 -0.1647 -1.2002
  254MOL0     H33507   0.929   4.613   4.610 -2.2775  0.7848  1.4681
  254MOL0     H33508   0.730   4.467   4.676  0.3226 -0.7096 -0.8334
  254MOL0     H33509   0.667   4.497   4.515  0.5959  0.1257 -0.5616
  254MOL0     H33510   1.298   4.887   3.590 -0.1031 -0.2357 -1.3482
  254MOL0     H33511   1.505   4.902   3.424 -1.4589 -0.7653 -1.1233
  254MOL0     H33512   1.806   4.782   3.207  1.5657  0.5164 -1.6034
  254MOL0     H33513   1.965   4.777   3.043  1.0058  0.5624  0.2117
  254MOL0     H33514   2.416   5.160   1.922  0.6990  0.6665 -0.1275
  254MOL0     H33515   2.655   5.170   1.859  1.2865 -1.4900  0.0409
  254MOL0     H33516   3.071   5.198   2.043 -1.1181  1.9261 -1.9726
  254MOL0     H33517   3.329   5.219   2.019  0.3601 -0.7455  2.0732
  254MOL0     H33518   3.590   5.179   1.989  0.0974  1.6560 -0.3043
  254MOL0     H33519   3.495   5.250   1.861 -0.0090 -1.1642 -1.6154
  254MOL0     H33520   3.725   5.255   1.795 -0.5062 -0.4299 -1.9218
  254MOL0     H33521   3.736   5.081   1.822  1.4350  1.8624 -0.0235
  254MOL0     H33522   3.576   5.249   1.635  1.9329  1.3636 -2.2799
  254MOL0     H33523   3.544   5.072   1.650 -0.4829  0.9317  1.0625
  254MOL0     H33524   3.824   5.173   1.563 -2.1158  2.8530  0.2573
  254MOL0     H33525   3.749   5.008   1.556  1.0396  0.1616  0.2111
  254MOL0     H33526   3.613   5.168   1.198  0.1848  0.7373  0.0164
  254MOL0     H33527   3.328   4.854   1.808  0.9501  0.6001  0.5602
  254MOL0     H33528   3.080   4.833   1.826  3.5273 -0.1756 -2.1221
  255MOL0     O33529   4.061   4.644   8.062  0.3213 -0.2723  0.2476
  255MOL0     C33530   4.016   4.531   8.040 -0.5072  0.6741 -0.3172
  255MOL0     O33531   4.097   4.421   8.015  0.1173 -0.3445 -0.3333
  255MOL0     C33532   4.235   4.434   8.013 -1.2637 -0.5123 -0.8873
  255MOL0     C33533   4.303   4.537   7.964 -0.3760  0.7635  0.6964
  255MOL0     C33534   4.443   4.546   7.959  0.2208  0.1999 -0.4256
  255MOL0     C33535   4.520   4.439   8.013 -0.8458 -0.5666  0.4888
  255MOL0     O33536   4.660   4.437   8.015  0.3163 -0.0683  0.4107
  255MOL0     C33537   4.721   4.458   7.883  0.5442 -0.6462 -0.3609
  255MOL0     C33538   4.875   4.442   7.888 -0.9913 -0.5727  0.9913
  255MOL0     C33539   4.916   4.305   7.929 -0.6893 -0.0341 -0.2811
  255MOL0     C33540   5.066   4.274   7.921 -0.3172  0.5558  0.1584
  255MOL0     C33541   5.103   4.124   7.941 -0.4092  0.1406 -0.2438
  255MOL0     C33542   5.163   4.104   8.088  0.1673 -0.4200  1.4506
  255MOL0     C33543   5.076   4.154   8.208 -0.1039 -0.5714  0.0403
  255MOL0     C33544   4.960   4.061   8.228  0.5584 -0.2098  0.9945
  255MOL0     N33545   4.869   4.115   8.333 -0.6930 -0.0066 -0.1640
  255MOL0     C33546   4.773   4.207   8.318  0.7175  0.4532 -0.0043
  255MOL0     C33547   4.713   4.208   8.443 -0.1011 -0.4840  0.4348
  255MOL0     C33548   4.609   4.295   8.482  0.4469 -0.3354  0.2431
  255MOL0     C33549   4.466   4.251   8.450 -0.0100 -0.0539  0.0242
  255MOL0     C33550   4.365   4.359   8.510 -0.2745  0.5551  0.3421
  255MOL0     C33551   4.230   4.308   8.540 -0.0506  0.3621 -0.5695
  255MOL0     O33552   4.153   4.304   8.420 -0.0810 -0.3451 -1.0370
  255MOL0     C33553   4.026   4.249   8.444  0.5105  0.6476 -0.2195
  255MOL0     C33554   3.951   4.275   8.559 -0.6924  0.5663 -0.0882
  255MOL0     C33555   3.818   4.241   8.556  0.2105  0.7301 -0.2585
  255MOL0     C33556   3.748   4.180   8.453 -0.2930 -0.0257 -0.0256
  255MOL0     C33557   3.608   4.139   8.458 -0.3301  0.0903  0.1867
  255MOL0     O33558   3.536   4.172   8.565 -0.1453  0.5923 -0.2976
  255MOL0     C33559   3.400   4.139   8.577 -1.1848  1.1040  0.2537
  255MOL0     C33560   3.313   4.225   8.642 -0.2601 -0.3148 -0.9520
  255MOL0     C33561   3.184   4.178   8.689 -1.0225  0.7303 -0.0113
  255MOL0     C33562   3.147   4.050   8.665 -0.6150  0.4469 -0.7675
  255MOL0     O33563   3.022   4.023   8.705  0.0287  0.0335 -1.2106
  255MOL0     C33564   2.943   3.916   8.651  0.0196 -0.6485  0.1411
  255MOL0     C33565   2.788   3.960   8.661  0.5861 -0.2368 -0.9742
  255MOL0     C33566   2.759   4.074   8.563  0.7001  0.0963  0.7658
  255MOL0     C33567   2.612   4.117   8.567 -0.4082  0.3185  0.3269
  255MOL0     C33568   2.586   4.251   8.496 -1.1142 -0.1209 -0.6141
  255MOL0     C33569   2.610   4.249   8.344 -0.5249 -0.5620 -0.3585
  255MOL0     C33570   2.535   4.142   8.271  0.7150 -0.4290  1.1624
  255MOL0     C33571   2.561   4.152   8.110 -0.2550 -0.4369 -0.0834
  255MOL0    Cl33572   2.738   4.155   8.077  0.4037 -0.0744 -0.0977
  255MOL0     C33573   3.229   3.960   8.596  0.1728 -0.2415 -0.5911
  255MOL0     C33574   3.363   4.000   8.556  0.1370  0.0623 -0.5191
  255MOL0     O33575   3.564   4.089   8.356 -0.2513 -0.0260 -0.2288
  255MOL0     C33576   3.823   4.161   8.341  1.0205 -0.7028 -0.2408
  255MOL0     C33577   3.959   4.191   8.334 -1.2672  0.4748 -0.5308
  255MOL0     N33578   4.761   4.106   8.519  0.5738 -0.1435 -0.0644
  255MOL0     N33579   4.853   4.042   8.451  0.3320  0.2432  0.7117
  255MOL0     C33580   4.451   4.332   8.075  0.4474  0.8485 -0.2151
  255MOL0     C33581   4.310   4.323   8.069  0.0506 -0.0180  0.0078
  255MOL0     C33582   3.871   4.508   8.076  0.5003  0.2326  0.5364
  255MOL0     C33583   3.788   4.605   8.136  0.4519  0.1387 -0.2446
  255MOL0     C33584   3.658   4.583   8.170  1.2160  0.9125  0.7031
  255MOL0     C33585   3.595   4.456   8.145 -0.7839 -0.5409 -0.0656
  255MOL0     O33586   3.462   4.462   8.166  0.1814  0.1158 -0.1702
  255MOL0     C33587   3.390   4.336   8.181  0.1049 -0.1529  0.0419
  255MOL0     C33588   3.245   4.374   8.202  0.6977 -0.6066 -0.3606
  255MOL0     C33589   3.159   4.267   8.280  0.5438 -0.0747 -1.2916
  255MOL0     C33590   3.018   4.250   8.240 -0.7524  0.7413  0.3088
  255MOL0     C33591   2.950   4.383   8.246 -0.0609  1.1545  0.2209
  255MOL0     C33592   2.905   4.499   8.251  0.3292  0.6504 -0.6060
  255MOL0     C33593   3.673   4.350   8.100 -0.6886  0.0616  0.6568
  255MOL0     C33594   3.811   4.376   8.061 -0.1002  0.5381  0.1640
  255MOL0     H33595   4.245   4.610   7.908  0.9748  1.4817  0.1764
  255MOL0     H33596   4.494   4.631   7.914  0.5315 -0.0410 -0.5334
  255MOL0     H33597   4.709   4.565   7.866 -0.0019 -0.5443  0.5693
  255MOL0     H33598   4.672   4.398   7.805  1.4215 -0.6523 -0.9162
  255MOL0     H33599   4.926   4.523   7.940  0.4009  0.8987 -2.3703
  255MOL0     H33600   4.921   4.451   7.789  1.6924  0.0998  2.2148
  255MOL0     H33601   4.867   4.235   7.860  1.4397 -1.2404 -0.6970
  255MOL0     H33602   4.879   4.282   8.029  1.8894 -0.1797  0.7207
  255MOL0     H33603   5.098   4.301   7.819 -0.7005  0.6312  0.0547
  255MOL0     H33604   5.121   4.338   7.990  1.4527 -1.0424  0.2891
  255MOL0     H33605   5.173   4.087   7.865 -2.3939 -1.7750 -1.2393
  255MOL0     H33606   5.012   4.064   7.937 -0.2568 -0.3974  2.5750
  255MOL0     H33607   5.259   4.154   8.084  0.2288 -0.5294  1.5377
  255MOL0     H33608   5.197   4.002   8.111  3.5060  0.7746  2.3942
  255MOL0     H33609   5.133   4.150   8.301 -0.9744  0.2222  0.6351
  255MOL0     H33610   5.039   4.256   8.192 -1.1040 -1.0121 -0.5255
  255MOL0     H33611   4.998   3.962   8.259  2.2025  0.8820  2.7467
  255MOL0     H33612   4.897   4.048   8.140 -2.7324  0.7119  3.0167
  255MOL0     H33613   4.750   4.257   8.224 -2.0462  1.2737  1.0042
  255MOL0     H33614   4.620   4.392   8.432  1.1618 -0.4271  0.2213
  255MOL0     H33615   4.611   4.312   8.590  2.1634  2.9944 -0.1654
  255MOL0     H33616   4.454   4.148   8.485 -0.2194 -0.9352 -2.4548
  255MOL0     H33617   4.456   4.253   8.341  1.0493  1.1835 -0.0787
  255MOL0     H33618   4.415   4.391   8.601  1.9912  1.2561 -1.0597
  255MOL0     H33619   4.345   4.444   8.443 -2.9933  0.2612  0.6527
  255MOL0     H33620   4.185   4.372   8.617 -2.0514 -3.0312  1.2949
  255MOL0     H33621   4.240   4.210   8.586  2.9054 -0.1588 -2.1214
  255MOL0     H33622   3.990   4.319   8.650 -0.7895  0.9894 -0.2506
  255MOL0     H33623   3.760   4.255   8.647  3.1174 -2.5461  2.4224
  255MOL0     H33624   3.346   4.323   8.674 -0.1844 -0.1199 -1.5933
  255MOL0     H33625   3.125   4.242   8.753 -0.3961 -0.4537  1.8579
  255MOL0     H33626   2.975   3.828   8.707  1.8976  0.6246  1.1623
  255MOL0     H33627   2.971   3.899   8.547  3.7097  1.1066  0.6698
  255MOL0     H33628   2.775   3.994   8.764  0.0172  3.8842 -2.2525
  255MOL0     H33629   2.719   3.876   8.653  0.3805 -0.8794  3.9946
  255MOL0     H33630   2.790   4.047   8.461  1.9394  2.8515  0.3303
  255MOL0     H33631   2.825   4.158   8.587  1.0809 -0.0357  0.2117
  255MOL0     H33632   2.555   4.031   8.532  2.0836 -0.9402 -0.9175
  255MOL0     H33633   2.585   4.129   8.673  1.4494  1.1643  0.7442
  255MOL0     H33634   2.643   4.328   8.549  2.7245 -1.3113 -2.5561
  255MOL0     H33635   2.480   4.271   8.510 -1.3010 -2.2132  1.4971
  255MOL0     H33636   2.718   4.235   8.340 -0.7527 -2.5577 -0.4852
  255MOL0     H33637   2.582   4.352   8.319 -2.7554 -0.6500  1.4628
  255MOL0     H33638   2.585   4.047   8.291 -0.1485 -0.8489  1.3534
  255MOL0     H33639   2.428   4.137   8.294  0.6321 -0.4226  0.7877
  255MOL0     H33640   2.528   4.247   8.067  1.7312 -0.0674 -0.8720
  255MOL0     H33641   2.526   4.058   8.064  2.7051 -1.5555 -0.2181
  255MOL0     H33642   3.192   3.864   8.563 -1.7824  0.2583 -0.0127
  255MOL0     H33643   3.425   3.933   8.498 -2.1116 -1.6616 -1.0239
  255MOL0     H33644   3.785   4.116   8.250  0.1775 -2.8418  1.0974
  255MOL0     H33645   4.012   4.179   8.240 -0.1183  2.0979 -0.1362
  255MOL0     H33646   4.495   4.251   8.132 -0.8645  2.0888  2.7574
  255MOL0     H33647   4.254   4.243   8.117 -0.5204 -0.5544 -1.5152
  255MOL0     H33648   3.838   4.692   8.175  0.3015 -0.4128  1.2501
  255MOL0     H33649   3.600   4.663   8.215 -0.3215 -0.4250  1.2058
  255MOL0     H33650   3.431   4.272   8.260  1.0532 -1.6493 -1.5732
  255MOL0     H33651   3.400   4.279   8.088 -3.3475 -1.7024  0.4379
  255MOL0     H33652   3.236   4.472   8.249 -1.9355  0.0012 -1.9237
  255MOL0     H33653   3.201   4.376   8.102  0.5338 -0.8023 -0.2926
  255MOL0     H33654   3.154   4.283   8.388  0.9354  0.3754 -1.3355
  255MOL0     H33655   3.211   4.172   8.271 -0.7445 -0.8204 -1.0633
  255MOL0     H33656   3.020   4.209   8.139  0.1225 -2.1554  1.3954
  255MOL0     H33657   2.972   4.177   8.308 -0.3219  0.0631 -0.1144
  255MOL0     H33658   2.849   4.590   8.263 -3.2675 -1.6699  2.6871
  255MOL0     H33659   3.648   4.245   8.094  3.2560 -1.3026  3.2798
  255MOL0     H33660   3.868   4.291   8.026  0.4012  0.4676  1.1302
  256MOL0     O33661  11.198   4.895   3.481  0.8173  0.4385 -0.3147
  256MOL0     C33662  11.257   4.825   3.398 -0.3090  0.0233  0.9563
  256MOL0     O33663  11.252   4.687   3.398  0.3764 -0.4571  0.5880
  256MOL0     C33664  11.193   4.618   3.500 -0.1277 -0.1240  0.0988
  256MOL0     C33665  11.078   4.547   3.458  0.2243  0.4096 -0.7955
  256MOL0     C33666  11.014   4.464   3.560 -0.4610  0.0163  0.4017
  256MOL0     C33667  11.071   4.454   3.691 -0.0300  0.3637  0.2486
  256MOL0     O33668  11.001   4.375   3.783 -0.3755 -0.3235 -0.2247
  256MOL0     C33669  11.063   4.341   3.912  0.1167  0.3849  0.0174
  256MOL0     C33670  10.987   4.250   4.011 -0.1361  0.5973  0.3926
  256MOL0     C33671  10.838   4.266   4.004 -0.1418  0.0221 -0.0441
  256MOL0     C33672  10.780   4.161   4.101 -0.0020  0.1217  0.1925
  256MOL0     C33673  10.628   4.167   4.083 -0.3365 -0.8015  0.3235
  256MOL0     C33674  10.554   4.068   4.167 -0.2368  0.1693  0.8732
  256MOL0     C33675  10.403   4.074   4.135  0.2521  0.5424  0.0072
  256MOL0     C33676  10.324   4.182   4.218 -0.5943 -0.0370  0.8842
  256MOL0     N33677  10.181   4.168   4.199 -0.1300  0.2529  0.7930
  256MOL0     C33678  10.106   4.061   4.233 -0.2329 -0.3637  0.2631
  256MOL0     C33679   9.978   4.097   4.236  0.1141  0.2288  0.7421
  256MOL0     C33680   9.859   4.032   4.304 -0.5752 -0.5032 -0.8968
  256MOL0     C33681   9.766   3.969   4.201  0.1832 -0.5582 -0.1557
  256MOL0     C33682   9.635   3.961   4.276 -0.6076  0.7481 -0.1023
  256MOL0     C33683   9.532   3.887   4.197 -0.5634 -0.6983  0.1715
  256MOL0     O33684   9.578   3.759   4.159  0.5981  0.3686 -0.0381
  256MOL0     C33685   9.484   3.674   4.101  0.3625  0.5061 -0.6389
  256MOL0     C33686   9.554   3.564   4.045 -0.1049 -0.3017  0.0366
  256MOL0     C33687   9.488   3.464   3.969 -0.2993 -0.6415  0.6597
  256MOL0     C33688   9.346   3.473   3.958  0.6774  0.1956 -0.5006
  256MOL0     C33689   9.255   3.375   3.885  0.7473  0.6694 -0.0130
  256MOL0     O33690   9.126   3.407   3.849 -0.3556  0.0166  0.5991
  256MOL0     C33691   9.032   3.330   3.789 -0.5704 -0.1454  0.4247
  256MOL0     C33692   9.051   3.217   3.701 -0.0248  0.1349 -0.0262
  256MOL0     C33693   8.939   3.147   3.654 -0.6354 -1.0549 -0.9536
  256MOL0     C33694   8.808   3.194   3.673  0.1082  0.7241  0.1168
  256MOL0     O33695   8.699   3.148   3.609  0.1284  0.4983 -0.8815
  256MOL0     C33696   8.671   3.005   3.606  0.5123 -0.1109 -0.0484
  256MOL0     C33697   8.548   2.969   3.527 -0.5596 -0.3234 -0.3843
  256MOL0     C33698   8.514   2.823   3.529 -0.1993  0.0842  0.5790
  256MOL0     C33699   8.419   2.776   3.411 -0.2619 -0.3603 -0.3381
  256MOL0     C33700   8.274   2.811   3.436  0.6031  0.0318  0.6357
  256MOL0     C33701   8.201   2.724   3.546  0.3034  0.8765 -0.2592
  256MOL0     C33702   8.060   2.681   3.507  0.1505 -0.0787 -0.1086
  256MOL0     C33703   8.055   2.557   3.416 -0.0651 -0.7758 -0.3439
  256MOL0    Cl33704   7.886   2.491   3.399 -0.4896  0.0342 -0.2363
  256MOL0     C33705   8.795   3.310   3.750 -0.3074  1.1049  0.2940
  256MOL0     C33706   8.903   3.366   3.808  0.3812 -0.1298 -0.7640
  256MOL0     O33707   9.309   3.268   3.874  0.1735 -0.0204  0.7994
  256MOL0     C33708   9.273   3.582   4.008 -0.2689  0.5253  0.2332
  256MOL0     C33709   9.341   3.676   4.083  0.1526 -0.5898 -0.1118
  256MOL0     N33710   9.971   4.222   4.179 -0.8686  0.3401 -0.1608
  256MOL0     N33711  10.098   4.264   4.154  0.2183  0.1026  0.1723
  256MOL0     C33712  11.181   4.529   3.725 -0.8355 -0.1890  0.0442
  256MOL0     C33713  11.247   4.616   3.629 -0.6287 -0.0946 -0.6821
  256MOL0     C33714  11.343   4.894   3.303  0.6653  0.1506  0.1164
  256MOL0     C33715  11.326   5.023   3.257 -0.5877 -0.4063  0.1880
  256MOL0     C33716  11.410   5.091   3.166  0.5578  0.4262 -0.3017
  256MOL0     C33717  11.534   5.022   3.123  0.1673  0.0344 -0.4260
  256MOL0     O33718  11.626   5.075   3.032 -0.5504 -0.1538  0.0016
  256MOL0     C33719  11.624   5.210   2.998 -0.6197 -1.2187  0.3689
  256MOL0     C33720  11.695   5.306   3.098 -0.2878 -0.4205  0.0574
  256MOL0     C33721  11.622   5.344   3.223  0.0819 -0.5961 -0.9195
  256MOL0     C33722  11.721   5.431   3.312 -0.0159  0.3198 -0.4984
  256MOL0     C33723  11.640   5.479   3.428 -0.6611  0.6435 -0.0639
  256MOL0     C33724  11.577   5.503   3.533 -0.3154  0.3262  0.1716
  256MOL0     C33725  11.553   4.894   3.166 -0.0246  0.4951  0.1902
  256MOL0     C33726  11.461   4.834   3.255  0.2172  0.1659 -0.4175
  256MOL0     H33727  11.037   4.544   3.357 -1.3578 -3.4615 -0.2163
  256MOL0     H33728  10.944   4.386   3.529 -0.5470  1.8880 -5.3370
  256MOL0     H33729  11.094   4.432   3.963  1.2357 -0.5727  1.1334
  256MOL0     H33730  11.158   4.294   3.881 -1.3218 -1.5016 -1.8529
  256MOL0     H33731  11.034   4.244   4.109 -2.3905 -1.6199  1.4601
  256MOL0     H33732  11.009   4.151   3.972 -0.5116  1.3795 -1.9622
  256MOL0     H33733  10.810   4.244   3.901  1.0206  0.4300 -0.4678
  256MOL0     H33734  10.806   4.369   4.021 -0.4652 -0.0301 -0.3315
  256MOL0     H33735  10.814   4.061   4.075 -2.2746 -0.4882 -0.7068
  256MOL0     H33736  10.813   4.183   4.203  2.6826  2.9358 -1.0949
  256MOL0     H33737  10.599   4.152   3.979 -1.0645 -3.0428  0.7976
  256MOL0     H33738  10.594   4.262   4.124  0.6881  0.0520 -0.7305
  256MOL0     H33739  10.567   4.065   4.276 -0.0173 -0.6993  0.8270
  256MOL0     H33740  10.586   3.966   4.142 -3.9124 -0.9272 -0.0237
  256MOL0     H33741  10.378   4.086   4.029 -2.2702  0.1745  0.4873
  256MOL0     H33742  10.360   3.975   4.154  2.1983 -0.1404  1.2312
  256MOL0     H33743  10.371   4.274   4.180  0.4028 -0.7914  0.2336
  256MOL0     H33744  10.356   4.166   4.321 -0.0782 -2.0720  0.4441
  256MOL0     H33745  10.146   3.973   4.282 -0.6360 -0.3514  0.6207
  256MOL0     H33746   9.807   4.111   4.359 -0.4258 -0.3820 -0.9283
  256MOL0     H33747   9.908   3.972   4.382  0.9310  2.0260  0.2408
  256MOL0     H33748   9.806   3.871   4.171  1.0819  0.4905 -2.7300
  256MOL0     H33749   9.766   4.020   4.104  3.9919 -0.4194 -0.2397
  256MOL0     H33750   9.654   3.910   4.371 -1.1481 -1.1809 -0.9783
  256MOL0     H33751   9.600   4.061   4.303  1.4820  1.5717 -0.2880
  256MOL0     H33752   9.520   3.950   4.108  0.2897  3.8109  2.9777
  256MOL0     H33753   9.432   3.886   4.241 -1.0055 -0.8191 -0.7861
  256MOL0     H33754   9.662   3.553   4.054  0.0520 -1.1846 -2.1626
  256MOL0     H33755   9.543   3.383   3.922 -0.4542 -0.4677  0.1658
  256MOL0     H33756   9.153   3.189   3.676 -0.1961 -0.4009 -0.1274
  256MOL0     H33757   8.956   3.051   3.607  0.1652 -1.2404 -0.3104
  256MOL0     H33758   8.667   2.955   3.704 -0.4866  1.8914  0.9974
  256MOL0     H33759   8.755   2.960   3.553 -0.0296  0.6888 -1.6282
  256MOL0     H33760   8.555   3.008   3.425 -2.1308  1.4190  0.1042
  256MOL0     H33761   8.458   3.003   3.578 -1.4678 -2.9011 -0.1230
  256MOL0     H33762   8.469   2.793   3.625 -0.3937 -2.4281 -0.2186
  256MOL0     H33763   8.604   2.761   3.524 -1.3478 -1.5554 -0.9383
  256MOL0     H33764   8.455   2.812   3.314 -1.7807 -1.3132 -1.2937
  256MOL0     H33765   8.432   2.668   3.398  0.9746 -0.0095 -2.3034
  256MOL0     H33766   8.224   2.806   3.339 -1.7416 -2.3208  1.8384
  256MOL0     H33767   8.274   2.917   3.463  0.5823  0.6487 -1.6121
  256MOL0     H33768   8.192   2.785   3.636 -2.5322 -1.9597  1.5929
  256MOL0     H33769   8.250   2.629   3.572 -3.0655 -0.5848  1.3566
  256MOL0     H33770   8.010   2.662   3.602 -1.1205  0.6119 -0.6105
  256MOL0     H33771   8.010   2.767   3.461 -0.6799 -1.3146 -1.6086
  256MOL0     H33772   8.132   2.488   3.452 -0.4001  0.8332  4.0872
  256MOL0     H33773   8.100   2.571   3.317  0.6971 -1.0023 -0.0394
  256MOL0     H33774   8.696   3.349   3.771 -1.3173 -1.0151 -0.2259
  256MOL0     H33775   8.896   3.448   3.878 -0.3909 -0.6945 -0.1620
  256MOL0     H33776   9.165   3.595   4.010 -0.2818  0.6523 -0.7016
  256MOL0     H33777   9.280   3.755   4.126  1.1989  0.4092 -0.4175
  256MOL0     H33778  11.210   4.546   3.828  1.9643 -0.3560 -0.6223
  256MOL0     H33779  11.334   4.676   3.653 -0.0380 -1.2868  0.2799
  256MOL0     H33780  11.238   5.079   3.291  0.1305 -0.6492  2.6106
  256MOL0     H33781  11.385   5.189   3.126  1.2788  1.2468  1.1977
  256MOL0     H33782  11.525   5.243   2.966  0.5624  0.9768 -1.3809
  256MOL0     H33783  11.686   5.202   2.908 -1.5704 -2.7501 -0.1692
  256MOL0     H33784  11.782   5.248   3.129  1.5058  1.0040 -1.9740
  256MOL0     H33785  11.738   5.394   3.049 -1.5046 -0.3451 -0.9266
  256MOL0     H33786  11.586   5.267   3.291  3.2093 -2.5814 -1.2808
  256MOL0     H33787  11.535   5.403   3.194 -1.0655 -1.1288  1.2219
  256MOL0     H33788  11.812   5.372   3.331  0.0336  1.1295  2.1544
  256MOL0     H33789  11.754   5.516   3.252 -1.0721  0.6736 -0.5959
  256MOL0     H33790  11.515   5.510   3.621 -3.3031  0.1326 -1.7855
  256MOL0     H33791  11.635   4.828   3.137  1.0350  1.5433  0.7157
  256MOL0     H33792  11.472   4.731   3.286 -0.4050 -0.0919 -1.0358
  257MOL0     O33793   6.360   1.929   6.950 -0.7410  0.7074 -0.0584
  257MOL0     C33794   6.431   1.836   6.913  0.0593  0.1495 -0.7556
  257MOL0     O33795   6.476   1.813   6.784  0.2772  0.3684 -0.9646
  257MOL0     C33796   6.435   1.908   6.693  0.4486 -0.1918 -0.7457
  257MOL0     C33797   6.522   2.015   6.658  0.2776  0.4409 -0.6762
  257MOL0     C33798   6.485   2.121   6.568  0.8589  0.7591  0.0070
  257MOL0     C33799   6.359   2.105   6.505 -0.6922 -0.7657 -0.4019
  257MOL0     O33800   6.327   2.193   6.404  0.1321 -0.1341 -0.5924
  257MOL0     C33801   6.223   2.174   6.311  0.1530  0.4261  0.0788
  257MOL0     C33802   6.247   2.256   6.182 -0.3771  0.9922 -0.0698
  257MOL0     C33803   6.130   2.230   6.087 -0.1125 -0.1660 -0.7184
  257MOL0     C33804   6.112   2.349   5.983  0.9128 -0.2108 -0.8068
  257MOL0     C33805   5.970   2.350   5.911  0.9665  0.6975  0.0813
  257MOL0     C33806   5.914   2.217   5.867 -0.1037 -0.5393 -1.4414
  257MOL0     C33807   5.975   2.164   5.742 -0.1201  0.3600 -0.1447
  257MOL0     C33808   5.935   2.251   5.620 -0.0977  1.2845 -0.0399
  257MOL0     N33809   5.791   2.265   5.591  1.7392 -0.5269 -0.1356
  257MOL0     C33810   5.714   2.172   5.522 -0.3156  0.5931  0.7755
  257MOL0     C33811   5.597   2.226   5.517 -0.5223 -0.5563 -0.2419
  257MOL0     C33812   5.489   2.141   5.457 -0.4109 -0.2167 -0.2216
  257MOL0     C33813   5.354   2.178   5.514 -0.8763 -0.0774  0.6271
  257MOL0     C33814   5.228   2.092   5.459  0.6998  0.8409  0.5320
  257MOL0     C33815   5.097   2.171   5.472 -0.2204  0.3552 -0.0890
  257MOL0     O33816   5.010   2.134   5.362 -0.2268 -0.7734 -0.0809
  257MOL0     C33817   4.877   2.161   5.371  0.2527  0.4365 -0.0121
  257MOL0     C33818   4.811   2.219   5.478  0.1500  0.2352 -0.8277
  257MOL0     C33819   4.675   2.244   5.484  0.7845 -0.0526  0.3410
  257MOL0     C33820   4.595   2.218   5.368 -0.1474 -0.6222  0.1984
  257MOL0     C33821   4.449   2.232   5.372  0.2694 -0.3147 -0.1378
  257MOL0     O33822   4.393   2.279   5.479 -0.1282  0.9357 -0.1937
  257MOL0     C33823   4.262   2.320   5.477 -0.1266 -0.3654 -0.9271
  257MOL0     C33824   4.230   2.446   5.535 -0.7804  0.3915  0.2924
  257MOL0     C33825   4.100   2.478   5.531  0.1953 -0.2156  0.3586
  257MOL0     C33826   3.995   2.392   5.489  0.0843  0.3754  0.2314
  257MOL0     O33827   3.867   2.443   5.497 -0.0920  0.1215 -0.3070
  257MOL0     C33828   3.754   2.356   5.478  0.8687 -0.3423 -0.7554
  257MOL0     C33829   3.635   2.417   5.558  0.4658  0.3101  0.3195
  257MOL0     C33830   3.512   2.329   5.535  0.1444  0.2436 -0.0420
  257MOL0     C33831   3.386   2.393   5.584 -0.0071  0.9682 -0.2991
  257MOL0     C33832   3.265   2.304   5.592  0.1854  0.4809  0.4745
  257MOL0     C33833   3.136   2.383   5.594  0.8142 -0.3720  0.1276
  257MOL0     C33834   3.123   2.499   5.701 -0.0098  0.6884 -0.7691
  257MOL0     C33835   3.153   2.442   5.846 -0.2620 -0.4680  0.4746
  257MOL0    Cl33836   3.077   2.293   5.867 -0.2502  0.1923  0.3523
  257MOL0     C33837   4.029   2.267   5.442  0.1867 -0.2578  0.2513
  257MOL0     C33838   4.162   2.241   5.425 -0.3689  0.6774 -0.3359
  257MOL0     O33839   4.395   2.211   5.265 -0.0703 -0.2661  0.0415
  257MOL0     C33840   4.661   2.169   5.254 -0.3350 -0.3116  0.5976
  257MOL0     C33841   4.801   2.142   5.255  0.0381  0.2592  0.8186
  257MOL0     N33842   5.587   2.341   5.592 -0.4511  0.0567 -0.0492
  257MOL0     N33843   5.702   2.366   5.640 -0.1642  0.2286 -0.4790
  257MOL0     C33844   6.276   2.001   6.538  0.3540  0.4646  0.7095
  257MOL0     C33845   6.316   1.905   6.630 -0.1529  0.2358 -0.0950
  257MOL0     C33846   6.455   1.724   7.008  0.5017 -0.5085 -0.0458
  257MOL0     C33847   6.409   1.736   7.144 -0.3952 -0.7118 -0.4301
  257MOL0     C33848   6.443   1.636   7.239 -0.4837  0.4004  1.1526
  257MOL0     C33849   6.521   1.523   7.206 -0.0827 -0.6364 -0.4027
  257MOL0     O33850   6.581   1.426   7.287 -0.2580  0.3374  0.5158
  257MOL0     C33851   6.530   1.416   7.427 -0.2218 -0.7879  0.5179
  257MOL0     C33852   6.381   1.371   7.440 -1.1762  0.0848  0.3758
  257MOL0     C33853   6.351   1.221   7.429  0.1799 -0.4802 -0.3881
  257MOL0     C33854   6.403   1.150   7.308  0.0405 -0.3127  0.7923
  257MOL0     C33855   6.296   1.063   7.256  0.5595 -0.1110 -0.0677
  257MOL0     C33856   6.204   1.008   7.206 -0.3013 -0.1347  0.3769
  257MOL0     C33857   6.567   1.516   7.074 -0.7379  0.3571  0.2760
  257MOL0     C33858   6.543   1.615   6.978  0.4326 -0.2660  0.7375
  257MOL0     H33859   6.621   2.028   6.701  2.0494  0.3132 -4.3201
  257MOL0     H33860   6.552   2.201   6.539 -0.1103  1.1413 -1.3288
  257MOL0     H33861   6.128   2.199   6.358  0.0452 -3.6708  2.4625
  257MOL0     H33862   6.197   2.070   6.292 -3.0041  1.1060  0.0807
  257MOL0     H33863   6.342   2.233   6.133 -0.3072 -0.4249  0.6594
  257MOL0     H33864   6.266   2.359   6.214  1.7392  0.5976  0.1084
  257MOL0     H33865   6.039   2.241   6.147  0.2339  2.1052 -0.5316
  257MOL0     H33866   6.140   2.128   6.049 -3.0885 -0.3807 -1.1631
  257MOL0     H33867   6.127   2.443   6.036  1.2258 -0.4672 -0.4432
  257MOL0     H33868   6.186   2.350   5.903  1.2473  2.2395 -0.5268
  257MOL0     H33869   5.979   2.418   5.825  1.7563  1.3877  0.6919
  257MOL0     H33870   5.907   2.404   5.983  1.7515  0.4630  0.9553
  257MOL0     H33871   5.807   2.221   5.845 -0.7764 -2.6363  0.9754
  257MOL0     H33872   5.924   2.145   5.948  3.7407 -1.6206 -2.6767
  257MOL0     H33873   6.082   2.175   5.765 -0.3839  3.3625  0.0346
  257MOL0     H33874   5.936   2.062   5.733  1.2138 -0.0488 -1.6649
  257MOL0     H33875   5.974   2.207   5.528 -1.0887  0.3587 -0.0407
  257MOL0     H33876   5.985   2.348   5.630  0.4685  0.9961 -0.0696
  257MOL0     H33877   5.759   2.079   5.489 -0.2577  0.4241  1.3193
  257MOL0     H33878   5.511   2.039   5.488 -1.2931 -0.4724 -0.4269
  257MOL0     H33879   5.503   2.144   5.349  1.7701 -0.7667 -0.0061
  257MOL0     H33880   5.328   2.280   5.486 -2.2421 -0.5619  0.0466
  257MOL0     H33881   5.350   2.162   5.622  1.4584 -0.2908  0.7343
  257MOL0     H33882   5.250   2.063   5.356  1.2798 -1.7924  1.3028
  257MOL0     H33883   5.220   2.001   5.520 -0.5661  1.0842  0.7670
  257MOL0     H33884   5.118   2.278   5.470  1.2927  0.2208  2.8867
  257MOL0     H33885   5.063   2.156   5.575  0.0359  1.5508  0.1814
  257MOL0     H33886   4.853   2.250   5.573 -1.3456 -0.2716  0.0177
  257MOL0     H33887   4.628   2.282   5.574 -1.7457 -0.4199 -0.7315
  257MOL0     H33888   4.298   2.510   5.590 -0.6872  1.7014 -1.2673
  257MOL0     H33889   4.067   2.578   5.558 -0.3022 -0.6625  1.4582
  257MOL0     H33890   3.775   2.255   5.514  1.3842  0.1434  0.3684
  257MOL0     H33891   3.729   2.350   5.372 -0.5926  0.0200 -0.4510
  257MOL0     H33892   3.626   2.522   5.529 -0.3459  0.6847  1.8103
  257MOL0     H33893   3.659   2.424   5.665  2.2812  2.2886 -0.1567
  257MOL0     H33894   3.524   2.232   5.583  1.3196  0.5560  0.3317
  257MOL0     H33895   3.503   2.310   5.427  0.9759  1.5224 -0.3711
  257MOL0     H33896   3.404   2.434   5.684 -5.0414 -0.1657  1.3745
  257MOL0     H33897   3.355   2.484   5.531 -0.5678  1.0462  0.1600
  257MOL0     H33898   3.272   2.236   5.678  0.5139  0.6919  0.6163
  257MOL0     H33899   3.264   2.238   5.505  0.1120  1.4804 -0.2937
  257MOL0     H33900   3.051   2.319   5.619  2.8883 -2.7063  1.7721
  257MOL0     H33901   3.126   2.426   5.494  2.0028  0.2055  0.2324
  257MOL0     H33902   3.188   2.582   5.672  2.6032 -0.2555  1.8613
  257MOL0     H33903   3.020   2.536   5.703 -0.8356 -1.4948  0.1190
  257MOL0     H33904   3.117   2.519   5.915  1.8060  0.1434  0.9384
  257MOL0     H33905   3.261   2.438   5.865 -0.1784 -1.7150 -0.2078
  257MOL0     H33906   3.949   2.201   5.409 -1.1618  0.6848  1.4931
  257MOL0     H33907   4.177   2.142   5.382 -2.0164  0.4984 -0.5751
  257MOL0     H33908   4.607   2.159   5.161  0.6896 -0.2480 -0.0200
  257MOL0     H33909   4.846   2.108   5.162 -2.8189 -1.2340 -0.1255
  257MOL0     H33910   6.177   1.987   6.496  1.2609  0.8575 -1.7865
  257MOL0     H33911   6.241   1.835   6.664 -0.5438 -0.3815 -2.0942
  257MOL0     H33912   6.371   1.833   7.172  1.1628  0.9143 -3.4095
  257MOL0     H33913   6.421   1.648   7.344 -1.1654 -2.0645  1.3630
  257MOL0     H33914   6.542   1.515   7.473 -1.3663  0.0232 -0.8182
  257MOL0     H33915   6.599   1.348   7.477  1.2553  0.7226  0.6153
  257MOL0     H33916   6.340   1.413   7.533 -0.2073  3.7826 -0.6802
  257MOL0     H33917   6.328   1.416   7.356  0.2572 -0.8866 -1.1022
  257MOL0     H33918   6.242   1.209   7.434  0.2685 -1.2216 -0.0385
  257MOL0     H33919   6.395   1.176   7.519  0.5126  2.1894  0.8703
  257MOL0     H33920   6.421   1.229   7.235 -2.7079  1.8790  2.2700
  257MOL0     H33921   6.492   1.096   7.341 -0.9758 -0.9424  2.7043
  257MOL0     H33922   6.121   0.963   7.155 -0.1442  0.6452 -0.5975
  257MOL0     H33923   6.614   1.423   7.043 -0.5102  0.5156  0.1507
  257MOL0     H33924   6.578   1.613   6.875  0.6571  0.2516  0.8025
  258MOL0     O33925   0.158   3.575   9.429  0.0833  0.1310  0.1696
  258MOL0     C33926   0.174   3.524   9.317  0.6976  0.5974 -0.1154
  258MOL0     O33927   0.071   3.480   9.235  0.7252 -0.0005 -0.2717
  258MOL0     C33928  -0.052   3.502   9.289 -0.2494  0.3327 -0.1210
  258MOL0     C33929  -0.139   3.585   9.229  0.4214 -0.4669 -0.3547
  258MOL0     C33930  -0.276   3.598   9.266 -0.7552  0.2915 -0.7033
  258MOL0     C33931  -0.326   3.531   9.378 -0.5375  0.7860  0.5669
  258MOL0     O33932  -0.453   3.539   9.425  0.5129  0.1888 -0.4886
  258MOL0     C33933  -0.486   3.613   9.542  0.3364 -0.3005  0.1221
  258MOL0     C33934  -0.634   3.596   9.577  0.0727  0.5819  0.1220
  258MOL0     C33935  -0.721   3.669   9.473 -0.1865  1.2309  0.7125
  258MOL0     C33936  -0.876   3.650   9.510  0.5639  0.5893  0.3582
  258MOL0     C33937  -0.916   3.506   9.527 -0.8020 -0.9182 -0.1819
  258MOL0     C33938  -1.069   3.480   9.514  0.2857 -0.9027 -0.2392
  258MOL0     C33939  -1.136   3.533   9.642 -0.4257 -0.0906 -0.3909
  258MOL0     C33940  -1.292   3.538   9.634  0.3584  0.3150 -0.2744
  258MOL0     N33941  -1.358   3.442   9.546  0.3157 -0.4779  0.1933
  258MOL0     C33942  -1.379   3.469   9.413  1.2166 -0.0522 -0.1973
  258MOL0     C33943  -1.455   3.360   9.372  0.1468 -0.8916  0.7939
  258MOL0     C33944  -1.516   3.351   9.237  0.6488  0.0150  0.5807
  258MOL0     C33945  -1.673   3.327   9.251  0.5200  0.7110 -0.5221
  258MOL0     C33946  -1.737   3.385   9.119  0.1267  0.0516 -0.0813
  258MOL0     C33947  -1.890   3.394   9.139 -0.1275  0.0401  0.9446
  258MOL0     O33948  -1.937   3.262   9.135  0.1108  0.2076  0.2426
  258MOL0     C33949  -2.066   3.242   9.146 -0.6493 -0.1785 -0.6794
  258MOL0     C33950  -2.168   3.335   9.116 -0.2876 -0.1180 -0.0923
  258MOL0     C33951  -2.303   3.304   9.132  0.9243  0.5093 -0.4739
  258MOL0     C33952  -2.344   3.176   9.168  0.1754  0.1768  0.3214
  258MOL0     C33953  -2.492   3.147   9.193 -0.9451 -0.3269  0.8827
  258MOL0     O33954  -2.581   3.244   9.174  0.5920 -0.3828  0.9207
  258MOL0     C33955  -2.703   3.222   9.210 -0.5634 -0.1755 -0.2988
  258MOL0     C33956  -2.802   3.168   9.122 -0.5809 -0.0361  1.0199
  258MOL0     C33957  -2.936   3.149   9.167  0.5621  0.4190 -0.6021
  258MOL0     C33958  -2.975   3.196   9.292  0.6129 -0.3487 -0.4775
  258MOL0     O33959  -3.110   3.200   9.332 -0.2645  0.3776 -0.6943
  258MOL0     C33960  -3.211   3.115   9.275  0.3673  0.1758 -0.3239
  258MOL0     C33961  -3.333   3.122   9.364  0.1137  0.1245 -0.1574
  258MOL0     C33962  -3.464   3.063   9.309 -0.2423 -0.7819  0.0101
  258MOL0     C33963  -3.570   3.076   9.419  0.0894  0.2376 -0.3809
  258MOL0     C33964  -3.705   3.028   9.350 -0.3627 -0.5760  0.3322
  258MOL0     C33965  -3.741   3.108   9.219 -0.6604 -0.5446  0.4873
  258MOL0     C33966  -3.876   3.057   9.183  1.0015 -0.0360 -0.1826
  258MOL0     C33967  -3.945   3.137   9.062 -0.2773  0.6515  0.3567
  258MOL0    Cl33968  -3.990   3.298   9.113 -0.1295 -0.1250 -0.1448
  258MOL0     C33969  -2.888   3.262   9.370 -0.3092 -0.5596 -0.5294
  258MOL0     C33970  -2.755   3.277   9.329 -1.2593 -1.3661 -0.6189
  258MOL0     O33971  -2.519   3.030   9.224  0.1564  0.5999  0.3679
  258MOL0     C33972  -2.245   3.082   9.206  0.5692  0.5146  0.4362
  258MOL0     C33973  -2.107   3.117   9.195  0.3987  0.0824  0.1044
  258MOL0     N33974  -1.474   3.272   9.473 -0.6070 -0.3792 -0.6087
  258MOL0     N33975  -1.415   3.320   9.581 -0.8376 -0.7393  0.2696
  258MOL0     C33976  -0.231   3.444   9.443 -0.1269  0.1029 -0.2591
  258MOL0     C33977  -0.097   3.422   9.395 -0.7795  0.2159 -0.6804
  258MOL0     C33978   0.311   3.497   9.281 -0.3402  0.4337  0.3369
  258MOL0     C33979   0.417   3.494   9.380  0.5346  0.1070  0.1819
  258MOL0     C33980   0.546   3.465   9.345 -0.1728  0.6801  1.4508
  258MOL0     C33981   0.578   3.449   9.208  0.2740  0.2074 -0.2602
  258MOL0     O33982   0.714   3.431   9.184  1.1876  0.0391 -0.3560
  258MOL0     C33983   0.761   3.390   9.057 -0.5295 -0.2557  0.8117
  258MOL0     C33984   0.733   3.244   9.028  0.2511 -0.0787 -0.4819
  258MOL0     C33985   0.863   3.160   9.035  0.5613  0.2066  0.6528
  258MOL0     C33986   0.941   3.166   8.909  0.1806 -0.3747 -0.0380
  258MOL0     C33987   1.001   3.289   8.869  0.6180  0.5125  0.6709
  258MOL0     C33988   1.031   3.403   8.855 -0.8705 -0.0737  0.1392
  258MOL0     C33989   0.473   3.449   9.111 -0.4409 -0.1275 -0.1725
  258MOL0     C33990   0.343   3.469   9.145 -0.2781 -0.4038  0.0199
  258MOL0     H33991  -0.099   3.638   9.143  0.8795 -1.2501 -0.6317
  258MOL0     H33992  -0.335   3.663   9.202 -1.2702  2.1390  1.5084
  258MOL0     H33993  -0.463   3.720   9.533  2.2344 -0.6504  0.3771
  258MOL0     H33994  -0.416   3.583   9.621 -1.4174 -1.7653  1.2038
  258MOL0     H33995  -0.665   3.632   9.676 -2.2413 -0.4898 -0.1440
  258MOL0     H33996  -0.667   3.492   9.571 -0.3735  0.7893 -1.9098
  258MOL0     H33997  -0.699   3.629   9.373  1.3516  0.7182  1.2238
  258MOL0     H33998  -0.693   3.774   9.460  0.4093  0.9608 -0.3051
  258MOL0     H33999  -0.907   3.706   9.599  0.5474 -0.8042  1.2570
  258MOL0     H34000  -0.937   3.693   9.430  1.0243 -0.1322 -0.3936
  258MOL0     H34001  -0.889   3.476   9.629 -1.4597  0.9176  0.5710
  258MOL0     H34002  -0.858   3.448   9.454  2.3604  2.4358 -0.6315
  258MOL0     H34003  -1.086   3.372   9.500  2.5906 -1.5421  1.3603
  258MOL0     H34004  -1.116   3.527   9.427 -1.1241 -1.5270  0.1478
  258MOL0     H34005  -1.105   3.465   9.722  0.4021  1.1438  0.3720
  258MOL0     H34006  -1.103   3.633   9.671  2.0282 -0.6578 -1.0440
  258MOL0     H34007  -1.327   3.636   9.599 -1.3105 -1.4182 -4.0338
  258MOL0     H34008  -1.329   3.512   9.733 -1.5764  2.3473 -0.3893
  258MOL0     H34009  -1.363   3.555   9.349 -3.2283  1.8808  0.8893
  258MOL0     H34010  -1.474   3.275   9.170 -0.2573  1.1712 -1.4068
  258MOL0     H34011  -1.497   3.443   9.181 -2.3370 -0.1397 -0.9343
  258MOL0     H34012  -1.705   3.386   9.337  1.2889 -0.0504  0.3005
  258MOL0     H34013  -1.696   3.220   9.262  0.5512  0.6462 -1.0707
  258MOL0     H34014  -1.706   3.485   9.087  0.9520 -0.0933  0.2238
  258MOL0     H34015  -1.712   3.315   9.039  2.8955  0.4676  0.3105
  258MOL0     H34016  -1.933   3.463   9.065  3.6816  0.4830 -1.1018
  258MOL0     H34017  -1.906   3.438   9.238 -2.7333  0.3790  0.4539
  258MOL0     H34018  -2.145   3.424   9.059  0.4087 -0.5712 -0.5298
  258MOL0     H34019  -2.376   3.379   9.102 -0.5651 -1.8159 -3.1403
  258MOL0     H34020  -2.773   3.122   9.028  0.2754 -0.7024  1.5864
  258MOL0     H34021  -2.992   3.075   9.110 -0.1182 -0.3780  1.0423
  258MOL0     H34022  -3.168   3.014   9.268 -1.6259 -0.9607  2.3999
  258MOL0     H34023  -3.246   3.152   9.178 -2.1527  1.5555  1.0189
  258MOL0     H34024  -3.359   3.228   9.376 -1.4758 -0.3715  1.0984
  258MOL0     H34025  -3.300   3.078   9.458 -0.8083  2.7090  1.4897
  258MOL0     H34026  -3.452   2.957   9.282 -1.2661 -0.6280 -1.1283
  258MOL0     H34027  -3.486   3.123   9.221  1.8163  0.7873  0.4803
  258MOL0     H34028  -3.547   3.013   9.505 -4.5207 -1.7288 -0.3179
  258MOL0     H34029  -3.573   3.183   9.440  0.9466  0.4529 -1.2595
  258MOL0     H34030  -3.786   3.033   9.423 -2.2902  2.2019 -1.8003
  258MOL0     H34031  -3.695   2.924   9.315  1.7190  0.0446 -1.1365
  258MOL0     H34032  -3.671   3.096   9.136 -1.8110 -1.1087 -0.4244
  258MOL0     H34033  -3.750   3.215   9.241 -1.1719 -0.2747 -0.9300
  258MOL0     H34034  -3.854   2.959   9.140  0.0799  0.8142 -2.7312
  258MOL0     H34035  -3.936   3.042   9.273  0.0654 -1.8555 -1.0582
  258MOL0     H34036  -4.033   3.077   9.040 -0.1325  0.8942 -0.9512
  258MOL0     H34037  -3.890   3.134   8.967  0.9730 -0.4209  1.0737
  258MOL0     H34038  -2.915   3.298   9.469 -0.5371 -0.8748 -0.4733
  258MOL0     H34039  -2.684   3.327   9.394 -2.4693  2.0609 -1.6882
  258MOL0     H34040  -2.287   2.990   9.247  3.1923 -0.5166  1.0247
  258MOL0     H34041  -2.023   3.060   9.235 -0.5369 -3.1728 -2.1492
  258MOL0     H34042  -0.279   3.384   9.520 -1.2476 -0.5222 -1.3973
  258MOL0     H34043  -0.021   3.371   9.453  1.0123  2.3646 -1.0307
  258MOL0     H34044   0.377   3.517   9.478 -2.3222  1.9089 -1.2526
  258MOL0     H34045   0.624   3.452   9.420  2.7475  2.8616 -0.9288
  258MOL0     H34046   0.868   3.412   9.055 -1.0314  2.6074  0.9946
  258MOL0     H34047   0.709   3.450   8.981 -0.0351 -0.9635 -0.0954
  258MOL0     H34048   0.671   3.207   9.110  0.2796  1.3095  0.1773
  258MOL0     H34049   0.673   3.226   8.938  1.1282 -2.8329 -0.6220
  258MOL0     H34050   0.827   3.057   9.047  1.0256  0.0727  0.9190
  258MOL0     H34051   0.927   3.193   9.117  1.4166  0.9853 -0.3054
  258MOL0     H34052   1.029   3.102   8.917 -1.4503 -2.5589  1.8756
  258MOL0     H34053   0.887   3.127   8.822 -0.6929 -0.1201  0.3847
  258MOL0     H34054   1.055   3.507   8.855 -1.8129  0.1596  1.0164
  258MOL0     H34055   0.493   3.439   9.005  2.0563  0.9733  0.1187
  258MOL0     H34056   0.269   3.481   9.067 -0.4366  1.6639  0.4355
  259MOL0     O34057   5.259   2.744   9.147  0.0633 -0.0933 -0.2328
  259MOL0     C34058   5.185   2.761   9.246 -0.7323 -0.6630 -0.3685
  259MOL0     O34059   5.231   2.784   9.382 -0.4053  0.5959  0.5148
  259MOL0     C34060   5.367   2.785   9.411  0.2640 -0.8072  0.1836
  259MOL0     C34061   5.398   2.769   9.547 -0.5284  0.3747  0.1818
  259MOL0     C34062   5.534   2.772   9.597  0.3779 -0.2832  0.9798
  259MOL0     C34063   5.641   2.791   9.511 -0.5293  0.2135 -0.2305
  259MOL0     O34064   5.773   2.777   9.555 -0.0096 -0.3936 -0.5115
  259MOL0     C34065   5.804   2.804   9.701  0.2516  0.2464 -0.4001
  259MOL0     C34066   5.951   2.837   9.719 -0.1504 -0.5649  0.1839
  259MOL0     C34067   5.972   2.905   9.857 -0.4491  0.2784 -0.7168
  259MOL0     C34068   6.105   2.984   9.868  0.9423 -0.3653 -0.4184
  259MOL0     C34069   6.131   3.050  10.004 -0.5758 -0.1606 -0.1620
  259MOL0     C34070   6.028   3.142  10.065  0.1969 -0.6685 -0.0201
  259MOL0     C34071   6.052   3.175  10.212 -0.2397  0.5707  0.5967
  259MOL0     C34072   6.029   3.058  10.314 -0.7442  0.0163  0.0731
  259MOL0     N34073   5.903   2.983  10.301  0.2211 -0.6540 -0.1466
  259MOL0     C34074   5.880   2.857  10.239 -0.5223  0.3158 -0.0129
  259MOL0     C34075   5.745   2.852  10.256  0.2772  0.8821  0.2078
  259MOL0     C34076   5.666   2.749  10.180  0.3895  0.9582 -0.5159
  259MOL0     C34077   5.657   2.791  10.030  0.3619 -0.1719  0.1704
  259MOL0     C34078   5.588   2.923  10.005  0.5072 -0.0966 -1.1529
  259MOL0     C34079   5.435   2.920  10.018 -0.5032 -0.0932 -0.9005
  259MOL0     O34080   5.388   2.836   9.913 -0.3079  0.3502 -0.1670
  259MOL0     C34081   5.250   2.834   9.899  0.2459  0.0509 -0.8642
  259MOL0     C34082   5.197   2.726   9.832 -0.1027  0.1787  0.9626
  259MOL0     C34083   5.063   2.707   9.812 -0.3116  0.8575  0.0382
  259MOL0     C34084   4.964   2.798   9.860  0.2029  0.4795  0.1083
  259MOL0     C34085   4.818   2.767   9.837  0.2256 -0.6604  0.4771
  259MOL0     O34086   4.783   2.643   9.795 -0.2102  0.2410 -0.9330
  259MOL0     C34087   4.651   2.611   9.763 -0.7827  0.0082 -0.5371
  259MOL0     C34088   4.547   2.606   9.861  0.3746 -0.1011 -0.3819
  259MOL0     C34089   4.418   2.566   9.822 -0.3021  0.2945 -0.9319
  259MOL0     C34090   4.403   2.546   9.683  0.2557 -0.3719  0.3296
  259MOL0     O34091   4.283   2.502   9.630 -0.0785  0.5897 -0.7564
  259MOL0     C34092   4.268   2.363   9.660  0.1960 -0.1970 -0.2852
  259MOL0     C34093   4.196   2.288   9.555 -0.5325  0.8556 -1.0549
  259MOL0     C34094   4.058   2.352   9.528 -0.2027  0.2938 -0.4011
  259MOL0     C34095   3.979   2.268   9.425  0.4291 -0.6071 -0.3208
  259MOL0     C34096   4.055   2.237   9.298 -0.2723 -0.9903  0.3115
  259MOL0     C34097   3.970   2.161   9.199 -0.1398  0.1866  0.3441
  259MOL0     C34098   4.056   2.137   9.076 -0.1939 -0.3843 -0.5778
  259MOL0     C34099   3.980   2.083   8.960  0.2802 -0.8016  0.4013
  259MOL0    Cl34100   4.101   2.025   8.839  0.2172 -0.0833  0.6310
  259MOL0     C34101   4.503   2.547   9.590  0.8559 -0.1917 -0.0152
  259MOL0     C34102   4.632   2.584   9.630  0.4613  1.1953  0.4865
  259MOL0     O34103   4.739   2.863   9.829 -0.0410  0.3864 -0.8186
  259MOL0     C34104   5.020   2.908   9.920 -0.1986 -0.4344 -0.2344
  259MOL0     C34105   5.153   2.925   9.948  0.3950 -0.3426 -0.5436
  259MOL0     N34106   5.694   2.950  10.343 -0.2114 -0.3677 -0.2195
  259MOL0     N34107   5.789   3.029  10.361  0.6516  0.3347  0.6131
  259MOL0     C34108   5.612   2.812   9.371 -0.5982  0.2213  0.1221
  259MOL0     C34109   5.477   2.815   9.320  0.7308 -0.1941  0.2808
  259MOL0     C34110   5.035   2.769   9.220 -0.1776 -0.8589  0.3870
  259MOL0     C34111   4.987   2.747   9.088 -0.3003 -0.5730 -0.0272
  259MOL0     C34112   4.853   2.767   9.058 -0.5694 -1.0637  0.6508
  259MOL0     C34113   4.762   2.819   9.153 -0.3531 -0.5873  0.7430
  259MOL0     O34114   4.629   2.846   9.113  0.2606  0.0811 -0.1372
  259MOL0     C34115   4.533   2.865   9.216 -0.0916  0.5721  0.1988
  259MOL0     C34116   4.397   2.823   9.163  0.0025 -0.5137 -0.4845
  259MOL0     C34117   4.290   2.836   9.283  0.3261  0.0472 -0.2621
  259MOL0     C34118   4.143   2.795   9.256  0.8321 -0.4097  0.0385
  259MOL0     C34119   4.103   2.854   9.125 -0.2252 -0.2640 -0.2822
  259MOL0     C34120   4.063   2.887   9.014  0.7870 -0.0578 -0.2928
  259MOL0     C34121   4.816   2.848   9.280  0.5447 -0.1105  0.1560
  259MOL0     C34122   4.951   2.821   9.314 -0.2122 -1.3224  0.3005
  259MOL0     H34123   5.315   2.771   9.616  0.7199  1.4242  1.7237
  259MOL0     H34124   5.541   2.746   9.702 -3.4464 -0.3853  1.3490
  259MOL0     H34125   5.769   2.718   9.759  1.0608  0.1029 -0.1070
  259MOL0     H34126   5.737   2.883   9.736 -0.4045 -0.3634 -0.2582
  259MOL0     H34127   5.989   2.896   9.635 -2.7468  1.3442  0.2110
  259MOL0     H34128   6.011   2.746   9.720  0.1238 -0.4135 -1.1253
  259MOL0     H34129   5.977   2.815   9.919  1.0885 -1.3345 -3.0042
  259MOL0     H34130   5.888   2.970   9.882  0.7054  2.5291 -2.3397
  259MOL0     H34131   6.189   2.916   9.850 -0.0384 -2.0414  1.0675
  259MOL0     H34132   6.107   3.058   9.787 -0.4126  1.9942  1.5391
  259MOL0     H34133   6.227   3.100   9.988 -0.6735  0.8240  2.0307
  259MOL0     H34134   6.149   2.973  10.080 -4.0244 -0.4939  0.4595
  259MOL0     H34135   5.924   3.107  10.062  0.5235 -1.6593  0.1835
  259MOL0     H34136   6.035   3.229   9.998  1.4595  1.7488  3.0308
  259MOL0     H34137   6.157   3.200  10.228 -0.2059  0.0440  1.2493
  259MOL0     H34138   5.981   3.255  10.235 -0.6407  0.2946  0.3281
  259MOL0     H34139   6.044   3.106  10.411  1.0164  0.0827 -0.2044
  259MOL0     H34140   6.110   2.987  10.295 -0.1991  1.2544 -2.6726
  259MOL0     H34141   5.943   2.782  10.192 -0.8782  0.5725 -0.9232
  259MOL0     H34142   5.567   2.733  10.222  0.8492 -2.8702 -0.5779
  259MOL0     H34143   5.723   2.656  10.186  0.3242  0.8893 -0.9311
  259MOL0     H34144   5.618   2.704   9.977  3.7139 -0.4463 -2.2601
  259MOL0     H34145   5.762   2.800   9.998  0.8949 -0.3602  1.8096
  259MOL0     H34146   5.631   3.001  10.069  0.0189 -0.5239 -0.2866
  259MOL0     H34147   5.612   2.950   9.902  2.8577 -1.6637 -1.0898
  259MOL0     H34148   5.397   3.022  10.023  2.2511  0.9956 -0.5061
  259MOL0     H34149   5.406   2.872  10.112 -0.9656 -2.7606 -2.3082
  259MOL0     H34150   5.265   2.644   9.813  0.4295  0.2659  2.3220
  259MOL0     H34151   5.042   2.612   9.764  1.3299  0.5478 -0.0984
  259MOL0     H34152   4.554   2.624   9.968  1.2171 -1.0726 -0.2568
  259MOL0     H34153   4.336   2.557   9.893 -0.7238  0.0737 -1.4357
  259MOL0     H34154   4.226   2.351   9.760 -0.7859 -2.8960 -0.9359
  259MOL0     H34155   4.362   2.308   9.652 -1.5232 -3.9679  2.5311
  259MOL0     H34156   4.191   2.182   9.582  1.9789  1.0025  0.3645
  259MOL0     H34157   4.261   2.287   9.467 -0.2474 -1.2409 -0.8784
  259MOL0     H34158   4.076   2.451   9.488  1.2869 -0.4703 -1.7122
  259MOL0     H34159   3.998   2.352   9.620  2.4110 -1.0672  1.4449
  259MOL0     H34160   3.944   2.176   9.472  1.2249 -0.2026  1.1333
  259MOL0     H34161   3.895   2.333   9.399  0.8271  1.3581  2.7607
  259MOL0     H34162   4.144   2.177   9.320 -1.1052 -2.2077  0.4376
  259MOL0     H34163   4.097   2.327   9.252 -0.2118  0.1932  2.5232
  259MOL0     H34164   3.884   2.225   9.178  1.5039  2.6962  0.8996
  259MOL0     H34165   3.946   2.065   9.247 -0.1297 -0.1990 -0.4029
  259MOL0     H34166   4.096   2.230   9.036  1.5665 -0.4201  0.9260
  259MOL0     H34167   4.147   2.080   9.099  0.3843  0.1188 -1.5739
  259MOL0     H34168   3.919   2.165   8.921 -1.0422 -1.8468  0.1679
  259MOL0     H34169   3.911   1.999   8.972 -0.0041 -0.7454 -0.6906
  259MOL0     H34170   4.490   2.538   9.482  2.7698  0.1007 -0.3077
  259MOL0     H34171   4.713   2.581   9.558 -0.6247 -0.3368 -0.7304
  259MOL0     H34172   4.961   2.991   9.957 -0.0498  1.4535 -3.7628
  259MOL0     H34173   5.190   3.014   9.997 -1.3252 -0.9574  2.1101
  259MOL0     H34174   5.689   2.840   9.300 -0.5014  1.9499  0.8547
  259MOL0     H34175   5.466   2.848   9.217 -2.0067 -1.9620 -0.0985
  259MOL0     H34176   5.049   2.721   9.003 -1.0665 -1.0662 -0.4487
  259MOL0     H34177   4.829   2.730   8.959  1.7541 -1.8047  0.3082
  259MOL0     H34178   4.526   2.970   9.247 -1.1507  0.9898 -1.2862
  259MOL0     H34179   4.555   2.807   9.305  0.8139  1.2197  0.4165
  259MOL0     H34180   4.374   2.884   9.075 -1.0234  1.0263  0.7950
  259MOL0     H34181   4.391   2.721   9.125  1.0431 -0.3410 -1.1459
  259MOL0     H34182   4.289   2.940   9.317 -1.6118  0.6094 -1.8512
  259MOL0     H34183   4.323   2.779   9.370 -0.5470 -1.1060 -0.6666
  259MOL0     H34184   4.150   2.686   9.249 -2.2159 -0.9662  3.1130
  259MOL0     H34185   4.074   2.820   9.337  0.8315  1.8819 -0.5948
  259MOL0     H34186   4.023   2.904   8.915 -0.0915  1.7886  0.3293
  259MOL0     H34187   4.748   2.890   9.354 -0.7940 -0.0371 -1.0549
  259MOL0     H34188   4.987   2.852   9.411  2.1780 -2.2662 -0.2052
  260MOL0     O34189   7.318   4.108   1.185  0.5056 -0.3029 -0.2075
  260MOL0     C34190   7.307   4.198   1.269 -0.8716 -0.3563  0.6002
  260MOL0     O34191   7.196   4.250   1.314  0.1316 -0.0176  0.5686
  260MOL0     C34192   7.080   4.196   1.276  0.4355  0.4913 -0.2892
  260MOL0     C34193   7.025   4.084   1.344 -0.9884 -0.7454  0.0914
  260MOL0     C34194   6.887   4.051   1.319  0.0715  0.1497 -0.6611
  260MOL0     C34195   6.814   4.118   1.213 -0.0145  0.2789 -0.5593
  260MOL0     O34196   6.695   4.066   1.173  0.4863  0.8051  0.0569
  260MOL0     C34197   6.644   4.102   1.042  0.4074  0.4519 -0.5915
  260MOL0     C34198   6.542   3.997   1.005 -0.4042 -0.8352 -0.3790
  260MOL0     C34199   6.420   4.008   1.087  0.3686  0.4091 -0.2585
  260MOL0     C34200   6.329   3.876   1.067  0.5711 -0.7468  0.3355
  260MOL0     C34201   6.187   3.905   1.123 -0.0127 -0.2573  0.1524
  260MOL0     C34202   6.088   3.785   1.115 -0.1649 -0.2825 -0.1685
  260MOL0     C34203   6.100   3.696   1.237  0.1819  0.3008  0.0720
  260MOL0     C34204   6.000   3.580   1.237 -1.1834  0.0529  0.5978
  260MOL0     N34205   5.863   3.636   1.244  0.2516  0.5486 -0.2727
  260MOL0     C34206   5.820   3.727   1.341  0.4135  0.2997 -0.2992
  260MOL0     C34207   5.691   3.752   1.313  0.3974  0.4032 -0.3708
  260MOL0     C34208   5.610   3.833   1.398  0.0173 -0.7060  0.1071
  260MOL0     C34209   5.485   3.769   1.451 -0.0915  0.0704  0.2913
  260MOL0     C34210   5.364   3.776   1.361 -0.6984 -0.1095  0.8205
  260MOL0     C34211   5.237   3.746   1.443 -0.1178  0.1852  0.0836
  260MOL0     O34212   5.129   3.704   1.356 -0.4515  0.1514 -0.2979
  260MOL0     C34213   5.004   3.727   1.409  0.4484 -0.3357  0.0047
  260MOL0     C34214   4.909   3.783   1.328 -0.3880 -0.2599 -0.3750
  260MOL0     C34215   4.782   3.798   1.376 -0.4485  0.3167  0.1961
  260MOL0     C34216   4.738   3.759   1.506  0.0636 -0.0666  0.2046
  260MOL0     C34217   4.593   3.766   1.543 -0.4357  0.4712 -0.1758
  260MOL0     O34218   4.560   3.735   1.674 -0.5405  0.0678  0.3773
  260MOL0     C34219   4.434   3.764   1.719 -1.4052 -0.5433 -0.7547
  260MOL0     C34220   4.352   3.655   1.758  0.0184  0.3704  0.4722
  260MOL0     C34221   4.231   3.679   1.824 -0.3597 -0.0891  0.3620
  260MOL0     C34222   4.192   3.810   1.851 -0.6552  0.8343 -0.1226
  260MOL0     O34223   4.075   3.829   1.914  0.3196  0.5957 -1.1141
  260MOL0     C34224   3.952   3.783   1.854 -0.3732  0.1192 -0.4605
  260MOL0     C34225   3.860   3.754   1.975  0.2807 -0.3720 -0.1772
  260MOL0     C34226   3.713   3.782   1.953  0.1720 -1.0803 -0.5161
  260MOL0     C34227   3.638   3.675   1.881  0.2585  0.1748 -0.1370
  260MOL0     C34228   3.494   3.718   1.837  0.2601 -0.4856 -0.0965
  260MOL0     C34229   3.407   3.764   1.958  0.6354 -0.8931  0.9888
  260MOL0     C34230   3.268   3.791   1.907 -0.0477 -0.0390  0.0881
  260MOL0     C34231   3.190   3.818   2.037 -0.2676  0.0612 -0.7740
  260MOL0    Cl34232   3.008   3.791   2.024 -0.0096  0.2756 -0.4839
  260MOL0     C34233   4.280   3.916   1.818  0.5935  0.1879  0.6583
  260MOL0     C34234   4.398   3.897   1.748 -0.2844  0.2575 -0.2731
  260MOL0     O34235   4.511   3.812   1.456 -0.4024  0.3161 -0.2617
  260MOL0     C34236   4.843   3.721   1.599 -0.7364  0.8552  0.3495
  260MOL0     C34237   4.970   3.696   1.544 -0.0902 -0.5804  0.6325
  260MOL0     N34238   5.663   3.680   1.200 -0.2830 -0.0976 -0.2256
  260MOL0     N34239   5.763   3.619   1.151 -0.9916  0.0165 -0.6406
  260MOL0     C34240   6.876   4.221   1.143 -0.5887  0.0333  0.5807
  260MOL0     C34241   7.008   4.260   1.178  0.1778 -0.0875 -1.1439
  260MOL0     C34242   7.435   4.269   1.307  0.0338 -0.5345  0.4157
  260MOL0     C34243   7.429   4.408   1.329  0.2356  0.6846 -0.9589
  260MOL0     C34244   7.528   4.484   1.380 -0.6419  0.0399  0.3727
  260MOL0     C34245   7.655   4.418   1.396  0.4682  0.1092 -0.4518
  260MOL0     O34246   7.771   4.476   1.437 -0.3123 -0.6333  0.7425
  260MOL0     C34247   7.781   4.620   1.418 -0.5008  0.5051  0.3666
  260MOL0     C34248   7.926   4.662   1.454  0.3147  0.5961  0.1768
  260MOL0     C34249   7.944   4.805   1.499  0.2361 -0.0084  0.0846
  260MOL0     C34250   8.096   4.831   1.541  0.1641 -0.5642  0.4378
  260MOL0     C34251   8.124   4.763   1.661 -0.4466  0.3392  0.5571
  260MOL0     C34252   8.152   4.701   1.767  0.1462  0.1222 -0.3892
  260MOL0     C34253   7.670   4.291   1.356  0.7555  0.5450 -0.5299
  260MOL0     C34254   7.561   4.210   1.320  0.2916 -0.2072  0.6462
  260MOL0     H34255   7.081   4.030   1.419 -0.9633 -0.1344  0.5228
  260MOL0     H34256   6.835   3.976   1.378 -0.7850  0.7033 -0.6882
  260MOL0     H34257   6.720   4.087   0.965  0.6309 -1.0368 -0.1055
  260MOL0     H34258   6.603   4.203   1.030 -1.5133 -0.3602 -1.3432
  260MOL0     H34259   6.599   3.905   1.019  0.5258 -0.1231  0.7863
  260MOL0     H34260   6.510   4.008   0.901 -1.7340 -0.2739  0.0759
  260MOL0     H34261   6.371   4.100   1.054 -1.2458 -0.7036 -1.1001
  260MOL0     H34262   6.427   4.024   1.195 -0.8618  3.0104 -0.4981
  260MOL0     H34263   6.320   3.870   0.958  0.3314  1.1645  0.2187
  260MOL0     H34264   6.383   3.800   1.124  1.4366  1.0294  2.0501
  260MOL0     H34265   6.152   3.994   1.069  1.2555 -1.2476 -2.4594
  260MOL0     H34266   6.198   3.921   1.231 -0.8609 -1.2969  0.4049
  260MOL0     H34267   6.109   3.738   1.019 -1.5253 -0.7285 -0.2754
  260MOL0     H34268   5.986   3.826   1.122  0.3803  1.2243 -0.5621
  260MOL0     H34269   6.202   3.656   1.244  0.3219  0.4633 -0.8514
  260MOL0     H34270   6.077   3.756   1.325 -0.6301 -0.2643  0.2623
  260MOL0     H34271   6.017   3.525   1.330  0.8618 -1.3386 -0.5199
  260MOL0     H34272   6.018   3.519   1.149 -0.2588 -0.2211  0.9618
  260MOL0     H34273   5.871   3.749   1.435 -2.8713  1.3911  1.3806
  260MOL0     H34274   5.587   3.928   1.349  1.6331  0.6636  1.8165
  260MOL0     H34275   5.678   3.852   1.482  1.4518 -2.7010 -0.5276
  260MOL0     H34276   5.462   3.824   1.542 -2.2397  0.9780 -0.7413
  260MOL0     H34277   5.499   3.666   1.483 -1.8029 -0.6300 -1.0459
  260MOL0     H34278   5.345   3.870   1.308 -0.6398 -0.7104 -0.3174
  260MOL0     H34279   5.376   3.697   1.286 -0.3841 -0.3731  1.1465
  260MOL0     H34280   5.217   3.836   1.502 -0.9922  0.3520 -0.4518
  260MOL0     H34281   5.262   3.662   1.509  4.0698  0.9406 -0.2696
  260MOL0     H34282   4.947   3.816   1.232  1.9053 -1.4333  0.0559
  260MOL0     H34283   4.718   3.851   1.306 -0.5355 -1.0137 -0.7534
  260MOL0     H34284   4.380   3.552   1.738  1.0337  1.0244 -1.7865
  260MOL0     H34285   4.165   3.599   1.855  0.3022 -1.2630 -1.1198
  260MOL0     H34286   3.969   3.701   1.784 -0.3809 -0.7421  0.5366
  260MOL0     H34287   3.913   3.874   1.807 -0.3773 -0.3827 -1.4539
  260MOL0     H34288   3.894   3.809   2.063  0.2441 -0.9803  0.2196
  260MOL0     H34289   3.861   3.648   2.001 -1.0540 -0.4639 -0.4001
  260MOL0     H34290   3.701   3.884   1.917 -0.7584  0.2699  3.1202
  260MOL0     H34291   3.660   3.789   2.049  1.3612  1.9125  0.0352
  260MOL0     H34292   3.694   3.639   1.794  0.0900 -1.6823  0.4805
  260MOL0     H34293   3.627   3.596   1.956 -0.0042  0.6580  0.3347
  260MOL0     H34294   3.446   3.642   1.775 -0.2185 -1.3415  1.2569
  260MOL0     H34295   3.499   3.798   1.763  1.8137 -2.3400 -2.1355
  260MOL0     H34296   3.451   3.860   1.988  2.2362 -0.8966 -1.0480
  260MOL0     H34297   3.409   3.683   2.031  3.1166 -0.9619  0.9304
  260MOL0     H34298   3.253   3.868   1.831  1.6552 -1.3928 -1.7357
  260MOL0     H34299   3.231   3.703   1.854  0.7822  0.3244 -1.1403
  260MOL0     H34300   3.211   3.918   2.075 -1.2975 -0.5267  1.5022
  260MOL0     H34301   3.213   3.752   2.121 -2.8442  2.8648  2.4113
  260MOL0     H34302   4.256   4.021   1.833  0.0163  0.3409 -1.1761
  260MOL0     H34303   4.464   3.983   1.738 -1.1208  1.2226  1.8055
  260MOL0     H34304   4.824   3.718   1.705 -1.4154 -3.0250  0.2848
  260MOL0     H34305   5.043   3.643   1.605  2.0537 -1.2555 -2.2718
  260MOL0     H34306   6.821   4.271   1.064  0.3098 -1.3733 -1.0102
  260MOL0     H34307   7.044   4.343   1.117 -0.8653 -0.0583 -1.7393
  260MOL0     H34308   7.336   4.463   1.330  1.5544  3.1179 -2.3556
  260MOL0     H34309   7.527   4.592   1.384 -4.0703  0.0975  2.9874
  260MOL0     H34310   7.699   4.673   1.469 -1.5882  1.4169 -2.1734
  260MOL0     H34311   7.777   4.641   1.311  0.9972  0.5991  0.3018
  260MOL0     H34312   7.959   4.592   1.533 -0.5087  1.8863  1.7264
  260MOL0     H34313   7.994   4.662   1.369  1.9110  0.1454  1.3836
  260MOL0     H34314   7.880   4.830   1.584 -0.6555  0.4968 -0.7148
  260MOL0     H34315   7.919   4.864   1.411 -0.3399 -0.7743 -0.2778
  260MOL0     H34316   8.168   4.796   1.466  2.6030  1.1847  1.8638
  260MOL0     H34317   8.101   4.939   1.557 -0.1002 -0.8403  2.7760
  260MOL0     H34318   8.177   4.654   1.860 -0.0043 -2.8283 -1.7186
  260MOL0     H34319   7.768   4.245   1.354  0.1278 -0.9304  0.5176
  260MOL0     H34320   7.577   4.106   1.292  1.9151 -0.1795  1.3968
  261MOL0     O34321   7.828   9.555   1.441  0.3232  0.0306  1.0795
  261MOL0     C34322   7.864   9.669   1.426  0.1647 -0.1641 -0.2023
  261MOL0     O34323   7.779   9.772   1.423  0.1618  0.3350  0.7157
  261MOL0     C34324   7.643   9.752   1.417 -0.0233  0.1400 -0.8000
  261MOL0     C34325   7.553   9.782   1.518 -0.5643 -0.0682  0.1912
  261MOL0     C34326   7.415   9.759   1.495 -0.5124  0.3515 -0.7172
  261MOL0     C34327   7.363   9.718   1.377 -0.0908  1.2446  0.7021
  261MOL0     O34328   7.227   9.710   1.371  0.7305 -0.1883  0.8692
  261MOL0     C34329   7.167   9.617   1.279  0.1170 -0.5999 -0.1350
  261MOL0     C34330   7.145   9.475   1.338  0.0047 -0.6158 -0.0107
  261MOL0     C34331   7.026   9.461   1.435  1.0787  0.9894  0.0609
  261MOL0     C34332   7.019   9.313   1.480 -0.1490 -0.1832 -0.6285
  261MOL0     C34333   6.919   9.289   1.601  0.0204 -0.0544  0.4545
  261MOL0     C34334   6.931   9.147   1.660  0.6389  0.1554  0.5630
  261MOL0     C34335   6.829   9.132   1.777 -0.6649 -0.1085 -0.4525
  261MOL0     C34336   6.853   8.987   1.842  0.7138 -0.7346  0.4110
  261MOL0     N34337   6.777   8.878   1.772  0.1403  0.0435 -1.0222
  261MOL0     C34338   6.641   8.856   1.784  0.5132  0.5266 -0.1207
  261MOL0     C34339   6.613   8.778   1.676  0.7282 -0.0824 -0.2146
  261MOL0     C34340   6.471   8.743   1.623  0.1805  0.0116 -0.7869
  261MOL0     C34341   6.455   8.590   1.630  0.4702 -0.2730 -0.3173
  261MOL0     C34342   6.325   8.553   1.557 -0.2280 -0.1808 -0.3978
  261MOL0     C34343   6.197   8.592   1.632  0.3135  0.0207  0.4538
  261MOL0     O34344   6.174   8.500   1.747  0.0792 -0.3144  0.5901
  261MOL0     C34345   6.052   8.489   1.806 -0.1831 -0.5943 -0.0649
  261MOL0     C34346   6.034   8.398   1.904 -0.3758 -0.1058 -0.3102
  261MOL0     C34347   5.922   8.379   1.973  0.2479  0.7018  0.2589
  261MOL0     C34348   5.806   8.452   1.946 -0.0674 -0.4919  0.0509
  261MOL0     C34349   5.689   8.430   2.026  0.3856  0.4669 -0.3641
  261MOL0     O34350   5.590   8.517   2.002 -0.0837 -0.1628 -0.0761
  261MOL0     C34351   5.479   8.495   2.073  0.5151 -0.8235 -0.5924
  261MOL0     C34352   5.472   8.528   2.212 -0.2977  0.4273  0.4218
  261MOL0     C34353   5.354   8.511   2.286 -0.0621  0.8413  0.0181
  261MOL0     C34354   5.240   8.464   2.217  0.0591  0.9083 -0.5993
  261MOL0     O34355   5.124   8.489   2.292  0.5085  0.2896 -0.7898
  261MOL0     C34356   5.002   8.444   2.245  0.0235  0.5187  0.3038
  261MOL0     C34357   4.886   8.448   2.351  0.4307  0.1419 -0.9990
  261MOL0     C34358   4.757   8.388   2.300 -0.0048 -0.4712  0.1304
  261MOL0     C34359   4.702   8.449   2.172 -0.4556 -0.1365 -0.2487
  261MOL0     C34360   4.559   8.426   2.142 -0.0348 -0.3608  0.1465
  261MOL0     C34361   4.456   8.506   2.228  0.7321  0.3473  1.0197
  261MOL0     C34362   4.467   8.656   2.207 -0.0587 -0.4372  0.4847
  261MOL0     C34363   4.347   8.729   2.270  0.5801 -0.8572 -0.1782
  261MOL0    Cl34364   4.188   8.696   2.191 -0.1538  0.0334  0.0063
  261MOL0     C34365   5.235   8.443   2.073 -0.4279 -0.4492 -0.3166
  261MOL0     C34366   5.364   8.461   2.005  0.8666  0.3045 -0.4252
  261MOL0     O34367   5.693   8.334   2.105  0.0650  0.6512  0.2210
  261MOL0     C34368   5.813   8.544   1.838  0.1165  0.4987  0.9335
  261MOL0     C34369   5.937   8.557   1.767 -0.1627 -1.3417 -0.0458
  261MOL0     N34370   6.728   8.746   1.610 -0.3669  0.0204 -0.4856
  261MOL0     N34371   6.830   8.803   1.668  0.2501 -0.0503  0.5889
  261MOL0     C34372   7.455   9.687   1.273  0.2717 -0.0319  0.1241
  261MOL0     C34373   7.591   9.696   1.297  0.3199  0.6155  0.1069
  261MOL0     C34374   8.000   9.690   1.392  0.2116  0.6131 -0.0307
  261MOL0     C34375   8.104   9.592   1.412 -0.3455 -1.0109 -0.3149
  261MOL0     C34376   8.244   9.615   1.383  0.2912  0.3586  0.9455
  261MOL0     C34377   8.278   9.748   1.350 -0.8827 -0.5465 -0.3328
  261MOL0     O34378   8.405   9.801   1.351 -0.3341 -0.0508 -0.3960
  261MOL0     C34379   8.498   9.722   1.427 -0.2639  0.5649  0.7372
  261MOL0     C34380   8.633   9.800   1.447  0.0215  0.4394  0.5758
  261MOL0     C34381   8.693   9.848   1.318  0.2749  0.4379  0.3009
  261MOL0     C34382   8.816   9.941   1.348 -0.0090 -1.0837  0.6659
  261MOL0     C34383   8.923   9.877   1.421  0.7141  0.6023 -0.3896
  261MOL0     C34384   8.999   9.828   1.499 -0.9444 -0.1102 -0.6509
  261MOL0     C34385   8.183   9.846   1.328 -0.5872  0.1152  0.7206
  261MOL0     C34386   8.042   9.816   1.342  0.0514  0.0362 -0.6416
  261MOL0     H34387   7.571   9.828   1.615  0.2665 -2.3437  1.1773
  261MOL0     H34388   7.346   9.770   1.578  1.5686 -1.2115  1.3459
  261MOL0     H34389   7.231   9.600   1.193 -1.8090  0.7086 -1.9255
  261MOL0     H34390   7.071   9.656   1.244  0.4057  2.3317  1.9275
  261MOL0     H34391   7.239   9.447   1.387  0.8140  0.9241 -0.6181
  261MOL0     H34392   7.115   9.409   1.256  0.4370 -1.1828  0.2814
  261MOL0     H34393   6.930   9.495   1.395  0.5180 -1.1223 -0.5046
  261MOL0     H34394   7.044   9.518   1.527  2.7445 -1.2999  1.2409
  261MOL0     H34395   6.985   9.255   1.394 -1.2933  1.0480 -1.0568
  261MOL0     H34396   7.119   9.275   1.503  0.5232  0.1418 -2.8240
  261MOL0     H34397   6.812   9.306   1.580  0.6881  3.1557 -1.0624
  261MOL0     H34398   6.938   9.357   1.684 -0.1743  0.0053  0.4507
  261MOL0     H34399   7.036   9.148   1.692  0.8494  2.7008  0.0624
  261MOL0     H34400   6.916   9.072   1.583  1.5766 -1.9430  2.3138
  261MOL0     H34401   6.850   9.212   1.848  2.1390 -2.1087  1.1718
  261MOL0     H34402   6.727   9.138   1.738 -0.4927  1.3169 -0.7104
  261MOL0     H34403   6.819   9.001   1.945  0.7087 -1.3564  0.5021
  261MOL0     H34404   6.961   8.971   1.838  1.5464  3.9432 -1.8609
  261MOL0     H34405   6.573   8.898   1.857 -2.0384 -0.7730 -1.6185
  261MOL0     H34406   6.464   8.768   1.517 -0.9904  1.7431 -0.3486
  261MOL0     H34407   6.398   8.786   1.693 -0.5337  0.8168 -1.9946
  261MOL0     H34408   6.445   8.567   1.736  1.3340  2.5430  0.4614
  261MOL0     H34409   6.544   8.536   1.595  1.1052 -0.1801  1.0865
  261MOL0     H34410   6.330   8.578   1.450  0.2943 -1.6760 -0.7447
  261MOL0     H34411   6.320   8.445   1.543 -0.2254 -0.4929  1.7189
  261MOL0     H34412   6.117   8.578   1.558  0.9994 -1.9678  0.0157
  261MOL0     H34413   6.197   8.696   1.665 -0.6341 -0.7073  3.0167
  261MOL0     H34414   6.121   8.338   1.927  0.4723  1.4892  0.7998
  261MOL0     H34415   5.919   8.299   2.046 -1.0772  0.8214  0.3536
  261MOL0     H34416   5.559   8.566   2.264  1.4088 -2.8686  0.1995
  261MOL0     H34417   5.335   8.523   2.392 -1.3147 -1.1038  0.0622
  261MOL0     H34418   5.016   8.345   2.200 -1.4383  0.7487 -0.7414
  261MOL0     H34419   4.967   8.514   2.169  0.9347  0.5752 -0.0692
  261MOL0     H34420   4.869   8.553   2.373  0.8223 -0.1862  1.0950
  261MOL0     H34421   4.896   8.403   2.450 -1.6979  1.6876 -0.0208
  261MOL0     H34422   4.688   8.396   2.385 -0.8406 -3.3747 -0.1592
  261MOL0     H34423   4.765   8.280   2.282 -1.1314 -0.6788  0.7445
  261MOL0     H34424   4.723   8.556   2.179  2.8073 -0.6516 -0.3308
  261MOL0     H34425   4.758   8.418   2.083 -0.6500 -0.2804 -0.3211
  261MOL0     H34426   4.525   8.322   2.146  0.0911 -0.3740  2.2641
  261MOL0     H34427   4.548   8.468   2.042 -3.0679  0.2632  0.6490
  261MOL0     H34428   4.463   8.475   2.333  2.1992 -1.4683  0.4432
  261MOL0     H34429   4.360   8.472   2.189  0.6365 -1.0218  2.3425
  261MOL0     H34430   4.554   8.697   2.258  0.1635  0.8505 -0.8566
  261MOL0     H34431   4.475   8.678   2.100 -1.5236 -1.0484  0.2230
  261MOL0     H34432   4.351   8.838   2.266 -2.8282 -0.5543  1.1748
  261MOL0     H34433   4.336   8.703   2.376  2.0783  1.6082  0.6581
  261MOL0     H34434   5.144   8.424   2.017 -0.2790  1.7163 -1.3663
  261MOL0     H34435   5.378   8.441   1.899  1.5184 -0.4661 -0.2037
  261MOL0     H34436   5.723   8.593   1.803 -0.8630 -1.1257  1.0746
  261MOL0     H34437   5.942   8.619   1.677  0.8533 -0.8193  0.3529
  261MOL0     H34438   7.418   9.661   1.175 -3.3594 -1.4944  1.6927
  261MOL0     H34439   7.664   9.682   1.218  0.2395 -1.8972  0.4039
  261MOL0     H34440   8.088   9.491   1.448  0.6033 -0.0440  3.2030
  261MOL0     H34441   8.323   9.545   1.406 -0.7473 -0.0965  3.4643
  261MOL0     H34442   8.533   9.633   1.374  4.3181  2.2928  0.3911
  261MOL0     H34443   8.455   9.703   1.526 -3.0241 -0.4441 -0.5758
  261MOL0     H34444   8.616   9.889   1.508  0.9818  1.0732 -0.0411
  261MOL0     H34445   8.703   9.739   1.504 -0.7859 -1.7761 -0.7045
  261MOL0     H34446   8.622   9.908   1.259  0.3112  1.2440  1.0531
  261MOL0     H34447   8.728   9.764   1.258  1.4856 -1.8285  3.8797
  261MOL0     H34448   8.856   9.976   1.252  1.2564 -0.0315  1.5321
  261MOL0     H34449   8.775  10.027   1.402 -0.9990 -1.3315  0.3219
  261MOL0     H34450   9.084   9.795   1.555 -1.7271 -0.4268  0.3756
  261MOL0     H34451   8.232   9.940   1.308  3.3027 -1.9522 -0.5460
  261MOL0     H34452   7.967   9.889   1.316  0.1304  0.8719  1.3464
  262MOL0     O34453  10.933   8.872   7.417 -0.2096 -0.1700  0.2911
  262MOL0     C34454  11.032   8.937   7.447 -0.5233 -0.3614 -0.0309
  262MOL0     O34455  11.043   9.075   7.445 -0.6041  0.1073  0.1870
  262MOL0     C34456  10.934   9.136   7.393 -0.4533 -0.6470 -0.1082
  262MOL0     C34457  10.813   9.144   7.465 -0.5698 -0.5286  0.1757
  262MOL0     C34458  10.709   9.233   7.423  0.2889  0.1057 -0.0717
  262MOL0     C34459  10.723   9.296   7.291  0.3532  0.0309  0.6126
  262MOL0     O34460  10.626   9.356   7.215 -0.3658  0.2712  0.1538
  262MOL0     C34461  10.495   9.362   7.269  0.5777 -0.6493  0.8397
  262MOL0     C34462  10.425   9.238   7.227  0.7568  0.3972  0.0009
  262MOL0     C34463  10.280   9.232   7.276  0.0062  0.0774  0.9262
  262MOL0     C34464  10.184   9.330   7.197 -0.2807  0.0600 -0.1586
  262MOL0     C34465  10.036   9.295   7.215 -0.4358  0.7807 -0.2120
  262MOL0     C34466  10.000   9.150   7.179 -1.1656 -0.6154 -0.7970
  262MOL0     C34467   9.850   9.132   7.171  0.7169  0.1337 -0.1353
  262MOL0     C34468   9.792   9.151   7.035  0.1770 -0.6140  0.0056
  262MOL0     N34469   9.643   9.164   7.034 -0.3262  0.0164 -0.5009
  262MOL0     C34470   9.564   9.066   6.976  0.1519 -0.0853 -0.7764
  262MOL0     C34471   9.443   9.125   6.982  1.0004 -0.3792 -0.3857
  262MOL0     C34472   9.308   9.065   6.936 -0.5915  1.2746  0.2787
  262MOL0     C34473   9.238   9.153   6.837 -0.6332  0.9735 -1.2090
  262MOL0     C34474   9.106   9.082   6.797  0.2042  0.6647 -0.2019
  262MOL0     C34475   8.983   9.117   6.878  0.2788 -0.1754 -0.0439
  262MOL0     O34476   8.998   9.088   7.020 -0.4468 -0.0415 -0.2610
  262MOL0     C34477   8.871   9.091   7.078  0.4013 -0.1967 -0.1699
  262MOL0     C34478   8.820   8.974   7.143 -0.3242  0.0090 -0.0969
  262MOL0     C34479   8.695   8.973   7.198  0.1064  0.0280 -0.1884
  262MOL0     C34480   8.610   9.091   7.192  0.6173 -0.3978  0.1320
  262MOL0     C34481   8.472   9.090   7.243 -0.3352 -0.0947 -0.9899
  262MOL0     O34482   8.430   8.975   7.312  0.1324  0.4485 -0.9679
  262MOL0     C34483   8.312   8.977   7.379 -0.2030  0.3737 -0.3442
  262MOL0     C34484   8.216   8.871   7.359  0.2296 -0.1233 -0.2076
  262MOL0     C34485   8.090   8.878   7.434 -0.1023 -0.8347 -0.0675
  262MOL0     C34486   8.055   8.984   7.518 -0.7487 -0.4764 -0.8818
  262MOL0     O34487   7.929   8.975   7.572  0.4022  0.3258 -0.1547
  262MOL0     C34488   7.910   9.036   7.700  0.3308 -1.0006 -0.3423
  262MOL0     C34489   7.766   9.071   7.718 -0.3377  0.0900 -0.4577
  262MOL0     C34490   7.687   8.940   7.721 -0.4759  0.7626 -0.3595
  262MOL0     C34491   7.534   8.962   7.696 -0.5043  0.0247 -0.5538
  262MOL0     C34492   7.453   8.837   7.671  0.0960  0.4945 -1.0447
  262MOL0     C34493   7.307   8.878   7.642 -0.0375  0.0606 -0.6242
  262MOL0     C34494   7.189   8.773   7.641  0.1152 -0.6530  0.8002
  262MOL0     C34495   7.185   8.697   7.512  0.2568 -0.3299  0.1620
  262MOL0    Cl34496   7.133   8.818   7.389 -0.1392 -0.1829  0.0570
  262MOL0     C34497   8.156   9.088   7.531  0.2883  0.4099  0.5398
  262MOL0     C34498   8.279   9.081   7.471  0.0208 -0.0509  0.5775
  262MOL0     O34499   8.410   9.192   7.219 -0.3153  0.1873 -0.0813
  262MOL0     C34500   8.670   9.208   7.141  0.3530 -0.7609 -0.2886
  262MOL0     C34501   8.800   9.207   7.088  1.1513  0.0998 -0.1452
  262MOL0     N34502   9.448   9.259   7.028 -0.0402  0.1619 -0.2475
  262MOL0     N34503   9.574   9.278   7.054 -0.1078 -0.5806  0.0742
  262MOL0     C34504  10.849   9.283   7.233 -0.5341 -0.7829  0.8458
  262MOL0     C34505  10.951   9.200   7.275 -0.4557  0.0088  0.3501
  262MOL0     C34506  11.154   8.862   7.476  0.8033  0.3082 -0.5317
  262MOL0     C34507  11.153   8.721   7.476  0.0871  0.6901 -0.1163
  262MOL0     C34508  11.267   8.643   7.516 -0.3607  0.4534  0.1837
  262MOL0     C34509  11.382   8.706   7.545  0.2560 -0.1132  0.1117
  262MOL0     O34510  11.495   8.626   7.563  0.9746 -0.7826  0.2832
  262MOL0     C34511  11.579   8.659   7.676  0.1276 -0.7882  0.0861
  262MOL0     C34512  11.671   8.550   7.711 -0.4372  1.3518 -0.2171
  262MOL0     C34513  11.733   8.466   7.595  0.0886  0.2912  0.1970
  262MOL0     C34514  11.822   8.347   7.635  0.0284  0.3152 -0.5947
  262MOL0     C34515  11.943   8.384   7.708 -0.0615  1.2652 -0.1805
  262MOL0     C34516  12.053   8.416   7.756  0.4105  0.5144 -0.5073
  262MOL0     C34517  11.390   8.843   7.535 -0.0501 -0.6336  0.3631
  262MOL0     C34518  11.281   8.926   7.505 -0.1134 -0.6802 -0.3183
  262MOL0     H34519  10.813   9.080   7.553 -1.4624 -0.5381  0.1817
  262MOL0     H34520  10.622   9.246   7.486 -0.7571 -3.5800 -0.5583
  262MOL0     H34521  10.442   9.447   7.224  1.2300 -0.1092  1.0781
  262MOL0     H34522  10.496   9.391   7.374  3.3288  1.0849  0.4423
  262MOL0     H34523  10.478   9.159   7.282 -0.1821  1.8162  3.1913
  262MOL0     H34524  10.435   9.227   7.119 -0.8605  1.2663 -0.2684
  262MOL0     H34525  10.280   9.251   7.384 -1.6086 -0.4819  1.0464
  262MOL0     H34526  10.265   9.125   7.258  3.0845  0.1957 -3.9527
  262MOL0     H34527  10.197   9.433   7.231 -2.1860  0.2521  0.0932
  262MOL0     H34528  10.213   9.330   7.091  3.8963 -0.9330  0.8234
  262MOL0     H34529   9.989   9.368   7.149 -0.5157  1.3676  0.4872
  262MOL0     H34530  10.005   9.320   7.316 -2.7560 -0.9495 -0.4197
  262MOL0     H34531  10.049   9.084   7.251  0.6815  0.6015 -0.8543
  262MOL0     H34532  10.043   9.128   7.081  2.0876  0.4919  0.2426
  262MOL0     H34533   9.826   9.029   7.200 -1.6024  0.5626 -0.2987
  262MOL0     H34534   9.806   9.202   7.244 -0.2481 -0.7469  0.1578
  262MOL0     H34535   9.820   9.073   6.965  0.7197 -0.4731  0.0608
  262MOL0     H34536   9.825   9.250   7.003 -0.4781 -0.5349 -0.4604
  262MOL0     H34537   9.576   8.963   6.945  0.8128  0.0269 -0.9078
  262MOL0     H34538   9.240   9.048   7.020 -2.6821 -4.4715 -2.0587
  262MOL0     H34539   9.313   8.965   6.890 -0.2904  1.2261  0.4122
  262MOL0     H34540   9.289   9.170   6.742 -0.5188  3.2437 -0.7985
  262MOL0     H34541   9.209   9.252   6.875 -0.5823  0.1973  0.9849
  262MOL0     H34542   9.071   9.111   6.698 -3.1888 -1.9263  0.0736
  262MOL0     H34543   9.118   8.975   6.778  0.6074  1.1933 -3.4829
  262MOL0     H34544   8.901   9.064   6.828 -0.0016  0.9649 -0.8296
  262MOL0     H34545   8.964   9.223   6.860 -3.2217 -0.2344  2.3335
  262MOL0     H34546   8.880   8.884   7.142  0.4438  0.5060 -0.6553
  262MOL0     H34547   8.649   8.882   7.235  1.4613 -0.7920 -0.4431
  262MOL0     H34548   8.236   8.779   7.305 -0.2852 -0.4683  0.1783
  262MOL0     H34549   8.018   8.801   7.408 -0.0287 -1.8587  2.4670
  262MOL0     H34550   7.972   9.126   7.708  1.4115 -1.7610  0.0708
  262MOL0     H34551   7.945   8.973   7.782  1.4613  0.9830  0.7732
  262MOL0     H34552   7.749   9.138   7.632  0.6597 -0.6637 -1.2673
  262MOL0     H34553   7.759   9.115   7.818 -1.5038 -2.3902  0.6410
  262MOL0     H34554   7.711   8.911   7.824  2.4114  1.6383 -0.6901
  262MOL0     H34555   7.720   8.860   7.654 -2.2625  0.0845 -0.4703
  262MOL0     H34556   7.496   9.024   7.778  0.5264  0.2974 -0.2674
  262MOL0     H34557   7.527   9.018   7.602  2.0055  0.9904 -0.2608
  262MOL0     H34558   7.460   8.769   7.757  3.0391 -0.3212 -1.8483
  262MOL0     H34559   7.502   8.783   7.589 -0.3189  0.9771 -1.6168
  262MOL0     H34560   7.282   8.949   7.562  1.2161  1.7440  0.4163
  262MOL0     H34561   7.291   8.945   7.726  0.8579  1.3430 -1.4304
  262MOL0     H34562   7.207   8.701   7.722 -0.1454  0.1792  1.6108
  262MOL0     H34563   7.096   8.825   7.664  0.7078  1.0722 -0.5011
  262MOL0     H34564   7.114   8.614   7.515  0.7147 -0.8404 -1.7858
  262MOL0     H34565   7.286   8.662   7.488  0.9462  2.9677 -2.4390
  262MOL0     H34566   8.133   9.170   7.599 -2.1115 -0.2097  0.5639
  262MOL0     H34567   8.335   9.173   7.485  0.8099 -0.3434 -0.5264
  262MOL0     H34568   8.618   9.303   7.147  2.2739  0.2962  0.2927
  262MOL0     H34569   8.851   9.300   7.067  1.9979 -0.3699 -0.2349
  262MOL0     H34570  10.845   9.324   7.132 -1.0868 -2.3283  0.2137
  262MOL0     H34571  11.036   9.189   7.209 -1.3623  0.2925 -0.9079
  262MOL0     H34572  11.061   8.664   7.475  1.9345 -2.5471  0.5885
  262MOL0     H34573  11.272   8.535   7.515  1.1671  0.4959 -0.0822
  262MOL0     H34574  11.514   8.688   7.758 -0.5520 -0.4847 -0.5527
  262MOL0     H34575  11.643   8.745   7.652 -1.4094  0.6329  0.8684
  262MOL0     H34576  11.760   8.580   7.767  2.6307 -2.6819 -2.3709
  262MOL0     H34577  11.617   8.485   7.780 -0.8013  0.2220 -1.5207
  262MOL0     H34578  11.794   8.531   7.532  0.2607  1.2560  1.3366
  262MOL0     H34579  11.655   8.426   7.529  0.7783 -0.6100 -0.0985
  262MOL0     H34580  11.768   8.269   7.690  1.2100  0.3529  0.6553
  262MOL0     H34581  11.861   8.308   7.541 -2.4557  1.6167 -2.3049
  262MOL0     H34582  12.148   8.432   7.801 -0.3001 -0.9101  1.6730
  262MOL0     H34583  11.485   8.895   7.546 -0.4961  0.5233 -1.0271
  262MOL0     H34584  11.280   9.034   7.498  1.7012 -0.4381  2.0131
  263MOL0     O34585   9.934   5.810   0.631 -0.5881  0.2276 -0.7438
  263MOL0     C34586   9.993   5.828   0.532  0.6061  0.0361  0.4608
  263MOL0     O34587  10.006   5.743   0.428 -0.0642 -0.1970 -0.6338
  263MOL0     C34588   9.935   5.628   0.421 -0.7525  0.7847  0.2795
  263MOL0     C34589  10.004   5.510   0.390 -0.0634 -0.8875  0.2705
  263MOL0     C34590   9.932   5.389   0.388  0.7228 -0.1762 -0.8056
  263MOL0     C34591   9.795   5.383   0.412  1.0467  0.0920  0.3610
  263MOL0     O34592   9.722   5.266   0.406  0.6250 -0.3316 -0.4866
  263MOL0     C34593   9.724   5.179   0.302  0.6174  0.1228 -0.0893
  263MOL0     C34594   9.624   5.070   0.336  0.2627  0.5215 -0.1198
  263MOL0     C34595   9.488   5.113   0.275  1.4175  0.7119 -0.3379
  263MOL0     C34596   9.401   4.989   0.237 -0.3297 -0.9977 -0.3859
  263MOL0     C34597   9.265   5.040   0.182 -0.8669 -0.2643  0.3201
  263MOL0     C34598   9.185   4.918   0.155  0.5952  0.6514  0.1989
  263MOL0     C34599   9.039   4.950   0.113 -0.3083 -0.0715 -0.8692
  263MOL0     C34600   8.963   4.828   0.051  1.3491  0.9904 -0.0943
  263MOL0     N34601   8.821   4.853   0.018 -0.3189 -0.6902 -0.0233
  263MOL0     C34602   8.719   4.892   0.110 -0.8310 -1.2133 -0.9396
  263MOL0     C34603   8.605   4.911   0.051  0.3340  0.4559  0.0053
  263MOL0     C34604   8.469   4.952   0.106 -0.0896  0.1138  0.0371
  263MOL0     C34605   8.368   4.965  -0.002  0.1403  0.1694  0.6336
  263MOL0     C34606   8.230   4.978   0.060 -0.2151  0.0942  0.0848
  263MOL0     C34607   8.132   5.015  -0.049 -0.7275  0.3216 -0.1100
  263MOL0     O34608   8.000   5.014   0.008 -0.0057 -0.0777 -0.1311
  263MOL0     C34609   7.903   5.049  -0.084  0.8561  0.6668  0.0430
  263MOL0     C34610   7.793   5.103  -0.027  0.5745  0.4056 -0.4206
  263MOL0     C34611   7.679   5.136  -0.104  0.3941  0.0645  0.1975
  263MOL0     C34612   7.681   5.098  -0.244  0.7916 -0.7220  0.4242
  263MOL0     C34613   7.558   5.118  -0.326  0.2460  0.6383  1.0166
  263MOL0     O34614   7.462   5.208  -0.275 -0.1574 -0.3339 -0.6535
  263MOL0     C34615   7.339   5.223  -0.335  0.3190 -0.3284 -0.5580
  263MOL0     C34616   7.296   5.352  -0.376  0.5814 -0.3511 -0.0684
  263MOL0     C34617   7.180   5.366  -0.457 -0.1461  0.1543 -0.2698
  263MOL0     C34618   7.097   5.258  -0.487 -0.0539  0.2199 -0.4750
  263MOL0     O34619   6.974   5.276  -0.555 -0.7473 -0.8264 -0.3969
  263MOL0     C34620   6.868   5.180  -0.552 -0.4156 -0.2699  0.4667
  263MOL0     C34621   6.793   5.181  -0.422 -0.9297  0.3182 -0.4516
  263MOL0     C34622   6.731   5.042  -0.389  0.0203 -0.7882  0.5405
  263MOL0     C34623   6.626   4.993  -0.485 -0.3196 -0.5285 -0.0127
  263MOL0     C34624   6.499   5.093  -0.486  0.2971  0.6056  0.0234
  263MOL0     C34625   6.396   5.034  -0.580 -0.1602  0.1419 -0.2841
  263MOL0     C34626   6.271   5.123  -0.593 -0.8037  0.7686  0.2628
  263MOL0     C34627   6.186   5.141  -0.464 -0.3810  0.1661  0.5391
  263MOL0    Cl34628   6.027   5.212  -0.500  0.3396 -0.0529 -0.2889
  263MOL0     C34629   7.137   5.130  -0.437  0.6293 -0.6186  0.0883
  263MOL0     C34630   7.254   5.111  -0.364  0.0661 -0.4522 -0.1575
  263MOL0     O34631   7.554   5.060  -0.437  0.4166  0.1546 -0.2857
  263MOL0     C34632   7.793   5.039  -0.296 -0.0092  0.0669  0.3865
  263MOL0     C34633   7.910   5.019  -0.225 -0.1384 -0.3268 -0.2186
  263MOL0     N34634   8.636   4.886  -0.085 -0.3730 -0.0013  0.0851
  263MOL0     N34635   8.771   4.874  -0.104  0.4881 -0.0757  0.3879
  263MOL0     C34636   9.723   5.506   0.437 -0.4971  0.9753 -0.1642
  263MOL0     C34637   9.794   5.626   0.445  0.2904  0.3779  0.5258
  263MOL0     C34638  10.067   5.944   0.515  0.7818 -0.5539 -0.7226
  263MOL0     C34639  10.025   6.058   0.585 -0.0671 -0.0160  0.3186
  263MOL0     C34640  10.087   6.183   0.584 -1.0565 -0.5786  1.1410
  263MOL0     C34641  10.194   6.198   0.499 -0.0823  0.6141  0.0278
  263MOL0     O34642  10.262   6.314   0.480  0.5638 -0.0411 -0.6610
  263MOL0     C34643  10.371   6.326   0.576  0.2066 -0.2997  0.6650
  263MOL0     C34644  10.497   6.375   0.500  0.2831 -0.3073  0.2819
  263MOL0     C34645  10.511   6.536   0.470 -0.1697  0.2148  0.1424
  263MOL0     C34646  10.624   6.565   0.377 -0.8351 -0.2730  0.3037
  263MOL0     C34647  10.756   6.519   0.427  0.2394  0.0029  0.6784
  263MOL0     C34648  10.867   6.499   0.462  0.2295  0.7218  0.4293
  263MOL0     C34649  10.240   6.090   0.423  0.1803  0.1140 -0.9657
  263MOL0     C34650  10.180   5.962   0.431 -0.0872 -0.5724  0.2809
  263MOL0     H34651  10.112   5.507   0.379 -0.2640 -0.5977 -3.0075
  263MOL0     H34652   9.976   5.295   0.356  2.3072  1.0564 -2.4641
  263MOL0     H34653   9.822   5.131   0.298  0.3261 -0.4751 -0.1658
  263MOL0     H34654   9.701   5.220   0.203 -0.4337 -0.0541  0.0642
  263MOL0     H34655   9.630   5.034   0.440  1.4172  0.4449 -0.1957
  263MOL0     H34656   9.664   4.987   0.278  2.7391 -0.9156  3.2647
  263MOL0     H34657   9.500   5.172   0.184  2.3761  0.0823 -0.6317
  263MOL0     H34658   9.444   5.183   0.348 -0.0156 -0.8930  0.4002
  263MOL0     H34659   9.464   4.930   0.169  1.6501  0.1891  0.3270
  263MOL0     H34660   9.382   4.926   0.325  1.1044 -3.8337 -1.9808
  263MOL0     H34661   9.283   5.110   0.099 -1.4274 -1.0039 -0.4352
  263MOL0     H34662   9.213   5.096   0.260 -1.9700 -0.1029 -0.5050
  263MOL0     H34663   9.193   4.853   0.243  0.1843  0.2400 -0.0588
  263MOL0     H34664   9.229   4.853   0.079 -0.9293 -1.3340  0.8947
  263MOL0     H34665   8.978   4.981   0.198  0.1795  0.3882 -0.6767
  263MOL0     H34666   9.033   5.029   0.037 -0.7440 -0.2571 -1.0289
  263MOL0     H34667   8.957   4.742   0.119 -2.1004  0.1154 -1.3559
  263MOL0     H34668   9.006   4.796  -0.044 -1.0840 -0.1891 -0.8760
  263MOL0     H34669   8.735   4.910   0.216 -1.2189  1.8645 -1.3018
  263MOL0     H34670   8.477   5.039   0.170 -0.7590  0.7600 -0.7342
  263MOL0     H34671   8.436   4.873   0.174 -0.0060 -1.0358 -1.2039
  263MOL0     H34672   8.365   4.880  -0.071 -0.3802  0.1945  0.6207
  263MOL0     H34673   8.391   5.056  -0.057  0.2940 -0.0973  0.2493
  263MOL0     H34674   8.198   4.884   0.107  0.1059  0.1226  0.3625
  263MOL0     H34675   8.230   5.055   0.137  1.1664  2.1052 -1.7987
  263MOL0     H34676   8.137   4.947  -0.134 -0.9565  3.3758 -2.7866
  263MOL0     H34677   8.161   5.116  -0.080 -2.1280  1.5455  2.2499
  263MOL0     H34678   7.794   5.115   0.081  1.1648 -0.2060 -0.3533
  263MOL0     H34679   7.585   5.174  -0.065 -1.2088  0.6092 -3.7477
  263MOL0     H34680   7.345   5.448  -0.370  0.3096  0.0018 -2.5314
  263MOL0     H34681   7.171   5.469  -0.489  1.3506  1.2175  2.4423
  263MOL0     H34682   6.917   5.085  -0.579 -0.6412  0.2621 -2.1076
  263MOL0     H34683   6.801   5.199  -0.637 -0.2554 -0.9717  0.1708
  263MOL0     H34684   6.725   5.267  -0.424  1.9228  2.7868  0.7247
  263MOL0     H34685   6.867   5.210  -0.347 -1.9019  0.5657  0.4301
  263MOL0     H34686   6.674   5.056  -0.296 -1.1173 -2.3150  0.1090
  263MOL0     H34687   6.809   4.968  -0.373 -0.1544 -0.9760  0.5254
  263MOL0     H34688   6.672   4.980  -0.584 -0.0183  1.0516 -0.1132
  263MOL0     H34689   6.592   4.894  -0.454 -1.3231  0.4456  2.2014
  263MOL0     H34690   6.519   5.197  -0.515 -0.5264  0.7552 -0.0322
  263MOL0     H34691   6.465   5.086  -0.382 -0.2754  3.1110  0.0817
  263MOL0     H34692   6.371   4.934  -0.544 -0.0851  0.1099 -0.3209
  263MOL0     H34693   6.444   5.032  -0.678 -0.9234  2.0083 -0.7454
  263MOL0     H34694   6.295   5.214  -0.648  4.1411 -0.3640  0.0722
  263MOL0     H34695   6.215   5.070  -0.670  1.6309 -0.0712 -1.0459
  263MOL0     H34696   6.234   5.202  -0.388 -0.2975 -2.6119  2.8931
  263MOL0     H34697   6.176   5.047  -0.410  2.8318 -1.9532 -2.1511
  263MOL0     H34698   7.080   5.040  -0.459 -0.4137 -0.3125  1.3906
  263MOL0     H34699   7.298   5.013  -0.348  0.6855 -0.3000 -0.8319
  263MOL0     H34700   7.791   5.008  -0.400  0.0611  2.7856 -0.4994
  263MOL0     H34701   7.996   4.978  -0.277  1.1674  0.7336  1.0260
  263MOL0     H34702   9.619   5.495   0.467  0.0562 -3.8153  0.7167
  263MOL0     H34703   9.741   5.706   0.495  1.7318  1.2689  0.6938
  263MOL0     H34704   9.939   6.054   0.651 -0.7195 -1.5952 -0.5429
  263MOL0     H34705  10.048   6.260   0.650 -1.9722  0.5937 -0.6760
  263MOL0     H34706  10.391   6.230   0.625  0.7826  0.4647  1.9690
  263MOL0     H34707  10.342   6.390   0.660 -1.7259  1.8428 -1.4797
  263MOL0     H34708  10.582   6.348   0.563  1.7882  3.4092  0.0768
  263MOL0     H34709  10.507   6.317   0.408  0.1252 -1.8390  1.1974
  263MOL0     H34710  10.528   6.591   0.563  0.2039  2.3546 -1.1166
  263MOL0     H34711  10.417   6.581   0.438  1.5663  3.5940 -0.7034
  263MOL0     H34712  10.603   6.517   0.281  0.1212  0.2640 -0.1890
  263MOL0     H34713  10.629   6.671   0.353 -0.3430 -0.5372 -0.8362
  263MOL0     H34714  10.968   6.478   0.489 -0.4059 -0.1712  2.3219
  263MOL0     H34715  10.322   6.104   0.353 -1.6167  2.5645 -2.7324
  263MOL0     H34716  10.203   5.881   0.363 -3.7461 -1.5786  0.0255
  264MOL0     O34717   1.891  11.178   6.247 -0.2328  0.2775  0.3516
  264MOL0     C34718   1.860  11.088   6.165  1.1852 -0.8977  0.7861
  264MOL0     O34719   1.742  11.021   6.150  1.0616  1.1758 -0.1265
  264MOL0     C34720   1.652  11.001   6.253  0.0631 -0.0995  0.4788
  264MOL0     C34721   1.528  10.954   6.229  0.6003  0.6546 -0.3518
  264MOL0     C34722   1.429  10.929   6.322 -0.0591  0.3010 -0.3110
  264MOL0     C34723   1.460  10.942   6.456 -0.0871 -0.8059  0.1214
  264MOL0     O34724   1.384  10.902   6.554 -0.6932 -0.0425 -0.7869
  264MOL0     C34725   1.247  10.861   6.532 -0.7616 -0.1497  0.7860
  264MOL0     C34726   1.158  10.834   6.655 -0.9667 -0.0110  0.3327
  264MOL0     C34727   1.022  10.763   6.631 -0.5749  0.1801  0.7184
  264MOL0     C34728   0.961  10.717   6.764  0.3917  0.2827  0.3963
  264MOL0     C34729   0.828  10.639   6.760 -1.0014 -0.0117  0.1999
  264MOL0     C34730   0.727  10.722   6.680 -0.4732  0.5134 -0.7875
  264MOL0     C34731   0.586  10.669   6.705  0.5271 -0.1302 -0.2788
  264MOL0     C34732   0.500  10.742   6.593 -0.3910  0.3390 -0.8744
  264MOL0     N34733   0.358  10.749   6.618  0.4053  0.1497  0.3614
  264MOL0     C34734   0.276  10.642   6.659  0.3983 -0.5010  0.1258
  264MOL0     C34735   0.149  10.678   6.643  0.4972 -0.5591  0.0384
  264MOL0     C34736   0.034  10.590   6.676  0.8716 -0.5167 -0.1930
  264MOL0     C34737  -0.091  10.596   6.589  0.7208 -1.1460 -0.6762
  264MOL0     C34738  -0.203  10.509   6.644  0.0968  0.1548 -0.2713
  264MOL0     C34739  -0.345  10.536   6.582 -0.0559 -0.4885 -0.7280
  264MOL0     O34740  -0.434  10.460   6.668  0.7298 -0.0387  0.7018
  264MOL0     C34741  -0.563  10.427   6.632 -0.5756  0.2071 -0.1927
  264MOL0     C34742  -0.627  10.471   6.514  0.0029  0.2787 -0.0631
  264MOL0     C34743  -0.761  10.440   6.490  0.3963 -0.5437 -0.4449
  264MOL0     C34744  -0.838  10.367   6.592  0.8897 -0.3650 -0.1101
  264MOL0     C34745  -0.985  10.330   6.569 -0.6867 -0.3886  0.0758
  264MOL0     O34746  -1.063  10.270   6.672 -0.1045  0.2454  0.1091
  264MOL0     C34747  -1.192  10.234   6.635 -0.1018  0.8663 -0.0350
  264MOL0     C34748  -1.225  10.097   6.631 -0.9394  1.0254 -0.2263
  264MOL0     C34749  -1.353  10.056   6.587  0.0300  0.0698 -0.0893
  264MOL0     C34750  -1.453  10.150   6.545 -0.7361 -0.0096 -0.0920
  264MOL0     O34751  -1.569  10.115   6.478  0.4631  0.1229  0.5600
  264MOL0     C34752  -1.609   9.979   6.472  0.1644  0.2414 -0.1750
  264MOL0     C34753  -1.754   9.981   6.422 -0.2985 -0.0827  0.8508
  264MOL0     C34754  -1.854  10.041   6.525 -0.1446  0.0858 -0.0204
  264MOL0     C34755  -1.995  10.051   6.461 -0.1796 -0.1103 -0.9818
  264MOL0     C34756  -2.094  10.092   6.565 -0.2817  0.0051 -0.5237
  264MOL0     C34757  -2.232  10.091   6.498  0.4948 -0.4126 -0.1443
  264MOL0     C34758  -2.338  10.156   6.590 -0.2539 -0.8677 -0.4542
  264MOL0     C34759  -2.480  10.181   6.530  0.1044 -0.1034 -0.7658
  264MOL0    Cl34760  -2.607  10.117   6.640  0.2311 -0.1959 -0.1256
  264MOL0     C34761  -1.416  10.281   6.557  0.7779  0.4279 -0.3342
  264MOL0     C34762  -1.290  10.323   6.606  0.5774 -0.2581  0.2488
  264MOL0     O34763  -1.018  10.355   6.455  0.0614 -0.2369  0.0482
  264MOL0     C34764  -0.770  10.327   6.713  0.2276  0.3782 -0.3008
  264MOL0     C34765  -0.635  10.364   6.732  0.5220 -1.4047  0.0251
  264MOL0     N34766   0.153  10.811   6.611  0.7089 -0.6411 -0.1298
  264MOL0     N34767   0.274  10.851   6.595 -0.2381  0.1609  0.3353
  264MOL0     C34768   1.586  10.991   6.489 -0.5663 -0.0431  0.2254
  264MOL0     C34769   1.682  11.021   6.394 -0.5612 -0.2466  0.6737
  264MOL0     C34770   1.961  11.054   6.057 -0.0374  0.1442 -0.6464
  264MOL0     C34771   2.082  11.122   6.055  0.6490 -0.4597  0.5408
  264MOL0     C34772   2.182  11.082   5.966  0.2581  0.3964 -0.9917
  264MOL0     C34773   2.163  10.983   5.875  0.6331  0.6271 -0.7542
  264MOL0     O34774   2.271  10.965   5.798 -0.1029  0.5249 -0.3806
  264MOL0     C34775   2.258  10.885   5.677 -0.1283  0.5434  0.0584
  264MOL0     C34776   2.148  10.914   5.570 -0.3018  0.1015  0.1135
  264MOL0     C34777   2.136  11.066   5.548  0.2792  0.1459  1.6321
  264MOL0     C34778   1.995  11.103   5.493 -0.4407  0.0407  0.6207
  264MOL0     C34779   1.911  11.136   5.604  0.3995 -0.9440  0.6350
  264MOL0     C34780   1.846  11.167   5.707 -0.2470  0.8100  0.4719
  264MOL0     C34781   2.037  10.921   5.865  0.1010  0.1450  0.3795
  264MOL0     C34782   1.939  10.956   5.958  0.2316  0.0111  0.9289
  264MOL0     H34783   1.510  10.921   6.127  0.7411 -1.0161  0.1359
  264MOL0     H34784   1.330  10.899   6.291  0.0752 -0.3640 -0.1081
  264MOL0     H34785   1.242  10.766   6.478  0.1095  0.8076 -1.0683
  264MOL0     H34786   1.200  10.940   6.472  2.0471  1.2542  0.3015
  264MOL0     H34787   1.152  10.925   6.716  1.3315 -0.1387  0.8436
  264MOL0     H34788   1.228  10.775   6.714  2.6393  3.9945  0.5789
  264MOL0     H34789   1.036  10.674   6.570 -0.9062  0.3811  0.3423
  264MOL0     H34790   0.945  10.819   6.576  0.3166  0.4185 -0.3244
  264MOL0     H34791   1.030  10.649   6.815 -1.3400 -1.6279  0.3589
  264MOL0     H34792   0.942  10.801   6.830 -1.5050 -2.2761  3.3944
  264MOL0     H34793   0.788  10.620   6.860 -0.9182 -1.6218 -0.0506
  264MOL0     H34794   0.843  10.543   6.710 -3.8489  0.0574 -0.9784
  264MOL0     H34795   0.742  10.733   6.572  0.7801  0.7489 -0.6082
  264MOL0     H34796   0.732  10.824   6.718  1.4111  0.5445 -1.0365
  264MOL0     H34797   0.590  10.561   6.687  1.7585 -0.0550 -0.5314
  264MOL0     H34798   0.551  10.688   6.807 -1.5465 -0.3448 -0.8996
  264MOL0     H34799   0.506  10.680   6.504 -2.5963 -0.6386 -0.4084
  264MOL0     H34800   0.538  10.844   6.581 -0.1548  0.5800  1.4694
  264MOL0     H34801   0.321  10.548   6.690  0.7529 -0.7267 -1.0457
  264MOL0     H34802   0.003  10.612   6.778 -1.2121 -1.9610 -0.4595
  264MOL0     H34803   0.065  10.485   6.669 -1.4410 -1.2354 -0.3697
  264MOL0     H34804  -0.077  10.570   6.484 -2.9342  0.7737 -1.8188
  264MOL0     H34805  -0.127  10.699   6.590 -0.6803 -1.6180  0.0179
  264MOL0     H34806  -0.176  10.404   6.636  4.3502  1.1546 -1.7699
  264MOL0     H34807  -0.212  10.522   6.752  0.1023  1.5608 -0.4211
  264MOL0     H34808  -0.349  10.508   6.476 -2.1182 -0.6391 -0.6557
  264MOL0     H34809  -0.365  10.642   6.604  1.3835 -0.4486  0.4531
  264MOL0     H34810  -0.567  10.520   6.438  4.3639 -1.8407  1.6866
  264MOL0     H34811  -0.805  10.495   6.407 -0.8904  1.1840  1.2779
  264MOL0     H34812  -1.155  10.024   6.670  0.2268  1.2080 -1.8535
  264MOL0     H34813  -1.370   9.949   6.577 -0.4254 -0.0658  1.7777
  264MOL0     H34814  -1.598   9.933   6.570 -2.9466 -2.3530 -0.8933
  264MOL0     H34815  -1.554   9.919   6.399 -0.2399 -1.5938  0.9731
  264MOL0     H34816  -1.811   9.889   6.409 -2.6807  1.2603  1.0194
  264MOL0     H34817  -1.751  10.034   6.327  1.9704 -1.8506 -0.1526
  264MOL0     H34818  -1.827  10.147   6.536 -0.3969  0.3963 -2.0738
  264MOL0     H34819  -1.847   9.983   6.618 -3.3416 -2.4729 -1.1873
  264MOL0     H34820  -1.991  10.130   6.385  0.7325 -0.5227 -1.3830
  264MOL0     H34821  -2.028   9.961   6.407  0.4686  0.0682 -1.6955
  264MOL0     H34822  -2.080  10.196   6.597 -0.3085 -0.0196 -0.4318
  264MOL0     H34823  -2.092  10.023   6.650 -3.0280 -1.3073 -1.4137
  264MOL0     H34824  -2.256   9.986   6.481 -1.1037 -0.4882  2.1031
  264MOL0     H34825  -2.235  10.160   6.413 -0.5070 -1.1567 -0.7333
  264MOL0     H34826  -2.343  10.094   6.680  1.3228  0.2646  0.4481
  264MOL0     H34827  -2.299  10.248   6.634 -2.1395  0.7601 -1.9865
  264MOL0     H34828  -2.481  10.117   6.441  0.1035 -0.4898 -0.4886
  264MOL0     H34829  -2.501  10.288   6.516 -1.9517  0.2725  3.4574
  264MOL0     H34830  -1.493  10.352   6.528 -0.7910 -1.0085  0.1287
  264MOL0     H34831  -1.270  10.429   6.618  0.1058 -0.1534  0.1412
  264MOL0     H34832  -0.826  10.270   6.786  0.5673 -1.1131 -1.1669
  264MOL0     H34833  -0.580  10.354   6.825  2.1555 -1.1027 -0.8529
  264MOL0     H34834   1.623  10.993   6.591  3.9875  0.3038 -1.2032
  264MOL0     H34835   1.774  11.072   6.423 -0.9202 -0.0547  1.4794
  264MOL0     H34836   2.105  11.197   6.131  0.7162  0.7003 -0.5835
  264MOL0     H34837   2.282  11.120   5.987 -0.0927  0.9768 -0.3270
  264MOL0     H34838   2.236  10.781   5.702  0.5155  0.3411 -0.1917
  264MOL0     H34839   2.355  10.885   5.626  1.5038  0.1642  2.9473
  264MOL0     H34840   2.177  10.876   5.471 -0.0525 -0.6946  0.4928
  264MOL0     H34841   2.054  10.867   5.598  0.2407 -0.3992  1.1392
  264MOL0     H34842   2.216  11.096   5.481 -2.5368  3.4828 -0.5590
  264MOL0     H34843   2.161  11.122   5.638 -3.6355  2.9661  1.2265
  264MOL0     H34844   2.016  11.187   5.426  1.2020 -1.0530 -0.2904
  264MOL0     H34845   1.951  11.028   5.426  1.4265 -0.1514 -0.4675
  264MOL0     H34846   1.767  11.184   5.778 -1.0688 -1.3535  0.1606
  264MOL0     H34847   2.008  10.833   5.809 -3.6837  0.5464  1.4386
  264MOL0     H34848   1.846  10.901   5.957 -2.0198  3.4958  1.5127
  265MOL0     O34849  10.850   5.317   1.900 -0.2021 -0.5947  0.2412
  265MOL0     C34850  10.895   5.236   1.817  0.3594 -0.0135 -0.4963
  265MOL0     O34851  10.851   5.103   1.798 -0.2590 -0.0490  0.1357
  265MOL0     C34852  10.734   5.064   1.858  0.2080  0.2825  0.5258
  265MOL0     C34853  10.607   5.116   1.824  0.4761  0.0977 -0.5329
  265MOL0     C34854  10.490   5.064   1.879 -0.4211  0.2448 -0.8429
  265MOL0     C34855  10.490   4.957   1.966  0.2204  0.1253  0.7158
  265MOL0     O34856  10.375   4.901   2.014 -0.1895 -0.4405 -0.2602
  265MOL0     C34857  10.263   4.890   1.927  0.8434 -0.5428 -0.5904
  265MOL0     C34858  10.166   5.010   1.946 -0.1326 -0.4298  1.0575
  265MOL0     C34859  10.099   5.033   2.081 -0.3705  0.5432  0.2626
  265MOL0     C34860  10.030   4.911   2.140 -0.7792  0.1420  0.0937
  265MOL0     C34861   9.957   4.956   2.264  1.3172  0.4079 -0.9683
  265MOL0     C34862   9.883   4.843   2.329 -0.2961  0.6961  0.2245
  265MOL0     C34863   9.808   4.884   2.457  0.5899  0.4714 -0.4324
  265MOL0     C34864   9.730   4.764   2.516 -0.6104  0.2780  0.4081
  265MOL0     N34865   9.608   4.748   2.449 -0.2911  0.0856 -0.5686
  265MOL0     C34866   9.501   4.832   2.461 -0.2166  0.6192  0.6938
  265MOL0     C34867   9.417   4.779   2.369  0.0525 -0.4933 -0.2003
  265MOL0     C34868   9.279   4.836   2.329  0.1008 -0.8175 -0.0908
  265MOL0     C34869   9.168   4.763   2.404 -0.3912 -0.9336 -0.5039
  265MOL0     C34870   9.188   4.604   2.413  0.0741  0.3647  0.1991
  265MOL0     C34871   9.058   4.531   2.451  0.0523  0.3196  0.3033
  265MOL0     O34872   8.945   4.565   2.361 -0.0033  0.4136 -0.0560
  265MOL0     C34873   8.826   4.518   2.406  0.3940 -0.5275 -0.3737
  265MOL0     C34874   8.724   4.606   2.439  0.7226  0.7811  0.2914
  265MOL0     C34875   8.603   4.550   2.487 -0.5739 -0.5715 -0.6289
  265MOL0     C34876   8.573   4.410   2.483 -0.5844  0.5682 -0.2907
  265MOL0     C34877   8.444   4.357   2.520 -0.5190  0.0949  0.0180
  265MOL0     O34878   8.349   4.453   2.542  0.2560  0.5781 -0.3872
  265MOL0     C34879   8.213   4.434   2.561  0.6295  0.7845 -0.1862
  265MOL0     C34880   8.150   4.311   2.573  0.4442  0.6910  0.0880
  265MOL0     C34881   8.010   4.302   2.601  0.2142 -0.6608  0.1938
  265MOL0     C34882   7.932   4.421   2.619 -0.2922 -0.5837 -0.4681
  265MOL0     O34883   7.797   4.395   2.641 -0.0120 -0.2306  0.7886
  265MOL0     C34884   7.709   4.503   2.668 -0.3222 -0.0871 -0.2356
  265MOL0     C34885   7.571   4.456   2.708 -0.0202  0.3898  0.1605
  265MOL0     C34886   7.502   4.398   2.578  0.4448  0.6809 -0.1729
  265MOL0     C34887   7.350   4.385   2.615  0.1363 -0.2678 -0.5261
  265MOL0     C34888   7.265   4.291   2.521 -0.3542  0.1077 -0.2199
  265MOL0     C34889   7.117   4.301   2.564 -0.2735  0.1810  0.2060
  265MOL0     C34890   7.037   4.239   2.451  0.3970  0.0652  0.8575
  265MOL0     C34891   6.899   4.309   2.431  0.4143 -0.5170  0.4447
  265MOL0    Cl34892   6.909   4.447   2.312 -0.0995  0.0717 -0.2964
  265MOL0     C34893   7.993   4.548   2.604 -0.5884 -0.2102 -0.1229
  265MOL0     C34894   8.133   4.551   2.570  0.1116 -0.8115 -0.3799
  265MOL0     O34895   8.432   4.234   2.523  0.5313  0.1848 -0.1525
  265MOL0     C34896   8.681   4.327   2.444  0.4304  0.5213 -0.1007
  265MOL0     C34897   8.800   4.385   2.400  0.2465 -0.8694 -0.0337
  265MOL0     N34898   9.477   4.672   2.304  0.2669 -0.2336 -0.0794
  265MOL0     N34899   9.598   4.649   2.358  0.3072 -0.7270  0.0446
  265MOL0     C34900  10.613   4.919   2.014  0.8755  0.8805  0.4777
  265MOL0     C34901  10.733   4.967   1.955  0.1981  0.0759 -0.0762
  265MOL0     C34902  11.016   5.280   1.751  0.2761 -0.3407  0.0246
  265MOL0     C34903  11.066   5.415   1.779  0.2362  0.0717  0.3031
  265MOL0     C34904  11.175   5.459   1.708 -0.8231 -0.1638 -0.5928
  265MOL0     C34905  11.236   5.381   1.613  0.1036  0.1203  0.3682
  265MOL0     O34906  11.351   5.442   1.551 -0.1513 -1.0190  0.1225
  265MOL0     C34907  11.427   5.388   1.439  0.6386  0.7318  0.3699
  265MOL0     C34908  11.353   5.400   1.305 -0.5116  0.5519  0.6658
  265MOL0     C34909  11.467   5.368   1.204 -0.1493 -0.5077  1.4811
  265MOL0     C34910  11.412   5.368   1.067  0.5754  0.7760  0.2320
  265MOL0     C34911  11.513   5.397   0.957  0.0009 -0.3790  0.3089
  265MOL0     C34912  11.591   5.429   0.868 -0.0179  0.0610 -0.5646
  265MOL0     C34913  11.186   5.259   1.574 -0.1805 -0.3215 -0.4997
  265MOL0     C34914  11.070   5.209   1.640 -0.2636 -0.2476 -0.8238
  265MOL0     H34915  10.594   5.199   1.755  0.9538  2.7990  2.3994
  265MOL0     H34916  10.398   5.109   1.843 -2.3035 -2.7024 -0.0468
  265MOL0     H34917  10.208   4.797   1.945  1.6030 -0.7604  0.7583
  265MOL0     H34918  10.295   4.887   1.823 -0.6545  0.6676 -1.1364
  265MOL0     H34919  10.089   4.995   1.869  0.7707  1.9701 -0.4286
  265MOL0     H34920  10.219   5.104   1.928  1.0012 -0.7735  2.4228
  265MOL0     H34921  10.023   5.111   2.066  0.0658  1.2009  1.3060
  265MOL0     H34922  10.168   5.079   2.152 -0.7319  1.2744  0.1599
  265MOL0     H34923   9.951   4.877   2.071  0.5849 -3.3171  0.0668
  265MOL0     H34924  10.100   4.833   2.171 -0.0190  1.3501  1.5442
  265MOL0     H34925   9.884   5.033   2.237 -2.3401 -2.5607 -0.4324
  265MOL0     H34926  10.027   4.995   2.339 -0.5828 -1.3427  1.9439
  265MOL0     H34927   9.945   4.755   2.345  1.1651  1.3289 -1.5000
  265MOL0     H34928   9.801   4.813   2.263 -0.7909  1.9031  0.2663
  265MOL0     H34929   9.882   4.910   2.533 -1.1366 -0.4777  1.7040
  265MOL0     H34930   9.739   4.968   2.445 -1.1414 -1.0063 -1.3292
  265MOL0     H34931   9.718   4.771   2.624  0.8053  0.2701  0.5865
  265MOL0     H34932   9.791   4.675   2.496 -2.2379 -0.9805  0.8160
  265MOL0     H34933   9.495   4.913   2.533  0.9734  0.1814  1.3109
  265MOL0     H34934   9.262   4.829   2.221 -0.0990 -5.3722  0.0707
  265MOL0     H34935   9.277   4.939   2.365  3.1260 -0.0409 -1.7862
  265MOL0     H34936   9.073   4.789   2.357  0.4051  1.9056 -0.6828
  265MOL0     H34937   9.165   4.799   2.507 -0.4444  1.3242 -1.2439
  265MOL0     H34938   9.221   4.555   2.321 -3.1432  0.1341 -0.9539
  265MOL0     H34939   9.261   4.578   2.490  0.7873 -1.4829 -1.0230
  265MOL0     H34940   9.029   4.550   2.554  0.2397 -1.2680  0.6767
  265MOL0     H34941   9.066   4.422   2.438  0.4100  0.5235 -1.4236
  265MOL0     H34942   8.744   4.713   2.444  0.4961  0.7627  2.2341
  265MOL0     H34943   8.536   4.630   2.516 -0.9084 -0.6559 -1.1446
  265MOL0     H34944   8.210   4.221   2.576  1.6594  1.4438 -0.8080
  265MOL0     H34945   7.967   4.203   2.613  1.5363 -1.3039 -0.1972
  265MOL0     H34946   7.696   4.566   2.580 -0.3751 -0.0528 -0.2034
  265MOL0     H34947   7.751   4.564   2.749 -1.3414  0.6286 -0.2266
  265MOL0     H34948   7.514   4.535   2.758 -1.7107 -0.4961 -0.2908
  265MOL0     H34949   7.580   4.380   2.787 -0.5601 -0.5636 -0.6719
  265MOL0     H34950   7.533   4.297   2.550  0.0936  1.3441 -3.3688
  265MOL0     H34951   7.516   4.460   2.489  4.1072  0.0860 -0.1607
  265MOL0     H34952   7.343   4.351   2.718  0.5748  0.6059 -0.1985
  265MOL0     H34953   7.308   4.485   2.607 -1.7424 -0.8442  1.2764
  265MOL0     H34954   7.304   4.190   2.533  2.8415  1.3937  1.5248
  265MOL0     H34955   7.272   4.316   2.415  2.2645 -1.1662 -0.4350
  265MOL0     H34956   7.088   4.406   2.563  0.0779  0.3434 -2.4880
  265MOL0     H34957   7.109   4.242   2.655 -0.1257  0.3444  0.3253
  265MOL0     H34958   7.093   4.258   2.359  0.7739 -0.9521  0.8663
  265MOL0     H34959   7.014   4.134   2.471 -0.4328 -0.2076 -1.2511
  265MOL0     H34960   6.850   4.348   2.521 -5.1974  1.8245 -3.0431
  265MOL0     H34961   6.824   4.237   2.396  0.0725 -0.1644  0.4432
  265MOL0     H34962   7.942   4.644   2.602 -0.1561  0.0798 -3.5089
  265MOL0     H34963   8.178   4.648   2.553 -1.3014  0.0593  0.5892
  265MOL0     H34964   8.667   4.220   2.440 -1.6835  0.7929 -1.8569
  265MOL0     H34965   8.877   4.314   2.370  3.0538  1.4963  1.1197
  265MOL0     H34966  10.606   4.845   2.093  0.2446 -0.6420 -0.9583
  265MOL0     H34967  10.827   4.928   1.993  0.2041  1.2509  1.2042
  265MOL0     H34968  11.025   5.479   1.857 -0.0248  0.3194 -0.0340
  265MOL0     H34969  11.217   5.553   1.743  1.9131 -2.6137  3.6768
  265MOL0     H34970  11.439   5.281   1.458 -0.4667  0.7426  1.1876
  265MOL0     H34971  11.523   5.440   1.440  0.8209  0.4460 -0.6714
  265MOL0     H34972  11.283   5.317   1.291 -1.3599  1.3344  0.1602
  265MOL0     H34973  11.314   5.500   1.287  1.7010  1.4832  0.7432
  265MOL0     H34974  11.512   5.269   1.220 -2.4956 -2.7197 -3.4504
  265MOL0     H34975  11.545   5.445   1.204  1.8327 -2.3860 -0.1433
  265MOL0     H34976  11.365   5.271   1.047  2.1284  0.2645 -1.2115
  265MOL0     H34977  11.334   5.442   1.054  2.6299  2.9827 -0.2842
  265MOL0     H34978  11.669   5.456   0.799 -0.3638 -1.4519 -1.6179
  265MOL0     H34979  11.211   5.203   1.484 -0.6796 -1.2406 -0.0851
  265MOL0     H34980  11.014   5.128   1.594 -1.5820 -0.3526  0.8883
  266MOL0     O34981   3.281   2.005   7.942  0.1000 -0.0051  0.2518
  266MOL0     C34982   3.302   1.896   7.990 -0.2843  0.1985  0.3604
  266MOL0     O34983   3.221   1.828   8.071  1.3900 -0.2735 -0.7563
  266MOL0     C34984   3.081   1.850   8.083 -0.6116 -0.1422  0.1625
  266MOL0     C34985   3.034   1.763   8.186 -0.8896 -0.3303  0.2982
  266MOL0     C34986   2.896   1.759   8.208 -0.3281 -0.4178  0.5601
  266MOL0     C34987   2.810   1.836   8.134  0.9747 -0.1655 -0.0664
  266MOL0     O34988   2.673   1.847   8.154  0.0335  0.1519  0.5726
  266MOL0     C34989   2.605   1.738   8.214  0.2506  0.0402 -0.0312
  266MOL0     C34990   2.454   1.788   8.235  0.8585 -0.3030  0.1562
  266MOL0     C34991   2.351   1.663   8.214  0.6743 -0.6779 -0.5157
  266MOL0     C34992   2.203   1.705   8.234  0.8251 -0.7692 -0.1683
  266MOL0     C34993   2.113   1.583   8.221 -0.0186 -0.3241 -0.2742
  266MOL0     C34994   1.962   1.598   8.221 -0.1764 -0.7327 -0.1243
  266MOL0     C34995   1.908   1.639   8.360  0.2317 -0.0220 -0.7056
  266MOL0     C34996   1.757   1.622   8.354 -0.0875  0.2955 -0.6282
  266MOL0     N34997   1.694   1.635   8.485  0.1838  0.8159 -0.3872
  266MOL0     C34998   1.692   1.746   8.570 -0.1744  0.8635  0.7776
  266MOL0     C34999   1.619   1.699   8.673  0.9219 -0.6471  0.7678
  266MOL0     C35000   1.594   1.781   8.797  0.6055 -0.5303  0.4012
  266MOL0     C35001   1.458   1.853   8.816  0.3644 -0.3301  0.0434
  266MOL0     C35002   1.349   1.752   8.846  0.2532  0.3270 -0.2051
  266MOL0     C35003   1.208   1.807   8.828  0.5440 -0.0870 -0.2103
  266MOL0     O35004   1.170   1.920   8.918  0.5325  0.0428 -0.1583
  266MOL0     C35005   1.037   1.949   8.933  0.3364  0.2109 -0.3760
  266MOL0     C35006   0.940   1.917   8.840  0.9651  0.3989  0.0314
  266MOL0     C35007   0.805   1.965   8.854 -0.3587  0.9214  0.2695
  266MOL0     C35008   0.772   2.046   8.963 -1.1156 -0.1841  0.0749
  266MOL0     C35009   0.637   2.101   8.965  0.7648  0.3667 -0.9338
  266MOL0     O35010   0.533   2.008   8.965  0.5184 -0.3251  0.0659
  266MOL0     C35011   0.414   2.056   8.997  0.7011 -0.4675  0.1591
  266MOL0     C35012   0.316   2.037   8.898 -0.0223  0.1087 -0.0936
  266MOL0     C35013   0.180   2.089   8.911 -0.3832 -0.1371 -0.6631
  266MOL0     C35014   0.141   2.158   9.028 -0.2198 -0.4021 -0.8413
  266MOL0     O35015   0.010   2.194   9.054 -0.1578 -0.4056  0.5300
  266MOL0     C35016  -0.013   2.327   9.108  0.0450  1.5898  1.0746
  266MOL0     C35017  -0.161   2.369   9.125  0.3406 -0.7703  0.2617
  266MOL0     C35018  -0.233   2.281   9.220 -0.1804 -0.2156 -0.4751
  266MOL0     C35019  -0.379   2.335   9.232  0.3328 -0.7524 -0.7349
  266MOL0     C35020  -0.479   2.227   9.265 -0.0217 -0.1350  0.5277
  266MOL0     C35021  -0.626   2.267   9.257 -0.2879  0.7012  0.0768
  266MOL0     C35022  -0.712   2.150   9.281  0.0762 -0.2011  0.0395
  266MOL0     C35023  -0.700   2.078   9.418 -0.0396 -0.2738  0.0952
  266MOL0    Cl35024  -0.785   1.921   9.414 -0.0551 -0.0693  0.2156
  266MOL0     C35025   0.237   2.176   9.128 -1.0476  1.4671  0.0441
  266MOL0     C35026   0.377   2.125   9.113  0.8326 -0.5261 -0.3942
  266MOL0     O35027   0.621   2.222   8.972 -0.0036 -0.1993  0.2246
  266MOL0     C35028   0.867   2.082   9.053 -0.3424  0.4546 -0.4234
  266MOL0     C35029   1.001   2.042   9.032 -0.6004  0.3623 -0.3191
  266MOL0     N35030   1.575   1.574   8.656 -0.5911 -0.3792  0.4875
  266MOL0     N35031   1.614   1.536   8.537 -0.2360 -0.4234  0.0698
  266MOL0     C35032   2.861   1.932   8.049 -0.3695  0.2631 -0.8402
  266MOL0     C35033   2.995   1.938   8.020 -0.0201  0.3417 -0.9306
  266MOL0     C35034   3.438   1.835   7.973  0.0583 -0.7630 -0.4443
  266MOL0     C35035   3.453   1.699   8.018  0.1362  0.3197  0.3870
  266MOL0     C35036   3.570   1.631   7.983  0.3603  0.4307  0.0964
  266MOL0     C35037   3.671   1.695   7.913 -1.1668 -0.5420  0.1901
  266MOL0     O35038   3.776   1.633   7.855 -0.1142  0.4035  0.6935
  266MOL0     C35039   3.848   1.545   7.936 -0.2399  0.1945 -0.0733
  266MOL0     C35040   3.993   1.544   7.888 -0.1738 -0.2795 -0.1603
  266MOL0     C35041   4.008   1.485   7.746  0.3779 -0.2208 -0.3593
  266MOL0     C35042   4.159   1.453   7.724  1.1055  0.1479 -0.1799
  266MOL0     C35043   4.253   1.559   7.760  0.1144 -0.5132  0.6090
  266MOL0     C35044   4.330   1.653   7.794  0.0243 -0.0599 -0.1431
  266MOL0     C35045   3.658   1.829   7.878 -0.3914  0.5091 -0.3138
  266MOL0     C35046   3.545   1.902   7.912 -0.7672  0.1608 -0.7053
  266MOL0     H35047   3.102   1.698   8.240 -0.3459 -0.2703 -0.3152
  266MOL0     H35048   2.865   1.699   8.293  2.0640 -0.6337  1.3724
  266MOL0     H35049   2.642   1.738   8.317 -3.0044  1.9508  1.2802
  266MOL0     H35050   2.607   1.646   8.153  2.0815 -0.4833  0.7343
  266MOL0     H35051   2.429   1.866   8.162  1.3558 -1.0667 -0.8572
  266MOL0     H35052   2.445   1.838   8.332  0.8128  0.4046 -0.1997
  266MOL0     H35053   2.372   1.594   8.296 -0.7107  1.9700  2.2995
  266MOL0     H35054   2.366   1.612   8.119 -1.8295 -1.9772 -0.2950
  266MOL0     H35055   2.190   1.744   8.335 -0.3329  0.3240 -0.6978
  266MOL0     H35056   2.178   1.781   8.159  1.4983 -0.5367 -0.1600
  266MOL0     H35057   2.131   1.514   8.304  2.0368  1.3476  0.7583
  266MOL0     H35058   2.147   1.532   8.130 -0.5560 -2.1224  0.4909
  266MOL0     H35059   1.923   1.497   8.211  0.6433 -1.2097  1.2082
  266MOL0     H35060   1.922   1.667   8.146 -3.5740 -0.3439  1.8325
  266MOL0     H35061   1.944   1.567   8.434 -4.5352 -0.9959  1.0616
  266MOL0     H35062   1.935   1.738   8.397  0.1699  1.1718 -3.5987
  266MOL0     H35063   1.730   1.520   8.323 -0.1443  0.4351 -1.0477
  266MOL0     H35064   1.712   1.696   8.287 -0.4465  0.2754 -0.4134
  266MOL0     H35065   1.730   1.846   8.551 -3.5096  1.9935 -0.7257
  266MOL0     H35066   1.675   1.851   8.820  0.6857 -0.6721  0.5531
  266MOL0     H35067   1.617   1.713   8.879  1.0927 -0.0693  0.6553
  266MOL0     H35068   1.440   1.913   8.726  0.5216 -0.9420 -0.3942
  266MOL0     H35069   1.466   1.926   8.898  1.5679 -0.8333  0.3898
  266MOL0     H35070   1.349   1.669   8.775 -0.3553 -1.1211  1.4242
  266MOL0     H35071   1.374   1.711   8.944  1.8172 -0.7891 -1.0212
  266MOL0     H35072   1.137   1.725   8.845  1.5333 -0.4352  2.8663
  266MOL0     H35073   1.194   1.844   8.727 -1.4617 -0.4785 -0.1183
  266MOL0     H35074   0.961   1.870   8.744  1.7615  1.8357 -0.5265
  266MOL0     H35075   0.731   1.937   8.780  1.3376  1.8776 -1.9002
  266MOL0     H35076   0.347   1.985   8.808  2.0657 -2.0389  1.7379
  266MOL0     H35077   0.104   2.069   8.836  0.3843 -1.8037 -1.0636
  266MOL0     H35078   0.036   2.392   9.034 -1.3924 -2.8461 -4.5280
  266MOL0     H35079   0.034   2.337   9.206  2.7419  2.2038 -0.1910
  266MOL0     H35080  -0.218   2.362   9.031 -1.8493 -0.6844  1.5067
  266MOL0     H35081  -0.169   2.472   9.163  0.9044 -0.7139  0.2313
  266MOL0     H35082  -0.183   2.285   9.318  1.0600 -2.4887 -0.9478
  266MOL0     H35083  -0.223   2.176   9.190 -0.1230  0.1361 -1.7201
  266MOL0     H35084  -0.378   2.403   9.317 -1.2103  0.6678 -1.7683
  266MOL0     H35085  -0.408   2.395   9.144  2.8632 -0.8052 -1.7049
  266MOL0     H35086  -0.455   2.188   9.364 -1.5135 -0.6676  0.7072
  266MOL0     H35087  -0.458   2.146   9.194  0.0148  0.0206  0.3608
  266MOL0     H35088  -0.644   2.308   9.158  2.0376 -2.0479 -1.6613
  266MOL0     H35089  -0.641   2.345   9.332  0.5815 -0.4946  1.5799
  266MOL0     H35090  -0.816   2.181   9.272  0.0525 -0.0534  0.7563
  266MOL0     H35091  -0.691   2.072   9.208 -1.2342  0.1044 -0.6946
  266MOL0     H35092  -0.745   2.146   9.491  1.6905 -1.0464  1.9715
  266MOL0     H35093  -0.601   2.054   9.456 -1.3203 -1.1476  3.1340
  266MOL0     H35094   0.218   2.229   9.221 -2.6578 -0.4239  0.8783
  266MOL0     H35095   0.447   2.144   9.193 -2.1265 -2.8485  3.0511
  266MOL0     H35096   0.839   2.151   9.132  1.0914  1.6889 -0.9387
  266MOL0     H35097   1.085   2.081   9.088 -0.5264 -0.2538  0.0133
  266MOL0     H35098   2.792   2.005   8.008 -2.2781 -0.8660  0.2495
  266MOL0     H35099   3.023   2.001   7.936  1.0152 -0.9030 -1.5539
  266MOL0     H35100   3.368   1.637   8.044  0.0840 -0.3624 -1.3450
  266MOL0     H35101   3.565   1.524   8.003 -0.5611  0.7189  1.5156
  266MOL0     H35102   3.807   1.445   7.924 -1.5779  0.8878 -1.8062
  266MOL0     H35103   3.835   1.576   8.040  0.6477  0.1106  0.0699
  266MOL0     H35104   4.033   1.646   7.882 -1.5869  0.5173  2.5163
  266MOL0     H35105   4.054   1.498   7.966  0.0576  0.2516 -0.0239
  266MOL0     H35106   3.983   1.565   7.676  0.6742  0.1048 -0.0937
  266MOL0     H35107   3.937   1.402   7.742 -2.4431  1.9406  1.0603
  266MOL0     H35108   4.177   1.370   7.794  0.7367  0.1146 -0.1236
  266MOL0     H35109   4.166   1.420   7.620  2.1828 -0.4765  0.0693
  266MOL0     H35110   4.400   1.733   7.808  1.5922 -1.3184 -0.4667
  266MOL0     H35111   3.726   1.882   7.812 -0.6300  0.0447 -0.9453
  266MOL0     H35112   3.542   2.006   7.882  0.3977  0.4232  0.0235
  267MOL0     O35113   4.185   5.762   5.444 -0.5840  0.3397  0.1498
  267MOL0     C35114   4.243   5.719   5.550 -0.4586 -0.4037  0.2911
  267MOL0     O35115   4.207   5.752   5.672 -0.7473 -0.3542 -0.1581
  267MOL0     C35116   4.084   5.812   5.701 -0.0128 -0.1965  0.2590
  267MOL0     C35117   4.032   5.934   5.645 -0.0665  0.6536  0.0701
  267MOL0     C35118   3.908   5.988   5.688 -0.1520  0.1644  0.6101
  267MOL0     C35119   3.832   5.923   5.778 -0.2541 -0.3382 -0.3628
  267MOL0     O35120   3.710   5.973   5.810  0.2596  0.5933 -0.0934
  267MOL0     C35121   3.628   5.921   5.918  1.4760 -0.3344 -0.1502
  267MOL0     C35122   3.504   6.012   5.935  0.7475  0.3136 -0.2386
  267MOL0     C35123   3.535   6.150   5.983 -0.2423 -0.4349  0.4188
  267MOL0     C35124   3.399   6.218   5.993  0.0374 -0.1494  0.5299
  267MOL0     C35125   3.414   6.377   6.028  0.1778  0.8859 -1.1137
  267MOL0     C35126   3.282   6.450   5.999 -0.5535  0.2194 -0.2320
  267MOL0     C35127   3.174   6.420   6.101  0.2129  0.3041  0.0149
  267MOL0     C35128   3.032   6.486   6.053 -0.5301  0.4801 -0.3538
  267MOL0     N35129   2.943   6.487   6.166 -0.2639 -0.2951  0.1475
  267MOL0     C35130   2.979   6.514   6.300 -0.0590  0.2839 -0.0277
  267MOL0     C35131   2.875   6.469   6.373  1.0317  0.1022 -1.0857
  267MOL0     C35132   2.859   6.484   6.519 -0.4812  0.1220  0.4607
  267MOL0     C35133   2.759   6.598   6.548 -0.4469 -0.3446  0.3375
  267MOL0     C35134   2.697   6.573   6.689 -0.1014  0.1607  0.1226
  267MOL0     C35135   2.638   6.705   6.749 -0.1502  0.2700  0.8999
  267MOL0     O35136   2.598   6.680   6.886 -0.4956  0.4025  0.3570
  267MOL0     C35137   2.461   6.681   6.914 -0.1215  0.2985 -0.7701
  267MOL0     C35138   2.406   6.585   6.999 -0.8857  0.0350  0.2111
  267MOL0     C35139   2.272   6.565   7.012  0.2134 -0.0334  0.2641
  267MOL0     C35140   2.178   6.648   6.947 -0.2677 -0.2996  0.9105
  267MOL0     C35141   2.033   6.628   6.957  0.1413  0.0222  0.0533
  267MOL0     O35142   1.954   6.731   6.941  0.1868  0.1134  0.3106
  267MOL0     C35143   1.818   6.736   6.975  0.3268  0.2116  0.3454
  267MOL0     C35144   1.765   6.841   7.050 -0.7133 -0.4043  0.2603
  267MOL0     C35145   1.634   6.839   7.079  0.2072 -0.2391  0.1383
  267MOL0     C35146   1.547   6.742   7.034 -0.2186  0.3864  1.0046
  267MOL0     O35147   1.408   6.743   7.059  0.3212 -0.3020  0.1228
  267MOL0     C35148   1.364   6.823   7.171 -0.2503 -0.9002 -0.1425
  267MOL0     C35149   1.220   6.793   7.205  0.0376  0.0014  0.7402
  267MOL0     C35150   1.128   6.859   7.103  0.0120  0.2377  0.2302
  267MOL0     C35151   0.979   6.811   7.114 -0.5149 -0.2911  0.5415
  267MOL0     C35152   0.888   6.905   7.037  0.4790  0.9454 -0.5074
  267MOL0     C35153   0.748   6.864   7.085 -0.7110  0.2537 -0.5020
  267MOL0     C35154   0.650   6.942   7.002  0.0257  0.1581 -0.0746
  267MOL0     C35155   0.515   6.873   7.027  0.3107 -0.5402 -0.2149
  267MOL0    Cl35156   0.390   6.975   6.937  0.5082 -0.5366 -0.2425
  267MOL0     C35157   1.595   6.645   6.936 -0.5043  0.2163 -0.2864
  267MOL0     C35158   1.732   6.638   6.919  0.3941 -0.8154  0.6816
  267MOL0     O35159   1.999   6.515   6.987  1.1255 -0.5269  0.3804
  267MOL0     C35160   2.237   6.748   6.866  0.0863 -0.3654 -1.4397
  267MOL0     C35161   2.376   6.764   6.846  0.4192 -0.5412  0.0986
  267MOL0     N35162   2.787   6.410   6.283 -0.0550  0.0207 -0.3342
  267MOL0     N35163   2.825   6.420   6.159  0.2498 -0.2067  0.8296
  267MOL0     C35164   3.889   5.805   5.836  0.1631  0.0101 -0.2312
  267MOL0     C35165   4.011   5.747   5.798  0.0042 -0.1106 -0.4916
  267MOL0     C35166   4.369   5.635   5.536 -0.0914  0.2814 -0.2292
  267MOL0     C35167   4.422   5.613   5.409 -0.5484 -0.4146  0.2519
  267MOL0     C35168   4.527   5.532   5.391  0.0145  0.1253  0.7996
  267MOL0     C35169   4.600   5.477   5.498  0.5367 -0.6003  0.0131
  267MOL0     O35170   4.717   5.413   5.486  0.1404  0.3902  0.4863
  267MOL0     C35171   4.767   5.381   5.354  0.2596  0.0744 -0.4005
  267MOL0     C35172   4.873   5.273   5.366 -0.7112 -0.4500  0.4314
  267MOL0     C35173   4.897   5.197   5.236  0.4747  0.2336  0.4634
  267MOL0     C35174   4.771   5.101   5.205  0.5713  0.3573  0.3746
  267MOL0     C35175   4.740   5.008   5.314 -0.0232 -0.5265 -0.1707
  267MOL0     C35176   4.708   4.951   5.415 -0.0451 -0.5521 -0.8046
  267MOL0     C35177   4.556   5.498   5.628  0.4418 -0.9607 -0.1458
  267MOL0     C35178   4.443   5.581   5.653 -0.2303  0.9264  0.0453
  267MOL0     H35179   4.082   5.980   5.560  0.6435 -0.3754 -0.0943
  267MOL0     H35180   3.863   6.076   5.643  2.0204  2.2710  2.2485
  267MOL0     H35181   3.680   5.912   6.014 -1.4923 -3.8658  1.4014
  267MOL0     H35182   3.599   5.816   5.903 -0.6547 -0.1443  1.9709
  267MOL0     H35183   3.437   5.962   6.006  0.1125  0.6248 -0.6083
  267MOL0     H35184   3.454   6.019   5.837  2.0813 -1.2430 -1.0831
  267MOL0     H35185   3.597   6.202   5.910  0.4230 -1.7074  0.0384
  267MOL0     H35186   3.585   6.155   6.080  3.2744  1.3909 -1.3237
  267MOL0     H35187   3.360   6.221   5.891 -0.2661  2.5190  0.6605
  267MOL0     H35188   3.324   6.165   6.053 -2.7974  0.7347 -1.9581
  267MOL0     H35189   3.499   6.408   5.967  3.4008 -3.1064  0.9090
  267MOL0     H35190   3.453   6.393   6.129  1.8552  0.9689 -1.7497
  267MOL0     H35191   3.248   6.403   5.906  2.5671 -1.0320 -0.8686
  267MOL0     H35192   3.294   6.558   5.989  2.5341  0.1505  1.6148
  267MOL0     H35193   3.159   6.313   6.119 -1.6719  0.3202 -1.1914
  267MOL0     H35194   3.203   6.475   6.191 -0.8169  1.8576 -0.5597
  267MOL0     H35195   2.990   6.438   5.964  0.0648  1.5067 -1.2108
  267MOL0     H35196   3.050   6.590   6.023  0.4131 -0.1878 -2.2756
  267MOL0     H35197   3.066   6.572   6.331  0.0824 -0.3715  0.8699
  267MOL0     H35198   2.955   6.500   6.569 -0.8876 -1.3809  1.8220
  267MOL0     H35199   2.824   6.385   6.549 -1.4224  0.5466  0.7878
  267MOL0     H35200   2.685   6.612   6.469 -1.9888  0.0906  1.7932
  267MOL0     H35201   2.817   6.691   6.549  2.1865 -1.8943  0.7278
  267MOL0     H35202   2.616   6.500   6.675 -1.4183  1.7205 -0.7002
  267MOL0     H35203   2.767   6.530   6.761 -0.5979  0.3648  0.7491
  267MOL0     H35204   2.554   6.737   6.688  0.2671 -2.8151 -1.5358
  267MOL0     H35205   2.713   6.784   6.747  1.4554 -1.1399 -2.2671
  267MOL0     H35206   2.465   6.516   7.058 -1.9750 -1.2790 -0.1931
  267MOL0     H35207   2.233   6.485   7.074  1.4678 -1.6178 -0.9020
  267MOL0     H35208   1.826   6.927   7.075  0.2348 -1.5837  2.2238
  267MOL0     H35209   1.594   6.921   7.138 -0.5503 -0.3279 -0.2477
  267MOL0     H35210   1.364   6.931   7.159 -0.9740 -0.5200  2.4702
  267MOL0     H35211   1.427   6.796   7.256  1.2444  0.5137 -0.7611
  267MOL0     H35212   1.201   6.828   7.308  1.6366  1.8695  0.4702
  267MOL0     H35213   1.199   6.686   7.199  0.2405 -0.0752  1.2926
  267MOL0     H35214   1.159   6.826   7.003 -1.8402 -0.3853 -0.1993
  267MOL0     H35215   1.140   6.967   7.101 -1.0158  0.3898 -2.2971
  267MOL0     H35216   0.980   6.715   7.062 -1.1787 -0.8437  1.5075
  267MOL0     H35217   0.944   6.824   7.217 -4.7118  3.1553 -1.0148
  267MOL0     H35218   0.889   6.882   6.930  0.9921 -4.2599  0.3383
  267MOL0     H35219   0.915   7.009   7.059  0.0671  0.9362  0.0739
  267MOL0     H35220   0.728   6.895   7.188 -2.2987  1.4180 -1.1297
  267MOL0     H35221   0.738   6.756   7.081  1.8588 -0.0930  0.3871
  267MOL0     H35222   0.653   7.049   7.024  1.0592  0.2213 -0.4414
  267MOL0     H35223   0.672   6.925   6.896  0.5942 -3.8608  0.5186
  267MOL0     H35224   0.490   6.868   7.133 -1.1499 -0.5047 -0.5492
  267MOL0     H35225   0.515   6.771   6.987 -1.8971  0.0110 -1.7949
  267MOL0     H35226   1.535   6.573   6.882  2.7386 -0.9420 -2.6389
  267MOL0     H35227   1.762   6.552   6.860 -1.9143 -1.7787  0.7956
  267MOL0     H35228   2.184   6.814   6.797  1.3703 -0.5014 -2.6000
  267MOL0     H35229   2.410   6.840   6.776  0.5950 -0.5423  0.1831
  267MOL0     H35230   3.829   5.747   5.906  0.9961  0.6826  1.0756
  267MOL0     H35231   4.042   5.648   5.829  1.7646  0.1851 -1.1949
  267MOL0     H35232   4.386   5.650   5.313  2.9137 -1.9612 -1.8309
  267MOL0     H35233   4.553   5.508   5.289 -0.4877 -1.7211  1.0606
  267MOL0     H35234   4.812   5.472   5.314 -1.6068  1.3019  0.1125
  267MOL0     H35235   4.693   5.341   5.283  2.4819  0.2491 -2.9613
  267MOL0     H35236   4.968   5.322   5.387 -0.6342 -1.0650  1.6388
  267MOL0     H35237   4.853   5.202   5.447  0.4674 -2.9369 -1.3486
  267MOL0     H35238   4.987   5.136   5.249  0.8284  0.6246 -0.1230
  267MOL0     H35239   4.904   5.255   5.143 -0.4352 -0.2302  0.0889
  267MOL0     H35240   4.679   5.159   5.188  1.2455  1.1989 -0.4937
  267MOL0     H35241   4.789   5.049   5.110  1.2989 -0.9770  1.2158
  267MOL0     H35242   4.675   4.894   5.500  4.8057  1.7465  3.1273
  267MOL0     H35243   4.611   5.449   5.708 -0.0155  0.7346  1.2826
  267MOL0     H35244   4.414   5.600   5.756  0.3918  2.3900 -0.0264
  268MOL0     O35245   6.976  10.133   1.332  0.4012  0.0800 -0.4262
  268MOL0     C35246   7.029  10.237   1.300  0.0087 -0.5850  0.1700
  268MOL0     O35247   6.964  10.358   1.272 -0.0531 -0.0961  0.0478
  268MOL0     C35248   6.830  10.365   1.289  0.9414 -0.1891 -0.9291
  268MOL0     C35249   6.768  10.474   1.355  0.0104 -0.4225  0.2473
  268MOL0     C35250   6.626  10.487   1.349 -0.0830 -0.1425  0.2731
  268MOL0     C35251   6.543  10.381   1.297  0.3583 -0.8161  0.5874
  268MOL0     O35252   6.413  10.420   1.279 -0.2816  0.6810 -0.5718
  268MOL0     C35253   6.348  10.385   1.156 -0.3246 -0.3103  0.5688
  268MOL0     C35254   6.211  10.450   1.167  0.6638 -0.2606 -0.0031
  268MOL0     C35255   6.205  10.601   1.173 -0.3697  0.6667 -0.3352
  268MOL0     C35256   6.072  10.643   1.231 -0.0324 -0.6823  0.0861
  268MOL0     C35257   6.020  10.767   1.160 -0.3061 -0.6146  0.4659
  268MOL0     C35258   5.917  10.845   1.247 -0.2691  0.1071 -0.5272
  268MOL0     C35259   5.882  10.984   1.200  0.1995  0.0143 -0.3224
  268MOL0     C35260   5.763  10.988   1.115  0.6204  0.0532 -0.0714
  268MOL0     N35261   5.629  10.980   1.175  0.2879 -0.4683 -0.1198
  268MOL0     C35262   5.500  10.984   1.115  0.4989  0.3017  0.2842
  268MOL0     C35263   5.415  10.982   1.217  0.1215  0.8252 -0.5303
  268MOL0     C35264   5.268  10.964   1.199 -0.4298 -0.9391  0.0365
  268MOL0     C35265   5.193  11.050   1.302 -0.4941  0.6092  0.7840
  268MOL0     C35266   5.045  11.006   1.280 -0.6789 -0.9895  0.3369
  268MOL0     C35267   4.943  11.084   1.365  0.1354  0.4918  0.6426
  268MOL0     O35268   4.970  11.059   1.506 -0.0376 -0.4666  0.1670
  268MOL0     C35269   4.885  11.116   1.601 -0.7132  0.5350 -0.0591
  268MOL0     C35270   4.765  11.187   1.563 -0.4699  0.1993 -0.1582
  268MOL0     C35271   4.662  11.222   1.659 -0.2449  0.7806  0.6046
  268MOL0     C35272   4.693  11.193   1.793  0.0033  1.1580  0.5539
  268MOL0     C35273   4.596  11.226   1.895  0.1170  0.2198 -0.5199
  268MOL0     O35274   4.599  11.154   2.010  0.4327 -0.0745 -0.1954
  268MOL0     C35275   4.490  11.150   2.084  0.2972  0.2316  0.1861
  268MOL0     C35276   4.500  11.165   2.221  1.1012  0.6095 -0.3797
  268MOL0     C35277   4.376  11.161   2.296  0.1977 -0.2114 -0.5190
  268MOL0     C35278   4.252  11.140   2.236 -0.0338  0.1108 -0.1431
  268MOL0     O35279   4.137  11.121   2.310  0.4764  1.1898 -0.7737
  268MOL0     C35280   4.014  11.173   2.254 -0.1810  0.2185  0.2658
  268MOL0     C35281   3.903  11.209   2.354  0.8040  0.3192  1.1224
  268MOL0     C35282   3.762  11.153   2.322 -0.8033  0.5315  0.0119
  268MOL0     C35283   3.665  11.213   2.420  0.3927 -0.9807  0.4368
  268MOL0     C35284   3.516  11.196   2.372 -0.3031  1.0032  0.2247
  268MOL0     C35285   3.476  11.046   2.358 -0.3966 -0.3514 -0.3933
  268MOL0     C35286   3.507  10.961   2.480 -1.0048  0.5869  0.2209
  268MOL0     C35287   3.484  10.810   2.452  0.0336 -1.1715 -0.2605
  268MOL0    Cl35288   3.304  10.784   2.409 -0.0423  0.2649  0.3831
  268MOL0     C35289   4.247  11.127   2.095 -0.7256  0.1474  0.0457
  268MOL0     C35290   4.365  11.123   2.020 -0.2536  0.1294  0.2260
  268MOL0     O35291   4.513  11.311   1.869  0.0120 -0.5863 -0.3446
  268MOL0     C35292   4.808  11.126   1.827  0.8190  0.0464 -0.6443
  268MOL0     C35293   4.900  11.077   1.736  0.4231 -0.8333 -0.4069
  268MOL0     N35294   5.483  10.986   1.338 -0.0240  0.1661 -0.2484
  268MOL0     N35295   5.613  10.967   1.312  0.7403  0.0164 -0.5774
  268MOL0     C35296   6.604  10.278   1.232  0.0929 -0.3653  0.6674
  268MOL0     C35297   6.748  10.271   1.222 -0.3209  0.0795 -0.5099
  268MOL0     C35298   7.170  10.240   1.312 -0.2062  0.3934 -0.4733
  268MOL0     C35299   7.242  10.128   1.341  0.5940  0.4681 -0.2330
  268MOL0     C35300   7.384  10.118   1.343 -0.1242 -0.4509  0.0275
  268MOL0     C35301   7.455  10.229   1.316 -0.1935 -0.3559 -0.0132
  268MOL0     O35302   7.593  10.242   1.304 -0.1125 -0.5653 -0.3446
  268MOL0     C35303   7.676  10.142   1.359  0.2973  0.0675  1.3520
  268MOL0     C35304   7.810  10.199   1.389 -0.2483 -0.1811  0.1096
  268MOL0     C35305   7.872  10.246   1.253 -1.0355  0.6996 -0.4424
  268MOL0     C35306   8.023  10.264   1.272  0.1901  0.1375 -0.3454
  268MOL0     C35307   8.082  10.354   1.174  0.0730 -0.2268  0.8351
  268MOL0     C35308   8.136  10.450   1.133  0.0022 -0.0252 -0.2865
  268MOL0     C35309   7.384  10.341   1.276 -0.5067  0.2786  0.4615
  268MOL0     C35310   7.247  10.347   1.272 -0.6162 -0.0130  0.8122
  268MOL0     H35311   6.831  10.554   1.394 -0.9028  0.2191  0.4301
  268MOL0     H35312   6.583  10.581   1.383  0.7401  0.3027  0.0919
  268MOL0     H35313   6.340  10.277   1.140  2.0005 -0.7098  1.7068
  268MOL0     H35314   6.404  10.433   1.075 -0.0611 -1.4309  0.0665
  268MOL0     H35315   6.157  10.410   1.253 -2.1427 -0.5697 -1.7740
  268MOL0     H35316   6.154  10.417   1.080  2.4698 -0.1572 -1.2869
  268MOL0     H35317   6.237  10.648   1.079 -4.3811  1.4560 -1.4711
  268MOL0     H35318   6.279  10.636   1.246 -0.3389 -1.8459  0.9479
  268MOL0     H35319   5.996  10.565   1.219 -0.6359  0.0783 -1.2164
  268MOL0     H35320   6.083  10.662   1.338  0.7257 -0.9873  0.0685
  268MOL0     H35321   5.968  10.731   1.071 -0.6076  2.0278 -0.5224
  268MOL0     H35322   6.104  10.831   1.132 -0.3913 -1.3179 -1.5068
  268MOL0     H35323   5.959  10.862   1.346  0.2650 -0.5693 -0.6304
  268MOL0     H35324   5.826  10.789   1.269  1.2060 -2.2302 -0.0084
  268MOL0     H35325   5.864  11.046   1.289  2.6730  0.6996 -0.1977
  268MOL0     H35326   5.966  11.030   1.146  2.0583 -3.5723 -0.7718
  268MOL0     H35327   5.768  10.914   1.034 -2.6022 -1.1008  0.5974
  268MOL0     H35328   5.763  11.083   1.061  0.1720  0.0578 -0.0660
  268MOL0     H35329   5.490  10.972   1.008  0.7896  0.0279  0.2854
  268MOL0     H35330   5.236  10.861   1.215  1.8347 -1.4886  1.5263
  268MOL0     H35331   5.256  11.007   1.099  0.9846  0.9349  0.6185
  268MOL0     H35332   5.216  11.154   1.277 -2.2305  0.8722  0.1386
  268MOL0     H35333   5.229  11.026   1.403  0.8220 -1.9622 -0.2134
  268MOL0     H35334   5.006  11.007   1.178 -0.1928  1.0435  0.1278
  268MOL0     H35335   5.030  10.909   1.328  0.4548 -0.1899  2.4649
  268MOL0     H35336   4.847  11.041   1.338  0.0653 -1.3078  3.3470
  268MOL0     H35337   4.964  11.187   1.335  1.2190  0.3933  1.0001
  268MOL0     H35338   4.741  11.214   1.460 -0.0727 -2.9404 -1.1814
  268MOL0     H35339   4.568  11.270   1.635 -0.4852  1.3651  2.5306
  268MOL0     H35340   4.595  11.203   2.259  0.4188  2.2409 -0.2360
  268MOL0     H35341   4.396  11.177   2.402  2.3298  1.9187 -1.1767
  268MOL0     H35342   3.974  11.092   2.192 -0.5801  0.5052  0.1437
  268MOL0     H35343   4.041  11.257   2.189  1.4611 -0.6880 -0.2780
  268MOL0     H35344   3.898  11.319   2.355 -2.2292  0.2912 -0.3369
  268MOL0     H35345   3.929  11.172   2.454 -4.2036 -0.3535  2.4523
  268MOL0     H35346   3.765  11.044   2.334  1.4475  0.6563  0.9927
  268MOL0     H35347   3.738  11.186   2.220 -0.3378  1.8183  0.2984
  268MOL0     H35348   3.683  11.180   2.523 -0.1755 -2.2042  0.1575
  268MOL0     H35349   3.669  11.322   2.415 -0.7374 -0.9894 -1.1660
  268MOL0     H35350   3.493  11.257   2.284  1.5047 -0.9389 -1.7452
  268MOL0     H35351   3.460  11.228   2.460 -0.6394 -0.7387  0.6877
  268MOL0     H35352   3.527  11.001   2.272  1.4579  1.9640 -0.6062
  268MOL0     H35353   3.369  11.051   2.336 -0.4604  0.6357  0.1068
  268MOL0     H35354   3.615  10.975   2.495 -0.7385 -0.2680 -0.8272
  268MOL0     H35355   3.453  11.001   2.567  0.4015 -1.5084  2.1602
  268MOL0     H35356   3.516  10.752   2.539  2.0822  0.3757  0.1114
  268MOL0     H35357   3.547  10.777   2.369  0.1081  1.9827 -1.5901
  268MOL0     H35358   4.155  11.117   2.038  0.2291 -0.6591 -1.4241
  268MOL0     H35359   4.356  11.116   1.912 -0.0390  0.2053  0.2030
  268MOL0     H35360   4.823  11.097   1.931 -1.0153 -1.1123 -0.6630
  268MOL0     H35361   4.987  11.022   1.769  0.2908  1.0594  3.6578
  268MOL0     H35362   6.540  10.215   1.171 -1.4051  0.4337  1.3718
  268MOL0     H35363   6.788  10.183   1.173  1.2432  1.3880 -1.7035
  268MOL0     H35364   7.191  10.036   1.368  3.6636 -0.9230  1.2692
  268MOL0     H35365   7.424  10.019   1.359 -3.2238 -1.8596 -0.3015
  268MOL0     H35366   7.676  10.055   1.292  1.1115 -0.7955  2.4252
  268MOL0     H35367   7.631  10.102   1.450 -0.7505 -4.7516 -0.9472
  268MOL0     H35368   7.814  10.287   1.453 -1.2912  1.2224 -1.6960
  268MOL0     H35369   7.875  10.121   1.432  2.5210  1.8416 -0.1376
  268MOL0     H35370   7.833  10.346   1.229 -2.1135  0.9780  2.1678
  268MOL0     H35371   7.854  10.174   1.172  1.7701 -1.5810  0.7938
  268MOL0     H35372   8.025  10.311   1.371 -0.6695 -0.2100 -0.1597
  268MOL0     H35373   8.069  10.165   1.266 -0.3432 -0.2285  1.0649
  268MOL0     H35374   8.181  10.541   1.100  1.3170 -0.1104  1.1640
  268MOL0     H35375   7.431  10.437   1.253 -0.4525  0.5420  1.6391
  268MOL0     H35376   7.206  10.444   1.244 -0.0596  0.2397  0.8703
  269MOL0     O35377   5.122   4.448   1.264  0.4495  0.4905  0.3986
  269MOL0     C35378   5.224   4.379   1.286 -0.6034 -0.5173  0.6364
  269MOL0     O35379   5.236   4.249   1.266 -0.3703 -0.2448 -0.1216
  269MOL0     C35380   5.121   4.191   1.217 -0.8625 -0.5030 -0.0207
  269MOL0     C35381   5.139   4.126   1.097 -1.2119 -0.1865  0.3624
  269MOL0     C35382   5.034   4.055   1.027  0.0929 -0.2937 -0.2945
  269MOL0     C35383   4.918   4.042   1.095  0.0859 -0.1639 -0.0378
  269MOL0     O35384   4.812   3.957   1.053 -0.1523 -0.1573 -0.7317
  269MOL0     C35385   4.851   3.851   0.959 -0.0057  0.8314 -0.3751
  269MOL0     C35386   4.733   3.760   0.920 -0.9328 -1.3224  0.1869
  269MOL0     C35387   4.767   3.646   0.834  0.0781  0.5754  0.5157
  269MOL0     C35388   4.816   3.683   0.688 -1.0107 -0.4056  0.6913
  269MOL0     C35389   4.881   3.574   0.604 -0.0009  0.3569  0.4010
  269MOL0     C35390   4.799   3.448   0.585  0.2021 -0.4129  0.1693
  269MOL0     C35391   4.854   3.358   0.471  0.2138  0.7398 -0.2136
  269MOL0     C35392   4.752   3.242   0.428 -0.9924 -0.9262 -0.2029
  269MOL0     N35393   4.799   3.201   0.294 -0.2979  0.2222  0.0919
  269MOL0     C35394   4.740   3.254   0.180  0.3923  0.7771  0.0464
  269MOL0     C35395   4.785   3.175   0.072 -0.8599  0.7690  0.1262
  269MOL0     C35396   4.749   3.186  -0.061 -0.1323 -0.6186  0.7094
  269MOL0     C35397   4.625   3.099  -0.089  0.4106  0.6804 -0.2283
  269MOL0     C35398   4.644   3.011  -0.216  1.0204 -1.2758  0.2148
  269MOL0     C35399   4.516   2.921  -0.219 -0.4832  0.4650  0.1898
  269MOL0     O35400   4.388   2.991  -0.197  0.9032  0.4540 -0.4660
  269MOL0     C35401   4.270   2.918  -0.184 -0.0373  0.5990 -0.0705
  269MOL0     C35402   4.156   2.988  -0.224 -0.0552 -0.6220 -0.3836
  269MOL0     C35403   4.028   2.934  -0.223  0.0398  0.0661 -0.6765
  269MOL0     C35404   4.015   2.796  -0.195  0.2548 -0.4304 -0.0952
  269MOL0     C35405   3.878   2.738  -0.194  0.2158  0.2480  0.6512
  269MOL0     O35406   3.769   2.833  -0.215 -0.4555  0.1723 -0.1486
  269MOL0     C35407   3.636   2.800  -0.202 -0.2917  0.2356  0.4882
  269MOL0     C35408   3.586   2.697  -0.285  0.9719 -0.0312 -0.1885
  269MOL0     C35409   3.447   2.671  -0.281 -0.2892  0.3431 -0.1318
  269MOL0     C35410   3.356   2.733  -0.199 -0.3077 -0.5298  0.2499
  269MOL0     O35411   3.222   2.699  -0.217 -0.3962  0.0957 -0.0725
  269MOL0     C35412   3.141   2.806  -0.203 -0.1757  0.4108 -1.0214
  269MOL0     C35413   3.005   2.761  -0.244  0.4018  0.4261 -0.3678
  269MOL0     C35414   2.949   2.655  -0.145  0.7789  0.2044 -0.2971
  269MOL0     C35415   2.795   2.655  -0.162  0.5775 -0.2620 -0.0991
  269MOL0     C35416   2.739   2.538  -0.089  0.2577 -0.2630 -0.2018
  269MOL0     C35417   2.585   2.530  -0.095 -0.0409  0.4752  0.4954
  269MOL0     C35418   2.524   2.419  -0.003 -0.2555  0.6178 -0.0378
  269MOL0     C35419   2.376   2.410  -0.015  1.0380 -0.4343  0.5301
  269MOL0    Cl35420   2.322   2.361  -0.173  0.1015 -0.1856  0.2236
  269MOL0     C35421   3.407   2.824  -0.107 -0.7468 -0.2584 -0.4542
  269MOL0     C35422   3.542   2.863  -0.117 -0.0508  0.8402 -0.5022
  269MOL0     O35423   3.867   2.623  -0.156  0.1626  0.5762 -0.5230
  269MOL0     C35424   4.128   2.723  -0.152 -0.0316 -0.4758  0.1181
  269MOL0     C35425   4.254   2.785  -0.153 -0.3156  0.7921  0.1364
  269MOL0     N35426   4.879   3.089   0.130  0.3915 -0.3286 -0.4705
  269MOL0     N35427   4.880   3.101   0.262 -0.3016 -0.3185  0.0619
  269MOL0     C35428   4.895   4.110   1.226 -0.0434  0.2239  0.0017
  269MOL0     C35429   5.001   4.187   1.284  0.6639 -0.2501  0.4651
  269MOL0     C35430   5.347   4.445   1.339  0.9946 -0.4904  0.6223
  269MOL0     C35431   5.465   4.372   1.361  0.2990  0.3498 -1.0762
  269MOL0     C35432   5.583   4.432   1.413  0.2975 -0.0090  0.2214
  269MOL0     C35433   5.574   4.569   1.451  0.1222 -0.1586  0.0060
  269MOL0     O35434   5.685   4.616   1.510  0.0335 -0.2348 -0.4038
  269MOL0     C35435   5.689   4.752   1.560 -0.3723  0.1203  0.3387
  269MOL0     C35436   5.801   4.775   1.661 -0.0185  0.0143 -0.0906
  269MOL0     C35437   5.937   4.818   1.607  0.1703 -0.8155 -0.9478
  269MOL0     C35438   6.032   4.864   1.726  0.0962 -0.6337  0.4487
  269MOL0     C35439   6.165   4.899   1.663 -0.0126  0.4094 -0.6653
  269MOL0     C35440   6.280   4.914   1.615 -0.4788 -0.0594 -0.5174
  269MOL0     C35441   5.459   4.644   1.423  0.5748  0.4622  0.1957
  269MOL0     C35442   5.345   4.588   1.358 -1.0387 -0.9215  0.7408
  269MOL0     H35443   5.233   4.154   1.050 -1.3474  1.3762  0.9517
  269MOL0     H35444   5.066   4.016   0.931  2.3056 -0.2155  0.3449
  269MOL0     H35445   4.922   3.785   1.009 -2.1445 -0.4139  1.1847
  269MOL0     H35446   4.907   3.900   0.879 -2.3439  1.2167 -1.8758
  269MOL0     H35447   4.652   3.820   0.877 -0.8684 -1.0966  0.3802
  269MOL0     H35448   4.680   3.726   1.009 -0.8788  0.5998  1.0025
  269MOL0     H35449   4.680   3.580   0.822  1.5594 -1.8591  2.2524
  269MOL0     H35450   4.846   3.592   0.886 -0.2613 -0.2394  0.1984
  269MOL0     H35451   4.735   3.736   0.636  0.1906  0.2230 -0.5829
  269MOL0     H35452   4.894   3.757   0.708 -1.0984 -0.9798  3.6758
  269MOL0     H35453   4.974   3.545   0.654 -1.1441 -1.6475  1.5243
  269MOL0     H35454   4.905   3.616   0.506 -0.2540 -0.4997 -0.0362
  269MOL0     H35455   4.698   3.482   0.557  0.0588 -1.5922 -0.8283
  269MOL0     H35456   4.785   3.396   0.680  2.8315 -2.4021 -0.4444
  269MOL0     H35457   4.879   3.417   0.382 -2.3585  1.6676 -0.4183
  269MOL0     H35458   4.944   3.308   0.507  0.0703 -0.1883 -1.1166
  269MOL0     H35459   4.649   3.278   0.420 -0.6832 -0.5175 -3.1323
  269MOL0     H35460   4.761   3.162   0.502 -0.6991  0.3280  1.1665
  269MOL0     H35461   4.665   3.332   0.168  0.5683  0.6433 -2.4695
  269MOL0     H35462   4.833   3.142  -0.116 -0.5327 -0.7425  0.1961
  269MOL0     H35463   4.746   3.294  -0.080  2.6702 -0.6833 -0.7320
  269MOL0     H35464   4.536   3.163  -0.083  0.8076  1.1619  0.6354
  269MOL0     H35465   4.609   3.029  -0.006 -1.2998  0.1667 -0.9459
  269MOL0     H35466   4.649   3.076  -0.304  2.3172  0.4389  1.4740
  269MOL0     H35467   4.737   2.954  -0.221  0.5176 -2.0276 -4.1357
  269MOL0     H35468   4.531   2.843  -0.143 -1.8507  0.3745  0.3820
  269MOL0     H35469   4.532   2.873  -0.316  2.0281 -0.1431  0.8123
  269MOL0     H35470   4.168   3.093  -0.251  2.3432 -1.2318 -1.9621
  269MOL0     H35471   3.941   2.994  -0.247 -0.4355  0.1208  1.0543
  269MOL0     H35472   3.647   2.632  -0.346 -0.1705  0.5452 -2.0286
  269MOL0     H35473   3.422   2.590  -0.347  3.1657 -1.1686  0.2015
  269MOL0     H35474   3.160   2.884  -0.278  1.6112  0.2698 -0.7640
  269MOL0     H35475   3.152   2.849  -0.104  1.5337 -1.2283 -0.4305
  269MOL0     H35476   3.013   2.718  -0.344 -0.8966  1.9076 -1.1482
  269MOL0     H35477   2.929   2.836  -0.271 -0.0206  0.9787  2.0881
  269MOL0     H35478   2.975   2.687  -0.043 -1.1520  0.0219  0.2911
  269MOL0     H35479   2.991   2.559  -0.177 -0.1853 -0.2480 -0.2284
  269MOL0     H35480   2.759   2.749  -0.118  1.9179  0.5717 -0.7207
  269MOL0     H35481   2.777   2.652  -0.270  0.6718  0.4397 -0.1391
  269MOL0     H35482   2.766   2.541   0.017  1.0515 -2.8764 -0.2703
  269MOL0     H35483   2.793   2.454  -0.134  1.3545 -0.1277  0.8143
  269MOL0     H35484   2.555   2.529  -0.200  3.5117 -0.8322 -0.6639
  269MOL0     H35485   2.555   2.620  -0.041  1.6897 -1.3024  4.9257
  269MOL0     H35486   2.562   2.320  -0.028  0.5090  1.1299 -0.9429
  269MOL0     H35487   2.558   2.440   0.099  2.5593 -0.5077 -0.6488
  269MOL0     H35488   2.332   2.510  -0.009  4.0500  0.9992  0.5327
  269MOL0     H35489   2.328   2.348   0.061 -0.7341  1.0899  0.7242
  269MOL0     H35490   3.335   2.872  -0.042 -0.3806 -1.2879  0.7418
  269MOL0     H35491   3.580   2.947  -0.059 -1.0538  0.7256  0.3318
  269MOL0     H35492   4.125   2.618  -0.126  1.0265  0.0828  2.8806
  269MOL0     H35493   4.343   2.731  -0.123  1.3454  3.2479 -0.0411
  269MOL0     H35494   4.800   4.102   1.277 -0.6270  1.7532 -0.7820
  269MOL0     H35495   4.979   4.243   1.374 -1.0591  0.2728 -0.2511
  269MOL0     H35496   5.476   4.266   1.345  0.3020  0.1007  0.4893
  269MOL0     H35497   5.676   4.380   1.436  0.6808  0.7316  0.3519
  269MOL0     H35498   5.600   4.777   1.618  1.0673 -0.7806  3.1474
  269MOL0     H35499   5.692   4.820   1.475 -0.5096  1.2034  1.1879
  269MOL0     H35500   5.755   4.855   1.720 -0.4488 -0.0906 -0.2787
  269MOL0     H35501   5.814   4.679   1.713  2.6834  0.3152 -0.0704
  269MOL0     H35502   5.931   4.898   1.533  0.0929 -0.9931 -1.1337
  269MOL0     H35503   5.993   4.744   1.549  0.6838 -0.1408 -1.3210
  269MOL0     H35504   5.986   4.949   1.777  1.4874 -0.2226  1.0504
  269MOL0     H35505   6.046   4.778   1.793 -0.2560 -0.9746  0.0880
  269MOL0     H35506   6.383   4.931   1.592  0.3407 -0.6183  2.3333
  269MOL0     H35507   5.466   4.749   1.450 -0.1303  0.2785  1.1662
  269MOL0     H35508   5.259   4.642   1.320 -0.3273 -0.9807 -1.0600
  270MOL0     O35509  10.739   2.961   1.076  0.1429 -0.6833  0.4020
  270MOL0     C35510  10.744   3.059   1.154 -1.0129  0.4285 -0.7710
  270MOL0     O35511  10.653   3.090   1.244  0.1797  0.8982 -0.1068
  270MOL0     C35512  10.525   3.050   1.257  0.2939  0.2467 -0.5490
  270MOL0     C35513  10.456   2.967   1.163 -0.1695  0.3663  0.5906
  270MOL0     C35514  10.331   2.912   1.190  0.0567  0.0727  0.6572
  270MOL0     C35515  10.259   2.948   1.300 -0.3609 -0.9298 -1.3367
  270MOL0     O35516  10.127   2.921   1.326  0.3931  0.2377 -0.1351
  270MOL0     C35517  10.061   2.827   1.237  0.7643 -0.0720 -0.5630
  270MOL0     C35518   9.907   2.820   1.257  0.4811  0.4388  0.1583
  270MOL0     C35519   9.831   2.771   1.135 -0.0166  0.0644  0.3388
  270MOL0     C35520   9.812   2.623   1.122  0.1046 -0.3380 -0.2488
  270MOL0     C35521   9.719   2.562   1.230 -0.5126 -0.7045  0.5475
  270MOL0     C35522   9.581   2.627   1.256  0.5786  0.2834 -0.0585
  270MOL0     C35523   9.495   2.554   1.363  0.1404  0.2111 -0.3673
  270MOL0     C35524   9.565   2.546   1.497 -0.5195  0.4061 -0.2932
  270MOL0     N35525   9.466   2.522   1.604 -0.2430 -0.2185 -0.1278
  270MOL0     C35526   9.452   2.406   1.680 -0.2620 -0.2929 -0.3207
  270MOL0     C35527   9.363   2.437   1.782  0.4397  0.0630  0.2751
  270MOL0     C35528   9.322   2.354   1.900  0.7851 -0.0110  0.1654
  270MOL0     C35529   9.210   2.260   1.867 -0.0449  0.8285 -0.2009
  270MOL0     C35530   9.168   2.159   1.971 -0.5116 -0.1800  0.6261
  270MOL0     C35531   9.034   2.090   1.945 -0.6862  0.2336  0.6832
  270MOL0     O35532   8.974   2.045   2.065 -0.5139  0.0214 -0.2643
  270MOL0     C35533   8.840   2.026   2.045 -0.1807  0.1047 -0.7027
  270MOL0     C35534   8.749   2.105   2.124 -0.2615 -0.9931  0.7183
  270MOL0     C35535   8.609   2.087   2.109 -0.5997  0.0060 -0.3418
  270MOL0     C35536   8.557   1.990   2.018 -0.2300 -0.7081 -0.5083
  270MOL0     C35537   8.411   1.958   1.996 -0.1357  0.4292 -0.5724
  270MOL0     O35538   8.375   1.831   1.961 -0.0249  0.5646 -0.5598
  270MOL0     C35539   8.254   1.816   1.891  0.0618  0.2521 -0.8133
  270MOL0     C35540   8.185   1.902   1.807  0.2631 -0.3134 -0.1093
  270MOL0     C35541   8.061   1.859   1.755 -0.5142  0.7722  0.8616
  270MOL0     C35542   8.007   1.735   1.800  1.2255  0.1912  0.0435
  270MOL0     O35543   7.879   1.706   1.754 -0.0494  0.7822  0.5547
  270MOL0     C35544   7.785   1.645   1.846  0.0109  0.9773 -0.6242
  270MOL0     C35545   7.650   1.706   1.838  0.7995 -0.1722  0.4017
  270MOL0     C35546   7.544   1.623   1.905 -0.5503 -0.6053 -1.2750
  270MOL0     C35547   7.482   1.520   1.813 -0.8087 -0.5452  0.1056
  270MOL0     C35548   7.376   1.434   1.888  0.1695  0.5078  0.6653
  270MOL0     C35549   7.428   1.378   2.020  0.3147 -0.2042 -1.1994
  270MOL0     C35550   7.337   1.267   2.077 -0.3409  0.5240  0.6138
  270MOL0     C35551   7.186   1.305   2.081 -0.6889  0.4052 -0.0891
  270MOL0    Cl35552   7.149   1.445   2.200  0.3146 -0.2075  0.3386
  270MOL0     C35553   8.074   1.649   1.871 -0.2907  0.4308  0.3502
  270MOL0     C35554   8.197   1.687   1.921  0.1348  0.4462 -0.7756
  270MOL0     O35555   8.336   2.051   2.020 -0.1444  0.5355 -0.5673
  270MOL0     C35556   8.644   1.919   1.947  0.0032  0.7705 -0.5894
  270MOL0     C35557   8.784   1.937   1.958 -0.6858 -0.3456  0.1644
  270MOL0     N35558   9.318   2.566   1.762 -0.8455 -0.6875  0.0652
  270MOL0     N35559   9.380   2.615   1.654  0.0075 -0.8770  0.8034
  270MOL0     C35560  10.318   3.036   1.398  0.4050  0.1169 -0.1392
  270MOL0     C35561  10.447   3.088   1.377 -0.8600 -0.0027 -0.4750
  270MOL0     C35562  10.866   3.147   1.151 -0.5198 -0.0027 -0.3360
  270MOL0     C35563  10.975   3.121   1.064  0.9707  0.1015  0.3367
  270MOL0     C35564  11.084   3.207   1.065 -0.9929 -0.7632 -0.0819
  270MOL0     C35565  11.105   3.311   1.160 -0.5542 -0.4869 -0.2893
  270MOL0     O35566  11.217   3.385   1.152 -0.2604 -0.4616 -0.4387
  270MOL0     C35567  11.261   3.471   1.261  0.7448  0.5009  0.1756
  270MOL0     C35568  11.356   3.572   1.209  0.1384  0.2368 -1.3498
  270MOL0     C35569  11.489   3.505   1.177  0.0820  0.3935 -0.3586
  270MOL0     C35570  11.617   3.585   1.159 -0.1142  0.3482 -1.0230
  270MOL0     C35571  11.596   3.668   1.035  0.0052  0.3091 -0.5013
  270MOL0     C35572  11.569   3.744   0.944  0.0934  0.3565  0.3870
  270MOL0     C35573  10.993   3.336   1.241 -0.3369 -0.3224 -0.1671
  270MOL0     C35574  10.878   3.256   1.243 -0.0837  0.5394  0.4916
  270MOL0     H35575  10.505   2.939   1.070 -1.6918 -2.7605  0.6065
  270MOL0     H35576  10.286   2.856   1.109 -0.7694 -0.3744  1.4048
  270MOL0     H35577  10.094   2.725   1.257  2.2967  1.0940  3.8996
  270MOL0     H35578  10.081   2.845   1.131 -3.1249 -2.0912 -1.8403
  270MOL0     H35579   9.876   2.922   1.283 -0.0849  0.1552  0.6343
  270MOL0     H35580   9.869   2.757   1.338 -1.3200  0.7824 -0.3729
  270MOL0     H35581   9.881   2.801   1.042 -0.4697 -0.3553 -0.0491
  270MOL0     H35582   9.733   2.819   1.137 -1.5903 -2.9434  1.9708
  270MOL0     H35583   9.767   2.592   1.028 -2.3335 -0.5366  0.9057
  270MOL0     H35584   9.913   2.579   1.125  1.4635  2.5592 -0.2741
  270MOL0     H35585   9.770   2.558   1.326  1.4640 -1.0581 -0.4775
  270MOL0     H35586   9.700   2.458   1.203 -0.1544 -0.9067  1.0818
  270MOL0     H35587   9.528   2.624   1.161  3.1029 -0.8523 -1.5235
  270MOL0     H35588   9.590   2.731   1.289  2.5663  0.3327 -0.6007
  270MOL0     H35589   9.404   2.613   1.375 -0.5745 -1.3492  2.7952
  270MOL0     H35590   9.455   2.461   1.321 -0.5915 -0.9568  2.6563
  270MOL0     H35591   9.620   2.635   1.530  1.6666 -1.7858  2.5598
  270MOL0     H35592   9.636   2.462   1.494  0.2180  1.0443 -2.1710
  270MOL0     H35593   9.522   2.323   1.674  1.4957  1.1822 -1.3028
  270MOL0     H35594   9.305   2.428   1.979 -0.6055  2.0212 -1.8989
  270MOL0     H35595   9.406   2.297   1.942  2.1214  3.0226  1.9681
  270MOL0     H35596   9.227   2.209   1.772 -0.2610  0.0028  0.2023
  270MOL0     H35597   9.123   2.321   1.840  0.0042  0.8195 -0.3869
  270MOL0     H35598   9.248   2.084   1.975  0.7255  0.8289 -2.2979
  270MOL0     H35599   9.162   2.213   2.066 -1.7485 -0.0331  0.4775
  270MOL0     H35600   9.045   2.012   1.870  0.7418 -0.3235  1.4407
  270MOL0     H35601   8.971   2.168   1.900 -0.0883 -0.2752 -1.1271
  270MOL0     H35602   8.796   2.180   2.186 -2.2184  0.9320  0.0192
  270MOL0     H35603   8.543   2.146   2.171  1.0958  0.6674  0.8949
  270MOL0     H35604   8.222   2.002   1.788 -1.7636  0.9354  2.0627
  270MOL0     H35605   8.019   1.912   1.670 -0.6613 -2.2825 -1.1496
  270MOL0     H35606   7.829   1.650   1.946  0.7097  1.6943 -0.9539
  270MOL0     H35607   7.780   1.541   1.810 -0.1055  0.5099  0.6809
  270MOL0     H35608   7.617   1.715   1.735 -0.0327 -0.8757  0.5924
  270MOL0     H35609   7.656   1.810   1.872  1.7443  0.5692 -1.8496
  270MOL0     H35610   7.463   1.694   1.924  0.1577  0.2913 -1.5440
  270MOL0     H35611   7.582   1.590   2.003 -0.4168 -0.2103 -1.1920
  270MOL0     H35612   7.425   1.580   1.742 -1.6270  0.2849  1.4213
  270MOL0     H35613   7.566   1.458   1.781 -0.0050 -1.9664  4.3241
  270MOL0     H35614   7.342   1.364   1.811 -1.0320  3.3170 -1.5373
  270MOL0     H35615   7.295   1.505   1.909  1.1655  2.4236 -1.6001
  270MOL0     H35616   7.446   1.455   2.096  2.8168 -0.2467 -1.6791
  270MOL0     H35617   7.526   1.338   1.993 -0.1042 -1.6286 -0.7051
  270MOL0     H35618   7.339   1.176   2.016  1.2269 -0.6100  2.2749
  270MOL0     H35619   7.375   1.236   2.175 -0.0153 -1.6165 -0.1325
  270MOL0     H35620   7.129   1.216   2.111  0.4613 -0.1522  0.4929
  270MOL0     H35621   7.154   1.338   1.982 -0.0690  1.2271 -0.0263
  270MOL0     H35622   8.023   1.561   1.908 -3.4509  2.4691  1.2262
  270MOL0     H35623   8.243   1.611   1.982 -0.7364  0.5347  0.0107
  270MOL0     H35624   8.625   1.858   1.860  0.7467  1.3208 -1.1573
  270MOL0     H35625   8.827   1.874   1.880 -3.9103 -1.1779 -1.0962
  270MOL0     H35626  10.256   3.065   1.482 -1.6438  0.6645 -1.7499
  270MOL0     H35627  10.492   3.147   1.456  0.2210 -1.7837  0.2988
  270MOL0     H35628  10.973   3.041   0.991 -0.5355  0.6127 -0.2189
  270MOL0     H35629  11.172   3.200   1.001 -1.9605 -0.8076 -1.4443
  270MOL0     H35630  11.302   3.403   1.335 -0.9288 -4.9582 -3.3141
  270MOL0     H35631  11.180   3.527   1.309  1.3380  1.1065  0.4871
  270MOL0     H35632  11.325   3.633   1.124 -2.4920  0.7277 -0.1315
  270MOL0     H35633  11.367   3.642   1.293  4.1447 -0.0377 -1.4596
  270MOL0     H35634  11.474   3.434   1.095 -0.7132  0.7899 -0.5670
  270MOL0     H35635  11.514   3.438   1.260  0.0896 -0.2469 -0.8739
  270MOL0     H35636  11.635   3.651   1.244 -1.9172 -2.6093  1.8745
  270MOL0     H35637  11.699   3.514   1.143 -1.9782 -1.5731 -2.7603
  270MOL0     H35638  11.554   3.815   0.865 -2.2852  0.7265  1.0906
  270MOL0     H35639  10.989   3.413   1.318  0.4340  2.7410 -2.9630
  270MOL0     H35640  10.803   3.275   1.319 -0.9416  1.2696 -0.5200
  271MOL0     O35641   4.390   9.944   0.989 -0.2109 -0.7442 -0.6016
  271MOL0     C35642   4.407  10.064   0.961 -0.4314 -0.2763  0.1874
  271MOL0     O35643   4.321  10.166   0.997  0.3921 -0.0218 -0.4941
  271MOL0     C35644   4.223  10.146   1.090 -0.2640  0.1695 -1.1602
  271MOL0     C35645   4.103  10.219   1.076 -0.0860  0.1197  0.4782
  271MOL0     C35646   4.002  10.213   1.166  0.1178  0.9599  0.0151
  271MOL0     C35647   4.011  10.123   1.283 -0.4566 -0.1075 -0.6560
  271MOL0     O35648   3.923  10.104   1.385 -0.5982  0.2490 -0.3477
  271MOL0     C35649   3.815  10.193   1.403  0.5198  1.1792 -0.2319
  271MOL0     C35650   3.765  10.176   1.546  0.2145 -0.4000  0.7688
  271MOL0     C35651   3.626  10.223   1.564  0.4029 -0.5795  0.8733
  271MOL0     C35652   3.569  10.187   1.702 -0.1691  0.9855  0.1438
  271MOL0     C35653   3.421  10.238   1.712  0.1303  0.5192  0.8075
  271MOL0     C35654   3.427  10.387   1.747  0.3749 -0.6465 -0.0733
  271MOL0     C35655   3.293  10.437   1.814  0.1766  0.2933  1.2816
  271MOL0     C35656   3.288  10.420   1.964 -0.0427 -0.1194  0.0202
  271MOL0     N35657   3.171  10.489   2.028 -0.4160 -0.6089 -0.5001
  271MOL0     C35658   3.168  10.626   2.033  0.4232 -0.2460 -0.3705
  271MOL0     C35659   3.054  10.644   2.116  0.8575  0.1078  0.6855
  271MOL0     C35660   3.009  10.781   2.166  0.1785  0.5984 -0.2372
  271MOL0     C35661   2.868  10.800   2.101  0.5294 -0.8919  0.8021
  271MOL0     C35662   2.842  10.949   2.076 -0.8061 -0.3325  0.7159
  271MOL0     C35663   2.701  10.973   2.014 -0.1785  1.0153  0.3938
  271MOL0     O35664   2.611  10.898   2.096  0.1460  0.7458 -0.1191
  271MOL0     C35665   2.483  10.946   2.123 -0.2230 -0.0171 -0.1738
  271MOL0     C35666   2.425  10.900   2.242 -0.3689 -0.6945  0.4638
  271MOL0     C35667   2.292  10.931   2.258  0.2481  0.6167 -0.1178
  271MOL0     C35668   2.211  11.009   2.170 -0.0043  0.2004 -0.2922
  271MOL0     C35669   2.067  11.030   2.201  0.8968  0.2703 -0.2500
  271MOL0     O35670   1.996  11.112   2.125  0.1436  0.4655  0.1752
  271MOL0     C35671   1.866  11.150   2.151 -0.7080  0.5184 -0.1879
  271MOL0     C35672   1.759  11.061   2.158 -1.0715  0.1757  0.2795
  271MOL0     C35673   1.634  11.104   2.194 -0.2792  0.3386  0.9522
  271MOL0     C35674   1.610  11.236   2.218 -0.3825 -0.4629 -0.5193
  271MOL0     O35675   1.478  11.266   2.235 -0.0489 -0.8015  0.2922
  271MOL0     C35676   1.427  11.406   2.245 -1.1483  1.0858  0.7279
  271MOL0     C35677   1.449  11.458   2.390 -0.4300 -1.3256 -0.5279
  271MOL0     C35678   1.380  11.594   2.397  0.5817 -0.3955 -0.2062
  271MOL0     C35679   1.353  11.646   2.541 -0.5688  0.1058  0.4812
  271MOL0     C35680   1.245  11.757   2.539 -0.3864 -0.4510 -0.3962
  271MOL0     C35681   1.279  11.880   2.469  0.1727  0.4008  0.1377
  271MOL0     C35682   1.185  11.985   2.510 -0.0566  0.1252  0.5722
  271MOL0     C35683   1.204  12.109   2.413  0.1273 -0.1086  0.3837
  271MOL0    Cl35684   1.086  12.235   2.444  0.2442 -0.0292 -0.1647
  271MOL0     C35685   1.709  11.326   2.200 -0.1702  0.0686  1.0221
  271MOL0     C35686   1.841  11.286   2.164  0.4184  0.8140  0.0247
  271MOL0     O35687   2.020  10.971   2.294 -0.1634  0.2087  0.1659
  271MOL0     C35688   2.279  11.047   2.051 -0.2223 -0.2993  0.1527
  271MOL0     C35689   2.418  11.014   2.026  1.4101 -0.2071 -0.4168
  271MOL0     N35690   2.996  10.517   2.146 -0.2400  0.1261 -0.4322
  271MOL0     N35691   3.062  10.430   2.082 -0.4545 -0.3204  0.1614
  271MOL0     C35692   4.131  10.042   1.299 -0.2464  0.3254  0.2164
  271MOL0     C35693   4.235  10.057   1.202  0.3455 -0.3588  0.3276
  271MOL0     C35694   4.520  10.101   0.877 -0.2678  0.1941 -0.2623
  271MOL0     C35695   4.534  10.232   0.834  0.0855  0.1362 -0.6197
  271MOL0     C35696   4.637  10.264   0.748 -0.6099 -0.0590 -0.0032
  271MOL0     C35697   4.733  10.167   0.705  0.8070 -0.3523 -0.1189
  271MOL0     O35698   4.828  10.213   0.617 -0.0612 -0.4707  0.2518
  271MOL0     C35699   4.963  10.167   0.652  0.0446  1.3157  0.3694
  271MOL0     C35700   5.056  10.264   0.583 -0.0125  0.1683  0.0799
  271MOL0     C35701   5.201  10.223   0.583  0.1035 -0.3079 -0.1339
  271MOL0     C35702   5.282  10.342   0.524  0.2853  0.1684  0.6062
  271MOL0     C35703   5.423  10.299   0.523  0.0845  1.1103 -0.3628
  271MOL0     C35704   5.543  10.278   0.516 -0.3244 -0.0363  0.1223
  271MOL0     C35705   4.714  10.033   0.742  0.0765 -0.5453  0.2482
  271MOL0     C35706   4.606  10.001   0.823  0.3397 -0.1690  0.4075
  271MOL0     H35707   4.087  10.287   0.993  0.3156  0.0717  0.3573
  271MOL0     H35708   3.916  10.276   1.148  0.8439  2.9494  2.7643
  271MOL0     H35709   3.738  10.159   1.334  1.4373  0.5468 -0.9666
  271MOL0     H35710   3.846  10.295   1.379  2.8724  0.4062 -0.7289
  271MOL0     H35711   3.835  10.229   1.611  2.5178 -2.0804 -0.1903
  271MOL0     H35712   3.773  10.074   1.582 -2.1318 -0.9971 -0.1948
  271MOL0     H35713   3.559  10.175   1.493  1.3011  0.1536 -0.5123
  271MOL0     H35714   3.619  10.331   1.543 -1.5926 -0.7233  0.6278
  271MOL0     H35715   3.563  10.079   1.717 -2.0994  1.0383  0.0488
  271MOL0     H35716   3.625  10.240   1.780 -1.7815  0.5447  1.6520
  271MOL0     H35717   3.367  10.186   1.791 -0.7387 -0.2108 -0.2533
  271MOL0     H35718   3.361  10.222   1.622 -3.3191 -0.3636  3.0891
  271MOL0     H35719   3.450  10.436   1.652 -2.2262  1.4107  0.2439
  271MOL0     H35720   3.508  10.404   1.820 -0.7042 -0.8193  1.2020
  271MOL0     H35721   3.292  10.542   1.784 -0.9675 -0.0999 -0.1629
  271MOL0     H35722   3.211  10.378   1.771  1.0265 -1.3003  1.7573
  271MOL0     H35723   3.377  10.442   2.024  0.4202 -0.9896 -0.3276
  271MOL0     H35724   3.279  10.312   1.982 -0.9073 -0.1089 -0.3351
  271MOL0     H35725   3.246  10.698   2.009  1.0425  0.1398  2.5050
  271MOL0     H35726   3.079  10.863   2.150  0.0684  0.4547 -1.5764
  271MOL0     H35727   2.994  10.780   2.275  0.5386  0.0332 -0.1905
  271MOL0     H35728   2.788  10.766   2.168  0.7107  0.8562  1.9690
  271MOL0     H35729   2.842  10.751   2.006  1.0362  2.3416 -1.1588
  271MOL0     H35730   2.855  10.992   2.176  1.8369  0.5111  0.1018
  271MOL0     H35731   2.913  10.993   2.006  1.9760 -1.6471  2.5041
  271MOL0     H35732   2.691  10.949   1.907  0.2129  2.5675 -0.0191
  271MOL0     H35733   2.690  11.082   2.019  2.3822  1.3819 -0.3820
  271MOL0     H35734   2.463  10.845   2.328  0.4721 -0.6724  0.1133
  271MOL0     H35735   2.238  10.901   2.347 -2.0359 -0.9448 -1.9183
  271MOL0     H35736   1.781  10.958   2.133 -0.5358  0.5196 -0.7334
  271MOL0     H35737   1.556  11.029   2.196 -0.7022  0.5499 -2.4265
  271MOL0     H35738   1.321  11.409   2.219 -1.4281 -2.6791  0.9661
  271MOL0     H35739   1.479  11.470   2.173 -1.4389  2.3342  1.5963
  271MOL0     H35740   1.555  11.470   2.413 -0.4045  0.9073 -1.5091
  271MOL0     H35741   1.402  11.390   2.462 -0.3423  0.3009  1.1314
  271MOL0     H35742   1.282  11.596   2.348 -0.0473  0.0855  1.0391
  271MOL0     H35743   1.435  11.673   2.344 -2.1971  0.9413 -1.2845
  271MOL0     H35744   1.304  11.569   2.601 -2.1048 -0.3626 -1.2867
  271MOL0     H35745   1.445  11.670   2.595  0.7579 -0.1883 -1.5483
  271MOL0     H35746   1.210  11.781   2.640 -0.7070 -1.9690 -0.1155
  271MOL0     H35747   1.156  11.729   2.482 -0.0998 -0.9161 -0.6177
  271MOL0     H35748   1.267  11.859   2.362 -1.5913 -0.7903  0.5203
  271MOL0     H35749   1.382  11.913   2.488  0.3028  0.0813  0.0020
  271MOL0     H35750   1.082  11.952   2.495 -0.3733  0.8463  1.1353
  271MOL0     H35751   1.206  12.004   2.616  1.0578 -1.1187  0.6047
  271MOL0     H35752   1.203  12.087   2.305  2.2411 -2.3752  0.7280
  271MOL0     H35753   1.297  12.166   2.425 -0.6080  1.8841 -2.2085
  271MOL0     H35754   1.684  11.432   2.208  0.5696  0.2221  1.3547
  271MOL0     H35755   1.924  11.355   2.159 -0.0594  1.6033  2.1230
  271MOL0     H35756   2.222  11.095   1.973 -1.9363 -1.2322  0.7673
  271MOL0     H35757   2.471  11.039   1.935  2.1424 -0.1537  0.0206
  271MOL0     H35758   4.143   9.985   1.390 -1.3236  1.7280  1.2770
  271MOL0     H35759   4.332  10.011   1.215  1.0919  0.5344 -1.6697
  271MOL0     H35760   4.465  10.311   0.863  0.8611  0.5766  0.0771
  271MOL0     H35761   4.659  10.365   0.712 -0.1646  1.4611  4.0448
  271MOL0     H35762   4.975  10.064   0.618  1.4047  1.5404  0.1183
  271MOL0     H35763   4.991  10.162   0.757  1.7651 -0.0340 -0.1149
  271MOL0     H35764   5.014  10.285   0.485 -0.5800  2.5728  0.7785
  271MOL0     H35765   5.045  10.362   0.631  2.3779  1.2283 -1.3585
  271MOL0     H35766   5.198  10.138   0.515  0.8768 -0.0951 -0.4400
  271MOL0     H35767   5.234  10.200   0.685  0.1956  1.5151  0.2927
  271MOL0     H35768   5.246  10.377   0.427  1.3711  2.6073  1.0186
  271MOL0     H35769   5.287  10.431   0.586 -0.8227  0.1851  0.6918
  271MOL0     H35770   5.645  10.248   0.501 -0.2948  0.1602 -0.0774
  271MOL0     H35771   4.772   9.953   0.698  1.3417  0.6175 -0.2729
  271MOL0     H35772   4.589   9.895   0.839 -0.5141 -0.0969  0.0625
  272MOL0     O35773   3.196   2.087   0.917  1.2736 -0.6384  1.0018
  272MOL0     C35774   3.174   2.206   0.924 -0.6921  0.1411  0.1416
  272MOL0     O35775   3.265   2.304   0.903 -0.8051 -0.2495  0.1206
  272MOL0     C35776   3.384   2.261   0.840 -0.5936 -0.2051 -0.2948
  272MOL0     C35777   3.494   2.200   0.908  0.3507 -0.2060 -0.4863
  272MOL0     C35778   3.606   2.160   0.825 -1.1851  0.4219  0.0297
  272MOL0     C35779   3.610   2.188   0.687 -0.0005  0.3790  0.1874
  272MOL0     O35780   3.709   2.181   0.603 -0.0742 -0.4515 -0.1878
  272MOL0     C35781   3.846   2.169   0.653  0.6650 -0.4710  0.1812
  272MOL0     C35782   3.951   2.202   0.555 -0.0824  0.3080 -0.3684
  272MOL0     C35783   4.082   2.212   0.627 -0.2350  0.4277 -0.1424
  272MOL0     C35784   4.125   2.077   0.694 -0.4374  0.2334 -0.1763
  272MOL0     C35785   4.270   2.055   0.706 -0.9601  0.2153 -0.0270
  272MOL0     C35786   4.304   1.927   0.780 -0.2134 -0.0259  0.9903
  272MOL0     C35787   4.454   1.911   0.799  0.2369  0.5290  0.4985
  272MOL0     C35788   4.491   1.772   0.843  1.1931 -0.2648  0.2781
  272MOL0     N35789   4.470   1.737   0.983 -0.2877 -0.1507 -0.1496
  272MOL0     C35790   4.433   1.616   1.039  0.2411  0.0846 -0.0509
  272MOL0     C35791   4.458   1.627   1.169 -0.3685 -0.2172  0.2488
  272MOL0     C35792   4.417   1.537   1.285 -0.7852  0.3403 -0.6802
  272MOL0     C35793   4.287   1.586   1.357  0.6922  0.2598  0.6525
  272MOL0     C35794   4.165   1.570   1.267 -1.2275  0.2902  0.5802
  272MOL0     C35795   4.045   1.559   1.355  0.7216 -0.5414  0.1942
  272MOL0     O35796   3.926   1.555   1.274 -0.1803 -0.4298 -0.3174
  272MOL0     C35797   3.800   1.554   1.333  0.1795  0.5671 -0.0951
  272MOL0     C35798   3.689   1.558   1.245  0.2206 -0.5449  0.1378
  272MOL0     C35799   3.556   1.566   1.288 -0.3209  0.4940 -0.1016
  272MOL0     C35800   3.538   1.547   1.425  0.5670  0.4055  0.3125
  272MOL0     C35801   3.402   1.558   1.486 -0.0148 -1.0712  0.0043
  272MOL0     O35802   3.309   1.628   1.415 -0.5343  0.5851  0.0625
  272MOL0     C35803   3.174   1.636   1.455 -0.8511  0.7731  0.2660
  272MOL0     C35804   3.093   1.531   1.411  0.0388  0.5647 -0.6512
  272MOL0     C35805   2.958   1.528   1.449 -0.5051 -0.4969 -0.8210
  272MOL0     C35806   2.911   1.614   1.546  0.8522  1.2764 -1.0832
  272MOL0     O35807   2.776   1.608   1.574  0.3749  0.0950  0.4830
  272MOL0     C35808   2.687   1.721   1.596 -0.1806 -0.1204 -0.0198
  272MOL0     C35809   2.545   1.683   1.543 -0.2390 -0.6447  0.2166
  272MOL0     C35810   2.435   1.739   1.636 -0.4683  0.1665 -0.0680
  272MOL0     C35811   2.292   1.717   1.582 -0.1728 -0.7313  0.2725
  272MOL0     C35812   2.187   1.772   1.682  0.9714 -0.0835  0.4497
  272MOL0     C35813   2.041   1.728   1.637  0.6119 -0.3898 -0.2017
  272MOL0     C35814   1.931   1.767   1.743  0.3483 -1.2766 -0.0308
  272MOL0     C35815   1.881   1.913   1.724  0.1865 -0.1163  0.2121
  272MOL0    Cl35816   1.720   1.912   1.794  0.4223  0.4021 -0.2412
  272MOL0     C35817   2.995   1.706   1.600 -0.5874 -0.1743  0.7388
  272MOL0     C35818   3.125   1.728   1.549  0.6692  0.0316  0.0797
  272MOL0     O35819   3.383   1.514   1.599  0.4843  0.4448 -0.3845
  272MOL0     C35820   3.646   1.533   1.516 -0.4697 -0.0657  0.4206
  272MOL0     C35821   3.775   1.531   1.467 -0.3254 -0.3413 -0.0723
  272MOL0     N35822   4.527   1.741   1.201  0.5458  0.0347 -0.0685
  272MOL0     N35823   4.540   1.803   1.088  0.1453 -0.3785  0.1364
  272MOL0     C35824   3.496   2.243   0.633 -0.0082  0.3021  0.7761
  272MOL0     C35825   3.383   2.271   0.705 -0.1181 -0.4637  0.5654
  272MOL0     C35826   3.041   2.255   0.963 -0.3538 -0.0641  0.2515
  272MOL0     C35827   3.027   2.390   1.003 -0.0314 -0.1181  0.1973
  272MOL0     C35828   2.910   2.442   1.044  0.2165  1.0722 -0.6868
  272MOL0     C35829   2.797   2.359   1.045 -0.0528 -0.8748  0.5945
  272MOL0     O35830   2.681   2.434   1.073  0.1353  0.1088 -0.1803
  272MOL0     C35831   2.571   2.363   1.112  0.2550  0.1873 -0.0059
  272MOL0     C35832   2.481   2.442   1.205 -0.8241  1.3160 -0.3463
  272MOL0     C35833   2.403   2.553   1.136 -0.8837  0.0946  0.0181
  272MOL0     C35834   2.321   2.635   1.233 -0.5678 -0.6780  0.4347
  272MOL0     C35835   2.241   2.571   1.338 -0.7240  0.3052  0.3812
  272MOL0     C35836   2.162   2.524   1.421 -0.0350 -0.9486 -0.1576
  272MOL0     C35837   2.805   2.219   1.014  0.4037 -0.2667 -0.0634
  272MOL0     C35838   2.932   2.166   0.980  0.0259 -0.2548 -1.0985
  272MOL0     H35839   3.500   2.183   1.015 -2.9965  0.9284 -0.0061
  272MOL0     H35840   3.692   2.106   0.863 -0.2374 -2.0687 -4.8114
  272MOL0     H35841   3.860   2.063   0.676 -2.6309 -1.3799 -1.4044
  272MOL0     H35842   3.854   2.226   0.746 -3.1960 -3.0150  2.3696
  272MOL0     H35843   3.934   2.301   0.513 -0.7970 -0.0060 -0.8298
  272MOL0     H35844   3.955   2.125   0.477 -0.7772 -0.5039  0.3830
  272MOL0     H35845   4.082   2.288   0.705  0.0629 -0.1900  0.4702
  272MOL0     H35846   4.160   2.241   0.555 -1.2258 -0.6503 -1.7155
  272MOL0     H35847   4.073   2.073   0.790  0.8696 -0.2569  0.5312
  272MOL0     H35848   4.094   1.987   0.640 -1.7739  0.6308 -0.0913
  272MOL0     H35849   4.312   2.143   0.755 -1.4119  0.2047  0.3951
  272MOL0     H35850   4.313   2.045   0.606  3.5684  0.1344  1.7044
  272MOL0     H35851   4.263   1.847   0.718 -2.2368  2.4023 -1.0717
  272MOL0     H35852   4.258   1.925   0.879  1.1224 -1.5868  1.6179
  272MOL0     H35853   4.509   1.928   0.706  2.1008  3.0038  1.9110
  272MOL0     H35854   4.496   1.987   0.866  1.4919  0.4266 -0.1388
  272MOL0     H35855   4.595   1.760   0.813  1.7298  1.3745  1.3396
  272MOL0     H35856   4.422   1.708   0.787 -2.7668  4.7350 -1.2905
  272MOL0     H35857   4.376   1.537   0.992  1.2025 -0.2403 -0.6877
  272MOL0     H35858   4.503   1.535   1.352 -0.1830  0.1613 -1.4423
  272MOL0     H35859   4.394   1.434   1.256 -0.7343 -0.2825  1.3363
  272MOL0     H35860   4.306   1.690   1.383  1.8742  0.3651 -0.5293
  272MOL0     H35861   4.257   1.538   1.450 -0.0730  2.2601  1.4789
  272MOL0     H35862   4.147   1.659   1.206 -2.6578 -0.3843 -0.0448
  272MOL0     H35863   4.174   1.485   1.199  0.2219 -0.4142  1.6110
  272MOL0     H35864   4.035   1.651   1.413  1.5296 -1.9081  2.6493
  272MOL0     H35865   4.047   1.468   1.415  0.9779 -0.2660  0.6097
  272MOL0     H35866   3.692   1.580   1.139 -0.4539  0.5685  0.3376
  272MOL0     H35867   3.477   1.586   1.215 -0.3698 -0.0119 -0.1893
  272MOL0     H35868   3.133   1.465   1.335 -2.9922  0.9153 -2.7301
  272MOL0     H35869   2.897   1.448   1.409  0.3881 -2.2503  1.1825
  272MOL0     H35870   2.722   1.807   1.540  3.8660 -2.0111 -0.7369
  272MOL0     H35871   2.668   1.746   1.701  0.2417  2.1988 -0.4544
  272MOL0     H35872   2.546   1.574   1.546 -0.4534 -0.6227  1.6283
  272MOL0     H35873   2.521   1.719   1.442 -0.9008  2.0225  1.2329
  272MOL0     H35874   2.451   1.846   1.655 -1.8350  0.6123 -1.2684
  272MOL0     H35875   2.451   1.689   1.732 -2.3020 -1.8354 -0.7342
  272MOL0     H35876   2.286   1.777   1.491  0.7171  1.7059  1.7225
  272MOL0     H35877   2.268   1.611   1.569 -0.5338 -0.7557  1.0826
  272MOL0     H35878   2.188   1.881   1.677  0.9220 -0.1354 -1.6113
  272MOL0     H35879   2.199   1.738   1.785 -0.1214  0.7176  0.8611
  272MOL0     H35880   2.047   1.618   1.636  0.5795 -0.4214  1.2688
  272MOL0     H35881   2.015   1.776   1.543 -1.6965  5.2546  2.8562
  272MOL0     H35882   1.845   1.702   1.723  0.8310 -1.4284 -1.7944
  272MOL0     H35883   1.971   1.762   1.845  1.8332 -0.0363 -0.5228
  272MOL0     H35884   1.859   1.945   1.622  1.3673 -1.8637 -0.6325
  272MOL0     H35885   1.954   1.981   1.769 -1.2457 -0.1110  2.7161
  272MOL0     H35886   2.959   1.781   1.670  1.2407  1.1502  0.3506
  272MOL0     H35887   3.170   1.823   1.575 -4.7056  3.6951 -2.0544
  272MOL0     H35888   3.637   1.520   1.623  2.5513  2.0620  1.0527
  272MOL0     H35889   3.858   1.503   1.531  1.8245  1.1748 -2.0640
  272MOL0     H35890   3.495   2.285   0.533 -1.4861 -0.7766  0.3057
  272MOL0     H35891   3.298   2.320   0.657  0.6372 -0.1394 -0.4669
  272MOL0     H35892   3.115   2.453   1.007  1.7083 -2.2981 -1.2519
  272MOL0     H35893   2.906   2.546   1.074 -0.0167  0.2947  2.3334
  272MOL0     H35894   2.602   2.270   1.161 -3.2728 -0.8728  0.5033
  272MOL0     H35895   2.523   2.339   1.017 -0.1170  1.9796 -0.3068
  272MOL0     H35896   2.408   2.373   1.249  0.6690  0.0772  0.3011
  272MOL0     H35897   2.540   2.478   1.290 -2.3279 -0.5017  1.5972
  272MOL0     H35898   2.340   2.504   1.061  0.0326 -1.7194  0.3807
  272MOL0     H35899   2.473   2.614   1.078  0.0454  0.3634  1.3667
  272MOL0     H35900   2.383   2.703   1.292  0.7184 -2.3860  1.1146
  272MOL0     H35901   2.265   2.693   1.159  3.2261  1.1984 -1.2469
  272MOL0     H35902   2.092   2.478   1.487  0.1218 -0.5021  0.3322
  272MOL0     H35903   2.720   2.153   1.024  0.0693  0.4400  2.6947
  272MOL0     H35904   2.950   2.061   0.961  0.3946 -0.4157  0.0831
  273MOL0     O35905   3.192   6.600   6.797 -0.0273  0.1422 -0.1683
  273MOL0     C35906   3.261   6.653   6.883 -0.1981 -0.2001  1.0167
  273MOL0     O35907   3.230   6.675   7.012  0.0035  0.3211  0.3221
  273MOL0     C35908   3.104   6.639   7.070 -0.7416  0.0382  0.5185
  273MOL0     C35909   3.097   6.659   7.205  0.0498  1.0122 -0.5214
  273MOL0     C35910   2.984   6.623   7.284  0.5695 -1.0577 -0.3635
  273MOL0     C35911   2.864   6.571   7.227 -0.4813  1.0513  0.1733
  273MOL0     O35912   2.742   6.544   7.292  0.1674 -0.1020 -0.2107
  273MOL0     C35913   2.728   6.605   7.420  0.9310 -0.0669 -1.4587
  273MOL0     C35914   2.585   6.578   7.483 -0.4557 -0.2940  0.2441
  273MOL0     C35915   2.573   6.435   7.544 -0.4052  0.1245  0.3006
  273MOL0     C35916   2.445   6.416   7.624  0.0500  0.4617 -0.4675
  273MOL0     C35917   2.318   6.448   7.536  0.5449  0.2329 -0.2604
  273MOL0     C35918   2.265   6.335   7.446  0.5633 -0.7441  0.3793
  273MOL0     C35919   2.105   6.339   7.417  0.1902  0.3733 -0.4973
  273MOL0     C35920   2.056   6.212   7.335  0.8977 -0.0540  0.0627
  273MOL0     N35921   1.907   6.222   7.321 -0.2641 -0.0965  0.2847
  273MOL0     C35922   1.848   6.326   7.242 -0.8526 -0.1805  0.3592
  273MOL0     C35923   1.721   6.304   7.265  0.5672 -0.4585  0.0470
  273MOL0     C35924   1.609   6.360   7.183  0.2042  0.5207 -0.6363
  273MOL0     C35925   1.468   6.312   7.224 -0.1942 -0.0927 -0.4952
  273MOL0     C35926   1.359   6.399   7.148 -0.8536  0.0594 -0.8406
  273MOL0     C35927   1.222   6.340   7.202  0.0513  0.1378 -0.0739
  273MOL0     O35928   1.116   6.407   7.130  0.2172 -0.2965  0.7455
  273MOL0     C35929   0.992   6.358   7.162 -0.5504 -0.1059 -0.9531
  273MOL0     C35930   0.892   6.419   7.089  1.1173  0.5673  0.1166
  273MOL0     C35931   0.755   6.384   7.103  0.6423 -0.0434  0.2519
  273MOL0     C35932   0.715   6.282   7.196 -0.5942  0.1671  0.0293
  273MOL0     C35933   0.572   6.270   7.220 -0.1010 -0.2779 -1.2034
  273MOL0     O35934   0.542   6.206   7.331 -0.7018 -0.3400 -0.7748
  273MOL0     C35935   0.416   6.212   7.385  0.4768 -0.6760 -0.5340
  273MOL0     C35936   0.344   6.093   7.390  0.7221  0.7964  0.2554
  273MOL0     C35937   0.208   6.091   7.432 -0.4521 -0.1597  1.0694
  273MOL0     C35938   0.154   6.209   7.477  0.5855 -0.3326 -0.2600
  273MOL0     O35939   0.025   6.207   7.510  0.1664  0.2090  0.2059
  273MOL0     C35940  -0.029   6.304   7.598 -0.0835  0.4234 -0.0701
  273MOL0     C35941  -0.184   6.269   7.587 -0.2488  0.5747  0.3284
  273MOL0     C35942  -0.250   6.302   7.451  0.1379 -0.1490 -0.3359
  273MOL0     C35943  -0.279   6.446   7.426 -0.7429 -1.2780 -0.7307
  273MOL0     C35944  -0.339   6.483   7.283  0.4774  0.1496 -1.2266
  273MOL0     C35945  -0.249   6.449   7.165  0.0148  0.1004 -0.0109
  273MOL0     C35946  -0.319   6.440   7.036  0.0102 -0.3363  0.1117
  273MOL0     C35947  -0.236   6.415   6.916  0.2109 -0.2125 -0.1461
  273MOL0    Cl35948  -0.326   6.384   6.760  0.2215 -0.3538  0.1817
  273MOL0     C35949   0.232   6.325   7.478  0.1350  0.0619  0.3513
  273MOL0     C35950   0.363   6.331   7.442  0.0177 -0.3888 -0.3660
  273MOL0     O35951   0.495   6.324   7.144  0.4246  0.0120  0.7246
  273MOL0     C35952   0.815   6.221   7.269  0.3083 -0.8373 -0.3048
  273MOL0     C35953   0.952   6.258   7.256 -0.2183 -0.3395 -0.9358
  273MOL0     N35954   1.695   6.199   7.347 -0.3253  0.4380 -0.3280
  273MOL0     N35955   1.810   6.159   7.383  0.4875  0.2193 -0.0423
  273MOL0     C35956   2.882   6.541   7.087 -0.7566  0.0670  0.1471
  273MOL0     C35957   2.993   6.575   7.012  0.2860  0.0965 -0.7523
  273MOL0     C35958   3.397   6.697   6.838 -0.8811  0.4100  0.9251
  273MOL0     C35959   3.486   6.754   6.927  0.3934 -0.4054 -1.0246
  273MOL0     C35960   3.619   6.772   6.891  0.9540 -0.2070  0.7881
  273MOL0     C35961   3.670   6.750   6.759  0.1371  0.7273 -0.2908
  273MOL0     O35962   3.805   6.773   6.728  0.4188  0.4430 -0.2860
  273MOL0     C35963   3.849   6.777   6.589  1.0144 -0.5752  0.4943
  273MOL0     C35964   3.978   6.857   6.572 -0.2771  0.2943 -0.0807
  273MOL0     C35965   4.036   6.865   6.435  0.7535 -0.0691  0.5974
  273MOL0     C35966   4.164   6.936   6.404 -0.2552  0.1433 -0.2128
  273MOL0     C35967   4.186   7.054   6.487 -0.2134 -0.9695 -1.1788
  273MOL0     C35968   4.206   7.155   6.548  0.1935 -0.0084 -0.3909
  273MOL0     C35969   3.575   6.697   6.670  0.4143  0.3148  0.4984
  273MOL0     C35970   3.447   6.672   6.708 -0.3802  0.9640  0.5267
  273MOL0     H35971   3.188   6.701   7.247  1.3349 -0.2333 -1.9247
  273MOL0     H35972   2.996   6.661   7.385  3.3313  0.7690 -1.2367
  273MOL0     H35973   2.732   6.714   7.409 -1.8617  0.2656 -0.1404
  273MOL0     H35974   2.797   6.576   7.500  1.0277  1.0973 -1.0895
  273MOL0     H35975   2.512   6.584   7.402 -0.1819 -2.8376 -0.2770
  273MOL0     H35976   2.557   6.654   7.556  3.1211  1.4764 -0.0140
  273MOL0     H35977   2.668   6.413   7.594  1.3247 -2.3219 -3.6238
  273MOL0     H35978   2.575   6.362   7.463 -1.4409 -0.1998  0.5480
  273MOL0     H35979   2.447   6.313   7.660  2.2804  0.9769  1.1598
  273MOL0     H35980   2.457   6.494   7.699  1.8761  1.2612 -1.5151
  273MOL0     H35981   2.337   6.542   7.485  3.7361  0.4368  1.0664
  273MOL0     H35982   2.234   6.454   7.605 -0.2732 -2.4438 -0.8963
  273MOL0     H35983   2.294   6.246   7.503  1.8817  0.1478  1.1339
  273MOL0     H35984   2.320   6.339   7.352 -0.1361  2.8454 -0.0118
  273MOL0     H35985   2.059   6.342   7.516  3.0011  3.0099  0.9003
  273MOL0     H35986   2.075   6.429   7.362 -1.0328 -0.8758 -1.9464
  273MOL0     H35987   2.076   6.121   7.393 -1.9854  0.4387  2.0140
  273MOL0     H35988   2.106   6.219   7.238 -1.1091 -1.2181 -1.1253
  273MOL0     H35989   1.894   6.405   7.183  0.8037 -0.8875  0.6439
  273MOL0     H35990   1.625   6.328   7.079 -1.1946 -0.0749 -0.6905
  273MOL0     H35991   1.614   6.470   7.185 -1.3381  0.6286 -0.9680
  273MOL0     H35992   1.458   6.318   7.333 -2.3120 -3.1996 -0.3858
  273MOL0     H35993   1.468   6.206   7.196 -1.4838 -0.3283  0.3315
  273MOL0     H35994   1.373   6.503   7.179  4.4484 -0.8973  0.9671
  273MOL0     H35995   1.376   6.377   7.042 -0.0373 -0.0029 -0.7012
  273MOL0     H35996   1.208   6.363   7.308 -1.0307  0.7734 -0.3372
  273MOL0     H35997   1.213   6.233   7.184 -0.9768  0.2711 -0.4242
  273MOL0     H35998   0.910   6.488   7.007  0.7851  0.6995  0.1555
  273MOL0     H35999   0.683   6.423   7.032  2.0811 -1.8459 -2.3667
  273MOL0     H36000   0.401   6.007   7.356  0.2445 -0.0892  1.6084
  273MOL0     H36001   0.164   5.994   7.449  1.2870 -1.1921  0.0078
  273MOL0     H36002  -0.019   6.404   7.555 -0.0076 -0.0171 -1.1096
  273MOL0     H36003   0.012   6.303   7.699 -0.7330 -0.7339  0.2052
  273MOL0     H36004  -0.239   6.322   7.665  2.7265  0.9016  2.3827
  273MOL0     H36005  -0.195   6.163   7.613  0.4393  0.3420 -0.2877
  273MOL0     H36006  -0.341   6.242   7.439 -1.1240  1.9863 -2.3434
  273MOL0     H36007  -0.178   6.270   7.376  0.6508  1.4099 -0.5518
  273MOL0     H36008  -0.338   6.491   7.506  2.0297 -1.5909  1.6249
  273MOL0     H36009  -0.185   6.502   7.423 -0.2629 -2.0235 -0.0457
  273MOL0     H36010  -0.371   6.588   7.275 -2.3264 -0.5746 -0.4697
  273MOL0     H36011  -0.429   6.422   7.277  0.6543 -0.2658  0.1119
  273MOL0     H36012  -0.209   6.350   7.187 -0.5496  0.3170  2.2595
  273MOL0     H36013  -0.166   6.520   7.157 -0.1991  0.1459 -2.6527
  273MOL0     H36014  -0.392   6.360   7.045 -1.2339  0.5689 -1.5028
  273MOL0     H36015  -0.372   6.534   7.020 -2.2867 -1.0199  2.9165
  273MOL0     H36016  -0.161   6.337   6.932  0.8406  0.4270  0.1059
  273MOL0     H36017  -0.175   6.503   6.895  3.7072 -2.1960  0.8202
  273MOL0     H36018   0.200   6.416   7.527 -1.6511 -0.5503  0.3887
  273MOL0     H36019   0.423   6.422   7.443 -1.8317  1.0201 -3.4422
  273MOL0     H36020   0.786   6.171   7.361  0.9258  1.9395  1.5317
  273MOL0     H36021   1.023   6.213   7.325 -1.7768 -3.5913 -1.2428
  273MOL0     H36022   2.799   6.506   7.025 -1.2656 -0.0189  0.8638
  273MOL0     H36023   2.998   6.544   6.908  2.1607 -4.6950  0.5132
  273MOL0     H36024   3.451   6.779   7.027 -0.2534  1.0701 -1.5968
  273MOL0     H36025   3.677   6.823   6.967  2.0631  0.8993 -0.7484
  273MOL0     H36026   3.776   6.834   6.532  1.6105  1.0106  1.2554
  273MOL0     H36027   3.870   6.676   6.552 -1.1760 -0.3818 -1.4917
  273MOL0     H36028   3.937   6.953   6.605 -0.4642 -0.4648  2.1305
  273MOL0     H36029   4.051   6.824   6.647 -2.0172 -3.0247  0.3629
  273MOL0     H36030   3.962   6.913   6.369  0.8478 -2.0747 -1.0643
  273MOL0     H36031   4.045   6.764   6.393 -0.0033 -0.5886  1.6281
  273MOL0     H36032   4.250   6.869   6.416  0.9123  1.5914 -0.0904
  273MOL0     H36033   4.155   6.965   6.299 -0.0095 -4.0155 -1.5493
  273MOL0     H36034   4.222   7.238   6.613  0.4054  1.3631 -2.1128
  273MOL0     H36035   3.601   6.669   6.568 -1.2437 -0.2369  0.1905
  273MOL0     H36036   3.392   6.613   6.637 -1.3780  0.7178  1.4775
  274MOL0     O36037   0.032   1.508   3.392 -0.1439  0.4761 -0.0056
  274MOL0     C36038   0.135   1.448   3.360  0.0905 -0.7822 -0.5842
  274MOL0     O36039   0.140   1.331   3.295 -0.5796  0.1043  0.5580
  274MOL0     C36040   0.032   1.254   3.256  0.2479 -0.9944 -0.4394
  274MOL0     C36041   0.022   1.209   3.125 -0.5046 -0.6676 -0.1591
  274MOL0     C36042  -0.066   1.106   3.093  0.8376 -0.9905  0.2776
  274MOL0     C36043  -0.156   1.055   3.184  0.6105  0.9619 -0.3207
  274MOL0     O36044  -0.250   0.956   3.157 -0.4830 -0.1310 -0.2475
  274MOL0     C36045  -0.306   0.934   3.024  0.1359  0.1177  0.3081
  274MOL0     C36046  -0.442   0.856   3.040 -0.0081  0.1909 -0.0887
  274MOL0     C36047  -0.504   0.799   2.902 -0.1591  0.1144  0.0809
  274MOL0     C36048  -0.613   0.701   2.947 -0.9865  0.0941 -0.3065
  274MOL0     C36049  -0.716   0.682   2.832  0.4951 -0.4085  0.8785
  274MOL0     C36050  -0.848   0.611   2.864 -0.1629 -0.2999  0.1120
  274MOL0     C36051  -0.920   0.550   2.742  0.6356 -0.0065 -0.7405
  274MOL0     C36052  -0.848   0.432   2.687 -0.3254 -0.5447 -0.1503
  274MOL0     N36053  -0.935   0.369   2.588 -1.1051 -0.0041  0.4463
  274MOL0     C36054  -0.962   0.416   2.466 -0.2959  0.0823  1.0988
  274MOL0     C36055  -1.058   0.338   2.423  1.0162 -0.4795 -0.5374
  274MOL0     C36056  -1.116   0.320   2.283  0.4488 -0.3737 -0.4220
  274MOL0     C36057  -1.005   0.253   2.201 -0.1114 -0.1541 -0.7766
  274MOL0     C36058  -0.898   0.356   2.153  0.4168 -0.2076 -0.1804
  274MOL0     C36059  -0.804   0.270   2.066 -0.0887  0.3847 -0.1434
  274MOL0     O36060  -0.743   0.368   1.972 -0.5774  0.2459 -0.4296
  274MOL0     C36061  -0.660   0.464   2.025  0.0170 -0.1744  0.4493
  274MOL0     C36062  -0.686   0.590   1.972  0.0952  1.0205 -0.4193
  274MOL0     C36063  -0.601   0.696   2.008  1.0007 -0.4657 -0.0785
  274MOL0     C36064  -0.493   0.678   2.097  0.3443  0.2850  0.0385
  274MOL0     C36065  -0.401   0.780   2.124 -0.6896 -0.1956 -0.5475
  274MOL0     O36066  -0.298   0.749   2.218  0.2909 -0.5339  0.3250
  274MOL0     C36067  -0.207   0.848   2.242  0.0268 -0.6120 -0.2910
  274MOL0     C36068  -0.076   0.809   2.262  0.6470 -0.0924  0.2872
  274MOL0     C36069   0.028   0.903   2.287  0.0721  0.2982  0.4086
  274MOL0     C36070  -0.016   1.030   2.319  0.2384 -0.0464  0.4839
  274MOL0     O36071   0.088   1.122   2.350  0.7208 -0.4849  0.7756
  274MOL0     C36072   0.106   1.139   2.489 -0.6584 -0.3596 -0.4999
  274MOL0     C36073   0.232   1.073   2.539 -0.6981 -0.4583  0.0028
  274MOL0     C36074   0.249   1.090   2.686  0.1138  0.0508 -0.6179
  274MOL0     C36075   0.311   1.230   2.704 -0.5208  0.3178  0.2160
  274MOL0     C36076   0.358   1.250   2.850 -0.0398  0.1863  0.5062
  274MOL0     C36077   0.377   1.401   2.866  0.6846  0.2030  0.0925
  274MOL0     C36078   0.422   1.449   3.009  0.2030  0.7042 -0.3257
  274MOL0     C36079   0.391   1.595   3.032 -0.6471 -0.1536 -0.0241
  274MOL0    Cl36080   0.493   1.691   2.927 -0.1380  0.0703 -0.2243
  274MOL0     C36081  -0.154   1.075   2.317 -0.9361  0.4162 -0.4435
  274MOL0     C36082  -0.249   0.978   2.285 -0.1322  0.2116  0.8530
  274MOL0     O36083  -0.408   0.878   2.051  1.1253  0.2173  0.3936
  274MOL0     C36084  -0.478   0.556   2.152  0.6885 -0.5205  0.5649
  274MOL0     C36085  -0.568   0.449   2.125 -0.2469  0.1113 -0.1652
  274MOL0     N36086  -1.100   0.252   2.524 -0.4108 -0.2209 -0.5984
  274MOL0     N36087  -1.023   0.274   2.630  0.1017 -0.1405 -0.1710
  274MOL0     C36088  -0.165   1.116   3.311  0.9972 -0.3408  0.8574
  274MOL0     C36089  -0.071   1.218   3.343 -0.0553  0.5078  0.2887
  274MOL0     C36090   0.259   1.512   3.415  0.6532  0.7233  0.3926
  274MOL0     C36091   0.255   1.629   3.498  0.7161 -0.8864  0.0235
  274MOL0     C36092   0.376   1.686   3.534  0.5939 -0.4209  0.1445
  274MOL0     C36093   0.496   1.640   3.481 -0.4734  0.0314 -0.2466
  274MOL0     O36094   0.615   1.692   3.530  0.9241  0.1847  0.6291
  274MOL0     C36095   0.615   1.777   3.655 -0.2643  0.2894  0.7097
  274MOL0     C36096   0.765   1.800   3.682  1.0130  0.4882  0.3362
  274MOL0     C36097   0.795   1.876   3.807  0.4883 -0.0631 -0.4512
  274MOL0     C36098   0.927   1.816   3.876 -0.7576  0.1475  0.5167
  274MOL0     C36099   0.938   1.862   4.017 -0.5875  0.1881  0.6598
  274MOL0     C36100   0.955   1.885   4.133 -0.2453 -0.0113 -0.0225
  274MOL0     C36101   0.497   1.532   3.401  0.4006 -0.2094 -0.3313
  274MOL0     C36102   0.382   1.461   3.367 -0.0463 -0.8419  0.2921
  274MOL0     H36103   0.085   1.250   3.046 -1.1742  1.6172  0.4252
  274MOL0     H36104  -0.065   1.073   2.990  2.3676 -0.5940  0.1401
  274MOL0     H36105  -0.240   0.876   2.959 -0.7083 -1.7866  1.0793
  274MOL0     H36106  -0.328   1.028   2.972  0.4106 -0.4414 -0.8509
  274MOL0     H36107  -0.508   0.930   3.086  1.6131  0.6667  1.6315
  274MOL0     H36108  -0.414   0.774   3.107 -0.0751 -1.9155 -2.4895
  274MOL0     H36109  -0.430   0.746   2.842 -0.7483  2.8550 -3.3692
  274MOL0     H36110  -0.548   0.879   2.842 -4.1706 -0.6147  1.6940
  274MOL0     H36111  -0.561   0.607   2.964  3.0740  1.8631 -1.5055
  274MOL0     H36112  -0.667   0.731   3.037  0.8400 -0.7807  1.1391
  274MOL0     H36113  -0.678   0.623   2.749 -2.3063 -2.1721  0.7134
  274MOL0     H36114  -0.743   0.782   2.799 -0.2564 -1.2333 -1.1721
  274MOL0     H36115  -0.916   0.684   2.907 -0.6537 -0.9171  0.4098
  274MOL0     H36116  -0.835   0.535   2.942 -0.1010  0.1070  0.5027
  274MOL0     H36117  -1.015   0.521   2.789  0.8220  1.3489  0.5493
  274MOL0     H36118  -0.944   0.615   2.657  0.0875 -1.6935 -1.9381
  274MOL0     H36119  -0.832   0.365   2.773 -0.9817  0.5216  0.8284
  274MOL0     H36120  -0.753   0.466   2.644 -0.3474 -0.5632 -0.2124
  274MOL0     H36121  -0.905   0.494   2.417  3.1855 -1.4007  2.4693
  274MOL0     H36122  -1.150   0.415   2.240  0.8612 -1.1991 -2.7638
  274MOL0     H36123  -1.202   0.253   2.293  0.6103 -0.2891  2.1010
  274MOL0     H36124  -1.058   0.212   2.115 -0.9135 -0.7923 -0.0013
  274MOL0     H36125  -0.965   0.171   2.260  0.0837  1.0600  0.8800
  274MOL0     H36126  -0.956   0.428   2.096  2.7026  1.1089 -0.9907
  274MOL0     H36127  -0.840   0.410   2.228 -2.1730  2.8481 -0.1884
  274MOL0     H36128  -0.868   0.196   2.016 -1.4143  1.7608 -0.5367
  274MOL0     H36129  -0.723   0.217   2.118  0.7781 -1.8944 -3.4429
  274MOL0     H36130  -0.771   0.602   1.906  1.7187  0.4797 -2.7313
  274MOL0     H36131  -0.618   0.791   1.957 -0.9744 -0.1967  0.9939
  274MOL0     H36132  -0.049   0.711   2.222 -0.7314  0.6160 -2.6998
  274MOL0     H36133   0.132   0.873   2.282  0.5625  2.0353 -3.7185
  274MOL0     H36134   0.021   1.094   2.541  0.1418 -2.5707 -0.9961
  274MOL0     H36135   0.109   1.247   2.509 -0.9117 -0.4544  0.0544
  274MOL0     H36136   0.324   1.092   2.482 -1.2821 -0.8124 -1.0863
  274MOL0     H36137   0.209   0.969   2.516 -1.6750 -0.5538  1.3310
  274MOL0     H36138   0.323   1.021   2.727 -0.6041  0.8250  2.1782
  274MOL0     H36139   0.153   1.087   2.738  0.4653  1.1455  0.1251
  274MOL0     H36140   0.391   1.256   2.634 -2.6182 -0.4271 -2.6236
  274MOL0     H36141   0.231   1.303   2.687  1.2488  1.9285 -1.7607
  274MOL0     H36142   0.452   1.197   2.870  1.9789  3.5280  0.5495
  274MOL0     H36143   0.295   1.209   2.929  0.8119 -0.8209  0.6948
  274MOL0     H36144   0.279   1.447   2.852  1.1892  0.8178 -1.6901
  274MOL0     H36145   0.444   1.434   2.786 -0.7494  1.2890 -0.6908
  274MOL0     H36146   0.368   1.392   3.085  2.8007 -1.5413  0.0289
  274MOL0     H36147   0.528   1.426   3.027 -0.7179 -1.7742  3.2222
  274MOL0     H36148   0.428   1.614   3.133  1.1546 -1.2105 -0.4421
  274MOL0     H36149   0.287   1.630   3.028 -0.4786  0.3153 -0.4028
  274MOL0     H36150  -0.180   1.174   2.354 -2.1661 -0.0963  0.1051
  274MOL0     H36151  -0.351   1.014   2.282  0.5610  2.2769 -1.2339
  274MOL0     H36152  -0.407   0.550   2.234  1.1154  1.5598  0.3988
  274MOL0     H36153  -0.548   0.350   2.166 -0.1094  0.1989 -0.0225
  274MOL0     H36154  -0.247   1.081   3.373 -0.3994 -0.1316 -0.8115
  274MOL0     H36155  -0.078   1.265   3.441  0.3538 -1.2905  1.2096
  274MOL0     H36156   0.158   1.671   3.524 -0.2400  0.7969 -5.0826
  274MOL0     H36157   0.375   1.772   3.599 -0.3548  0.4066 -0.9268
  274MOL0     H36158   0.562   1.724   3.735 -1.0553  0.5685  0.3792
  274MOL0     H36159   0.562   1.872   3.643 -1.7849 -0.7372 -1.5399
  274MOL0     H36160   0.795   1.696   3.701 -0.2902  0.3460  1.7785
  274MOL0     H36161   0.827   1.842   3.602  1.8530 -0.6552  0.3586
  274MOL0     H36162   0.714   1.861   3.880  0.8600 -1.4070 -0.2866
  274MOL0     H36163   0.793   1.985   3.801 -1.8226  0.1506  2.0551
  274MOL0     H36164   0.928   1.707   3.876 -0.8102  0.1388 -0.3715
  274MOL0     H36165   1.014   1.849   3.817  0.9590 -2.4145  1.4417
  274MOL0     H36166   0.968   1.884   4.239 -4.2393 -0.1750  0.6255
  274MOL0     H36167   0.591   1.489   3.369  0.3541 -0.4437 -0.1540
  274MOL0     H36168   0.379   1.368   3.310  0.7172  0.1857 -1.5399
  275MOL0     O36169   8.485   3.645   4.993  0.2786 -0.1964  0.0058
  275MOL0     C36170   8.528   3.734   5.073 -0.0463 -0.0369 -0.5505
  275MOL0     O36171   8.459   3.842   5.116 -0.9204  0.0080 -0.4406
  275MOL0     C36172   8.327   3.858   5.086 -0.0088 -0.4770  0.1834
  275MOL0     C36173   8.285   3.981   5.032 -0.0358 -0.3840 -0.3156
  275MOL0     C36174   8.167   4.007   4.970 -0.3137 -0.2041 -0.0451
  275MOL0     C36175   8.076   3.898   4.975 -0.0377  0.3440  0.6960
  275MOL0     O36176   7.962   3.935   4.911  0.7836 -0.1463 -0.0383
  275MOL0     C36177   7.854   3.836   4.903  0.2518 -0.1999 -0.5364
  275MOL0     C36178   7.736   3.875   4.806 -0.4621 -0.3569 -0.8697
  275MOL0     C36179   7.595   3.833   4.844 -0.4387 -0.3713  0.1729
  275MOL0     C36180   7.495   3.864   4.732 -0.4075 -0.1198  0.2072
  275MOL0     C36181   7.349   3.851   4.784  0.0519 -0.6235  0.2988
  275MOL0     C36182   7.311   3.963   4.889  0.1030  0.5211  0.0309
  275MOL0     C36183   7.157   3.979   4.907 -0.0615  0.7640 -0.1001
  275MOL0     C36184   7.079   3.852   4.938 -0.5051 -0.0491 -0.0534
  275MOL0     N36185   6.934   3.858   4.937 -0.0007 -0.5442 -1.0007
  275MOL0     C36186   6.845   3.875   4.832  0.2042 -0.1256 -0.6613
  275MOL0     C36187   6.722   3.849   4.876 -0.0774 -0.2758  0.1743
  275MOL0     C36188   6.590   3.865   4.796  0.6209 -0.0067 -0.7299
  275MOL0     C36189   6.521   3.723   4.800  0.3149 -0.1945 -0.1954
  275MOL0     C36190   6.562   3.637   4.681 -0.5340  0.4576  0.0657
  275MOL0     C36191   6.699   3.571   4.690  0.6870  0.6122 -0.3578
  275MOL0     O36192   6.692   3.452   4.782  0.8021  0.3696  0.8137
  275MOL0     C36193   6.809   3.392   4.814 -0.1949  0.0767  0.0005
  275MOL0     C36194   6.853   3.281   4.744  0.1275 -0.9229  0.8953
  275MOL0     C36195   6.968   3.217   4.792  1.1451 -0.1676  0.6484
  275MOL0     C36196   7.053   3.267   4.899  0.2270 -0.3507 -0.7214
  275MOL0     C36197   7.187   3.207   4.934  0.1884 -0.6573  0.2280
  275MOL0     O36198   7.245   3.236   5.050 -0.1468  0.0226  0.4585
  275MOL0     C36199   7.370   3.185   5.081 -0.0816  0.3909 -0.2106
  275MOL0     C36200   7.452   3.092   5.018 -0.8389  0.0530  0.9188
  275MOL0     C36201   7.587   3.066   5.068  0.5575  1.0044 -0.0325
  275MOL0     C36202   7.631   3.120   5.185 -0.1422 -0.4668 -0.2698
  275MOL0     O36203   7.751   3.090   5.240  0.1378 -0.2422  0.2861
  275MOL0     C36204   7.828   2.995   5.173  0.6677  0.2039  0.2894
  275MOL0     C36205   7.956   2.964   5.250 -0.8275 -0.1208  0.1021
  275MOL0     C36206   7.942   2.915   5.394 -0.1440  0.4668  0.4988
  275MOL0     C36207   7.878   2.777   5.403 -0.8133 -0.5398 -0.1010
  275MOL0     C36208   7.910   2.711   5.540  0.2785 -0.4502 -0.8050
  275MOL0     C36209   7.832   2.579   5.561  0.4003  0.3645  1.2216
  275MOL0     C36210   7.871   2.513   5.697  0.4817 -0.3437 -0.0918
  275MOL0     C36211   7.788   2.388   5.726  0.2683  0.0560 -0.4595
  275MOL0    Cl36212   7.613   2.426   5.746  0.6081 -0.0793  0.0301
  275MOL0     C36213   7.539   3.202   5.256  0.1833  0.6567 -0.4864
  275MOL0     C36214   7.418   3.230   5.203  0.2762  0.0562 -0.0671
  275MOL0     O36215   7.233   3.146   4.838  0.1562  0.2058  0.2800
  275MOL0     C36216   7.019   3.394   4.959  0.6330  0.6255  0.6730
  275MOL0     C36217   6.889   3.446   4.914  0.2570  0.3117  0.4470
  275MOL0     N36218   6.733   3.816   5.009 -0.1303  0.9341 -0.1613
  275MOL0     N36219   6.855   3.828   5.044 -0.0907 -0.0210 -0.7301
  275MOL0     C36220   8.099   3.780   5.038 -0.0035  0.2284  0.1653
  275MOL0     C36221   8.223   3.759   5.094  0.3052  0.7447  0.4960
  275MOL0     C36222   8.666   3.718   5.119  0.1924 -0.8313 -0.3434
  275MOL0     C36223   8.751   3.616   5.074  0.5806 -0.2387  0.4632
  275MOL0     C36224   8.885   3.616   5.109 -0.4318  0.1683  0.1381
  275MOL0     C36225   8.939   3.704   5.204  0.3258 -0.2355 -0.1651
  275MOL0     O36226   9.075   3.697   5.223  0.3998  0.6264  0.0545
  275MOL0     C36227   9.135   3.782   5.315  0.2575 -0.6669  0.2992
  275MOL0     C36228   9.282   3.750   5.331 -0.6049  0.0104  0.6354
  275MOL0     C36229   9.345   3.853   5.426  0.4733  0.4373  1.1818
  275MOL0     C36230   9.490   3.837   5.435 -0.0062  0.2529  0.3064
  275MOL0     C36231   9.528   3.694   5.437 -0.2799 -0.0812 -0.2888
  275MOL0     C36232   9.549   3.576   5.422 -0.6777 -0.0741  0.4847
  275MOL0     C36233   8.851   3.798   5.261 -0.4914  0.0304  0.0056
  275MOL0     C36234   8.714   3.804   5.228  0.1756  1.4500  0.4364
  275MOL0     H36235   8.357   4.062   5.033  2.2209 -2.2764  0.7352
  275MOL0     H36236   8.138   4.104   4.933 -0.2030  0.5934  1.8169
  275MOL0     H36237   7.803   3.819   4.999  1.2312  1.1984  0.2775
  275MOL0     H36238   7.900   3.742   4.872 -1.2196 -0.5242 -1.8844
  275MOL0     H36239   7.764   3.842   4.705 -1.0845 -1.8170 -0.5873
  275MOL0     H36240   7.736   3.984   4.803  0.3007 -0.2956  0.5114
  275MOL0     H36241   7.570   3.882   4.938 -1.6002 -1.2617  0.3451
  275MOL0     H36242   7.589   3.725   4.857  0.2208 -0.6390 -1.5328
  275MOL0     H36243   7.515   3.968   4.704  0.0999  0.1583  1.5465
  275MOL0     H36244   7.518   3.789   4.655  2.3391 -0.9041  1.6385
  275MOL0     H36245   7.328   3.755   4.833 -0.3850  0.0547  1.5066
  275MOL0     H36246   7.282   3.858   4.698  1.7600 -2.1703 -1.2453
  275MOL0     H36247   7.354   4.055   4.849 -1.6881  1.6236  0.5267
  275MOL0     H36248   7.362   3.938   4.982  0.5104  0.6734 -0.1503
  275MOL0     H36249   7.140   4.037   4.998  0.8117 -0.0495  0.6053
  275MOL0     H36250   7.102   4.016   4.819 -1.3307  0.5255  0.5731
  275MOL0     H36251   7.127   3.813   5.029  1.1145  1.1776 -0.3295
  275MOL0     H36252   7.107   3.786   4.855 -0.3885  1.3035 -1.1290
  275MOL0     H36253   6.879   3.895   4.731  1.1651 -3.1055 -1.0325
  275MOL0     H36254   6.614   3.878   4.691 -2.5780 -2.0815 -1.8654
  275MOL0     H36255   6.525   3.941   4.840  1.0137 -0.3470  0.5119
  275MOL0     H36256   6.413   3.735   4.796  0.1486 -0.9613  1.3014
  275MOL0     H36257   6.526   3.676   4.899  2.0225  3.0418  1.4242
  275MOL0     H36258   6.488   3.557   4.673  0.7120 -0.5949 -1.8873
  275MOL0     H36259   6.564   3.693   4.587  1.4533 -1.7060 -1.2841
  275MOL0     H36260   6.771   3.645   4.726  0.6436  1.1833 -1.4321
  275MOL0     H36261   6.721   3.534   4.590 -1.0826 -1.1963 -0.1728
  275MOL0     H36262   6.792   3.240   4.664 -0.2076  0.6059  0.3332
  275MOL0     H36263   6.997   3.136   4.727  0.3781  1.4784 -1.9262
  275MOL0     H36264   7.430   3.057   4.918 -1.2398  1.8675  0.3497
  275MOL0     H36265   7.650   3.008   5.001 -0.0528  1.5191 -1.0822
  275MOL0     H36266   7.870   3.024   5.076 -0.1632  3.8956  0.8939
  275MOL0     H36267   7.774   2.900   5.161  1.3388 -0.5154  2.4650
  275MOL0     H36268   8.017   3.055   5.244 -0.9197  0.0285  1.2771
  275MOL0     H36269   8.012   2.889   5.193 -0.3917 -0.3420  0.8135
  275MOL0     H36270   7.898   2.985   5.465  1.2889 -2.6837  4.9925
  275MOL0     H36271   8.038   2.903   5.444  0.0780  0.7124  0.1329
  275MOL0     H36272   7.770   2.787   5.389 -0.5142  1.8440 -1.2545
  275MOL0     H36273   7.918   2.721   5.318  2.2202  1.2287 -0.0052
  275MOL0     H36274   7.885   2.784   5.618 -0.9041 -3.0340  1.4290
  275MOL0     H36275   8.017   2.688   5.543 -0.3797 -4.1608 -1.1935
  275MOL0     H36276   7.847   2.501   5.486 -1.0582 -1.0791  2.3455
  275MOL0     H36277   7.726   2.600   5.546  0.9725  1.3259 -2.7679
  275MOL0     H36278   7.975   2.481   5.683  0.3092 -1.0724  0.2495
  275MOL0     H36279   7.867   2.586   5.778 -1.8246 -1.0228  0.4831
  275MOL0     H36280   7.829   2.335   5.813  0.8654  1.0147 -0.1470
  275MOL0     H36281   7.804   2.318   5.644 -0.4864 -0.4932 -0.1445
  275MOL0     H36282   7.563   3.255   5.348  0.3484  1.2223 -0.8546
  275MOL0     H36283   7.357   3.302   5.258  0.9921  0.8712 -0.3298
  275MOL0     H36284   7.085   3.451   5.023  3.3917 -1.4363 -0.1807
  275MOL0     H36285   6.852   3.536   4.962  1.3922  1.0927 -0.1058
  275MOL0     H36286   8.019   3.709   5.056  1.4900 -1.4405  0.4623
  275MOL0     H36287   8.251   3.666   5.141  4.0480  1.2738 -0.3621
  275MOL0     H36288   8.716   3.546   4.999 -2.0147  3.5522 -2.2192
  275MOL0     H36289   8.956   3.547   5.064 -0.4532  1.6724 -2.3803
  275MOL0     H36290   9.087   3.769   5.412  0.4487 -2.0324  0.2267
  275MOL0     H36291   9.129   3.888   5.287  1.6634  0.1454  2.7383
  275MOL0     H36292   9.291   3.658   5.390 -0.7703  0.1320  0.8490
  275MOL0     H36293   9.318   3.735   5.229  1.0295 -1.1260  1.3349
  275MOL0     H36294   9.301   3.833   5.524  0.0502 -1.3662  0.6653
  275MOL0     H36295   9.319   3.954   5.395  0.7422  1.0307  2.8114
  275MOL0     H36296   9.549   3.905   5.372  2.8482  0.4255  2.8938
  275MOL0     H36297   9.519   3.878   5.533 -2.5797  2.8434  0.1460
  275MOL0     H36298   9.575   3.472   5.416  0.9408  0.3907 -1.2711
  275MOL0     H36299   8.886   3.875   5.329  0.7355  0.1538 -0.7252
  275MOL0     H36300   8.638   3.864   5.276 -1.3610 -0.9798  1.1830
  276MOL0     O36301   5.349   2.938   3.887 -0.0784 -0.1302  0.0029
  276MOL0     C36302   5.380   2.864   3.979 -0.5311 -0.5506  0.2583
  276MOL0     O36303   5.502   2.822   4.014  0.7748  0.4766  0.1531
  276MOL0     C36304   5.617   2.892   3.983  0.1604  0.2994  0.4850
  276MOL0     C36305   5.711   2.819   3.924  0.1122 -0.0733  0.2752
  276MOL0     C36306   5.837   2.878   3.896 -0.4836 -0.4789  0.1177
  276MOL0     C36307   5.858   3.022   3.920 -0.0062  0.4239  0.2827
  276MOL0     O36308   5.972   3.090   3.891 -0.0841 -0.0220  0.0072
  276MOL0     C36309   6.093   3.016   3.875 -0.8411  0.4989  0.0972
  276MOL0     C36310   6.202   3.108   3.818  0.3643  0.1576  0.5927
  276MOL0     C36311   6.342   3.036   3.806  0.2792  0.3763  0.7155
  276MOL0     C36312   6.396   3.009   3.946  1.0318  0.0141  0.2461
  276MOL0     C36313   6.544   2.978   3.942  0.4139  0.1973 -0.3480
  276MOL0     C36314   6.572   2.842   3.874 -0.1279 -0.5326 -0.6443
  276MOL0     C36315   6.719   2.804   3.871 -0.2528 -0.2551  0.1970
  276MOL0     C36316   6.816   2.897   3.809  0.6458 -0.6058  0.1094
  276MOL0     N36317   6.778   2.964   3.685 -1.0859  0.1366 -0.4462
  276MOL0     C36318   6.735   2.898   3.572  0.4208 -0.6449 -0.2633
  276MOL0     C36319   6.717   2.991   3.484 -0.2843 -0.9449  0.6603
  276MOL0     C36320   6.666   2.964   3.339  0.4193  0.0545 -0.7155
  276MOL0     C36321   6.536   2.889   3.329  0.2440 -0.0127  0.3758
  276MOL0     C36322   6.419   2.963   3.399 -0.5626  1.1371 -0.5095
  276MOL0     C36323   6.288   2.889   3.375  0.1320 -0.3961  0.0328
  276MOL0     O36324   6.178   2.930   3.458 -0.0950  0.2739  0.1222
  276MOL0     C36325   6.066   2.847   3.453  0.7719 -0.2162 -0.3716
  276MOL0     C36326   5.960   2.885   3.535  0.0299  0.2004  0.1093
  276MOL0     C36327   5.833   2.819   3.535 -0.7460 -0.3649  0.1527
  276MOL0     C36328   5.826   2.710   3.456  0.2599 -0.5547  0.6624
  276MOL0     C36329   5.699   2.623   3.459  0.3102 -0.3070  1.2352
  276MOL0     O36330   5.620   2.650   3.565  0.5581 -0.3812  0.2790
  276MOL0     C36331   5.520   2.576   3.610 -1.0469 -0.4955  0.0253
  276MOL0     C36332   5.475   2.458   3.568  0.0468  0.8258  0.1243
  276MOL0     C36333   5.375   2.382   3.630  0.2955 -0.4373 -0.7254
  276MOL0     C36334   5.300   2.447   3.730  0.6814 -0.4929 -0.9320
  276MOL0     O36335   5.201   2.374   3.784  0.1224 -0.0150  0.1517
  276MOL0     C36336   5.185   2.385   3.926 -0.8178  0.3800  0.3358
  276MOL0     C36337   5.162   2.232   3.970  0.0031  0.5344 -0.8407
  276MOL0     C36338   5.011   2.207   3.945  0.9792  0.0164  0.2157
  276MOL0     C36339   4.969   2.080   4.007  0.1932  0.2739 -0.4100
  276MOL0     C36340   4.826   2.073   4.016  0.5815  0.8843  0.8385
  276MOL0     C36341   4.766   2.035   3.880  0.9389 -0.1429 -0.2442
  276MOL0     C36342   4.609   2.013   3.885 -0.8202 -0.4795  0.1489
  276MOL0     C36343   4.533   2.118   3.964 -0.4884 -0.6378 -0.0859
  276MOL0    Cl36344   4.361   2.093   3.911  0.0455  0.0083  0.0929
  276MOL0     C36345   5.330   2.581   3.769  0.1647 -0.6729  0.2300
  276MOL0     C36346   5.438   2.648   3.708 -0.0609  0.2856  0.3259
  276MOL0     O36347   5.689   2.526   3.382 -0.9277  0.8415  0.1478
  276MOL0     C36348   5.928   2.677   3.370 -0.3459  0.8036 -0.3415
  276MOL0     C36349   6.048   2.742   3.369  0.1250  0.1440 -0.6434
  276MOL0     N36350   6.745   3.112   3.537  0.8569 -0.2363  0.2498
  276MOL0     N36351   6.778   3.093   3.658 -0.1574 -0.4536  0.8408
  276MOL0     C36352   5.749   3.101   3.988 -0.0545  0.8367 -0.1663
  276MOL0     C36353   5.630   3.031   4.024 -0.0054 -0.3494  0.1153
  276MOL0     C36354   5.264   2.807   4.050 -0.5471 -0.2936  0.2737
  276MOL0     C36355   5.144   2.870   4.056  0.2400 -0.4829 -1.1052
  276MOL0     C36356   5.032   2.789   4.099 -0.1553 -0.1221  0.2726
  276MOL0     C36357   5.045   2.661   4.151 -0.9469 -0.1479 -0.5719
  276MOL0     O36358   4.931   2.586   4.175  0.2688  0.0874  0.0277
  276MOL0     C36359   4.944   2.473   4.266 -0.3611 -0.6699 -0.4363
  276MOL0     C36360   4.957   2.534   4.401  0.4957 -0.1628  0.3895
  276MOL0     C36361   4.825   2.608   4.452 -0.4474  0.0474 -0.4767
  276MOL0     C36362   4.850   2.668   4.597  0.3096  0.3029 -0.5692
  276MOL0     C36363   4.719   2.707   4.635  0.2735  0.0596 -0.5790
  276MOL0     C36364   4.611   2.750   4.664 -0.0151 -0.1930 -0.3074
  276MOL0     C36365   5.175   2.607   4.161  0.2859  0.2494 -0.2712
  276MOL0     C36366   5.284   2.680   4.112 -0.2101  0.2760  0.0140
  276MOL0     H36367   5.687   2.715   3.909  0.8828 -0.6729  2.6531
  276MOL0     H36368   5.925   2.829   3.855  0.6429  0.1178  1.7409
  276MOL0     H36369   6.088   2.932   3.806  1.6542 -0.7057  1.2406
  276MOL0     H36370   6.127   2.981   3.973  3.0569  0.9157 -0.9271
  276MOL0     H36371   6.212   3.193   3.886  1.1493  0.5508  0.0011
  276MOL0     H36372   6.162   3.135   3.719  0.4133 -1.6289  0.0333
  276MOL0     H36373   6.394   3.114   3.750 -1.5555  0.7985 -0.4844
  276MOL0     H36374   6.338   2.942   3.751 -1.3882  1.3392 -0.9308
  276MOL0     H36375   6.369   3.095   4.008 -1.4169  0.5149 -1.3846
  276MOL0     H36376   6.341   2.926   3.990  1.4290  0.5266  1.7507
  276MOL0     H36377   6.583   2.976   4.044  1.3012 -0.5006 -0.6796
  276MOL0     H36378   6.584   3.064   3.887 -2.3991  2.7656  1.3322
  276MOL0     H36379   6.554   2.848   3.767  2.9749  1.3664 -1.1802
  276MOL0     H36380   6.512   2.760   3.915  0.2951 -0.6515 -0.2436
  276MOL0     H36381   6.755   2.790   3.974 -2.8545 -1.0012  1.0859
  276MOL0     H36382   6.734   2.703   3.832  1.1317  0.8571 -2.3356
  276MOL0     H36383   6.909   2.839   3.812  0.6869 -0.6438 -1.2901
  276MOL0     H36384   6.825   2.981   3.879 -0.5725  2.0976 -2.7135
  276MOL0     H36385   6.721   2.792   3.550  0.8350 -0.6727 -0.4137
  276MOL0     H36386   6.745   2.911   3.287 -0.4465 -1.5410 -0.4752
  276MOL0     H36387   6.663   3.055   3.279  1.3982 -0.4078 -1.4876
  276MOL0     H36388   6.547   2.792   3.379 -0.9114 -1.0118 -1.2232
  276MOL0     H36389   6.512   2.873   3.224  2.4426 -0.2306 -0.1393
  276MOL0     H36390   6.438   2.984   3.505  0.9089  1.2247 -0.7674
  276MOL0     H36391   6.415   3.062   3.354  0.9694  0.4196 -2.3660
  276MOL0     H36392   6.311   2.783   3.387  1.4869 -0.1625 -0.3888
  276MOL0     H36393   6.266   2.913   3.271  1.5719  1.9887  0.2134
  276MOL0     H36394   5.990   2.973   3.592 -2.4823  0.7304  0.7016
  276MOL0     H36395   5.746   2.861   3.585 -0.5980  0.2965 -0.1354
  276MOL0     H36396   5.512   2.396   3.486 -0.6919 -4.0073  3.0418
  276MOL0     H36397   5.341   2.282   3.605  2.8442 -1.9762  1.4345
  276MOL0     H36398   5.106   2.451   3.963 -1.6116  0.8992 -2.1231
  276MOL0     H36399   5.275   2.424   3.976  2.5720 -2.0912 -3.2222
  276MOL0     H36400   5.187   2.210   4.075 -1.1406 -1.4403 -0.9343
  276MOL0     H36401   5.220   2.158   3.914 -2.1652 -0.1125 -2.3637
  276MOL0     H36402   4.987   2.212   3.839  1.1032  0.6475  0.2133
  276MOL0     H36403   4.948   2.285   3.988 -0.9942  0.3453 -2.9575
  276MOL0     H36404   4.998   1.993   3.947 -3.8293 -1.3060 -0.3531
  276MOL0     H36405   5.021   2.068   4.102 -1.6596  2.9107  1.0754
  276MOL0     H36406   4.778   2.164   4.054  1.0436  1.9535 -1.0302
  276MOL0     H36407   4.790   1.989   4.077  0.8760  0.0564 -0.1054
  276MOL0     H36408   4.816   1.946   3.841  2.0130  0.7560 -0.9791
  276MOL0     H36409   4.788   2.119   3.813  0.0170  0.3073 -0.0032
  276MOL0     H36410   4.570   2.019   3.783 -1.0980 -1.3218  0.1950
  276MOL0     H36411   4.586   1.915   3.928 -3.5395  0.3452  0.7494
  276MOL0     H36412   4.556   2.222   3.938 -0.6421 -0.7787 -0.8174
  276MOL0     H36413   4.553   2.110   4.071  1.0010  1.0357 -0.1973
  276MOL0     H36414   5.272   2.644   3.835 -0.5692  1.7459 -2.4895
  276MOL0     H36415   5.458   2.750   3.740 -1.9641  0.3321  1.5552
  276MOL0     H36416   5.927   2.590   3.304  0.0985 -0.1794  0.9065
  276MOL0     H36417   6.117   2.711   3.291 -1.8015  4.3160 -4.4869
  276MOL0     H36418   5.761   3.203   4.021  0.7873  0.7430 -0.1669
  276MOL0     H36419   5.545   3.074   4.077  2.1482  2.4663  1.5669
  276MOL0     H36420   5.131   2.967   4.009  0.1613  0.8406  1.4758
  276MOL0     H36421   4.934   2.835   4.092 -0.1582 -0.2536 -0.6261
  276MOL0     H36422   5.017   2.393   4.249  0.2201 -0.9013  2.5915
  276MOL0     H36423   4.850   2.417   4.278 -3.0284  3.0722 -1.8807
  276MOL0     H36424   4.981   2.454   4.472  0.6130 -1.4440 -1.0375
  276MOL0     H36425   5.045   2.599   4.399  0.0804  0.3896 -1.3832
  276MOL0     H36426   4.741   2.538   4.444 -0.6106  0.4112 -2.3671
  276MOL0     H36427   4.804   2.687   4.380 -3.2344  0.9041  1.1008
  276MOL0     H36428   4.888   2.584   4.655 -0.7245  0.1685 -0.0777
  276MOL0     H36429   4.922   2.751   4.601 -1.9789  2.3185  1.4352
  276MOL0     H36430   4.525   2.814   4.658 -0.3570 -0.5230  0.8455
  276MOL0     H36431   5.198   2.509   4.202  1.9821  0.2037 -1.2200
  276MOL0     H36432   5.381   2.635   4.095  1.4749  3.3974  0.6425
  277MOL0     O36433   9.699  10.333   7.606 -0.0990 -0.3614  0.1895
  277MOL0     C36434   9.751  10.427   7.549  0.0809 -0.1402 -0.3845
  277MOL0     O36435   9.682  10.521   7.486 -0.0878 -0.2170 -0.6033
  277MOL0     C36436   9.547  10.510   7.469  0.2826 -0.1483  0.2102
  277MOL0     C36437   9.482  10.432   7.370 -0.6388 -0.1204  0.8306
  277MOL0     C36438   9.347  10.439   7.351  0.5031  0.2867 -0.3737
  277MOL0     C36439   9.261  10.503   7.435 -0.5374  0.4510 -0.1932
  277MOL0     O36440   9.128  10.507   7.412 -0.3347  0.4587 -0.9083
  277MOL0     C36441   9.041  10.520   7.527  0.6193 -0.3263  0.3446
  277MOL0     C36442   8.908  10.457   7.490  0.4499 -0.3143 -0.4605
  277MOL0     C36443   8.834  10.499   7.369  0.0430 -1.1624 -0.2357
  277MOL0     C36444   8.796  10.651   7.355 -0.3694  0.2463 -0.4414
  277MOL0     C36445   8.793  10.702   7.208  0.4563  0.3536 -0.3987
  277MOL0     C36446   8.747  10.848   7.185  0.2020  0.1742 -0.9254
  277MOL0     C36447   8.745  10.890   7.031  1.5997 -0.6260 -0.3917
  277MOL0     C36448   8.656  11.011   7.014  0.2456  0.2775  0.1971
  277MOL0     N36449   8.670  11.058   6.882  0.4598  0.0434  0.3705
  277MOL0     C36450   8.786  11.103   6.821  0.0940  0.4813 -0.3962
  277MOL0     C36451   8.763  11.058   6.691 -0.2682 -0.1631 -0.7078
  277MOL0     C36452   8.850  11.077   6.567 -0.0595  0.4584 -0.4020
  277MOL0     C36453   8.983  11.144   6.599 -1.0323 -0.1795 -0.4980
  277MOL0     C36454   9.062  11.167   6.469 -0.0073 -0.6518  0.4126
  277MOL0     C36455   9.201  11.206   6.504 -0.0368 -0.0437 -0.2838
  277MOL0     O36456   9.272  11.086   6.553  0.4667  0.5356 -0.3559
  277MOL0     C36457   9.409  11.091   6.568  0.4158 -0.5558  0.1871
  277MOL0     C36458   9.503  11.185   6.509 -0.8356  0.2333  0.3810
  277MOL0     C36459   9.642  11.188   6.535 -0.4298 -0.9308 -0.7285
  277MOL0     C36460   9.691  11.086   6.615  0.7820 -0.3933  0.1464
  277MOL0     C36461   9.837  11.075   6.641  1.1758 -0.0472 -0.5631
  277MOL0     O36462   9.918  11.173   6.604  0.0338  0.1670 -0.3111
  277MOL0     C36463  10.039  11.198   6.672 -0.1507 -1.1442 -1.3237
  277MOL0     C36464  10.137  11.271   6.601  0.7711 -0.5236  0.5829
  277MOL0     C36465  10.258  11.296   6.655 -0.1365 -0.0030  0.8857
  277MOL0     C36466  10.277  11.263   6.786 -0.9474  0.6220  0.6036
  277MOL0     O36467  10.396  11.287   6.841  0.2169 -0.6925  0.0165
  277MOL0     C36468  10.452  11.423   6.821 -0.1191 -0.0036 -0.5326
  277MOL0     C36469  10.567  11.418   6.715  0.3683  0.3051  0.5704
  277MOL0     C36470  10.698  11.474   6.767 -0.3607  0.3273 -1.0409
  277MOL0     C36471  10.810  11.467   6.664 -0.1379  0.0495  0.1234
  277MOL0     C36472  10.923  11.560   6.713 -0.1752  0.2185  0.4292
  277MOL0     C36473  11.052  11.545   6.635 -0.1311  0.1549  1.0373
  277MOL0     C36474  11.060  11.580   6.482  0.3358 -0.2573  1.0158
  277MOL0     C36475  11.189  11.545   6.414  0.4348  0.5565  0.2757
  277MOL0    Cl36476  11.334  11.613   6.484  0.2367  0.1749  0.2598
  277MOL0     C36477  10.181  11.191   6.858 -0.4056  0.2138  0.1036
  277MOL0     C36478  10.069  11.157   6.807 -0.4966  0.4971  0.0940
  277MOL0     O36479   9.869  10.975   6.696 -0.2428  0.0475  0.6670
  277MOL0     C36480   9.606  10.996   6.682 -0.5843 -0.0358  0.1640
  277MOL0     C36481   9.469  11.000   6.649 -0.3815 -0.2555 -0.0939
  277MOL0     N36482   8.637  11.012   6.685  0.4447 -0.5539  0.1022
  277MOL0     N36483   8.574  11.018   6.797  0.6399 -0.5536  0.5161
  277MOL0     C36484   9.328  10.575   7.526  0.5381 -0.3874 -0.1065
  277MOL0     C36485   9.463  10.579   7.558  0.3019 -0.2465 -0.1242
  277MOL0     C36486   9.899  10.441   7.563  0.1222 -0.4497 -0.1010
  277MOL0     C36487   9.971  10.549   7.505  0.1482 -0.2743  0.3525
  277MOL0     C36488  10.109  10.551   7.518 -0.4446 -0.1561  0.5531
  277MOL0     C36489  10.184  10.448   7.585 -0.5978 -0.5455  0.5290
  277MOL0     O36490  10.320  10.437   7.590 -0.4234  0.4698  0.0057
  277MOL0     C36491  10.399  10.538   7.534 -0.2793  0.3127  0.3581
  277MOL0     C36492  10.546  10.528   7.562 -0.0349  0.1747 -0.3981
  277MOL0     C36493  10.622  10.664   7.559  0.2895 -0.1633 -0.8609
  277MOL0     C36494  10.766  10.649   7.610 -0.0091 -0.4901  0.2346
  277MOL0     C36495  10.858  10.750   7.550 -0.7231 -1.1055 -0.7690
  277MOL0     C36496  10.938  10.842   7.532 -0.1496 -0.3801 -0.5809
  277MOL0     C36497  10.120  10.341   7.637  0.3032  0.8070  0.1163
  277MOL0     C36498   9.982  10.339   7.627  0.1066 -0.5070  0.5142
  277MOL0     H36499   9.525  10.372   7.291 -3.9332 -3.6261  1.4373
  277MOL0     H36500   9.304  10.398   7.260 -1.0817 -2.3145  1.4082
  277MOL0     H36501   9.026  10.624   7.556 -1.0492  0.2112 -2.0999
  277MOL0     H36502   9.074  10.478   7.622  1.9058  0.9723  0.4928
  277MOL0     H36503   8.833  10.463   7.570  1.3857 -0.4423  0.4435
  277MOL0     H36504   8.919  10.348   7.483  2.3422 -0.0822 -1.6475
  277MOL0     H36505   8.743  10.439   7.374 -0.1679 -0.8103  0.2040
  277MOL0     H36506   8.900  10.465   7.289 -0.7990  1.0087 -1.9197
  277MOL0     H36507   8.696  10.675   7.393  0.1306 -1.0464  1.9146
  277MOL0     H36508   8.856  10.721   7.414 -2.4188  1.3001  0.5204
  277MOL0     H36509   8.727  10.636   7.153  2.8284 -1.6769 -0.9941
  277MOL0     H36510   8.896  10.701   7.169 -0.1730  2.0837 -2.2632
  277MOL0     H36511   8.806  10.912   7.250 -1.1964 -0.9474  1.5743
  277MOL0     H36512   8.642  10.850   7.216  0.7223  0.3909  0.8855
  277MOL0     H36513   8.850  10.903   7.002  1.1671 -1.0921 -2.2853
  277MOL0     H36514   8.706  10.806   6.972 -0.6575  1.0206 -1.3744
  277MOL0     H36515   8.698  11.093   7.073  1.1779 -1.4053  1.9844
  277MOL0     H36516   8.551  10.990   7.034 -0.1030 -0.7784 -2.2977
  277MOL0     H36517   8.878  11.146   6.861  0.4183 -1.5661  1.1789
  277MOL0     H36518   8.800  11.132   6.487  1.4244  2.3737 -0.0809
  277MOL0     H36519   8.867  10.979   6.521 -2.0542 -0.5857  0.9386
  277MOL0     H36520   9.035  11.069   6.659  0.6689 -1.1102 -2.9478
  277MOL0     H36521   8.981  11.236   6.658  0.1294  0.0415 -0.7855
  277MOL0     H36522   9.072  11.081   6.403  1.8694  0.1858 -0.4769
  277MOL0     H36523   9.019  11.253   6.418 -1.0009 -1.3799 -0.0060
  277MOL0     H36524   9.194  11.281   6.584  1.1888 -1.2576  1.0245
  277MOL0     H36525   9.257  11.249   6.421  1.4043  0.4270  0.8921
  277MOL0     H36526   9.467  11.266   6.446 -0.9097  0.3909  0.6240
  277MOL0     H36527   9.709  11.266   6.499  0.3977 -1.1546  0.2610
  277MOL0     H36528  10.114  11.298   6.499 -0.1432 -2.2317  0.2954
  277MOL0     H36529  10.337  11.343   6.596  2.9954 -4.8189  0.6664
  277MOL0     H36530  10.504  11.460   6.910 -2.5350 -1.5045  1.6487
  277MOL0     H36531  10.381  11.501   6.791 -0.5092 -0.7717 -1.6804
  277MOL0     H36532  10.533  11.470   6.624  0.6473  2.2819  1.5423
  277MOL0     H36533  10.579  11.311   6.696  3.4304  0.0338  3.1954
  277MOL0     H36534  10.725  11.411   6.852 -1.5082  0.4746 -0.5487
  277MOL0     H36535  10.674  11.573   6.805 -0.1951  0.3144 -0.8992
  277MOL0     H36536  10.847  11.366   6.648  1.6771  0.7329 -0.3184
  277MOL0     H36537  10.767  11.505   6.571  1.2482  0.8381 -0.2405
  277MOL0     H36538  10.955  11.528   6.812  6.0418  0.6706 -1.0333
  277MOL0     H36539  10.897  11.666   6.721 -0.8114  0.1398 -0.4021
  277MOL0     H36540  11.075  11.438   6.644  0.5022  0.0248 -1.3021
  277MOL0     H36541  11.131  11.606   6.679  1.7119 -0.2899 -1.3716
  277MOL0     H36542  10.982  11.530   6.425  0.2018 -2.5373  3.0295
  277MOL0     H36543  11.068  11.689   6.482 -0.1917 -0.2087  1.7223
  277MOL0     H36544  11.182  11.587   6.313  0.0998  1.3158  0.6065
  277MOL0     H36545  11.200  11.436   6.403 -0.8868  0.5553 -1.4800
  277MOL0     H36546  10.212  11.148   6.953  1.1935 -2.0959 -1.3678
  277MOL0     H36547   9.997  11.107   6.871  0.1234  4.1438  4.1132
  277MOL0     H36548   9.645  10.920   6.749 -0.6144 -0.9069 -0.7737
  277MOL0     H36549   9.401  10.930   6.698 -0.0250 -1.6355 -1.4982
  277MOL0     H36550   9.268  10.640   7.590 -0.5469 -1.4774  0.0236
  277MOL0     H36551   9.494  10.624   7.652  2.3791 -2.7456  0.4953
  277MOL0     H36552   9.914  10.630   7.461 -2.1217 -1.1829  1.5002
  277MOL0     H36553  10.164  10.637   7.481  2.4261 -0.9652  2.5283
  277MOL0     H36554  10.363  10.631   7.581 -2.7440 -1.4152  2.1314
  277MOL0     H36555  10.391  10.534   7.425  0.7890 -0.4438  0.2967
  277MOL0     H36556  10.548  10.495   7.667  1.6254  1.5877  0.0630
  277MOL0     H36557  10.599  10.450   7.507  0.6109 -1.0715  1.8324
  277MOL0     H36558  10.573  10.736   7.626 -1.4875 -2.4098  0.4151
  277MOL0     H36559  10.619  10.710   7.460  4.0649 -0.5552 -1.3027
  277MOL0     H36560  10.758  10.661   7.718 -0.7927  0.1851  0.1199
  277MOL0     H36561  10.801  10.548   7.588  0.3554  0.0926 -2.2030
  277MOL0     H36562  11.012  10.915   7.506  0.3689 -0.7367 -0.1229
  277MOL0     H36563  10.181  10.259   7.674  2.9475  2.3218 -0.6687
  277MOL0     H36564   9.931  10.257   7.677 -0.6291 -0.1894  0.2979
  278MOL0     O36565   7.593   1.881   2.251  0.4101  0.0034 -0.5780
  278MOL0     C36566   7.589   1.996   2.207  0.2268 -0.7078 -0.9827
  278MOL0     O36567   7.474   2.061   2.174 -0.1206 -0.3275  0.6802
  278MOL0     C36568   7.347   2.010   2.179 -0.0995 -0.5130 -0.0652
  278MOL0     C36569   7.304   1.874   2.160 -0.1088  0.6780 -0.2184
  278MOL0     C36570   7.169   1.831   2.177  0.4994 -0.9161  0.7448
  278MOL0     C36571   7.072   1.928   2.220  0.3894  0.1203 -0.0815
  278MOL0     O36572   6.938   1.903   2.222  0.0964 -0.3031 -0.3827
  278MOL0     C36573   6.877   1.856   2.334  0.0327 -0.2936  0.5511
  278MOL0     C36574   6.885   1.706   2.352 -0.4537 -0.0652 -0.2876
  278MOL0     C36575   6.808   1.656   2.474  0.4180  1.1114 -0.6044
  278MOL0     C36576   6.658   1.653   2.444 -0.0503 -1.2325  0.2895
  278MOL0     C36577   6.580   1.612   2.563  0.2674  0.4349  0.3278
  278MOL0     C36578   6.441   1.597   2.509  0.2253 -0.7090  0.0936
  278MOL0     C36579   6.341   1.562   2.616  0.5943 -0.0239 -0.2248
  278MOL0     C36580   6.196   1.521   2.569  0.3306 -0.2961 -0.4110
  278MOL0     N36581   6.094   1.519   2.673  0.0430 -0.4919  0.1723
  278MOL0     C36582   6.068   1.409   2.752 -0.0638  1.1001  0.3003
  278MOL0     C36583   5.993   1.458   2.846  0.2738  0.8951  0.0525
  278MOL0     C36584   5.963   1.375   2.967  0.3340 -0.2496  0.7174
  278MOL0     C36585   5.825   1.407   3.024  0.2139 -0.2810 -0.3118
  278MOL0     C36586   5.800   1.326   3.149  0.0870 -0.0731  0.0477
  278MOL0     C36587   5.653   1.343   3.201  0.0512  1.0235 -0.5192
  278MOL0     O36588   5.578   1.285   3.093 -0.1504 -0.5343 -1.0447
  278MOL0     C36589   5.442   1.282   3.105 -0.3594  0.1702 -0.6030
  278MOL0     C36590   5.373   1.345   3.210  0.1888 -0.3449 -0.1921
  278MOL0     C36591   5.235   1.348   3.207 -0.2725 -0.2189  0.2989
  278MOL0     C36592   5.156   1.291   3.098  0.5936  0.6010 -0.5202
  278MOL0     C36593   5.006   1.301   3.097  0.2479  0.0682 -0.1845
  278MOL0     O36594   4.938   1.369   3.199 -0.6252  0.9529 -0.2155
  278MOL0     C36595   4.802   1.366   3.212  0.0716  0.1000 -0.0166
  278MOL0     C36596   4.713   1.459   3.153  0.0789  0.1308 -0.5547
  278MOL0     C36597   4.575   1.455   3.187 -1.0381  0.0637 -0.1398
  278MOL0     C36598   4.526   1.360   3.284 -0.0388 -0.2100  0.0427
  278MOL0     O36599   4.405   1.355   3.342 -0.6465  0.0916  0.1248
  278MOL0     C36600   4.303   1.447   3.303 -0.1997  0.6045  0.0655
  278MOL0     C36601   4.188   1.397   3.388 -0.6429 -0.2875  0.4494
  278MOL0     C36602   4.065   1.489   3.383  0.2418 -0.1055 -0.5806
  278MOL0     C36603   3.965   1.434   3.487  0.7523  0.1294  0.2384
  278MOL0     C36604   3.865   1.538   3.532  0.1720  0.5649 -0.2268
  278MOL0     C36605   3.789   1.602   3.420 -0.3974 -0.1325 -0.1060
  278MOL0     C36606   3.676   1.701   3.464 -0.3382 -0.6144 -0.8370
  278MOL0     C36607   3.559   1.639   3.541 -0.1578  0.0255  1.3082
  278MOL0    Cl36608   3.435   1.771   3.562  0.4979 -0.1856  0.0613
  278MOL0     C36609   4.613   1.270   3.342  0.6022  0.6231 -0.1189
  278MOL0     C36610   4.749   1.276   3.304 -0.3130 -0.3840  0.0491
  278MOL0     O36611   4.955   1.254   2.998 -0.4364  0.1989 -0.1747
  278MOL0     C36612   5.228   1.210   3.011 -0.1092 -0.1620 -0.0474
  278MOL0     C36613   5.364   1.215   3.012  0.1834 -0.2647  0.2996
  278MOL0     N36614   5.978   1.595   2.831 -0.4311 -0.0804 -0.3409
  278MOL0     N36615   6.037   1.628   2.715 -0.0577  0.4071  0.1464
  278MOL0     C36616   7.114   2.063   2.222 -0.0917 -0.1393  0.0510
  278MOL0     C36617   7.251   2.102   2.211 -0.3683 -0.5805  0.2214
  278MOL0     C36618   7.715   2.082   2.208 -0.5986 -0.0503 -0.5419
  278MOL0     C36619   7.716   2.223   2.235  0.9576  0.6049 -0.7517
  278MOL0     C36620   7.829   2.295   2.254  0.2604  0.1264  1.3641
  278MOL0     C36621   7.953   2.238   2.236 -0.0335  1.0219 -0.0280
  278MOL0     O36622   8.065   2.314   2.223  0.5408 -0.3149  0.2527
  278MOL0     C36623   8.176   2.284   2.302  0.3016  0.7025 -0.0495
  278MOL0     C36624   8.299   2.298   2.224 -0.1098  0.3900  0.1392
  278MOL0     C36625   8.343   2.444   2.235  0.4335 -0.2443  0.0141
  278MOL0     C36626   8.472   2.484   2.161 -0.8184  0.1845 -0.4665
  278MOL0     C36627   8.587   2.449   2.241 -1.4736 -0.7949 -0.8572
  278MOL0     C36628   8.673   2.407   2.323 -1.0597 -0.2436 -1.1838
  278MOL0     C36629   7.963   2.100   2.193  0.5399 -0.5644 -0.0911
  278MOL0     C36630   7.840   2.031   2.184  0.0134  0.0165  0.7043
  278MOL0     H36631   7.385   1.806   2.136  0.6771  1.3565  0.4596
  278MOL0     H36632   7.120   1.735   2.162  0.8066 -0.9186 -0.3488
  278MOL0     H36633   6.773   1.888   2.320 -0.4450 -2.3356 -1.0514
  278MOL0     H36634   6.909   1.911   2.424 -0.7603  1.7230 -0.3304
  278MOL0     H36635   6.987   1.669   2.363 -0.0173  0.8025 -1.2995
  278MOL0     H36636   6.841   1.661   2.262 -1.6872  2.1929 -0.8845
  278MOL0     H36637   6.826   1.720   2.562 -0.1607  0.5926 -0.1000
  278MOL0     H36638   6.833   1.553   2.502  1.0669  1.5670  0.6066
  278MOL0     H36639   6.618   1.754   2.432 -0.8696 -1.0885  3.4415
  278MOL0     H36640   6.644   1.582   2.362 -0.1279 -0.2780 -0.5271
  278MOL0     H36641   6.574   1.682   2.647  0.9079 -0.7198  1.3814
  278MOL0     H36642   6.614   1.517   2.605  0.4232  0.3199 -0.0583
  278MOL0     H36643   6.438   1.515   2.438 -0.4346 -0.0320 -0.6847
  278MOL0     H36644   6.402   1.689   2.463 -0.5873 -1.6150 -1.0677
  278MOL0     H36645   6.382   1.479   2.675  0.2875 -1.1153 -1.4971
  278MOL0     H36646   6.333   1.648   2.683  1.9297  0.0545 -0.1397
  278MOL0     H36647   6.192   1.429   2.510  0.5171 -0.5861  0.0225
  278MOL0     H36648   6.173   1.600   2.496 -2.1269 -2.4794 -2.2284
  278MOL0     H36649   6.113   1.310   2.745  1.9828  1.6785  3.4214
  278MOL0     H36650   6.038   1.389   3.046  1.0859 -0.5533  0.0717
  278MOL0     H36651   5.967   1.269   2.940 -0.6219 -0.3558  0.9720
  278MOL0     H36652   5.746   1.381   2.953  0.4781 -1.5427 -0.1709
  278MOL0     H36653   5.817   1.514   3.046 -1.3816 -0.5304  0.5102
  278MOL0     H36654   5.811   1.218   3.136 -0.0285 -0.6451  3.5880
  278MOL0     H36655   5.856   1.365   3.234 -4.1265  3.0240  1.7912
  278MOL0     H36656   5.618   1.444   3.224 -0.0174  1.3285 -1.9070
  278MOL0     H36657   5.644   1.286   3.295 -4.9261 -0.6728 -1.7227
  278MOL0     H36658   5.424   1.406   3.283  0.3704  2.5154 -2.5548
  278MOL0     H36659   5.186   1.395   3.291  1.9752 -1.5240  2.4566
  278MOL0     H36660   4.753   1.533   3.085  0.4753  0.8704  0.4567
  278MOL0     H36661   4.504   1.523   3.139  2.8652  2.6040 -3.0090
  278MOL0     H36662   4.278   1.431   3.198 -1.3349 -0.7067  0.5168
  278MOL0     H36663   4.338   1.550   3.318  0.9762  0.6142 -2.2624
  278MOL0     H36664   4.224   1.399   3.491  1.5419  2.2982 -0.2336
  278MOL0     H36665   4.162   1.294   3.364 -0.6790 -0.3363  0.6937
  278MOL0     H36666   4.001   1.490   3.295 -3.1950 -1.8335  1.6574
  278MOL0     H36667   4.095   1.591   3.408 -1.0344 -0.1697  1.4403
  278MOL0     H36668   3.913   1.343   3.454 -2.5445  1.6338  0.8849
  278MOL0     H36669   4.015   1.418   3.583  0.0842  1.6000  0.8602
  278MOL0     H36670   3.914   1.621   3.584  1.1344  0.7134 -1.3349
  278MOL0     H36671   3.789   1.485   3.591 -1.4245  1.8935 -1.0240
  278MOL0     H36672   3.740   1.526   3.358  1.9435 -1.8094 -0.0432
  278MOL0     H36673   3.853   1.665   3.357 -2.5558 -0.7270 -3.1130
  278MOL0     H36674   3.728   1.767   3.534 -2.8091 -0.1917  0.7269
  278MOL0     H36675   3.639   1.750   3.374 -2.7799 -0.1293  0.3400
  278MOL0     H36676   3.588   1.603   3.640  3.1669 -0.3651  0.3293
  278MOL0     H36677   3.525   1.558   3.476  1.8541  0.8020 -0.8818
  278MOL0     H36678   4.589   1.198   3.420 -0.6141  0.2377 -0.8127
  278MOL0     H36679   4.811   1.206   3.359 -1.4658  1.2831  3.7951
  278MOL0     H36680   5.181   1.143   2.940  1.2890 -1.9917  0.6711
  278MOL0     H36681   5.408   1.158   2.931 -0.5135  2.1302 -1.9137
  278MOL0     H36682   7.035   2.136   2.235 -0.5445 -1.0202  2.8245
  278MOL0     H36683   7.281   2.204   2.229  0.9360 -1.5567  5.3511
  278MOL0     H36684   7.618   2.268   2.246 -1.0446 -3.2339 -1.2452
  278MOL0     H36685   7.822   2.402   2.267  1.3959  0.8910 -2.9784
  278MOL0     H36686   8.178   2.182   2.340  1.6498  0.0477 -1.7513
  278MOL0     H36687   8.171   2.353   2.388 -1.4218  2.2383 -1.3189
  278MOL0     H36688   8.376   2.237   2.270  1.3395  3.6843  2.4964
  278MOL0     H36689   8.279   2.255   2.125 -1.9024 -0.3012  0.7628
  278MOL0     H36690   8.353   2.462   2.343  1.8353 -0.7251 -0.0121
  278MOL0     H36691   8.263   2.502   2.189 -0.0895 -1.0125 -0.0737
  278MOL0     H36692   8.478   2.450   2.057 -0.8228 -1.4597  0.0474
  278MOL0     H36693   8.470   2.593   2.168 -1.3462  0.2697 -1.6900
  278MOL0     H36694   8.750   2.389   2.395 -1.1556  0.2320 -0.9615
  278MOL0     H36695   8.065   2.067   2.176  1.7563  1.7178  2.0456
  278MOL0     H36696   7.852   1.933   2.139  0.4710 -0.1003  1.0839
  279MOL0     O36697   2.494   6.102   1.331  0.1839  0.6427  0.1282
  279MOL0     C36698   2.522   6.190   1.413  0.6470 -0.2549  0.0616
  279MOL0     O36699   2.427   6.234   1.498  0.3300 -0.3811 -0.1006
  279MOL0     C36700   2.302   6.189   1.481  0.5296  1.6102  0.1637
  279MOL0     C36701   2.236   6.137   1.591  0.7159  1.2206 -0.7040
  279MOL0     C36702   2.100   6.101   1.596  0.1890 -0.3976  0.1827
  279MOL0     C36703   2.023   6.121   1.481 -0.2011  0.5122  0.1239
  279MOL0     O36704   1.886   6.103   1.483  0.0160 -0.0384 -0.3987
  279MOL0     C36705   1.808   6.175   1.394 -0.2924 -0.5316 -0.2067
  279MOL0     C36706   1.654   6.143   1.422 -1.1861  0.0609  0.6612
  279MOL0     C36707   1.571   6.188   1.307  1.6061  0.2930 -0.7825
  279MOL0     C36708   1.422   6.168   1.339  0.3053 -0.4634  0.0171
  279MOL0     C36709   1.368   6.249   1.459 -0.2384 -0.0567 -0.0743
  279MOL0     C36710   1.211   6.229   1.457 -0.0375 -0.6567  0.2356
  279MOL0     C36711   1.129   6.288   1.572  0.9448  1.0487  0.2651
  279MOL0     C36712   0.979   6.261   1.545  0.2242 -0.2584 -0.1406
  279MOL0     N36713   0.884   6.312   1.643 -0.4542  0.1627 -0.1550
  279MOL0     C36714   0.793   6.414   1.625  0.3845 -0.1195 -0.1632
  279MOL0     C36715   0.763   6.459   1.752 -0.2269 -0.2026 -0.7366
  279MOL0     C36716   0.657   6.568   1.787  0.2263  0.0010 -0.2847
  279MOL0     C36717   0.721   6.704   1.814  0.6289 -0.5488  0.2097
  279MOL0     C36718   0.654   6.828   1.746 -0.3122  0.4873  0.3353
  279MOL0     C36719   0.505   6.850   1.795 -0.5528  0.3132 -0.4522
  279MOL0     O36720   0.509   6.920   1.919 -0.3039 -0.7124 -0.6564
  279MOL0     C36721   0.394   6.963   1.981  0.0390  0.4578 -0.2596
  279MOL0     C36722   0.265   6.921   1.950  0.1746  0.7262 -0.4008
  279MOL0     C36723   0.154   6.973   2.022 -0.4423  0.0939 -0.5030
  279MOL0     C36724   0.175   7.046   2.140  0.4070 -0.8572  0.0662
  279MOL0     C36725   0.068   7.101   2.225  0.5699 -0.9465  0.4680
  279MOL0     O36726  -0.057   7.073   2.176  0.6588 -1.3070 -0.0871
  279MOL0     C36727  -0.161   7.143   2.242  0.7639 -0.2692  0.0639
  279MOL0     C36728  -0.257   7.210   2.165 -1.2299 -0.5154 -0.5365
  279MOL0     C36729  -0.361   7.270   2.226  0.0464 -0.1293  1.4139
  279MOL0     C36730  -0.382   7.260   2.360  0.3540  0.1099 -0.0060
  279MOL0     O36731  -0.487   7.333   2.421  0.4104  0.2802 -0.5842
  279MOL0     C36732  -0.617   7.346   2.359  0.3839 -0.5417  0.0422
  279MOL0     C36733  -0.718   7.394   2.465  0.3048  0.3839 -0.0877
  279MOL0     C36734  -0.700   7.337   2.608 -0.4365 -0.4009 -0.0874
  279MOL0     C36735  -0.809   7.380   2.715 -0.1821  0.7478 -0.8683
  279MOL0     C36736  -0.937   7.290   2.725 -0.5078  0.2522  0.6494
  279MOL0     C36737  -1.052   7.374   2.776 -0.6747  0.2667  0.4012
  279MOL0     C36738  -1.169   7.294   2.828 -0.6521 -0.1067  0.2899
  279MOL0     C36739  -1.277   7.380   2.885  1.1237  0.3239  0.3011
  279MOL0    Cl36740  -1.362   7.493   2.786 -0.2026 -0.1162 -0.0631
  279MOL0     C36741  -0.295   7.199   2.448 -0.1309  0.3857  0.3241
  279MOL0     C36742  -0.189   7.129   2.382 -0.4910 -0.8468  0.1435
  279MOL0     O36743   0.104   7.152   2.332 -0.1375  0.8520 -0.0648
  279MOL0     C36744   0.309   7.078   2.182  0.2341 -0.7544 -0.1044
  279MOL0     C36745   0.410   7.034   2.098  0.0308  0.4333 -0.7692
  279MOL0     N36746   0.838   6.385   1.846  0.0321  0.3758  0.3801
  279MOL0     N36747   0.900   6.303   1.775 -0.3032  1.1512  0.6256
  279MOL0     C36748   2.094   6.163   1.356 -0.4749 -0.0283 -0.6734
  279MOL0     C36749   2.230   6.197   1.363 -0.3478  0.0678  0.8777
  279MOL0     C36750   2.663   6.222   1.440  0.6908 -0.2766 -0.3669
  279MOL0     C36751   2.764   6.178   1.357 -0.1319  0.1708  0.3287
  279MOL0     C36752   2.900   6.186   1.389  0.7067  0.0766 -1.0450
  279MOL0     C36753   2.941   6.245   1.508  0.4240 -1.1049 -0.2324
  279MOL0     O36754   3.076   6.263   1.541  0.4012  0.3446  0.4484
  279MOL0     C36755   3.180   6.225   1.447 -0.0511  0.0779 -0.1263
  279MOL0     C36756   3.290   6.331   1.448  0.1584  0.3016 -0.9262
  279MOL0     C36757   3.242   6.476   1.431 -0.0246  1.4290  0.6100
  279MOL0     C36758   3.348   6.577   1.387 -0.0923 -0.8578  0.2569
  279MOL0     C36759   3.459   6.603   1.488  0.5424 -0.8621 -0.0031
  279MOL0     C36760   3.553   6.624   1.562  0.6153 -0.5261 -0.0266
  279MOL0     C36761   2.842   6.302   1.591  0.4785  0.2867  0.4403
  279MOL0     C36762   2.703   6.287   1.559 -0.6466  0.5291 -0.0226
  279MOL0     H36763   2.304   6.127   1.675  1.3571  2.9865 -0.9642
  279MOL0     H36764   2.047   6.076   1.687  2.1246 -4.1920  0.4430
  279MOL0     H36765   1.838   6.138   1.295 -3.5147  0.2823 -1.6206
  279MOL0     H36766   1.826   6.283   1.399  1.2100 -0.7891  0.3093
  279MOL0     H36767   1.618   6.177   1.519  0.4431  0.2925  1.2103
  279MOL0     H36768   1.646   6.033   1.420  2.3150 -0.2957 -0.0536
  279MOL0     H36769   1.598   6.129   1.219 -0.1970 -1.5741 -0.1610
  279MOL0     H36770   1.583   6.294   1.286  1.2977  0.6698  0.7701
  279MOL0     H36771   1.353   6.205   1.263 -1.6175 -0.5467  1.6405
  279MOL0     H36772   1.402   6.061   1.346  0.0036 -0.5006 -1.1828
  279MOL0     H36773   1.392   6.355   1.448 -1.2875  0.5831  2.8411
  279MOL0     H36774   1.404   6.207   1.553  0.2530 -1.0695 -0.6874
  279MOL0     H36775   1.195   6.121   1.454  3.2577 -1.2259 -1.0933
  279MOL0     H36776   1.177   6.273   1.362  4.6431  0.3802 -1.2424
  279MOL0     H36777   1.163   6.236   1.662  4.7913  0.6892 -1.2017
  279MOL0     H36778   1.150   6.395   1.580  1.7368  0.9219 -0.0158
  279MOL0     H36779   0.963   6.153   1.534  2.1216 -0.5065 -0.7381
  279MOL0     H36780   0.956   6.308   1.449 -0.8132 -2.6700 -1.1749
  279MOL0     H36781   0.758   6.461   1.533  1.3604 -1.2802 -1.1731
  279MOL0     H36782   0.605   6.542   1.880 -2.9346  2.0246 -1.3157
  279MOL0     H36783   0.585   6.571   1.704  0.5206  1.2592 -0.5070
  279MOL0     H36784   0.822   6.691   1.774  1.1240  2.2905  0.3883
  279MOL0     H36785   0.721   6.727   1.921 -1.3490  2.5585 -0.3459
  279MOL0     H36786   0.713   6.919   1.762 -0.2771  0.7211 -0.9618
  279MOL0     H36787   0.661   6.820   1.637  3.0256  3.4569  0.1579
  279MOL0     H36788   0.472   6.746   1.805  1.9082 -0.3073  2.5061
  279MOL0     H36789   0.445   6.905   1.721  1.2669  0.8079 -1.6313
  279MOL0     H36790   0.247   6.847   1.872 -0.2703  1.9477 -1.5105
  279MOL0     H36791   0.056   6.945   1.984 -0.8581  0.0655  0.5566
  279MOL0     H36792  -0.244   7.219   2.057 -1.2812  2.2696 -0.3808
  279MOL0     H36793  -0.421   7.331   2.160 -2.0805 -2.8530  0.6127
  279MOL0     H36794  -0.644   7.246   2.322  1.3789  0.0594 -2.5466
  279MOL0     H36795  -0.619   7.408   2.269 -1.9514  0.3608  0.6660
  279MOL0     H36796  -0.820   7.396   2.424  0.3425  1.8599 -0.1854
  279MOL0     H36797  -0.698   7.499   2.488  0.0146 -0.0203  2.1689
  279MOL0     H36798  -0.607   7.370   2.656 -1.1985 -0.5452  1.5717
  279MOL0     H36799  -0.686   7.229   2.601  3.0556 -0.0811 -0.0682
  279MOL0     H36800  -0.769   7.393   2.816 -1.4087 -0.6640 -0.1546
  279MOL0     H36801  -0.852   7.479   2.698 -2.9535  0.0191  1.1913
  279MOL0     H36802  -0.916   7.196   2.777 -1.3743 -2.2967 -3.1398
  279MOL0     H36803  -0.968   7.244   2.630  2.7173 -1.4343  0.2568
  279MOL0     H36804  -1.086   7.440   2.695 -2.2886 -0.7706  0.1895
  279MOL0     H36805  -1.017   7.439   2.857 -2.0205  2.7367 -0.8816
  279MOL0     H36806  -1.212   7.237   2.746 -0.2570  2.6054 -1.9437
  279MOL0     H36807  -1.130   7.234   2.911 -1.2191  0.8646  1.2938
  279MOL0     H36808  -1.244   7.445   2.967  2.0457  1.2046 -0.7355
  279MOL0     H36809  -1.349   7.303   2.913 -0.5655  1.0048 -1.8697
  279MOL0     H36810  -0.307   7.193   2.556  0.9628  1.7117  0.5461
  279MOL0     H36811  -0.136   7.060   2.447 -0.7018 -2.1723 -1.0444
  279MOL0     H36812   0.326   7.141   2.269 -1.7324  0.2634 -0.3770
  279MOL0     H36813   0.508   7.066   2.132 -0.2477  1.8184 -1.2288
  279MOL0     H36814   2.044   6.178   1.261  0.9323 -0.3994 -1.5014
  279MOL0     H36815   2.272   6.233   1.269 -4.4766  2.4863 -0.2890
  279MOL0     H36816   2.737   6.125   1.266 -2.6213  1.7682  0.0405
  279MOL0     H36817   2.970   6.141   1.319  3.0646  2.0559 -0.1411
  279MOL0     H36818   3.131   6.228   1.349 -2.1110  0.6609  0.8605
  279MOL0     H36819   3.234   6.132   1.468 -1.6366 -0.4760  1.8512
  279MOL0     H36820   3.332   6.317   1.548 -0.6553  0.3111 -0.5780
  279MOL0     H36821   3.368   6.298   1.378 -0.0984 -2.0457 -0.1942
  279MOL0     H36822   3.195   6.508   1.524 -2.9383 -1.5438  0.3382
  279MOL0     H36823   3.176   6.470   1.344 -0.8543 -1.6084  1.3292
  279MOL0     H36824   3.394   6.541   1.294 -0.0261 -2.1716  0.7700
  279MOL0     H36825   3.297   6.670   1.360  0.3304 -0.5583  0.4763
  279MOL0     H36826   3.631   6.648   1.631  2.1106 -0.9647 -1.5152
  279MOL0     H36827   2.862   6.352   1.685 -2.8939  2.8427 -0.0252
  279MOL0     H36828   2.627   6.319   1.630 -2.9316 -2.9325 -0.6922
  280MOL0     O36829   5.979   4.629   9.662  0.8524 -0.3140  0.0349
  280MOL0     C36830   5.954   4.558   9.566  0.0934 -0.3256 -0.3141
  280MOL0     O36831   5.866   4.590   9.464  0.3984  0.0092 -0.1212
  280MOL0     C36832   5.788   4.700   9.478 -0.1199 -0.5150 -0.1699
  280MOL0     C36833   5.656   4.697   9.535  0.1109 -1.0993  0.2940
  280MOL0     C36834   5.579   4.815   9.546 -0.1315  0.5617  0.0203
  280MOL0     C36835   5.631   4.940   9.493  0.2709 -0.5033  0.2521
  280MOL0     O36836   5.556   5.054   9.493  0.3673 -0.3426  0.0152
  280MOL0     C36837   5.418   5.051   9.481 -0.6301  0.4063  0.6937
  280MOL0     C36838   5.361   4.969   9.363  0.3643  0.2223  0.2674
  280MOL0     C36839   5.208   5.016   9.319 -0.0345  0.0391 -0.1561
  280MOL0     C36840   5.128   5.058   9.438  0.6485 -0.2080 -0.4106
  280MOL0     C36841   4.979   5.089   9.406 -0.6399 -0.0152  0.4036
  280MOL0     C36842   4.902   4.959   9.395 -1.1916 -0.2591  0.2200
  280MOL0     C36843   4.747   4.981   9.429 -0.3507  0.2764 -0.2442
  280MOL0     C36844   4.677   5.081   9.328 -0.0447 -0.8525 -0.4829
  280MOL0     N36845   4.532   5.074   9.333 -1.2284  0.8398  0.7977
  280MOL0     C36846   4.453   5.162   9.394 -0.7695  1.1257  0.7424
  280MOL0     C36847   4.338   5.100   9.391  1.1650  0.3053 -0.4724
  280MOL0     C36848   4.225   5.145   9.485  0.6834  0.5567 -0.5313
  280MOL0     C36849   4.098   5.113   9.422  0.6645  0.1748  0.1676
  280MOL0     C36850   3.979   5.149   9.520  0.0868  0.1009 -0.4716
  280MOL0     C36851   3.831   5.096   9.476  0.2207 -0.1999 -0.5671
  280MOL0     O36852   3.731   5.160   9.555 -0.3318  0.0899 -0.1806
  280MOL0     C36853   3.602   5.118   9.551 -0.3483 -0.3064 -0.1956
  280MOL0     C36854   3.551   4.999   9.494 -0.3450 -0.1599  0.5267
  280MOL0     C36855   3.420   4.966   9.504 -0.2197 -0.2780  0.7557
  280MOL0     C36856   3.331   5.034   9.585 -0.2933  0.6395  0.6213
  280MOL0     C36857   3.186   4.991   9.598 -0.6074  0.3090  0.1438
  280MOL0     O36858   3.100   5.064   9.679  0.3573  0.4612  0.2890
  280MOL0     C36859   2.969   5.018   9.684 -0.0785  0.0512  0.7444
  280MOL0     C36860   2.890   5.048   9.570  0.1380  0.4771  0.2811
  280MOL0     C36861   2.754   5.007   9.579  0.0601 -0.2149  0.1877
  280MOL0     C36862   2.701   4.941   9.689 -0.4965  0.9661 -0.2129
  280MOL0     O36863   2.565   4.901   9.681  0.6648  0.8382 -0.1609
  280MOL0     C36864   2.498   4.840   9.792  0.5396  0.1459 -0.0978
  280MOL0     C36865   2.349   4.838   9.761 -0.2487 -0.0673  0.0283
  280MOL0     C36866   2.274   4.755   9.867 -0.4831  0.3701  0.5672
  280MOL0     C36867   2.301   4.606   9.835 -0.3982 -0.6766  0.8991
  280MOL0     C36868   2.205   4.546   9.732  0.4114  0.2944 -0.7511
  280MOL0     C36869   2.064   4.539   9.767  0.1108  0.1294  0.0863
  280MOL0     C36870   1.991   4.482   9.646 -0.6866  0.7524  0.3644
  280MOL0     C36871   1.849   4.440   9.667 -0.1713 -0.2178 -0.2482
  280MOL0    Cl36872   1.751   4.593   9.672  0.3368 -0.1080  0.6321
  280MOL0     C36873   2.784   4.920   9.803  0.6492 -0.3546  0.1667
  280MOL0     C36874   2.913   4.972   9.803 -0.5788  0.0005  0.3315
  280MOL0     O36875   3.149   4.902   9.521  0.2377 -0.1866 -0.1036
  280MOL0     C36876   3.378   5.152   9.650  0.9659 -0.5886  0.0808
  280MOL0     C36877   3.511   5.193   9.635 -0.0945 -0.1487 -0.2757
  280MOL0     N36878   4.339   4.984   9.317 -0.1819 -0.1888  0.8658
  280MOL0     N36879   4.458   4.971   9.275  0.1597  0.7224  0.6235
  280MOL0     C36880   5.758   4.935   9.447 -0.5333 -0.4514  0.1450
  280MOL0     C36881   5.832   4.819   9.431 -0.1277  0.3266  0.3947
  280MOL0     C36882   6.018   4.431   9.565 -0.6464 -0.2769  0.2343
  280MOL0     C36883   5.983   4.335   9.466  0.1130  0.8242 -0.2251
  280MOL0     C36884   6.060   4.218   9.458 -0.7127  0.0658  0.4663
  280MOL0     C36885   6.170   4.204   9.541 -0.9109 -0.0365 -0.0225
  280MOL0     O36886   6.247   4.086   9.522  0.1940 -0.7628  0.2338
  280MOL0     C36887   6.320   4.031   9.637 -0.1495 -0.1645  0.4819
  280MOL0     C36888   6.351   3.878   9.622 -1.0073 -0.2155 -0.0167
  280MOL0     C36889   6.220   3.789   9.637 -0.1718  0.1099 -0.1321
  280MOL0     C36890   6.237   3.642   9.632 -0.3820 -0.2906  0.2345
  280MOL0     C36891   6.343   3.600   9.719  0.0280 -0.1064  0.7329
  280MOL0     C36892   6.449   3.569   9.765  0.4153  0.2667 -0.2069
  280MOL0     C36893   6.204   4.288   9.645  0.7522  0.3718  0.0426
  280MOL0     C36894   6.116   4.403   9.656  0.1848 -0.5021 -0.8825
  280MOL0     H36895   5.619   4.603   9.574 -2.5394  0.0548  0.7513
  280MOL0     H36896   5.487   4.800   9.602 -0.1866 -0.4157 -0.3132
  280MOL0     H36897   5.381   5.153   9.463 -0.7712  0.0872 -0.9909
  280MOL0     H36898   5.374   5.022   9.577 -0.5875 -0.7164  0.3808
  280MOL0     H36899   5.345   4.865   9.392 -3.7924  0.3233 -0.9812
  280MOL0     H36900   5.432   4.972   9.280  2.5216  0.9537  2.0334
  280MOL0     H36901   5.171   4.919   9.286  4.2139 -2.2008  0.8752
  280MOL0     H36902   5.221   5.091   9.239  0.5739  0.1705  0.0618
  280MOL0     H36903   5.127   4.980   9.515  0.6217  0.5225  0.3486
  280MOL0     H36904   5.167   5.147   9.488 -0.7049  0.8634 -1.1811
  280MOL0     H36905   4.973   5.153   9.318  0.3246 -0.1828  0.2064
  280MOL0     H36906   4.931   5.149   9.485 -0.4213  1.6394 -0.6842
  280MOL0     H36907   4.948   4.881   9.456  0.6782 -0.3542 -1.2124
  280MOL0     H36908   4.917   4.918   9.295  0.7942  0.2818  0.2673
  280MOL0     H36909   4.688   4.889   9.433 -1.4148  0.9838  2.6658
  280MOL0     H36910   4.753   5.013   9.533  0.4379 -0.1674 -0.1505
  280MOL0     H36911   4.708   5.056   9.226 -3.6924 -1.2340 -1.6347
  280MOL0     H36912   4.703   5.184   9.355 -2.6199 -0.1871 -0.2972
  280MOL0     H36913   4.488   5.249   9.448 -1.3433  1.4484  0.5949
  280MOL0     H36914   4.224   5.254   9.485 -0.4898  0.6192  1.8470
  280MOL0     H36915   4.233   5.104   9.586  1.6113 -0.3282 -0.9515
  280MOL0     H36916   4.079   5.009   9.395  0.0955  0.9607 -2.7605
  280MOL0     H36917   4.073   5.180   9.339 -0.6760  2.3128  2.1465
  280MOL0     H36918   4.002   5.099   9.615  2.6033 -0.7560 -1.4527
  280MOL0     H36919   3.973   5.257   9.537  1.4131  0.1323 -0.0793
  280MOL0     H36920   3.826   4.987   9.484  0.1887 -0.1608 -0.0556
  280MOL0     H36921   3.811   5.122   9.371  2.1175 -0.4212 -1.0260
  280MOL0     H36922   3.626   4.941   9.441  0.0242  0.9697 -0.2275
  280MOL0     H36923   3.389   4.874   9.456  0.0695  0.1216 -0.2020
  280MOL0     H36924   2.940   5.082   9.480  1.7769 -1.1198  0.5315
  280MOL0     H36925   2.692   5.035   9.494 -0.9649  1.7650  1.5117
  280MOL0     H36926   2.525   4.911   9.870  2.0252 -0.1178 -0.3510
  280MOL0     H36927   2.540   4.741   9.810  2.1945  0.7188 -0.6797
  280MOL0     H36928   2.322   4.806   9.659 -0.8388 -0.3950  0.2776
  280MOL0     H36929   2.321   4.944   9.755  3.9860  1.1616 -0.7592
  280MOL0     H36930   2.168   4.781   9.878 -0.5394  0.0507  0.7912
  280MOL0     H36931   2.311   4.780   9.967 -0.7295 -1.5904  1.1995
  280MOL0     H36932   2.400   4.584   9.795 -0.7467 -0.3190 -0.1837
  280MOL0     H36933   2.290   4.557   9.932 -4.0786 -0.4135  0.7361
  280MOL0     H36934   2.248   4.447   9.715  1.8005  0.3178  2.0474
  280MOL0     H36935   2.218   4.604   9.640 -2.0030 -1.8398 -2.5637
  280MOL0     H36936   2.020   4.635   9.795 -1.0786 -0.0848 -0.9900
  280MOL0     H36937   2.051   4.472   9.852  0.6108  1.6741  1.4463
  280MOL0     H36938   1.986   4.553   9.564  1.1570  0.6952  0.1482
  280MOL0     H36939   2.044   4.393   9.611 -1.4602  0.7343 -0.7978
  280MOL0     H36940   1.842   4.381   9.759  1.5279 -0.1902 -0.0707
  280MOL0     H36941   1.818   4.373   9.586  2.6123 -1.7661 -0.1446
  280MOL0     H36942   2.736   4.874   9.888  1.9929  0.3876  1.3666
  280MOL0     H36943   2.974   4.952   9.890 -2.2320 -0.6909  1.3662
  280MOL0     H36944   3.326   5.204   9.730  1.0776  1.6557 -1.2341
  280MOL0     H36945   3.553   5.280   9.686  4.4543 -2.2147 -0.0117
  280MOL0     H36946   5.798   5.032   9.418 -0.6587 -0.7136 -0.9654
  280MOL0     H36947   5.928   4.811   9.380 -0.6276  0.9963 -0.7053
  280MOL0     H36948   5.895   4.324   9.402  0.6299 -1.5181 -0.6479
  280MOL0     H36949   6.035   4.144   9.383 -1.7050  1.9608 -1.2020
  280MOL0     H36950   6.264   4.048   9.729 -1.9476  1.8045 -0.8747
  280MOL0     H36951   6.411   4.091   9.644 -0.7495  0.7482  0.6365
  280MOL0     H36952   6.387   3.863   9.520  0.9648  2.6824  0.1567
  280MOL0     H36953   6.431   3.844   9.690 -2.1207  1.1224  2.0782
  280MOL0     H36954   6.145   3.819   9.564 -0.6659 -0.0641  0.2935
  280MOL0     H36955   6.167   3.816   9.729 -1.0405  4.2707 -1.6327
  280MOL0     H36956   6.140   3.592   9.640  0.0064 -0.7899  2.4990
  280MOL0     H36957   6.281   3.622   9.534  0.4103 -1.8237  0.8681
  280MOL0     H36958   6.543   3.538   9.805  1.3229  1.9907 -0.9114
  280MOL0     H36959   6.292   4.288   9.708  2.9273  2.3005 -2.7733
  280MOL0     H36960   6.142   4.477   9.730  1.0084 -0.0589 -1.5930
  281MOL0     O36961   4.239   0.338   7.616  0.7098  0.7795 -0.1071
  281MOL0     C36962   4.228   0.227   7.566  0.3537 -0.4718 -0.7965
  281MOL0     O36963   4.117   0.175   7.503 -0.2016  0.0087  0.7465
  281MOL0     C36964   3.999   0.246   7.492 -0.0903  0.0063 -0.0491
  281MOL0     C36965   3.921   0.268   7.606 -0.0208 -0.3608 -0.4190
  281MOL0     C36966   3.800   0.337   7.583  0.4345 -0.1399  0.2013
  281MOL0     C36967   3.754   0.385   7.457  0.3690 -0.8670  0.2236
  281MOL0     O36968   3.634   0.452   7.455  0.2153 -0.4562  0.9292
  281MOL0     C36969   3.561   0.439   7.336 -0.1193 -0.5866 -1.0254
  281MOL0     C36970   3.425   0.489   7.379 -0.4170  0.9282 -0.1899
  281MOL0     C36971   3.339   0.482   7.250  0.7926 -0.8575 -0.7600
  281MOL0     C36972   3.197   0.538   7.276 -0.7442  0.4072  0.5349
  281MOL0     C36973   3.096   0.494   7.168 -0.8570  0.1669 -0.3096
  281MOL0     C36974   2.965   0.557   7.190  0.5651 -0.2704 -0.0648
  281MOL0     C36975   2.845   0.498   7.121 -0.1694 -0.2103 -0.1241
  281MOL0     C36976   2.853   0.520   6.970 -0.5940  0.6164  0.8316
  281MOL0     N36977   2.728   0.490   6.896 -0.0048 -0.0998 -0.3877
  281MOL0     C36978   2.622   0.578   6.892  0.1772 -0.4875  0.0038
  281MOL0     C36979   2.529   0.523   6.810  0.4113 -0.1446 -0.3535
  281MOL0     C36980   2.401   0.580   6.771  0.3348  0.2652  0.2952
  281MOL0     C36981   2.412   0.719   6.697 -0.7127 -0.3525  0.0099
  281MOL0     C36982   2.508   0.720   6.578 -0.6904 -0.5632  0.3744
  281MOL0     C36983   2.661   0.727   6.604 -0.4921 -0.3959 -0.1125
  281MOL0     O36984   2.687   0.820   6.708  0.7312  0.2769 -0.2488
  281MOL0     C36985   2.816   0.837   6.751 -0.0097  0.3852 -0.3938
  281MOL0     C36986   2.927   0.769   6.712 -0.2263  0.6621  0.4404
  281MOL0     C36987   3.052   0.789   6.769 -0.6269  0.5596  0.3180
  281MOL0     C36988   3.067   0.880   6.877 -0.5865 -0.6425  0.9761
  281MOL0     C36989   3.194   0.894   6.943  0.1772 -0.0739 -0.2052
  281MOL0     O36990   3.194   0.916   7.071 -0.5801  0.3691  0.3491
  281MOL0     C36991   3.306   0.932   7.138 -0.5081  0.1004 -0.2429
  281MOL0     C36992   3.319   1.034   7.231  0.1401 -0.2244 -0.4343
  281MOL0     C36993   3.428   1.046   7.318 -0.1712  0.2209  0.0373
  281MOL0     C36994   3.529   0.952   7.305 -0.3104 -1.3217 -0.6303
  281MOL0     O36995   3.633   0.955   7.396  0.2029  0.1773 -0.3987
  281MOL0     C36996   3.638   0.839   7.485 -0.2091  0.7580  0.3869
  281MOL0     C36997   3.782   0.806   7.517  0.3732 -0.3146 -0.2614
  281MOL0     C36998   3.793   0.709   7.635 -0.2583  0.0334  0.2460
  281MOL0     C36999   3.949   0.695   7.672 -0.0145 -0.8534 -0.3408
  281MOL0     C37000   3.975   0.590   7.782  0.4493  0.2488  0.2791
  281MOL0     C37001   4.128   0.592   7.820 -0.1859 -0.5870 -1.0560
  281MOL0     C37002   4.144   0.504   7.947  0.7780  0.7449  0.5536
  281MOL0     C37003   4.283   0.521   8.013 -0.4886 -0.1716  0.2534
  281MOL0    Cl37004   4.275   0.678   8.100  0.5263 -0.1677  0.0023
  281MOL0     C37005   3.530   0.862   7.210 -0.0933  0.7347  0.0800
  281MOL0     C37006   3.418   0.855   7.126 -0.2900  0.2458  0.3846
  281MOL0     O37007   3.294   0.892   6.870  0.0553  0.2111 -0.4734
  281MOL0     C37008   2.954   0.941   6.920  0.8992 -0.6973 -0.1279
  281MOL0     C37009   2.828   0.920   6.856 -0.4692 -0.0393 -0.1011
  281MOL0     N37010   2.589   0.416   6.751  0.3348 -0.4518 -0.1399
  281MOL0     N37011   2.707   0.395   6.803  0.4552 -0.2205  0.2649
  281MOL0     C37012   3.838   0.359   7.341  0.3025 -0.3677 -0.4571
  281MOL0     C37013   3.962   0.297   7.369 -0.0293 -0.9642  0.2541
  281MOL0     C37014   4.343   0.140   7.563 -0.2123 -0.3772  0.5250
  281MOL0     C37015   4.453   0.173   7.647 -0.2043 -0.4076  0.1978
  281MOL0     C37016   4.568   0.093   7.647 -0.3193 -0.1793 -0.1561
  281MOL0     C37017   4.583  -0.010   7.557 -0.1312  0.4906 -0.0640
  281MOL0     O37018   4.700  -0.082   7.565 -0.5497 -0.4426  0.0115
  281MOL0     C37019   4.700  -0.187   7.666  0.2627  0.6559 -0.0337
  281MOL0     C37020   4.847  -0.240   7.669  0.1036 -0.0475  0.0012
  281MOL0     C37021   4.952  -0.132   7.675 -0.1218  0.4978  0.0335
  281MOL0     C37022   5.086  -0.197   7.685  0.4018  0.0711  0.3465
  281MOL0     C37023   5.121  -0.290   7.578  0.2471  1.4448 -0.2080
  281MOL0     C37024   5.125  -0.365   7.479  0.3467 -0.7545 -0.3705
  281MOL0     C37025   4.474  -0.045   7.478 -0.9421 -0.5544  0.4339
  281MOL0     C37026   4.354   0.027   7.485  0.4583  0.2244  0.5898
  281MOL0     H37027   3.944   0.228   7.704 -5.2564 -1.5793  0.6055
  281MOL0     H37028   3.742   0.366   7.670 -0.7898  0.2815 -0.7352
  281MOL0     H37029   3.550   0.335   7.302 -0.3808 -1.2471  0.9443
  281MOL0     H37030   3.603   0.499   7.255 -0.3946 -0.7408 -1.2857
  281MOL0     H37031   3.430   0.590   7.422  1.4346  1.7272 -2.0858
  281MOL0     H37032   3.391   0.419   7.456 -0.8254  0.2637 -0.9685
  281MOL0     H37033   3.331   0.378   7.219  1.2987 -0.5652 -1.9330
  281MOL0     H37034   3.385   0.530   7.164  0.9510 -1.6788 -1.1438
  281MOL0     H37035   3.162   0.506   7.375  0.0493  0.4357  0.8378
  281MOL0     H37036   3.196   0.647   7.275  0.3059  0.4232 -0.2823
  281MOL0     H37037   3.088   0.385   7.164 -2.5448  0.0895  2.3042
  281MOL0     H37038   3.136   0.536   7.076 -0.5816  1.0795  0.2100
  281MOL0     H37039   2.978   0.663   7.166 -2.1574  0.5214  1.4472
  281MOL0     H37040   2.935   0.549   7.295 -1.4181 -0.0711 -0.5665
  281MOL0     H37041   2.836   0.390   7.132 -0.2011 -0.4780 -2.4758
  281MOL0     H37042   2.752   0.544   7.155 -0.4651 -1.2250  0.4946
  281MOL0     H37043   2.931   0.460   6.921 -1.7293  0.2755 -0.6425
  281MOL0     H37044   2.878   0.623   6.945 -1.2519  0.8490  1.1140
  281MOL0     H37045   2.611   0.669   6.951 -2.2347 -0.4190 -0.4687
  281MOL0     H37046   2.331   0.589   6.854  1.0639 -1.6352  1.1797
  281MOL0     H37047   2.372   0.516   6.687  1.3653 -0.5245  0.5220
  281MOL0     H37048   2.444   0.796   6.767 -1.1612 -1.2928  1.2875
  281MOL0     H37049   2.309   0.746   6.669 -1.6767 -3.0394  0.6546
  281MOL0     H37050   2.486   0.628   6.523 -1.5216 -0.4330  0.4897
  281MOL0     H37051   2.473   0.799   6.511  0.8305 -0.5380 -0.4595
  281MOL0     H37052   2.711   0.752   6.510  0.4081  1.3909  0.7948
  281MOL0     H37053   2.697   0.627   6.631  1.1756  0.3135  0.4093
  281MOL0     H37054   2.913   0.698   6.631  0.8034  1.4985 -0.5089
  281MOL0     H37055   3.139   0.741   6.725  0.0640 -1.0532  3.1710
  281MOL0     H37056   3.231   1.091   7.259  0.1632 -0.8422  0.9903
  281MOL0     H37057   3.431   1.106   7.408  0.6831 -0.9276  0.8206
  281MOL0     H37058   3.589   0.751   7.443 -1.3641 -0.0248  3.1167
  281MOL0     H37059   3.587   0.856   7.581 -0.5699  1.5681  0.0682
  281MOL0     H37060   3.823   0.906   7.535 -0.9816  0.2284 -0.1042
  281MOL0     H37061   3.827   0.766   7.426  2.1065 -0.0572  0.4411
  281MOL0     H37062   3.761   0.611   7.599 -0.7063 -0.6129  2.3028
  281MOL0     H37063   3.734   0.749   7.718 -0.7307  0.5606 -0.3318
  281MOL0     H37064   3.998   0.657   7.582 -0.7392  0.4547 -1.3110
  281MOL0     H37065   3.994   0.791   7.696 -1.0906 -0.0913 -1.2883
  281MOL0     H37066   3.955   0.487   7.752 -0.6482 -0.4787  3.2361
  281MOL0     H37067   3.907   0.607   7.866 -1.0506 -0.4683 -0.7474
  281MOL0     H37068   4.163   0.693   7.841 -2.2362 -0.1440  0.6676
  281MOL0     H37069   4.183   0.556   7.733  1.3808  0.8195 -0.6927
  281MOL0     H37070   4.068   0.527   8.022 -1.1738 -2.4975 -0.2334
  281MOL0     H37071   4.124   0.400   7.921  1.9535  0.4850  0.6380
  281MOL0     H37072   4.355   0.508   7.932 -0.1026 -0.3849  0.6239
  281MOL0     H37073   4.302   0.443   8.087 -0.7194 -0.1207  0.3693
  281MOL0     H37074   3.610   0.788   7.210 -0.4660  0.2142  2.6284
  281MOL0     H37075   3.420   0.772   7.055  0.2909  1.9474 -1.7218
  281MOL0     H37076   2.960   1.023   6.991 -0.8328  1.1394 -1.9619
  281MOL0     H37077   2.746   0.979   6.898  0.5414  0.7418  0.8369
  281MOL0     H37078   3.822   0.401   7.242  1.2908  1.6267  0.1795
  281MOL0     H37079   4.036   0.290   7.290 -1.5812  0.5406 -1.4300
  281MOL0     H37080   4.450   0.259   7.713  1.2206 -1.4047  1.6269
  281MOL0     H37081   4.658   0.126   7.697 -0.2234  0.5409 -0.7945
  281MOL0     H37082   4.628  -0.259   7.628 -1.2707  2.4646 -0.6878
  281MOL0     H37083   4.663  -0.155   7.764 -1.7205 -0.1002 -0.5004
  281MOL0     H37084   4.872  -0.315   7.745  6.1579  0.6834 -0.7147
  281MOL0     H37085   4.869  -0.298   7.579  2.2532  0.5357  0.0775
  281MOL0     H37086   4.940  -0.075   7.767 -2.0198  1.0717 -0.5207
  281MOL0     H37087   4.950  -0.065   7.589  1.3916  1.0143  0.3750
  281MOL0     H37088   5.163  -0.121   7.676  0.7688 -0.3165  0.2025
  281MOL0     H37089   5.093  -0.258   7.776 -1.1953 -1.7946 -0.6863
  281MOL0     H37090   5.131  -0.408   7.381  0.2646 -0.3490 -0.5542
  281MOL0     H37091   4.476  -0.131   7.412 -0.6243 -1.5272  1.6739
  281MOL0     H37092   4.262  -0.007   7.440  0.2973  1.1566  0.1905
  282MOL0     O37093  11.064   6.484   8.577  0.1719 -0.3124  0.2180
  282MOL0     C37094  11.024   6.397   8.496 -1.2449  0.2304  0.3634
  282MOL0     O37095  11.082   6.276   8.489 -0.3647  0.2713  0.3280
  282MOL0     C37096  11.183   6.244   8.583  0.0756  0.2368 -0.0084
  282MOL0     C37097  11.165   6.145   8.676  0.9125  0.3419 -1.0844
  282MOL0     C37098  11.272   6.106   8.761  0.3591  0.3453 -0.6690
  282MOL0     C37099  11.396   6.160   8.744 -0.4973  0.4475 -0.1954
  282MOL0     O37100  11.501   6.113   8.822  1.2933 -0.5292 -0.5575
  282MOL0     C37101  11.627   6.168   8.829 -0.9211 -0.3311  0.0616
  282MOL0     C37102  11.614   6.282   8.928  0.6524  0.4559  0.0896
  282MOL0     C37103  11.743   6.299   9.013  0.1109  0.0499 -0.4380
  282MOL0     C37104  11.769   6.447   9.039  0.6317 -0.0367  0.0246
  282MOL0     C37105  11.916   6.481   9.046 -0.7154 -0.2111 -0.0839
  282MOL0     C37106  11.930   6.630   9.089  0.1513  0.2986  0.0990
  282MOL0     C37107  12.079   6.670   9.077  0.7377 -0.3298  0.1275
  282MOL0     C37108  12.103   6.825   9.083  0.7580 -0.3539 -0.2180
  282MOL0     N37109  12.113   6.882   8.949 -0.1906 -0.2771 -0.1523
  282MOL0     C37110  12.231   6.898   8.884  0.7825  0.0094  0.2816
  282MOL0     C37111  12.194   6.954   8.765  0.5266  0.0707 -0.6592
  282MOL0     C37112  12.283   6.977   8.646  0.4717  0.1378 -0.1399
  282MOL0     C37113  12.408   7.063   8.690 -0.1572  0.5509  1.0399
  282MOL0     C37114  12.377   7.196   8.747  0.1987 -1.1718 -0.6750
  282MOL0     C37115  12.348   7.301   8.646  0.4359 -0.7419 -0.0759
  282MOL0     O37116  12.313   7.430   8.715 -0.0750  0.4183  0.8807
  282MOL0     C37117  12.184   7.455   8.738  0.1961 -0.1924 -0.0142
  282MOL0     C37118  12.147   7.577   8.797 -0.2918  0.3666  0.3528
  282MOL0     C37119  12.020   7.611   8.848 -0.3576  1.0199 -0.7214
  282MOL0     C37120  11.922   7.511   8.837  0.6226  0.4485  0.5320
  282MOL0     C37121  11.780   7.530   8.883 -0.0940  0.4933 -0.4727
  282MOL0     O37122  11.695   7.418   8.882 -0.0086 -0.9672 -0.0454
  282MOL0     C37123  11.571   7.412   8.936  1.3609  0.2003  0.3971
  282MOL0     C37124  11.488   7.526   8.936  0.2011 -0.2303 -0.4280
  282MOL0     C37125  11.358   7.514   8.984 -1.0710 -0.5008  0.0762
  282MOL0     C37126  11.303   7.394   9.032  0.2929  0.3039  0.7875
  282MOL0     O37127  11.173   7.385   9.081 -0.4302 -0.5430 -0.4353
  282MOL0     C37128  11.077   7.322   8.989  0.3051 -0.6221 -0.2169
  282MOL0     C37129  11.019   7.422   8.891  0.4875 -0.2571 -0.2176
  282MOL0     C37130  10.929   7.354   8.790 -0.0178  0.9580  0.3577
  282MOL0     C37131  10.877   7.444   8.684  0.4575  0.2783  0.2800
  282MOL0     C37132  10.780   7.363   8.597  0.0455 -0.6460 -0.2115
  282MOL0     C37133  10.731   7.441   8.480  0.4020 -0.3116 -0.0439
  282MOL0     C37134  10.587   7.416   8.453 -0.3294  0.9196 -0.6276
  282MOL0     C37135  10.541   7.456   8.312 -0.8266  0.5066 -0.0040
  282MOL0    Cl37136  10.369   7.408   8.282 -0.2016 -0.9530 -0.0429
  282MOL0     C37137  11.387   7.280   9.041 -0.3634  0.1719  0.1258
  282MOL0     C37138  11.518   7.285   8.983 -0.1658  1.0099  0.3203
  282MOL0     O37139  11.752   7.643   8.927 -1.1575  0.1746 -0.3911
  282MOL0     C37140  11.944   7.386   8.763  0.2533 -0.3771  0.2830
  282MOL0     C37141  12.077   7.359   8.718  0.0896  0.0748 -0.1196
  282MOL0     N37142  12.053   6.937   8.754 -0.8277  0.0154 -0.5741
  282MOL0     N37143  12.011   6.913   8.869  0.2445 -0.3957 -0.4652
  282MOL0     C37144  11.412   6.264   8.652 -0.1990 -0.5397 -0.0922
  282MOL0     C37145  11.307   6.307   8.573 -0.2060 -0.6837 -0.1952
  282MOL0     C37146  10.896   6.421   8.418 -0.2711 -0.1589  0.3192
  282MOL0     C37147  10.840   6.317   8.352  0.6143  0.6862 -0.4741
  282MOL0     C37148  10.717   6.338   8.283  0.1985 -0.1494 -0.1079
  282MOL0     C37149  10.648   6.460   8.294  0.1637  0.2764  0.5262
  282MOL0     O37150  10.524   6.489   8.229 -0.2941  0.0184 -0.3133
  282MOL0     C37151  10.436   6.385   8.209  0.5850 -0.7687  0.1581
  282MOL0     C37152  10.308   6.459   8.172  0.6336  0.1600 -0.0723
  282MOL0     C37153  10.250   6.536   8.291 -0.3067  0.5934  0.5046
  282MOL0     C37154  10.123   6.603   8.255 -0.1385  0.0578  0.5698
  282MOL0     C37155  10.077   6.660   8.380  0.2679 -0.4125 -1.3818
  282MOL0     C37156  10.038   6.703   8.483  0.4038  0.6392  0.0809
  282MOL0     C37157  10.706   6.567   8.360 -0.1401 -0.0443  0.5652
  282MOL0     C37158  10.830   6.549   8.428 -0.3121  1.1782  0.0084
  282MOL0     H37159  11.066   6.101   8.678  1.6676 -1.7151 -3.7271
  282MOL0     H37160  11.264   6.029   8.838  0.8347  2.1005  1.2208
  282MOL0     H37161  11.660   6.197   8.728 -2.4170  0.9816 -0.0753
  282MOL0     H37162  11.695   6.091   8.868 -0.3280 -0.3537 -0.9796
  282MOL0     H37163  11.530   6.266   8.997  0.1140  1.8719 -0.1936
  282MOL0     H37164  11.590   6.367   8.864  1.7400 -0.0917 -1.0922
  282MOL0     H37165  11.821   6.259   8.947 -0.0675 -0.4253 -0.3616
  282MOL0     H37166  11.754   6.230   9.096 -1.3637  1.3803  0.9224
  282MOL0     H37167  11.731   6.518   8.965 -0.6990 -0.7347  0.0106
  282MOL0     H37168  11.714   6.474   9.130 -0.0039  1.1358 -0.6759
  282MOL0     H37169  11.971   6.452   8.956  3.1206 -0.5570  2.1333
  282MOL0     H37170  11.958   6.420   9.127 -1.5517 -2.0772 -0.9960
  282MOL0     H37171  11.892   6.640   9.192  0.0165 -1.0171  0.1957
  282MOL0     H37172  11.869   6.684   9.016 -0.6977  1.0364  1.2918
  282MOL0     H37173  12.134   6.617   9.155 -1.5864 -1.4188  1.1504
  282MOL0     H37174  12.121   6.637   8.981  1.3972 -0.0411  0.3132
  282MOL0     H37175  12.186   6.840   9.153  0.8494 -3.0132  0.3258
  282MOL0     H37176  12.020   6.880   9.128  0.7892 -0.7836  0.3683
  282MOL0     H37177  12.332   6.877   8.916  1.6205  1.4274 -1.2876
  282MOL0     H37178  12.223   7.020   8.565  0.6913 -2.4222 -1.7946
  282MOL0     H37179  12.307   6.877   8.608  1.2563 -0.4686  1.8329
  282MOL0     H37180  12.475   7.081   8.606 -1.6643 -1.5961 -0.7633
  282MOL0     H37181  12.467   7.015   8.769  1.2489  0.9263  0.2549
  282MOL0     H37182  12.299   7.185   8.824  0.0393 -0.7034 -0.7670
  282MOL0     H37183  12.466   7.230   8.801 -0.2957  0.1397 -0.6436
  282MOL0     H37184  12.280   7.279   8.562 -0.6022  0.6505  0.3460
  282MOL0     H37185  12.445   7.309   8.595 -0.4563 -3.1226 -2.3789
  282MOL0     H37186  12.225   7.652   8.811 -0.5653  0.3363  2.3401
  282MOL0     H37187  12.009   7.707   8.896 -3.6042  0.3595  0.1205
  282MOL0     H37188  11.522   7.624   8.904 -2.3621  1.5839  1.9092
  282MOL0     H37189  11.286   7.595   8.983 -1.1614 -0.5808 -1.2289
  282MOL0     H37190  10.999   7.276   9.051  0.7125  0.8885  1.5227
  282MOL0     H37191  11.131   7.243   8.937  0.0693 -1.2982  0.5363
  282MOL0     H37192  11.108   7.471   8.849  0.4781  1.0475  1.1858
  282MOL0     H37193  10.952   7.498   8.931 -1.4952  0.1826 -3.9085
  282MOL0     H37194  10.847   7.304   8.841  0.5341 -0.8950 -0.4965
  282MOL0     H37195  10.987   7.272   8.746  1.8687  0.7913  2.8836
  282MOL0     H37196  10.818   7.522   8.732  0.6394  1.4352 -1.2964
  282MOL0     H37197  10.957   7.495   8.630  0.3136 -0.0589 -0.2748
  282MOL0     H37198  10.697   7.332   8.662 -0.2096  0.8719  0.2197
  282MOL0     H37199  10.816   7.265   8.565 -0.9240 -0.8971 -0.5686
  282MOL0     H37200  10.783   7.414   8.388 -0.4536 -2.7933  0.1186
  282MOL0     H37201  10.741   7.547   8.505 -4.5485  0.2297  0.5556
  282MOL0     H37202  10.567   7.310   8.470  2.9508  0.4477  0.9984
  282MOL0     H37203  10.522   7.467   8.525 -0.1486  1.9380 -1.1598
  282MOL0     H37204  10.597   7.401   8.236 -2.0457 -1.6450  0.5774
  282MOL0     H37205  10.543   7.565   8.303  1.1194  0.6441  1.3977
  282MOL0     H37206  11.348   7.197   9.099  2.7499 -1.4365  0.1069
  282MOL0     H37207  11.589   7.203   8.973 -0.1996  1.2229 -2.4430
  282MOL0     H37208  11.862   7.319   8.737  0.8046 -1.0365  0.2103
  282MOL0     H37209  12.105   7.261   8.681  2.2477 -0.2878  2.1623
  282MOL0     H37210  11.509   6.312   8.645 -0.7500  0.8906  1.5476
  282MOL0     H37211  11.313   6.382   8.494 -0.9668  0.4614  0.8000
  282MOL0     H37212  10.876   6.215   8.344 -2.1935 -0.4958  0.4264
  282MOL0     H37213  10.670   6.267   8.216 -0.3061 -0.5424  0.6418
  282MOL0     H37214  10.422   6.332   8.303 -3.6263  1.7358  1.2286
  282MOL0     H37215  10.463   6.319   8.126  0.6480 -2.8752  1.7690
  282MOL0     H37216  10.327   6.529   8.090 -0.4704 -1.1621 -1.5132
  282MOL0     H37217  10.230   6.390   8.139  3.0009 -2.6740 -0.2787
  282MOL0     H37218  10.313   6.620   8.322 -2.2343  2.4724 -0.4434
  282MOL0     H37219  10.238   6.473   8.380 -0.4263 -3.9524 -2.3727
  282MOL0     H37220  10.136   6.679   8.176  2.0749 -1.1322 -0.2784
  282MOL0     H37221  10.049   6.536   8.210  0.0698  1.6607 -2.4723
  282MOL0     H37222  10.010   6.725   8.585  0.8152  0.2480  0.2822
  282MOL0     H37223  10.656   6.662   8.370 -0.7765 -0.5922  3.6237
  282MOL0     H37224  10.880   6.628   8.483  4.2202 -1.2606 -0.1375
  283MOL0     O37225  10.636   2.898  11.107  0.7275 -0.0330 -0.2644
  283MOL0     C37226  10.633   2.935  10.990 -0.1972 -0.6194 -0.0314
  283MOL0     O37227  10.532   2.939  10.906  0.2807  0.0919 -0.2473
  283MOL0     C37228  10.410   2.881  10.937  0.4797 -0.4936 -0.1959
  283MOL0     C37229  10.370   2.803  11.051  1.0494 -0.0647 -0.4035
  283MOL0     C37230  10.244   2.749  11.063  0.4185 -0.6169  0.4409
  283MOL0     C37231  10.152   2.762  10.955 -0.2195  0.6546 -0.1583
  283MOL0     O37232  10.035   2.692  10.966 -0.6556  0.7278 -0.2184
  283MOL0     C37233   9.979   2.623  10.854 -0.7331 -0.0340  0.1963
  283MOL0     C37234  10.073   2.516  10.794 -0.2707 -0.0867 -0.4175
  283MOL0     C37235  10.091   2.404  10.899  0.1605  0.8373 -0.2880
  283MOL0     C37236  10.145   2.268  10.850  0.1886 -0.7562  0.0321
  283MOL0     C37237  10.292   2.291  10.806  0.4756 -0.1862  0.5786
  283MOL0     C37238  10.358   2.154  10.814 -0.0540  0.1485  0.0647
  283MOL0     C37239  10.497   2.140  10.747  0.4596 -0.0625 -0.2894
  283MOL0     C37240  10.608   2.186  10.839  0.1665 -0.1367  0.3659
  283MOL0     N37241  10.619   2.124  10.970  0.1803 -0.5048 -0.2321
  283MOL0     C37242  10.677   2.005  11.004  0.1456 -0.1111 -0.5722
  283MOL0     C37243  10.669   2.005  11.142  0.1751  0.1536 -0.1469
  283MOL0     C37244  10.735   1.903  11.226 -0.3878  0.1976  0.0501
  283MOL0     C37245  10.677   1.758  11.237  1.1093 -0.4655  0.3351
  283MOL0     C37246  10.738   1.681  11.348 -0.5128  0.9527 -0.5499
  283MOL0     C37247  10.669   1.545  11.382  0.3138 -0.2981  0.1348
  283MOL0     O37248  10.541   1.588  11.443  0.5698  0.5324  0.0405
  283MOL0     C37249  10.431   1.503  11.432 -0.1049 -0.6224  0.1236
  283MOL0     C37250  10.404   1.406  11.335  1.0869  1.4113  0.0787
  283MOL0     C37251  10.280   1.333  11.354 -0.1970  0.8760  0.4942
  283MOL0     C37252  10.190   1.350  11.462 -0.2716  0.7424  0.7653
  283MOL0     C37253  10.072   1.267  11.481 -0.0035  0.5845 -0.2219
  283MOL0     O37254   9.986   1.317  11.582  0.3087  0.2879 -0.5403
  283MOL0     C37255   9.888   1.232  11.614 -1.2145 -0.1257 -0.8222
  283MOL0     C37256   9.908   1.116  11.678 -0.1259 -0.1165  0.2635
  283MOL0     C37257   9.802   1.030  11.705 -0.3227  0.0214  0.2731
  283MOL0     C37258   9.676   1.066  11.674  0.7717  0.5825 -0.0873
  283MOL0     O37259   9.574   0.992  11.721  0.8607  0.7162  0.3838
  283MOL0     C37260   9.467   1.063  11.789  0.1527  0.1169 -0.5649
  283MOL0     C37261   9.332   1.047  11.716 -0.7607  0.7997  0.3641
  283MOL0     C37262   9.275   0.907  11.725 -0.8867 -0.2730  0.1735
  283MOL0     C37263   9.143   0.894  11.654  0.2695 -0.5894  0.0120
  283MOL0     C37264   9.089   0.742  11.674  0.5862  0.1316 -0.4742
  283MOL0     C37265   8.951   0.742  11.611  0.0592  0.4249 -0.0570
  283MOL0     C37266   8.884   0.607  11.626 -0.2522  0.0538  0.0521
  283MOL0     C37267   8.733   0.617  11.601 -0.3835 -0.7138  0.7906
  283MOL0    Cl37268   8.653   0.706  11.731  0.3757  0.4210  0.1626
  283MOL0     C37269   9.655   1.185  11.603 -0.2786 -0.7118  0.8073
  283MOL0     C37270   9.759   1.263  11.569 -0.1946  0.2119  0.1144
  283MOL0     O37271  10.056   1.166  11.408 -0.6848  0.6101  0.2498
  283MOL0     C37272  10.218   1.463  11.540  0.6872  0.0390 -0.1302
  283MOL0     C37273  10.337   1.533  11.530 -0.1492 -0.1715  0.2456
  283MOL0     N37274  10.602   2.122  11.178 -0.7090 -0.0615 -0.0366
  283MOL0     N37275  10.571   2.188  11.074  0.6051  0.3430 -0.1203
  283MOL0     C37276  10.182   2.847  10.855 -0.4664  0.5653  0.6074
  283MOL0     C37277  10.312   2.906  10.845 -1.3345 -0.5568 -0.3880
  283MOL0     C37278  10.756   2.980  10.912 -0.2678 -0.1319  0.9139
  283MOL0     C37279  10.876   2.991  10.986  0.4712  0.0344  0.5539
  283MOL0     C37280  10.982   3.061  10.935 -0.8523  0.0666  0.5156
  283MOL0     C37281  10.977   3.107  10.807 -0.4134 -0.0374 -0.3149
  283MOL0     O37282  11.073   3.185  10.748 -0.0055  0.2280 -0.4551
  283MOL0     C37283  11.124   3.298  10.828 -0.7505  0.2382 -0.4949
  283MOL0     C37284  11.206   3.391  10.753  0.2235 -0.5895  0.4590
  283MOL0     C37285  11.354   3.354  10.761  0.0141  0.0284 -0.4175
  283MOL0     C37286  11.456   3.462  10.718 -1.3098 -0.9151  0.5729
  283MOL0     C37287  11.432   3.504  10.578 -0.2159 -0.5063  0.7369
  283MOL0     C37288  11.430   3.557  10.472 -0.1507  0.2511  0.2737
  283MOL0     C37289  10.869   3.091  10.725  1.0199  1.0106 -0.7413
  283MOL0     C37290  10.750   3.029  10.777 -0.0490  0.4207 -0.2336
  283MOL0     H37291  10.433   2.787  11.138 -0.3408  1.8482  1.0439
  283MOL0     H37292  10.220   2.674  11.137 -1.4375  0.0422  0.5704
  283MOL0     H37293   9.945   2.694  10.776 -1.4390 -1.1250 -0.5173
  283MOL0     H37294   9.888   2.577  10.892 -0.4015  1.5043  3.1517
  283MOL0     H37295  10.170   2.562  10.771  0.0165 -0.7140 -0.4716
  283MOL0     H37296  10.023   2.481  10.703 -2.9639  0.9452  0.5722
  283MOL0     H37297   9.988   2.382  10.928  1.0710 -0.4780  2.2993
  283MOL0     H37298  10.146   2.438  10.988  0.3531  0.1812 -0.1461
  283MOL0     H37299  10.132   2.203  10.936 -2.4427  0.8266  0.9566
  283MOL0     H37300  10.088   2.225  10.768  0.4977 -2.3592  0.6271
  283MOL0     H37301  10.344   2.367  10.867 -0.7817 -0.3052  1.8542
  283MOL0     H37302  10.287   2.323  10.702 -1.1874 -1.4165  0.2535
  283MOL0     H37303  10.295   2.085  10.757 -2.0086 -1.4760  3.8653
  283MOL0     H37304  10.358   2.121  10.918  1.3397 -1.0135 -0.2779
  283MOL0     H37305  10.518   2.034  10.726 -1.2258 -0.9551  2.1203
  283MOL0     H37306  10.504   2.192  10.651 -0.5686 -1.1359 -0.9745
  283MOL0     H37307  10.594   2.295  10.840  1.9069  0.1366 -0.5271
  283MOL0     H37308  10.705   2.169  10.792  1.1706  0.5486  2.0900
  283MOL0     H37309  10.735   1.937  10.942  2.5090  2.3272 -1.1996
  283MOL0     H37310  10.740   1.937  11.329 -1.3087  0.2685  0.0872
  283MOL0     H37311  10.835   1.883  11.187  0.3301 -1.0360  2.3350
  283MOL0     H37312  10.695   1.709  11.141 -1.4626  2.6623 -1.9736
  283MOL0     H37313  10.569   1.773  11.249  0.8864 -1.1885 -0.6792
  283MOL0     H37314  10.839   1.651  11.317 -0.4020  0.7979 -0.0560
  283MOL0     H37315  10.751   1.742  11.438  3.5519  0.4330 -0.5813
  283MOL0     H37316  10.723   1.483  11.454 -0.6474  1.0243  2.0787
  283MOL0     H37317  10.653   1.495  11.286 -1.8739 -1.2202  0.9181
  283MOL0     H37318  10.472   1.372  11.257  0.6272 -0.9652  0.6173
  283MOL0     H37319  10.252   1.246  11.295 -2.2364  1.0668  1.1051
  283MOL0     H37320  10.013   1.099  11.700  0.4279 -1.7801 -3.0079
  283MOL0     H37321   9.818   0.928  11.739 -1.8604  0.1455  1.4399
  283MOL0     H37322   9.482   1.170  11.805 -2.1642  0.2115  1.5850
  283MOL0     H37323   9.442   1.027  11.890 -0.3294 -1.1652 -1.1160
  283MOL0     H37324   9.340   1.073  11.610  0.1354 -1.7564 -0.2643
  283MOL0     H37325   9.253   1.114  11.751  0.1654  1.7036  0.7738
  283MOL0     H37326   9.271   0.884  11.832  0.2255  1.8510  0.7343
  283MOL0     H37327   9.345   0.839  11.675 -1.8735 -0.3413 -1.1776
  283MOL0     H37328   9.076   0.968  11.700  3.5964  2.3640  0.5323
  283MOL0     H37329   9.161   0.916  11.548 -1.3639  0.4243 -0.0960
  283MOL0     H37330   9.091   0.705  11.777  2.3173 -3.3198 -1.6080
  283MOL0     H37331   9.154   0.673  11.619 -0.3657 -2.0479  0.9638
  283MOL0     H37332   8.954   0.764  11.504 -3.0162  0.6260 -0.1854
  283MOL0     H37333   8.886   0.813  11.663 -3.6431 -1.9080 -1.1187
  283MOL0     H37334   8.928   0.538  11.554  1.2694  0.8711  0.1349
  283MOL0     H37335   8.900   0.570  11.728 -2.1078 -2.4057 -0.4684
  283MOL0     H37336   8.697   0.514  11.596  0.2043 -0.8618 -1.0620
  283MOL0     H37337   8.713   0.666  11.506 -1.1564  0.1700  1.3956
  283MOL0     H37338   9.559   1.218  11.565  1.0416  2.3119 -0.2070
  283MOL0     H37339   9.740   1.349  11.506  0.7788  2.0676  2.2312
  283MOL0     H37340  10.147   1.489  11.618  2.9889  1.1388  1.7151
  283MOL0     H37341  10.368   1.603  11.608  1.0892 -0.8374  0.3809
  283MOL0     H37342  10.112   2.873  10.776 -0.5138 -3.1991 -0.7933
  283MOL0     H37343  10.330   2.961  10.753 -0.7384  1.5630  0.9268
  283MOL0     H37344  10.886   2.951  11.087  2.1108  1.3080  0.9224
  283MOL0     H37345  11.078   3.063  10.986 -0.2449 -3.1268 -0.2306
  283MOL0     H37346  11.183   3.261  10.913 -0.2686  1.8301 -0.1050
  283MOL0     H37347  11.038   3.356  10.861 -1.1027  0.8898 -2.4570
  283MOL0     H37348  11.162   3.394  10.654  3.1334  2.1211 -0.9345
  283MOL0     H37349  11.197   3.490  10.799 -4.6000 -0.5301 -0.1554
  283MOL0     H37350  11.366   3.267  10.696 -3.4582  0.4567 -1.8444
  283MOL0     H37351  11.382   3.336  10.865  1.7957 -1.8585 -1.1636
  283MOL0     H37352  11.439   3.546  10.786 -3.5242 -2.2348  1.7442
  283MOL0     H37353  11.553   3.412  10.731 -1.0421 -0.9105 -1.1862
  283MOL0     H37354  11.428   3.631  10.394  1.1446  2.6162  2.3566
  283MOL0     H37355  10.866   3.127  10.623  2.3622  0.6887 -0.9164
  283MOL0     H37356  10.653   3.017  10.730  0.6794  0.6453 -1.8629
  284MOL0     O37357   8.863   0.313   9.148  0.4958  0.9406 -0.1997
  284MOL0     C37358   8.969   0.343   9.208 -0.3806 -0.1431  0.1772
  284MOL0     O37359   8.980   0.361   9.336 -0.8516 -1.0205  0.0077
  284MOL0     C37360   8.860   0.343   9.406  0.0930  0.0449 -0.1216
  284MOL0     C37361   8.754   0.431   9.396  0.1726  0.0559 -0.5715
  284MOL0     C37362   8.644   0.422   9.483  0.5851  0.2690 -0.6046
  284MOL0     C37363   8.633   0.324   9.580 -0.2730 -0.1652  0.0035
  284MOL0     O37364   8.522   0.301   9.648  0.2848 -0.2187 -0.3091
  284MOL0     C37365   8.468   0.415   9.709  0.4699 -0.0869  0.4906
  284MOL0     C37366   8.403   0.380   9.841 -0.2134  0.1244  1.2582
  284MOL0     C37367   8.506   0.315   9.937 -0.6514  1.0226  0.5227
  284MOL0     C37368   8.454   0.263  10.070  0.2375  0.2585  0.2410
  284MOL0     C37369   8.548   0.159  10.141 -0.8161 -0.5455  1.4116
  284MOL0     C37370   8.486   0.107  10.273  1.0546  0.8894  0.1490
  284MOL0     C37371   8.423  -0.030  10.240 -0.0165 -0.1407 -0.2299
  284MOL0     C37372   8.529  -0.134  10.245 -0.0352  1.4528 -0.0513
  284MOL0     N37373   8.471  -0.259  10.184  0.0390 -0.6957  0.4813
  284MOL0     C37374   8.458  -0.275  10.045 -0.4291 -0.1450 -0.2282
  284MOL0     C37375   8.361  -0.376  10.031  0.4795 -0.0025  0.4043
  284MOL0     C37376   8.313  -0.410   9.891 -0.4075 -0.5599 -0.7936
  284MOL0     C37377   8.210  -0.304   9.847  0.1804 -0.9311  0.1291
  284MOL0     C37378   8.166  -0.325   9.701 -0.0031 -0.1443 -0.5931
  284MOL0     C37379   8.043  -0.241   9.656 -0.0305  0.7381 -0.5366
  284MOL0     O37380   7.928  -0.261   9.734  0.1626  0.5628 -0.1431
  284MOL0     C37381   7.799  -0.232   9.682  0.2983 -0.0480  0.3134
  284MOL0     C37382   7.774  -0.146   9.579  0.3246 -0.4044  0.7386
  284MOL0     C37383   7.641  -0.118   9.544  0.9209  0.1427  0.8689
  284MOL0     C37384   7.537  -0.159   9.621  0.2621  0.1552  0.4718
  284MOL0     C37385   7.396  -0.109   9.594 -0.1631 -0.1428 -0.8966
  284MOL0     O37386   7.290  -0.151   9.673  0.3907  0.2313  0.0387
  284MOL0     C37387   7.176  -0.078   9.651 -0.1887 -0.1671 -0.1680
  284MOL0     C37388   7.154   0.034   9.735  0.4244 -0.2648  0.6869
  284MOL0     C37389   7.021   0.088   9.737  0.3449 -0.3541 -0.1154
  284MOL0     C37390   6.913   0.024   9.676 -0.5878  0.5608  0.1442
  284MOL0     O37391   6.788   0.078   9.678  0.3665 -0.3754 -0.6626
  284MOL0     C37392   6.687  -0.008   9.729  0.0044  0.7511 -0.2911
  284MOL0     C37393   6.560   0.079   9.745  0.4715  0.1774 -0.2959
  284MOL0     C37394   6.458   0.005   9.842  0.3882  0.6108 -0.5857
  284MOL0     C37395   6.352   0.107   9.882  0.3071 -0.0251 -0.2359
  284MOL0     C37396   6.253   0.045   9.976 -0.2953  0.7783  0.3764
  284MOL0     C37397   6.138   0.144  10.014 -1.0705  0.4867  0.1984
  284MOL0     C37398   6.066   0.188   9.886  0.0818 -0.5783 -0.3887
  284MOL0     C37399   5.929   0.241   9.920 -0.3368  0.1348  0.8664
  284MOL0    Cl37400   5.941   0.358  10.058 -0.0196  0.0619 -0.1736
  284MOL0     C37401   6.935  -0.098   9.603 -0.2494 -0.8540  0.5191
  284MOL0     C37402   7.063  -0.142   9.589 -0.7762 -0.0512 -0.7372
  284MOL0     O37403   7.391  -0.016   9.516  0.1543 -0.1419 -0.1396
  284MOL0     C37404   7.560  -0.246   9.725 -0.2976 -0.2966  0.1531
  284MOL0     C37405   7.694  -0.286   9.756  0.1426 -0.0652  0.1488
  284MOL0     N37406   8.321  -0.421  10.152  0.0626  0.5648  0.5962
  284MOL0     N37407   8.377  -0.341  10.241  0.1608  0.1800  0.4147
  284MOL0     C37408   8.744   0.228   9.597 -0.2741 -1.3535 -0.2142
  284MOL0     C37409   8.856   0.251   9.515 -0.0158  0.4212  0.2182
  284MOL0     C37410   9.092   0.363   9.124  0.8070  0.3320 -0.5691
  284MOL0     C37411   9.076   0.400   8.992  0.6777  0.5986 -0.6877
  284MOL0     C37412   9.173   0.424   8.904 -0.2711  0.0762 -0.1741
  284MOL0     C37413   9.305   0.419   8.950  0.0065 -0.2423  0.2315
  284MOL0     O37414   9.402   0.444   8.860 -0.0776  1.0522  0.3643
  284MOL0     C37415   9.537   0.439   8.901 -0.3611  0.1215 -0.1658
  284MOL0     C37416   9.632   0.478   8.780 -0.0746 -0.6097  0.3406
  284MOL0     C37417   9.650   0.366   8.691  1.0410  0.5454  0.8467
  284MOL0     C37418   9.758   0.389   8.586  0.2329  0.3847 -0.4779
  284MOL0     C37419   9.726   0.499   8.495 -0.0913  0.1396  1.0955
  284MOL0     C37420   9.709   0.603   8.424 -0.1059  0.1370 -0.7530
  284MOL0     C37421   9.332   0.376   9.085 -0.2223  0.2930 -0.0440
  284MOL0     C37422   9.220   0.358   9.174 -0.3528 -0.0833  0.2647
  284MOL0     H37423   8.766   0.513   9.326  0.0793  2.2582  1.8723
  284MOL0     H37424   8.559   0.488   9.470  2.5410  3.5296  1.5480
  284MOL0     H37425   8.399   0.462   9.638  0.4571 -0.8488 -0.0068
  284MOL0     H37426   8.546   0.481   9.747 -0.4468  1.0779  0.4001
  284MOL0     H37427   8.334   0.302   9.807  1.7026 -0.7088 -0.9513
  284MOL0     H37428   8.344   0.463   9.881 -0.6075  0.3363  0.2529
  284MOL0     H37429   8.585   0.390   9.950 -0.4172  1.0943 -1.0410
  284MOL0     H37430   8.555   0.228   9.892  0.9819  2.2821 -0.2883
  284MOL0     H37431   8.424   0.341  10.141  1.0685  1.7755 -1.0108
  284MOL0     H37432   8.364   0.202  10.060 -0.8915  1.8051  0.5818
  284MOL0     H37433   8.633   0.224  10.159 -1.2247  0.6909 -0.7542
  284MOL0     H37434   8.593   0.085  10.074  0.9978  0.5634  1.3577
  284MOL0     H37435   8.406   0.174  10.306  1.5629  1.8536 -0.5341
  284MOL0     H37436   8.558   0.098  10.354  3.0063  0.8177 -1.5041
  284MOL0     H37437   8.368  -0.046  10.333  4.1427 -0.3440  2.4237
  284MOL0     H37438   8.358  -0.021  10.152 -4.9996 -1.1742  2.9732
  284MOL0     H37439   8.568  -0.146  10.347 -0.1832  0.2438 -0.1210
  284MOL0     H37440   8.611  -0.098  10.184  0.5368 -1.1621 -0.9640
  284MOL0     H37441   8.502  -0.210   9.970 -0.8632  1.0462  0.5296
  284MOL0     H37442   8.273  -0.512   9.884  0.1253 -0.9012  0.7885
  284MOL0     H37443   8.403  -0.415   9.828  0.6120  0.6843  0.4834
  284MOL0     H37444   8.257  -0.205   9.843 -0.9822 -0.3653 -0.2909
  284MOL0     H37445   8.122  -0.308   9.913 -1.7192 -0.1275 -2.1833
  284MOL0     H37446   8.247  -0.319   9.629  2.2907  0.1087  1.8370
  284MOL0     H37447   8.139  -0.431   9.698 -2.1981  0.1729  2.5628
  284MOL0     H37448   8.012  -0.272   9.556 -1.0241 -1.7536  0.4739
  284MOL0     H37449   8.076  -0.136   9.658  1.4429  0.3447 -2.0599
  284MOL0     H37450   7.859  -0.111   9.521  0.3838 -1.9380 -0.1232
  284MOL0     H37451   7.618  -0.046   9.466 -0.0172  0.4508  1.4083
  284MOL0     H37452   7.233   0.072   9.799  2.0387  1.4373 -2.0738
  284MOL0     H37453   7.007   0.178   9.796  1.8964 -0.0515 -0.1583
  284MOL0     H37454   6.725  -0.051   9.822  2.0371  3.3532  0.2172
  284MOL0     H37455   6.674  -0.085   9.653 -1.3459  2.5215 -1.9807
  284MOL0     H37456   6.510   0.095   9.649 -3.3076  1.6130  1.7040
  284MOL0     H37457   6.587   0.176   9.788  1.6430  0.7878 -2.2675
  284MOL0     H37458   6.507  -0.038   9.929  1.3733  0.0277 -1.4099
  284MOL0     H37459   6.409  -0.074   9.784  1.1005 -1.3264  1.3512
  284MOL0     H37460   6.397   0.200   9.921 -2.8766  0.6326  2.3173
  284MOL0     H37461   6.304   0.130   9.787  0.8999 -0.4535 -0.6411
  284MOL0     H37462   6.300   0.015  10.070 -2.7018  0.0433  1.4010
  284MOL0     H37463   6.201  -0.040   9.932 -0.8634  1.0892  0.4476
  284MOL0     H37464   6.187   0.232  10.056 -0.0635  1.1978 -2.2338
  284MOL0     H37465   6.080   0.089  10.088 -2.9745  0.4347 -1.2474
  284MOL0     H37466   6.126   0.261   9.831  0.5927  0.4517  1.4688
  284MOL0     H37467   6.050   0.101   9.821 -2.0283 -1.7314  1.5380
  284MOL0     H37468   5.857   0.164   9.950 -0.3709  0.2156  0.9937
  284MOL0     H37469   5.892   0.289   9.829 -1.1006 -1.8370  0.0823
  284MOL0     H37470   6.844  -0.145   9.567 -0.0221 -1.1516  0.3297
  284MOL0     H37471   7.070  -0.241   9.544 -0.2580 -0.6783  0.6494
  284MOL0     H37472   7.477  -0.265   9.793 -1.5223  0.1722 -1.1504
  284MOL0     H37473   7.711  -0.325   9.856 -0.2015 -1.4109 -0.2927
  284MOL0     H37474   8.734   0.153   9.675  0.3858  1.0018  2.2867
  284MOL0     H37475   8.947   0.192   9.524 -0.1454  0.4777  2.4984
  284MOL0     H37476   8.976   0.401   8.950  0.0580 -0.8853  0.6636
  284MOL0     H37477   9.148   0.460   8.805 -1.3913 -0.9898 -0.3108
  284MOL0     H37478   9.558   0.337   8.934  0.4071 -0.1370 -1.4099
  284MOL0     H37479   9.567   0.511   8.978  2.6913 -2.8801  1.7367
  284MOL0     H37480   9.589   0.564   8.729 -1.7897 -0.8987  1.2046
  284MOL0     H37481   9.732   0.507   8.815  0.5270 -1.7015 -0.4142
  284MOL0     H37482   9.558   0.338   8.639  1.0675 -1.3451  1.7155
  284MOL0     H37483   9.676   0.278   8.751 -1.9944 -0.6645  0.5386
  284MOL0     H37484   9.854   0.409   8.635 -0.5196  0.0123  1.2146
  284MOL0     H37485   9.758   0.305   8.516 -1.7850  0.7196 -0.9520
  284MOL0     H37486   9.696   0.694   8.369 -0.9107 -1.0133 -2.5683
  284MOL0     H37487   9.431   0.375   9.129  0.2754  2.9678 -0.8919
  284MOL0     H37488   9.229   0.331   9.278 -0.2252  2.0098  0.8506
  285MOL0     O37489   9.209   6.063   2.879 -0.4784  0.4985  0.1948
  285MOL0     C37490   9.247   5.950   2.914 -0.0950 -0.0312  0.6334
  285MOL0     O37491   9.178   5.838   2.904 -0.1961  0.3273  0.1915
  285MOL0     C37492   9.061   5.842   2.838 -0.8414  0.3400  0.4310
  285MOL0     C37493   8.945   5.831   2.915  0.1203 -0.3113 -0.5680
  285MOL0     C37494   8.824   5.848   2.842 -0.8785 -0.0074 -0.7085
  285MOL0     C37495   8.818   5.860   2.703 -0.2362 -0.5097 -0.0627
  285MOL0     O37496   8.693   5.875   2.658  0.3131 -0.4828 -0.1942
  285MOL0     C37497   8.671   5.822   2.520  0.3015  0.8256  0.3814
  285MOL0     C37498   8.528   5.834   2.491  0.1953  0.5939 -0.6729
  285MOL0     C37499   8.444   5.725   2.572 -0.7790 -0.6771  0.0336
  285MOL0     C37500   8.297   5.757   2.550  0.5904 -0.2456  0.4142
  285MOL0     C37501   8.251   5.886   2.629  0.2120  0.7660  0.1696
  285MOL0     C37502   8.118   5.944   2.577  0.2618  0.1684 -0.1826
  285MOL0     C37503   7.996   5.846   2.558  0.1782 -0.3024 -0.2360
  285MOL0     C37504   7.880   5.938   2.489 -0.3193  0.1795 -0.5711
  285MOL0     N37505   7.761   5.852   2.482  0.2164 -0.2940  0.0744
  285MOL0     C37506   7.725   5.796   2.360 -0.5749  0.6160  0.3472
  285MOL0     C37507   7.638   5.698   2.395  0.0610  0.2899 -0.7389
  285MOL0     C37508   7.586   5.588   2.301  0.7572  0.1948 -0.1761
  285MOL0     C37509   7.515   5.644   2.186  0.1920 -0.0969 -0.3797
  285MOL0     C37510   7.373   5.675   2.217  0.6009 -0.1112  0.2514
  285MOL0     C37511   7.286   5.549   2.219  0.2160 -0.9019 -0.0471
  285MOL0     O37512   7.257   5.484   2.092  0.9124 -0.1083  0.4461
  285MOL0     C37513   7.184   5.367   2.092  0.6511 -0.2989  0.7714
  285MOL0     C37514   7.155   5.300   2.210 -0.7821  0.2584  0.4478
  285MOL0     C37515   7.073   5.186   2.203  0.1812 -0.0444  0.9129
  285MOL0     C37516   7.020   5.137   2.089  1.2874 -0.5908  0.9049
  285MOL0     C37517   6.926   5.027   2.084  0.7264  0.2168  0.4054
  285MOL0     O37518   6.910   4.961   1.965  0.1806  0.2355 -0.5099
  285MOL0     C37519   6.807   4.872   1.964 -0.7981  0.0829  0.4194
  285MOL0     C37520   6.800   4.763   2.044  0.0592 -0.2664 -1.1654
  285MOL0     C37521   6.685   4.680   2.043  0.0386  0.1178  0.2723
  285MOL0     C37522   6.579   4.703   1.943 -0.1477 -0.3286  0.0558
  285MOL0     O37523   6.463   4.625   1.946 -0.1565 -0.6861 -0.0273
  285MOL0     C37524   6.347   4.683   1.881 -0.0403 -0.0008  0.1711
  285MOL0     C37525   6.228   4.605   1.912  0.3267  0.2696  0.5353
  285MOL0     C37526   6.145   4.680   2.015  0.0220  0.3536  0.1498
  285MOL0     C37527   6.006   4.619   2.050 -0.0583  0.2697 -1.1493
  285MOL0     C37528   5.948   4.709   2.165 -1.6689 -0.3363 -0.1933
  285MOL0     C37529   5.800   4.679   2.182  0.7278  0.2301 -0.0341
  285MOL0     C37530   5.716   4.752   2.086 -0.2366  0.0692  0.3045
  285MOL0     C37531   5.572   4.775   2.125 -0.1640  0.7421 -0.0929
  285MOL0    Cl37532   5.495   4.809   1.962  0.7169  0.0014 -0.3626
  285MOL0     C37533   6.595   4.808   1.856 -0.3478 -0.0613  0.1353
  285MOL0     C37534   6.705   4.891   1.872 -0.3994  0.1999  0.6727
  285MOL0     O37535   6.859   5.015   2.193  0.0507  0.2912  0.6725
  285MOL0     C37536   7.054   5.201   1.964 -0.0248  0.6150  0.2266
  285MOL0     C37537   7.141   5.311   1.972  0.5658  0.6987  0.2258
  285MOL0     N37538   7.626   5.696   2.536 -0.3219 -0.0647  0.3183
  285MOL0     N37539   7.698   5.795   2.587 -0.7900 -0.1683  0.5752
  285MOL0     C37540   8.940   5.860   2.622 -0.5216  0.5318 -0.3817
  285MOL0     C37541   9.058   5.864   2.700 -0.2109 -0.1635  0.2864
  285MOL0     C37542   9.392   5.940   2.947  0.2682  0.2000 -0.1323
  285MOL0     C37543   9.447   5.818   2.987 -0.5727  0.4042 -0.1183
  285MOL0     C37544   9.579   5.804   3.025 -0.2992  0.2124  0.5200
  285MOL0     C37545   9.663   5.914   3.023 -0.4343 -0.2216 -0.4311
  285MOL0     O37546   9.801   5.906   3.044  0.6639  0.4349  0.3017
  285MOL0     C37547   9.856   5.781   3.084 -0.4236  0.3029  0.5681
  285MOL0     C37548  10.006   5.807   3.096 -0.3134 -0.0518 -0.2489
  285MOL0     C37549  10.027   5.911   3.208 -0.3632  0.9472  0.6247
  285MOL0     C37550  10.175   5.951   3.216  0.2998 -0.2791 -0.3307
  285MOL0     C37551  10.277   5.839   3.229  0.3691 -0.5811  0.7186
  285MOL0     C37552  10.354   5.748   3.236  0.4467 -0.3973 -0.1378
  285MOL0     C37553   9.612   6.035   2.989  0.0663  0.3294  0.1643
  285MOL0     C37554   9.481   6.047   2.941  0.7317  0.8342 -0.3030
  285MOL0     H37555   8.945   5.811   3.022  1.6647  1.8353 -0.0879
  285MOL0     H37556   8.736   5.846   2.906 -0.2445 -0.3732  0.1852
  285MOL0     H37557   8.699   5.717   2.515 -0.3648  0.6081  1.0728
  285MOL0     H37558   8.737   5.871   2.448  0.0616 -1.0354 -1.1803
  285MOL0     H37559   8.513   5.831   2.382 -2.0726 -0.3894 -0.3980
  285MOL0     H37560   8.502   5.939   2.511  0.3916  0.4816  0.1662
  285MOL0     H37561   8.477   5.728   2.676  4.4684 -1.2672 -1.3103
  285MOL0     H37562   8.469   5.625   2.534 -0.2205  0.2389 -2.1628
  285MOL0     H37563   8.270   5.758   2.444  0.8739 -1.2020  0.3188
  285MOL0     H37564   8.246   5.670   2.593 -1.8124  0.7105 -0.3449
  285MOL0     H37565   8.336   5.952   2.647  1.9623 -2.0797  3.7924
  285MOL0     H37566   8.215   5.848   2.726  0.0094  2.3826  0.7537
  285MOL0     H37567   8.138   5.988   2.478 -3.1278  0.8885 -0.6690
  285MOL0     H37568   8.080   6.034   2.626 -0.6593  0.8707 -2.0730
  285MOL0     H37569   8.035   5.767   2.494  0.5263  2.2817 -3.4777
  285MOL0     H37570   7.955   5.811   2.653 -2.4275  2.3760 -0.2360
  285MOL0     H37571   7.910   5.972   2.390  0.0730 -0.5212 -0.6977
  285MOL0     H37572   7.860   6.025   2.553 -0.5481 -0.1575 -0.1800
  285MOL0     H37573   7.772   5.806   2.263  0.8002  1.3730  1.0693
  285MOL0     H37574   7.523   5.515   2.352 -0.7087 -0.5395 -2.8421
  285MOL0     H37575   7.667   5.528   2.257 -2.0485 -2.6784 -1.8282
  285MOL0     H37576   7.520   5.573   2.104 -0.3709 -0.7106  0.1121
  285MOL0     H37577   7.570   5.731   2.149  0.7669  0.6217  1.9555
  285MOL0     H37578   7.364   5.733   2.309  0.6500  1.7837 -0.8673
  285MOL0     H37579   7.342   5.734   2.129  1.7188  1.3549  0.7986
  285MOL0     H37580   7.192   5.570   2.270 -0.0192 -0.7292 -0.5492
  285MOL0     H37581   7.336   5.485   2.293 -0.0954  2.0771  2.9914
  285MOL0     H37582   7.202   5.327   2.303 -1.8955 -1.9439  1.7127
  285MOL0     H37583   7.051   5.131   2.294  0.2022 -1.1911  0.2379
  285MOL0     H37584   6.872   4.736   2.121  0.6380  1.6870 -0.9735
  285MOL0     H37585   6.672   4.599   2.114  0.0458 -0.4348 -0.3580
  285MOL0     H37586   6.347   4.682   1.772 -0.0045 -0.5354  0.1721
  285MOL0     H37587   6.330   4.785   1.917  1.7654 -0.0759  1.3765
  285MOL0     H37588   6.253   4.501   1.935  2.6631  0.4847 -0.6861
  285MOL0     H37589   6.165   4.597   1.823 -2.9095 -0.0044  2.6892
  285MOL0     H37590   6.130   4.785   1.985 -2.3626  0.3761  1.1406
  285MOL0     H37591   6.206   4.681   2.106  1.7443 -1.5372 -0.9071
  285MOL0     H37592   5.947   4.631   1.958  0.2240 -0.9887 -1.5183
  285MOL0     H37593   6.019   4.514   2.078  3.1688  0.9625  0.3479
  285MOL0     H37594   5.980   4.813   2.160  0.6653 -0.9380  0.7139
  285MOL0     H37595   5.999   4.676   2.256 -0.5594  2.1717  0.1542
  285MOL0     H37596   5.784   4.706   2.287 -0.7359 -1.5265  0.2429
  285MOL0     H37597   5.792   4.570   2.172  4.4049 -0.1583  0.0807
  285MOL0     H37598   5.761   4.850   2.066  2.0785 -1.2315 -1.2768
  285MOL0     H37599   5.721   4.708   1.987 -0.5813  0.6468  0.0238
  285MOL0     H37600   5.562   4.855   2.198 -0.5427  0.9258 -0.3430
  285MOL0     H37601   5.524   4.684   2.162  2.0424 -1.9883 -3.2687
  285MOL0     H37602   6.523   4.836   1.779 -0.2230  1.8272  0.6648
  285MOL0     H37603   6.702   4.983   1.815 -3.8578  0.4423  1.0568
  285MOL0     H37604   7.010   5.165   1.872 -2.5415 -0.2008  1.6298
  285MOL0     H37605   7.176   5.354   1.878 -0.9787  0.6984 -0.3760
  285MOL0     H37606   8.926   5.885   2.517 -3.1078  2.1568  0.2439
  285MOL0     H37607   9.149   5.871   2.640 -2.6209 -2.8891 -4.1969
  285MOL0     H37608   9.390   5.727   2.966  0.0371  0.3442 -1.6722
  285MOL0     H37609   9.622   5.706   3.037  1.4786  1.0948  1.9582
  285MOL0     H37610   9.837   5.698   3.015 -0.8335  0.4215  0.5357
  285MOL0     H37611   9.820   5.758   3.185 -2.5493  0.1791 -0.1567
  285MOL0     H37612  10.052   5.712   3.123  1.0680  0.6583 -0.0245
  285MOL0     H37613  10.051   5.839   3.001  0.8552  1.2932  0.7200
  285MOL0     H37614  10.003   5.865   3.305  2.2306  1.0006  1.3618
  285MOL0     H37615   9.966   6.003   3.211 -1.7072  0.1903 -1.4668
  285MOL0     H37616  10.210   5.995   3.122  0.9591 -1.8407 -0.8579
  285MOL0     H37617  10.185   6.033   3.288 -2.3909  0.2275 -0.4135
  285MOL0     H37618  10.425   5.669   3.250  0.9995  0.2409  0.7666
  285MOL0     H37619   9.675   6.124   2.985  1.2208 -0.2471  3.1691
  285MOL0     H37620   9.448   6.143   2.902  0.6753 -0.2423 -3.1327
  286MOL0     O37621   9.755   4.313  10.754  0.1501  0.1755 -0.0777
  286MOL0     C37622   9.802   4.329  10.642 -1.7250  0.4892 -0.0402
  286MOL0     O37623   9.737   4.362  10.531 -0.4284  0.1321  0.3000
  286MOL0     C37624   9.598   4.351  10.538  0.5665 -0.4234  0.5603
  286MOL0     C37625   9.511   4.456  10.554  0.0731 -0.0644  0.3445
  286MOL0     C37626   9.371   4.434  10.534 -0.8593 -0.6848  0.1078
  286MOL0     C37627   9.318   4.312  10.520  0.7823 -0.4129  0.5028
  286MOL0     O37628   9.186   4.280  10.498 -0.3656  0.1625  0.2288
  286MOL0     C37629   9.086   4.378  10.525 -0.2724  0.1941  0.9351
  286MOL0     C37630   8.942   4.344  10.496 -0.3895  0.6404  0.3685
  286MOL0     C37631   8.899   4.224  10.577  0.0735  0.0163  0.5072
  286MOL0     C37632   8.778   4.160  10.511  0.4479 -0.7923  0.0395
  286MOL0     C37633   8.641   4.229  10.529  0.5802  0.4020  0.0920
  286MOL0     C37634   8.520   4.146  10.488  0.0666  0.2098  0.1810
  286MOL0     C37635   8.382   4.216  10.504 -0.4607 -0.4774 -0.0610
  286MOL0     C37636   8.364   4.263  10.655  0.0805  0.1484  0.0465
  286MOL0     N37637   8.222   4.300  10.681  0.1457  0.4193  0.3429
  286MOL0     C37638   8.114   4.216  10.704  0.5101 -0.2262  0.6476
  286MOL0     C37639   8.003   4.290  10.706  0.4443  0.4153 -0.2859
  286MOL0     C37640   7.861   4.247  10.734 -0.5331 -0.4620 -0.6128
  286MOL0     C37641   7.816   4.321  10.860 -0.5743  0.2698 -0.7660
  286MOL0     C37642   7.675   4.271  10.912  0.3541 -0.0057  0.3867
  286MOL0     C37643   7.567   4.284  10.804 -0.4818 -0.5594  0.3786
  286MOL0     O37644   7.438   4.250  10.861 -0.1535 -0.2325 -0.1715
  286MOL0     C37645   7.328   4.232  10.778  0.2042  0.2583 -0.0280
  286MOL0     C37646   7.205   4.230  10.840  0.3321 -0.2563  0.0580
  286MOL0     C37647   7.092   4.216  10.759  0.2044 -1.3556 -0.7235
  286MOL0     C37648   7.098   4.219  10.615  0.0800 -0.3111 -0.2238
  286MOL0     C37649   6.976   4.196  10.526  0.1921 -0.4035 -0.2759
  286MOL0     O37650   6.854   4.204  10.590  0.1417  0.4671 -0.3730
  286MOL0     C37651   6.731   4.180  10.531 -0.0050  0.6716  0.0233
  286MOL0     C37652   6.689   4.211  10.399 -0.1023  0.3819 -0.4403
  286MOL0     C37653   6.567   4.170  10.355 -0.5533  0.2043  0.3604
  286MOL0     C37654   6.468   4.112  10.434 -1.1012  0.2402  0.1977
  286MOL0     O37655   6.344   4.066  10.378  0.0407 -0.5224 -0.2349
  286MOL0     C37656   6.233   4.017  10.459 -0.6879  0.7070  0.3033
  286MOL0     C37657   6.102   4.031  10.390  0.1582  1.0683 -0.0006
  286MOL0     C37658   5.994   3.961  10.482 -0.3242 -0.0456 -0.1424
  286MOL0     C37659   5.852   3.994  10.437  0.2721  0.3830 -0.1644
  286MOL0     C37660   5.759   3.897  10.507  0.0381  0.1950 -0.0748
  286MOL0     C37661   5.614   3.914  10.466  0.1915 -0.4475  0.1066
  286MOL0     C37662   5.590   3.897  10.316  0.0855 -0.5729  0.2462
  286MOL0     C37663   5.446   3.938  10.272 -0.2139  0.2443  0.1975
  286MOL0    Cl37664   5.426   3.955  10.096  0.0589  0.1978 -0.1248
  286MOL0     C37665   6.498   4.081  10.566  0.3893  0.5246 -0.6536
  286MOL0     C37666   6.627   4.117  10.611 -0.5787  0.3328  0.1496
  286MOL0     O37667   6.993   4.178  10.404 -0.1177  0.9929 -0.0129
  286MOL0     C37668   7.228   4.227  10.556  0.4421 -0.1446 -0.3131
  286MOL0     C37669   7.336   4.254  10.636  0.5352  0.1543 -0.6077
  286MOL0     N37670   8.038   4.416  10.659 -0.6382  0.8780 -0.0174
  286MOL0     N37671   8.171   4.418  10.650  0.2079 -0.5293 -0.3531
  286MOL0     C37672   9.404   4.205  10.503 -0.0138  0.1193  0.2582
  286MOL0     C37673   9.541   4.222  10.517  0.2229  0.8316  0.3224
  286MOL0     C37674   9.950   4.294  10.620 -0.0017  0.2281 -0.1689
  286MOL0     C37675  10.030   4.226  10.718 -0.4293  0.9448  0.4859
  286MOL0     C37676  10.166   4.196  10.703 -0.0160  0.7793  0.5288
  286MOL0     C37677  10.223   4.244  10.584 -0.9409  0.9913 -0.4685
  286MOL0     O37678  10.363   4.229  10.570  0.5878 -0.7127 -0.2585
  286MOL0     C37679  10.436   4.292  10.466  0.0146 -0.4663  0.4278
  286MOL0     C37680  10.586   4.240  10.466  0.3391 -0.4548 -0.3411
  286MOL0     C37681  10.661   4.263  10.608  1.0601  1.0413  0.2514
  286MOL0     C37682  10.806   4.300  10.591 -0.2192 -0.2430  0.1056
  286MOL0     C37683  10.850   4.377  10.712  0.6028 -0.0605  0.5271
  286MOL0     C37684  10.886   4.438  10.811  0.2206 -0.2404  0.1275
  286MOL0     C37685  10.150   4.306  10.486  0.0273 -1.2296 -1.1684
  286MOL0     C37686  10.012   4.329  10.502 -1.3108 -0.0503 -0.0236
  286MOL0     H37687   9.553   4.554  10.573 -0.2536 -0.5565  4.4888
  286MOL0     H37688   9.304   4.520  10.531  1.3917  1.1825  0.0836
  286MOL0     H37689   9.093   4.468  10.463  0.4389  0.7252  1.7740
  286MOL0     H37690   9.087   4.393  10.633  0.4399  2.7073  0.6319
  286MOL0     H37691   8.940   4.322  10.388  0.2027  1.3315  0.2067
  286MOL0     H37692   8.872   4.427  10.510  0.0962  0.7020  2.7807
  286MOL0     H37693   8.879   4.264  10.676 -1.1096  0.3513  0.1507
  286MOL0     H37694   8.984   4.155  10.570  0.0649  0.1033 -0.5762
  286MOL0     H37695   8.795   4.143  10.404  0.2636  1.2102 -0.3529
  286MOL0     H37696   8.771   4.060  10.553  2.3367 -1.3672 -0.8930
  286MOL0     H37697   8.646   4.323  10.473  4.5733 -0.3505 -1.1330
  286MOL0     H37698   8.634   4.250  10.636  0.0126  2.4466 -0.3028
  286MOL0     H37699   8.527   4.062  10.558 -0.8440  0.8305  1.0480
  286MOL0     H37700   8.533   4.105  10.388 -1.1874 -2.4249  1.0073
  286MOL0     H37701   8.371   4.298  10.432 -4.3070 -2.5501 -2.1843
  286MOL0     H37702   8.299   4.148  10.483 -0.6129 -0.3037 -0.0248
  286MOL0     H37703   8.416   4.355  10.687  0.0162 -0.6464  2.6713
  286MOL0     H37704   8.390   4.182  10.723  3.3829 -0.4766 -1.7640
  286MOL0     H37705   8.115   4.107  10.707  0.7380 -0.3808 -2.0441
  286MOL0     H37706   7.860   4.142  10.764  0.2649  0.0429  1.3725
  286MOL0     H37707   7.795   4.262  10.649 -0.9916 -2.3196 -0.6240
  286MOL0     H37708   7.818   4.428  10.834 -0.0400 -0.2807 -3.1501
  286MOL0     H37709   7.888   4.310  10.941 -2.0444  2.2361  0.9426
  286MOL0     H37710   7.684   4.168  10.949 -2.5599 -1.5456 -2.5650
  286MOL0     H37711   7.640   4.329  10.998 -2.6728 -0.7652 -0.2001
  286MOL0     H37712   7.586   4.210  10.725  1.5931 -1.7479  1.8931
  286MOL0     H37713   7.567   4.386  10.765 -1.0812 -0.7886 -0.2477
  286MOL0     H37714   7.200   4.235  10.948 -1.5402 -0.2901  0.0067
  286MOL0     H37715   6.992   4.216  10.800 -1.5078 -1.5046 -4.4996
  286MOL0     H37716   6.752   4.265  10.329 -0.1750 -0.0237 -0.8232
  286MOL0     H37717   6.547   4.186  10.249  1.1559 -0.7953 -0.1468
  286MOL0     H37718   6.225   4.071  10.553 -3.1075  0.5093  0.2865
  286MOL0     H37719   6.263   3.915  10.486  0.4607  1.2197  0.9918
  286MOL0     H37720   6.102   3.986  10.291  2.2927  0.1802  0.3575
  286MOL0     H37721   6.077   4.136  10.373 -2.3431  0.1655 -2.7110
  286MOL0     H37722   6.014   3.992  10.585  0.8076  3.2874 -1.2112
  286MOL0     H37723   6.009   3.853  10.476  0.1272  0.0308 -0.4253
  286MOL0     H37724   5.832   4.097  10.470  1.0342  1.0939 -1.7726
  286MOL0     H37725   5.836   4.002  10.329 -1.0377  2.3289  0.1204
  286MOL0     H37726   5.768   3.912  10.615  0.6348  2.1309 -0.3563
  286MOL0     H37727   5.790   3.797  10.475  0.2573  1.2220 -3.4038
  286MOL0     H37728   5.577   4.014  10.491  1.2435 -0.2458  0.9302
  286MOL0     H37729   5.547   3.844  10.518  1.3091 -0.2667  1.8664
  286MOL0     H37730   5.664   3.957  10.262  1.7612 -1.1196  1.8227
  286MOL0     H37731   5.596   3.793  10.282 -1.4220 -0.6117  0.0526
  286MOL0     H37732   5.429   4.037  10.314  1.0378  1.1143 -1.2337
  286MOL0     H37733   5.366   3.872  10.307  0.1226  0.3454  1.1822
  286MOL0     H37734   6.429   4.046  10.642  1.5084 -0.4346 -0.0610
  286MOL0     H37735   6.647   4.102  10.717  0.8480 -0.0169 -0.1549
  286MOL0     H37736   7.235   4.227  10.447  1.4618 -0.6729 -0.2651
  286MOL0     H37737   7.433   4.272  10.591 -0.4002  0.7003 -2.4934
  286MOL0     H37738   9.364   4.106  10.482 -1.6682  0.5996  0.9630
  286MOL0     H37739   9.610   4.139  10.503 -0.1940  0.2343  1.6981
  286MOL0     H37740   9.964   4.199  10.799 -1.4878 -0.4873 -0.8144
  286MOL0     H37741  10.223   4.130  10.769 -0.5666 -0.2838 -0.0260
  286MOL0     H37742  10.437   4.399  10.489  1.9599 -0.5189  0.7584
  286MOL0     H37743  10.387   4.260  10.374  0.3399  0.4194 -0.0701
  286MOL0     H37744  10.604   4.136  10.437 -0.8292 -0.2267 -2.0372
  286MOL0     H37745  10.640   4.288  10.384 -1.4972  0.4154 -1.1020
  286MOL0     H37746  10.655   4.173  10.670 -0.8079  1.0283  0.1014
  286MOL0     H37747  10.613   4.343  10.666 -0.0415  3.2515 -3.3940
  286MOL0     H37748  10.866   4.208  10.582 -2.8387 -2.1400  0.8320
  286MOL0     H37749  10.830   4.358  10.501  0.3708  0.9115  0.9802
  286MOL0     H37750  10.908   4.496  10.898  2.2816 -0.3145 -0.2879
  286MOL0     H37751  10.209   4.358  10.411  2.0091  0.1449  1.1917
  286MOL0     H37752   9.967   4.389  10.423 -2.5923 -1.8261 -0.7280
  287MOL0     O37753   2.835   0.764   9.632  0.5446  0.1383 -0.4445
  287MOL0     C37754   2.844   0.650   9.681 -0.2006 -0.5665  0.4493
  287MOL0     O37755   2.735   0.573   9.708  0.5454  0.1991 -0.2756
  287MOL0     C37756   2.604   0.610   9.678 -0.3768 -1.1216  0.6033
  287MOL0     C37757   2.505   0.605   9.773 -0.5878 -0.1688 -0.1791
  287MOL0     C37758   2.373   0.650   9.751  0.6030  0.6174 -0.1819
  287MOL0     C37759   2.333   0.697   9.629  0.6739 -0.5141  0.3292
  287MOL0     O37760   2.207   0.747   9.596 -0.0267 -0.3780 -0.2250
  287MOL0     C37761   2.108   0.748   9.700  0.2624 -0.3158 -0.7374
  287MOL0     C37762   1.973   0.763   9.634  0.4479 -0.2297  0.1969
  287MOL0     C37763   1.857   0.742   9.736 -0.1831 -0.0005  0.6386
  287MOL0     C37764   1.726   0.801   9.679 -0.2165 -0.1937  0.5112
  287MOL0     C37765   1.606   0.743   9.747 -0.0866 -1.0536 -0.4108
  287MOL0     C37766   1.483   0.816   9.692  0.7706 -0.6740  0.9335
  287MOL0     C37767   1.354   0.769   9.755 -0.1222 -0.3604 -0.4232
  287MOL0     C37768   1.242   0.812   9.665  0.6011  0.1792  0.1139
  287MOL0     N37769   1.120   0.815   9.743  0.8657  0.5268  0.4435
  287MOL0     C37770   1.023   0.718   9.747 -0.3882 -0.1648  0.2304
  287MOL0     C37771   0.921   0.756   9.832  0.8258  0.0940 -1.3877
  287MOL0     C37772   0.790   0.673   9.858 -0.6784  0.9770  1.4885
  287MOL0     C37773   0.658   0.742   9.833  0.0310 -0.3594 -0.4083
  287MOL0     C37774   0.636   0.882   9.904 -0.0731  0.0888 -0.4826
  287MOL0     C37775   0.487   0.924   9.914 -0.0234  0.0670  0.1214
  287MOL0     O37776   0.418   0.912   9.792  0.6183 -0.1489 -0.5074
  287MOL0     C37777   0.283   0.948   9.782 -0.7163 -0.0550 -0.3346
  287MOL0     C37778   0.235   0.949   9.652  0.7252 -0.2053 -0.1413
  287MOL0     C37779   0.094   0.968   9.634  0.4085  0.2183 -0.2900
  287MOL0     C37780   0.004   0.991   9.740 -0.3913 -0.1680  0.1281
  287MOL0     C37781  -0.139   0.985   9.719  0.0348 -0.2989 -0.5151
  287MOL0     O37782  -0.218   0.953   9.828  0.0905 -0.0177  0.5007
  287MOL0     C37783  -0.349   0.993   9.822 -0.1063  0.2869  0.3790
  287MOL0     C37784  -0.446   0.907   9.875  0.5871  0.5339  0.4348
  287MOL0     C37785  -0.588   0.938   9.864 -0.8778 -0.3357 -0.1938
  287MOL0     C37786  -0.626   1.064   9.811 -0.1140  0.0146 -0.0154
  287MOL0     O37787  -0.758   1.108   9.793  0.8421  0.0810 -0.2755
  287MOL0     C37788  -0.865   1.010   9.774  0.4906  0.0811 -0.4940
  287MOL0     C37789  -0.975   1.004   9.888  0.0572  0.0531  1.3191
  287MOL0     C37790  -1.109   0.947   9.842 -1.0985 -0.9353 -0.1261
  287MOL0     C37791  -1.208   0.907   9.951  0.7924  0.2273  0.0827
  287MOL0     C37792  -1.341   0.853   9.898  0.2835  0.0977  0.2734
  287MOL0     C37793  -1.430   0.826  10.008 -0.8655 -0.4072  0.6561
  287MOL0     C37794  -1.571   0.790   9.965  0.0464  0.3315 -0.2276
  287MOL0     C37795  -1.649   0.739  10.090  0.7208  0.4419 -1.1067
  287MOL0    Cl37796  -1.785   0.643  10.024  0.2083  0.0071  0.2326
  287MOL0     C37797  -0.529   1.155   9.766 -0.8251  0.4113 -0.3339
  287MOL0     C37798  -0.396   1.117   9.779  0.0799 -1.2762  0.0788
  287MOL0     O37799  -0.179   1.004   9.602 -1.4125 -0.3356 -0.5280
  287MOL0     C37800   0.065   1.010   9.867 -0.1478 -0.6835 -1.0531
  287MOL0     C37801   0.200   0.978   9.887 -0.4410 -0.4109 -0.0152
  287MOL0     N37802   0.954   0.891   9.869  0.1426 -0.0056  0.6450
  287MOL0     N37803   1.073   0.917   9.822  0.2720  0.3699  0.5483
  287MOL0     C37804   2.438   0.702   9.531 -0.8972 -0.4163  0.7751
  287MOL0     C37805   2.573   0.674   9.559  0.3845 -0.2873 -0.1038
  287MOL0     C37806   2.983   0.601   9.701 -0.3862 -0.6425 -0.2689
  287MOL0     C37807   3.013   0.475   9.760  0.5292 -0.1831 -0.9020
  287MOL0     C37808   3.145   0.436   9.788  0.2929  0.4391 -0.5388
  287MOL0     C37809   3.254   0.523   9.765 -0.6185  0.0725  0.2997
  287MOL0     O37810   3.390   0.497   9.800 -0.3696  0.6813 -0.2145
  287MOL0     C37811   3.420   0.377   9.872 -0.2782 -0.4182 -0.1797
  287MOL0     C37812   3.570   0.396   9.908  0.3888  0.6625  0.1064
  287MOL0     C37813   3.648   0.264   9.927 -0.1577 -0.4548  0.3913
  287MOL0     C37814   3.769   0.289  10.006 -0.7532  0.0731  0.1294
  287MOL0     C37815   3.882   0.358   9.929  0.4955  1.1988 -1.2046
  287MOL0     C37816   3.979   0.389   9.867  0.7229  0.1838  0.9629
  287MOL0     C37817   3.224   0.642   9.701  0.9530 -0.5733 -0.2620
  287MOL0     C37818   3.096   0.681   9.667  0.6626  0.1827 -0.3781
  287MOL0     H37819   2.522   0.559   9.870  0.5233  1.2465  0.3353
  287MOL0     H37820   2.313   0.656   9.841  3.7241  2.2462  1.9664
  287MOL0     H37821   2.126   0.830   9.769 -4.0505  0.5582 -0.3961
  287MOL0     H37822   2.106   0.661   9.768  2.6237  0.7241  0.8159
  287MOL0     H37823   1.959   0.692   9.551 -0.7621 -2.7701  2.4284
  287MOL0     H37824   1.961   0.861   9.587  0.7770 -0.5247 -0.5199
  287MOL0     H37825   1.872   0.786   9.834  0.8519 -0.6512  0.7878
  287MOL0     H37826   1.849   0.634   9.752  1.4731 -0.3515 -0.6540
  287MOL0     H37827   1.732   0.910   9.683  3.1311 -0.0689 -2.6964
  287MOL0     H37828   1.715   0.785   9.572 -0.5090  0.7012  0.3996
  287MOL0     H37829   1.613   0.774   9.852 -0.0463  0.5191 -0.8627
  287MOL0     H37830   1.601   0.634   9.738  0.9950 -1.2229  0.6742
  287MOL0     H37831   1.488   0.792   9.585  2.7896  1.6017  0.4223
  287MOL0     H37832   1.486   0.925   9.703 -0.9624 -0.4925 -0.1523
  287MOL0     H37833   1.347   0.660   9.752 -0.7562 -0.3119 -0.7483
  287MOL0     H37834   1.344   0.814   9.855  0.4757  0.5797 -0.7738
  287MOL0     H37835   1.242   0.735   9.587 -0.4473  2.0403 -1.8232
  287MOL0     H37836   1.263   0.911   9.622 -0.4451 -0.4164 -1.8943
  287MOL0     H37837   1.034   0.617   9.711 -0.5230 -0.5524  1.2542
  287MOL0     H37838   0.789   0.639   9.963  2.7127  0.4770  1.4882
  287MOL0     H37839   0.788   0.586   9.792  0.6449  0.3408  2.2357
  287MOL0     H37840   0.585   0.673   9.875  1.0897 -0.5315  1.2450
  287MOL0     H37841   0.648   0.755   9.724  0.1260  0.2113 -0.3499
  287MOL0     H37842   0.674   0.882  10.006  1.1264 -2.0188 -0.8632
  287MOL0     H37843   0.696   0.953   9.846 -1.9159  1.9097 -0.2984
  287MOL0     H37844   0.483   1.028   9.945 -0.6692  0.3974 -0.9789
  287MOL0     H37845   0.443   0.876  10.002  3.1736 -1.1305  1.1935
  287MOL0     H37846   0.302   0.945   9.567  1.2687 -0.9778  0.3157
  287MOL0     H37847   0.060   0.950   9.532 -1.8561  1.7323  0.1097
  287MOL0     H37848  -0.413   0.818   9.928  0.0745  1.0632  1.6717
  287MOL0     H37849  -0.667   0.874   9.902 -1.2614  1.0528  1.4654
  287MOL0     H37850  -0.824   0.909   9.766 -0.2962 -0.2304 -0.7438
  287MOL0     H37851  -0.921   1.024   9.681 -4.4016 -0.5838  2.0206
  287MOL0     H37852  -0.992   1.099   9.940 -1.8016  0.2390  0.4539
  287MOL0     H37853  -0.942   0.931   9.962  3.6489 -0.5374 -0.6531
  287MOL0     H37854  -1.094   0.854   9.786  2.1408 -0.8001  0.3134
  287MOL0     H37855  -1.158   1.021   9.779 -0.6339 -0.7247 -0.2506
  287MOL0     H37856  -1.164   0.828  10.013 -0.3088  1.0322  1.9390
  287MOL0     H37857  -1.226   0.990  10.019 -2.2834  0.7623 -1.2260
  287MOL0     H37858  -1.327   0.758   9.844 -0.2554  0.2736 -0.1881
  287MOL0     H37859  -1.374   0.920   9.818  3.4116  0.0879 -1.1982
  287MOL0     H37860  -1.431   0.913  10.075 -0.8258  0.1368 -0.0359
  287MOL0     H37861  -1.384   0.739  10.056  3.1586  0.5613 -0.9808
  287MOL0     H37862  -1.621   0.881   9.931 -1.9415  0.2689  2.1871
  287MOL0     H37863  -1.562   0.714   9.888  1.7348  1.5304 -1.2660
  287MOL0     H37864  -1.686   0.816  10.158  0.3687 -1.1658  0.6086
  287MOL0     H37865  -1.586   0.667  10.143 -2.0962 -0.8657  0.7097
  287MOL0     H37866  -0.555   1.253   9.727 -1.0328 -0.5876 -2.8861
  287MOL0     H37867  -0.324   1.195   9.754 -2.5135  1.7761  1.3513
  287MOL0     H37868   0.007   1.042   9.953 -0.3963 -1.7064 -0.8319
  287MOL0     H37869   0.236   0.987   9.989 -1.4844 -1.2534  0.4435
  287MOL0     H37870   2.414   0.737   9.432  0.1710  2.4087  1.4056
  287MOL0     H37871   2.652   0.702   9.491  1.4842  1.9035  1.9252
  287MOL0     H37872   2.927   0.417   9.790  0.4228  0.3851 -0.0783
  287MOL0     H37873   3.148   0.346   9.849 -1.5772  0.1364 -0.8381
  287MOL0     H37874   3.408   0.289   9.809  0.1554 -0.4049 -0.2848
  287MOL0     H37875   3.361   0.357   9.962  2.1014 -4.4728  0.7488
  287MOL0     H37876   3.616   0.453   9.827  1.6466  0.3104  0.5526
  287MOL0     H37877   3.569   0.455  10.000 -0.7487 -0.5280  0.8958
  287MOL0     H37878   3.663   0.224   9.826  2.0216  0.9758  0.0749
  287MOL0     H37879   3.578   0.198   9.978 -1.9600  0.9827 -0.1235
  287MOL0     H37880   3.746   0.340  10.100  0.3017 -1.9933  1.6043
  287MOL0     H37881   3.804   0.188  10.031 -3.3423 -0.8769  0.1530
  287MOL0     H37882   4.063   0.422   9.810  1.7386 -1.2421  1.5522
  287MOL0     H37883   3.305   0.700   9.657  0.9145  0.6440  1.1970
  287MOL0     H37884   3.082   0.770   9.606  0.8601  0.5476  0.0989
  288MOL0     O37885   7.819   0.722   1.412  0.3249 -0.7143 -0.2329
  288MOL0     C37886   7.837   0.722   1.534  0.3273 -0.0038  0.3354
  288MOL0     O37887   7.769   0.628   1.616 -0.5577 -0.4819 -0.0564
  288MOL0     C37888   7.648   0.596   1.575 -0.1755 -0.5969  0.1908
  288MOL0     C37889   7.618   0.474   1.518  0.5465 -0.4643 -1.3950
  288MOL0     C37890   7.488   0.446   1.477  0.2544 -0.5905  0.1517
  288MOL0     C37891   7.379   0.532   1.508  0.0017 -0.6508 -0.2261
  288MOL0     O37892   7.254   0.504   1.475  0.8152 -0.2122 -0.0006
  288MOL0     C37893   7.143   0.512   1.569  0.5281 -0.0010  0.0889
  288MOL0     C37894   7.034   0.580   1.489 -0.1409 -0.1454  0.2973
  288MOL0     C37895   6.965   0.478   1.398 -0.1714 -0.0971 -1.3817
  288MOL0     C37896   6.853   0.548   1.316  0.1712 -0.0207  0.4194
  288MOL0     C37897   6.800   0.457   1.196 -0.1971  0.7724 -0.5248
  288MOL0     C37898   6.715   0.543   1.113  0.9229 -0.2093 -1.1437
  288MOL0     C37899   6.579   0.576   1.191 -0.2544 -0.2204  0.3766
  288MOL0     C37900   6.498   0.679   1.118  0.7054  0.2273  0.6997
  288MOL0     N37901   6.452   0.630   0.986  0.5883  0.6403 -0.3165
  288MOL0     C37902   6.335   0.554   0.962 -0.8464 -0.1392 -1.5235
  288MOL0     C37903   6.344   0.536   0.828  0.0533  0.3018  0.4987
  288MOL0     C37904   6.259   0.456   0.737  0.1856  0.8688 -0.4670
  288MOL0     C37905   6.100   0.481   0.757 -0.0923  0.5851 -0.2226
  288MOL0     C37906   6.024   0.362   0.699 -0.0097  0.4220  0.6228
  288MOL0     C37907   5.873   0.388   0.691  0.0083 -0.1143 -0.1999
  288MOL0     O37908   5.831   0.378   0.825  0.2777  0.3013  0.2804
  288MOL0     C37909   5.702   0.422   0.858 -0.5705  1.0772 -1.0467
  288MOL0     C37910   5.653   0.407   0.992  1.0383 -0.4549 -0.0402
  288MOL0     C37911   5.519   0.438   1.031  0.1357 -0.0218 -0.5615
  288MOL0     C37912   5.435   0.498   0.936  0.6048  0.0859  0.4278
  288MOL0     C37913   5.288   0.534   0.973  0.1435 -0.1889  0.7364
  288MOL0     O37914   5.241   0.487   1.085  0.1109 -0.5061 -0.8877
  288MOL0     C37915   5.130   0.536   1.148 -0.6532  0.1428 -0.0804
  288MOL0     C37916   5.013   0.557   1.073  0.2642  0.1323 -0.7793
  288MOL0     C37917   4.910   0.600   1.154 -0.4196 -0.3458  0.5160
  288MOL0     C37918   4.917   0.623   1.295 -0.8693  0.1315  0.2665
  288MOL0     O37919   4.807   0.665   1.366 -0.8449 -0.0576 -0.0849
  288MOL0     C37920   4.679   0.673   1.303  0.6120 -0.3646  0.4242
  288MOL0     C37921   4.571   0.733   1.391 -0.0516 -0.0501 -0.1356
  288MOL0     C37922   4.424   0.713   1.354  0.2926 -0.4120 -0.1232
  288MOL0     C37923   4.334   0.764   1.469 -0.5828 -0.2656 -0.4147
  288MOL0     C37924   4.193   0.731   1.439  0.9243 -0.0837 -0.3895
  288MOL0     C37925   4.100   0.767   1.559 -0.0829 -0.3754 -0.5308
  288MOL0     C37926   3.961   0.730   1.524 -0.3179  0.5673 -0.5476
  288MOL0     C37927   3.859   0.743   1.635  0.3277 -0.2063  0.0461
  288MOL0    Cl37928   3.710   0.658   1.594 -0.1159  0.4437  0.2259
  288MOL0     C37929   5.035   0.616   1.361 -0.3730  0.6658  0.4658
  288MOL0     C37930   5.141   0.567   1.283  0.3858  0.2324 -0.5258
  288MOL0     O37931   5.236   0.612   0.898 -0.3139  0.1037  0.1646
  288MOL0     C37932   5.478   0.512   0.806 -0.0518  0.1492 -0.2898
  288MOL0     C37933   5.611   0.466   0.763 -0.5617 -0.2810  0.2988
  288MOL0     N37934   6.456   0.595   0.772 -0.3973  0.5890 -0.1910
  288MOL0     N37935   6.514   0.655   0.867 -0.6025  0.0220 -0.2477
  288MOL0     C37936   7.418   0.648   1.570 -0.2328 -0.5387  0.6461
  288MOL0     C37937   7.546   0.681   1.604  0.0167  0.3777 -0.7782
  288MOL0     C37938   7.945   0.816   1.586 -0.4414  0.2034 -0.1991
  288MOL0     C37939   7.948   0.844   1.724  0.1037  0.3424 -0.5668
  288MOL0     C37940   8.039   0.941   1.770 -1.4579 -0.8388 -0.4306
  288MOL0     C37941   8.124   1.010   1.681 -0.2040 -0.3771 -0.2640
  288MOL0     O37942   8.221   1.089   1.751 -0.2271 -0.6280  0.0851
  288MOL0     C37943   8.330   1.139   1.662  0.2019 -0.0957  0.8176
  288MOL0     C37944   8.421   1.198   1.763 -0.4642 -0.9226 -0.7663
  288MOL0     C37945   8.405   1.353   1.799  0.2018  0.1634  0.5548
  288MOL0     C37946   8.375   1.434   1.666  0.8382 -0.5997  0.1403
  288MOL0     C37947   8.472   1.405   1.567  0.2782 -1.0271 -1.3562
  288MOL0     C37948   8.559   1.390   1.487  0.0853 -0.0931  0.4500
  288MOL0     C37949   8.110   0.982   1.545  0.5085 -0.5251 -0.0317
  288MOL0     C37950   8.028   0.880   1.493 -0.2028  0.1475 -0.3846
  288MOL0     H37951   7.689   0.392   1.506 -0.0127 -1.1951  0.1062
  288MOL0     H37952   7.462   0.352   1.428 -1.5349 -0.2932  0.4490
  288MOL0     H37953   7.175   0.581   1.647 -2.2565  1.1681  0.3142
  288MOL0     H37954   7.106   0.415   1.601  0.4068  0.8063  2.5653
  288MOL0     H37955   7.078   0.656   1.423  0.2827 -0.0124  0.7282
  288MOL0     H37956   6.974   0.640   1.558  2.7109  0.9178  2.0736
  288MOL0     H37957   6.924   0.400   1.463 -0.6247  0.2074 -1.3005
  288MOL0     H37958   7.038   0.431   1.331  1.7294  0.7318  0.0255
  288MOL0     H37959   6.768   0.580   1.378  0.7691  3.4922 -0.4133
  288MOL0     H37960   6.890   0.641   1.273 -0.1122  1.0937  2.4463
  288MOL0     H37961   6.733   0.385   1.244 -1.9381  1.7106 -1.4204
  288MOL0     H37962   6.875   0.408   1.134 -1.2402 -0.6255 -0.7222
  288MOL0     H37963   6.696   0.482   1.025  2.3476 -0.4341 -1.3209
  288MOL0     H37964   6.760   0.636   1.077 -2.4446  1.1242 -2.2980
  288MOL0     H37965   6.521   0.485   1.210 -2.0852  0.0860 -2.8253
  288MOL0     H37966   6.587   0.619   1.291 -0.1727  2.2699 -0.6132
  288MOL0     H37967   6.557   0.769   1.102 -1.0932  1.2108 -0.7823
  288MOL0     H37968   6.416   0.722   1.175  1.1356  1.6719  0.2666
  288MOL0     H37969   6.266   0.501   1.027  0.9253 -0.9856 -0.2171
  288MOL0     H37970   6.277   0.355   0.774 -0.8087  1.7166  2.6356
  288MOL0     H37971   6.285   0.476   0.633  1.0334  1.7750 -0.1020
  288MOL0     H37972   6.073   0.574   0.707 -0.1786 -0.2916 -1.8904
  288MOL0     H37973   6.076   0.495   0.863 -2.8235 -2.7814 -0.2029
  288MOL0     H37974   6.063   0.348   0.597 -0.7820  1.4000  0.1774
  288MOL0     H37975   6.050   0.274   0.758  2.2994  2.3431  2.6817
  288MOL0     H37976   5.811   0.316   0.638 -0.6613 -0.7226  1.3711
  288MOL0     H37977   5.859   0.487   0.646 -1.0258 -2.0374 -4.7126
  288MOL0     H37978   5.722   0.363   1.063  1.0559 -0.2655  0.0595
  288MOL0     H37979   5.486   0.436   1.134  1.7112  0.1701 -0.0257
  288MOL0     H37980   5.004   0.529   0.969 -2.1963 -1.4159 -0.2218
  288MOL0     H37981   4.823   0.615   1.091 -2.1011 -0.3686  2.7331
  288MOL0     H37982   4.660   0.569   1.277  1.4536 -0.8001  1.4360
  288MOL0     H37983   4.682   0.730   1.210 -2.9648  0.2133  0.5380
  288MOL0     H37984   4.594   0.839   1.405 -1.1863  0.3429 -1.1043
  288MOL0     H37985   4.593   0.680   1.484  3.0974 -0.7061 -1.1371
  288MOL0     H37986   4.408   0.609   1.326  1.8289 -0.9242  0.7638
  288MOL0     H37987   4.400   0.778   1.270 -0.6832  0.4022  0.7551
  288MOL0     H37988   4.362   0.731   1.570 -4.3591  1.7160  1.5383
  288MOL0     H37989   4.346   0.873   1.468  1.7564 -0.4747 -1.5860
  288MOL0     H37990   4.179   0.624   1.418  0.6644  0.2869 -2.2543
  288MOL0     H37991   4.162   0.785   1.349 -1.0921 -3.9306 -2.2560
  288MOL0     H37992   4.110   0.876   1.559 -0.4942 -0.3198  0.4308
  288MOL0     H37993   4.145   0.713   1.643 -0.6586 -0.7944 -0.4846
  288MOL0     H37994   3.921   0.795   1.446  0.2666  1.4956 -0.0884
  288MOL0     H37995   3.971   0.626   1.493  1.2407 -0.3341  2.5791
  288MOL0     H37996   3.861   0.852   1.649  1.7381 -0.1715 -0.2841
  288MOL0     H37997   3.897   0.685   1.719 -1.3985  0.0062  1.0162
  288MOL0     H37998   5.047   0.635   1.467 -0.5231  1.2297  0.3835
  288MOL0     H37999   5.244   0.555   1.314 -0.0762  1.7247  1.7928
  288MOL0     H38000   5.413   0.556   0.731 -2.5591 -2.7243 -0.0271
  288MOL0     H38001   5.622   0.481   0.656 -0.9192  0.7689  0.4018
  288MOL0     H38002   7.338   0.718   1.588  0.3463  0.3043  0.0108
  288MOL0     H38003   7.566   0.778   1.650 -1.1911  0.1132  0.3819
  288MOL0     H38004   7.879   0.789   1.786  0.3934 -0.1431 -0.6728
  288MOL0     H38005   8.042   0.960   1.877  1.7256 -0.1980 -0.5431
  288MOL0     H38006   8.290   1.202   1.583 -2.5519 -0.8822  1.4809
  288MOL0     H38007   8.387   1.057   1.617 -1.9047 -1.5371  0.6291
  288MOL0     H38008   8.416   1.139   1.855  1.7029  0.9935  0.6949
  288MOL0     H38009   8.524   1.186   1.726  0.1728 -1.3072  1.0305
  288MOL0     H38010   8.499   1.396   1.836 -1.1152  3.2363  0.6171
  288MOL0     H38011   8.327   1.377   1.872 -0.8132  0.8533 -0.7042
  288MOL0     H38012   8.281   1.399   1.621  1.9403 -2.6178 -0.7174
  288MOL0     H38013   8.369   1.541   1.684  2.6287 -0.3273 -0.6840
  288MOL0     H38014   8.640   1.356   1.426 -0.1163 -0.3420  0.3182
  288MOL0     H38015   8.154   1.042   1.466 -0.3195 -1.8485 -1.5450
  288MOL0     H38016   8.018   0.863   1.386 -1.8710  1.8365 -0.5550
  289MOL0     O38017   9.932   8.564  10.029 -0.3089 -0.6548  0.2889
  289MOL0     C38018   9.912   8.538  10.150  0.2098  0.1977 -0.6048
  289MOL0     O38019  10.006   8.540  10.250 -0.0235 -0.4698 -0.1871
  289MOL0     C38020  10.138   8.560  10.215  0.1760  0.6066  0.0770
  289MOL0     C38021  10.222   8.459  10.164 -0.4170 -0.8076 -0.0593
  289MOL0     C38022  10.359   8.485  10.139  0.9454  0.0557  0.2227
  289MOL0     C38023  10.407   8.608  10.177  0.4279  0.1435 -0.1959
  289MOL0     O38024  10.537   8.650  10.166  0.3697 -0.2115 -0.2363
  289MOL0     C38025  10.635   8.553  10.133 -0.4451 -0.4214  0.4960
  289MOL0     C38026  10.771   8.618  10.107  0.1437  0.3477 -0.2653
  289MOL0     C38027  10.758   8.727   9.999 -0.8129  0.0170 -0.4405
  289MOL0     C38028  10.890   8.771   9.929  0.1464  0.1995 -0.8002
  289MOL0     C38029  10.981   8.846  10.020  0.5980  0.6748 -0.1341
  289MOL0     C38030  11.115   8.865   9.954 -0.7301  0.0456 -0.7964
  289MOL0     C38031  11.188   8.976  10.038  0.0860  0.8365  0.2249
  289MOL0     C38032  11.338   8.979  10.000  0.4239 -0.5981 -0.1700
  289MOL0     N38033  11.412   8.861  10.029  0.1993  0.3916 -0.0928
  289MOL0     C38034  11.419   8.792  10.152  0.3072  0.2696  0.4636
  289MOL0     C38035  11.488   8.677  10.124  0.3687 -0.0041 -0.3075
  289MOL0     C38036  11.543   8.575  10.227  0.4249 -0.8460 -0.0801
  289MOL0     C38037  11.687   8.564  10.205 -0.2335 -1.0418  0.0236
  289MOL0     C38038  11.764   8.539  10.337  0.0080  1.5051  0.3914
  289MOL0     C38039  11.880   8.447  10.308 -0.5171  0.4312 -0.4507
  289MOL0     O38040  11.971   8.468  10.420  0.3104 -0.7489 -0.0801
  289MOL0     C38041  12.085   8.399  10.414  0.0538 -0.2694  0.0778
  289MOL0     C38042  12.144   8.337  10.297 -0.2779 -0.5823  0.4702
  289MOL0     C38043  12.285   8.316  10.295 -0.3253  0.1635 -0.1168
  289MOL0     C38044  12.357   8.323  10.420  0.5502 -0.9205  0.4279
  289MOL0     C38045  12.501   8.284  10.422  0.2894 -0.3820 -0.2816
  289MOL0     O38046  12.543   8.215  10.312 -0.8964  0.0193 -0.2439
  289MOL0     C38047  12.672   8.170  10.325  0.2079  0.2510 -0.3343
  289MOL0     C38048  12.696   8.075  10.422 -0.7671  0.4126  0.2120
  289MOL0     C38049  12.826   8.022  10.444 -0.1601 -0.9716 -0.0916
  289MOL0     C38050  12.935   8.069  10.368 -0.2539  0.5349  0.1322
  289MOL0     O38051  13.055   8.008  10.400 -0.1820  0.1554  0.3266
  289MOL0     C38052  13.167   8.022  10.309  0.1493 -0.4623 -0.3787
  289MOL0     C38053  13.302   7.988  10.364 -0.8220  0.0048 -1.0431
  289MOL0     C38054  13.410   8.015  10.260  0.6627 -0.1195  0.1476
  289MOL0     C38055  13.552   7.991  10.318 -0.5093  1.2494 -0.9263
  289MOL0     C38056  13.659   8.009  10.210 -0.0674 -0.0243 -0.1293
  289MOL0     C38057  13.800   8.000  10.267  0.7943 -0.1043 -0.4268
  289MOL0     C38058  13.894   8.019  10.150 -0.7413 -0.4246  0.3005
  289MOL0     C38059  14.045   7.998  10.190 -0.1183 -0.3748 -0.3745
  289MOL0    Cl38060  14.145   8.079  10.071 -0.3599 -0.3070 -0.0256
  289MOL0     C38061  12.906   8.165  10.269  0.1402  0.3244 -0.5420
  289MOL0     C38062  12.780   8.216  10.249  0.1470  0.8094 -0.8585
  289MOL0     O38063  12.573   8.322  10.511 -0.1127  0.8940 -0.8794
  289MOL0     C38064  12.294   8.370  10.535  0.4406 -0.5561 -0.9060
  289MOL0     C38065  12.156   8.406  10.535 -0.6385 -0.5205 -0.1047
  289MOL0     N38066  11.511   8.672   9.988  0.7614 -0.7023 -0.3288
  289MOL0     N38067  11.457   8.778   9.932 -0.0941  0.1410  0.5975
  289MOL0     C38068  10.328   8.709  10.218  0.1459 -0.1169 -0.5220
  289MOL0     C38069  10.191   8.684  10.242  0.7730 -0.0424 -0.0947
  289MOL0     C38070   9.777   8.488  10.194  0.7878 -0.5945  0.9509
  289MOL0     C38071   9.751   8.437  10.319 -0.3437  0.5404 -0.8830
  289MOL0     C38072   9.621   8.397  10.357 -1.4743  0.6718 -0.2620
  289MOL0     C38073   9.517   8.409  10.267  0.5954  0.1478 -0.0961
  289MOL0     O38074   9.386   8.389  10.294 -0.6243  0.4065 -0.0466
  289MOL0     C38075   9.369   8.270  10.379  0.3316 -0.5160 -0.9150
  289MOL0     C38076   9.217   8.259  10.418 -0.7509  0.2713 -0.7062
  289MOL0     C38077   9.179   8.172  10.538 -0.0526 -0.0965 -0.4508
  289MOL0     C38078   9.032   8.126  10.551  0.0954 -0.5872 -0.1646
  289MOL0     C38079   8.953   8.246  10.546  0.1126  0.5550  0.4014
  289MOL0     C38080   8.897   8.350  10.545  0.6811 -0.2123  0.7320
  289MOL0     C38081   9.541   8.459  10.146  0.3533 -0.7562  0.4204
  289MOL0     C38082   9.668   8.492  10.105 -0.1273  0.0028  0.0397
  289MOL0     H38083  10.184   8.357  10.154  0.0489 -0.8691 -1.3251
  289MOL0     H38084  10.427   8.420  10.085  2.1800  3.8899 -3.4723
  289MOL0     H38085  10.600   8.505  10.041 -1.9437  2.4706 -0.5725
  289MOL0     H38086  10.647   8.480  10.213 -0.7872 -0.4814  0.4939
  289MOL0     H38087  10.845   8.544  10.073  2.1135  1.9175  0.3756
  289MOL0     H38088  10.802   8.651  10.207 -0.1766 -2.7841  0.9780
  289MOL0     H38089  10.704   8.807  10.051 -0.4208 -0.1454  0.2258
  289MOL0     H38090  10.703   8.683   9.915 -0.3237 -2.4080  0.4350
  289MOL0     H38091  10.936   8.679   9.893  1.8072 -0.5533  2.8139
  289MOL0     H38092  10.867   8.838   9.846  1.1555 -1.2967 -2.3356
  289MOL0     H38093  10.998   8.792  10.113  1.1317  0.0584 -0.5774
  289MOL0     H38094  10.933   8.941  10.045 -0.5778  0.2759 -0.7896
  289MOL0     H38095  11.119   8.894   9.848 -1.9932 -1.9810 -1.4658
  289MOL0     H38096  11.171   8.772   9.963 -0.4897  0.1084 -1.5811
  289MOL0     H38097  11.144   9.074  10.017 -0.7552  0.4258  0.0354
  289MOL0     H38098  11.172   8.962  10.145 -2.5580  0.6869 -0.1326
  289MOL0     H38099  11.380   9.067  10.050  2.9444 -0.1649 -2.7973
  289MOL0     H38100  11.340   9.008   9.895 -1.9962 -0.9794 -0.3804
  289MOL0     H38101  11.377   8.826  10.246 -2.3789 -1.1884 -0.0946
  289MOL0     H38102  11.487   8.482  10.229  1.3122 -1.3960  2.3049
  289MOL0     H38103  11.524   8.603  10.331  2.2930 -1.2194  0.4092
  289MOL0     H38104  11.724   8.659  10.165 -1.4549 -0.4312  0.3084
  289MOL0     H38105  11.711   8.488  10.129  0.3880  0.1641 -1.0288
  289MOL0     H38106  11.817   8.627  10.375  0.1898  1.5603  0.0146
  289MOL0     H38107  11.706   8.500  10.421 -0.4574  0.9913 -0.1486
  289MOL0     H38108  11.932   8.478  10.217  2.2620  1.6483  1.4012
  289MOL0     H38109  11.851   8.342  10.305  2.1245 -0.5122  1.9470
  289MOL0     H38110  12.087   8.323  10.206  0.9139 -3.0486  0.0139
  289MOL0     H38111  12.332   8.280  10.204  0.1868  0.4122  0.0434
  289MOL0     H38112  12.615   8.031  10.480  1.1899 -2.5079  1.0108
  289MOL0     H38113  12.849   7.957  10.527  0.3575  1.0834  1.4705
  289MOL0     H38114  13.174   8.121  10.263  1.6010  0.2652  1.2956
  289MOL0     H38115  13.136   7.945  10.238 -1.0506 -2.6612  2.3480
  289MOL0     H38116  13.304   7.880  10.385  0.6367  0.2079  0.0222
  289MOL0     H38117  13.333   8.050  10.449  0.7813  0.7072 -2.1087
  289MOL0     H38118  13.407   8.112  10.210 -0.9614 -0.4209 -0.3796
  289MOL0     H38119  13.388   7.948  10.176  0.2209 -1.1456  1.0631
  289MOL0     H38120  13.564   8.073  10.390  0.5814  0.7109 -0.4807
  289MOL0     H38121  13.569   7.895  10.368 -2.3482  1.1867 -0.3478
  289MOL0     H38122  13.628   8.106  10.170 -2.0842  0.4990  2.4529
  289MOL0     H38123  13.656   7.929  10.135  4.8676 -0.2111 -0.4714
  289MOL0     H38124  13.814   7.899  10.307  0.7048  0.3764  0.8479
  289MOL0     H38125  13.812   8.077  10.343 -0.2771  0.2976 -0.6462
  289MOL0     H38126  13.862   7.940  10.081 -0.9883  0.0829 -0.1716
  289MOL0     H38127  13.876   8.118  10.109  1.3510  2.9876  6.3627
  289MOL0     H38128  14.073   7.893  10.188 -2.3964 -1.1477  2.1957
  289MOL0     H38129  14.066   8.036  10.290 -2.2686 -1.2538  0.4743
  289MOL0     H38130  12.991   8.207  10.217  0.5405  0.7255  0.4016
  289MOL0     H38131  12.769   8.291  10.171  2.2540  1.2123 -0.8152
  289MOL0     H38132  12.350   8.390  10.626 -0.0689 -0.2003 -0.6673
  289MOL0     H38133  12.122   8.463  10.621  0.1134  0.8518 -0.6874
  289MOL0     H38134  10.364   8.812  10.228 -0.5014  0.0242  0.4565
  289MOL0     H38135  10.124   8.767  10.264 -0.0567 -0.6519 -0.2790
  289MOL0     H38136   9.828   8.426  10.394  0.3552 -0.9941 -1.7932
  289MOL0     H38137   9.603   8.361  10.458  0.1386 -1.6026 -0.6869
  289MOL0     H38138   9.413   8.286  10.478  1.8523  2.2988 -1.9325
  289MOL0     H38139   9.409   8.175  10.342  0.3589 -1.0458  0.4003
  289MOL0     H38140   9.178   8.358  10.444 -1.1335 -0.5418  2.1647
  289MOL0     H38141   9.164   8.233  10.325  0.7692  0.6370 -1.7066
  289MOL0     H38142   9.207   8.228  10.627 -0.7701  2.2729 -1.6499
  289MOL0     H38143   9.239   8.080  10.535  0.4899  0.2437 -3.1074
  289MOL0     H38144   8.996   8.054  10.477 -3.6443 -0.7620  1.5659
  289MOL0     H38145   9.011   8.079  10.648 -2.7780  2.6014  0.9634
  289MOL0     H38146   8.835   8.437  10.541 -1.0528 -1.4149  0.2331
  289MOL0     H38147   9.448   8.483  10.096 -0.3298 -0.3923  1.8280
  289MOL0     H38148   9.675   8.545  10.011 -1.7162  0.8751  0.3651
  290MOL0     O38149  10.175   9.786   2.617  0.1924 -0.0399  0.0253
  290MOL0     C38150  10.258   9.715   2.674  0.7247  0.2307  0.8024
  290MOL0     O38151  10.234   9.625   2.772  1.0523 -1.0672  0.4630
  290MOL0     C38152  10.107   9.590   2.809  0.2183  0.2277  0.1034
  290MOL0     C38153  10.093   9.515   2.932  1.0061 -0.1309 -0.2479
  290MOL0     C38154   9.964   9.469   2.981 -0.8588  0.4237 -0.1045
  290MOL0     C38155   9.849   9.493   2.904 -1.3560 -0.5014 -0.2762
  290MOL0     O38156   9.719   9.465   2.937 -0.1448  0.3004 -0.0496
  290MOL0     C38157   9.704   9.389   3.057  1.1748 -0.0643 -0.6941
  290MOL0     C38158   9.557   9.333   3.075  0.9517 -0.1890 -0.6910
  290MOL0     C38159   9.449   9.438   3.086  0.6324 -0.4677  0.1899
  290MOL0     C38160   9.312   9.382   3.118 -0.1490  0.3860 -0.2531
  290MOL0     C38161   9.206   9.499   3.111  0.1071  0.2504 -0.8811
  290MOL0     C38162   9.059   9.438   3.134  1.4443 -0.0717 -0.4162
  290MOL0     C38163   8.953   9.555   3.110 -1.5402  0.0374  0.5763
  290MOL0     C38164   8.815   9.481   3.110 -0.9964 -0.2914  0.9344
  290MOL0     N38165   8.716   9.579   3.161  0.1687 -0.2739  0.2142
  290MOL0     C38166   8.651   9.571   3.281  0.1324 -0.1786  0.2611
  290MOL0     C38167   8.555   9.665   3.264 -0.2567  0.1891 -0.3026
  290MOL0     C38168   8.456   9.719   3.365 -0.0846 -0.2914  0.2701
  290MOL0     C38169   8.310   9.666   3.333 -0.2122 -0.5944  0.2411
  290MOL0     C38170   8.297   9.511   3.382 -0.0880  0.4366  0.1856
  290MOL0     C38171   8.294   9.503   3.534 -0.6561 -0.2786 -0.1878
  290MOL0     O38172   8.257   9.379   3.583  0.0327  0.0639 -0.6874
  290MOL0     C38173   8.127   9.344   3.614  0.5312 -0.0406  0.8549
  290MOL0     C38174   8.102   9.220   3.676 -0.9438 -0.3029 -0.0660
  290MOL0     C38175   7.976   9.176   3.699  0.0381 -1.1665 -0.6985
  290MOL0     C38176   7.864   9.247   3.646  0.2914  0.3357  0.2904
  290MOL0     C38177   7.730   9.200   3.677  0.3619  0.1840  0.0056
  290MOL0     O38178   7.631   9.243   3.589 -0.2641  0.2514  0.3330
  290MOL0     C38179   7.510   9.179   3.596  0.5976 -0.2092 -0.7313
  290MOL0     C38180   7.401   9.232   3.663  0.3709 -0.5288  0.4216
  290MOL0     C38181   7.281   9.164   3.667 -0.0101  0.3259  0.3744
  290MOL0     C38182   7.267   9.039   3.595 -0.2648  0.0312 -0.4696
  290MOL0     O38183   7.156   8.962   3.596  0.7054 -0.2786 -0.8957
  290MOL0     C38184   7.029   9.023   3.641  1.0906  0.6160 -0.7943
  290MOL0     C38185   6.919   8.949   3.561 -0.4121 -0.0265  0.2031
  290MOL0     C38186   6.779   8.983   3.616 -0.6533  0.4742 -0.5026
  290MOL0     C38187   6.679   8.874   3.562  0.3860 -0.7014  0.9701
  290MOL0     C38188   6.534   8.874   3.632 -0.2454 -0.3965  0.5574
  290MOL0     C38189   6.447   8.959   3.538 -0.4828 -0.0130 -0.2336
  290MOL0     C38190   6.295   8.964   3.587  0.0197  0.5922 -0.1855
  290MOL0     C38191   6.265   8.999   3.737  0.1617  0.4719 -0.0554
  290MOL0    Cl38192   6.339   9.155   3.778  0.0345 -0.1010  0.0804
  290MOL0     C38193   7.378   8.996   3.522  0.4195  0.0348  0.3769
  290MOL0     C38194   7.500   9.065   3.524  0.3166 -0.3212  0.5431
  290MOL0     O38195   7.710   9.133   3.777 -0.2216  0.0747  0.2250
  290MOL0     C38196   7.884   9.369   3.589  0.0678  0.3614  1.1713
  290MOL0     C38197   8.013   9.420   3.573  0.5482 -0.2754 -0.6945
  290MOL0     N38198   8.559   9.722   3.141 -0.6932 -0.8208  0.4971
  290MOL0     N38199   8.662   9.682   3.080  0.6048  0.7916  0.1096
  290MOL0     C38200   9.869   9.563   2.784 -0.4653 -0.1239  0.7240
  290MOL0     C38201   9.989   9.609   2.735  0.2033  0.1955 -0.4421
  290MOL0     C38202  10.402   9.730   2.649 -0.5420 -0.2374  0.2156
  290MOL0     C38203  10.499   9.652   2.711 -0.5341  0.5258  0.3961
  290MOL0     C38204  10.637   9.663   2.689 -0.5816 -0.5235  0.0037
  290MOL0     C38205  10.688   9.755   2.596 -0.7703 -0.1612 -0.1010
  290MOL0     O38206  10.820   9.774   2.578  0.0723 -0.8332 -0.1771
  290MOL0     C38207  10.908   9.737   2.673 -0.8718  0.3864 -0.3050
  290MOL0     C38208  11.045   9.791   2.645  0.5292  0.3948  0.1784
  290MOL0     C38209  11.143   9.716   2.726  0.1648 -0.0725  0.0210
  290MOL0     C38210  11.300   9.758   2.698  0.2379 -0.1803  0.9185
  290MOL0     C38211  11.398   9.716   2.796 -0.3293 -0.3054 -0.1920
  290MOL0     C38212  11.476   9.696   2.887 -0.0197  0.1863  0.1392
  290MOL0     C38213  10.592   9.829   2.524 -0.2411  0.0986  0.4518
  290MOL0     C38214  10.454   9.816   2.548 -0.3551  0.2244 -0.6529
  290MOL0     H38215  10.183   9.498   2.989  1.3186  0.2767 -0.6178
  290MOL0     H38216   9.966   9.409   3.071 -3.1812  0.4708  0.0377
  290MOL0     H38217   9.724   9.451   3.145  3.0980 -0.1363 -1.0377
  290MOL0     H38218   9.774   9.305   3.058 -2.0483 -3.0274 -1.5919
  290MOL0     H38219   9.550   9.279   3.170 -1.5978  1.3268  0.1023
  290MOL0     H38220   9.531   9.263   2.996  0.1984  0.0267 -0.6474
  290MOL0     H38221   9.438   9.485   2.988 -0.5549 -4.3359 -1.7326
  290MOL0     H38222   9.472   9.521   3.154 -0.8339 -0.8891  1.2579
  290MOL0     H38223   9.293   9.298   3.051  0.4930 -1.9648  2.3334
  290MOL0     H38224   9.315   9.334   3.216  3.2147 -1.3562 -1.0640
  290MOL0     H38225   9.212   9.553   3.016  3.8544  0.4751 -0.6751
  290MOL0     H38226   9.207   9.566   3.198 -0.3705 -0.8466 -0.0027
  290MOL0     H38227   9.036   9.407   3.236 -2.4904  0.1247 -1.0780
  290MOL0     H38228   9.028   9.357   3.067  0.8564  0.7618 -1.1700
  290MOL0     H38229   8.954   9.637   3.182 -1.7930  1.4071 -0.9238
  290MOL0     H38230   8.977   9.596   3.011  0.7233 -1.1162  0.5644
  290MOL0     H38231   8.819   9.391   3.173 -1.5945 -1.0904 -0.1257
  290MOL0     H38232   8.782   9.448   3.011 -3.4676  1.6705  1.0074
  290MOL0     H38233   8.681   9.513   3.368 -1.3136  0.1230  1.0001
  290MOL0     H38234   8.453   9.826   3.344 -0.6520 -0.7024 -1.9792
  290MOL0     H38235   8.488   9.709   3.469 -1.1320  2.2621  0.9207
  290MOL0     H38236   8.282   9.683   3.229 -3.6572  2.2113  1.4351
  290MOL0     H38237   8.227   9.721   3.378 -1.0181  0.3225 -2.2156
  290MOL0     H38238   8.203   9.467   3.350  1.5206 -0.5783 -3.8102
  290MOL0     H38239   8.368   9.442   3.335 -1.6350 -0.1974 -1.3087
  290MOL0     H38240   8.234   9.587   3.570  3.2114  2.0211  1.5285
  290MOL0     H38241   8.391   9.535   3.574 -2.0213  3.9136  0.2620
  290MOL0     H38242   8.187   9.158   3.703  0.9934  1.5820 -1.5673
  290MOL0     H38243   7.960   9.083   3.753 -0.7164 -0.6619 -0.0345
  290MOL0     H38244   7.409   9.327   3.715  0.8069  0.4514 -1.3516
  290MOL0     H38245   7.204   9.216   3.723 -2.4008 -2.4842 -0.0784
  290MOL0     H38246   7.034   9.130   3.617  0.2937  1.4003  2.1540
  290MOL0     H38247   7.011   9.006   3.747 -1.5432  0.3647 -1.1965
  290MOL0     H38248   6.937   8.841   3.572 -1.8077 -0.2128  0.9068
  290MOL0     H38249   6.924   8.991   3.460 -1.4292  1.9889  0.9362
  290MOL0     H38250   6.747   9.076   3.568 -3.6504 -0.9464 -1.5273
  290MOL0     H38251   6.782   8.981   3.725 -1.0301  1.0007 -0.4802
  290MOL0     H38252   6.667   8.877   3.454 -1.7808  1.7448  1.1709
  290MOL0     H38253   6.719   8.774   3.584 -0.1300 -1.2381 -0.4042
  290MOL0     H38254   6.541   8.934   3.723 -0.4312 -0.6477  0.7397
  290MOL0     H38255   6.483   8.779   3.649 -0.1215 -0.2663  1.7440
  290MOL0     H38256   6.445   8.932   3.432  1.2154  2.2169 -0.9047
  290MOL0     H38257   6.480   9.063   3.543 -2.4692  0.6137  1.3721
  290MOL0     H38258   6.248   9.029   3.512  1.6646  0.5583 -1.3071
  290MOL0     H38259   6.238   8.872   3.568 -0.9253  0.9110  0.9962
  290MOL0     H38260   6.312   8.929   3.806 -2.6669 -1.1123  0.4286
  290MOL0     H38261   6.158   8.989   3.760  0.2036  0.5928  0.1967
  290MOL0     H38262   7.366   8.903   3.468  0.2005  0.4846 -0.3529
  290MOL0     H38263   7.584   9.029   3.465  0.0197 -0.3376  0.1287
  290MOL0     H38264   7.794   9.426   3.567  0.1902 -0.2025 -1.0916
  290MOL0     H38265   8.026   9.517   3.526 -2.1402 -0.0602 -1.1343
  290MOL0     H38266   9.784   9.585   2.720  1.1364 -2.5061 -2.5345
  290MOL0     H38267   9.990   9.642   2.631  0.4533  2.3680  0.1895
  290MOL0     H38268  10.475   9.571   2.780  1.1956 -0.1693  0.2353
  290MOL0     H38269  10.700   9.595   2.747 -1.6130 -0.5008  1.1793
  290MOL0     H38270  10.909   9.628   2.684 -2.0664  0.1260 -2.3261
  290MOL0     H38271  10.881   9.778   2.771  0.6499  0.8565 -0.0607
  290MOL0     H38272  11.055   9.782   2.537 -2.4388 -1.3728 -0.0791
  290MOL0     H38273  11.050   9.899   2.664  2.2841  0.6019 -1.2402
  290MOL0     H38274  11.122   9.609   2.717 -0.0265  0.0248 -0.7468
  290MOL0     H38275  11.136   9.743   2.832  4.3965 -0.3211  0.5359
  290MOL0     H38276  11.340   9.722   2.603  2.6566  0.7051  1.5492
  290MOL0     H38277  11.300   9.868   2.694 -0.9210 -0.1297  1.7448
  290MOL0     H38278  11.531   9.687   2.978  0.4636  1.3245 -0.0260
  290MOL0     H38279  10.625   9.889   2.439 -1.7672  1.3028  0.6778
  290MOL0     H38280  10.383   9.877   2.493 -1.7745 -2.8847 -2.4878
  291MOL0     O38281   1.136   3.970   3.239  0.2280 -0.1750 -0.1914
  291MOL0     C38282   1.080   4.072   3.195 -0.3475  0.2692  0.2207
  291MOL0     O38283   0.946   4.098   3.194 -0.5478 -0.2261  0.1341
  291MOL0     C38284   0.859   4.026   3.264  0.2571 -0.1111  0.3390
  291MOL0     C38285   0.755   4.092   3.333  0.1648  0.3720  0.9838
  291MOL0     C38286   0.650   4.022   3.392  0.0875 -0.4347 -0.3095
  291MOL0     C38287   0.636   3.886   3.381 -0.0255  0.6508 -0.6724
  291MOL0     O38288   0.534   3.825   3.450  0.2541  0.2540  0.4762
  291MOL0     C38289   0.500   3.695   3.409  0.2316  0.1321  0.1693
  291MOL0     C38290   0.350   3.675   3.430  0.4146 -0.5850 -0.4902
  291MOL0     C38291   0.292   3.548   3.378  0.2728  0.4646 -0.3232
  291MOL0     C38292   0.140   3.548   3.409  0.2063  0.0222 -0.4771
  291MOL0     C38293   0.070   3.427   3.338 -0.4723  0.1715  1.1422
  291MOL0     C38294  -0.080   3.403   3.385 -0.6622 -0.2613 -0.5507
  291MOL0     C38295  -0.179   3.515   3.348 -0.0598  1.4084 -0.2194
  291MOL0     C38296  -0.321   3.465   3.319  0.3068 -0.5157 -0.2674
  291MOL0     N38297  -0.387   3.400   3.432  0.1777 -0.3057  0.3191
  291MOL0     C38298  -0.377   3.273   3.469 -0.0577  0.1659 -0.3381
  291MOL0     C38299  -0.483   3.254   3.557 -0.7365 -0.0454  0.2869
  291MOL0     C38300  -0.532   3.118   3.586 -0.0914 -0.0964 -0.1234
  291MOL0     C38301  -0.606   3.106   3.723 -0.3577 -1.4813 -0.2449
  291MOL0     C38302  -0.690   2.981   3.725  0.0885  0.6403 -0.1282
  291MOL0     C38303  -0.754   2.950   3.864 -0.2370  0.0942 -0.6282
  291MOL0     O38304  -0.841   2.838   3.849  0.3047  0.0615  0.1364
  291MOL0     C38305  -0.890   2.777   3.968  0.2382 -0.2528  0.6327
  291MOL0     C38306  -0.915   2.851   4.083 -0.3862 -0.6449 -1.3190
  291MOL0     C38307  -0.977   2.798   4.199  1.2901  0.6910  0.0542
  291MOL0     C38308  -1.015   2.663   4.205  0.2581  0.9925  0.8500
  291MOL0     C38309  -1.088   2.588   4.319  0.6863  0.0347  0.5604
  291MOL0     O38310  -1.120   2.660   4.434 -0.2484  0.0940 -0.3254
  291MOL0     C38311  -1.181   2.578   4.535  0.3362 -1.2075 -0.0784
  291MOL0     C38312  -1.322   2.587   4.559 -0.0833 -0.6414  0.7949
  291MOL0     C38313  -1.387   2.520   4.657  0.2754 -0.1551  0.5869
  291MOL0     C38314  -1.321   2.442   4.746  0.1047 -0.5964  0.2740
  291MOL0     O38315  -1.390   2.388   4.849 -0.3562  0.3772  0.0229
  291MOL0     C38316  -1.346   2.261   4.897 -0.3540 -0.0247 -1.0503
  291MOL0     C38317  -1.421   2.186   5.001  0.0437 -0.1244 -0.2041
  291MOL0     C38318  -1.566   2.137   4.962 -0.2056  0.0693 -0.2511
  291MOL0     C38319  -1.630   2.082   5.096  0.0052 -0.2365  1.2863
  291MOL0     C38320  -1.777   2.042   5.061  0.7292  0.0862 -0.6647
  291MOL0     C38321  -1.876   2.163   5.037  0.3156 -0.2769 -1.1203
  291MOL0     C38322  -2.012   2.112   5.002  1.0319  0.4817 -0.7423
  291MOL0     C38323  -2.121   2.216   4.985  0.9625 -0.6187  0.0517
  291MOL0    Cl38324  -2.153   2.296   5.140  0.7421 -0.3765 -0.1241
  291MOL0     C38325  -1.186   2.414   4.718 -0.4778 -0.1507 -0.1932
  291MOL0     C38326  -1.119   2.476   4.611  0.9380  0.4644 -0.0844
  291MOL0     O38327  -1.121   2.469   4.304  0.4091 -0.4893 -0.2647
  291MOL0     C38328  -1.002   2.595   4.078 -0.1645 -0.6312  0.4343
  291MOL0     C38329  -0.939   2.650   3.973  0.0573 -0.1655 -0.2177
  291MOL0     N38330  -0.546   3.375   3.573  0.3190 -0.2060  0.7508
  291MOL0     N38331  -0.479   3.465   3.511 -0.7837 -0.3989 -0.2807
  291MOL0     C38332   0.739   3.819   3.316 -0.2188 -0.3939  0.5054
  291MOL0     C38333   0.854   3.888   3.259  0.4308  0.8780 -0.0313
  291MOL0     C38334   1.162   4.176   3.127  0.3233 -0.1213 -0.7416
  291MOL0     C38335   1.289   4.143   3.089  0.2259  0.0896 -0.2344
  291MOL0     C38336   1.379   4.244   3.037  0.3508 -0.5011  0.0011
  291MOL0     C38337   1.329   4.373   3.009 -0.9394 -0.0011 -0.0227
  291MOL0     O38338   1.403   4.481   2.964 -0.0663  0.2575  0.0499
  291MOL0     C38339   1.543   4.459   2.940 -0.0893  0.0177 -0.7115
  291MOL0     C38340   1.614   4.458   3.078  0.3521  0.2291 -0.4631
  291MOL0     C38341   1.764   4.438   3.049 -0.1319  0.1901  0.2857
  291MOL0     C38342   1.842   4.351   3.153  0.2872 -0.2215  0.0781
  291MOL0     C38343   1.831   4.386   3.289  0.9359 -0.1297  0.1809
  291MOL0     C38344   1.822   4.412   3.413  0.0096 -1.1097  0.4028
  291MOL0     C38345   1.201   4.404   3.049  0.2719  0.0246  0.3545
  291MOL0     C38346   1.116   4.310   3.107  0.7409 -0.2361  0.3516
  291MOL0     H38347   0.757   4.200   3.343  0.3845  0.4371  0.2710
  291MOL0     H38348   0.570   4.082   3.433  0.3804  1.4131 -2.2518
  291MOL0     H38349   0.556   3.615   3.459 -1.6467 -0.6361  1.1560
  291MOL0     H38350   0.519   3.691   3.302  1.2523  0.9767  0.3013
  291MOL0     H38351   0.298   3.751   3.372 -1.1633 -0.5258  0.9142
  291MOL0     H38352   0.324   3.684   3.536  1.5784 -0.1750 -0.2202
  291MOL0     H38353   0.350   3.470   3.428  0.2780  0.3398 -0.5239
  291MOL0     H38354   0.317   3.533   3.273  3.2307 -2.5553  0.6396
  291MOL0     H38355   0.134   3.555   3.518 -2.5081  1.1422 -0.6087
  291MOL0     H38356   0.092   3.636   3.366  0.1079  1.0589  1.6134
  291MOL0     H38357   0.134   3.346   3.374  0.4836  0.0570 -0.6962
  291MOL0     H38358   0.072   3.433   3.229  3.1163  1.7534  1.1535
  291MOL0     H38359  -0.077   3.377   3.491 -2.0375  0.4879 -0.2967
  291MOL0     H38360  -0.112   3.306   3.344  0.1996 -1.0069  0.4814
  291MOL0     H38361  -0.182   3.576   3.439 -1.2878 -1.6790  2.0112
  291MOL0     H38362  -0.139   3.568   3.261  2.0447 -0.2160 -0.3355
  291MOL0     H38363  -0.304   3.396   3.236  0.0729 -1.2389  0.2793
  291MOL0     H38364  -0.372   3.558   3.292  0.3413  0.3148  2.2316
  291MOL0     H38365  -0.322   3.196   3.416 -2.3692 -0.3685 -2.1467
  291MOL0     H38366  -0.448   3.049   3.590 -0.7447 -0.8890  2.4120
  291MOL0     H38367  -0.605   3.089   3.510  0.9506 -0.1283 -1.1410
  291MOL0     H38368  -0.661   3.200   3.734 -0.6230 -1.3562 -2.2839
  291MOL0     H38369  -0.526   3.105   3.798 -0.7212  0.0627  0.2069
  291MOL0     H38370  -0.771   2.979   3.652  0.1740 -1.4777 -0.2346
  291MOL0     H38371  -0.624   2.896   3.703 -0.0450  0.2844  0.8049
  291MOL0     H38372  -0.814   3.036   3.893  0.3099  0.3341 -0.1769
  291MOL0     H38373  -0.677   2.934   3.941  0.4286 -1.0022 -1.4895
  291MOL0     H38374  -0.894   2.957   4.070  2.1967 -1.0863 -1.1640
  291MOL0     H38375  -0.986   2.865   4.284  3.3298 -0.3016  1.1320
  291MOL0     H38376  -1.389   2.653   4.504  1.7551  4.0042  3.5108
  291MOL0     H38377  -1.495   2.528   4.667  0.1231  0.7481 -1.3960
  291MOL0     H38378  -1.252   2.292   4.943 -0.8899  0.2688 -0.1393
  291MOL0     H38379  -1.328   2.193   4.813 -0.1806  2.2281 -2.9389
  291MOL0     H38380  -1.435   2.257   5.082  2.0375  1.0077 -0.7784
  291MOL0     H38381  -1.368   2.098   5.038 -2.1153 -1.6317 -0.5174
  291MOL0     H38382  -1.556   2.053   4.893  0.5098 -0.3038  0.2964
  291MOL0     H38383  -1.626   2.213   4.911  1.4379  3.0259  1.9317
  291MOL0     H38384  -1.573   1.994   5.126 -1.4728 -2.5134 -1.9455
  291MOL0     H38385  -1.623   2.155   5.177  1.7991  0.4918  0.5478
  291MOL0     H38386  -1.807   1.992   5.154 -2.8650  2.7620 -0.2061
  291MOL0     H38387  -1.784   1.985   4.968 -0.3323  1.6065 -1.5586
  291MOL0     H38388  -1.845   2.229   4.955 -4.3138  0.5552 -2.4973
  291MOL0     H38389  -1.873   2.219   5.131  2.5508 -0.7746 -0.8358
  291MOL0     H38390  -2.016   2.051   4.912 -0.2896 -2.7834  1.3603
  291MOL0     H38391  -2.052   2.047   5.080 -1.1674  1.1277 -1.2688
  291MOL0     H38392  -2.212   2.171   4.944 -0.2358 -0.2657  2.1984
  291MOL0     H38393  -2.086   2.298   4.922  0.6165  0.5271  1.3097
  291MOL0     H38394  -1.130   2.349   4.785 -1.5822  0.0055  0.9263
  291MOL0     H38395  -1.017   2.459   4.579  0.7496  1.9256 -1.6371
  291MOL0     H38396  -1.020   2.491   4.053  1.9195 -0.3025 -2.9892
  291MOL0     H38397  -0.934   2.594   3.880  0.4095  0.9594 -0.8905
  291MOL0     H38398   0.749   3.711   3.319  2.5253 -0.1739  1.6091
  291MOL0     H38399   0.927   3.826   3.208 -0.8279 -0.5611 -0.1638
  291MOL0     H38400   1.319   4.041   3.110 -3.2187 -0.4313  3.1196
  291MOL0     H38401   1.483   4.216   3.027 -0.0875 -2.1227 -0.2782
  291MOL0     H38402   1.576   4.541   2.876 -2.2271 -0.5234 -2.6146
  291MOL0     H38403   1.569   4.365   2.892  2.1737  0.2616 -0.0770
  291MOL0     H38404   1.576   4.551   3.121 -1.1578 -0.9243  0.7935
  291MOL0     H38405   1.572   4.375   3.135 -1.1218  0.6926 -0.8457
  291MOL0     H38406   1.807   4.538   3.052  0.3391 -0.0057  0.1640
  291MOL0     H38407   1.786   4.393   2.952 -1.5621 -0.8133  0.3940
  291MOL0     H38408   1.797   4.251   3.149 -0.9514  0.2185  1.8636
  291MOL0     H38409   1.948   4.350   3.123  0.4637  1.1211  0.6059
  291MOL0     H38410   1.816   4.435   3.517  0.9755 -0.1629  0.2637
  291MOL0     H38411   1.170   4.508   3.040  0.0163 -0.1461 -0.8858
  291MOL0     H38412   1.020   4.350   3.140 -0.0217 -2.3187  0.7784
  292MOL0     O38413   6.011   2.698   9.230 -0.0355 -0.2013 -0.0205
  292MOL0     C38414   6.024   2.687   9.106 -0.1618  0.6496 -0.4802
  292MOL0     O38415   5.939   2.600   9.026 -0.9456  0.4226  0.6759
  292MOL0     C38416   5.836   2.526   9.085  0.2507 -0.5066 -0.2214
  292MOL0     C38417   5.858   2.424   9.183 -0.1351 -0.1579  0.0914
  292MOL0     C38418   5.747   2.340   9.221 -0.0025  0.5557  0.2829
  292MOL0     C38419   5.619   2.369   9.191  0.9454 -0.3495 -0.0882
  292MOL0     O38420   5.517   2.293   9.244  0.1056  0.4595 -0.1466
  292MOL0     C38421   5.485   2.190   9.148  0.3187 -0.7897  0.1849
  292MOL0     C38422   5.379   2.083   9.200  0.7830 -0.4239 -0.4188
  292MOL0     C38423   5.247   2.168   9.234 -0.2107  0.3343  0.3314
  292MOL0     C38424   5.123   2.085   9.284  0.0001 -0.3659  0.1374
  292MOL0     C38425   5.077   1.961   9.194  0.1735  0.0759  0.3705
  292MOL0     C38426   4.984   2.019   9.078  0.1336  0.0790  0.8250
  292MOL0     C38427   4.926   1.910   8.988 -0.1142 -0.2165  0.8357
  292MOL0     C38428   5.034   1.814   8.925  0.4829  0.2379 -0.4438
  292MOL0     N38429   5.118   1.892   8.832 -0.0497 -0.5903  0.3931
  292MOL0     C38430   5.244   1.940   8.855 -0.3984  1.0091 -0.4756
  292MOL0     C38431   5.279   2.008   8.746  0.2340 -0.5711  0.3394
  292MOL0     C38432   5.411   2.060   8.721  0.0886  0.1093 -0.3563
  292MOL0     C38433   5.413   2.205   8.750  0.6603 -0.5835 -0.3875
  292MOL0     C38434   5.542   2.268   8.787  0.3852  0.2169  0.1915
  292MOL0     C38435   5.648   2.284   8.676 -0.2220 -0.6754  0.2477
  292MOL0     O38436   5.773   2.335   8.729  0.8720  0.2294  0.5592
  292MOL0     C38437   5.881   2.367   8.648  0.5334 -0.0370  0.4968
  292MOL0     C38438   5.879   2.368   8.508 -1.7917 -1.0680 -0.3926
  292MOL0     C38439   5.986   2.424   8.432 -0.4640 -0.4538 -0.6533
  292MOL0     C38440   6.095   2.481   8.509  0.3234  0.0975 -0.8964
  292MOL0     C38441   6.219   2.544   8.437 -0.4676 -0.2308  0.6922
  292MOL0     O38442   6.201   2.569   8.307  0.1217 -0.4831  0.1452
  292MOL0     C38443   6.312   2.616   8.245 -0.0598 -0.8602  0.1082
  292MOL0     C38444   6.379   2.531   8.157  0.9538 -0.2026 -0.3521
  292MOL0     C38445   6.486   2.572   8.078 -0.1489  0.1866 -0.5255
  292MOL0     C38446   6.541   2.701   8.103  0.3981  1.1725 -0.7558
  292MOL0     O38447   6.657   2.730   8.040 -0.0694 -0.6147 -0.5493
  292MOL0     C38448   6.730   2.851   8.076  1.0151  0.2766  0.1302
  292MOL0     C38449   6.867   2.856   8.002  0.2000 -0.3310  0.3784
  292MOL0     C38450   6.974   2.758   8.043  0.0433 -0.5412 -0.3382
  292MOL0     C38451   7.093   2.806   7.956 -0.2651 -0.5875  0.6782
  292MOL0     C38452   7.228   2.753   8.007 -0.6498  0.0075 -0.7373
  292MOL0     C38453   7.364   2.795   7.936 -0.1324 -0.1628 -0.6879
  292MOL0     C38454   7.481   2.751   8.013 -0.3025 -0.1964 -0.1729
  292MOL0     C38455   7.604   2.777   7.932 -0.3632  0.3655 -0.5606
  292MOL0    Cl38456   7.660   2.945   7.934  0.0763 -0.1434  0.0829
  292MOL0     C38457   6.463   2.786   8.182  0.2886 -0.4684  0.1896
  292MOL0     C38458   6.359   2.743   8.258 -0.4046 -0.4785  0.0935
  292MOL0     O38459   6.331   2.535   8.492 -0.1445 -0.2052 -0.5378
  292MOL0     C38460   6.090   2.481   8.650  0.3166 -0.0769 -0.6738
  292MOL0     C38461   5.981   2.431   8.723 -0.4466 -1.1293  0.1662
  292MOL0     N38462   5.171   2.006   8.655 -0.3055 -0.0112  0.5628
  292MOL0     N38463   5.080   1.938   8.707  0.3110 -0.4419 -0.4343
  292MOL0     C38464   5.596   2.477   9.110 -0.8476  0.5655 -0.1391
  292MOL0     C38465   5.706   2.556   9.059 -0.0738 -0.4393 -0.4716
  292MOL0     C38466   6.128   2.761   9.043  0.3242 -0.0502  0.6874
  292MOL0     C38467   6.179   2.728   8.915  0.3503  0.0487 -0.3076
  292MOL0     C38468   6.300   2.785   8.864  0.3785  0.8050 -0.5324
  292MOL0     C38469   6.365   2.887   8.936  0.2207 -0.2856  0.3759
  292MOL0     O38470   6.491   2.935   8.890  0.0690 -0.0801 -0.1186
  292MOL0     C38471   6.556   3.030   8.969 -0.6036 -0.4419  0.1138
  292MOL0     C38472   6.681   3.079   8.893  0.0955  0.1994 -0.0214
  292MOL0     C38473   6.763   3.191   8.968  0.1672  0.4190 -0.2194
  292MOL0     C38474   6.861   3.264   8.873  0.4553 -0.5525 -0.3812
  292MOL0     C38475   6.959   3.173   8.819 -0.1358 -0.3995 -0.2589
  292MOL0     C38476   7.033   3.091   8.768  0.5125  1.4426  0.8474
  292MOL0     C38477   6.315   2.925   9.064  0.0077  0.5190  0.2541
  292MOL0     C38478   6.199   2.865   9.110 -0.5005  0.1775  0.4752
  292MOL0     H38479   5.956   2.406   9.226 -0.2929 -2.7554 -0.4870
  292MOL0     H38480   5.760   2.259   9.293  1.3388 -0.6464 -1.2425
  292MOL0     H38481   5.571   2.128   9.120  0.4940  0.1567 -1.5335
  292MOL0     H38482   5.439   2.241   9.063  1.5767  0.8795  0.4662
  292MOL0     H38483   5.421   2.032   9.288 -0.3563 -0.8316 -0.1045
  292MOL0     H38484   5.356   2.008   9.124 -0.4075 -0.3434 -0.1591
  292MOL0     H38485   5.211   2.209   9.139 -1.0828 -0.7342  0.1773
  292MOL0     H38486   5.272   2.244   9.309 -0.4795 -1.2884  2.1607
  292MOL0     H38487   5.153   2.042   9.380  0.0729 -1.6352 -0.4260
  292MOL0     H38488   5.036   2.149   9.297 -0.3505 -1.0275  1.1397
  292MOL0     H38489   5.025   1.894   9.264 -0.1049  1.1875  1.2753
  292MOL0     H38490   5.160   1.902   9.157  0.2402 -0.2618  1.0436
  292MOL0     H38491   5.041   2.097   9.027 -0.3593  0.8893  1.4803
  292MOL0     H38492   4.902   2.071   9.129 -1.3011 -0.7857 -0.5263
  292MOL0     H38493   4.858   1.846   9.045  1.9218 -3.9043 -0.5172
  292MOL0     H38494   4.852   1.944   8.915  0.4777 -1.2414 -0.2901
  292MOL0     H38495   4.984   1.731   8.872  2.8835 -0.6055 -1.5462
  292MOL0     H38496   5.088   1.767   9.008 -1.1829 -2.3230 -0.6761
  292MOL0     H38497   5.307   1.933   8.943  0.0897 -0.6492 -0.9373
  292MOL0     H38498   5.442   2.044   8.618  0.5892  0.0245 -0.1964
  292MOL0     H38499   5.486   2.020   8.790 -2.8339 -0.0526  3.0725
  292MOL0     H38500   5.351   2.223   8.839  0.7998  1.0385 -0.5911
  292MOL0     H38501   5.370   2.263   8.668 -1.7331 -2.6784 -0.7352
  292MOL0     H38502   5.508   2.365   8.824  0.0154  0.2961 -0.3514
  292MOL0     H38503   5.592   2.215   8.869 -0.7728 -1.4624 -0.1367
  292MOL0     H38504   5.607   2.351   8.600 -2.2615 -2.5333 -0.3736
  292MOL0     H38505   5.667   2.189   8.625 -1.3074 -0.0671 -1.3846
  292MOL0     H38506   5.791   2.327   8.459 -1.2487 -0.8813 -1.5659
  292MOL0     H38507   5.996   2.431   8.324 -0.3959  0.9054 -0.5766
  292MOL0     H38508   6.343   2.429   8.152  2.0528 -0.5845 -0.6135
  292MOL0     H38509   6.545   2.509   8.012 -0.4862  0.4531 -1.0882
  292MOL0     H38510   6.745   2.850   8.185  2.4631  0.5083 -0.0465
  292MOL0     H38511   6.661   2.934   8.058  0.0671 -0.0539  1.9613
  292MOL0     H38512   6.912   2.956   8.006 -1.9530  0.6999  0.4686
  292MOL0     H38513   6.848   2.841   7.896  1.2654  1.5240 -0.1299
  292MOL0     H38514   6.942   2.654   8.028 -1.3340 -0.2767  0.4991
  292MOL0     H38515   6.992   2.777   8.149  1.6261  1.1637 -0.8609
  292MOL0     H38516   7.071   2.800   7.849  0.3390  0.5891  0.4770
  292MOL0     H38517   7.105   2.912   7.978  0.3286 -0.8373  1.6316
  292MOL0     H38518   7.227   2.645   7.990 -1.6630 -0.0481 -0.4041
  292MOL0     H38519   7.239   2.773   8.114  2.3839 -1.6916 -0.6157
  292MOL0     H38520   7.370   2.904   7.934 -0.2714 -0.1070  0.8892
  292MOL0     H38521   7.346   2.763   7.833  0.1976  1.7172 -1.3732
  292MOL0     H38522   7.489   2.798   8.111 -0.1460 -1.7949  0.6026
  292MOL0     H38523   7.462   2.646   8.034  0.4854 -0.1474  0.8631
  292MOL0     H38524   7.591   2.733   7.833  1.1210 -4.0679  1.0011
  292MOL0     H38525   7.689   2.725   7.976 -1.3367  1.6860  3.2275
  292MOL0     H38526   6.498   2.888   8.196 -2.4258  0.4209  1.3788
  292MOL0     H38527   6.306   2.811   8.324 -0.6413 -0.6300  0.0637
  292MOL0     H38528   6.172   2.523   8.708 -1.4465  1.1572  1.0719
  292MOL0     H38529   5.980   2.437   8.831 -0.9797  1.5207  0.0859
  292MOL0     H38530   5.495   2.513   9.093 -0.4949  1.5242 -0.2988
  292MOL0     H38531   5.693   2.626   8.976  2.0806 -1.4644 -1.7667
  292MOL0     H38532   6.120   2.655   8.862  1.5479 -1.3966  0.2874
  292MOL0     H38533   6.332   2.753   8.765  0.8104  0.1037 -0.1782
  292MOL0     H38534   6.595   2.981   9.059 -2.0574 -0.8580  0.5520
  292MOL0     H38535   6.487   3.109   9.000 -0.6631 -0.6427  0.5101
  292MOL0     H38536   6.745   2.996   8.860  1.7130  1.6793 -0.7819
  292MOL0     H38537   6.650   3.123   8.798  1.1748 -3.1740 -2.1272
  292MOL0     H38538   6.819   3.131   9.041  1.1837  0.5586 -0.8542
  292MOL0     H38539   6.706   3.271   9.015 -1.4682  0.5533 -2.2844
  292MOL0     H38540   6.808   3.317   8.794  1.4069  4.6592  2.0312
  292MOL0     H38541   6.917   3.333   8.938  0.7830 -0.0145 -1.2111
  292MOL0     H38542   7.096   3.016   8.727 -0.7255  1.5217 -1.3375
  292MOL0     H38543   6.363   2.999   9.127 -0.7154  0.0989  1.3276
  292MOL0     H38544   6.157   2.903   9.202 -0.5491 -0.0947  0.5671
  293MOL0     O38545   5.633   6.558   7.247 -0.0064 -0.6078 -1.0338
  293MOL0     C38546   5.697   6.626   7.325 -0.3428 -0.4764 -0.3708
  293MOL0     O38547   5.638   6.692   7.430 -0.1304  0.2510 -0.1388
  293MOL0     C38548   5.502   6.696   7.450 -0.0357 -0.3513  0.0089
  293MOL0     C38549   5.450   6.632   7.565  0.2509  0.3065 -0.9603
  293MOL0     C38550   5.312   6.633   7.594  0.5435 -0.8347 -0.2801
  293MOL0     C38551   5.227   6.712   7.515  0.0023  0.2095 -0.1291
  293MOL0     O38552   5.084   6.711   7.520 -0.0057  0.0456  0.4154
  293MOL0     C38553   5.014   6.782   7.421 -0.0169  0.4062 -0.1896
  293MOL0     C38554   4.862   6.780   7.451 -0.2639  1.0504  0.5650
  293MOL0     C38555   4.809   6.630   7.470 -0.7372 -1.4259  0.0090
  293MOL0     C38556   4.661   6.637   7.438  0.2889 -0.6958  0.3462
  293MOL0     C38557   4.583   6.502   7.445 -0.1404  0.6467  0.1834
  293MOL0     C38558   4.434   6.526   7.411  0.3175 -0.0594  0.7741
  293MOL0     C38559   4.333   6.411   7.434 -0.2452  0.2325  0.6292
  293MOL0     C38560   4.192   6.469   7.418  0.0372  0.4434 -0.6139
  293MOL0     N38561   4.151   6.533   7.547 -0.3543 -0.1460 -0.4510
  293MOL0     C38562   4.112   6.463   7.656  0.2788 -0.6857  0.1897
  293MOL0     C38563   4.087   6.557   7.750 -0.5085 -0.2152 -0.7194
  293MOL0     C38564   4.033   6.520   7.880  0.3942 -0.5062 -0.5733
  293MOL0     C38565   3.874   6.513   7.875 -1.0372  0.4654 -0.2415
  293MOL0     C38566   3.808   6.489   8.012  0.0114 -0.3911  0.3540
  293MOL0     C38567   3.650   6.489   7.995  0.1418  0.9083  0.7191
  293MOL0     O38568   3.590   6.454   8.121 -0.7259  0.0594 -0.3806
  293MOL0     C38569   3.449   6.460   8.142 -0.0638 -0.4816 -0.2555
  293MOL0     C38570   3.353   6.486   8.044 -0.1077  0.2071  0.2241
  293MOL0     C38571   3.218   6.477   8.068 -0.1382  0.4634 -0.5043
  293MOL0     C38572   3.173   6.452   8.204 -0.6234  0.1510  0.4611
  293MOL0     C38573   3.031   6.430   8.240 -0.3142 -0.4111  0.6895
  293MOL0     O38574   2.982   6.500   8.345  0.0891 -0.4413  0.3849
  293MOL0     C38575   2.849   6.480   8.373  0.2467 -0.8321 -1.1871
  293MOL0     C38576   2.811   6.355   8.427  0.2513 -0.8305 -0.3035
  293MOL0     C38577   2.680   6.323   8.458  0.3794  0.1234  1.6619
  293MOL0     C38578   2.581   6.418   8.423  0.6881 -0.3631  0.4567
  293MOL0     O38579   2.441   6.393   8.436  0.2768  0.0397 -0.2513
  293MOL0     C38580   2.400   6.262   8.460  0.2024 -0.4120 -0.4027
  293MOL0     C38581   2.252   6.248   8.422 -0.2867 -0.9379 -0.2340
  293MOL0     C38582   2.208   6.108   8.448 -0.6377 -0.3432 -0.3142
  293MOL0     C38583   2.062   6.113   8.449 -0.0789 -0.4496  0.3588
  293MOL0     C38584   1.991   5.979   8.468 -0.7506  0.2725  0.2191
  293MOL0     C38585   1.843   5.998   8.508  0.1778  0.0906  0.1528
  293MOL0     C38586   1.760   6.059   8.391  0.7066 -0.3817  0.2788
  293MOL0     C38587   1.748   5.962   8.275  0.5074  0.0176 -0.5681
  293MOL0    Cl38588   1.629   6.000   8.148  0.1700  0.0677 -0.3418
  293MOL0     C38589   2.613   6.545   8.382 -0.2752  0.2326 -0.5073
  293MOL0     C38590   2.746   6.580   8.355  0.5509 -0.1236 -0.2430
  293MOL0     O38591   2.969   6.361   8.169  1.0683  0.5177 -0.2901
  293MOL0     C38592   3.268   6.440   8.307 -0.0167 -0.5338  0.0138
  293MOL0     C38593   3.404   6.444   8.280  0.9677  0.1533 -0.4397
  293MOL0     N38594   4.114   6.679   7.704 -0.6395  0.1641 -0.3674
  293MOL0     N38595   4.151   6.665   7.581  0.3067  0.0170 -0.5602
  293MOL0     C38596   5.281   6.773   7.394  0.2109 -0.4011  0.2598
  293MOL0     C38597   5.419   6.766   7.363  0.7595  0.0046 -0.2789
  293MOL0     C38598   5.845   6.643   7.306  0.4320  0.8316 -0.4199
  293MOL0     C38599   5.919   6.731   7.381  0.0726  0.2874  0.3574
  293MOL0     C38600   6.051   6.740   7.358 -0.3410 -0.1423  0.4796
  293MOL0     C38601   6.117   6.654   7.264 -0.8769 -0.5178 -0.6274
  293MOL0     O38602   6.251   6.674   7.244  0.1427  0.0341  0.6540
  293MOL0     C38603   6.331   6.575   7.186 -0.5135 -0.5252 -0.0606
  293MOL0     C38604   6.470   6.561   7.245  0.4078  0.0601 -0.4083
  293MOL0     C38605   6.567   6.678   7.234 -0.1840 -0.0835 -0.1831
  293MOL0     C38606   6.671   6.652   7.129  0.3753 -0.1972 -0.2814
  293MOL0     C38607   6.766   6.755   7.150 -0.1105 -0.7931  0.5333
  293MOL0     C38608   6.845   6.849   7.164  0.0103 -0.0192 -0.3472
  293MOL0     C38609   6.042   6.576   7.179  0.4158 -0.2564  0.5201
  293MOL0     C38610   5.905   6.561   7.204 -0.2194  0.5771  0.2839
  293MOL0     H38611   5.518   6.582   7.633  0.8107  1.1546 -0.8809
  293MOL0     H38612   5.266   6.582   7.679 -1.8607  0.4188 -0.7490
  293MOL0     H38613   5.027   6.737   7.322 -3.1231  0.2024 -0.6236
  293MOL0     H38614   5.047   6.886   7.419  0.4956  0.2405 -1.4376
  293MOL0     H38615   4.810   6.832   7.370 -0.2376 -1.6048 -1.2896
  293MOL0     H38616   4.839   6.831   7.545 -1.1019 -1.4755  1.8164
  293MOL0     H38617   4.828   6.596   7.572 -0.7198  1.4796  1.0908
  293MOL0     H38618   4.850   6.566   7.392 -1.4492  0.1155 -1.6967
  293MOL0     H38619   4.615   6.708   7.508  1.0759  2.4305 -2.0363
  293MOL0     H38620   4.650   6.687   7.341  1.2851  1.6832  1.3652
  293MOL0     H38621   4.600   6.453   7.541  1.2886  0.6363 -0.0615
  293MOL0     H38622   4.627   6.431   7.375 -0.1672 -0.7759  1.5476
  293MOL0     H38623   4.426   6.567   7.310 -1.8201 -0.7737  0.5967
  293MOL0     H38624   4.404   6.613   7.469  1.8703  0.0710  1.4475
  293MOL0     H38625   4.345   6.338   7.354  1.2016  0.8992  0.1963
  293MOL0     H38626   4.358   6.364   7.530 -0.6912 -0.1682  0.5529
  293MOL0     H38627   4.127   6.382   7.399 -0.5107  0.6997  0.0583
  293MOL0     H38628   4.202   6.534   7.330  1.6176  0.5263 -0.3929
  293MOL0     H38629   4.097   6.357   7.670 -3.7434 -0.2834  0.0753
  293MOL0     H38630   4.071   6.582   7.962  0.6636 -2.5368  0.9447
  293MOL0     H38631   4.075   6.420   7.898  1.6318  0.1696  0.4700
  293MOL0     H38632   3.860   6.433   7.801  1.7465 -1.8459  1.5080
  293MOL0     H38633   3.840   6.611   7.842  0.9734  2.1688  2.3417
  293MOL0     H38634   3.836   6.396   8.064 -0.0919 -0.5970  0.0461
  293MOL0     H38635   3.832   6.575   8.075 -2.4973  2.0425 -1.7819
  293MOL0     H38636   3.616   6.420   7.918  0.7977  3.2997 -1.8479
  293MOL0     H38637   3.603   6.584   7.969 -0.2495  1.3447  2.8407
  293MOL0     H38638   3.371   6.484   7.937 -3.1689  0.3649 -0.3876
  293MOL0     H38639   3.142   6.501   7.995 -0.1316 -1.4318 -1.1868
  293MOL0     H38640   2.887   6.279   8.439  0.1250 -1.1682 -1.5057
  293MOL0     H38641   2.651   6.221   8.477  0.1667 -0.4813 -1.3199
  293MOL0     H38642   2.413   6.239   8.566 -3.0165  0.4356  0.3041
  293MOL0     H38643   2.453   6.184   8.406  0.8146 -2.5082  2.9350
  293MOL0     H38644   2.244   6.254   8.313  2.1872 -0.5211 -0.4655
  293MOL0     H38645   2.198   6.324   8.479 -0.0937 -1.2457  0.3693
  293MOL0     H38646   2.250   6.072   8.543 -1.0853  0.3562  0.1630
  293MOL0     H38647   2.250   6.044   8.371 -0.0140 -1.1488  0.6772
  293MOL0     H38648   2.040   6.169   8.541  1.2504 -1.6701  1.4882
  293MOL0     H38649   2.012   6.164   8.367 -1.9164  0.7692  2.1319
  293MOL0     H38650   2.044   5.927   8.548  2.0912 -0.0539 -1.7187
  293MOL0     H38651   2.005   5.918   8.378  4.8540 -1.3648  1.8331
  293MOL0     H38652   1.842   6.071   8.590 -1.1875  2.0140 -1.4547
  293MOL0     H38653   1.803   5.903   8.542 -2.3911  1.0698  0.0666
  293MOL0     H38654   1.666   6.094   8.434  0.5888  0.1192 -0.3728
  293MOL0     H38655   1.806   6.146   8.344  2.1730 -1.6386 -0.7206
  293MOL0     H38656   1.716   5.865   8.314 -1.6390  0.0826 -1.9629
  293MOL0     H38657   1.844   5.952   8.223  0.7681 -0.3527 -0.0352
  293MOL0     H38658   2.534   6.618   8.367  3.2314  3.8711 -3.6581
  293MOL0     H38659   2.774   6.683   8.334  0.4683 -0.1302 -0.3861
  293MOL0     H38660   3.229   6.413   8.405  0.9612 -2.4733 -0.0944
  293MOL0     H38661   3.477   6.427   8.359  1.0287 -4.2074 -1.1633
  293MOL0     H38662   5.220   6.810   7.312  0.6874 -0.9385 -0.3497
  293MOL0     H38663   5.445   6.818   7.272 -0.8656  0.4509 -0.5214
  293MOL0     H38664   5.878   6.772   7.473 -1.2364 -2.1204  0.9393
  293MOL0     H38665   6.113   6.803   7.421  1.7686 -1.0608 -0.5457
  293MOL0     H38666   6.340   6.589   7.078 -2.8374 -0.8691 -0.3446
  293MOL0     H38667   6.285   6.477   7.194 -0.7228 -0.6314 -2.0951
  293MOL0     H38668   6.458   6.529   7.349  1.8302 -1.5823 -0.6983
  293MOL0     H38669   6.503   6.468   7.197 -1.2516 -0.7632 -0.0525
  293MOL0     H38670   6.607   6.689   7.335 -0.4575 -1.0078  0.0372
  293MOL0     H38671   6.507   6.766   7.207 -0.5433  0.1793  1.3532
  293MOL0     H38672   6.711   6.551   7.141  0.6742 -0.1236 -0.6367
  293MOL0     H38673   6.634   6.665   7.027  0.9079 -0.8387 -0.5652
  293MOL0     H38674   6.925   6.920   7.174 -1.6428  2.0601 -1.0932
  293MOL0     H38675   6.076   6.519   7.093 -1.9248 -0.7494 -0.1664
  293MOL0     H38676   5.850   6.491   7.141  1.1287 -0.4916  0.2485
  294MOL0     O38677   2.829   9.556   7.470 -0.0839  0.3399 -0.0647
  294MOL0     C38678   2.908   9.610   7.541  0.2254  0.6872  0.4513
  294MOL0     O38679   2.887   9.685   7.652  0.0820  0.2334 -0.2183
  294MOL0     C38680   2.760   9.719   7.698  0.0396  0.2034  1.8374
  294MOL0     C38681   2.647   9.631   7.697 -0.5428  0.4715  0.3572
  294MOL0     C38682   2.526   9.687   7.739  0.4980 -0.3064  0.1098
  294MOL0     C38683   2.512   9.823   7.778 -0.0324  0.3215 -0.0659
  294MOL0     O38684   2.385   9.869   7.813 -0.2744  0.2485 -0.4013
  294MOL0     C38685   2.364  10.010   7.822  0.3653 -0.8812 -0.1712
  294MOL0     C38686   2.220  10.045   7.819  0.0551  1.0127 -0.4902
  294MOL0     C38687   2.121   9.957   7.890 -0.2654 -0.3233  0.7948
  294MOL0     C38688   1.977  10.008   7.877 -0.5173 -0.6378  0.0057
  294MOL0     C38689   1.886   9.921   7.962  0.6772  1.1293  1.0669
  294MOL0     C38690   1.739   9.954   7.938 -0.6662 -0.4630  0.3541
  294MOL0     C38691   1.643   9.845   7.996 -0.7943 -0.7104 -0.4374
  294MOL0     C38692   1.666   9.813   8.147  0.2255  0.3697 -0.6363
  294MOL0     N38693   1.669   9.934   8.222 -0.0579 -0.5844 -0.7139
  294MOL0     C38694   1.787   9.975   8.283 -0.9669 -0.0336 -0.2224
  294MOL0     C38695   1.757  10.107   8.319  0.2032  0.8871  0.1460
  294MOL0     C38696   1.851  10.203   8.379  0.8721 -0.2933  0.2643
  294MOL0     C38697   1.816  10.354   8.345  0.0516 -0.1167  0.1625
  294MOL0     C38698   1.888  10.455   8.436  0.1969 -0.4823 -0.4117
  294MOL0     C38699   1.848  10.601   8.423  0.2506 -0.1551  0.3175
  294MOL0     O38700   1.905  10.682   8.531  0.8739 -0.0232 -0.6256
  294MOL0     C38701   2.042  10.698   8.522  0.3046  0.5397 -1.2002
  294MOL0     C38702   2.108  10.775   8.421 -0.7147 -0.3791  1.2366
  294MOL0     C38703   2.246  10.784   8.421 -0.1259 -0.6543  0.0733
  294MOL0     C38704   2.328  10.718   8.510  0.0104 -0.5202  0.0415
  294MOL0     C38705   2.475  10.725   8.504  0.3149  0.0411 -0.6381
  294MOL0     O38706   2.542  10.597   8.508  0.1753  0.2398  0.3351
  294MOL0     C38707   2.674  10.606   8.510  0.3957 -0.5746 -0.2140
  294MOL0     C38708   2.746  10.662   8.410  1.2435 -0.8959  0.4253
  294MOL0     C38709   2.884  10.665   8.404 -0.9014 -0.2668 -0.4287
  294MOL0     C38710   2.964  10.602   8.505  0.9870 -0.4340  0.6520
  294MOL0     O38711   3.094  10.587   8.510 -0.7406  0.3886  0.3371
  294MOL0     C38712   3.172  10.647   8.397 -0.4518  0.6795 -0.3363
  294MOL0     C38713   3.321  10.638   8.433 -0.8926  0.8360  0.2984
  294MOL0     C38714   3.368  10.731   8.542 -0.3582  0.3674  0.1324
  294MOL0     C38715   3.525  10.726   8.536  0.6149 -0.2429  0.1830
  294MOL0     C38716   3.579  10.798   8.659  0.3554 -0.2051 -0.2559
  294MOL0     C38717   3.722  10.842   8.629 -0.1082  0.1938 -0.4671
  294MOL0     C38718   3.822  10.732   8.593 -0.4296 -0.4458 -0.2951
  294MOL0     C38719   3.964  10.801   8.584 -0.5785  0.4096  0.7490
  294MOL0    Cl38720   4.019  10.844   8.751  0.2595 -0.3689  0.0137
  294MOL0     C38721   2.895  10.541   8.614  0.9212  0.2968  0.4517
  294MOL0     C38722   2.751  10.549   8.616 -0.5696  0.8155  0.1396
  294MOL0     O38723   2.533  10.831   8.494 -0.1183 -0.2238 -0.8304
  294MOL0     C38724   2.260  10.629   8.600  0.1711 -0.0614  0.6573
  294MOL0     C38725   2.120  10.623   8.608  0.1075 -0.5287  0.0567
  294MOL0     N38726   1.632  10.141   8.286 -0.2640 -0.3757 -0.1753
  294MOL0     N38727   1.578  10.038   8.231 -0.2066  0.0876  0.7279
  294MOL0     C38728   2.623   9.908   7.769 -0.3317 -0.3070  0.0386
  294MOL0     C38729   2.746   9.851   7.732 -1.0109 -0.4947  0.2500
  294MOL0     C38730   3.046   9.575   7.515 -0.7537  0.5138  0.3453
  294MOL0     C38731   3.082   9.465   7.431  0.0664  0.5794 -0.0611
  294MOL0     C38732   3.217   9.431   7.412 -0.6665 -0.4351  0.4552
  294MOL0     C38733   3.320   9.505   7.468 -0.0774 -0.0854 -0.1898
  294MOL0     O38734   3.447   9.460   7.444 -0.2446  0.1944  0.4862
  294MOL0     C38735   3.564   9.520   7.504 -0.0074  0.2553  0.6788
  294MOL0     C38736   3.702   9.476   7.457 -0.1545 -0.3065 -0.1651
  294MOL0     C38737   3.708   9.393   7.322  0.8360 -0.9882 -0.5291
  294MOL0     C38738   3.856   9.394   7.282 -0.5691 -0.6108 -0.5177
  294MOL0     C38739   3.951   9.339   7.381 -0.5357  0.4555  0.7656
  294MOL0     C38740   4.031   9.305   7.468  0.0758  1.4026 -0.1773
  294MOL0     C38741   3.289   9.612   7.550 -0.1941  0.0754 -0.2883
  294MOL0     C38742   3.151   9.643   7.576 -0.6177  0.3734  0.2614
  294MOL0     H38743   2.650   9.531   7.655  0.7800  1.0440 -0.9935
  294MOL0     H38744   2.434   9.628   7.740 -1.6239  2.7473 -0.3712
  294MOL0     H38745   2.404  10.054   7.730 -0.7830  0.2866 -0.1353
  294MOL0     H38746   2.404  10.053   7.914  0.9226  0.8157 -1.1653
  294MOL0     H38747   2.193  10.059   7.713  1.6776 -0.1954 -1.0920
  294MOL0     H38748   2.215  10.144   7.866  0.3581  1.2388 -0.9247
  294MOL0     H38749   2.152   9.961   7.994  0.3291 -0.3864  0.6244
  294MOL0     H38750   2.121   9.851   7.861 -0.1640 -1.1531  3.6045
  294MOL0     H38751   1.974  10.112   7.912  2.1232  0.2267 -1.9617
  294MOL0     H38752   1.955  10.012   7.770  1.1702 -1.0308 -0.3958
  294MOL0     H38753   1.910   9.933   8.068 -0.8339 -1.1878  1.7709
  294MOL0     H38754   1.901   9.816   7.934  0.4504  0.7903  2.1552
  294MOL0     H38755   1.711   9.958   7.832  1.6530  1.0335 -0.2766
  294MOL0     H38756   1.718  10.050   7.987 -0.1745 -1.4961  2.7062
  294MOL0     H38757   1.540   9.876   7.978 -1.9244 -3.3929  0.8460
  294MOL0     H38758   1.660   9.753   7.940 -1.3994 -0.5713 -0.8638
  294MOL0     H38759   1.763   9.761   8.155  1.3307  1.8781 -2.9968
  294MOL0     H38760   1.591   9.748   8.192  1.5991 -1.8508 -1.3494
  294MOL0     H38761   1.878   9.916   8.293 -1.6878 -1.7109 -2.5978
  294MOL0     H38762   1.952  10.184   8.342  0.6365  3.4608 -2.9564
  294MOL0     H38763   1.831  10.180   8.484 -0.3289  0.3225  0.1904
  294MOL0     H38764   1.708  10.359   8.363 -0.6187 -1.1521 -2.9708
  294MOL0     H38765   1.847  10.379   8.244  0.0538 -0.3053  0.1160
  294MOL0     H38766   1.866  10.429   8.540  0.9207  0.5128  0.0026
  294MOL0     H38767   1.994  10.431   8.437  0.1423 -0.8764  2.1633
  294MOL0     H38768   1.740  10.617   8.422 -0.0384 -1.8034  0.8666
  294MOL0     H38769   1.886  10.645   8.331 -1.0201 -2.3603 -1.3617
  294MOL0     H38770   2.055  10.822   8.338  3.2871  1.4672 -0.5279
  294MOL0     H38771   2.294  10.851   8.350  0.4601  0.2583  1.2979
  294MOL0     H38772   2.692  10.716   8.333  3.2063 -0.5458 -0.7864
  294MOL0     H38773   2.931  10.711   8.318  1.5991  0.7433  1.3675
  294MOL0     H38774   3.138  10.750   8.386 -0.1469  0.9130  0.8671
  294MOL0     H38775   3.148  10.595   8.303  1.1157  1.7020 -1.3491
  294MOL0     H38776   3.375  10.666   8.342 -1.2230  1.5409  0.3096
  294MOL0     H38777   3.347  10.533   8.451  0.4902  1.0415 -0.4130
  294MOL0     H38778   3.330  10.705   8.641  1.0496  0.9882  0.8700
  294MOL0     H38779   3.328  10.829   8.517  1.7202  1.4295  0.7476
  294MOL0     H38780   3.563  10.624   8.545  3.0457  0.7802  3.0154
  294MOL0     H38781   3.562  10.775   8.445 -0.9056  0.4442 -0.1011
  294MOL0     H38782   3.574  10.737   8.750  0.8079 -1.0199 -0.7661
  294MOL0     H38783   3.532  10.894   8.680  2.6016  0.6081  1.4924
  294MOL0     H38784   3.741  10.882   8.729 -2.5066  2.8845 -0.9580
  294MOL0     H38785   3.725  10.922   8.555  0.0348 -0.5242 -1.2488
  294MOL0     H38786   3.820  10.648   8.663  2.7251 -0.7848 -0.4547
  294MOL0     H38787   3.807  10.694   8.492  0.8708  0.8849 -1.0296
  294MOL0     H38788   3.946  10.889   8.522 -4.0128  0.7305  1.9757
  294MOL0     H38789   4.029  10.726   8.539  0.4472  1.0300  1.1713
  294MOL0     H38790   2.952  10.478   8.680  0.5048 -2.0063 -1.2730
  294MOL0     H38791   2.698  10.501   8.697  0.9214 -0.8118  0.1930
  294MOL0     H38792   2.317  10.564   8.665 -2.3216 -4.8251 -1.4233
  294MOL0     H38793   2.063  10.546   8.660 -0.3663 -2.7087 -3.3119
  294MOL0     H38794   2.613  10.011   7.802 -0.8585 -0.5577  0.7012
  294MOL0     H38795   2.827   9.922   7.723 -1.1493 -0.5689 -2.6795
  294MOL0     H38796   3.008   9.395   7.394  0.9478 -0.4652  0.1211
  294MOL0     H38797   3.247   9.354   7.342 -2.0506  1.5879 -2.6347
  294MOL0     H38798   3.558   9.506   7.612  2.2008 -2.7071  0.5594
  294MOL0     H38799   3.549   9.625   7.475 -1.7336  0.2650  1.4911
  294MOL0     H38800   3.767   9.563   7.466 -0.3134 -0.1686 -0.3312
  294MOL0     H38801   3.754   9.407   7.524  2.2580  0.0487 -1.5724
  294MOL0     H38802   3.648   9.444   7.247  1.2191  1.1497  0.5369
  294MOL0     H38803   3.672   9.293   7.349 -1.2642  0.1284  1.1069
  294MOL0     H38804   3.858   9.324   7.198  0.0655 -0.6153 -0.5036
  294MOL0     H38805   3.885   9.494   7.249  0.6099 -1.0713 -0.9313
  294MOL0     H38806   4.080   9.261   7.553 -2.2392  0.1666  0.6161
  294MOL0     H38807   3.373   9.677   7.573 -0.7211  0.3842  0.8431
  294MOL0     H38808   3.127   9.722   7.647 -1.7527 -0.0953  0.4046
  295MOL0     O38809   0.099   9.869   8.373 -0.0369 -0.1991  0.1447
  295MOL0     C38810   0.135   9.759   8.395 -0.1935 -0.3474  0.6746
  295MOL0     O38811   0.060   9.651   8.411  0.3525  0.1624  0.1729
  295MOL0     C38812  -0.067   9.641   8.446 -0.7907 -0.7523 -0.3663
  295MOL0     C38813  -0.148   9.750   8.478  1.0154 -0.3182 -0.5050
  295MOL0     C38814  -0.277   9.731   8.510 -0.6247  0.3623 -0.2436
  295MOL0     C38815  -0.335   9.607   8.504  0.1892  0.5697 -0.4972
  295MOL0     O38816  -0.468   9.603   8.528 -0.1255 -0.7700  0.0267
  295MOL0     C38817  -0.521   9.489   8.585  0.3643  0.0548  0.3616
  295MOL0     C38818  -0.670   9.522   8.616 -0.5668 -0.0601  0.4475
  295MOL0     C38819  -0.677   9.624   8.729 -0.1206  0.1090  0.1546
  295MOL0     C38820  -0.816   9.634   8.780  0.2112  0.0130 -0.9154
  295MOL0     C38821  -0.821   9.734   8.896 -0.6276 -0.7577 -0.1780
  295MOL0     C38822  -0.957   9.777   8.952  0.3909  0.7311 -1.3958
  295MOL0     C38823  -1.043   9.865   8.860 -0.6213 -0.5193  0.0996
  295MOL0     C38824  -1.186   9.899   8.912 -0.0597  0.0490  0.7556
  295MOL0     N38825  -1.183   9.995   9.021  0.4897  0.5470  0.1921
  295MOL0     C38826  -1.144   9.971   9.153  0.3309 -0.2512 -0.5092
  295MOL0     C38827  -1.163  10.097   9.217  0.2979  0.1730 -0.0219
  295MOL0     C38828  -1.126  10.139   9.352 -0.3987 -0.1185  0.6891
  295MOL0     C38829  -0.978  10.144   9.390 -0.0976  0.2672 -0.2677
  295MOL0     C38830  -0.898  10.216   9.280 -0.2921  0.9278  0.1868
  295MOL0     C38831  -0.756  10.234   9.331 -0.0105 -0.4970  0.8772
  295MOL0     O38832  -0.699  10.340   9.249 -0.3662 -0.3046 -0.8398
  295MOL0     C38833  -0.574  10.385   9.281  0.4275 -0.1435 -0.0280
  295MOL0     C38834  -0.478  10.302   9.335  0.1688 -0.2387 -0.6304
  295MOL0     C38835  -0.343  10.349   9.348  0.3279 -0.1941 -0.1308
  295MOL0     C38836  -0.313  10.479   9.306 -0.1615 -0.5875  0.1218
  295MOL0     C38837  -0.167  10.529   9.289  0.4996  1.0987 -0.4692
  295MOL0     O38838  -0.146  10.610   9.178 -0.1091 -0.2314  0.3782
  295MOL0     C38839  -0.017  10.651   9.165 -1.7472 -0.0511  0.5749
  295MOL0     C38840   0.084  10.567   9.097  0.3677  0.2845  0.3721
  295MOL0     C38841   0.208  10.616   9.067 -0.0967  0.4306  0.1528
  295MOL0     C38842   0.247  10.744   9.130  0.4327  0.3042  0.2015
  295MOL0     O38843   0.369  10.807   9.121  0.7532  0.2333 -0.4740
  295MOL0     C38844   0.463  10.754   9.027  0.0164  0.0901 -0.2199
  295MOL0     C38845   0.589  10.843   9.000 -0.0567 -0.2349  0.2782
  295MOL0     C38846   0.562  10.999   8.974  1.7321  0.1636  0.4479
  295MOL0     C38847   0.453  11.026   8.876  0.0014 -0.3592 -0.2134
  295MOL0     C38848   0.448  11.166   8.823  0.5830 -0.8860  0.2126
  295MOL0     C38849   0.323  11.187   8.740 -0.0728  0.3435 -0.0110
  295MOL0     C38850   0.309  11.338   8.702 -0.0091 -0.4882 -0.1253
  295MOL0     C38851   0.206  11.369   8.596  0.2889 -0.1193  0.0388
  295MOL0    Cl38852   0.061  11.292   8.661  0.1054  0.3229 -0.4169
  295MOL0     C38853   0.155  10.815   9.210 -0.3817 -0.5987  0.7859
  295MOL0     C38854   0.028  10.768   9.226 -0.7362 -0.7686 -0.0885
  295MOL0     O38855  -0.081  10.474   9.363  1.0632 -0.3312 -0.7538
  295MOL0     C38856  -0.412  10.566   9.267 -1.1632  0.1925 -0.5031
  295MOL0     C38857  -0.542  10.519   9.251  0.5684  0.0882  0.2355
  295MOL0     N38858  -1.209  10.194   9.127  0.5253 -0.1505 -0.5159
  295MOL0     N38859  -1.227  10.124   9.018 -0.7585  0.1455  0.0089
  295MOL0     C38860  -0.263   9.501   8.465  0.6353 -0.0440 -0.5549
  295MOL0     C38861  -0.128   9.514   8.427 -0.0272 -0.4934 -0.1340
  295MOL0     C38862   0.277   9.745   8.393  0.1756  0.4663 -0.4852
  295MOL0     C38863   0.359   9.853   8.421 -0.6042  0.9370 -1.0012
  295MOL0     C38864   0.499   9.834   8.420  0.5912  0.3755  0.1395
  295MOL0     C38865   0.554   9.702   8.405  0.0099  0.4479 -0.5903
  295MOL0     O38866   0.687   9.677   8.431  0.2085  0.1220 -0.2287
  295MOL0     C38867   0.769   9.619   8.322  0.4754  0.2327  0.5904
  295MOL0     C38868   0.911   9.645   8.360  0.0317  0.4461 -0.3745
  295MOL0     C38869   0.937   9.796   8.366 -0.0756 -0.3524  1.4948
  295MOL0     C38870   1.069   9.818   8.423 -0.3429 -0.0225 -0.5938
  295MOL0     C38871   1.187   9.757   8.355 -0.7390 -0.2496  0.8596
  295MOL0     C38872   1.281   9.710   8.284 -0.5611 -0.4880 -0.3627
  295MOL0     C38873   0.470   9.597   8.369 -0.0599 -0.2818  0.3371
  295MOL0     C38874   0.333   9.617   8.359  0.4919  0.5873 -0.5375
  295MOL0     H38875  -0.116   9.853   8.468 -0.8521  0.3219 -0.2526
  295MOL0     H38876  -0.342   9.815   8.533 -2.3072 -0.9941  0.1528
  295MOL0     H38877  -0.460   9.462   8.672  2.5073  1.4443 -0.6121
  295MOL0     H38878  -0.529   9.404   8.516 -1.6475  1.0036 -0.6632
  295MOL0     H38879  -0.722   9.429   8.640 -2.3937  0.7898 -0.0524
  295MOL0     H38880  -0.709   9.563   8.523 -3.1515 -1.1473  0.9831
  295MOL0     H38881  -0.640   9.724   8.703  4.0439 -0.7994  1.7992
  295MOL0     H38882  -0.606   9.591   8.805 -1.0413 -0.3634  0.8216
  295MOL0     H38883  -0.891   9.665   8.706  0.4815 -0.6733 -1.4903
  295MOL0     H38884  -0.847   9.536   8.817 -1.4356  0.9055  0.2152
  295MOL0     H38885  -0.766   9.820   8.855  0.3025 -0.5736  1.3687
  295MOL0     H38886  -0.760   9.689   8.975  2.0785 -0.5626 -2.0200
  295MOL0     H38887  -0.949   9.818   9.053  0.7780  2.2003 -1.9936
  295MOL0     H38888  -1.003   9.679   8.970  0.7956  0.4890 -1.6641
  295MOL0     H38889  -0.991   9.960   8.844 -0.8788 -0.2442  0.8249
  295MOL0     H38890  -1.055   9.809   8.767 -3.1324  0.3414 -0.1738
  295MOL0     H38891  -1.233   9.807   8.950 -1.3255 -0.3044 -1.4712
  295MOL0     H38892  -1.242   9.929   8.823 -0.1057 -1.7753  0.1268
  295MOL0     H38893  -1.115   9.880   9.204 -1.3610 -1.2103 -1.1728
  295MOL0     H38894  -1.176  10.068   9.419 -1.2238 -1.3706 -1.1557
  295MOL0     H38895  -1.158  10.241   9.377  0.4243 -0.4347  3.3911
  295MOL0     H38896  -0.926  10.049   9.403  2.1574  1.7337  2.6832
  295MOL0     H38897  -0.966  10.198   9.484  0.8445 -0.3974  0.0112
  295MOL0     H38898  -0.901  10.164   9.184  0.0838  0.6353  0.3280
  295MOL0     H38899  -0.950  10.311   9.265 -2.4524 -0.6480 -3.7262
  295MOL0     H38900  -0.704  10.140   9.310 -0.4799 -0.4756 -0.4824
  295MOL0     H38901  -0.760  10.263   9.437  0.1208 -2.0148  1.3223
  295MOL0     H38902  -0.503  10.201   9.366 -3.2929 -0.1514 -2.5273
  295MOL0     H38903  -0.265  10.277   9.368 -1.6595 -2.9205 -1.4727
  295MOL0     H38904   0.051  10.474   9.053  1.6635 -0.0384  0.0459
  295MOL0     H38905   0.279  10.562   9.005 -0.0964  0.2347  0.3236
  295MOL0     H38906   0.406  10.760   8.933  1.4403  1.0083 -1.0575
  295MOL0     H38907   0.485  10.649   9.049 -1.9324 -0.1565  0.7686
  295MOL0     H38908   0.637  10.802   8.910  0.3854  0.0602  0.3809
  295MOL0     H38909   0.657  10.836   9.085 -2.1590  2.0267  2.2748
  295MOL0     H38910   0.652  11.041   8.929 -1.2530  4.7431 -2.1546
  295MOL0     H38911   0.544  11.054   9.067 -0.4346  1.7204 -0.7952
  295MOL0     H38912   0.463  10.960   8.789 -0.8657 -1.3640  0.4181
  295MOL0     H38913   0.353  11.001   8.912  0.2989 -0.5126  0.5305
  295MOL0     H38914   0.533  11.202   8.765  0.2978  0.6246  0.6827
  295MOL0     H38915   0.439  11.233   8.909 -0.5875  0.9225 -1.2296
  295MOL0     H38916   0.235  11.153   8.796 -2.4116 -0.6526 -3.9000
  295MOL0     H38917   0.325  11.116   8.656  1.2752 -0.8111  0.9432
  295MOL0     H38918   0.268  11.382   8.793 -0.7533 -2.0619  0.3456
  295MOL0     H38919   0.397  11.392   8.667 -2.0453  1.7387 -2.1753
  295MOL0     H38920   0.239  11.315   8.507 -0.0760  0.3514 -0.3840
  295MOL0     H38921   0.193  11.475   8.573  1.1107  0.5693  2.4548
  295MOL0     H38922   0.174  10.915   9.248 -3.8940 -0.3380  2.2020
  295MOL0     H38923  -0.047  10.830   9.275  0.1016 -0.8296  1.3358
  295MOL0     H38924  -0.402  10.670   9.241 -1.7311  0.2615 -0.4619
  295MOL0     H38925  -0.614  10.579   9.196  0.9478  2.3053  1.9997
  295MOL0     H38926  -0.310   9.404   8.452 -1.6811  1.0064 -0.5418
  295MOL0     H38927  -0.074   9.428   8.389 -1.1373 -0.1145 -2.7125
  295MOL0     H38928   0.312   9.949   8.437 -0.1524  1.1690 -1.0483
  295MOL0     H38929   0.554   9.923   8.451 -0.7694  0.9984  0.8772
  295MOL0     H38930   0.743   9.659   8.224 -0.4883 -1.0843  0.2729
  295MOL0     H38931   0.743   9.513   8.313  2.1273 -0.1725  0.3378
  295MOL0     H38932   0.932   9.598   8.457 -2.2850  3.6870  1.8915
  295MOL0     H38933   0.978   9.589   8.293  1.9245 -0.8686  2.3860
  295MOL0     H38934   0.858   9.837   8.429 -0.2776 -0.8680  1.5880
  295MOL0     H38935   0.947   9.849   8.270  2.0113 -2.3402  0.5131
  295MOL0     H38936   1.086   9.925   8.436  0.8269 -0.0595 -1.5470
  295MOL0     H38937   1.063   9.780   8.525  1.1263 -0.7863 -0.7659
  295MOL0     H38938   1.353   9.675   8.213 -0.6199  2.9132 -2.3063
  295MOL0     H38939   0.508   9.496   8.356 -2.1872 -1.1173  0.0821
  295MOL0     H38940   0.266   9.536   8.331 -0.9669  1.1796  1.0796
  296MOL0     O38941   9.232   5.940   0.119 -0.1049  0.5112  0.1373
  296MOL0     C38942   9.241   6.018   0.021 -0.0342  0.5896 -0.3069
  296MOL0     O38943   9.127   6.067  -0.041 -0.6041 -0.0153 -0.7566
  296MOL0     C38944   9.005   6.070   0.027  0.2148 -0.3273  0.2967
  296MOL0     C38945   8.896   6.030  -0.048  0.1647  0.5657  0.2864
  296MOL0     C38946   8.767   6.049   0.002 -0.6592 -0.4923  0.1694
  296MOL0     C38947   8.749   6.111   0.130  0.0529 -0.1391  0.2247
  296MOL0     O38948   8.620   6.135   0.183 -0.3275 -0.2974 -0.1904
  296MOL0     C38949   8.516   6.049   0.133 -0.3459  0.5178  0.2053
  296MOL0     C38950   8.409   6.032   0.235  0.0253  0.1918 -0.3628
  296MOL0     C38951   8.349   5.893   0.255 -0.1783  0.5973 -0.5030
  296MOL0     C38952   8.218   5.889   0.324  0.3030  0.4509 -0.3704
  296MOL0     C38953   8.097   5.909   0.231 -0.3114  0.1797 -0.6179
  296MOL0     C38954   7.978   5.930   0.334  0.5411  0.4879 -0.6729
  296MOL0     C38955   7.843   5.938   0.266 -0.7929 -0.5724  0.3266
  296MOL0     C38956   7.729   5.941   0.370 -0.4076 -0.9222  0.4450
  296MOL0     N38957   7.689   5.805   0.419 -0.0858  0.2873 -0.0130
  296MOL0     C38958   7.745   5.736   0.526 -0.4910  0.0321 -0.0214
  296MOL0     C38959   7.660   5.631   0.544  0.0799 -0.0524  0.8065
  296MOL0     C38960   7.669   5.527   0.660 -0.3211  0.9887 -0.0465
  296MOL0     C38961   7.606   5.556   0.794  0.4432 -0.1170 -0.4562
  296MOL0     C38962   7.466   5.597   0.801  0.4836 -0.2534 -0.2357
  296MOL0     C38963   7.373   5.474   0.811 -0.6437  0.1469 -0.4130
  296MOL0     O38964   7.237   5.522   0.815  0.4190  0.6146  0.1309
  296MOL0     C38965   7.163   5.552   0.703  0.2739 -0.2621  0.4067
  296MOL0     C38966   7.218   5.539   0.576  0.1949  0.0795  0.9132
  296MOL0     C38967   7.150   5.579   0.455  0.0730  0.4406  0.4018
  296MOL0     C38968   7.020   5.639   0.472  0.1851 -0.4126 -0.0130
  296MOL0     C38969   6.950   5.690   0.354  0.0093  0.5645  0.1117
  296MOL0     O38970   6.835   5.768   0.379 -0.9409  0.3641 -0.0139
  296MOL0     C38971   6.744   5.809   0.279 -0.2366  0.1603 -0.6554
  296MOL0     C38972   6.714   5.740   0.166 -0.0439  0.4457 -0.6231
  296MOL0     C38973   6.618   5.790   0.077 -0.7700  0.6414  0.2188
  296MOL0     C38974   6.553   5.913   0.093  0.3544 -0.6047  0.5355
  296MOL0     O38975   6.453   5.943   0.006  0.0465 -0.4990 -0.4164
  296MOL0     C38976   6.320   5.957   0.074  0.6182 -0.1344  1.3997
  296MOL0     C38977   6.216   5.963  -0.041 -0.1932 -0.3031 -0.5714
  296MOL0     C38978   6.200   5.831  -0.121 -0.3011 -0.2570 -0.3932
  296MOL0     C38979   6.196   5.686  -0.064  0.1988 -0.5821 -0.8338
  296MOL0     C38980   6.128   5.581  -0.146 -0.4046 -0.0036  0.1521
  296MOL0     C38981   6.180   5.565  -0.285 -0.5510  0.0954 -0.6395
  296MOL0     C38982   6.334   5.567  -0.294  0.2152 -0.0841 -0.3585
  296MOL0     C38983   6.391   5.443  -0.229  0.9543 -0.5618  0.0917
  296MOL0    Cl38984   6.563   5.419  -0.259 -0.0948 -0.2028  0.4157
  296MOL0     C38985   6.595   5.989   0.205 -0.1059  0.3999  0.6435
  296MOL0     C38986   6.688   5.942   0.299  0.3668  0.2571  0.5805
  296MOL0     O38987   6.986   5.662   0.244 -0.2572 -0.1928  0.1862
  296MOL0     C38988   6.961   5.645   0.603 -0.1372  0.3508 -0.0553
  296MOL0     C38989   7.027   5.601   0.714 -0.3318 -0.0284  0.3630
  296MOL0     N38990   7.563   5.632   0.451  0.1503  0.0808  1.0268
  296MOL0     N38991   7.572   5.742   0.385 -0.3526 -0.3389  0.0064
  296MOL0     C38992   8.862   6.142   0.198 -1.2014  0.2077 -0.1534
  296MOL0     C38993   8.989   6.122   0.155 -0.8223  0.4267  0.4705
  296MOL0     C38994   9.360   6.062  -0.051  0.2020  0.8162  0.7922
  296MOL0     C38995   9.362   6.169  -0.141  0.1008 -0.0537 -0.3514
  296MOL0     C38996   9.475   6.212  -0.204  0.1258  0.2824  0.6387
  296MOL0     C38997   9.598   6.144  -0.201 -0.8189 -0.9091  0.0300
  296MOL0     O38998   9.714   6.156  -0.264  0.1069 -1.0064  0.3064
  296MOL0     C38999   9.726   6.274  -0.337  0.1832  0.4074 -0.3636
  296MOL0     C39000   9.863   6.298  -0.388  0.0470 -0.4070  0.1344
  296MOL0     C39001   9.970   6.293  -0.282 -0.0452 -0.1516 -0.2560
  296MOL0     C39002  10.111   6.270  -0.351 -0.4762 -0.4103 -0.2934
  296MOL0     C39003  10.116   6.127  -0.377  0.8373  0.3347  0.0547
  296MOL0     C39004  10.114   6.019  -0.421  0.5089  0.6557 -0.2124
  296MOL0     C39005   9.595   6.027  -0.118  0.5123 -0.4175  0.2710
  296MOL0     C39006   9.484   5.995  -0.039 -0.3177 -0.3225 -0.1058
  296MOL0     H39007   8.898   5.972  -0.140 -2.7290 -2.1703  1.7285
  296MOL0     H39008   8.689   6.006  -0.060  2.1877 -1.7776 -2.8390
  296MOL0     H39009   8.549   5.950   0.100 -1.3008  0.4038 -0.4560
  296MOL0     H39010   8.470   6.094   0.045 -1.5224 -0.2971  0.3833
  296MOL0     H39011   8.330   6.102   0.204  0.5663  1.9872  2.0271
  296MOL0     H39012   8.438   6.075   0.331  0.2205  0.7796 -0.6828
  296MOL0     H39013   8.411   5.841   0.328 -0.5248  0.4738 -0.2932
  296MOL0     H39014   8.352   5.839   0.160 -0.3701  1.3131 -0.9156
  296MOL0     H39015   8.207   5.791   0.370 -1.1144  1.3552  1.3122
  296MOL0     H39016   8.221   5.954   0.411 -1.1371 -0.8595  0.7151
  296MOL0     H39017   8.076   5.817   0.176  2.0407  0.1768 -1.6306
  296MOL0     H39018   8.104   5.995   0.164  1.3358  1.8899  1.6282
  296MOL0     H39019   7.994   6.014   0.402 -1.9060 -1.3635  2.4524
  296MOL0     H39020   7.982   5.841   0.398 -0.4432  1.8250  1.3701
  296MOL0     H39021   7.823   6.030   0.211 -0.9349  0.0164  1.3397
  296MOL0     H39022   7.819   5.851   0.204 -3.8512  0.3453  0.0516
  296MOL0     H39023   7.638   5.972   0.318  0.2852 -1.1955 -0.9917
  296MOL0     H39024   7.752   6.009   0.452 -0.6268  0.1049 -0.3304
  296MOL0     H39025   7.831   5.762   0.586 -0.9665 -0.6073  0.9566
  296MOL0     H39026   7.775   5.508   0.674 -0.9852 -1.2626  2.6504
  296MOL0     H39027   7.617   5.437   0.626 -1.0070  0.8690  1.2649
  296MOL0     H39028   7.668   5.633   0.840  1.4094  0.8141 -3.1458
  296MOL0     H39029   7.619   5.464   0.852 -1.6912 -2.8610 -3.8891
  296MOL0     H39030   7.448   5.652   0.894 -0.9445 -1.1445  0.0585
  296MOL0     H39031   7.437   5.659   0.716 -0.3641 -0.9052 -0.4427
  296MOL0     H39032   7.402   5.429   0.907 -0.6755 -0.4907 -0.7001
  296MOL0     H39033   7.399   5.406   0.730  5.1207 -1.0078  1.9199
  296MOL0     H39034   7.318   5.508   0.550  0.4938  0.3273  1.7400
  296MOL0     H39035   7.189   5.568   0.354 -0.3309 -2.5400  0.5027
  296MOL0     H39036   6.757   5.643   0.144 -0.7287  0.3697 -1.7083
  296MOL0     H39037   6.594   5.731  -0.011 -0.7937  3.2644 -1.6417
  296MOL0     H39038   6.322   6.056   0.120 -1.3961  1.1655 -1.0677
  296MOL0     H39039   6.298   5.875   0.143  0.5533 -0.7934  0.6150
  296MOL0     H39040   6.245   6.033  -0.120  1.5344 -0.0465  0.2297
  296MOL0     H39041   6.117   5.981   0.001  0.9139  0.2492  1.9539
  296MOL0     H39042   6.273   5.820  -0.202 -1.0920  0.6525 -1.2599
  296MOL0     H39043   6.106   5.845  -0.176 -2.0245 -0.0623  2.4227
  296MOL0     H39044   6.303   5.668  -0.060  0.5890  1.6611  0.1235
  296MOL0     H39045   6.149   5.693   0.035 -2.2850  0.9932 -2.0261
  296MOL0     H39046   6.026   5.619  -0.144  0.8667  3.7389  0.6913
  296MOL0     H39047   6.130   5.481  -0.101  0.9432 -0.2480 -0.4193
  296MOL0     H39048   6.147   5.652  -0.343 -1.4003 -0.2388 -0.6787
  296MOL0     H39049   6.145   5.481  -0.347  1.3295 -0.7662 -0.6091
  296MOL0     H39050   6.354   5.567  -0.402 -0.9244 -0.5802 -0.5872
  296MOL0     H39051   6.387   5.655  -0.259 -1.6853  1.1979 -0.5595
  296MOL0     H39052   6.343   5.354  -0.270 -2.4096 -0.0357  2.5628
  296MOL0     H39053   6.372   5.441  -0.122 -1.0049 -1.1833 -0.2328
  296MOL0     H39054   6.560   6.092   0.210 -1.3872  0.1253 -1.5179
  296MOL0     H39055   6.721   5.995   0.388  3.1666 -0.2552 -0.0667
  296MOL0     H39056   6.872   5.707   0.606 -0.0793  0.3842  1.4331
  296MOL0     H39057   6.984   5.609   0.814  1.6965  0.6377  1.2457
  296MOL0     H39058   8.845   6.165   0.302  2.0178 -3.0347  1.2756
  296MOL0     H39059   9.077   6.136   0.217 -0.1416 -1.6454  0.0484
  296MOL0     H39060   9.278   6.238  -0.145  1.2232  1.4101  0.2944
  296MOL0     H39061   9.471   6.298  -0.270  1.2455  0.5381  0.8926
  296MOL0     H39062   9.699   6.352  -0.264 -0.1210 -0.6974  0.7494
  296MOL0     H39063   9.654   6.275  -0.419  0.9325 -2.5018 -1.1720
  296MOL0     H39064   9.877   6.225  -0.468  1.3015  0.2757 -0.2891
  296MOL0     H39065   9.862   6.401  -0.425 -3.1997 -0.5307 -0.4726
  296MOL0     H39066   9.947   6.215  -0.209  1.1022  0.1162  0.4198
  296MOL0     H39067   9.976   6.385  -0.223  1.4904 -0.8655  0.7517
  296MOL0     H39068  10.106   6.327  -0.444 -1.3023  0.3780  0.2119
  296MOL0     H39069  10.201   6.305  -0.298 -0.8847 -0.6363  0.5813
  296MOL0     H39070  10.099   5.921  -0.462 -2.4603  0.3407  1.3492
  296MOL0     H39071   9.686   5.970  -0.129  1.7078  1.2374  1.2256
  296MOL0     H39072   9.481   5.908   0.026 -1.2076 -0.4577 -0.3093
  297MOL0     O39073   6.648   1.896   8.632 -0.8774 -0.2778 -0.0714
  297MOL0     C39074   6.665   1.970   8.537  0.7895 -0.7307 -0.0530
  297MOL0     O39075   6.581   2.079   8.510 -0.6511  0.5776 -0.2330
  297MOL0     C39076   6.471   2.091   8.592  0.3910 -0.0225  0.0280
  297MOL0     C39077   6.457   2.210   8.664 -0.1649 -1.3577  0.5853
  297MOL0     C39078   6.343   2.223   8.750 -0.5774  0.1851  1.0118
  297MOL0     C39079   6.248   2.121   8.759 -0.0953 -0.0542  0.2897
  297MOL0     O39080   6.136   2.135   8.828  0.1605 -0.4992  0.5102
  297MOL0     C39081   6.080   2.012   8.896  0.4420 -0.1890 -1.1029
  297MOL0     C39082   6.003   2.059   9.023  0.6694  0.1344  0.5697
  297MOL0     C39083   5.887   1.968   9.071  0.2154  0.2430 -0.5608
  297MOL0     C39084   5.928   1.825   9.105 -0.4605 -0.1913  0.1807
  297MOL0     C39085   5.804   1.749   9.163  0.1262 -0.4585 -0.1173
  297MOL0     C39086   5.822   1.600   9.203 -0.3362  0.1391 -0.2454
  297MOL0     C39087   5.942   1.577   9.305  0.9794 -0.4184  0.1551
  297MOL0     C39088   5.951   1.432   9.337 -0.0715  0.5658  0.3661
  297MOL0     N39089   5.857   1.376   9.437  0.0758 -0.4287 -0.1231
  297MOL0     C39090   5.900   1.333   9.562 -0.5131  0.2312  0.2464
  297MOL0     C39091   5.797   1.265   9.620  0.4379 -1.4763 -0.0180
  297MOL0     C39092   5.813   1.189   9.740 -0.1421  0.1868  0.4908
  297MOL0     C39093   5.680   1.120   9.783 -0.5195 -0.3947  1.0714
  297MOL0     C39094   5.696   0.999   9.876 -0.4276  0.1633 -0.1207
  297MOL0     C39095   5.567   0.956   9.940 -0.6120 -0.3109  0.7365
  297MOL0     O39096   5.518   1.071  10.014  0.0575 -0.0694 -0.3001
  297MOL0     C39097   5.396   1.070  10.067 -0.0025 -0.9101 -1.0433
  297MOL0     C39098   5.318   0.951  10.068  0.0790  0.5702 -0.2810
  297MOL0     C39099   5.193   0.965  10.127  0.8498 -0.2391 -0.1529
  297MOL0     C39100   5.137   1.082  10.186 -1.1834 -0.8690 -0.2856
  297MOL0     C39101   5.000   1.098  10.233  0.7126 -0.6702 -0.2911
  297MOL0     O39102   4.909   0.998  10.191 -0.5656  0.6150 -0.1650
  297MOL0     C39103   4.779   1.032  10.190  0.3356 -0.3447  1.2370
  297MOL0     C39104   4.691   0.960  10.270 -0.0612  0.4171  0.1054
  297MOL0     C39105   4.554   0.965  10.262 -0.3990  0.9657 -0.0174
  297MOL0     C39106   4.502   1.064  10.176  1.4796 -0.6463  0.1052
  297MOL0     O39107   4.366   1.088  10.155 -0.6457  0.4023 -0.1006
  297MOL0     C39108   4.278   1.097  10.270  0.2906  0.0280  0.3815
  297MOL0     C39109   4.122   1.086  10.232 -0.9998  0.8760 -0.6354
  297MOL0     C39110   4.084   1.194  10.134  0.5807 -0.7675 -0.6301
  297MOL0     C39111   3.934   1.220  10.143 -1.0854 -0.4791  0.7581
  297MOL0     C39112   3.913   1.333  10.044 -0.0374  0.7825 -0.8833
  297MOL0     C39113   3.768   1.373  10.007  0.1755 -0.5379  0.0217
  297MOL0     C39114   3.785   1.516   9.956  1.2928  0.2660 -0.3991
  297MOL0     C39115   3.650   1.556   9.908  0.1321  0.3741 -0.5557
  297MOL0    Cl39116   3.655   1.733   9.888  0.3185 -0.0965 -0.3467
  297MOL0     C39117   4.586   1.139  10.103  0.4726 -0.7979  0.5049
  297MOL0     C39118   4.725   1.132  10.107 -0.0486  0.9374  0.7697
  297MOL0     O39119   4.958   1.204  10.278  0.0967  0.0756  0.7750
  297MOL0     C39120   5.222   1.189  10.189 -0.1704  0.1620  0.0189
  297MOL0     C39121   5.350   1.190  10.134 -0.4113  0.2159  0.4059
  297MOL0     N39122   5.690   1.272   9.525  0.2929  0.1602  0.8512
  297MOL0     N39123   5.730   1.329   9.416  0.2906 -0.3932  0.0978
  297MOL0     C39124   6.259   2.019   8.673  0.0200 -0.3514 -0.4853
  297MOL0     C39125   6.371   1.999   8.596 -0.5117 -0.2631  1.2033
  297MOL0     C39126   6.779   1.942   8.449 -0.4960  0.5931 -0.5527
  297MOL0     C39127   6.786   2.023   8.334 -0.3723 -0.1392  0.5352
  297MOL0     C39128   6.890   2.006   8.239  0.2089  0.1552 -0.0438
  297MOL0     C39129   6.984   1.902   8.249  0.5159  0.2983 -0.4202
  297MOL0     O39130   7.086   1.879   8.160 -0.5028  0.6756  0.2051
  297MOL0     C39131   7.078   1.935   8.028 -0.3043 -0.3161  0.6234
  297MOL0     C39132   7.165   1.857   7.930  0.3913 -0.0271 -0.3398
  297MOL0     C39133   7.308   1.891   7.949 -0.0212 -0.4038  0.1203
  297MOL0     C39134   7.402   1.803   7.866  0.4064 -0.8979 -0.2702
  297MOL0     C39135   7.545   1.828   7.898 -0.0227 -0.5637 -0.0760
  297MOL0     C39136   7.653   1.847   7.946 -0.7522 -0.1379  0.2238
  297MOL0     C39137   6.967   1.807   8.359  0.4385  0.0788 -0.8075
  297MOL0     C39138   6.877   1.832   8.465  0.9401 -0.3951  0.2630
  297MOL0     H39139   6.524   2.294   8.653  0.6617 -1.8722  1.5557
  297MOL0     H39140   6.329   2.314   8.808 -0.5321 -1.0790  3.0931
  297MOL0     H39141   6.164   1.946   8.920 -0.6579 -0.8234  1.2606
  297MOL0     H39142   6.008   1.956   8.836  0.0463  0.9144 -1.6988
  297MOL0     H39143   5.962   2.159   9.007 -1.2327 -0.7082 -0.1521
  297MOL0     H39144   6.071   2.076   9.107  1.4038 -2.0937  0.4927
  297MOL0     H39145   5.807   1.970   8.997 -0.2482 -0.8401 -0.1020
  297MOL0     H39146   5.837   2.012   9.157  2.5991  3.4452 -0.6118
  297MOL0     H39147   5.976   1.778   9.018 -0.3285 -3.0145  1.6336
  297MOL0     H39148   6.008   1.823   9.180  1.5150 -0.1120 -1.8249
  297MOL0     H39149   5.721   1.769   9.096 -1.3729  0.9782  2.0311
  297MOL0     H39150   5.774   1.800   9.255 -0.6330  0.0761 -0.6621
  297MOL0     H39151   5.835   1.537   9.114 -4.8303  1.6622 -2.2532
  297MOL0     H39152   5.734   1.560   9.254 -0.1057  0.4521  0.4156
  297MOL0     H39153   6.029   1.610   9.248 -0.9837  0.1426 -2.7460
  297MOL0     H39154   5.930   1.640   9.393  0.7160 -2.4925  1.6822
  297MOL0     H39155   6.053   1.412   9.369  0.0338 -1.8713 -1.1857
  297MOL0     H39156   5.939   1.367   9.249  0.9724 -0.1056  0.7030
  297MOL0     H39157   6.001   1.343   9.600  0.4706 -2.2076 -1.4377
  297MOL0     H39158   5.874   1.243   9.813  3.7623 -1.0083 -1.6163
  297MOL0     H39159   5.882   1.112   9.704  0.3275  2.1075 -3.1481
  297MOL0     H39160   5.624   1.084   9.696  0.5188 -3.0704  1.4226
  297MOL0     H39161   5.631   1.200   9.839 -0.3924 -0.2337  0.9523
  297MOL0     H39162   5.751   0.918   9.826  2.0379 -0.7350  3.6228
  297MOL0     H39163   5.762   1.034   9.956 -0.9532  2.9908 -0.8244
  297MOL0     H39164   5.603   0.878  10.007  2.3915  0.0687 -0.3086
  297MOL0     H39165   5.503   0.899   9.871 -0.3610  0.7561 -0.4279
  297MOL0     H39166   5.338   0.851  10.032 -0.7594 -0.0029  0.7847
  297MOL0     H39167   5.133   0.875  10.124  0.1176  0.2318 -0.1681
  297MOL0     H39168   4.734   0.884  10.334 -1.0667 -0.5279 -0.3090
  297MOL0     H39169   4.505   0.882  10.313 -2.3105 -0.2562 -3.5016
  297MOL0     H39170   4.293   1.190  10.326  0.4952 -0.9896  2.0573
  297MOL0     H39171   4.295   1.017  10.343  0.3265 -1.0656 -0.7854
  297MOL0     H39172   4.059   1.091  10.321 -1.1337 -0.4187 -0.6327
  297MOL0     H39173   4.107   0.985  10.193  0.5682  0.4268 -0.1643
  297MOL0     H39174   4.114   1.150  10.038  2.9414 -0.5561 -0.0575
  297MOL0     H39175   4.143   1.282  10.160  0.4187 -0.9360  0.3377
  297MOL0     H39176   3.863   1.140  10.122 -2.9076  1.2617 -0.1679
  297MOL0     H39177   3.923   1.247  10.248  0.1420 -2.4452  1.4239
  297MOL0     H39178   3.976   1.334   9.955  1.1814  0.8500 -0.0550
  297MOL0     H39179   3.949   1.418  10.104  0.6107 -1.1697  1.6832
  297MOL0     H39180   3.704   1.370  10.095  0.2086  0.4409  0.0910
  297MOL0     H39181   3.742   1.298   9.932 -0.7089 -0.0501 -0.1684
  297MOL0     H39182   3.825   1.582  10.034 -2.3506  1.1464  0.9698
  297MOL0     H39183   3.858   1.515   9.875  1.1322 -1.5119 -0.5515
  297MOL0     H39184   3.570   1.525   9.976  0.4123  1.4604  0.3057
  297MOL0     H39185   3.623   1.498   9.819  1.5159 -2.2806  0.6444
  297MOL0     H39186   4.554   1.217  10.035  1.3750 -1.3826 -0.6105
  297MOL0     H39187   4.792   1.191  10.047  0.2456 -0.8400 -0.7472
  297MOL0     H39188   5.187   1.284  10.228  0.9110  0.9845 -0.9556
  297MOL0     H39189   5.408   1.280  10.150  1.4842 -0.8170 -0.3489
  297MOL0     H39190   6.189   1.936   8.665 -0.6696  0.2140 -0.4325
  297MOL0     H39191   6.371   1.909   8.534 -2.7682  1.3580 -1.3867
  297MOL0     H39192   6.711   2.097   8.309  2.2123  1.3505 -4.0470
  297MOL0     H39193   6.889   2.071   8.152 -0.8639 -0.4173 -0.4783
  297MOL0     H39194   7.089   2.043   8.025 -3.0008  0.0046  0.7513
  297MOL0     H39195   6.974   1.919   7.999 -0.3886  1.2019  0.0437
  297MOL0     H39196   7.152   1.749   7.944 -0.2477 -0.0346 -0.9629
  297MOL0     H39197   7.125   1.881   7.831 -0.7472 -1.2753 -0.2068
  297MOL0     H39198   7.325   1.875   8.056 -0.8575  0.2315  0.3563
  297MOL0     H39199   7.319   1.998   7.931  1.4782 -0.5280  0.2360
  297MOL0     H39200   7.375   1.697   7.869 -1.2822 -0.9740 -6.1751
  297MOL0     H39201   7.384   1.817   7.759 -0.8522  0.2412  0.0701
  297MOL0     H39202   7.740   1.883   7.997 -2.4821 -0.5965  3.8330
  297MOL0     H39203   7.034   1.722   8.359  0.9534  0.4697  0.2017
  297MOL0     H39204   6.866   1.764   8.549 -0.2203 -2.0188 -1.1330
  298MOL0     O39205  11.040  10.362   3.124  0.3726 -0.1845  0.6525
  298MOL0     C39206  11.083  10.351   3.240 -0.3631 -0.1938  0.0037
  298MOL0     O39207  10.998  10.345   3.351  0.2358 -0.2770  0.1369
  298MOL0     C39208  10.860  10.359   3.332  0.0040 -0.0321  0.6394
  298MOL0     C39209  10.800  10.478   3.356  0.0239 -0.1197  0.1340
  298MOL0     C39210  10.660  10.505   3.325  0.1616 -0.4699 -0.3271
  298MOL0     C39211  10.577  10.401   3.294  0.1416 -0.3758  0.3627
  298MOL0     O39212  10.443  10.425   3.276 -0.1988 -0.2531 -0.2231
  298MOL0     C39213  10.375  10.340   3.370  0.2630 -0.2336  0.0811
  298MOL0     C39214  10.224  10.375   3.373  0.1252 -0.6433 -0.8851
  298MOL0     C39215  10.135  10.314   3.262 -0.2035  0.1983 -0.5317
  298MOL0     C39216   9.999  10.373   3.272 -0.6989  0.3817  0.0760
  298MOL0     C39217   9.905  10.300   3.169 -0.7663  0.2723 -0.2889
  298MOL0     C39218   9.761  10.361   3.188 -0.3839 -0.4979  0.2914
  298MOL0     C39219   9.663  10.287   3.098 -0.0812  0.7073  0.5932
  298MOL0     C39220   9.524  10.332   3.124 -0.7397  0.6467 -0.1539
  298MOL0     N39221   9.440  10.278   3.018 -0.7897  0.2008 -0.2461
  298MOL0     C39222   9.402  10.339   2.901 -0.6853 -1.2880 -1.0419
  298MOL0     C39223   9.320  10.256   2.840 -0.2530  0.2880  0.9793
  298MOL0     C39224   9.243  10.287   2.718 -0.0603  0.2579 -0.7178
  298MOL0     C39225   9.270  10.425   2.655 -0.2700 -0.2440  0.2822
  298MOL0     C39226   9.193  10.451   2.525  0.3185  0.2853  0.0209
  298MOL0     C39227   9.059  10.386   2.504  0.2707  0.5167  0.1644
  298MOL0     O39228   8.982  10.398   2.625 -0.0564 -1.3273 -0.0289
  298MOL0     C39229   8.852  10.366   2.605  0.3226  0.2959  0.5798
  298MOL0     C39230   8.821  10.245   2.532 -0.0688 -0.3708 -0.2861
  298MOL0     C39231   8.689  10.208   2.506  0.6598  0.0952  0.5024
  298MOL0     C39232   8.582  10.290   2.554 -0.1141 -0.7369  0.4978
  298MOL0     C39233   8.433  10.253   2.536 -0.8017 -0.7651  0.0983
  298MOL0     O39234   8.410  10.130   2.478  0.0528 -0.0072 -0.1583
  298MOL0     C39235   8.284  10.079   2.492 -0.0976  0.2939 -0.6624
  298MOL0     C39236   8.220  10.027   2.381  0.5741  0.4109 -1.2548
  298MOL0     C39237   8.087   9.992   2.380  0.0469  0.1265 -0.2366
  298MOL0     C39238   8.022   9.982   2.496  0.1366  0.1639  0.7755
  298MOL0     O39239   7.883   9.946   2.509 -0.8093  0.4706 -0.5203
  298MOL0     C39240   7.835   9.859   2.410 -0.0179  0.2904 -0.3465
  298MOL0     C39241   7.696   9.796   2.459  0.8801 -0.2126  0.2104
  298MOL0     C39242   7.635   9.687   2.357 -0.4195 -0.8681 -0.2112
  298MOL0     C39243   7.512   9.626   2.411  0.4756  0.9399 -0.9003
  298MOL0     C39244   7.457   9.534   2.299 -0.0800 -0.5732  0.3215
  298MOL0     C39245   7.324   9.461   2.342  0.5268 -0.0136  1.1481
  298MOL0     C39246   7.199   9.530   2.273 -0.2031  0.3235  0.0226
  298MOL0     C39247   7.063   9.455   2.268 -0.6286  0.6924  0.3453
  298MOL0    Cl39248   6.938   9.557   2.187  0.2407 -0.3945  0.1575
  298MOL0     C39249   8.092  10.009   2.617  0.2511  0.4421 -0.1792
  298MOL0     C39250   8.220  10.053   2.621  0.5097 -1.2230  0.2201
  298MOL0     O39251   8.341  10.334   2.566  0.0809 -0.2313 -0.3674
  298MOL0     C39252   8.616  10.405   2.624 -0.5451  0.1561  0.3198
  298MOL0     C39253   8.746  10.440   2.660 -0.4720  0.0890  0.0918
  298MOL0     N39254   9.312  10.143   2.912 -0.7607  1.2760  0.7641
  298MOL0     N39255   9.390  10.150   3.011 -0.5036  0.2806 -0.0680
  298MOL0     C39256  10.643  10.275   3.276 -0.1973 -0.2723  0.2368
  298MOL0     C39257  10.783  10.253   3.298 -0.3233 -0.2473 -0.3584
  298MOL0     C39258  11.228  10.352   3.272  0.3895 -0.5951 -0.5771
  298MOL0     C39259  11.273  10.356   3.405 -0.4512 -0.6882 -0.5961
  298MOL0     C39260  11.411  10.355   3.441  0.1545  0.1344  0.2070
  298MOL0     C39261  11.515  10.343   3.343  0.7057  0.6270  0.4777
  298MOL0     O39262  11.648  10.344   3.362 -0.0149  0.0607 -0.0091
  298MOL0     C39263  11.688  10.290   3.487 -0.2142  0.2655 -0.0125
  298MOL0     C39264  11.841  10.286   3.507 -0.0726 -0.5209 -0.3160
  298MOL0     C39265  11.919  10.201   3.407  0.2315 -0.5808  0.4977
  298MOL0     C39266  12.061  10.213   3.441 -0.3858  0.5671 -1.0788
  298MOL0     C39267  12.144  10.155   3.336  0.2288  0.3926 -0.6060
  298MOL0     C39268  12.213  10.134   3.242  0.0915 -0.4592  1.0802
  298MOL0     C39269  11.473  10.342   3.208 -0.7884 -0.0030 -0.5922
  298MOL0     C39270  11.337  10.347   3.174  0.3341 -0.4897 -0.0752
  298MOL0     H39271  10.865  10.557   3.393  1.1974 -1.0039  0.0012
  298MOL0     H39272  10.621  10.605   3.338 -4.7408 -2.4304  2.3561
  298MOL0     H39273  10.408  10.366   3.471 -0.3793  1.9030 -0.2281
  298MOL0     H39274  10.400  10.233   3.367  0.2908 -0.2510  0.7597
  298MOL0     H39275  10.222  10.483   3.387  0.8938 -0.7943  0.7035
  298MOL0     H39276  10.188  10.332   3.467  2.0848 -2.4798 -0.8653
  298MOL0     H39277  10.134  10.206   3.278 -1.1812  0.4889  1.9868
  298MOL0     H39278  10.168  10.347   3.163  0.6414  0.5372 -0.1472
  298MOL0     H39279   9.959  10.354   3.372 -1.1551  1.0059  0.0144
  298MOL0     H39280  10.007  10.477   3.242 -0.2220  0.8014  1.5792
  298MOL0     H39281   9.905  10.192   3.189  1.6453  0.3075  0.2396
  298MOL0     H39282   9.946  10.305   3.068  0.0001 -1.3016 -0.1006
  298MOL0     H39283   9.760  10.465   3.156 -1.9495 -0.4311  0.4977
  298MOL0     H39284   9.734  10.354   3.293 -0.4223 -0.3606  0.2895
  298MOL0     H39285   9.691  10.304   2.994 -1.8709  0.3955  0.0381
  298MOL0     H39286   9.665  10.180   3.123  0.2780  1.2526  3.1883
  298MOL0     H39287   9.513  10.440   3.137 -1.9165  0.5037  0.1318
  298MOL0     H39288   9.492  10.280   3.215 -0.7738 -3.0396 -2.1014
  298MOL0     H39289   9.429  10.439   2.870 -1.1685 -2.0642 -4.4146
  298MOL0     H39290   9.140  10.281   2.754  0.3752 -1.3301  0.3736
  298MOL0     H39291   9.249  10.202   2.649 -1.7502 -1.0567  0.6810
  298MOL0     H39292   9.377  10.425   2.634 -0.7316 -0.8706 -2.6060
  298MOL0     H39293   9.234  10.496   2.730 -4.1591 -1.3384 -0.3105
  298MOL0     H39294   9.175  10.558   2.510 -0.8468 -0.1843 -2.5229
  298MOL0     H39295   9.255  10.418   2.441 -1.4250  1.3829 -1.7845
  298MOL0     H39296   9.079  10.282   2.478 -0.0359 -0.4873  3.5110
  298MOL0     H39297   9.010  10.431   2.417  1.4120 -0.0204 -0.7914
  298MOL0     H39298   8.900  10.183   2.491 -0.8980 -1.1315 -0.7971
  298MOL0     H39299   8.658  10.112   2.465 -1.6747  0.5597  1.0335
  298MOL0     H39300   8.283  10.028   2.293  1.6097 -0.8775 -0.5530
  298MOL0     H39301   8.045   9.982   2.281  1.9015  0.8932 -1.1575
  298MOL0     H39302   7.900   9.774   2.385 -0.0850  1.2121 -4.3773
  298MOL0     H39303   7.822   9.911   2.314  1.3801  1.8049  0.2511
  298MOL0     H39304   7.618   9.871   2.479 -1.3725 -2.8603  2.0220
  298MOL0     H39305   7.721   9.752   2.555  3.0420 -2.4102 -1.2476
  298MOL0     H39306   7.714   9.614   2.337 -0.4262 -0.6931 -0.8835
  298MOL0     H39307   7.608   9.739   2.265  0.2863  0.9557  0.5662
  298MOL0     H39308   7.538   9.564   2.497 -1.6453  0.2190 -0.7078
  298MOL0     H39309   7.428   9.690   2.440  0.1466  0.6897 -1.2987
  298MOL0     H39310   7.531   9.454   2.292  0.5014 -0.1805  1.7338
  298MOL0     H39311   7.431   9.597   2.214 -2.2726  0.1939  1.4617
  298MOL0     H39312   7.322   9.458   2.452 -0.2181  1.0716  1.1815
  298MOL0     H39313   7.317   9.356   2.312  0.9512 -0.3727  2.2515
  298MOL0     H39314   7.179   9.623   2.327  1.6558  0.5615  0.3774
  298MOL0     H39315   7.233   9.560   2.173  1.6251  1.4082  0.9082
  298MOL0     H39316   7.024   9.423   2.364 -2.6405 -0.5024 -0.8057
  298MOL0     H39317   7.076   9.358   2.218 -2.3016 -0.2543  1.6355
  298MOL0     H39318   8.044   9.991   2.712  0.5425 -0.8912 -0.2612
  298MOL0     H39319   8.263  10.098   2.709 -2.3648  0.5817  0.8153
  298MOL0     H39320   8.531  10.455   2.670 -1.0810  0.0842 -0.5833
  298MOL0     H39321   8.762  10.526   2.724  1.5955 -0.1794  0.0046
  298MOL0     H39322  10.574  10.201   3.237 -1.5202  1.0987 -0.1606
  298MOL0     H39323  10.834  10.163   3.265  1.7831  0.1260  1.6471
  298MOL0     H39324  11.197  10.361   3.483  0.9759  0.4558  0.7870
  298MOL0     H39325  11.430  10.368   3.547 -1.0998 -1.8486  0.7238
  298MOL0     H39326  11.641  10.191   3.498 -2.4566  1.2839  0.2650
  298MOL0     H39327  11.649  10.362   3.560  0.3461  2.2739 -1.6235
  298MOL0     H39328  11.877  10.389   3.497  1.1086 -0.7722  1.0918
  298MOL0     H39329  11.863  10.257   3.610  2.1262  1.2005 -0.2095
  298MOL0     H39330  11.895  10.233   3.305  1.4445  1.7960  0.8990
  298MOL0     H39331  11.886  10.100   3.431  0.5915 -0.0016  3.8297
  298MOL0     H39332  12.078  10.320   3.456  0.2019  0.0795  2.6654
  298MOL0     H39333  12.081  10.176   3.542 -0.1985  0.1604 -1.2619
  298MOL0     H39334  12.278  10.125   3.157  0.1814  0.5738  1.0340
  298MOL0     H39335  11.544  10.346   3.126 -1.8508 -1.1376 -1.5990
  298MOL0     H39336  11.335  10.347   3.065  2.3601 -0.8300 -0.1496
  299MOL0     O39337   6.697   4.181   4.247 -0.1473 -0.5190 -0.3531
  299MOL0     C39338   6.683   4.296   4.277 -0.1180 -0.4858  0.0251
  299MOL0     O39339   6.575   4.367   4.263 -0.2879  0.3825  0.6954
  299MOL0     C39340   6.464   4.319   4.191 -0.0294  0.9259  0.7619
  299MOL0     C39341   6.473   4.233   4.077  0.1227  0.0385 -0.2566
  299MOL0     C39342   6.354   4.194   4.017  0.0138 -0.2589  0.7422
  299MOL0     C39343   6.227   4.242   4.058  0.2919  0.3975 -1.1200
  299MOL0     O39344   6.108   4.227   3.994 -0.0217 -0.0381 -0.1405
  299MOL0     C39345   6.106   4.200   3.856 -0.5211  0.0537 -0.3845
  299MOL0     C39346   5.963   4.215   3.789  0.2365 -0.9466  0.6205
  299MOL0     C39347   5.861   4.105   3.821  0.5751  0.2991  0.5634
  299MOL0     C39348   5.729   4.115   3.747 -0.0769  0.5830 -0.4560
  299MOL0     C39349   5.637   3.990   3.760  0.3060 -0.1077  0.2000
  299MOL0     C39350   5.562   3.991   3.891 -0.4065 -1.0274 -1.0650
  299MOL0     C39351   5.462   3.874   3.904 -0.1402 -0.0373 -0.1405
  299MOL0     C39352   5.351   3.906   4.014 -0.6034 -0.2108  0.0554
  299MOL0     N39353   5.236   3.818   4.001 -0.0226  0.1041 -0.7301
  299MOL0     C39354   5.140   3.821   3.905 -0.1294  0.5339  0.5903
  299MOL0     C39355   5.044   3.732   3.933 -0.5560  0.2149  0.5612
  299MOL0     C39356   4.914   3.705   3.845 -0.3191  0.1421 -0.7963
  299MOL0     C39357   4.793   3.751   3.918  0.1439  0.0736  0.3172
  299MOL0     C39358   4.663   3.708   3.846  0.4634 -0.4556 -0.4575
  299MOL0     C39359   4.549   3.670   3.938 -0.4465  0.1525 -0.0258
  299MOL0     O39360   4.441   3.630   3.853 -0.2556 -0.8457 -0.1423
  299MOL0     C39361   4.312   3.609   3.902 -0.1200  0.4697  0.3213
  299MOL0     C39362   4.280   3.612   4.040 -0.1633 -0.2416 -0.4559
  299MOL0     C39363   4.148   3.610   4.073  1.1970 -0.0548 -0.1854
  299MOL0     C39364   4.043   3.607   3.981 -0.1888 -0.5591  0.5628
  299MOL0     C39365   3.902   3.598   4.012 -0.3855 -0.8688  0.0244
  299MOL0     O39366   3.808   3.605   3.918 -0.6060  0.1438  0.9342
  299MOL0     C39367   3.681   3.597   3.964  0.9277 -0.2085  0.5953
  299MOL0     C39368   3.624   3.706   4.037  0.3200  0.3047 -0.1285
  299MOL0     C39369   3.490   3.688   4.084 -0.0907  0.1373  0.3241
  299MOL0     C39370   3.413   3.572   4.056 -0.2553  0.0410 -0.6231
  299MOL0     O39371   3.293   3.547   4.116  0.3195 -0.4286  0.4462
  299MOL0     C39372   3.213   3.436   4.074 -0.4325 -0.4108 -0.3263
  299MOL0     C39373   3.080   3.445   4.152  0.4409  0.0762  0.5544
  299MOL0     C39374   3.007   3.313   4.141 -1.2345 -0.3913 -0.1793
  299MOL0     C39375   2.866   3.322   4.213 -0.7256  0.2703  0.0185
  299MOL0     C39376   2.769   3.209   4.192 -0.1038  0.3875  0.1344
  299MOL0     C39377   2.655   3.224   4.287 -1.0778  0.0306  0.2072
  299MOL0     C39378   2.535   3.136   4.238 -0.3365  0.2768  0.0469
  299MOL0     C39379   2.420   3.133   4.345  0.0266 -0.0221 -0.4940
  299MOL0    Cl39380   2.370   3.289   4.429 -0.0375 -0.1254  0.1431
  299MOL0     C39381   3.474   3.474   3.974  0.0511  0.2766  0.1218
  299MOL0     C39382   3.601   3.486   3.930 -0.2034  0.5373 -0.4197
  299MOL0     O39383   3.880   3.568   4.131 -0.2706 -0.6090 -0.4257
  299MOL0     C39384   4.081   3.597   3.844  0.0891 -0.7675  0.1367
  299MOL0     C39385   4.216   3.602   3.806  0.1406  0.4128  0.3770
  299MOL0     N39386   5.075   3.680   4.062 -0.0157  0.4572  0.7665
  299MOL0     N39387   5.190   3.732   4.098  0.2684  0.5248  0.2378
  299MOL0     C39388   6.226   4.308   4.182  0.1735 -0.5624  0.1310
  299MOL0     C39389   6.343   4.342   4.248  0.8545 -0.1184 -0.7845
  299MOL0     C39390   6.806   4.364   4.322  0.5143  0.1203 -0.2293
  299MOL0     C39391   6.936   4.309   4.296 -0.1205  0.3772 -0.1582
  299MOL0     C39392   7.055   4.378   4.322 -0.1510 -0.2173 -0.0225
  299MOL0     C39393   7.044   4.510   4.370 -0.1117 -0.2102  0.3773
  299MOL0     O39394   7.165   4.583   4.390  0.5189 -0.1527  0.0100
  299MOL0     C39395   7.164   4.727   4.387 -0.7289 -0.0476  0.1018
  299MOL0     C39396   7.307   4.768   4.354  0.0470 -0.6894  0.1137
  299MOL0     C39397   7.410   4.734   4.465 -0.2375  0.3400  0.5254
  299MOL0     C39398   7.545   4.809   4.479 -0.0931  0.4884 -0.3811
  299MOL0     C39399   7.616   4.830   4.353 -0.7143 -0.2652  0.5140
  299MOL0     C39400   7.675   4.857   4.249 -0.5107 -0.0464 -0.5553
  299MOL0     C39401   6.920   4.561   4.403 -1.2579 -0.3547  0.6116
  299MOL0     C39402   6.807   4.490   4.381 -0.0008  0.5454  0.5654
  299MOL0     H39403   6.570   4.210   4.036 -0.6428 -0.7392 -1.6921
  299MOL0     H39404   6.356   4.136   3.925 -0.3476  0.1807  0.4486
  299MOL0     H39405   6.142   4.099   3.832 -0.7901  0.0571 -0.8070
  299MOL0     H39406   6.173   4.276   3.814 -2.0188  2.2429  1.0164
  299MOL0     H39407   5.975   4.232   3.682  1.7940 -1.5488  0.6677
  299MOL0     H39408   5.920   4.308   3.827  2.8275  0.0425  1.3680
  299MOL0     H39409   5.837   4.117   3.927  1.0576 -2.0617  0.9899
  299MOL0     H39410   5.902   4.005   3.803  0.2775  0.3107 -0.2088
  299MOL0     H39411   5.684   4.211   3.775 -0.6734 -0.2210  1.5241
  299MOL0     H39412   5.752   4.126   3.641 -1.7550  1.5684 -0.7484
  299MOL0     H39413   5.701   3.904   3.741  3.9145  2.4186 -0.1144
  299MOL0     H39414   5.555   3.987   3.687  0.5293  1.9093 -0.2033
  299MOL0     H39415   5.508   4.086   3.901 -0.1280 -0.6221 -3.0055
  299MOL0     H39416   5.628   3.984   3.978 -1.0660  2.4610 -0.1143
  299MOL0     H39417   5.415   3.854   3.808 -0.7934 -1.1757  0.3906
  299MOL0     H39418   5.516   3.783   3.933 -1.5641 -1.6080 -2.1005
  299MOL0     H39419   5.309   4.007   4.011  1.2138  0.5476 -1.0461
  299MOL0     H39420   5.396   3.899   4.113 -2.3366  0.4426  0.9263
  299MOL0     H39421   5.143   3.878   3.813 -1.4031 -0.2685  0.0253
  299MOL0     H39422   4.910   3.597   3.830  1.1882 -0.1912  0.8348
  299MOL0     H39423   4.925   3.747   3.745 -1.5044  0.1570 -0.9322
  299MOL0     H39424   4.795   3.859   3.937  3.8575  0.6070 -2.0460
  299MOL0     H39425   4.791   3.694   4.012  0.5369 -2.8927 -1.3483
  299MOL0     H39426   4.630   3.795   3.789  0.0732  0.1174  0.6321
  299MOL0     H39427   4.682   3.629   3.772  2.1879 -0.7984  0.2913
  299MOL0     H39428   4.508   3.755   3.993 -0.5812  0.1146 -0.0649
  299MOL0     H39429   4.591   3.592   4.002  0.1077 -1.2032 -1.9652
  299MOL0     H39430   4.362   3.633   4.108  1.0161  2.4690 -2.5122
  299MOL0     H39431   4.124   3.622   4.178  0.2073  0.0519 -0.4186
  299MOL0     H39432   3.687   3.793   4.056 -0.8069  1.6444 -2.1104
  299MOL0     H39433   3.440   3.772   4.132 -0.8134  1.0755 -1.9617
  299MOL0     H39434   3.264   3.344   4.105  1.3187  0.1556 -1.4161
  299MOL0     H39435   3.193   3.434   3.967 -0.9391 -2.4611 -0.2406
  299MOL0     H39436   3.014   3.526   4.122  2.5127  1.6429  0.0117
  299MOL0     H39437   3.111   3.455   4.256  0.7401  1.7132  0.3254
  299MOL0     H39438   3.077   3.238   4.180  0.3307  0.8146 -0.5481
  299MOL0     H39439   2.996   3.289   4.035  1.9166 -1.4838 -0.3675
  299MOL0     H39440   2.898   3.339   4.317  2.5110  1.1302 -0.9940
  299MOL0     H39441   2.815   3.409   4.173 -2.6841 -0.4509  0.8155
  299MOL0     H39442   2.826   3.118   4.213 -0.1473  0.2649 -0.2732
  299MOL0     H39443   2.739   3.201   4.087  2.0817 -1.3541 -0.4296
  299MOL0     H39444   2.634   3.332   4.290  0.5741  0.5823 -3.0623
  299MOL0     H39445   2.685   3.187   4.385 -0.3097 -1.8591 -0.7009
  299MOL0     H39446   2.502   3.196   4.153  0.9115  0.7399 -0.1311
  299MOL0     H39447   2.572   3.038   4.210  0.6558  0.5628  0.3154
  299MOL0     H39448   2.460   3.072   4.427 -0.5920  1.1833  0.7322
  299MOL0     H39449   2.336   3.080   4.300  0.8420 -0.7369 -1.2301
  299MOL0     H39450   3.425   3.383   3.941 -0.2695  0.3881  0.2869
  299MOL0     H39451   3.644   3.400   3.880 -0.1392  0.7988 -0.8167
  299MOL0     H39452   4.001   3.595   3.771 -0.8913 -0.9575  1.1954
  299MOL0     H39453   4.239   3.605   3.700 -1.0065 -0.9938  0.0455
  299MOL0     H39454   6.125   4.326   4.219 -0.1121 -1.3323 -0.2518
  299MOL0     H39455   6.338   4.395   4.342 -2.7470 -2.7644  0.7599
  299MOL0     H39456   6.934   4.206   4.261 -1.1068 -0.9410  3.3708
  299MOL0     H39457   7.152   4.332   4.304  1.9360  3.3103  1.2102
  299MOL0     H39458   7.145   4.757   4.490 -2.1752 -1.0749  0.1477
  299MOL0     H39459   7.085   4.768   4.324 -0.2241 -0.2103 -0.6487
  299MOL0     H39460   7.336   4.711   4.265 -2.6017 -1.7045 -0.1668
  299MOL0     H39461   7.316   4.877   4.340  1.7609 -0.4808  2.2916
  299MOL0     H39462   7.431   4.627   4.460 -0.0964  0.3862 -3.3282
  299MOL0     H39463   7.355   4.747   4.559 -1.2877  1.1853 -0.1785
  299MOL0     H39464   7.515   4.906   4.521 -1.0934  0.3605 -0.7705
  299MOL0     H39465   7.611   4.755   4.548 -0.1405  3.2398  2.0166
  299MOL0     H39466   7.715   4.889   4.155  0.4406 -0.5553 -0.3306
  299MOL0     H39467   6.915   4.665   4.433 -1.5139  0.5023 -2.0887
  299MOL0     H39468   6.713   4.542   4.397 -0.1415  0.6062 -0.3794
  300MOL0     O39469   3.327   6.801   1.092 -0.0306 -0.0139 -0.0990
  300MOL0     C39470   3.408   6.744   1.023  1.0354  1.2866 -0.0517
  300MOL0     O39471   3.376   6.679   0.899  0.1694 -0.4589  0.1421
  300MOL0     C39472   3.249   6.701   0.843 -0.2235 -0.3303 -0.5436
  300MOL0     C39473   3.224   6.823   0.784  0.5684 -0.4999  0.1583
  300MOL0     C39474   3.091   6.842   0.737 -0.7867  0.0442 -0.5175
  300MOL0     C39475   2.987   6.757   0.772  0.0629 -0.1393  0.6810
  300MOL0     O39476   2.860   6.797   0.740 -0.4555 -0.3635  0.6503
  300MOL0     C39477   2.790   6.863   0.843 -0.2366  0.4910  0.3042
  300MOL0     C39478   2.692   6.964   0.801  0.1362 -0.2938  0.0931
  300MOL0     C39479   2.762   7.080   0.727 -0.2329  0.2268  0.1727
  300MOL0     C39480   2.655   7.182   0.665 -1.0140 -0.6836 -0.1986
  300MOL0     C39481   2.579   7.122   0.541  0.3656 -0.2857  0.6635
  300MOL0     C39482   2.492   7.232   0.481 -0.0224 -0.4551  0.0957
  300MOL0     C39483   2.430   7.187   0.340  0.7658  0.3053 -0.5801
  300MOL0     C39484   2.381   7.309   0.256  0.6320 -0.0824  0.4368
  300MOL0     N39485   2.480   7.399   0.199 -0.0592  0.2490  0.0876
  300MOL0     C39486   2.586   7.368   0.115 -0.0714  0.5241  0.3051
  300MOL0     C39487   2.631   7.487   0.070 -0.1708 -0.0792 -0.2092
  300MOL0     C39488   2.735   7.517  -0.032  0.6904 -0.0232 -0.0620
  300MOL0     C39489   2.808   7.389  -0.074 -0.6465  0.3783 -0.4288
  300MOL0     C39490   2.897   7.432  -0.194  0.0225  0.3563 -0.3635
  300MOL0     C39491   2.988   7.321  -0.234  0.3409  1.1318  0.1861
  300MOL0     O39492   3.113   7.367  -0.280  0.0369 -0.6893  0.8268
  300MOL0     C39493   3.216   7.280  -0.306 -0.1969  0.2012  0.2689
  300MOL0     C39494   3.335   7.336  -0.356  0.3919  0.1147 -1.0069
  300MOL0     C39495   3.441   7.257  -0.390  0.4264 -0.7234  0.0894
  300MOL0     C39496   3.432   7.120  -0.367 -0.8583  0.1047 -0.4575
  300MOL0     C39497   3.549   7.035  -0.414  0.1481 -0.1092 -0.5348
  300MOL0     O39498   3.664   7.103  -0.446  0.7269 -0.4955  0.4172
  300MOL0     C39499   3.774   7.030  -0.474 -0.1701 -0.0596 -0.2339
  300MOL0     C39500   3.840   6.973  -0.362  0.0981 -0.5867  0.7194
  300MOL0     C39501   3.948   6.889  -0.375  0.0309  0.0461 -0.5286
  300MOL0     C39502   3.990   6.846  -0.509 -0.0302  0.4531  0.4625
  300MOL0     O39503   4.091   6.767  -0.549  1.0482  0.2984 -0.3853
  300MOL0     C39504   4.176   6.733  -0.444 -0.6139 -0.0223 -1.6477
  300MOL0     C39505   4.295   6.643  -0.493  0.1284 -0.2756 -1.1356
  300MOL0     C39506   4.406   6.725  -0.556 -0.1532 -0.7278  0.4001
  300MOL0     C39507   4.542   6.644  -0.589 -0.8249 -0.7565 -0.2311
  300MOL0     C39508   4.654   6.720  -0.655 -0.4184 -0.3131 -0.5273
  300MOL0     C39509   4.622   6.793  -0.784  0.1141  0.2092  0.2170
  300MOL0     C39510   4.742   6.867  -0.852 -0.1371  0.5823  0.7881
  300MOL0     C39511   4.714   6.917  -0.997  0.2304 -0.4519 -0.8973
  300MOL0    Cl39512   4.580   7.030  -0.989 -0.2544  0.1309 -0.2077
  300MOL0     C39513   3.913   6.894  -0.612 -0.0275  0.1020  0.9562
  300MOL0     C39514   3.812   6.992  -0.598 -1.1196 -0.0475 -0.2250
  300MOL0     O39515   3.531   6.917  -0.423 -0.4844  0.7570  0.1470
  300MOL0     C39516   3.316   7.066  -0.316  0.2237  0.4714 -0.1098
  300MOL0     C39517   3.214   7.145  -0.273 -0.5242 -0.3546  0.2789
  300MOL0     N39518   2.549   7.586   0.122  0.0550  0.7036 -0.3351
  300MOL0     N39519   2.472   7.536   0.212  0.2298 -0.8316  0.1367
  300MOL0     C39520   3.012   6.650   0.852 -1.1050  0.1767 -0.2803
  300MOL0     C39521   3.140   6.607   0.876 -0.6400  0.6804 -0.5763
  300MOL0     C39522   3.547   6.743   1.075 -0.1053 -0.6140 -0.6454
  300MOL0     C39523   3.581   6.778   1.207 -0.9357 -0.1435  0.6853
  300MOL0     C39524   3.714   6.797   1.247 -0.0280  0.1737 -0.0557
  300MOL0     C39525   3.815   6.743   1.158 -0.8344  0.4246  0.3773
  300MOL0     O39526   3.946   6.731   1.198  0.2447  0.6164  0.0657
  300MOL0     C39527   4.011   6.838   1.263 -0.1174 -0.4010 -0.6364
  300MOL0     C39528   4.152   6.837   1.216  0.6871 -0.0304  0.0407
  300MOL0     C39529   4.230   6.957   1.231 -0.3742  0.2035 -0.6178
  300MOL0     C39530   4.376   6.948   1.168  0.4972  0.3894  0.1063
  300MOL0     C39531   4.384   6.912   1.025  0.1748 -0.6301 -0.2055
  300MOL0     C39532   4.378   6.862   0.916 -0.5788  0.1212  0.3409
  300MOL0     C39533   3.784   6.702   1.033  0.9544 -0.0506  0.3716
  300MOL0     C39534   3.649   6.712   0.992 -0.0894 -0.1728  0.2506
  300MOL0     H39535   3.305   6.893   0.764  3.9254 -4.2503 -0.7851
  300MOL0     H39536   3.076   6.932   0.678 -0.1644  0.1773 -0.4757
  300MOL0     H39537   2.856   6.914   0.913 -2.0702  2.6011  0.6181
  300MOL0     H39538   2.741   6.783   0.898  1.4203 -0.1997  0.8333
  300MOL0     H39539   2.634   6.995   0.889 -0.2411 -0.1009 -0.2238
  300MOL0     H39540   2.624   6.917   0.730  0.9935 -1.1888 -0.1689
  300MOL0     H39541   2.827   7.044   0.647  0.3594  3.7462 -1.0918
  300MOL0     H39542   2.820   7.132   0.804 -0.9281  0.0036  0.8541
  300MOL0     H39543   2.591   7.229   0.741  4.3982  2.6379  2.9765
  300MOL0     H39544   2.708   7.268   0.626 -0.3397 -0.9579  0.0939
  300MOL0     H39545   2.519   7.040   0.583 -1.4517  0.1634 -0.9568
  300MOL0     H39546   2.647   7.082   0.465  0.8345  0.8777  0.4432
  300MOL0     H39547   2.555   7.319   0.461 -0.5470 -0.0876  0.0036
  300MOL0     H39548   2.416   7.266   0.552 -1.8080 -4.0345  0.1124
  300MOL0     H39549   2.495   7.121   0.281 -1.1691 -1.8107 -0.4524
  300MOL0     H39550   2.348   7.115   0.350  2.4368 -1.6655 -0.3358
  300MOL0     H39551   2.320   7.382   0.309  2.4773  0.5540  1.7832
  300MOL0     H39552   2.331   7.271   0.166  1.9487  2.3150 -1.4057
  300MOL0     H39553   2.627   7.269   0.095  0.7758  1.0395 -0.5881
  300MOL0     H39554   2.804   7.595   0.001 -0.7862  1.2144  0.2498
  300MOL0     H39555   2.672   7.552  -0.114 -1.3815  0.3345  1.5907
  300MOL0     H39556   2.734   7.311  -0.094 -0.2168 -0.8409  2.3235
  300MOL0     H39557   2.867   7.357   0.012 -1.6075  0.0824  0.1329
  300MOL0     H39558   2.822   7.456  -0.270 -0.6260 -0.8353 -0.1157
  300MOL0     H39559   2.948   7.527  -0.175 -0.7471  0.5792  0.6574
  300MOL0     H39560   2.943   7.250  -0.304  1.0226  1.1369 -0.2725
  300MOL0     H39561   3.003   7.253  -0.149  1.6528 -2.0115 -2.3156
  300MOL0     H39562   3.348   7.444  -0.363  0.7762  0.3417  1.8802
  300MOL0     H39563   3.529   7.313  -0.420 -0.9552  2.0878  0.9976
  300MOL0     H39564   3.801   7.007  -0.267 -0.4658  0.6780  0.0582
  300MOL0     H39565   4.005   6.857  -0.289  0.6243  0.5047 -0.7425
  300MOL0     H39566   4.126   6.681  -0.362  2.2017  0.5837  0.6432
  300MOL0     H39567   4.211   6.822  -0.390 -0.7802  0.4197 -2.2609
  300MOL0     H39568   4.251   6.574  -0.566 -0.3971  2.3375 -3.5083
  300MOL0     H39569   4.331   6.583  -0.410 -0.0495 -0.3030 -1.0772
  300MOL0     H39570   4.421   6.820  -0.504  1.9503 -1.1649  0.6669
  300MOL0     H39571   4.377   6.761  -0.655 -0.6146  0.1544  0.8431
  300MOL0     H39572   4.583   6.605  -0.496  0.8797  0.6901 -0.3271
  300MOL0     H39573   4.520   6.556  -0.651  0.0458 -1.8167  0.9074
  300MOL0     H39574   4.743   6.657  -0.671  0.7222  1.4105 -1.2353
  300MOL0     H39575   4.679   6.801  -0.586  1.2856  0.1787 -1.6657
  300MOL0     H39576   4.539   6.862  -0.767  0.3315  0.1113  1.8395
  300MOL0     H39577   4.583   6.711  -0.844  0.3186  0.2154  0.0744
  300MOL0     H39578   4.774   6.955  -0.795 -0.5428  3.1943 -2.6438
  300MOL0     H39579   4.832   6.805  -0.858  0.0979  0.9991 -0.2575
  300MOL0     H39580   4.691   6.831  -1.060 -0.7898 -0.1394 -0.9661
  300MOL0     H39581   4.806   6.966  -1.029  0.4149 -0.0082  0.2341
  300MOL0     H39582   3.928   6.846  -0.708 -0.8252 -0.9466  1.3384
  300MOL0     H39583   3.767   7.026  -0.691 -1.7279 -2.6791 -0.9946
  300MOL0     H39584   3.306   6.958  -0.309  1.5028  0.2533 -1.0518
  300MOL0     H39585   3.124   7.096  -0.238 -1.1856 -2.5978 -3.8757
  300MOL0     H39586   2.940   6.585   0.900  0.2836 -0.5849  0.8628
  300MOL0     H39587   3.159   6.524   0.944  2.7465 -0.2748 -2.4279
  300MOL0     H39588   3.506   6.804   1.280 -2.1466  0.3151 -0.6753
  300MOL0     H39589   3.735   6.826   1.349 -2.5465  1.0875  0.2704
  300MOL0     H39590   4.011   6.835   1.373  1.7012 -0.5828 -0.6243
  300MOL0     H39591   3.959   6.930   1.236 -2.1417 -1.4605 -0.5695
  300MOL0     H39592   4.205   6.752   1.260 -2.2720 -2.1467 -0.1898
  300MOL0     H39593   4.139   6.825   1.108 -0.9404  1.2356  0.0512
  300MOL0     H39594   4.226   6.985   1.337  1.0539 -0.6231 -0.3147
  300MOL0     H39595   4.173   7.036   1.182 -1.4087  0.3956  0.8215
  300MOL0     H39596   4.428   7.043   1.187 -0.9683  1.0532  1.0159
  300MOL0     H39597   4.436   6.875   1.223 -0.7668 -0.6434  0.1580
  300MOL0     H39598   4.375   6.818   0.818 -0.6980  1.8100 -0.4545
  300MOL0     H39599   3.860   6.655   0.971 -1.2442 -1.8823 -1.1097
  300MOL0     H39600   3.623   6.680   0.892 -1.4905  2.0756 -0.1531
  301MOL0     O39601   6.151   8.641   5.333 -0.3824  0.0385 -0.2549
  301MOL0     C39602   6.155   8.763   5.343 -0.6011  0.1861  0.2397
  301MOL0     O39603   6.050   8.846   5.335  0.3514 -0.1263  0.8716
  301MOL0     C39604   5.925   8.805   5.301  0.5845 -0.1805  0.2312
  301MOL0     C39605   5.858   8.678   5.319 -1.1189 -0.0560  0.2618
  301MOL0     C39606   5.726   8.666   5.270 -0.3070  0.1527  0.4528
  301MOL0     C39607   5.646   8.772   5.225  0.2522  0.2043  0.3835
  301MOL0     O39608   5.518   8.748   5.216 -0.1032  0.0297 -0.9590
  301MOL0     C39609   5.422   8.856   5.206 -1.4611 -0.3635 -0.0292
  301MOL0     C39610   5.292   8.806   5.140 -0.0367  0.4388  0.2623
  301MOL0     C39611   5.200   8.922   5.101 -0.1946 -0.0448 -0.4615
  301MOL0     C39612   5.085   8.886   4.999 -0.1985 -0.4576  0.4517
  301MOL0     C39613   4.970   8.989   5.018 -1.1981  0.0042  0.2000
  301MOL0     C39614   4.857   8.959   4.921  0.1127 -0.2046  0.0358
  301MOL0     C39615   4.789   8.817   4.938  0.1435 -0.5884  0.0829
  301MOL0     C39616   4.727   8.787   5.072  0.2249 -0.2182 -0.9062
  301MOL0     N39617   4.607   8.851   5.121  0.1453  0.2916  0.1306
  301MOL0     C39618   4.485   8.792   5.090  0.0215 -0.3640  0.0938
  301MOL0     C39619   4.397   8.885   5.135  0.4653 -0.3376  0.6525
  301MOL0     C39620   4.251   8.858   5.124  0.5158  0.8333  0.1679
  301MOL0     C39621   4.217   8.756   5.233 -0.1330 -0.0900 -0.3031
  301MOL0     C39622   4.074   8.691   5.214  0.3335  0.4942 -0.2418
  301MOL0     C39623   3.967   8.793   5.240 -0.1624  0.7969  0.1909
  301MOL0     O39624   3.845   8.739   5.181 -0.2560  0.0622 -0.3066
  301MOL0     C39625   3.745   8.822   5.142 -0.4033  0.0052  0.1446
  301MOL0     C39626   3.719   8.944   5.209  0.3790  0.3204 -0.9397
  301MOL0     C39627   3.607   9.021   5.177  0.2423 -0.0915  0.1089
  301MOL0     C39628   3.520   8.980   5.074  0.0235  0.1638  0.4869
  301MOL0     C39629   3.403   9.069   5.035  0.2506  0.1522 -0.0503
  301MOL0     O39630   3.325   9.021   4.933  0.6664 -1.1015  0.3732
  301MOL0     C39631   3.211   9.091   4.914  0.2377  0.5790 -0.1574
  301MOL0     C39632   3.214   9.217   4.853 -0.1829 -0.3941 -0.5145
  301MOL0     C39633   3.098   9.292   4.825  0.0200  0.8849  0.1497
  301MOL0     C39634   2.972   9.224   4.841  0.0445 -0.7416  0.0239
  301MOL0     O39635   2.855   9.282   4.808 -0.8549  0.0569 -0.0432
  301MOL0     C39636   2.858   9.409   4.732 -0.3246  0.6459  0.3352
  301MOL0     C39637   2.715   9.459   4.711 -0.4575 -0.1720  0.1832
  301MOL0     C39638   2.627   9.471   4.834 -0.4533  0.1599  0.0545
  301MOL0     C39639   2.486   9.528   4.825  0.0636  0.9796  0.2969
  301MOL0     C39640   2.385   9.416   4.791  0.1151  0.4124  0.0442
  301MOL0     C39641   2.343   9.342   4.916  0.0849 -0.0066 -0.4415
  301MOL0     C39642   2.255   9.213   4.886 -0.2492  0.2098 -0.6264
  301MOL0     C39643   2.182   9.187   5.018 -0.0579 -0.3183  1.0236
  301MOL0    Cl39644   2.306   9.113   5.129  0.3742  0.1723 -0.3881
  301MOL0     C39645   2.972   9.098   4.899  0.2644  0.7567 -0.5324
  301MOL0     C39646   3.083   9.034   4.941 -0.8465  0.0407  0.0937
  301MOL0     O39647   3.374   9.162   5.112 -0.9328  0.6980  0.1081
  301MOL0     C39648   3.550   8.859   5.008  0.6185 -0.0294  0.6282
  301MOL0     C39649   3.670   8.783   5.037  0.2823 -0.2607 -0.9850
  301MOL0     N39650   4.462   8.998   5.175  1.5655  0.1207 -0.4597
  301MOL0     N39651   4.589   8.978   5.166 -0.4163 -0.1180  0.1499
  301MOL0     C39652   5.710   8.897   5.207 -0.3438  0.2820  0.2747
  301MOL0     C39653   5.845   8.906   5.244 -0.1198  0.6543 -0.2892
  301MOL0     C39654   6.284   8.835   5.378 -0.4914  0.6193 -0.3937
  301MOL0     C39655   6.408   8.764   5.371  0.5907 -0.0334 -0.7212
  301MOL0     C39656   6.526   8.832   5.400  0.3020  0.7503 -0.0114
  301MOL0     C39657   6.520   8.969   5.438  0.1283  0.1227  0.6372
  301MOL0     O39658   6.629   9.036   5.484 -0.2307 -0.4822  0.7952
  301MOL0     C39659   6.760   8.981   5.473  0.6021 -0.2487  0.0317
  301MOL0     C39660   6.865   9.094   5.462 -1.0962  0.4085 -0.0297
  301MOL0     C39661   7.003   9.036   5.421  0.3796  1.2482 -0.3857
  301MOL0     C39662   7.113   9.126   5.464 -0.9885  0.3779  0.4313
  301MOL0     C39663   7.245   9.075   5.422  0.4870  0.5906 -0.9185
  301MOL0     C39664   7.354   9.024   5.391  0.0027  0.6685  0.3283
  301MOL0     C39665   6.405   9.038   5.429 -0.6642  0.0722  0.4631
  301MOL0     C39666   6.289   8.973   5.398  0.3707  0.0655 -0.6156
  301MOL0     H39667   5.917   8.603   5.371  1.4239  1.2468 -0.5830
  301MOL0     H39668   5.685   8.566   5.279  0.3114 -0.1457  0.0349
  301MOL0     H39669   5.458   8.937   5.141 -1.9557  1.8961  2.3317
  301MOL0     H39670   5.405   8.894   5.307  0.7400 -0.4759  0.4458
  301MOL0     H39671   5.228   8.741   5.200 -1.9143 -0.6516 -2.6949
  301MOL0     H39672   5.314   8.755   5.046  0.0984  0.9021  0.0425
  301MOL0     H39673   5.262   8.994   5.048 -1.5895 -1.0468 -3.7107
  301MOL0     H39674   5.153   8.957   5.194 -0.9433 -3.5359  0.6562
  301MOL0     H39675   5.130   8.878   4.900  0.8502  1.3545  0.7331
  301MOL0     H39676   5.041   8.791   5.032  0.3989 -0.6594  0.6629
  301MOL0     H39677   5.006   9.087   4.988 -0.7867  0.1183  1.0449
  301MOL0     H39678   4.932   8.995   5.120  3.6017  0.5173  2.2343
  301MOL0     H39679   4.909   8.959   4.824  0.0024  0.9950 -0.0339
  301MOL0     H39680   4.780   9.037   4.919 -0.7973 -1.0859 -0.1284
  301MOL0     H39681   4.705   8.806   4.868  0.6144  0.9068 -0.7613
  301MOL0     H39682   4.862   8.739   4.917  1.7813  0.8303  0.2751
  301MOL0     H39683   4.801   8.799   5.151 -1.7220  0.4558  0.8997
  301MOL0     H39684   4.703   8.681   5.077 -0.6895  0.0176 -0.0081
  301MOL0     H39685   4.465   8.695   5.047 -1.4248  1.4743 -3.7973
  301MOL0     H39686   4.224   8.831   5.021 -2.6853  2.1367  0.5615
  301MOL0     H39687   4.193   8.950   5.138 -2.3267 -1.1748  2.8415
  301MOL0     H39688   4.215   8.799   5.333 -0.6414 -2.0643  0.5708
  301MOL0     H39689   4.288   8.673   5.240  4.0887  3.3072  2.0486
  301MOL0     H39690   4.078   8.651   5.113 -0.6319 -0.5613  0.1053
  301MOL0     H39691   4.045   8.611   5.284  2.5004  0.0809  0.2614
  301MOL0     H39692   3.994   8.888   5.193 -1.2351  1.6832  1.2843
  301MOL0     H39693   3.963   8.815   5.348  3.5170 -1.6322  1.0089
  301MOL0     H39694   3.777   8.979   5.294  4.3844  0.0276 -3.3350
  301MOL0     H39695   3.586   9.108   5.239  3.6810  0.8022  0.2333
  301MOL0     H39696   3.309   9.264   4.828 -0.8819  1.6114  0.3615
  301MOL0     H39697   3.110   9.383   4.767  0.6017 -1.8739 -4.5135
  301MOL0     H39698   2.915   9.406   4.639 -0.3719 -0.9947  0.3349
  301MOL0     H39699   2.897   9.487   4.798  1.4634  0.3749 -0.3618
  301MOL0     H39700   2.662   9.406   4.631  0.2248 -0.1183 -0.3211
  301MOL0     H39701   2.730   9.561   4.676  1.0566 -0.0879  1.0035
  301MOL0     H39702   2.695   9.532   4.894  3.0707 -0.9226 -2.4916
  301MOL0     H39703   2.618   9.371   4.878  0.2470 -0.3950 -1.0172
  301MOL0     H39704   2.459   9.585   4.915 -1.5070 -0.6233  0.8966
  301MOL0     H39705   2.481   9.595   4.739 -0.6282 -0.7157 -1.0391
  301MOL0     H39706   2.427   9.345   4.719  1.3157  1.6908 -0.5540
  301MOL0     H39707   2.294   9.459   4.748 -0.7859 -1.4268 -0.0184
  301MOL0     H39708   2.295   9.415   4.982  0.4481 -0.4630  0.3313
  301MOL0     H39709   2.422   9.306   4.982 -1.3166 -0.6837  0.9266
  301MOL0     H39710   2.187   9.251   4.809  0.5169  1.5518 -0.6572
  301MOL0     H39711   2.308   9.124   4.849  0.1057 -0.3059  1.0522
  301MOL0     H39712   2.092   9.127   5.000 -0.2404  0.8044 -2.6797
  301MOL0     H39713   2.147   9.270   5.079 -1.7225 -1.4398  1.6843
  301MOL0     H39714   2.874   9.053   4.905  0.0949  1.0038 -1.2906
  301MOL0     H39715   3.070   8.931   4.973 -0.0979  0.0240  0.3424
  301MOL0     H39716   3.484   8.825   4.929 -0.9569  1.4369  1.2553
  301MOL0     H39717   3.696   8.687   4.993  0.5667  1.3630 -4.7499
  301MOL0     H39718   5.650   8.986   5.193  1.1762  1.5971  1.6390
  301MOL0     H39719   5.899   8.998   5.223  1.1246 -0.0853 -0.4238
  301MOL0     H39720   6.414   8.656   5.358  1.9135  0.1223 -1.5917
  301MOL0     H39721   6.616   8.775   5.417 -0.6241 -1.1292 -1.0687
  301MOL0     H39722   6.775   8.933   5.376 -2.4428 -0.9956 -0.1572
  301MOL0     H39723   6.786   8.917   5.558 -1.5814 -1.0460  0.1604
  301MOL0     H39724   6.840   9.174   5.392  1.5645  0.8942 -0.5354
  301MOL0     H39725   6.878   9.145   5.558  0.8105  2.6515 -1.3731
  301MOL0     H39726   7.008   9.015   5.314 -1.0832  0.0144 -0.2362
  301MOL0     H39727   7.024   8.943   5.474  1.2009  1.1651 -0.8372
  301MOL0     H39728   7.109   9.227   5.422  0.5227 -0.5040 -2.0479
  301MOL0     H39729   7.109   9.131   5.573  0.3903  0.0199  0.5118
  301MOL0     H39730   7.450   8.983   5.369  0.4094  1.0363  1.3597
  301MOL0     H39731   6.398   9.145   5.445 -0.8343 -0.1929  2.4665
  301MOL0     H39732   6.197   9.029   5.404  1.4492  1.7774  0.6456
  302MOL0     O39733   8.909   4.513   9.726 -0.3214 -0.2519 -0.3171
  302MOL0     C39734   8.830   4.609   9.732  0.4850 -0.2726 -0.8308
  302MOL0     O39735   8.865   4.743   9.752 -0.2380  0.0884  0.4294
  302MOL0     C39736   8.998   4.778   9.786 -0.0055 -0.3336 -1.3355
  302MOL0     C39737   9.028   4.830   9.911 -0.1988  0.4426 -0.0483
  302MOL0     C39738   9.156   4.875   9.940 -1.2522  0.1598 -0.1360
  302MOL0     C39739   9.262   4.881   9.852 -0.7712  0.2632  0.0762
  302MOL0     O39740   9.398   4.911   9.887  0.7309 -0.3266  0.0629
  302MOL0     C39741   9.410   5.050   9.899  0.3545  0.6063 -0.1289
  302MOL0     C39742   9.526   5.062   9.993  0.3252  0.6027  0.7474
  302MOL0     C39743   9.576   5.208  10.011  0.7247 -0.2634 -0.6122
  302MOL0     C39744   9.474   5.318  10.082  0.3018  0.8872 -0.8473
  302MOL0     C39745   9.400   5.276  10.213  0.2402  0.3990  0.0229
  302MOL0     C39746   9.487   5.226  10.329 -0.6587 -0.1838 -0.7577
  302MOL0     C39747   9.413   5.173  10.450  0.1571  0.7229 -0.8182
  302MOL0     C39748   9.267   5.226  10.492  0.1834 -0.3882 -0.4964
  302MOL0     N39749   9.174   5.120  10.533 -0.5747 -0.0118  0.5227
  302MOL0     C39750   9.055   5.091  10.474  0.4489  0.7187  1.1459
  302MOL0     C39751   9.011   4.983  10.538 -0.5313 -0.1081 -0.5629
  302MOL0     C39752   8.881   4.907  10.517 -0.1847 -0.5422 -0.0435
  302MOL0     C39753   8.884   4.816  10.391  0.0639 -0.8269  0.3892
  302MOL0     C39754   8.780   4.709  10.402 -0.6597 -1.0719 -0.0595
  302MOL0     C39755   8.779   4.610  10.289 -0.3254  0.1778  0.2224
  302MOL0     O39756   8.708   4.652  10.170  0.2835 -0.3894 -0.3870
  302MOL0     C39757   8.572   4.664  10.189 -0.0491  1.0726 -0.0653
  302MOL0     C39758   8.494   4.614  10.297  0.3307  0.5795  0.1995
  302MOL0     C39759   8.355   4.637  10.291  0.1360 -0.1462  0.5407
  302MOL0     C39760   8.295   4.706  10.180 -0.5774  0.0977 -0.1117
  302MOL0     C39761   8.153   4.708  10.166 -0.0381 -0.5160  0.1461
  302MOL0     O39762   8.079   4.613  10.238 -0.6518  0.2387  0.5586
  302MOL0     C39763   7.941   4.596  10.244  0.0185  0.2345 -0.0582
  302MOL0     C39764   7.855   4.653  10.151  0.4107  0.4165  0.9981
  302MOL0     C39765   7.707   4.642  10.163  0.5989 -0.2511 -0.4343
  302MOL0     C39766   7.652   4.575  10.274 -1.3538  0.1547 -0.2494
  302MOL0     O39767   7.521   4.574  10.286  0.6288  0.5926  0.6332
  302MOL0     C39768   7.459   4.545  10.410  0.3498 -0.0501  0.3284
  302MOL0     C39769   7.310   4.581  10.417 -0.4367 -0.6988 -0.2632
  302MOL0     C39770   7.234   4.545  10.287 -0.2313 -0.1476 -0.1312
  302MOL0     C39771   7.085   4.542  10.312  0.2028 -0.2931 -0.8316
  302MOL0     C39772   7.018   4.483  10.191  0.1600 -0.3939 -0.5043
  302MOL0     C39773   6.864   4.524  10.191 -0.1610 -0.2789 -0.2860
  302MOL0     C39774   6.792   4.469  10.068  0.3201 -0.7583  0.5240
  302MOL0     C39775   6.851   4.519   9.939 -0.0390  0.2381  0.4929
  302MOL0    Cl39776   6.877   4.694   9.950  0.1651  0.3085 -0.4288
  302MOL0     C39777   7.741   4.519  10.366  0.0193  0.0762  0.4992
  302MOL0     C39778   7.880   4.530  10.350 -0.3029 -0.4516 -0.4037
  302MOL0     O39779   8.102   4.810  10.104  0.1917 -0.5339 -0.5936
  302MOL0     C39780   8.366   4.748  10.078 -0.1600 -0.4423 -0.4945
  302MOL0     C39781   8.506   4.737  10.083  0.6846 -0.2628  0.6841
  302MOL0     N39782   9.107   4.936  10.622  0.0683 -0.7058 -0.0466
  302MOL0     N39783   9.207   5.017  10.615 -0.2752 -0.0103 -0.5014
  302MOL0     C39784   9.230   4.835   9.722  1.0486 -0.3528  0.1579
  302MOL0     C39785   9.103   4.782   9.687 -0.4274  0.0600 -0.2387
  302MOL0     C39786   8.681   4.584   9.718 -0.8510 -0.0710  0.0484
  302MOL0     C39787   8.629   4.462   9.749 -0.0503  0.3899  0.3641
  302MOL0     C39788   8.492   4.448   9.767  0.8923 -0.7450 -0.1112
  302MOL0     C39789   8.403   4.560   9.751 -0.8809 -0.0985 -1.0579
  302MOL0     O39790   8.267   4.565   9.783  0.7806 -0.5348 -0.0463
  302MOL0     C39791   8.192   4.451   9.817  0.2263 -0.1358 -0.1244
  302MOL0     C39792   8.045   4.498   9.845  0.5823 -0.3122 -0.7573
  302MOL0     C39793   7.943   4.380   9.834  0.3212  0.7568 -0.5020
  302MOL0     C39794   7.801   4.406   9.891  0.5414  0.1484  0.5482
  302MOL0     C39795   7.716   4.460   9.789  0.1923 -0.6460 -0.3390
  302MOL0     C39796   7.628   4.509   9.715 -0.5016  0.0851 -0.1810
  302MOL0     C39797   8.453   4.680   9.701  0.1613  1.0198  0.4763
  302MOL0     C39798   8.593   4.692   9.687 -0.1531  0.4050 -0.1282
  302MOL0     H39799   8.946   4.833   9.983  2.0039  0.1931  2.6506
  302MOL0     H39800   9.188   4.886  10.043 -0.4288  0.2141 -0.3902
  302MOL0     H39801   9.323   5.101   9.942  0.7867  1.8606 -0.7052
  302MOL0     H39802   9.426   5.094   9.800 -2.5251  1.9532 -0.0882
  302MOL0     H39803   9.610   5.008   9.948  3.7418  5.5440  0.3688
  302MOL0     H39804   9.523   5.014  10.091  0.6879  0.3027  0.6145
  302MOL0     H39805   9.615   5.239   9.914  3.6617 -3.4913 -0.6622
  302MOL0     H39806   9.652   5.206  10.089  0.0766  0.5117  0.0606
  302MOL0     H39807   9.534   5.407  10.104  0.2345  0.7015  0.1564
  302MOL0     H39808   9.394   5.344  10.012 -0.0923 -0.4264 -0.9209
  302MOL0     H39809   9.328   5.199  10.184  3.2048 -1.4049 -3.3014
  302MOL0     H39810   9.342   5.366  10.233 -1.0110  0.3463 -2.8504
  302MOL0     H39811   9.551   5.313  10.348 -2.5773  1.4913 -1.5512
  302MOL0     H39812   9.550   5.141  10.301 -0.7577 -1.3871  2.2894
  302MOL0     H39813   9.399   5.066  10.436  0.7705  0.1684  2.2196
  302MOL0     H39814   9.475   5.175  10.540 -0.1359 -1.0001 -0.5556
  302MOL0     H39815   9.207   5.278  10.417 -4.0145 -0.9276  2.1837
  302MOL0     H39816   9.283   5.299  10.572  1.9164 -0.2993 -0.8683
  302MOL0     H39817   9.011   5.148  10.394  1.1032  0.4529  0.5835
  302MOL0     H39818   8.802   4.982  10.526  1.2729  0.8503  2.2815
  302MOL0     H39819   8.874   4.837  10.602  0.0586  0.1516  0.5620
  302MOL0     H39820   8.985   4.776  10.380 -0.2671 -1.0412 -2.7718
  302MOL0     H39821   8.872   4.890  10.311  0.6145  1.3546  2.2098
  302MOL0     H39822   8.792   4.659  10.499  0.3960  1.5575  1.2466
  302MOL0     H39823   8.684   4.762  10.401 -0.6786 -0.8850 -3.6743
  302MOL0     H39824   8.742   4.516  10.331  0.0826  1.3860  3.5559
  302MOL0     H39825   8.885   4.591  10.266  0.4441 -0.4188  3.7204
  302MOL0     H39826   8.520   4.562  10.389 -4.4974  0.9199  2.0326
  302MOL0     H39827   8.292   4.598  10.371 -0.9377 -0.0530 -0.2434
  302MOL0     H39828   7.897   4.708  10.067 -1.2103 -0.5702 -0.5473
  302MOL0     H39829   7.643   4.686  10.088  0.1199 -0.0388  0.0919
  302MOL0     H39830   7.509   4.589  10.497  2.5729  1.6056 -1.6554
  302MOL0     H39831   7.472   4.436  10.411 -2.6313 -0.5091 -1.1044
  302MOL0     H39832   7.304   4.690  10.425  0.3979 -0.5842 -1.0974
  302MOL0     H39833   7.265   4.542  10.510 -0.4939  0.1722  0.0818
  302MOL0     H39834   7.268   4.446  10.254  3.1303  0.6660  0.4276
  302MOL0     H39835   7.257   4.620  10.210  0.5524 -1.2649 -1.0345
  302MOL0     H39836   7.045   4.493  10.401  0.5075  0.0932 -0.4804
  302MOL0     H39837   7.059   4.647  10.321 -1.6374 -0.5393 -2.4078
  302MOL0     H39838   7.030   4.375  10.184  3.6514 -0.0835 -0.9955
  302MOL0     H39839   7.064   4.523  10.100  1.7265  0.2682  0.5308
  302MOL0     H39840   6.853   4.630  10.213 -0.1213 -0.2374 -0.4647
  302MOL0     H39841   6.822   4.476  10.280 -0.4323 -0.3353 -0.4433
  302MOL0     H39842   6.778   4.361  10.072 -0.2352 -0.7207 -0.0882
  302MOL0     H39843   6.690   4.509  10.063  1.3346  1.8375 -2.7704
  302MOL0     H39844   6.778   4.495   9.861 -1.6146  2.8267  1.0447
  302MOL0     H39845   6.943   4.462   9.920 -0.4898  0.2828 -2.2706
  302MOL0     H39846   7.700   4.470  10.453 -1.8974  0.7358  0.0102
  302MOL0     H39847   7.938   4.487  10.431  0.5793 -0.7375 -1.1642
  302MOL0     H39848   8.321   4.806   9.998  0.4001  0.1917 -0.3665
  302MOL0     H39849   8.561   4.779  10.000 -0.3037  0.5218  0.4053
  302MOL0     H39850   9.309   4.834   9.648 -0.0807 -5.3180 -1.4053
  302MOL0     H39851   9.082   4.755   9.584 -0.0491  1.0255 -0.5811
  302MOL0     H39852   8.695   4.379   9.775  0.5788  0.5036 -0.8035
  302MOL0     H39853   8.445   4.353   9.789 -2.1017 -0.0476 -2.8207
  302MOL0     H39854   8.229   4.404   9.908 -1.5553 -1.5705 -0.0713
  302MOL0     H39855   8.209   4.374   9.741  3.9499  1.5991 -1.2764
  302MOL0     H39856   8.038   4.550   9.941 -0.3447 -2.7384  0.5669
  302MOL0     H39857   8.019   4.568   9.765  2.0343  1.7373  0.4529
  302MOL0     H39858   7.981   4.295   9.891  1.4009  1.4244 -0.1850
  302MOL0     H39859   7.940   4.349   9.729  2.9049 -1.1185 -0.1258
  302MOL0     H39860   7.750   4.314   9.920 -1.5133  0.9540 -0.2781
  302MOL0     H39861   7.819   4.473   9.976  3.1382  0.1958  0.0482
  302MOL0     H39862   7.555   4.549   9.646 -0.1093  1.1775  0.0132
  302MOL0     H39863   8.382   4.759   9.680 -3.6259 -2.2551 -0.2828
  302MOL0     H39864   8.633   4.789   9.657 -0.0983  0.1236 -0.9679
  303MOL0     O39865   3.405   5.600   4.882 -0.2615 -0.2120  0.2959
  303MOL0     C39866   3.414   5.685   4.969  0.1198  0.0067 -0.0854
  303MOL0     O39867   3.529   5.761   4.999  0.0990  1.2696  0.3138
  303MOL0     C39868   3.638   5.744   4.919 -0.3571  1.4409 -0.5881
  303MOL0     C39869   3.717   5.629   4.940 -0.1463 -0.0971 -0.0900
  303MOL0     C39870   3.835   5.611   4.867  0.5266  0.0217 -0.0451
  303MOL0     C39871   3.875   5.708   4.779 -0.7485  0.2938 -0.4854
  303MOL0     O39872   3.997   5.715   4.718  0.0255 -0.2100 -0.3798
  303MOL0     C39873   4.080   5.602   4.719 -0.3837  0.2609  0.1608
  303MOL0     C39874   4.189   5.624   4.608  0.8623  0.6848 -0.5356
  303MOL0     C39875   4.130   5.632   4.464 -0.0791  0.3418  0.1408
  303MOL0     C39876   4.246   5.606   4.366  0.3675 -0.6315 -0.2742
  303MOL0     C39877   4.225   5.698   4.244 -0.4372  0.1610 -0.0536
  303MOL0     C39878   4.315   5.648   4.127  0.2891 -0.3254  0.0044
  303MOL0     C39879   4.291   5.733   3.997  0.3968  0.0462 -0.8360
  303MOL0     C39880   4.388   5.699   3.887 -0.7382 -0.5129 -0.0216
  303MOL0     N39881   4.352   5.773   3.769  0.2520  0.8704 -0.3382
  303MOL0     C39882   4.407   5.890   3.735 -0.3691  0.3957  0.3825
  303MOL0     C39883   4.339   5.931   3.630  0.4895 -1.3009  0.4089
  303MOL0     C39884   4.365   6.041   3.528 -0.2975 -0.2193 -0.2178
  303MOL0     C39885   4.231   6.097   3.471  0.7462 -0.3377 -0.3369
  303MOL0     C39886   4.178   6.203   3.565  0.4866 -0.0293 -0.9484
  303MOL0     C39887   4.038   6.266   3.513 -0.0147  0.2453  0.4729
  303MOL0     O39888   3.922   6.214   3.569  0.3337 -0.2269 -0.3236
  303MOL0     C39889   3.870   6.248   3.688  0.1475  0.9321 -1.3530
  303MOL0     C39890   3.736   6.215   3.719  0.0837 -0.2328  0.4007
  303MOL0     C39891   3.663   6.256   3.834 -0.1190  0.5471 -0.0445
  303MOL0     C39892   3.734   6.331   3.926  0.8150  0.3460 -0.5320
  303MOL0     C39893   3.666   6.360   4.053  0.1254 -0.1063  0.0344
  303MOL0     O39894   3.537   6.312   4.069 -0.0734 -0.4085 -0.1116
  303MOL0     C39895   3.460   6.334   4.184  0.0413  0.4589 -0.0062
  303MOL0     C39896   3.358   6.425   4.179 -0.5029 -0.2656  0.3070
  303MOL0     C39897   3.274   6.437   4.291 -0.0937 -0.5949 -0.1371
  303MOL0     C39898   3.289   6.361   4.403  0.6887 -0.3630  0.3724
  303MOL0     O39899   3.190   6.375   4.487 -0.0885  0.7364  0.8702
  303MOL0     C39900   3.186   6.296   4.603  0.1053 -0.1198  0.6886
  303MOL0     C39901   3.071   6.340   4.698 -0.1555  0.2682 -0.2939
  303MOL0     C39902   2.931   6.320   4.633  0.1446  0.3422 -0.6347
  303MOL0     C39903   2.826   6.339   4.746  0.8750 -0.3710 -0.3367
  303MOL0     C39904   2.689   6.371   4.696  0.6013  0.5473 -0.2446
  303MOL0     C39905   2.592   6.435   4.799  0.3064  0.5095  1.1147
  303MOL0     C39906   2.451   6.404   4.764  0.4930 -0.4470 -0.0405
  303MOL0     C39907   2.355   6.442   4.880 -0.1995  0.3633 -0.1869
  303MOL0    Cl39908   2.178   6.401   4.831 -0.5033  0.0999  0.2519
  303MOL0     C39909   3.404   6.280   4.412 -1.2648  0.5937 -0.2743
  303MOL0     C39910   3.488   6.267   4.298  0.0081  0.2250 -0.0751
  303MOL0     O39911   3.726   6.416   4.141 -0.0419 -0.1410  0.3295
  303MOL0     C39912   3.868   6.367   3.899 -0.3007  0.0868 -0.0274
  303MOL0     C39913   3.941   6.318   3.784 -0.0152  0.2161 -0.4648
  303MOL0     N39914   4.233   5.846   3.611 -0.2583  0.8390 -0.2488
  303MOL0     N39915   4.249   5.743   3.680  0.0890  0.1719 -0.5089
  303MOL0     C39916   3.794   5.820   4.758  0.5819  0.1251 -0.8301
  303MOL0     C39917   3.675   5.842   4.840 -0.2785 -0.1825  0.0509
  303MOL0     C39918   3.299   5.719   5.047 -0.0768 -1.0112  0.4983
  303MOL0     C39919   3.315   5.816   5.152  0.3418  0.5788  0.4066
  303MOL0     C39920   3.208   5.862   5.222  0.1822 -0.0460  0.1163
  303MOL0     C39921   3.069   5.816   5.195 -0.6578  0.1576  0.4347
  303MOL0     O39922   2.950   5.858   5.261 -0.7702 -0.4510  0.2912
  303MOL0     C39923   2.975   5.945   5.370  0.2887  0.9371 -0.5653
  303MOL0     C39924   2.851   5.969   5.458 -0.8592 -0.0218  0.6154
  303MOL0     C39925   2.890   6.004   5.610 -0.0100 -0.1698 -0.2938
  303MOL0     C39926   2.965   6.133   5.627  0.5484 -0.1092 -0.5630
  303MOL0     C39927   2.992   6.155   5.768  0.4418 -0.0949 -0.4931
  303MOL0     C39928   3.016   6.170   5.890 -0.1052 -0.7226  0.4129
  303MOL0     C39929   3.054   5.720   5.091 -0.6055 -0.7795 -0.0245
  303MOL0     C39930   3.172   5.676   5.014  0.2495  0.2146 -1.0572
  303MOL0     H39931   3.690   5.552   5.013 -2.5315  0.2749 -0.4962
  303MOL0     H39932   3.886   5.521   4.898 -3.3356 -1.8944  1.4186
  303MOL0     H39933   4.020   5.521   4.676 -0.5446  0.0682  0.7453
  303MOL0     H39934   4.128   5.571   4.812 -0.4774 -1.7281 -0.4066
  303MOL0     H39935   4.240   5.527   4.614  0.6438  0.5762 -0.4278
  303MOL0     H39936   4.246   5.711   4.642 -0.5788  0.7986  1.8730
  303MOL0     H39937   4.095   5.735   4.457  1.2601  0.9193  1.3758
  303MOL0     H39938   4.049   5.560   4.453  1.1013 -0.9385 -0.4269
  303MOL0     H39939   4.344   5.616   4.413 -0.8872 -0.0024  2.3779
  303MOL0     H39940   4.243   5.500   4.338  1.5087 -0.5929 -0.5695
  303MOL0     H39941   4.259   5.795   4.280  0.5267  0.3459 -1.3905
  303MOL0     H39942   4.120   5.708   4.215 -0.8916 -0.4703  1.3150
  303MOL0     H39943   4.274   5.549   4.104 -1.1473  0.7076 -2.2153
  303MOL0     H39944   4.419   5.651   4.159 -0.8743  1.0766  4.3125
  303MOL0     H39945   4.194   5.708   3.953 -0.2978  2.7848 -1.0793
  303MOL0     H39946   4.299   5.841   4.016 -0.2089  0.1098 -0.9127
  303MOL0     H39947   4.388   5.594   3.858 -0.0350 -0.3823 -0.5147
  303MOL0     H39948   4.488   5.733   3.915 -0.0933 -1.9398 -0.5120
  303MOL0     H39949   4.493   5.932   3.786 -0.7342  0.8741  0.6065
  303MOL0     H39950   4.427   6.006   3.445  0.3132  0.0596  0.1144
  303MOL0     H39951   4.419   6.121   3.579 -0.2880 -0.9369  0.9232
  303MOL0     H39952   4.155   6.023   3.444  0.4783  0.2662 -1.2864
  303MOL0     H39953   4.256   6.136   3.372 -2.2297  0.2453 -0.9810
  303MOL0     H39954   4.157   6.155   3.661  4.3689  0.8274  0.5234
  303MOL0     H39955   4.244   6.288   3.582 -0.0957 -0.3009  4.1380
  303MOL0     H39956   4.027   6.270   3.404 -1.5422 -1.8022  0.4828
  303MOL0     H39957   4.034   6.369   3.549 -1.3367  0.4276 -0.1434
  303MOL0     H39958   3.683   6.176   3.633  2.0894 -1.9331 -0.1429
  303MOL0     H39959   3.556   6.239   3.844 -0.0665 -1.1001 -1.6825
  303MOL0     H39960   3.355   6.481   4.085  0.4125  1.2684  1.1488
  303MOL0     H39961   3.182   6.491   4.271  0.9933  0.2782 -3.3941
  303MOL0     H39962   3.276   6.301   4.665  0.5321  0.8537  0.0037
  303MOL0     H39963   3.163   6.192   4.576 -1.5941  0.2410  0.6104
  303MOL0     H39964   3.091   6.444   4.727 -1.2159  0.5639 -0.5558
  303MOL0     H39965   3.075   6.277   4.787 -0.8720  1.8435  0.9047
  303MOL0     H39966   2.928   6.222   4.585  0.4080  0.5146 -1.0045
  303MOL0     H39967   2.925   6.393   4.552  0.8997  0.8329 -0.2553
  303MOL0     H39968   2.825   6.243   4.798  0.4225 -1.4900 -2.3155
  303MOL0     H39969   2.862   6.422   4.808  1.6228 -0.3721 -0.7583
  303MOL0     H39970   2.643   6.280   4.657 -4.1990  1.9545  1.3893
  303MOL0     H39971   2.706   6.439   4.612 -1.4432  0.3076 -0.9123
  303MOL0     H39972   2.607   6.543   4.809 -4.7141  1.8949 -2.3777
  303MOL0     H39973   2.616   6.391   4.897  1.3858  0.5158  0.8651
  303MOL0     H39974   2.431   6.460   4.673  1.4839 -2.0782 -1.3023
  303MOL0     H39975   2.432   6.298   4.742 -2.6076  0.2731 -1.2117
  303MOL0     H39976   2.354   6.549   4.900  2.7640  0.4252  0.1223
  303MOL0     H39977   2.393   6.392   4.970  1.7324  2.9787  0.5753
  303MOL0     H39978   3.428   6.213   4.493  3.3659 -1.3405 -2.8307
  303MOL0     H39979   3.567   6.192   4.305 -0.0211  0.3635  2.3912
  303MOL0     H39980   3.919   6.440   3.961  1.1310 -0.2496 -0.7784
  303MOL0     H39981   4.047   6.340   3.767 -0.3519  1.6545 -0.8553
  303MOL0     H39982   3.811   5.893   4.681  0.6978  0.8524 -0.1280
  303MOL0     H39983   3.629   5.939   4.828  0.9480  0.5223  0.7978
  303MOL0     H39984   3.410   5.863   5.174  0.8947 -0.4621  0.2908
  303MOL0     H39985   3.234   5.944   5.288  1.0313 -1.1459  1.2107
  303MOL0     H39986   3.007   6.041   5.328 -2.4651  1.3490 -1.9737
  303MOL0     H39987   3.053   5.902   5.434  0.1046  0.4928 -0.6356
  303MOL0     H39988   2.799   6.054   5.413  1.5411  2.2377  1.8139
  303MOL0     H39989   2.793   5.876   5.457 -0.6740 -0.1978 -2.3610
  303MOL0     H39990   2.957   5.931   5.657  1.6566  0.5120 -1.4973
  303MOL0     H39991   2.794   5.991   5.662 -1.2541  0.9112 -2.2051
  303MOL0     H39992   3.054   6.135   5.563  2.3778 -0.5817  1.8195
  303MOL0     H39993   2.901   6.216   5.598 -1.7671 -1.4883  0.2922
  303MOL0     H39994   3.041   6.171   5.995  0.2494 -0.0417  0.3333
  303MOL0     H39995   2.957   5.680   5.061 -0.0739 -0.8844 -1.6547
  303MOL0     H39996   3.168   5.604   4.933 -1.8428  0.2316 -1.0301
  304MOL0     O39997   7.180   3.711   2.204  0.2186  0.2272  0.4046
  304MOL0     C39998   7.209   3.822   2.244 -0.2971  0.7424 -0.6237
  304MOL0     O39999   7.113   3.909   2.294  0.3993  0.2942 -0.2755
  304MOL0     C40000   6.981   3.873   2.309 -0.0823  0.3689 -0.1061
  304MOL0     C40001   6.929   3.800   2.417  0.0397  0.5883 -0.1778
  304MOL0     C40002   6.788   3.784   2.429  0.1088  0.6293  1.1520
  304MOL0     C40003   6.709   3.831   2.327  0.1673  0.6138  1.0292
  304MOL0     O40004   6.574   3.804   2.352  0.4055  0.0446 -0.4292
  304MOL0     C40005   6.500   3.733   2.254 -0.4497  0.5031  0.3918
  304MOL0     C40006   6.351   3.755   2.275  0.4368 -0.2664 -0.8211
  304MOL0     C40007   6.261   3.690   2.165 -0.0701 -0.6050 -0.5031
  304MOL0     C40008   6.115   3.712   2.194 -0.4118  0.5395 -0.2535
  304MOL0     C40009   6.033   3.681   2.063 -0.7082  0.0600 -0.8943
  304MOL0     C40010   5.881   3.688   2.092  0.5667 -0.0027  0.7229
  304MOL0     C40011   5.827   3.840   2.086  0.5613 -0.0517  0.0768
  304MOL0     C40012   5.672   3.838   2.118  0.2023 -0.9374  0.4160
  304MOL0     N40013   5.598   3.797   2.000 -0.1734 -0.4223  0.3383
  304MOL0     C40014   5.538   3.668   1.993 -0.3637  0.0682 -0.4961
  304MOL0     C40015   5.456   3.675   1.885 -0.3964 -0.1767  0.2514
  304MOL0     C40016   5.381   3.551   1.820  0.4778 -0.1607  0.4900
  304MOL0     C40017   5.234   3.570   1.847 -0.4497 -0.2595  0.2254
  304MOL0     C40018   5.191   3.557   1.990  0.1698 -0.2784  0.5895
  304MOL0     C40019   5.048   3.601   2.007 -0.8472  0.3570  0.2193
  304MOL0     O40020   4.964   3.520   1.924  0.0025 -0.1151  0.2730
  304MOL0     C40021   4.832   3.515   1.945 -0.0221  0.8657 -0.5914
  304MOL0     C40022   4.757   3.608   2.020  0.2101  0.3604 -0.1835
  304MOL0     C40023   4.616   3.594   2.046  1.0230 -0.5511  0.0636
  304MOL0     C40024   4.553   3.481   1.987  0.2404 -0.1489 -0.3435
  304MOL0     C40025   4.416   3.444   2.027 -0.6922  0.5647  0.4774
  304MOL0     O40026   4.345   3.537   2.098 -0.2749 -0.9657  0.6571
  304MOL0     C40027   4.211   3.520   2.141 -0.1227  0.7284  0.5545
  304MOL0     C40028   4.123   3.407   2.130  0.2862  0.2574  0.3443
  304MOL0     C40029   3.986   3.420   2.174  0.2429  0.3418  0.3093
  304MOL0     C40030   3.936   3.531   2.238  0.2012  0.9606  0.0209
  304MOL0     O40031   3.813   3.547   2.288 -0.2437 -0.3439 -0.7286
  304MOL0     C40032   3.714   3.448   2.275 -0.0309  0.0782  0.5848
  304MOL0     C40033   3.574   3.498   2.318  0.2419 -0.0352  0.0865
  304MOL0     C40034   3.455   3.406   2.278 -0.3526  0.6978  0.1502
  304MOL0     C40035   3.320   3.463   2.312  0.3657 -0.4230  0.5945
  304MOL0     C40036   3.200   3.372   2.299 -0.1718 -1.2690  0.1291
  304MOL0     C40037   3.065   3.442   2.317  0.3577 -0.0709 -0.6232
  304MOL0     C40038   2.950   3.345   2.278  0.2494  0.6048  0.0995
  304MOL0     C40039   2.818   3.414   2.310  0.0372  0.2622 -0.0804
  304MOL0    Cl40040   2.791   3.415   2.488 -0.3105  0.1961 -0.1850
  304MOL0     C40041   4.019   3.638   2.239 -0.1361 -1.3129 -0.2796
  304MOL0     C40042   4.152   3.635   2.190  0.4731  0.1246  1.1542
  304MOL0     O40043   4.376   3.327   1.998  0.3398 -0.1696 -0.0801
  304MOL0     C40044   4.630   3.392   1.909  0.1382 -0.1967  0.3964
  304MOL0     C40045   4.763   3.415   1.888  0.4359 -0.6766  0.6474
  304MOL0     N40046   5.469   3.801   1.825 -0.1112  0.2988  0.8850
  304MOL0     N40047   5.552   3.873   1.895  0.2120 -0.6122 -0.1638
  304MOL0     C40048   6.755   3.910   2.223 -1.0822 -0.2131 -0.0650
  304MOL0     C40049   6.893   3.924   2.214  0.3061 -0.4500  0.6082
  304MOL0     C40050   7.339   3.868   2.212  1.0482  1.1542  0.5191
  304MOL0     C40051   7.430   3.793   2.133 -0.8205 -0.2691 -0.0375
  304MOL0     C40052   7.558   3.845   2.106  0.5341 -0.3900 -0.1593
  304MOL0     C40053   7.601   3.961   2.167 -0.5381 -0.4094 -0.2547
  304MOL0     O40054   7.722   4.012   2.154  0.3158  0.6766  0.6101
  304MOL0     C40055   7.822   3.932   2.085 -0.4504 -0.8557  0.0214
  304MOL0     C40056   7.957   4.005   2.103 -0.0589 -0.2446  0.4425
  304MOL0     C40057   8.068   3.934   2.021 -0.4265 -0.0288  0.9959
  304MOL0     C40058   8.182   3.881   2.100 -1.2797 -0.3296  1.0224
  304MOL0     C40059   8.241   3.994   2.170 -0.9137  0.3024 -0.5181
  304MOL0     C40060   8.301   4.073   2.233 -0.7828  0.9327 -0.2376
  304MOL0     C40061   7.506   4.041   2.235 -0.4380  0.6370  0.5943
  304MOL0     C40062   7.381   3.990   2.252  0.7064 -0.8843 -0.6406
  304MOL0     H40063   6.998   3.764   2.493  3.0814  0.1191 -2.9591
  304MOL0     H40064   6.741   3.728   2.509 -0.2186 -0.2415  0.3692
  304MOL0     H40065   6.514   3.625   2.265 -2.1086  0.4379  2.6663
  304MOL0     H40066   6.537   3.765   2.157  2.5864  1.5018  1.7336
  304MOL0     H40067   6.318   3.858   2.289 -2.5117 -1.1222 -0.8644
  304MOL0     H40068   6.337   3.692   2.363  0.1255 -1.2550 -1.5553
  304MOL0     H40069   6.287   3.586   2.140  1.7540 -0.0220 -1.1668
  304MOL0     H40070   6.286   3.745   2.074 -2.5604  2.8119  0.6698
  304MOL0     H40071   6.080   3.644   2.272 -0.9249  0.7240 -0.3213
  304MOL0     H40072   6.102   3.815   2.228  3.3600  0.4400  2.0275
  304MOL0     H40073   6.070   3.585   2.025  2.2535  1.7333 -2.6410
  304MOL0     H40074   6.060   3.768   2.003  0.4322  0.9462  0.8462
  304MOL0     H40075   5.864   3.650   2.193 -0.9760 -2.0139 -0.2272
  304MOL0     H40076   5.826   3.618   2.030  1.0626  1.7800 -1.9089
  304MOL0     H40077   5.867   3.898   2.170 -0.9090  2.8192 -1.0901
  304MOL0     H40078   5.849   3.887   1.990  0.0901  0.3333  0.1524
  304MOL0     H40079   5.639   3.937   2.149 -0.9828 -0.5803 -1.7890
  304MOL0     H40080   5.654   3.767   2.200 -3.8340 -0.9408 -0.2607
  304MOL0     H40081   5.563   3.590   2.064  0.7584 -0.9026 -1.9009
  304MOL0     H40082   5.414   3.455   1.861  0.5909 -1.4231 -2.3225
  304MOL0     H40083   5.408   3.543   1.714 -0.0703  0.6638  0.2744
  304MOL0     H40084   5.177   3.494   1.793  0.5789 -0.7880 -0.1397
  304MOL0     H40085   5.209   3.669   1.809  3.4051  1.1412  0.8974
  304MOL0     H40086   5.180   3.450   2.013 -2.7600  0.0968  1.4246
  304MOL0     H40087   5.262   3.603   2.059 -1.9842  1.9889  1.4602
  304MOL0     H40088   5.031   3.707   1.986 -0.4338  0.4810  0.5220
  304MOL0     H40089   5.016   3.599   2.111  1.6440  0.6860  1.0363
  304MOL0     H40090   4.806   3.694   2.063  1.6035 -1.0384  1.1833
  304MOL0     H40091   4.566   3.653   2.121 -2.5815 -0.9248 -1.8312
  304MOL0     H40092   4.159   3.312   2.092  0.5220 -0.0138  1.2248
  304MOL0     H40093   3.926   3.331   2.161 -0.5486  0.5837  2.0347
  304MOL0     H40094   3.733   3.366   2.344 -0.8719 -0.0057  0.7336
  304MOL0     H40095   3.707   3.417   2.171 -3.6580 -1.2366  1.0601
  304MOL0     H40096   3.563   3.601   2.282  1.8449  0.2701  0.4269
  304MOL0     H40097   3.574   3.514   2.426  1.9770  1.9987 -0.1474
  304MOL0     H40098   3.467   3.306   2.322 -1.1104  0.0415 -1.0843
  304MOL0     H40099   3.450   3.389   2.170 -1.9640 -0.2020  0.3276
  304MOL0     H40100   3.322   3.484   2.419 -3.2722 -1.5990  1.0070
  304MOL0     H40101   3.300   3.554   2.255  1.5557 -0.5402 -0.0489
  304MOL0     H40102   3.214   3.287   2.365  1.3041 -0.7993  0.4616
  304MOL0     H40103   3.206   3.324   2.200 -1.0009  0.6500 -0.9158
  304MOL0     H40104   3.055   3.526   2.247  0.1948  0.0219 -0.4881
  304MOL0     H40105   3.055   3.464   2.424  1.5612 -3.0837  0.2085
  304MOL0     H40106   2.951   3.310   2.174 -2.9816 -1.8136  0.7346
  304MOL0     H40107   2.958   3.257   2.343 -2.7689  1.6872  2.1526
  304MOL0     H40108   2.735   3.366   2.257  1.7276 -1.5882 -1.1862
  304MOL0     H40109   2.817   3.515   2.267 -0.1768  0.9629  1.4866
  304MOL0     H40110   3.976   3.725   2.288 -1.1512 -2.3613  0.7385
  304MOL0     H40111   4.200   3.732   2.177 -0.4212  0.3002 -1.5766
  304MOL0     H40112   4.585   3.306   1.860  1.5897  0.1365 -1.6403
  304MOL0     H40113   4.820   3.345   1.828 -0.9188 -0.6935 -0.6800
  304MOL0     H40114   6.683   3.967   2.164 -2.1275  0.6184  1.8901
  304MOL0     H40115   6.935   3.993   2.141  2.2061  1.0554  2.9734
  304MOL0     H40116   7.405   3.692   2.101  0.7429 -1.4598  2.2598
  304MOL0     H40117   7.614   3.787   2.033  0.2087  1.9707 -2.4286
  304MOL0     H40118   7.798   3.931   1.978 -0.7509  0.9868  0.0398
  304MOL0     H40119   7.840   3.828   2.111 -0.3416 -0.9371 -0.3618
  304MOL0     H40120   7.947   4.104   2.058 -0.9876 -0.1901  0.7550
  304MOL0     H40121   7.988   4.030   2.204  2.0778  1.9750 -0.6443
  304MOL0     H40122   8.114   4.002   1.949 -0.4776 -0.6678  0.3410
  304MOL0     H40123   8.035   3.860   1.948 -0.3946  1.6202 -0.7622
  304MOL0     H40124   8.141   3.795   2.154 -2.0178 -0.5364  0.1511
  304MOL0     H40125   8.254   3.846   2.026 -3.0506 -2.6554  0.2807
  304MOL0     H40126   8.352   4.145   2.293  0.1936 -2.4605  3.4487
  304MOL0     H40127   7.542   4.130   2.286  0.7172  1.8454 -2.1373
  304MOL0     H40128   7.313   4.051   2.310  0.9736  0.6508 -1.8638
  305MOL0     O40129   5.581  10.847   9.715 -0.3738  0.0156  0.1730
  305MOL0     C40130   5.573  10.960   9.662 -0.0325 -0.4715 -0.5223
  305MOL0     O40131   5.455  11.024   9.621 -0.0119  0.0862 -0.1709
  305MOL0     C40132   5.329  10.957   9.631  0.0619  0.5063  0.1378
  305MOL0     C40133   5.306  10.829   9.577 -0.1070 -0.3626  0.2343
  305MOL0     C40134   5.181  10.771   9.580  0.6234 -0.5997  0.6938
  305MOL0     C40135   5.071  10.838   9.642 -0.0915 -0.5427 -0.1803
  305MOL0     O40136   4.948  10.776   9.629  1.0174 -0.3325  1.1863
  305MOL0     C40137   4.832  10.862   9.653 -0.0492 -0.3817 -0.1123
  305MOL0     C40138   4.719  10.800   9.586 -0.3034  0.2069  0.5054
  305MOL0     C40139   4.586  10.886   9.591 -0.5327  0.0724 -0.0213
  305MOL0     C40140   4.462  10.797   9.577  0.5875  0.3774  0.2604
  305MOL0     C40141   4.347  10.849   9.652  1.1430  1.4055 -0.0935
  305MOL0     C40142   4.229  10.752   9.616  0.5254  0.1207 -0.0930
  305MOL0     C40143   4.106  10.795   9.693 -0.3695 -0.1445 -0.1453
  305MOL0     C40144   3.991  10.708   9.675 -0.3250 -0.0142 -0.0293
  305MOL0     N40145   3.878  10.767   9.720  0.5596  0.7242  0.3654
  305MOL0     C40146   3.843  10.817   9.845  0.0652  0.5518 -0.1369
  305MOL0     C40147   3.707  10.821   9.854 -0.3767 -0.0010 -0.6861
  305MOL0     C40148   3.632  10.849   9.975 -0.2950  0.1991  1.0780
  305MOL0     C40149   3.622  10.741  10.083  0.9960 -0.3364 -0.3556
  305MOL0     C40150   3.573  10.603  10.046 -0.0789 -0.1888 -0.1386
  305MOL0     C40151   3.428  10.594   9.996  0.0690  0.3932  0.3847
  305MOL0     O40152   3.338  10.642  10.103  0.3609  0.2459  0.7210
  305MOL0     C40153   3.203  10.617  10.102  0.3172 -0.7913  0.1343
  305MOL0     C40154   3.142  10.546   9.993  0.6224 -0.2117  0.2893
  305MOL0     C40155   3.008  10.511   9.998 -0.2265  0.2317 -1.1944
  305MOL0     C40156   2.933  10.547  10.113  0.6378 -0.3399 -0.0619
  305MOL0     C40157   2.788  10.510  10.121 -0.2402  0.8697 -0.5112
  305MOL0     O40158   2.713  10.551  10.230  0.0564  0.0012 -0.4677
  305MOL0     C40159   2.576  10.525  10.232 -0.2289  0.3255  0.4382
  305MOL0     C40160   2.538  10.472  10.353 -0.0386 -0.3336  0.1613
  305MOL0     C40161   2.404  10.436  10.375  0.2337 -0.4435 -0.2304
  305MOL0     C40162   2.304  10.468  10.288  0.8440  0.1310  0.3518
  305MOL0     O40163   2.184  10.409  10.320  0.3756 -0.0962 -0.6613
  305MOL0     C40164   2.065  10.434  10.246  0.1084 -0.2655 -0.6748
  305MOL0     C40165   1.965  10.330  10.287  0.3981  0.5648  0.0543
  305MOL0     C40166   1.832  10.355  10.211  0.8579 -0.6443 -0.1623
  305MOL0     C40167   1.729  10.257  10.267  0.0552 -0.4205 -0.2084
  305MOL0     C40168   1.589  10.253  10.208 -0.2346 -0.0016  0.5320
  305MOL0     C40169   1.512  10.125  10.243 -0.5323 -0.3908  0.2380
  305MOL0     C40170   1.364  10.148  10.216 -0.3379  0.3989  0.7907
  305MOL0     C40171   1.274  10.019  10.242 -0.4832  0.2693 -0.0807
  305MOL0    Cl40172   1.289   9.973  10.414  0.6521 -0.3846 -0.3536
  305MOL0     C40173   2.344  10.541  10.168 -0.2125  0.2939  0.2981
  305MOL0     C40174   2.481  10.563  10.135 -0.4031  0.4227 -0.3719
  305MOL0     O40175   2.745  10.456  10.019  0.1046 -0.0289  0.8016
  305MOL0     C40176   2.986  10.634  10.210  0.2785  1.0755 -0.7273
  305MOL0     C40177   3.123  10.654  10.210  0.4151  0.1028 -0.1972
  305MOL0     N40178   3.657  10.770   9.739 -0.5211  0.1686  0.5717
  305MOL0     N40179   3.757  10.742   9.654  0.2324  0.7316 -0.6574
  305MOL0     C40180   5.099  10.960   9.700 -0.1227  0.3128  0.0313
  305MOL0     C40181   5.222  11.025   9.689  0.0536 -0.2027  0.2565
  305MOL0     C40182   5.701  11.033   9.654  0.6450 -0.6473  0.2489
  305MOL0     C40183   5.815  11.008   9.737  0.7709  0.6849  1.0237
  305MOL0     C40184   5.940  11.076   9.722  0.0822  0.2710 -0.1634
  305MOL0     C40185   5.946  11.157   9.614  0.4691 -0.6961  0.4491
  305MOL0     O40186   6.075  11.202   9.593  0.2705 -0.6968  0.0952
  305MOL0     C40187   6.138  11.143   9.481  0.7273  0.3780 -0.4681
  305MOL0     C40188   6.134  11.247   9.365 -0.6699  0.2657  0.2931
  305MOL0     C40189   6.257  11.334   9.367  0.4264  0.3447 -0.3871
  305MOL0     C40190   6.242  11.473   9.300 -0.1486  0.1467 -0.5230
  305MOL0     C40191   6.221  11.460   9.153 -0.1313 -0.2603 -0.6527
  305MOL0     C40192   6.194  11.439   9.035 -0.6801  0.7287 -0.3978
  305MOL0     C40193   5.834  11.196   9.537 -0.2431  0.4912 -0.0473
  305MOL0     C40194   5.711  11.138   9.556  0.2488  0.4559  0.6028
  305MOL0     H40195   5.397  10.784   9.538  0.5564  0.0604  1.2304
  305MOL0     H40196   5.167  10.670   9.543 -0.4142 -0.0079 -0.6218
  305MOL0     H40197   4.844  10.963   9.613  1.1638 -0.7451 -0.7180
  305MOL0     H40198   4.812  10.868   9.761 -0.7330 -3.2237 -0.0018
  305MOL0     H40199   4.703  10.704   9.636  3.1811  0.5838  2.7010
  305MOL0     H40200   4.753  10.780   9.484 -2.3483  1.2268 -0.4233
  305MOL0     H40201   4.585  10.968   9.519 -1.1616  0.9913  1.0086
  305MOL0     H40202   4.589  10.932   9.690  1.6730 -0.1953  0.0981
  305MOL0     H40203   4.427  10.801   9.473  1.0609  1.9792  0.1435
  305MOL0     H40204   4.478  10.694   9.613 -5.6203 -1.5148 -1.1297
  305MOL0     H40205   4.326  10.950   9.616  0.7364  1.7361  1.0153
  305MOL0     H40206   4.366  10.847   9.760  2.3421 -2.3209 -0.2357
  305MOL0     H40207   4.264  10.649   9.629 -0.3806 -0.5068 -2.1260
  305MOL0     H40208   4.211  10.761   9.509  0.2677  0.7545  0.0021
  305MOL0     H40209   4.135  10.790   9.798 -0.7458 -1.3673 -0.0884
  305MOL0     H40210   4.089  10.896   9.653 -0.4394 -0.7591 -1.7555
  305MOL0     H40211   4.013  10.622   9.738  5.2009  1.3024  0.3114
  305MOL0     H40212   3.977  10.677   9.571  1.1774 -0.5168 -0.1030
  305MOL0     H40213   3.910  10.850   9.924  0.9901  0.9240 -1.0524
  305MOL0     H40214   3.529  10.857   9.940 -0.1285 -0.4724  0.4293
  305MOL0     H40215   3.667  10.944  10.018  0.3691 -0.1015  1.2085
  305MOL0     H40216   3.554  10.780  10.160  1.4485 -0.9275  0.3664
  305MOL0     H40217   3.720  10.730  10.129 -0.1500 -1.4186  2.0374
  305MOL0     H40218   3.638  10.571   9.964 -0.9676 -0.4149 -0.7748
  305MOL0     H40219   3.597  10.533  10.126 -0.4168  1.1530  1.1710
  305MOL0     H40220   3.411  10.488   9.971  0.7776  0.1256  1.0070
  305MOL0     H40221   3.401  10.652   9.907 -1.8314 -2.0294 -0.7570
  305MOL0     H40222   3.197  10.508   9.907 -0.8224 -3.2538  0.5797
  305MOL0     H40223   2.973  10.444   9.921 -3.1784 -0.4766  0.6144
  305MOL0     H40224   2.607  10.435  10.428 -0.3773 -2.1179 -0.3790
  305MOL0     H40225   2.379  10.372  10.459 -2.3999  1.6772  0.7234
  305MOL0     H40226   2.082  10.430  10.138 -0.0519  1.9250 -0.8097
  305MOL0     H40227   2.031  10.533  10.274  0.5827 -0.7911  1.9848
  305MOL0     H40228   1.956  10.349  10.394  1.9063  2.2557 -0.0762
  305MOL0     H40229   2.007  10.229  10.273 -4.0086 -1.5416  0.3116
  305MOL0     H40230   1.841  10.332  10.104 -1.8867 -0.7331 -0.4714
  305MOL0     H40231   1.798  10.457  10.232 -1.0885 -1.2981  0.1416
  305MOL0     H40232   1.772  10.157  10.254 -1.6383 -0.9201 -2.9591
  305MOL0     H40233   1.727  10.293  10.370  1.1372  1.2290 -0.7380
  305MOL0     H40234   1.595  10.264  10.099  4.3238 -2.1517  0.3226
  305MOL0     H40235   1.535  10.341  10.243  1.1842  1.1462 -0.0768
  305MOL0     H40236   1.519  10.104  10.350  1.6407  1.0769  0.4375
  305MOL0     H40237   1.560  10.044  10.186 -0.2977 -0.1986  0.1614
  305MOL0     H40238   1.341  10.231  10.283  2.4764 -0.3219  2.8552
  305MOL0     H40239   1.353  10.191  10.116  3.0368  2.4157  1.1275
  305MOL0     H40240   1.315   9.933  10.188  1.1405  1.5532 -0.9638
  305MOL0     H40241   1.169  10.041  10.221  0.1314  0.4717 -3.5160
  305MOL0     H40242   2.267  10.577  10.100 -0.7899 -1.2055  0.1225
  305MOL0     H40243   2.516  10.607  10.042 -1.7219  1.9977 -0.1703
  305MOL0     H40244   2.924  10.666  10.293 -1.0511 -1.3395 -0.7069
  305MOL0     H40245   3.165  10.711  10.291  1.4177  0.3144 -0.8502
  305MOL0     H40246   5.018  11.015   9.747 -0.4569 -0.1528  0.0118
  305MOL0     H40247   5.233  11.128   9.722 -0.1360 -0.2268  0.3972
  305MOL0     H40248   5.819  10.932   9.814  1.1414 -1.1179 -0.6810
  305MOL0     H40249   6.031  11.065   9.780 -0.5463  0.8962  0.9709
  305MOL0     H40250   6.093  11.049   9.447  1.8668 -0.1683 -0.5122
  305MOL0     H40251   6.237  11.104   9.504  0.2847 -0.6458 -0.2581
  305MOL0     H40252   6.138  11.195   9.269  0.8086  2.7608 -1.0934
  305MOL0     H40253   6.048  11.314   9.367 -1.5717 -0.7483 -1.8800
  305MOL0     H40254   6.336  11.280   9.313 -0.3527 -1.3732  0.1290
  305MOL0     H40255   6.291  11.345   9.470  1.0957  0.1957 -0.5883
  305MOL0     H40256   6.156  11.528   9.338 -2.1781 -1.6382 -2.2886
  305MOL0     H40257   6.339  11.522   9.312  0.3562 -1.1099  0.9337
  305MOL0     H40258   6.167  11.401   8.938 -2.0427 -0.2798  0.3452
  305MOL0     H40259   5.848  11.252   9.445 -2.2809 -0.5101 -1.0357
  305MOL0     H40260   5.625  11.164   9.494  0.4841  0.0937  0.1138
  306MOL0     O40261   0.326  11.037   0.083  0.0785  0.6085  0.2940
  306MOL0     C40262   0.327  11.103   0.182  0.3996  0.6741  0.0862
  306MOL0     O40263   0.237  11.102   0.283 -0.8162  0.7860 -0.7528
  306MOL0     C40264   0.117  11.037   0.255 -0.2391  0.3490  0.7111
  306MOL0     C40265   0.082  10.923   0.319  0.4074  0.4544  0.0206
  306MOL0     C40266  -0.035  10.869   0.291  0.8265  0.0743 -0.2540
  306MOL0     C40267  -0.120  10.920   0.197  0.3949  0.3278 -0.0475
  306MOL0     O40268  -0.241  10.859   0.183  0.6724 -0.2008 -0.2692
  306MOL0     C40269  -0.344  10.918   0.098  0.0663 -0.2200  0.0655
  306MOL0     C40270  -0.475  10.839   0.108  0.5876 -0.0631 -0.3739
  306MOL0     C40271  -0.594  10.931   0.172 -1.3309  0.7606  0.4197
  306MOL0     C40272  -0.731  10.878   0.145 -0.1601 -0.3561  0.5148
  306MOL0     C40273  -0.834  10.988   0.186 -0.7495 -0.0268 -0.5345
  306MOL0     C40274  -0.977  10.948   0.146 -0.7380  0.9829  0.0064
  306MOL0     C40275  -1.074  11.064   0.116  0.2213  0.2939  0.4210
  306MOL0     C40276  -1.222  11.016   0.116 -0.2411  0.2332  0.0180
  306MOL0     N40277  -1.310  11.130   0.083 -0.6629  0.0779  0.6716
  306MOL0     C40278  -1.420  11.164   0.156  0.2687  0.5026 -0.0552
  306MOL0     C40279  -1.493  11.252   0.076 -0.1123 -0.3363 -0.7766
  306MOL0     C40280  -1.627  11.330   0.120 -0.1835 -0.2435  0.3278
  306MOL0     C40281  -1.607  11.478   0.112  0.7749 -0.1558 -0.1325
  306MOL0     C40282  -1.503  11.542   0.202 -0.7862  0.7862  0.1804
  306MOL0     C40283  -1.477  11.695   0.197  0.3167  0.0457 -0.0549
  306MOL0     O40284  -1.589  11.778   0.231  0.9553 -0.0132 -0.6276
  306MOL0     C40285  -1.585  11.910   0.200 -0.3588 -0.7533  0.0878
  306MOL0     C40286  -1.703  11.979   0.205  0.9061 -0.0372  0.0433
  306MOL0     C40287  -1.712  12.115   0.175  0.2884 -0.1672  0.0885
  306MOL0     C40288  -1.605  12.188   0.126  0.0746 -0.5825 -0.8460
  306MOL0     C40289  -1.616  12.327   0.099  0.0708  0.1441 -0.1679
  306MOL0     O40290  -1.494  12.394   0.060 -0.0868 -0.4605  0.8310
  306MOL0     C40291  -1.476  12.530   0.024  0.1194 -0.0525  1.1442
  306MOL0     C40292  -1.581  12.618   0.005 -0.1354 -0.6276  0.0617
  306MOL0     C40293  -1.554  12.751  -0.021  0.6595 -0.8281  0.4648
  306MOL0     C40294  -1.430  12.801  -0.043 -0.0919 -0.5876 -0.2320
  306MOL0     O40295  -1.419  12.926  -0.083 -0.1606  0.2432 -0.0112
  306MOL0     C40296  -1.312  12.972  -0.160 -0.2704  1.0064  0.2795
  306MOL0     C40297  -1.360  13.063  -0.267  1.0671  0.5486  1.0304
  306MOL0     C40298  -1.242  13.105  -0.354  0.5305 -0.4819  0.4303
  306MOL0     C40299  -1.290  13.181  -0.477 -0.0269 -0.4554 -0.2599
  306MOL0     C40300  -1.387  13.299  -0.443 -0.7255  0.6737 -1.0487
  306MOL0     C40301  -1.439  13.375  -0.561 -1.3334  0.7261  1.4098
  306MOL0     C40302  -1.545  13.468  -0.499  0.3516  0.0609 -0.1954
  306MOL0     C40303  -1.628  13.552  -0.591 -0.0552  0.4645  0.2637
  306MOL0    Cl40304  -1.774  13.588  -0.498  0.3638  0.2442 -0.1011
  306MOL0     C40305  -1.318  12.713  -0.011 -0.5611 -0.0855  0.1169
  306MOL0     C40306  -1.345  12.576   0.015  0.3479 -0.3315  0.6104
  306MOL0     O40307  -1.726  12.380   0.122  0.5701 -0.0533  0.4517
  306MOL0     C40308  -1.478  12.118   0.132  0.0933 -0.0747 -0.3361
  306MOL0     C40309  -1.466  11.985   0.169 -0.4258  0.5397  0.2635
  306MOL0     N40310  -1.424  11.259  -0.045  0.2410 -0.0807  0.3577
  306MOL0     N40311  -1.323  11.182  -0.041 -0.1706  0.0923 -0.1667
  306MOL0     C40312  -0.075  11.027   0.123 -0.0577  0.5893 -0.6417
  306MOL0     C40313   0.045  11.083   0.147 -0.0701 -0.0866 -0.3166
  306MOL0     C40314   0.449  11.173   0.194 -0.3875 -0.2023  0.4842
  306MOL0     C40315   0.560  11.138   0.115 -0.0417  0.1689  0.0621
  306MOL0     C40316   0.679  11.209   0.126  0.0772  1.0402 -0.4735
  306MOL0     C40317   0.698  11.308   0.217  0.3869 -0.4527 -0.4835
  306MOL0     O40318   0.824  11.366   0.231  0.5136 -0.1358 -0.6391
  306MOL0     C40319   0.858  11.455   0.335 -0.1943 -0.4241 -0.0884
  306MOL0     C40320   0.813  11.598   0.295  0.6227 -0.0858  0.9720
  306MOL0     C40321   0.893  11.653   0.177  0.1676  0.1576  1.1736
  306MOL0     C40322   1.027  11.728   0.211 -0.4488 -1.2119 -0.6200
  306MOL0     C40323   1.113  11.749   0.091  0.2353 -0.3075  0.1573
  306MOL0     C40324   1.175  11.776  -0.009  0.1023 -0.5842 -0.7602
  306MOL0     C40325   0.579  11.345   0.289 -0.2410  0.4412  1.0852
  306MOL0     C40326   0.455  11.279   0.283  0.0231 -0.3961 -0.0847
  306MOL0     H40327   0.137  10.872   0.398  1.2232 -1.5987 -1.7843
  306MOL0     H40328  -0.087  10.791   0.346 -0.1842  2.4982  2.4507
  306MOL0     H40329  -0.305  10.910  -0.003 -1.4593 -0.7322 -0.5151
  306MOL0     H40330  -0.358  11.025   0.119  2.1907  0.2548 -0.7695
  306MOL0     H40331  -0.462  10.747   0.167  0.0604  0.9585  1.4148
  306MOL0     H40332  -0.511  10.805   0.010 -0.8661 -0.7644  0.3690
  306MOL0     H40333  -0.589  11.036   0.142  0.8695  0.7744  0.6626
  306MOL0     H40334  -0.578  10.912   0.278 -0.1257 -2.6213 -0.2358
  306MOL0     H40335  -0.742  10.864   0.037 -2.4244  0.6830  0.5481
  306MOL0     H40336  -0.741  10.779   0.190  1.1772 -1.6033 -1.7452
  306MOL0     H40337  -0.805  11.081   0.136  1.8957  0.0849  0.9868
  306MOL0     H40338  -0.836  11.004   0.294 -0.7643 -2.9003 -0.0155
  306MOL0     H40339  -1.018  10.879   0.220  0.3370  1.7496  1.3559
  306MOL0     H40340  -0.967  10.884   0.058  3.4616  0.1069  0.9085
  306MOL0     H40341  -1.070  11.144   0.191  2.4011  1.5161 -0.8907
  306MOL0     H40342  -1.051  11.110   0.020 -1.6917 -1.8803 -1.2037
  306MOL0     H40343  -1.260  10.983   0.213  0.8016  1.4311  0.8681
  306MOL0     H40344  -1.239  10.942   0.037 -0.5463  0.3052  0.0172
  306MOL0     H40345  -1.450  11.141   0.258 -1.5076 -3.1264 -1.2544
  306MOL0     H40346  -1.668  11.297   0.216  1.3598 -1.8563  0.4744
  306MOL0     H40347  -1.705  11.308   0.047  0.3616 -0.4582 -0.1988
  306MOL0     H40348  -1.705  11.513   0.144  0.6257 -0.1937 -0.5464
  306MOL0     H40349  -1.595  11.497   0.005  0.8445 -3.9807 -0.9559
  306MOL0     H40350  -1.530  11.523   0.306 -0.0739 -2.8780 -0.1634
  306MOL0     H40351  -1.403  11.507   0.174 -0.4267  2.4462 -0.7461
  306MOL0     H40352  -1.442  11.724   0.098  4.6367  2.5737  1.8862
  306MOL0     H40353  -1.397  11.716   0.269 -2.3103 -0.1366  3.1836
  306MOL0     H40354  -1.795  11.929   0.231 -0.0952  1.8867  0.4415
  306MOL0     H40355  -1.807  12.169   0.184 -1.4360 -2.8980 -0.6519
  306MOL0     H40356  -1.686  12.591   0.012  0.3900 -2.9687 -0.4080
  306MOL0     H40357  -1.632  12.827  -0.031  1.9119  0.3510 -0.7049
  306MOL0     H40358  -1.266  12.887  -0.212 -0.3397  0.0356  1.7437
  306MOL0     H40359  -1.235  13.017  -0.097  1.5663 -1.7885  0.2457
  306MOL0     H40360  -1.389  13.153  -0.212  0.0018  0.0619  1.2985
  306MOL0     H40361  -1.442  13.020  -0.326  1.2012 -1.3867  2.1541
  306MOL0     H40362  -1.196  13.012  -0.387 -1.6999 -1.7028  0.5489
  306MOL0     H40363  -1.181  13.171  -0.292  1.2728 -0.1827 -0.5855
  306MOL0     H40364  -1.198  13.223  -0.517 -0.7695  1.8079  0.2311
  306MOL0     H40365  -1.334  13.122  -0.558  0.4401 -0.3287 -0.6107
  306MOL0     H40366  -1.327  13.370  -0.386 -1.0342  2.2930 -2.6338
  306MOL0     H40367  -1.470  13.269  -0.378  0.8935 -0.0191  0.7841
  306MOL0     H40368  -1.483  13.301  -0.629  1.7446 -0.8854  0.9783
  306MOL0     H40369  -1.352  13.420  -0.609  0.0340 -1.9663  1.2001
  306MOL0     H40370  -1.612  13.404  -0.441 -0.5597 -0.7039 -2.0477
  306MOL0     H40371  -1.494  13.531  -0.424  2.3755 -0.3484 -1.1725
  306MOL0     H40372  -1.656  13.498  -0.682 -1.0486  0.1488  0.7409
  306MOL0     H40373  -1.580  13.648  -0.610 -2.3018  2.6091  4.0826
  306MOL0     H40374  -1.214  12.742  -0.017 -0.3382 -0.6117  1.1951
  306MOL0     H40375  -1.255  12.518   0.035  0.1587 -0.7142  0.3694
  306MOL0     H40376  -1.390  12.173   0.101 -0.1000  0.3083 -0.2082
  306MOL0     H40377  -1.369  11.937   0.169 -0.2571  0.8556 -0.9575
  306MOL0     H40378  -0.136  11.085   0.054 -1.2138 -0.8385 -0.8663
  306MOL0     H40379   0.080  11.170   0.092  1.4349 -1.1880 -1.1921
  306MOL0     H40380   0.551  11.054   0.046 -1.2593 -0.6089  1.1214
  306MOL0     H40381   0.762  11.180   0.061  1.5248  0.6724  1.4379
  306MOL0     H40382   0.962  11.456   0.370 -0.4890  1.0230  0.8711
  306MOL0     H40383   0.798  11.431   0.423 -1.0129  1.0327 -0.2155
  306MOL0     H40384   0.713  11.595   0.252  0.2733  1.5014  1.5907
  306MOL0     H40385   0.811  11.670   0.377  3.5466  1.1820  0.0597
  306MOL0     H40386   0.831  11.721   0.118 -1.5770 -2.0215  0.3479
  306MOL0     H40387   0.915  11.574   0.105 -0.7197 -2.0837  3.2400
  306MOL0     H40388   0.995  11.824   0.254  3.3883  0.6494 -1.4899
  306MOL0     H40389   1.087  11.672   0.283  0.5800 -1.2499 -1.4865
  306MOL0     H40390   1.224  11.798  -0.102 -0.0121  1.4744 -0.3829
  306MOL0     H40391   0.581  11.422   0.365 -0.9176  3.5562 -1.7783
  306MOL0     H40392   0.384  11.311   0.358  1.5983 -1.2668  1.8911
  307MOL0     O40393   1.118   2.101   5.661  0.5101 -0.1426  0.0371
  307MOL0     C40394   1.136   2.184   5.569 -0.0791  0.1452 -0.7416
  307MOL0     O40395   1.045   2.245   5.485  0.5646 -0.0028  0.2907
  307MOL0     C40396   0.909   2.217   5.480  0.5460 -0.8942  0.6067
  307MOL0     C40397   0.832   2.301   5.404  0.5900  0.4186  0.2089
  307MOL0     C40398   0.694   2.298   5.402  0.4448  0.1655 -0.3685
  307MOL0     C40399   0.620   2.190   5.472 -0.7666  0.6681  0.1224
  307MOL0     O40400   0.485   2.180   5.455 -0.1173  0.1945  0.6200
  307MOL0     C40401   0.436   2.102   5.346  0.1395  0.2383  0.2081
  307MOL0     C40402   0.285   2.130   5.335  0.5045 -0.1857  0.0734
  307MOL0     C40403   0.217   2.032   5.248  0.2280 -0.0320 -0.2016
  307MOL0     C40404   0.260   2.035   5.098 -0.3166 -0.4508 -1.3067
  307MOL0     C40405   0.168   1.937   5.010  0.1650 -0.4007 -0.6245
  307MOL0     C40406   0.193   1.790   5.056 -0.3398 -0.6770 -0.3001
  307MOL0     C40407   0.134   1.703   4.942 -0.4736 -0.0770 -0.2303
  307MOL0     C40408   0.129   1.558   5.000 -0.7260 -0.4822  0.2959
  307MOL0     N40409   0.076   1.472   4.901 -0.3981 -0.4597 -0.1527
  307MOL0     C40410  -0.054   1.469   4.854  0.8043  0.1070  0.6311
  307MOL0     C40411  -0.062   1.367   4.766  0.4810  0.3701 -0.1508
  307MOL0     C40412  -0.196   1.319   4.702 -0.7559  0.3080  0.4426
  307MOL0     C40413  -0.174   1.264   4.559  0.8194 -0.2885 -0.0798
  307MOL0     C40414  -0.303   1.278   4.479  0.6393  0.3134  0.0832
  307MOL0     C40415  -0.318   1.424   4.438  0.7127  0.7065 -0.2423
  307MOL0     O40416  -0.451   1.423   4.380  0.3162  0.1350  0.3708
  307MOL0     C40417  -0.503   1.536   4.318 -0.4743 -0.0842  0.8860
  307MOL0     C40418  -0.629   1.533   4.264 -0.6119  0.1129  0.2556
  307MOL0     C40419  -0.681   1.635   4.189 -0.7161 -0.0366  0.4852
  307MOL0     C40420  -0.620   1.756   4.187 -0.6262 -0.6676 -0.4338
  307MOL0     C40421  -0.662   1.865   4.107  0.2722 -0.3069 -0.0974
  307MOL0     O40422  -0.758   1.832   4.018 -0.4285  0.7048  0.8880
  307MOL0     C40423  -0.802   1.916   3.914 -0.3763 -0.2755 -0.5288
  307MOL0     C40424  -0.940   1.940   3.897 -0.1534 -0.3732 -0.0655
  307MOL0     C40425  -0.989   2.044   3.814  0.0511  0.5366  0.3222
  307MOL0     C40426  -0.900   2.112   3.733  0.5377  0.1375  1.3362
  307MOL0     O40427  -0.952   2.212   3.646  0.4920  0.4446  0.0667
  307MOL0     C40428  -0.857   2.277   3.559  0.4311 -0.7491  0.2786
  307MOL0     C40429  -0.926   2.387   3.477 -0.3238  0.1792  0.0481
  307MOL0     C40430  -1.069   2.361   3.431  0.6409  0.3246 -0.2856
  307MOL0     C40431  -1.058   2.249   3.328 -0.3297 -0.0661 -0.1979
  307MOL0     C40432  -1.192   2.187   3.296  0.0444  0.0591 -0.0200
  307MOL0     C40433  -1.270   2.286   3.202 -0.0554 -0.0564 -0.0369
  307MOL0     C40434  -1.399   2.210   3.141  0.1955  0.8599  0.4708
  307MOL0     C40435  -1.516   2.171   3.239 -0.5417 -0.0389  0.1967
  307MOL0    Cl40436  -1.565   2.320   3.326 -0.2001  0.0891  0.2051
  307MOL0     C40437  -0.758   2.088   3.746  0.1143  0.0317  0.2271
  307MOL0     C40438  -0.716   1.984   3.830 -0.1436  0.5663  0.5638
  307MOL0     O40439  -0.621   1.980   4.125 -0.0059  0.2159  0.4493
  307MOL0     C40440  -0.502   1.772   4.268 -0.5849  0.2113 -0.4450
  307MOL0     C40441  -0.439   1.658   4.324  0.0364  0.0198  0.1103
  307MOL0     N40442   0.064   1.308   4.767 -0.1057 -0.2206 -0.9489
  307MOL0     N40443   0.142   1.378   4.836  0.3108  0.0550  0.4598
  307MOL0     C40444   0.696   2.107   5.545 -0.6104  0.5734 -0.1539
  307MOL0     C40445   0.844   2.111   5.550  0.0070  1.1753  0.4785
  307MOL0     C40446   1.276   2.228   5.573 -0.1785  0.0114  0.3378
  307MOL0     C40447   1.313   2.338   5.488  0.7117  0.1957  0.0593
  307MOL0     C40448   1.449   2.389   5.478  0.5744  0.0501  0.5388
  307MOL0     C40449   1.543   2.322   5.545 -0.3427  0.2284 -0.2826
  307MOL0     O40450   1.673   2.355   5.511 -0.0867  0.1973 -0.0359
  307MOL0     C40451   1.777   2.286   5.590 -1.0716 -0.6361  0.2770
  307MOL0     C40452   1.909   2.342   5.544 -0.5447 -0.5671  0.5639
  307MOL0     C40453   2.012   2.383   5.650 -0.3147  0.2514 -0.8743
  307MOL0     C40454   2.080   2.280   5.753 -0.5171  1.1442 -1.1870
  307MOL0     C40455   2.141   2.184   5.665 -0.7590  0.9514 -0.0891
  307MOL0     C40456   2.177   2.083   5.603 -0.1671  0.8312  1.5958
  307MOL0     C40457   1.509   2.219   5.638  0.5614 -0.3964  0.4990
  307MOL0     C40458   1.382   2.166   5.649  0.4276 -1.4889  0.3277
  307MOL0     H40459   0.874   2.378   5.341 -2.2742  1.8626 -0.1263
  307MOL0     H40460   0.634   2.366   5.343  0.2797 -1.3308 -1.9936
  307MOL0     H40461   0.465   1.998   5.363  1.6168 -0.2388 -3.9244
  307MOL0     H40462   0.486   2.126   5.252 -2.9709 -2.0362 -2.2549
  307MOL0     H40463   0.282   2.228   5.286  0.1640 -1.1495 -1.9344
  307MOL0     H40464   0.236   2.131   5.433 -1.6249 -1.8952 -0.9062
  307MOL0     H40465   0.110   2.053   5.262  0.6455  0.5540  2.9155
  307MOL0     H40466   0.240   1.931   5.284  4.3260  1.0558  0.8054
  307MOL0     H40467   0.241   2.136   5.062  1.5707  0.6966  0.6758
  307MOL0     H40468   0.366   2.017   5.082 -0.1658 -0.3361 -0.5096
  307MOL0     H40469   0.190   1.966   4.907 -2.6283  2.2071 -0.6326
  307MOL0     H40470   0.062   1.959   5.022  0.1399 -0.1249 -1.3073
  307MOL0     H40471   0.150   1.773   5.155 -1.6278 -1.1042 -0.9165
  307MOL0     H40472   0.300   1.764   5.054 -0.5704 -1.5940 -1.1506
  307MOL0     H40473   0.039   1.738   4.901 -1.2817 -1.7070  0.1467
  307MOL0     H40474   0.213   1.701   4.866  0.5161 -3.7453  0.6645
  307MOL0     H40475   0.063   1.560   5.088 -4.0571  0.7393 -2.0450
  307MOL0     H40476   0.234   1.536   5.024 -0.1775 -1.6257 -2.7458
  307MOL0     H40477  -0.135   1.536   4.882 -1.1395 -1.5575 -0.7053
  307MOL0     H40478  -0.265   1.403   4.710 -0.6859  0.3780  0.3129
  307MOL0     H40479  -0.247   1.238   4.754 -1.1601  0.2298 -0.0656
  307MOL0     H40480  -0.137   1.161   4.559  1.4818 -0.0911  1.7596
  307MOL0     H40481  -0.101   1.329   4.511  2.8005 -0.1125  2.8669
  307MOL0     H40482  -0.301   1.219   4.387  0.9375 -1.3124  1.0907
  307MOL0     H40483  -0.391   1.247   4.536  0.4591  1.2290  0.3149
  307MOL0     H40484  -0.241   1.461   4.370  0.5847 -0.1855 -0.8912
  307MOL0     H40485  -0.327   1.495   4.521 -1.8271 -1.0320  1.0971
  307MOL0     H40486  -0.680   1.441   4.289  2.8217 -1.7175  1.1261
  307MOL0     H40487  -0.778   1.637   4.140 -0.7196  1.6927  0.5292
  307MOL0     H40488  -1.006   1.875   3.954 -0.0313 -0.5861 -0.1649
  307MOL0     H40489  -1.091   2.079   3.803  0.3043  0.7900 -1.5983
  307MOL0     H40490  -0.805   2.203   3.498  0.8557 -0.9155  0.8309
  307MOL0     H40491  -0.781   2.319   3.626  0.1859  1.3927 -0.6950
  307MOL0     H40492  -0.857   2.399   3.393  0.0850 -0.0805  0.3442
  307MOL0     H40493  -0.919   2.479   3.536 -1.4947  1.4147 -1.6326
  307MOL0     H40494  -1.125   2.444   3.387 -1.8519 -1.2981 -0.3627
  307MOL0     H40495  -1.136   2.337   3.514 -3.2647  1.9393 -2.6869
  307MOL0     H40496  -1.022   2.292   3.234 -1.2337  2.2040  0.4074
  307MOL0     H40497  -0.988   2.170   3.358 -0.3197  0.4738  1.2539
  307MOL0     H40498  -1.248   2.160   3.386  1.9703 -1.6053  0.7453
  307MOL0     H40499  -1.186   2.092   3.242 -0.3016 -1.0978  1.8816
  307MOL0     H40500  -1.212   2.309   3.112 -0.4469  1.9474  0.1787
  307MOL0     H40501  -1.293   2.377   3.257 -1.9083 -0.6732  0.2684
  307MOL0     H40502  -1.452   2.270   3.067 -1.8222 -1.3398  0.0153
  307MOL0     H40503  -1.364   2.120   3.088  0.0455  0.2890  1.3237
  307MOL0     H40504  -1.479   2.104   3.317 -1.3961 -0.8115 -0.0432
  307MOL0     H40505  -1.597   2.123   3.183 -1.3919  0.6920  0.7558
  307MOL0     H40506  -0.687   2.130   3.675 -1.9244 -0.7256 -2.4429
  307MOL0     H40507  -0.609   1.970   3.832 -0.0100  1.3529 -0.4151
  307MOL0     H40508  -0.459   1.871   4.272 -0.5127  0.1690  2.9896
  307MOL0     H40509  -0.345   1.672   4.376 -1.2453  2.4667  1.9865
  307MOL0     H40510   0.639   2.036   5.604 -0.8227 -2.3473 -3.5013
  307MOL0     H40511   0.885   2.040   5.621  1.0134  3.8662  2.7787
  307MOL0     H40512   1.230   2.384   5.436 -0.2715  0.9245  2.1352
  307MOL0     H40513   1.483   2.464   5.407 -0.9693 -1.0486 -1.4696
  307MOL0     H40514   1.780   2.177   5.585  4.1145 -0.8918  2.7637
  307MOL0     H40515   1.766   2.314   5.695  0.9668 -2.6068  1.0928
  307MOL0     H40516   1.945   2.257   5.486 -0.1652 -0.2849  0.3796
  307MOL0     H40517   1.894   2.426   5.476  0.1286 -2.9284 -2.7246
  307MOL0     H40518   1.959   2.455   5.713  0.9952  1.0117 -0.6171
  307MOL0     H40519   2.093   2.440   5.604  0.3456  0.3373  0.3645
  307MOL0     H40520   2.163   2.327   5.807  1.4217 -0.7087 -2.3527
  307MOL0     H40521   2.006   2.227   5.814  2.1767 -0.5906  0.8175
  307MOL0     H40522   2.220   1.999   5.550 -1.1870  1.9121 -1.1305
  307MOL0     H40523   1.576   2.161   5.701 -0.7344 -1.3428  1.0559
  307MOL0     H40524   1.351   2.098   5.728 -0.2643  0.2813  1.6323
  308MOL0     O40525   7.766   3.979   8.996  0.2748 -0.9930 -0.2394
  308MOL0     C40526   7.753   4.051   9.098 -0.2314 -0.7344 -0.0216
  308MOL0     O40527   7.854   4.103   9.172 -0.0023  0.0811  0.3128
  308MOL0     C40528   7.987   4.075   9.131  0.0966 -0.2171 -0.1012
  308MOL0     C40529   8.068   4.011   9.220 -0.1114  1.1565  0.6587
  308MOL0     C40530   8.208   3.989   9.192 -0.6088  0.1047  0.2631
  308MOL0     C40531   8.264   4.032   9.081  0.3146 -0.9720  0.3526
  308MOL0     O40532   8.395   4.007   9.071 -0.5687  0.5183  0.4186
  308MOL0     C40533   8.466   4.054   8.951  0.6411  0.5564 -0.6556
  308MOL0     C40534   8.606   4.009   8.948  0.0464 -0.8603 -0.5786
  308MOL0     C40535   8.697   4.050   9.069 -0.1130  0.0443 -0.5797
  308MOL0     C40536   8.840   4.012   9.030  0.5725  0.0314 -0.0037
  308MOL0     C40537   8.947   4.075   9.125  0.0179 -0.1220  0.8252
  308MOL0     C40538   9.089   4.044   9.081 -0.4762 -0.2711  0.6583
  308MOL0     C40539   9.133   4.132   8.963  0.4213 -0.0440 -0.2517
  308MOL0     C40540   9.134   4.283   8.996 -0.3155  0.0445  0.2961
  308MOL0     N40541   9.006   4.342   8.958 -0.2823 -0.8386 -0.6515
  308MOL0     C40542   8.939   4.339   8.835 -0.2038 -0.9122 -0.0185
  308MOL0     C40543   8.841   4.431   8.856 -0.4183  0.4120  0.3411
  308MOL0     C40544   8.736   4.455   8.751 -0.2670 -0.4623 -0.2802
  308MOL0     C40545   8.619   4.352   8.765 -0.9080 -0.6325  0.4719
  308MOL0     C40546   8.523   4.338   8.648 -0.7432 -0.2058 -0.6855
  308MOL0     C40547   8.453   4.471   8.613  0.3314 -0.4705  0.4640
  308MOL0     O40548   8.380   4.442   8.496 -0.2041 -0.0657  0.0702
  308MOL0     C40549   8.253   4.496   8.478  0.1563 -0.0580  0.4391
  308MOL0     C40550   8.168   4.446   8.373  0.2260  0.0933 -0.4047
  308MOL0     C40551   8.046   4.515   8.347  0.6381 -0.2447 -1.3202
  308MOL0     C40552   8.003   4.621   8.422  0.2573  0.1160 -0.4854
  308MOL0     C40553   7.871   4.687   8.405  0.2165 -0.3579 -0.4870
  308MOL0     O40554   7.799   4.643   8.310  0.3128  0.7811 -0.0639
  308MOL0     C40555   7.674   4.687   8.285 -0.0126  0.8634 -0.2388
  308MOL0     C40556   7.560   4.627   8.343  0.6015 -0.2380 -0.4056
  308MOL0     C40557   7.428   4.667   8.306 -0.2207  0.2952 -0.1067
  308MOL0     C40558   7.409   4.772   8.227  0.0332 -1.2380  0.7097
  308MOL0     O40559   7.280   4.813   8.189 -0.2324  0.0021  0.2253
  308MOL0     C40560   7.164   4.744   8.244  0.2192 -0.2627 -1.0177
  308MOL0     C40561   7.047   4.795   8.171 -1.1376 -0.3105 -0.0435
  308MOL0     C40562   7.057   4.947   8.139  0.0863  0.7962  0.1003
  308MOL0     C40563   6.927   5.010   8.094  0.3586 -0.0910  0.3951
  308MOL0     C40564   6.927   5.158   8.106 -0.7106  0.3140 -0.6194
  308MOL0     C40565   6.823   5.234   8.035 -1.1625 -0.4895 -0.0476
  308MOL0     C40566   6.690   5.239   8.107 -0.3401 -0.4179  0.2199
  308MOL0     C40567   6.688   5.316   8.235 -0.2852  0.6385  0.2930
  308MOL0    Cl40568   6.522   5.334   8.299  0.0318  0.7927  0.0542
  308MOL0     C40569   7.521   4.836   8.165  0.1457 -0.1661  0.3488
  308MOL0     C40570   7.654   4.788   8.196 -0.1389 -1.0358  0.0417
  308MOL0     O40571   7.855   4.799   8.465 -0.1084  0.3377  0.8631
  308MOL0     C40572   8.086   4.669   8.521 -0.4557 -0.2110 -0.4821
  308MOL0     C40573   8.211   4.609   8.543 -1.6304 -0.0903  0.2288
  308MOL0     N40574   8.857   4.503   8.974 -0.1516  0.0182 -1.2496
  308MOL0     N40575   8.958   4.451   9.030  0.3705 -0.0097  0.0562
  308MOL0     C40576   8.185   4.105   8.991 -0.5587  0.6888  1.4125
  308MOL0     C40577   8.046   4.123   9.017 -0.8762 -0.4150 -0.2871
  308MOL0     C40578   7.618   4.074   9.143  0.0992 -0.5112 -0.2348
  308MOL0     C40579   7.601   4.163   9.252 -0.3966 -0.0005 -0.0851
  308MOL0     C40580   7.472   4.190   9.294 -0.3233  0.0381 -0.1223
  308MOL0     C40581   7.362   4.113   9.258 -0.4496 -0.8807  0.2392
  308MOL0     O40582   7.237   4.135   9.321  0.3738 -0.2314 -0.1815
  308MOL0     C40583   7.132   4.042   9.306 -0.1326 -0.0711  0.0757
  308MOL0     C40584   7.034   4.073   9.417 -0.0839 -0.0572 -0.2167
  308MOL0     C40585   6.943   3.955   9.424  0.0503  0.4338  0.9763
  308MOL0     C40586   6.830   3.977   9.527  0.6887 -0.6146 -0.5449
  308MOL0     C40587   6.729   3.868   9.538  0.2516 -0.8472  0.0065
  308MOL0     C40588   6.646   3.785   9.549  0.1848  0.7616  0.5015
  308MOL0     C40589   7.375   4.016   9.155 -0.0828 -0.1015  0.0930
  308MOL0     C40590   7.505   3.999   9.093  0.8974 -0.0243 -0.0391
  308MOL0     H40591   8.029   3.982   9.317 -0.8128 -4.2266 -0.8726
  308MOL0     H40592   8.252   3.945   9.281 -2.8674 -2.3504  0.2805
  308MOL0     H40593   8.465   4.163   8.944 -1.3932  0.5892 -0.5761
  308MOL0     H40594   8.409   4.017   8.866  0.4967  0.9534 -0.7362
  308MOL0     H40595   8.651   4.052   8.858 -1.4333  0.1870 -0.8539
  308MOL0     H40596   8.608   3.899   8.940  1.1275 -1.0485  1.6259
  308MOL0     H40597   8.670   3.996   9.160 -4.4573  1.7652 -0.5972
  308MOL0     H40598   8.688   4.157   9.088  0.8992 -0.4341  3.2957
  308MOL0     H40599   8.841   3.902   9.029  1.1670  0.0325  0.4599
  308MOL0     H40600   8.864   4.043   8.928  0.5011  1.5589  0.4304
  308MOL0     H40601   8.930   4.018   9.217 -0.3548 -2.2777 -0.5154
  308MOL0     H40602   8.933   4.180   9.151  1.1297  0.0467  0.7832
  308MOL0     H40603   9.084   3.941   9.046  0.5285  0.0078 -0.3531
  308MOL0     H40604   9.158   4.055   9.166  2.1094 -0.4092 -1.2924
  308MOL0     H40605   9.236   4.099   8.948  0.7836 -0.4022  2.4279
  308MOL0     H40606   9.077   4.109   8.872 -0.8276  1.4417  0.0879
  308MOL0     H40607   9.208   4.340   8.940 -0.0042  1.2500  1.8769
  308MOL0     H40608   9.158   4.286   9.102 -0.9218 -1.2581  0.4901
  308MOL0     H40609   8.946   4.288   8.739  1.1843  1.7075 -1.4360
  308MOL0     H40610   8.787   4.444   8.655 -0.3755 -0.9182 -0.2898
  308MOL0     H40611   8.693   4.553   8.770  0.4490  0.3508 -2.5867
  308MOL0     H40612   8.565   4.373   8.857 -0.4340 -4.1597  1.6874
  308MOL0     H40613   8.658   4.250   8.767  0.5204 -0.1015  0.6378
  308MOL0     H40614   8.580   4.303   8.562 -0.2595 -2.0213  0.3366
  308MOL0     H40615   8.449   4.262   8.671 -0.6931 -0.0904 -0.1300
  308MOL0     H40616   8.529   4.548   8.598  1.1979 -1.1518  1.1863
  308MOL0     H40617   8.389   4.503   8.696  1.5014  4.9506 -0.3725
  308MOL0     H40618   8.192   4.352   8.324 -2.2465  0.4437 -2.5075
  308MOL0     H40619   7.994   4.486   8.256 -2.6179  1.2949 -0.1102
  308MOL0     H40620   7.558   4.540   8.408 -1.4020 -0.4636 -0.7148
  308MOL0     H40621   7.354   4.612   8.363  0.0886 -0.2867 -0.2613
  308MOL0     H40622   7.152   4.773   8.349  1.0689  0.7717 -1.1770
  308MOL0     H40623   7.175   4.636   8.234 -3.2516 -0.9389  0.8941
  308MOL0     H40624   6.959   4.788   8.234 -1.4061  0.1736 -0.3603
  308MOL0     H40625   7.042   4.748   8.072  2.0860  0.3314 -0.6250
  308MOL0     H40626   7.122   4.968   8.053 -1.3633 -0.3522 -1.3346
  308MOL0     H40627   7.092   5.006   8.224 -1.2303  0.0911  1.1722
  308MOL0     H40628   6.930   4.995   7.986  2.9202 -0.3162  0.4373
  308MOL0     H40629   6.842   4.956   8.135  2.6210 -3.2397  1.2879
  308MOL0     H40630   7.022   5.194   8.065  0.2777 -1.2884  0.1419
  308MOL0     H40631   6.927   5.171   8.214  0.4574 -1.6473 -0.3303
  308MOL0     H40632   6.814   5.190   7.936  1.0662  1.4460 -1.2156
  308MOL0     H40633   6.868   5.334   8.035 -0.7268 -0.6765  0.5163
  308MOL0     H40634   6.614   5.279   8.039  0.1925  2.3548  1.1138
  308MOL0     H40635   6.659   5.137   8.131 -2.2102  0.3659  1.3976
  308MOL0     H40636   6.746   5.408   8.220 -0.4067  0.8611  1.1118
  308MOL0     H40637   6.749   5.264   8.310  1.4827  0.4089 -1.2237
  308MOL0     H40638   7.515   4.929   8.108 -0.7367 -0.2401  0.3166
  308MOL0     H40639   7.748   4.827   8.157  1.0092 -3.2294  0.4425
  308MOL0     H40640   8.059   4.750   8.589 -0.7517 -0.6705 -0.0461
  308MOL0     H40641   8.280   4.663   8.608 -1.3542  0.4180 -0.4727
  308MOL0     H40642   8.229   4.135   8.897 -0.3983  1.0341  1.5908
  308MOL0     H40643   7.997   4.191   8.947 -0.3371  0.3000  0.0178
  308MOL0     H40644   7.684   4.212   9.302  0.6070  0.4073 -2.0439
  308MOL0     H40645   7.463   4.262   9.375  1.3145 -0.6933  0.7567
  308MOL0     H40646   7.175   3.942   9.315 -0.8933 -0.3925  0.2758
  308MOL0     H40647   7.074   4.048   9.213 -0.6543  0.1681  0.4081
  308MOL0     H40648   7.093   4.086   9.508  0.5077  0.8032 -0.7177
  308MOL0     H40649   6.983   4.168   9.400 -0.4757 -0.4082 -1.0873
  308MOL0     H40650   6.999   3.867   9.456 -1.4089 -0.4912  1.0316
  308MOL0     H40651   6.898   3.940   9.326  0.2596 -0.8290  1.0541
  308MOL0     H40652   6.872   3.989   9.627  0.1734  1.7408 -0.5313
  308MOL0     H40653   6.781   4.074   9.509  1.1389 -0.0764  0.9606
  308MOL0     H40654   6.571   3.709   9.559  0.4552  0.3240 -0.6472
  308MOL0     H40655   7.293   3.955   9.116  1.0278 -2.3132  1.0207
  308MOL0     H40656   7.526   3.921   9.020 -0.4670 -2.1855  1.7430
  309MOL0     O40657   8.592   0.007   5.358 -0.0217 -0.6525  0.0941
  309MOL0     C40658   8.563   0.095   5.436 -0.3121 -0.0141 -1.4121
  309MOL0     O40659   8.443   0.143   5.467  0.2952  0.0820  0.3646
  309MOL0     C40660   8.333   0.114   5.382  0.3772  0.2562  1.0238
  309MOL0     C40661   8.281   0.213   5.287 -0.1732 -0.3958 -0.5341
  309MOL0     C40662   8.186   0.169   5.195  0.2579  0.3061 -0.1687
  309MOL0     C40663   8.141   0.038   5.194 -0.0079 -1.2407  0.2031
  309MOL0     O40664   8.025   0.027   5.121 -0.0781 -0.3790 -0.2112
  309MOL0     C40665   7.968  -0.103   5.104  0.1532  0.1398  0.1796
  309MOL0     C40666   7.846  -0.090   5.010 -0.4138  0.4536 -1.1800
  309MOL0     C40667   7.728  -0.004   5.083 -1.1450 -0.1424  0.8503
  309MOL0     C40668   7.592  -0.021   5.021  0.0980  0.1848 -0.3180
  309MOL0     C40669   7.523  -0.157   5.038 -0.1232 -0.5119 -0.1001
  309MOL0     C40670   7.422  -0.174   4.924 -0.8192  0.0557 -0.2661
  309MOL0     C40671   7.324  -0.056   4.910  0.5544 -0.3616  0.5723
  309MOL0     C40672   7.180  -0.091   4.883 -0.3447  0.1806 -0.8376
  309MOL0     N40673   7.175  -0.162   4.752  0.7624 -0.1608  0.0313
  309MOL0     C40674   7.199  -0.295   4.718  0.0427 -0.2356 -0.2805
  309MOL0     C40675   7.171  -0.308   4.588 -0.1111  0.1204  0.1607
  309MOL0     C40676   7.194  -0.429   4.500  0.0092 -0.8507 -0.2175
  309MOL0     C40677   7.064  -0.478   4.436  0.3522  0.5142  0.3462
  309MOL0     C40678   7.089  -0.612   4.374  0.2890 -0.1406  0.2466
  309MOL0     C40679   6.964  -0.689   4.344 -0.1853 -0.3291 -1.1207
  309MOL0     O40680   6.879  -0.626   4.253 -0.0783 -0.1078  0.0303
  309MOL0     C40681   6.742  -0.644   4.239 -0.5050  0.7604  0.5067
  309MOL0     C40682   6.654  -0.710   4.321  1.1901  0.5769  0.6261
  309MOL0     C40683   6.524  -0.712   4.287  0.4463  0.0216  0.1173
  309MOL0     C40684   6.468  -0.652   4.169 -0.2547  0.8424  0.9317
  309MOL0     C40685   6.331  -0.672   4.144 -0.2248 -0.5029 -0.1886
  309MOL0     O40686   6.259  -0.759   4.220  0.1213 -1.0767 -0.3283
  309MOL0     C40687   6.132  -0.784   4.188 -0.0910  0.1947 -0.5215
  309MOL0     C40688   6.095  -0.914   4.163  0.4771  0.0122 -0.7845
  309MOL0     C40689   5.965  -0.943   4.121 -0.2654  0.6969  0.0858
  309MOL0     C40690   5.866  -0.845   4.116 -0.5570  0.3089 -0.4326
  309MOL0     O40691   5.738  -0.869   4.068  0.2390 -0.0408  0.6854
  309MOL0     C40692   5.688  -1.004   4.038  0.2111 -0.5586 -0.4070
  309MOL0     C40693   5.541  -0.984   3.971 -0.5659  0.4779  0.5030
  309MOL0     C40694   5.452  -0.881   4.059  0.4402  1.0487  0.9121
  309MOL0     C40695   5.319  -0.856   3.988 -1.2073 -0.0106 -0.3378
  309MOL0     C40696   5.226  -0.756   4.056  0.5042  0.1238  0.4361
  309MOL0     C40697   5.184  -0.789   4.201  0.2601  0.9069  0.2702
  309MOL0     C40698   5.129  -0.662   4.266  0.4037 -0.6701  0.5533
  309MOL0     C40699   5.038  -0.693   4.394 -0.6103 -0.0156  0.2654
  309MOL0    Cl40700   4.884  -0.776   4.356 -0.0487  0.0442  0.1619
  309MOL0     C40701   5.901  -0.717   4.148  0.5737  0.6177 -0.0370
  309MOL0     C40702   6.031  -0.686   4.187 -0.0618 -0.5869  0.0309
  309MOL0     O40703   6.285  -0.606   4.056 -0.2985  0.0783 -0.3261
  309MOL0     C40704   6.561  -0.572   4.098  0.0452  0.7082 -0.2159
  309MOL0     C40705   6.696  -0.569   4.129 -0.6590  0.3202  0.8513
  309MOL0     N40706   7.116  -0.189   4.553  0.3585  0.3174  0.0692
  309MOL0     N40707   7.119  -0.106   4.642  0.1344  0.0225 -0.5220
  309MOL0     C40708   8.189  -0.053   5.285  0.8981 -0.8433 -0.2830
  309MOL0     C40709   8.287  -0.018   5.376 -0.0696 -0.0501  0.2243
  309MOL0     C40710   8.668   0.134   5.542 -0.3076 -0.4957  0.1754
  309MOL0     C40711   8.646   0.199   5.659 -0.6085 -0.6412 -0.2686
  309MOL0     C40712   8.754   0.224   5.754 -0.4590  0.5626 -0.8624
  309MOL0     C40713   8.891   0.195   5.712 -0.7904  0.2318  0.5429
  309MOL0     O40714   9.002   0.217   5.789 -1.0242 -0.2657 -0.3605
  309MOL0     C40715   9.135   0.160   5.751  0.1452 -0.0721  0.2672
  309MOL0     C40716   9.232   0.201   5.857  0.7045  0.1578 -1.1093
  309MOL0     C40717   9.178   0.154   5.999 -0.2411  0.2328 -0.0495
  309MOL0     C40718   9.257   0.229   6.102 -0.0848 -0.3268 -0.3813
  309MOL0     C40719   9.396   0.189   6.128 -1.2674 -0.7502 -0.5257
  309MOL0     C40720   9.511   0.165   6.158 -0.0787 -0.0269 -0.0187
  309MOL0     C40721   8.906   0.133   5.585 -0.2832  0.2697  0.2411
  309MOL0     C40722   8.798   0.098   5.506 -0.5039 -0.1578 -0.1045
  309MOL0     H40723   8.311   0.318   5.286 -0.4591 -0.2916  0.4576
  309MOL0     H40724   8.134   0.231   5.122 -1.0613  0.9444  1.2514
  309MOL0     H40725   7.940  -0.151   5.198  0.2189 -1.5738 -0.6302
  309MOL0     H40726   8.041  -0.165   5.051  0.1044 -1.4171  1.8375
  309MOL0     H40727   7.810  -0.192   4.992  0.6754 -0.2922  0.6642
  309MOL0     H40728   7.884  -0.047   4.917  2.5234  0.7991  0.0474
  309MOL0     H40729   7.759   0.099   5.068  3.7471 -1.7247 -2.0114
  309MOL0     H40730   7.735  -0.027   5.190 -0.5091 -0.4293  0.7501
  309MOL0     H40731   7.527   0.061   5.052  0.3790  0.1941  0.2616
  309MOL0     H40732   7.619  -0.006   4.916  1.0223 -0.8777 -0.2424
  309MOL0     H40733   7.485  -0.163   5.140  0.5568  0.2039  0.2029
  309MOL0     H40734   7.605  -0.228   5.021  1.0108  1.2282 -2.4377
  309MOL0     H40735   7.353  -0.258   4.941 -0.6119  0.1115  0.8974
  309MOL0     H40736   7.477  -0.202   4.834 -1.1272 -1.6681  0.0522
  309MOL0     H40737   7.328   0.001   5.004 -1.1504 -2.3021  1.9213
  309MOL0     H40738   7.342   0.003   4.820 -2.3947 -2.1245 -1.3239
  309MOL0     H40739   7.113  -0.006   4.894 -0.2398  0.5727 -2.8096
  309MOL0     H40740   7.153  -0.156   4.966  1.0179 -0.5134 -0.8925
  309MOL0     H40741   7.239  -0.368   4.787  0.2438  0.1965  0.0709
  309MOL0     H40742   7.247  -0.503   4.561  2.5761  2.0615  1.3370
  309MOL0     H40743   7.265  -0.400   4.422 -0.1892  0.6494  0.1420
  309MOL0     H40744   7.036  -0.405   4.359  1.3154 -0.9254 -1.4720
  309MOL0     H40745   6.992  -0.482   4.517 -0.2520 -2.9886 -0.1691
  309MOL0     H40746   7.143  -0.588   4.281 -1.2933 -0.6602 -0.8440
  309MOL0     H40747   7.139  -0.675   4.448 -0.5325 -0.6115  0.4057
  309MOL0     H40748   6.916  -0.695   4.442 -2.0494  1.4469 -1.8592
  309MOL0     H40749   6.990  -0.788   4.304 -2.8902 -1.0320 -1.3363
  309MOL0     H40750   6.684  -0.767   4.408  1.3808 -3.2844 -1.7562
  309MOL0     H40751   6.471  -0.768   4.363 -0.3185 -0.7034 -0.9241
  309MOL0     H40752   6.165  -0.995   4.174  0.7845  0.4048  0.1899
  309MOL0     H40753   5.939  -1.048   4.109 -1.0487  0.6965  1.5153
  309MOL0     H40754   5.686  -1.061   4.130 -0.6801 -0.4550 -0.3559
  309MOL0     H40755   5.748  -1.059   3.965 -1.0137 -3.5357  0.7038
  309MOL0     H40756   5.494  -1.080   3.948 -2.1004  0.9536  1.5259
  309MOL0     H40757   5.564  -0.931   3.878  0.6946 -0.0201  0.5148
  309MOL0     H40758   5.505  -0.786   4.068  1.3078  0.7099 -0.3229
  309MOL0     H40759   5.433  -0.941   4.148  0.3284  0.9689  0.8355
  309MOL0     H40760   5.330  -0.824   3.883 -0.5393 -0.3963 -0.3872
  309MOL0     H40761   5.278  -0.956   3.976  2.2310 -1.8077  1.5841
  309MOL0     H40762   5.132  -0.745   4.001  1.3621  1.7062 -0.8249
  309MOL0     H40763   5.286  -0.664   4.061  0.3387  0.1783  1.8211
  309MOL0     H40764   5.267  -0.829   4.262  1.1190  1.2059 -0.6750
  309MOL0     H40765   5.096  -0.852   4.215 -0.9572  2.4178 -0.3036
  309MOL0     H40766   5.214  -0.599   4.294  2.2747 -2.4385 -0.8069
  309MOL0     H40767   5.066  -0.607   4.196  1.4269 -0.4423 -0.2119
  309MOL0     H40768   5.022  -0.597   4.444 -1.2676 -0.1988  0.4214
  309MOL0     H40769   5.101  -0.739   4.471 -2.0228  1.1176  2.2032
  309MOL0     H40770   5.833  -0.634   4.130 -0.9571 -0.7544 -0.7996
  309MOL0     H40771   6.062  -0.585   4.213  1.0683 -0.6380 -1.0027
  309MOL0     H40772   6.523  -0.515   4.014  0.8739  0.9129 -0.4627
  309MOL0     H40773   6.769  -0.520   4.066  0.0837 -0.2905  1.2152
  309MOL0     H40774   8.136  -0.147   5.284  0.4447 -0.5930  0.0479
  309MOL0     H40775   8.337  -0.080   5.450  1.4635  2.1036  1.1040
  309MOL0     H40776   8.542   0.213   5.689 -0.1381 -0.2237  1.2733
  309MOL0     H40777   8.740   0.272   5.851 -0.1603  1.0208 -1.0451
  309MOL0     H40778   9.160   0.195   5.650  0.0970  1.7278  0.8394
  309MOL0     H40779   9.127   0.051   5.755  0.4092 -0.1502 -0.9341
  309MOL0     H40780   9.332   0.160   5.843  1.3689  1.6632 -0.9585
  309MOL0     H40781   9.258   0.307   5.860  3.0262 -0.3850 -0.3123
  309MOL0     H40782   9.186   0.047   6.017  1.2472  0.3581  0.2068
  309MOL0     H40783   9.075   0.186   6.015 -0.9443 -1.2634 -1.3172
  309MOL0     H40784   9.263   0.338   6.088  2.1783 -0.5271 -1.4253
  309MOL0     H40785   9.218   0.215   6.203  2.9919  0.0761  0.9894
  309MOL0     H40786   9.612   0.147   6.188 -0.6341  1.2493  3.0048
  309MOL0     H40787   8.996   0.096   5.535 -2.0367 -1.1081 -2.1139
  309MOL0     H40788   8.826   0.042   5.417  1.7030  0.0173  0.4194
  310MOL0     O40789  10.385  10.102   7.664  0.9817  0.2050  0.2091
  310MOL0     C40790  10.441   9.994   7.673 -0.0506  1.0710 -0.3750
  310MOL0     O40791  10.388   9.874   7.705 -0.0794 -0.1866  0.3182
  310MOL0     C40792  10.253   9.866   7.724  0.1725  0.0586 -0.0251
  310MOL0     C40793  10.155   9.934   7.639 -0.3793 -0.0407  0.5997
  310MOL0     C40794  10.018   9.912   7.660 -0.2941  0.3260  0.1860
  310MOL0     C40795   9.979   9.840   7.773 -0.3233  0.0198 -0.7533
  310MOL0     O40796   9.854   9.813   7.813 -0.6729  0.0601 -0.3573
  310MOL0     C40797   9.741   9.863   7.741 -0.5121  0.1427  0.1341
  310MOL0     C40798   9.630   9.866   7.842  0.4390  0.7897  0.3293
  310MOL0     C40799   9.495   9.920   7.784 -0.0081  0.3798 -0.4077
  310MOL0     C40800   9.416   9.983   7.902 -0.0163  0.6298 -0.1138
  310MOL0     C40801   9.272  10.023   7.873  0.2284  0.3726 -0.1453
  310MOL0     C40802   9.254  10.128   7.761 -0.6255 -0.0229 -0.3226
  310MOL0     C40803   9.124  10.210   7.764  0.6513 -0.1834  0.0610
  310MOL0     C40804   9.001  10.118   7.757 -0.3291  0.7357  0.7565
  310MOL0     N40805   8.875  10.195   7.777  0.2731  0.0386  0.2196
  310MOL0     C40806   8.761  10.187   7.694 -0.6094  0.0846  0.1272
  310MOL0     C40807   8.685  10.294   7.716 -0.6461 -0.0634 -0.2172
  310MOL0     C40808   8.559  10.342   7.650  0.4187  0.6624  0.1874
  310MOL0     C40809   8.440  10.247   7.665 -0.9933  0.2583  0.2696
  310MOL0     C40810   8.312  10.290   7.585 -0.0624  0.7299 -0.1160
  310MOL0     C40811   8.191  10.199   7.621  0.8721 -1.6171 -0.2143
  310MOL0     O40812   8.072  10.267   7.566 -0.1565 -0.0870 -0.4154
  310MOL0     C40813   7.954  10.258   7.635  0.2945 -0.7301  0.2345
  310MOL0     C40814   7.941  10.223   7.766  0.3995 -0.2007  0.1930
  310MOL0     C40815   7.814  10.214   7.815  0.7991 -0.0867 -0.0547
  310MOL0     C40816   7.694  10.238   7.738 -0.9149  0.1278 -0.1195
  310MOL0     C40817   7.554  10.223   7.797 -0.9582 -0.1560  1.1024
  310MOL0     O40818   7.452  10.198   7.709 -0.4823  0.0197  0.2673
  310MOL0     C40819   7.323  10.173   7.747  0.6107  0.2207 -0.1463
  310MOL0     C40820   7.244  10.123   7.646 -0.6258 -0.4687  0.3809
  310MOL0     C40821   7.105  10.123   7.661 -0.5418 -0.3941  0.0051
  310MOL0     C40822   7.048  10.142   7.789  0.0780  0.5517  0.0523
  310MOL0     O40823   6.919  10.106   7.796  0.6473 -0.4220  0.4990
  310MOL0     C40824   6.872  10.079   7.922  0.8008 -0.0267 -0.9356
  310MOL0     C40825   6.726  10.026   7.915 -0.7672 -0.9698  0.3652
  310MOL0     C40826   6.635  10.121   7.843 -0.5539  0.4513 -0.4487
  310MOL0     C40827   6.487  10.065   7.840  0.0302  0.2925  0.6869
  310MOL0     C40828   6.394  10.178   7.788  0.5727 -0.3678  0.2007
  310MOL0     C40829   6.242  10.141   7.788 -0.2515 -0.9594  0.9037
  310MOL0     C40830   6.183  10.086   7.650 -0.0234 -0.2822 -0.1102
  310MOL0     C40831   6.035  10.064   7.651 -0.1186 -0.0350 -0.0042
  310MOL0    Cl40832   6.004   9.937   7.537 -0.0100 -0.2331 -0.0736
  310MOL0     C40833   7.127  10.187   7.894 -0.4010  0.3619  1.2026
  310MOL0     C40834   7.265  10.202   7.877  0.3806  0.2965 -0.2678
  310MOL0     O40835   7.553  10.205   7.920 -0.3810  0.1774 -0.1947
  310MOL0     C40836   7.705  10.270   7.602 -0.5459  0.3132 -0.5854
  310MOL0     C40837   7.841  10.273   7.558  0.4333  0.0635 -0.5164
  310MOL0     N40838   8.747  10.357   7.814 -0.3741 -0.4417 -0.7497
  310MOL0     N40839   8.867  10.314   7.838  0.6687 -0.2664  0.0790
  310MOL0     C40840  10.075   9.784   7.856 -0.4302 -0.9690 -0.7616
  310MOL0     C40841  10.215   9.788   7.835  0.2743 -0.5032  0.6115
  310MOL0     C40842  10.586   9.993   7.667 -0.0459 -0.0754  0.2637
  310MOL0     C40843  10.658  10.114   7.649  0.2085  0.6939  0.2792
  310MOL0     C40844  10.801  10.120   7.642  0.0943 -0.0105 -0.7356
  310MOL0     C40845  10.872  10.001   7.644 -0.2659 -0.0681  0.2511
  310MOL0     O40846  11.006  10.011   7.621  0.4630 -0.2332 -0.6332
  310MOL0     C40847  11.038  10.002   7.482  0.2509 -0.6744  0.1339
  310MOL0     C40848  11.189   9.989   7.464  0.0417  0.6192  0.4450
  310MOL0     C40849  11.265  10.117   7.512 -0.0807 -0.0760  0.3916
  310MOL0     C40850  11.409  10.107   7.469  0.5745 -0.2233  0.9419
  310MOL0     C40851  11.483  10.005   7.546  0.8726 -0.1414  1.6287
  310MOL0     C40852  11.536   9.921   7.610 -0.2852 -0.6709  0.1102
  310MOL0     C40853  10.802   9.877   7.666  0.0146  0.0931 -0.5418
  310MOL0     C40854  10.662   9.876   7.678  0.7491 -0.3305  0.2282
  310MOL0     H40855  10.191   9.998   7.560 -0.1887 -0.4187  0.3784
  310MOL0     H40856   9.950   9.962   7.592 -2.8264 -2.5380  0.4288
  310MOL0     H40857   9.711   9.788   7.666  1.6417 -1.4424  0.7484
  310MOL0     H40858   9.762   9.957   7.689  0.5507 -0.8021 -1.1998
  310MOL0     H40859   9.662   9.929   7.926 -0.2040  0.0048  1.1838
  310MOL0     H40860   9.613   9.767   7.884 -3.8207  1.5133  0.7771
  310MOL0     H40861   9.432   9.841   7.741 -0.7230  0.2272  0.8664
  310MOL0     H40862   9.515   9.993   7.705  0.4715  0.5318 -0.1476
  310MOL0     H40863   9.404   9.913   7.985  0.9372  1.2161  0.5491
  310MOL0     H40864   9.479  10.066   7.936  0.3378 -0.1836  1.2966
  310MOL0     H40865   9.241  10.070   7.967  0.2465 -0.8483  0.4831
  310MOL0     H40866   9.211   9.935   7.850  0.9908 -0.3483  0.5398
  310MOL0     H40867   9.252  10.079   7.663  0.9049  2.1829 -1.5327
  310MOL0     H40868   9.337  10.199   7.766 -2.1152  1.7520 -0.0008
  310MOL0     H40869   9.126  10.274   7.852  1.4437  3.7568 -2.5722
  310MOL0     H40870   9.121  10.284   7.683  1.7241 -2.5100 -2.2583
  310MOL0     H40871   9.002  10.042   7.836  0.3373  0.5995  0.6269
  310MOL0     H40872   9.000  10.062   7.663  0.0829  0.1886  1.0768
  310MOL0     H40873   8.748  10.110   7.618 -1.2671  1.9984 -1.8029
  310MOL0     H40874   8.580  10.352   7.543 -0.0368  0.6598  0.0955
  310MOL0     H40875   8.536  10.441   7.690 -0.2476  0.1457  1.1245
  310MOL0     H40876   8.424  10.240   7.773 -0.5013 -0.0232  0.3255
  310MOL0     H40877   8.473  10.149   7.632 -1.7303 -0.1538  0.7353
  310MOL0     H40878   8.300  10.395   7.612 -0.7902  0.1671  1.9704
  310MOL0     H40879   8.335  10.272   7.480  0.7438 -0.6708  0.2719
  310MOL0     H40880   8.195  10.181   7.729 -0.7710 -2.7269 -0.3116
  310MOL0     H40881   8.193  10.095   7.587 -2.1344 -1.7376 -0.2765
  310MOL0     H40882   8.020  10.219   7.840  1.7167 -3.3972 -1.1936
  310MOL0     H40883   7.800  10.208   7.922 -1.6721 -0.2996 -0.3284
  310MOL0     H40884   7.288  10.102   7.549 -4.9158 -1.5572 -1.5568
  310MOL0     H40885   7.037  10.100   7.580 -0.4887  3.3048 -1.2981
  310MOL0     H40886   6.864  10.172   7.980 -1.3734  2.2721 -4.5420
  310MOL0     H40887   6.934  10.003   7.971  3.1251 -0.9772 -4.9107
  310MOL0     H40888   6.686  10.010   8.016  0.6814 -1.7592  0.8496
  310MOL0     H40889   6.727   9.931   7.860  3.2435 -0.3466 -0.9613
  310MOL0     H40890   6.663  10.153   7.742 -0.1262  2.3135  0.2047
  310MOL0     H40891   6.638  10.210   7.908  2.2119  0.8436 -0.9602
  310MOL0     H40892   6.482   9.978   7.773  3.0899  0.5990 -0.0601
  310MOL0     H40893   6.456  10.040   7.942 -2.2801 -0.7454 -0.1954
  310MOL0     H40894   6.432  10.208   7.690 -0.2191  2.1555  0.5900
  310MOL0     H40895   6.407  10.265   7.854  1.3970  0.5861 -1.1636
  310MOL0     H40896   6.191  10.236   7.803 -0.2500 -0.7413 -0.3430
  310MOL0     H40897   6.214  10.069   7.866  1.9851 -1.9135  0.8924
  310MOL0     H40898   6.213  10.158   7.574 -0.6134  1.3107  1.0909
  310MOL0     H40899   6.234   9.991   7.633  0.0078 -0.0859 -1.1642
  310MOL0     H40900   5.975  10.150   7.620 -0.8732 -0.7947 -0.7060
  310MOL0     H40901   6.012  10.038   7.755 -1.2581  1.3847  0.1276
  310MOL0     H40902   7.081  10.212   7.989  0.1625  0.1878  1.5269
  310MOL0     H40903   7.328  10.234   7.959 -2.1481 -0.2997  2.0205
  310MOL0     H40904   7.626  10.298   7.533 -0.8710  0.6318 -0.0917
  310MOL0     H40905   7.856  10.295   7.453  0.1465 -3.7062 -1.5011
  310MOL0     H40906  10.037   9.744   7.949 -1.6063  3.0295  0.6898
  310MOL0     H40907  10.281   9.747   7.910  0.7257 -3.5573 -1.2895
  310MOL0     H40908  10.595  10.202   7.646  1.0468  1.2749 -0.4965
  310MOL0     H40909  10.861  10.211   7.639  0.1921 -0.0093  0.7085
  310MOL0     H40910  10.998  10.091   7.432  0.4780 -1.9599 -2.4938
  310MOL0     H40911  10.981   9.918   7.442  0.5589 -2.8830  3.8832
  310MOL0     H40912  11.222   9.893   7.505  1.6815  0.4002 -1.2617
  310MOL0     H40913  11.205   9.984   7.356 -2.1790 -1.8708  0.1569
  310MOL0     H40914  11.245  10.135   7.618  2.2102 -0.3000  0.9160
  310MOL0     H40915  11.221  10.210   7.474  0.7179  0.0911 -0.1630
  310MOL0     H40916  11.428  10.074   7.366 -1.6344 -2.4073  1.1415
  310MOL0     H40917  11.453  10.205   7.488 -1.1984  0.7527  0.2742
  310MOL0     H40918  11.594   9.845   7.659 -1.5292 -1.1982  0.7900
  310MOL0     H40919  10.853   9.781   7.669 -1.5393 -0.9295 -3.2230
  310MOL0     H40920  10.606   9.784   7.690 -2.0097  0.8460 -2.3815
  311MOL0     O40921   4.026   5.255  10.497 -0.3896  0.6225 -0.0020
  311MOL0     C40922   3.937   5.334  10.479 -0.6611 -0.0157 -0.3811
  311MOL0     O40923   3.814   5.343  10.543  0.0522  0.7021  0.3122
  311MOL0     C40924   3.749   5.226  10.589 -0.1276 -0.6633  0.1149
  311MOL0     C40925   3.651   5.231  10.684 -0.2489 -0.7921  0.1198
  311MOL0     C40926   3.600   5.114  10.739 -0.9521 -0.4901 -0.4329
  311MOL0     C40927   3.640   4.984  10.691  0.2813 -0.3321 -0.0731
  311MOL0     O40928   3.597   4.872  10.754  0.2187  0.1855  0.4421
  311MOL0     C40929   3.506   4.795  10.681 -0.4292  0.0235  0.2247
  311MOL0     C40930   3.450   4.689  10.782 -0.5137 -0.2298 -0.5671
  311MOL0     C40931   3.324   4.620  10.739 -0.6917  0.7284 -0.4123
  311MOL0     C40932   3.333   4.531  10.616  0.0273  0.7811  0.1637
  311MOL0     C40933   3.215   4.429  10.582  0.4155 -0.5962 -0.3937
  311MOL0     C40934   3.075   4.490  10.608  0.1986  0.5488 -0.6043
  311MOL0     C40935   2.967   4.393  10.555 -0.1390  0.0098 -0.1759
  311MOL0     C40936   2.830   4.399  10.625 -0.8856  0.1045  0.3961
  311MOL0     N40937   2.773   4.536  10.640 -0.6627  0.3579 -0.4634
  311MOL0     C40938   2.665   4.566  10.725 -0.3055  0.0527 -0.4085
  311MOL0     C40939   2.638   4.699  10.694  0.2116 -0.6792 -0.6812
  311MOL0     C40940   2.519   4.778  10.744 -1.2249  0.2819  0.1892
  311MOL0     C40941   2.552   4.817  10.893 -0.3228  0.7364  0.2870
  311MOL0     C40942   2.531   4.711  10.999  0.2169  0.1796 -0.1406
  311MOL0     C40943   2.387   4.688  11.020 -0.6368  1.2103  0.5470
  311MOL0     O40944   2.322   4.786  11.103  0.1172 -0.0239 -0.5951
  311MOL0     C40945   2.186   4.777  11.116 -0.4261  0.0608 -0.1846
  311MOL0     C40946   2.109   4.732  11.013  0.6462  0.4010 -0.0032
  311MOL0     C40947   1.967   4.724  11.024 -0.3095  0.0525 -0.5996
  311MOL0     C40948   1.905   4.782  11.145  0.3087  0.3071  0.0616
  311MOL0     C40949   1.758   4.776  11.163 -0.0928  0.3635 -0.7305
  311MOL0     O40950   1.703   4.672  11.084  0.3681  0.6989  0.7646
  311MOL0     C40951   1.578   4.629  11.097 -0.1487 -0.1408 -0.4937
  311MOL0     C40952   1.480   4.727  11.117  0.3839 -0.0527  1.0379
  311MOL0     C40953   1.344   4.689  11.128  1.1316 -0.4796 -0.1163
  311MOL0     C40954   1.302   4.553  11.118 -0.2483  0.2045  0.0729
  311MOL0     O40955   1.169   4.518  11.136  0.1041  0.1816  0.1920
  311MOL0     C40956   1.137   4.378  11.146  0.4055 -0.2631 -0.4597
  311MOL0     C40957   0.991   4.350  11.177 -0.6121 -0.0034 -0.3211
  311MOL0     C40958   0.959   4.357  11.315 -0.3607 -0.3513 -0.0406
  311MOL0     C40959   0.807   4.364  11.346 -0.5878 -0.0299 -0.7755
  311MOL0     C40960   0.777   4.369  11.504 -0.5710  0.6183  0.2729
  311MOL0     C40961   0.626   4.351  11.534  0.6403  0.1131 -0.3396
  311MOL0     C40962   0.538   4.476  11.515 -0.3920 -1.1673  0.0637
  311MOL0     C40963   0.484   4.496  11.373 -0.5670  0.6581 -0.2406
  311MOL0    Cl40964   0.395   4.365  11.293  0.2809  0.0934  0.2566
  311MOL0     C40965   1.403   4.459  11.100 -0.3535 -0.5854  0.5169
  311MOL0     C40966   1.538   4.493  11.083 -0.2341 -0.7006  0.6739
  311MOL0     O40967   1.701   4.841  11.252  0.0215  0.4243 -0.4489
  311MOL0     C40968   1.989   4.829  11.242 -0.4322  0.4893 -0.4980
  311MOL0     C40969   2.135   4.826  11.230  0.8464  0.4140  0.0500
  311MOL0     N40970   2.714   4.739  10.593 -0.4581 -0.6199  0.4254
  311MOL0     N40971   2.791   4.642  10.555 -0.2835 -0.0896  0.1449
  311MOL0     C40972   3.722   4.977  10.578 -0.3609 -0.5181 -0.4405
  311MOL0     C40973   3.781   5.099  10.530  0.1635 -0.5207 -0.6313
  311MOL0     C40974   3.985   5.455  10.405  0.0106  0.6800 -0.0603
  311MOL0     C40975   3.903   5.569  10.404  0.8156  0.4158 -0.2062
  311MOL0     C40976   3.940   5.684  10.337 -0.4224  0.3947  0.7125
  311MOL0     C40977   4.065   5.685  10.277  0.4780 -0.0689  0.4852
  311MOL0     O40978   4.108   5.808  10.229  0.2926  0.2742 -0.2681
  311MOL0     C40979   4.228   5.820  10.151 -0.2213  0.0894  0.0007
  311MOL0     C40980   4.229   5.965  10.099 -0.2271  0.0404 -0.5966
  311MOL0     C40981   4.225   6.063  10.221  0.2799  0.1014 -0.8659
  311MOL0     C40982   4.235   6.207  10.180 -0.6625 -0.5418 -0.2435
  311MOL0     C40983   4.131   6.244  10.086 -0.3872 -0.5184 -0.4099
  311MOL0     C40984   4.047   6.253  10.002 -0.9922 -0.6244 -0.5686
  311MOL0     C40985   4.159   5.580  10.287  0.3363  0.0365  0.0341
  311MOL0     C40986   4.120   5.465  10.353  0.7181  0.1671  1.1469
  311MOL0     H40987   3.626   5.324  10.734 -1.8727 -2.6206  3.0073
  311MOL0     H40988   3.525   5.123  10.818 -2.8124  1.8488 -2.2822
  311MOL0     H40989   3.549   4.747  10.593  5.5474  2.1000  1.5576
  311MOL0     H40990   3.415   4.846  10.647 -1.0050 -1.6646 -0.9416
  311MOL0     H40991   3.433   4.748  10.873  2.0377 -2.9094  1.9113
  311MOL0     H40992   3.526   4.613  10.802 -1.8853 -1.8792 -1.4004
  311MOL0     H40993   3.249   4.699  10.729 -0.6362  1.5747  3.9817
  311MOL0     H40994   3.286   4.557  10.820  0.7749 -0.0026 -0.2570
  311MOL0     H40995   3.348   4.597  10.530  0.1790  0.1939 -0.2728
  311MOL0     H40996   3.416   4.460  10.625 -1.3352 -0.7709  1.1740
  311MOL0     H40997   3.235   4.344  10.649  2.4821 -0.9866 -1.4113
  311MOL0     H40998   3.231   4.394  10.480 -1.2359  0.0485 -0.9036
  311MOL0     H40999   3.075   4.577  10.542 -1.1482  0.6368 -0.5028
  311MOL0     H41000   3.053   4.517  10.711  0.7849 -1.1481 -0.0024
  311MOL0     H41001   2.956   4.407  10.447 -0.5038  1.5172  0.0327
  311MOL0     H41002   3.006   4.291  10.558  0.4507  0.2375  2.5291
  311MOL0     H41003   2.855   4.376  10.729 -0.3779  1.5533  0.6218
  311MOL0     H41004   2.749   4.342  10.580 -0.6033  2.5704 -3.7611
  311MOL0     H41005   2.616   4.497  10.793 -1.2721  0.6819 -0.4489
  311MOL0     H41006   2.429   4.715  10.737 -0.7738 -0.4518  0.7991
  311MOL0     H41007   2.506   4.866  10.680 -0.8636  1.5057  1.7468
  311MOL0     H41008   2.488   4.897  10.930 -2.3257 -0.8605  0.4204
  311MOL0     H41009   2.654   4.857  10.898  0.0058  0.4123 -2.3044
  311MOL0     H41010   2.592   4.623  10.977  0.9291  1.0277 -1.6658
  311MOL0     H41011   2.556   4.747  11.099 -4.8199 -1.7172  2.1729
  311MOL0     H41012   2.379   4.593  11.074  0.7210 -0.8517 -2.6478
  311MOL0     H41013   2.327   4.673  10.930 -2.3376 -0.8546  1.9291
  311MOL0     H41014   2.140   4.692  10.917 -2.8278 -1.2892 -0.5584
  311MOL0     H41015   1.914   4.681  10.939  0.5714  0.7272 -1.5254
  311MOL0     H41016   1.504   4.833  11.120 -0.6126  0.2795 -0.8866
  311MOL0     H41017   1.271   4.766  11.150 -0.0619 -1.3566 -0.8315
  311MOL0     H41018   1.188   4.328  11.230 -0.4360 -4.2147 -2.0933
  311MOL0     H41019   1.163   4.334  11.050  1.8555  1.1195 -0.7491
  311MOL0     H41020   0.963   4.255  11.130 -2.1191  0.9943 -1.5563
  311MOL0     H41021   0.927   4.423  11.127 -1.1973  0.9479  1.7508
  311MOL0     H41022   1.011   4.443  11.359 -0.5923 -0.6681  0.8674
  311MOL0     H41023   1.010   4.274  11.364 -0.3218 -1.4104 -1.8095
  311MOL0     H41024   0.762   4.445  11.288 -1.9090 -1.7661 -2.3312
  311MOL0     H41025   0.763   4.272  11.306 -1.8676  0.5833 -0.7882
  311MOL0     H41026   0.810   4.466  11.544 -0.1538 -0.1897  1.9804
  311MOL0     H41027   0.828   4.286  11.552 -2.1406 -0.6155 -0.1222
  311MOL0     H41028   0.624   4.318  11.638  1.4397  1.5179  0.1581
  311MOL0     H41029   0.580   4.269  11.479  1.0136  1.3575 -2.6260
  311MOL0     H41030   0.454   4.485  11.585  1.5308  2.9070  2.1940
  311MOL0     H41031   0.597   4.563  11.544 -2.6847  0.4525  0.1514
  311MOL0     H41032   0.571   4.529  11.316 -0.2635 -0.0034 -0.1718
  311MOL0     H41033   0.430   4.590  11.384  1.1704  1.3865  3.7390
  311MOL0     H41034   1.385   4.353  11.091 -0.8385 -0.6753  2.1721
  311MOL0     H41035   1.621   4.428  11.057  3.1373  3.1778  0.7680
  311MOL0     H41036   1.959   4.865  11.339 -2.2102  0.8377 -1.1377
  311MOL0     H41037   2.198   4.851  11.315  1.2015 -2.7034  0.8242
  311MOL0     H41038   3.767   4.882  10.549 -0.0591 -0.7411  0.7346
  311MOL0     H41039   3.845   5.095  10.443  0.9435  0.6769 -0.1342
  311MOL0     H41040   3.803   5.574  10.448  0.1121 -0.3884 -1.6539
  311MOL0     H41041   3.871   5.768  10.337  0.1684  0.9688 -2.0784
  311MOL0     H41042   4.226   5.741  10.076  0.4075 -1.7249  1.7961
  311MOL0     H41043   4.320   5.807  10.209  1.2091  0.4464 -2.0760
  311MOL0     H41044   4.317   5.992  10.041 -1.0088  1.0808 -1.3411
  311MOL0     H41045   4.144   5.974  10.030 -0.9253  1.1694  0.3647
  311MOL0     H41046   4.304   6.037  10.292  0.4341  1.3799 -0.5336
  311MOL0     H41047   4.133   6.051  10.278  1.6242  1.7179  1.8427
  311MOL0     H41048   4.216   6.266  10.271 -0.7563  0.5346 -0.9482
  311MOL0     H41049   4.335   6.224  10.139 -0.6301 -0.0772  0.0222
  311MOL0     H41050   3.967   6.260   9.931 -2.1705 -2.6240  0.4784
  311MOL0     H41051   4.260   5.586  10.248 -0.2361 -0.8736 -1.7230
  311MOL0     H41052   4.176   5.372  10.353 -0.4109 -0.5630 -0.7305
  312MOL0     O41053   5.119   1.825   4.080 -0.0149 -0.2071 -0.5923
  312MOL0     C41054   5.173   1.770   3.980 -0.2493 -0.3883  0.4134
  312MOL0     O41055   5.134   1.658   3.926 -0.4806 -0.6997  0.6521
  312MOL0     C41056   5.028   1.591   3.975 -0.0728  0.7349  0.1789
  312MOL0     C41057   5.044   1.462   4.037  0.0856  0.1157  0.7632
  312MOL0     C41058   4.926   1.404   4.093  0.2863 -0.0055  0.2952
  312MOL0     C41059   4.796   1.457   4.069 -0.0913 -0.1554  0.4253
  312MOL0     O41060   4.697   1.396   4.146 -0.4400 -0.0301 -0.6734
  312MOL0     C41061   4.562   1.416   4.094 -0.2065 -0.4102 -0.5300
  312MOL0     C41062   4.469   1.346   4.191  0.3350 -0.1076 -0.4403
  312MOL0     C41063   4.313   1.353   4.158 -0.3126  0.1978  0.9531
  312MOL0     C41064   4.226   1.276   4.257 -0.7589  0.4118 -0.3566
  312MOL0     C41065   4.074   1.294   4.225  0.0506  0.1468 -0.0637
  312MOL0     C41066   3.980   1.190   4.292 -0.1692  0.4048  0.5447
  312MOL0     C41067   3.830   1.220   4.279  1.0017  0.5859  0.1099
  312MOL0     C41068   3.747   1.101   4.345  0.4062  0.1752  0.6081
  312MOL0     N41069   3.611   1.124   4.308  0.4570 -0.0670 -0.3338
  312MOL0     C41070   3.546   1.204   4.221  0.4981  0.1652 -0.3166
  312MOL0     C41071   3.415   1.193   4.242 -0.0116  0.2184  0.0838
  312MOL0     C41072   3.307   1.279   4.191 -0.3556  0.4774 -0.3026
  312MOL0     C41073   3.167   1.235   4.259 -0.5515  0.2751  0.4868
  312MOL0     C41074   3.043   1.316   4.195 -0.8218 -0.2877 -0.3445
  312MOL0     C41075   2.910   1.290   4.268  0.4584  0.1958  0.8782
  312MOL0     O41076   2.798   1.346   4.206 -0.0627 -0.3604  0.4140
  312MOL0     C41077   2.676   1.342   4.273  0.4767  0.1749  0.7645
  312MOL0     C41078   2.572   1.423   4.230  0.1768  0.1317  0.3235
  312MOL0     C41079   2.447   1.407   4.280  0.0113 -0.0115  0.6684
  312MOL0     C41080   2.416   1.303   4.365  0.6849 -0.6097  0.2656
  312MOL0     C41081   2.271   1.287   4.398 -0.4365  1.0049  0.3131
  312MOL0     O41082   2.177   1.360   4.324 -0.1096  0.0844  0.7278
  312MOL0     C41083   2.049   1.359   4.374  0.4305 -0.5996 -0.3077
  312MOL0     C41084   1.987   1.484   4.380 -0.2711  1.0654  0.3507
  312MOL0     C41085   1.853   1.488   4.426  0.1475 -0.4848  0.0873
  312MOL0     C41086   1.780   1.371   4.456 -0.0031  0.0704 -0.1047
  312MOL0     O41087   1.655   1.360   4.517 -0.2039 -0.0783  0.6318
  312MOL0     C41088   1.566   1.472   4.509 -0.1971 -0.0189  0.7024
  312MOL0     C41089   1.421   1.427   4.534  0.2182 -0.4414 -0.2243
  312MOL0     C41090   1.315   1.542   4.521 -0.0645 -0.3118 -0.1116
  312MOL0     C41091   1.171   1.507   4.545  0.3306 -0.3226  0.5142
  312MOL0     C41092   1.081   1.629   4.521  0.3813 -0.0541  0.0199
  312MOL0     C41093   1.098   1.746   4.628 -0.1234  0.3825  0.2208
  312MOL0     C41094   0.963   1.821   4.639  0.0434 -0.3050 -1.0420
  312MOL0     C41095   0.961   1.908   4.760  0.3916 -0.6233 -0.0315
  312MOL0    Cl41096   1.118   1.997   4.789 -0.1072 -0.0515  0.2728
  312MOL0     C41097   1.851   1.240   4.443 -0.2032 -0.2180  0.9099
  312MOL0     C41098   1.986   1.242   4.403  0.1415 -1.1406 -0.2816
  312MOL0     O41099   2.260   1.228   4.509 -0.4763 -0.4412 -0.0453
  312MOL0     C41100   2.525   1.235   4.423  0.2327 -0.0654 -0.0321
  312MOL0     C41101   2.657   1.254   4.381  1.1032 -0.5451  1.0466
  312MOL0     N41102   3.397   1.096   4.343  0.8633 -0.3424 -0.2544
  312MOL0     N41103   3.515   1.049   4.370  0.3418 -0.4062  0.4170
  312MOL0     C41104   4.784   1.580   4.003  0.0793 -0.3328 -0.4796
  312MOL0     C41105   4.900   1.637   3.957  0.3998 -0.6515  1.3907
  312MOL0     C41106   5.286   1.854   3.926 -0.0825 -0.1976 -0.2195
  312MOL0     C41107   5.333   1.849   3.799  1.0180  0.1525  0.0379
  312MOL0     C41108   5.434   1.935   3.756 -0.4778 -0.0980  0.7088
  312MOL0     C41109   5.494   2.027   3.847 -0.3443 -0.3625  0.6328
  312MOL0     O41110   5.607   2.104   3.817 -0.5999  0.0212 -0.2207
  312MOL0     C41111   5.699   2.069   3.713 -0.4858  0.1738 -0.2968
  312MOL0     C41112   5.664   2.131   3.581 -0.3502 -0.1762  0.3039
  312MOL0     C41113   5.765   2.083   3.475 -0.4973  0.5912 -0.1198
  312MOL0     C41114   5.705   2.128   3.343 -0.3851 -0.6311 -0.8291
  312MOL0     C41115   5.809   2.111   3.244 -0.0937  0.4824 -0.6816
  312MOL0     C41116   5.900   2.104   3.167  0.1139 -0.8204 -0.4604
  312MOL0     C41117   5.464   2.021   3.979 -0.2619 -0.1181  0.6981
  312MOL0     C41118   5.351   1.943   4.017 -0.4822 -0.0654  0.4752
  312MOL0     H41119   5.139   1.411   4.043  0.9845  0.6856 -4.4733
  312MOL0     H41120   4.943   1.305   4.133  0.1824 -1.8193 -3.7334
  312MOL0     H41121   4.546   1.373   3.995  0.7313  2.6430 -2.1271
  312MOL0     H41122   4.542   1.523   4.085 -1.8514 -0.6582 -0.2678
  312MOL0     H41123   4.481   1.383   4.294  0.8076 -4.1592  1.1641
  312MOL0     H41124   4.496   1.240   4.191 -1.7984 -0.7242  1.0964
  312MOL0     H41125   4.301   1.304   4.062  1.5301  2.4215 -0.5241
  312MOL0     H41126   4.272   1.454   4.143  2.4189  1.1229 -0.9390
  312MOL0     H41127   4.243   1.169   4.238  2.3459  1.1571 -2.6801
  312MOL0     H41128   4.257   1.284   4.362 -0.5644 -1.1088 -0.2703
  312MOL0     H41129   4.051   1.293   4.118 -0.2007 -2.8468 -0.0732
  312MOL0     H41130   4.041   1.386   4.273 -0.6769  0.6181 -1.4060
  312MOL0     H41131   4.000   1.184   4.399 -1.1767 -1.7621  0.6510
  312MOL0     H41132   4.006   1.091   4.255 -2.6045 -0.3756  0.7369
  312MOL0     H41133   3.812   1.299   4.352 -0.9507 -0.1144  0.4359
  312MOL0     H41134   3.800   1.229   4.175 -1.4926  3.0276  0.9374
  312MOL0     H41135   3.752   1.095   4.454  3.4006  3.8496  0.9085
  312MOL0     H41136   3.788   1.010   4.302  2.5548  1.1551  0.4346
  312MOL0     H41137   3.586   1.283   4.158 -3.6055  0.5885 -2.7621
  312MOL0     H41138   3.304   1.263   4.082  2.1575  0.9277 -0.4888
  312MOL0     H41139   3.325   1.386   4.205  0.2429  0.1849  1.3536
  312MOL0     H41140   3.188   1.268   4.362  0.6899 -0.2498  0.4219
  312MOL0     H41141   3.144   1.130   4.242 -1.0447  0.5669 -0.7501
  312MOL0     H41142   3.077   1.420   4.199 -0.5685 -0.3812 -0.0287
  312MOL0     H41143   3.049   1.298   4.087  0.9547 -0.2526 -0.2841
  312MOL0     H41144   2.911   1.323   4.372 -0.9672  1.1476  0.6045
  312MOL0     H41145   2.896   1.181   4.273 -2.1226  0.4249  0.0159
  312MOL0     H41146   2.599   1.501   4.161  3.1544 -1.0545 -0.0205
  312MOL0     H41147   2.370   1.477   4.248 -0.8642  0.3662  3.3366
  312MOL0     H41148   2.043   1.575   4.363  1.2793 -0.2220 -2.0098
  312MOL0     H41149   1.813   1.587   4.447  2.5270  0.6103 -0.2599
  312MOL0     H41150   1.571   1.530   4.416  0.3074  1.1457  1.4334
  312MOL0     H41151   1.579   1.539   4.594 -2.4284 -2.6384  3.3311
  312MOL0     H41152   1.423   1.387   4.636  1.5555 -0.7000 -0.3346
  312MOL0     H41153   1.391   1.349   4.464 -0.5252  0.8670 -1.4018
  312MOL0     H41154   1.332   1.587   4.423 -0.0786 -1.7752 -0.8215
  312MOL0     H41155   1.340   1.609   4.604 -4.2053  2.0015 -0.4926
  312MOL0     H41156   1.146   1.423   4.479 -1.8675 -0.6028  1.6112
  312MOL0     H41157   1.140   1.465   4.641  1.0393  1.0330  1.3677
  312MOL0     H41158   0.977   1.594   4.524 -0.6725  2.7525 -0.5931
  312MOL0     H41159   1.099   1.667   4.420  0.6978 -2.0630 -0.7189
  312MOL0     H41160   1.186   1.807   4.608 -0.0932 -0.0456 -1.0242
  312MOL0     H41161   1.105   1.688   4.721 -1.9964  0.0097  0.1686
  312MOL0     H41162   0.936   1.874   4.547 -2.5520 -0.0546 -0.2316
  312MOL0     H41163   0.874   1.757   4.644 -0.8422  1.0135  1.2312
  312MOL0     H41164   0.930   1.855   4.851  3.4432  0.5028  1.8412
  312MOL0     H41165   0.883   1.984   4.744  2.2594  1.7271  1.3256
  312MOL0     H41166   1.802   1.149   4.474  1.2922 -1.6668 -0.8148
  312MOL0     H41167   2.048   1.153   4.391  1.7093 -0.2184  0.5429
  312MOL0     H41168   2.513   1.152   4.492 -0.9212 -0.4366 -0.6427
  312MOL0     H41169   2.730   1.180   4.413  1.2386 -0.9336 -0.1053
  312MOL0     H41170   4.686   1.628   3.995  1.4020  2.4597 -1.3230
  312MOL0     H41171   4.895   1.731   3.904 -1.1567 -1.8930 -0.8941
  312MOL0     H41172   5.294   1.780   3.724  2.7043 -0.6925 -0.0976
  312MOL0     H41173   5.479   1.919   3.659 -0.2931 -2.1561  1.0813
  312MOL0     H41174   5.702   1.960   3.706 -0.7158  0.1639 -0.2327
  312MOL0     H41175   5.791   2.115   3.750  1.1415 -0.3331 -3.4029
  312MOL0     H41176   5.559   2.123   3.549 -0.3039  0.4952 -0.0384
  312MOL0     H41177   5.682   2.238   3.594  2.1804 -0.6534  1.2001
  312MOL0     H41178   5.779   1.975   3.474 -2.6462  0.2527 -1.5733
  312MOL0     H41179   5.862   2.131   3.491 -0.3360  0.6382 -1.1605
  312MOL0     H41180   5.607   2.087   3.318 -1.0807  0.3147  0.1731
  312MOL0     H41181   5.694   2.237   3.346 -0.0172 -0.5932  1.3736
  312MOL0     H41182   5.981   2.096   3.097 -0.6133  1.1689 -1.6011
  312MOL0     H41183   5.507   2.085   4.056 -1.4220 -0.0205  1.2828
  312MOL0     H41184   5.324   1.947   4.122 -1.1931 -3.9234  0.6059
  313MOL0     O41185   4.829   2.816   8.711  0.0344  0.3197 -0.0831
  313MOL0     C41186   4.742   2.874   8.778 -0.3331 -0.2370 -0.9826
  313MOL0     O41187   4.760   2.992   8.827 -0.5546 -0.1420  0.3824
  313MOL0     C41188   4.863   3.082   8.800 -0.3093 -0.0647  0.7048
  313MOL0     C41189   4.823   3.215   8.802  0.2686 -0.2057 -0.6244
  313MOL0     C41190   4.920   3.322   8.789  0.8722 -0.7867  0.6439
  313MOL0     C41191   5.054   3.299   8.760  0.0421 -0.6783 -0.1475
  313MOL0     O41192   5.146   3.395   8.737  0.1521  0.4055  0.3828
  313MOL0     C41193   5.099   3.518   8.686  0.5376  0.3076  1.1226
  313MOL0     C41194   5.137   3.634   8.784  0.1323 -0.2086  0.3807
  313MOL0     C41195   5.100   3.757   8.711 -0.0973  0.1572  0.3898
  313MOL0     C41196   5.185   3.874   8.764  0.3745 -0.3053 -1.1613
  313MOL0     C41197   5.112   3.991   8.696  0.0690  0.7823  0.1029
  313MOL0     C41198   5.197   4.124   8.723  0.4210  1.2828  0.1170
  313MOL0     C41199   5.106   4.249   8.708 -0.5611 -1.2397 -0.8678
  313MOL0     C41200   5.172   4.369   8.763  0.1555  0.4383 -0.3823
  313MOL0     N41201   5.103   4.492   8.725  0.1245 -0.9114 -0.0696
  313MOL0     C41202   4.972   4.516   8.722  0.3668 -0.3525 -0.0191
  313MOL0     C41203   4.960   4.645   8.682 -0.2830 -0.2933 -1.1562
  313MOL0     C41204   4.844   4.728   8.685 -0.7622  0.4544  0.0922
  313MOL0     C41205   4.705   4.658   8.682 -0.1592  0.7705 -0.6465
  313MOL0     C41206   4.604   4.769   8.690 -0.2123 -0.1601  0.3934
  313MOL0     C41207   4.462   4.706   8.694 -0.5471  0.2618 -0.4876
  313MOL0     O41208   4.435   4.654   8.829  0.2514 -0.0592 -0.0209
  313MOL0     C41209   4.309   4.618   8.857 -0.4427 -0.2814 -1.0937
  313MOL0     C41210   4.281   4.611   8.996 -0.3064 -0.5527 -0.5520
  313MOL0     C41211   4.156   4.574   9.046 -0.1889 -0.2561  0.3677
  313MOL0     C41212   4.048   4.551   8.951  0.1207  1.0669 -0.5184
  313MOL0     C41213   3.910   4.508   8.999  0.8732  0.9919  0.4101
  313MOL0     O41214   3.814   4.455   8.911  0.6597 -0.4692  0.1953
  313MOL0     C41215   3.685   4.428   8.964 -0.3975  0.4855  0.2354
  313MOL0     C41216   3.573   4.441   8.885 -0.3309  0.2909 -0.3014
  313MOL0     C41217   3.447   4.401   8.928 -0.0455  0.1333  0.3858
  313MOL0     C41218   3.432   4.337   9.054 -0.3256  0.1183 -0.6926
  313MOL0     O41219   3.319   4.277   9.102  0.6485  0.4641 -0.2885
  313MOL0     C41220   3.201   4.285   9.025 -0.2016  0.2420 -0.0050
  313MOL0     C41221   3.086   4.239   9.118 -0.3657 -0.5421  0.8231
  313MOL0     C41222   2.954   4.228   9.046  0.2648  0.3426 -0.2340
  313MOL0     C41223   2.855   4.160   9.143 -0.6043 -0.1432 -0.0991
  313MOL0     C41224   2.712   4.168   9.080  0.1114  0.0166  0.3770
  313MOL0     C41225   2.595   4.152   9.185 -0.3048 -0.1220  1.4861
  313MOL0     C41226   2.454   4.185   9.131  0.1829 -0.4326 -0.7947
  313MOL0     C41227   2.436   4.148   8.986 -0.7718  0.4457 -0.4473
  313MOL0    Cl41228   2.451   3.965   8.967  0.0894  0.1458  0.2991
  313MOL0     C41229   3.545   4.312   9.130  0.3463  0.7615  0.6289
  313MOL0     C41230   3.672   4.358   9.088  0.0579 -0.0963  0.0663
  313MOL0     O41231   3.886   4.520   9.114 -0.1205  0.0057 -0.3588
  313MOL0     C41232   4.072   4.556   8.815 -0.2098  0.4003 -0.0509
  313MOL0     C41233   4.204   4.590   8.769  0.9034  0.2545 -0.5625
  313MOL0     N41234   5.091   4.693   8.657 -0.1172  0.0021  0.2565
  313MOL0     N41235   5.180   4.602   8.697  0.0085  0.4349  0.7376
  313MOL0     C41236   5.098   3.165   8.760  0.6254  0.2086 -0.1102
  313MOL0     C41237   5.003   3.062   8.782 -0.4476 -0.1548 -0.6687
  313MOL0     C41238   4.612   2.811   8.790  1.4342  0.1324  0.2840
  313MOL0     C41239   4.592   2.674   8.775 -0.2859 -0.3707  0.1432
  313MOL0     C41240   4.465   2.622   8.777 -0.4393  0.3991  0.0141
  313MOL0     C41241   4.353   2.703   8.788  0.7132  0.4748  0.3701
  313MOL0     O41242   4.222   2.654   8.798 -0.0829  0.1533  0.0027
  313MOL0     C41243   4.199   2.514   8.816  0.0779 -0.2704 -0.0345
  313MOL0     C41244   4.046   2.495   8.816  0.0548 -0.2415  0.4599
  313MOL0     C41245   3.982   2.540   8.938  0.9339  0.0806  0.2587
  313MOL0     C41246   3.833   2.509   8.947 -0.1647  0.2011  0.0642
  313MOL0     C41247   3.779   2.553   9.075  0.7088  0.2147 -0.3590
  313MOL0     C41248   3.724   2.579   9.187 -0.6074 -0.5524  0.5210
  313MOL0     C41249   4.367   2.840   8.797 -0.5712 -0.3421  0.2888
  313MOL0     C41250   4.497   2.892   8.805  0.5375  0.7767  0.0489
  313MOL0     H41251   4.717   3.232   8.816  0.3266 -1.3055  1.7068
  313MOL0     H41252   4.870   3.418   8.794 -2.3382 -2.1360 -1.6358
  313MOL0     H41253   4.991   3.520   8.670  0.6519  0.7434  0.3712
  313MOL0     H41254   5.150   3.540   8.592 -0.5964 -0.7230  0.2396
  313MOL0     H41255   5.237   3.623   8.825 -1.4695 -1.0847  4.5651
  313MOL0     H41256   5.087   3.634   8.881  0.9311 -3.7271  0.8909
  313MOL0     H41257   4.993   3.777   8.717  0.1448  2.6550 -1.7504
  313MOL0     H41258   5.125   3.748   8.605  2.5574  0.0841  0.9295
  313MOL0     H41259   5.188   3.886   8.873  1.4837  0.1214 -1.2227
  313MOL0     H41260   5.286   3.866   8.724  0.2937 -2.3756 -1.0623
  313MOL0     H41261   5.008   4.002   8.728 -0.4645 -0.0871 -1.2653
  313MOL0     H41262   5.108   3.981   8.587  1.7246 -0.8581  0.1371
  313MOL0     H41263   5.291   4.136   8.668  1.9472  4.1731  3.0003
  313MOL0     H41264   5.239   4.119   8.824  0.7604 -0.9315 -0.0824
  313MOL0     H41265   5.082   4.265   8.603  0.1328  0.2619 -0.8314
  313MOL0     H41266   5.009   4.243   8.757 -0.7477  1.9972 -0.5907
  313MOL0     H41267   5.275   4.365   8.726  1.4233 -0.7510  2.8732
  313MOL0     H41268   5.180   4.358   8.872 -1.9334 -2.0819 -0.3946
  313MOL0     H41269   4.886   4.455   8.744 -1.1026  1.0233 -1.6699
  313MOL0     H41270   4.848   4.788   8.593 -0.9662  0.8314  0.3293
  313MOL0     H41271   4.861   4.792   8.771  1.2745  0.0856  0.0124
  313MOL0     H41272   4.708   4.596   8.772  1.8442  2.2431  0.3823
  313MOL0     H41273   4.697   4.600   8.590  3.2169  0.7687 -1.0552
  313MOL0     H41274   4.622   4.837   8.773 -3.9707 -0.4485  1.6071
  313MOL0     H41275   4.610   4.836   8.604 -0.4601 -0.0696  0.4474
  313MOL0     H41276   4.456   4.629   8.617 -3.0917  0.7010 -0.8035
  313MOL0     H41277   4.394   4.790   8.677 -0.2327  0.3235 -1.4623
  313MOL0     H41278   4.353   4.621   9.076 -0.0436 -2.7920 -0.4388
  313MOL0     H41279   4.133   4.584   9.152 -0.3302  1.8579  0.1934
  313MOL0     H41280   3.598   4.480   8.787  1.5075 -0.2348 -0.0836
  313MOL0     H41281   3.368   4.426   8.857  0.1615  2.8224  0.9899
  313MOL0     H41282   3.207   4.213   8.944 -0.4939  0.1423  0.0626
  313MOL0     H41283   3.188   4.388   8.991  1.0538  0.7184  0.8834
  313MOL0     H41284   3.071   4.308   9.201 -0.1426  0.3967  0.1069
  313MOL0     H41285   3.103   4.138   9.156 -1.6834 -0.8992  0.5018
  313MOL0     H41286   2.956   4.160   8.961  0.0840 -0.3356  0.2935
  313MOL0     H41287   2.911   4.322   9.011 -1.3224  0.5029  1.9064
  313MOL0     H41288   2.883   4.056   9.158  3.0814  0.6945 -0.1575
  313MOL0     H41289   2.856   4.209   9.241 -0.0671  0.9060 -0.6124
  313MOL0     H41290   2.709   4.090   9.004 -1.3412  0.5289 -0.1292
  313MOL0     H41291   2.694   4.266   9.035  2.6827  0.6850  0.6579
  313MOL0     H41292   2.632   4.228   9.254  2.9721  2.9463 -3.0595
  313MOL0     H41293   2.605   4.048   9.217  1.3814 -0.8600 -1.1303
  313MOL0     H41294   2.376   4.136   9.191 -0.0681  2.2587  1.2714
  313MOL0     H41295   2.434   4.291   9.149 -2.1350 -0.4841 -2.5396
  313MOL0     H41296   2.506   4.200   8.920 -1.4063 -1.4484 -2.7375
  313MOL0     H41297   2.333   4.164   8.953 -1.2204 -2.2297 -0.5532
  313MOL0     H41298   3.529   4.261   9.225 -1.1670  2.0109  1.0870
  313MOL0     H41299   3.759   4.337   9.150  1.2243  0.6577 -1.2440
  313MOL0     H41300   3.992   4.538   8.744  0.6275 -1.0072 -0.7013
  313MOL0     H41301   4.219   4.603   8.663  0.9934  1.3784 -0.4240
  313MOL0     H41302   5.203   3.142   8.748  0.5791 -1.0528  1.6347
  313MOL0     H41303   5.031   2.958   8.792 -3.9045 -1.1655 -0.4083
  313MOL0     H41304   4.681   2.617   8.752  0.2046 -0.4469  2.0336
  313MOL0     H41305   4.454   2.517   8.751  3.6293  0.1320 -1.2711
  313MOL0     H41306   4.242   2.498   8.916 -2.5356  0.7105  1.3506
  313MOL0     H41307   4.249   2.449   8.744  2.0530  0.7331  0.3609
  313MOL0     H41308   4.000   2.536   8.726  0.7008  1.0098  0.6849
  313MOL0     H41309   4.030   2.387   8.804 -2.1882  0.1031 -0.1406
  313MOL0     H41310   3.986   2.649   8.944 -2.0013  0.2515  0.3082
  313MOL0     H41311   4.027   2.499   9.029  1.0900  1.2538  0.7395
  313MOL0     H41312   3.778   2.562   8.869 -2.9533 -1.0402  1.0614
  313MOL0     H41313   3.815   2.402   8.930 -2.8243  0.5574  0.2090
  313MOL0     H41314   3.690   2.617   9.281  0.7113  1.9774  0.0511
  313MOL0     H41315   4.286   2.905   8.828  1.4433  1.7032  1.6328
  313MOL0     H41316   4.513   2.999   8.815  4.0074  0.2046  2.2737
  314MOL0     O41317   9.145   2.024   5.795  0.0623  0.1716  0.0977
  314MOL0     C41318   9.129   2.104   5.890  0.1905 -0.5940 -0.5126
  314MOL0     O41319   9.226   2.155   5.969 -0.1772  0.1117 -0.3638
  314MOL0     C41320   9.359   2.123   5.963  0.3242  0.3474  0.0762
  314MOL0     C41321   9.432   2.044   5.867  0.0824 -0.2192  0.4264
  314MOL0     C41322   9.572   2.032   5.883  0.4977  0.2052 -0.2240
  314MOL0     C41323   9.639   2.087   5.988 -0.6546 -0.2936  0.2851
  314MOL0     O41324   9.773   2.053   5.983  0.5497 -0.6718 -0.4213
  314MOL0     C41325   9.853   2.111   6.084 -0.4101  0.4134  0.4115
  314MOL0     C41326  10.003   2.087   6.045 -0.0809  0.4248 -0.2099
  314MOL0     C41327  10.038   2.152   5.915 -0.0546 -0.1470  0.5291
  314MOL0     C41328  10.185   2.111   5.869  0.4991 -0.6935 -0.1143
  314MOL0     C41329  10.302   2.136   5.964  0.8940 -0.3030 -0.7271
  314MOL0     C41330  10.335   2.282   5.965  0.3501  0.0046 -0.3906
  314MOL0     C41331  10.468   2.317   6.031  0.2749  0.2017  0.2711
  314MOL0     C41332  10.510   2.263   6.175  0.4371 -0.2596  0.3636
  314MOL0     N41333  10.648   2.278   6.209 -0.1728  0.5009  0.5975
  314MOL0     C41334  10.758   2.200   6.162  0.2019  0.4388  0.1485
  314MOL0     C41335  10.857   2.238   6.248 -1.0094 -0.9911 -0.4054
  314MOL0     C41336  10.998   2.184   6.249  1.0537 -0.1915 -0.8363
  314MOL0     C41337  11.047   2.103   6.370  0.1696 -0.1184 -0.4105
  314MOL0     C41338  10.993   1.951   6.367  0.5347 -0.1961 -0.5047
  314MOL0     C41339  10.989   1.906   6.513 -0.0127 -0.4451  0.0220
  314MOL0     O41340  10.907   1.981   6.606  0.5856  0.3906  0.0890
  314MOL0     C41341  10.771   1.993   6.569 -0.0003 -0.2772 -0.5372
  314MOL0     C41342  10.700   2.115   6.569  0.6286 -0.3972  0.3114
  314MOL0     C41343  10.575   2.132   6.516 -0.3522  0.4509 -0.1475
  314MOL0     C41344  10.504   2.027   6.469  0.4373 -0.3249 -0.3756
  314MOL0     C41345  10.370   2.057   6.419 -0.9945  0.4310 -0.4609
  314MOL0     O41346  10.322   2.173   6.458  0.4047 -0.6111 -0.2687
  314MOL0     C41347  10.186   2.196   6.447 -0.3042  0.3852 -0.4497
  314MOL0     C41348  10.146   2.305   6.377 -0.4239  0.6037 -0.1723
  314MOL0     C41349  10.009   2.336   6.373 -0.6444 -0.1719  0.1413
  314MOL0     C41350   9.910   2.264   6.442 -0.5521  0.2559 -0.2224
  314MOL0     O41351   9.781   2.309   6.427  0.1139  0.2178  0.0475
  314MOL0     C41352   9.682   2.219   6.488 -0.3262 -0.2346  0.0380
  314MOL0     C41353   9.545   2.282   6.489  0.3572 -0.2832  0.5546
  314MOL0     C41354   9.429   2.198   6.547  0.4446  0.6271 -0.7305
  314MOL0     C41355   9.281   2.253   6.541 -0.8830 -0.2894 -0.4976
  314MOL0     C41356   9.239   2.298   6.398 -0.3386  0.4801 -0.2197
  314MOL0     C41357   9.124   2.401   6.392  0.3808  0.8433  0.9367
  314MOL0     C41358   8.990   2.336   6.423 -0.5919 -0.1975  0.3733
  314MOL0     C41359   8.884   2.443   6.405 -0.1201  0.1643 -0.4977
  314MOL0    Cl41360   8.902   2.586   6.520  0.1942  0.6042  0.0578
  314MOL0     C41361   9.954   2.145   6.509  0.3373  0.8809 -0.2592
  314MOL0     C41362  10.089   2.116   6.509  0.4636  1.1069 -0.2989
  314MOL0     O41363  10.307   1.966   6.363  0.2292  0.2038 -0.0985
  314MOL0     C41364  10.564   1.902   6.482 -0.4697 -0.5292 -0.4850
  314MOL0     C41365  10.697   1.887   6.527  0.0037  0.3849 -0.6447
  314MOL0     N41366  10.818   2.345   6.328 -0.1874 -0.0774 -1.1861
  314MOL0     N41367  10.691   2.371   6.300  0.1893 -0.7147 -0.1695
  314MOL0     C41368   9.572   2.164   6.080  0.0248 -0.7300  0.7424
  314MOL0     C41369   9.439   2.192   6.055  1.0785 -0.4864 -1.0880
  314MOL0     C41370   8.998   2.155   5.920  0.2866  0.9136 -0.2991
  314MOL0     C41371   8.882   2.089   5.874 -0.4740  0.4643 -0.6960
  314MOL0     C41372   8.762   2.157   5.887 -0.1757 -0.2831 -0.2771
  314MOL0     C41373   8.747   2.275   5.967 -0.2906  0.3166 -1.1299
  314MOL0     O41374   8.628   2.336   5.980 -0.6015  0.7278  0.1242
  314MOL0     C41375   8.512   2.276   5.923 -0.2925 -0.7863  0.5524
  314MOL0     C41376   8.392   2.366   5.958  1.1475  0.0722  0.3347
  314MOL0     C41377   8.273   2.353   5.863 -0.0226 -0.3868  0.4013
  314MOL0     C41378   8.145   2.340   5.942  0.1259  0.1694 -0.0016
  314MOL0     C41379   8.105   2.461   6.007 -0.0326  0.3806 -0.3180
  314MOL0     C41380   8.064   2.551   6.070  0.5872 -1.1190  0.3632
  314MOL0     C41381   8.866   2.331   6.022 -0.0341  0.6925 -0.0521
  314MOL0     C41382   8.987   2.270   5.998 -0.1516 -0.3435 -0.5903
  314MOL0     H41383   9.374   2.002   5.785  1.4226 -1.5346  0.1098
  314MOL0     H41384   9.623   1.971   5.810  0.6751  1.9929 -1.6897
  314MOL0     H41385   9.826   2.067   6.180  0.5161 -0.8394  0.1089
  314MOL0     H41386   9.833   2.219   6.086 -3.7910  0.0997 -3.2003
  314MOL0     H41387  10.024   1.980   6.043 -2.4306 -0.0839 -2.3097
  314MOL0     H41388  10.064   2.138   6.121  0.1529 -0.2927  0.0955
  314MOL0     H41389  10.027   2.260   5.924  3.1659  0.2227  1.1787
  314MOL0     H41390   9.972   2.114   5.836 -1.2975  0.2982  1.3195
  314MOL0     H41391  10.180   2.004   5.849  0.9718 -0.6714 -0.3714
  314MOL0     H41392  10.201   2.165   5.775 -0.9053  1.8589  1.0131
  314MOL0     H41393  10.384   2.088   5.911 -1.0081 -0.4997 -3.7316
  314MOL0     H41394  10.284   2.095   6.064 -0.0107  0.1813 -0.6806
  314MOL0     H41395  10.255   2.337   6.016 -1.4587 -2.6314 -0.1605
  314MOL0     H41396  10.333   2.323   5.863 -0.4037  2.9402  0.6871
  314MOL0     H41397  10.546   2.288   5.959  0.6822  2.5364 -0.3119
  314MOL0     H41398  10.475   2.426   6.036  1.0672  0.0828  2.9333
  314MOL0     H41399  10.478   2.158   6.182 -0.7841 -0.0803 -1.4870
  314MOL0     H41400  10.453   2.326   6.243 -2.1171  1.5229 -3.0875
  314MOL0     H41401  10.760   2.124   6.084 -0.4483  2.3340 -1.8321
  314MOL0     H41402  11.056   2.276   6.266  0.6418 -0.6855  6.0846
  314MOL0     H41403  11.024   2.120   6.165  0.0318 -3.5322  1.2003
  314MOL0     H41404  11.013   2.155   6.460 -1.1612 -2.2340  0.3616
  314MOL0     H41405  11.157   2.104   6.374  0.2379  0.6005 -1.9298
  314MOL0     H41406  10.891   1.964   6.329 -0.3457  0.1677  1.8007
  314MOL0     H41407  11.045   1.878   6.305 -0.6764 -1.2740 -0.2946
  314MOL0     H41408  11.090   1.910   6.555  0.8767 -0.6553 -1.9927
  314MOL0     H41409  10.971   1.798   6.513  0.4615 -0.5413 -1.2320
  314MOL0     H41410  10.758   2.202   6.598 -0.3168 -0.4349  2.4763
  314MOL0     H41411  10.538   2.234   6.514 -0.2884  0.5502  1.6039
  314MOL0     H41412  10.218   2.372   6.331  0.7875 -2.2793 -2.9471
  314MOL0     H41413   9.975   2.421   6.314 -1.0728 -1.5478 -1.7022
  314MOL0     H41414   9.712   2.187   6.588  2.9125  0.8577 -0.4631
  314MOL0     H41415   9.676   2.122   6.436  0.9719 -0.0715 -0.4485
  314MOL0     H41416   9.522   2.319   6.389  0.5552 -0.3181  0.4963
  314MOL0     H41417   9.538   2.368   6.556  1.3953 -1.0771  1.7455
  314MOL0     H41418   9.444   2.181   6.654 -1.4657  0.2279 -0.4894
  314MOL0     H41419   9.423   2.102   6.494 -1.3359 -0.3301  1.0817
  314MOL0     H41420   9.208   2.178   6.571 -2.3221  0.9239 -0.8295
  314MOL0     H41421   9.282   2.339   6.608  2.2511  1.1602 -2.1650
  314MOL0     H41422   9.202   2.211   6.344  1.2067 -0.6658  0.4845
  314MOL0     H41423   9.328   2.339   6.349 -0.0260  2.1757  1.6120
  314MOL0     H41424   9.110   2.441   6.291 -2.2233  1.6498  1.5348
  314MOL0     H41425   9.147   2.482   6.463 -0.1670  0.6774  1.3108
  314MOL0     H41426   8.964   2.265   6.344  1.1191  2.6732 -3.0496
  314MOL0     H41427   8.992   2.282   6.518  0.3478 -0.3896  0.2596
  314MOL0     H41428   8.787   2.399   6.431  0.2653 -1.2551 -1.3274
  314MOL0     H41429   8.884   2.471   6.299 -1.9903  0.8487 -0.3594
  314MOL0     H41430   9.891   2.070   6.555  0.1191  0.5537 -1.0698
  314MOL0     H41431  10.116   2.032   6.573 -0.5655  0.6305 -0.4692
  314MOL0     H41432  10.506   1.812   6.461 -2.0110 -0.7522  3.7786
  314MOL0     H41433  10.744   1.789   6.534  0.5209  0.6989  0.3573
  314MOL0     H41434   9.635   2.206   6.158 -0.1155  0.5865  0.1884
  314MOL0     H41435   9.392   2.260   6.125 -1.7904 -4.5471  1.3765
  314MOL0     H41436   8.888   2.001   5.810 -1.5097 -2.5748  3.0033
  314MOL0     H41437   8.680   2.116   5.830 -2.2506  3.1212  0.0197
  314MOL0     H41438   8.505   2.171   5.954  3.0279 -1.4788 -0.6367
  314MOL0     H41439   8.527   2.280   5.815 -0.4418 -0.0681  0.5509
  314MOL0     H41440   8.360   2.354   6.062  1.6385  0.7512  0.5715
  314MOL0     H41441   8.432   2.467   5.955 -1.7241  1.2985  0.5445
  314MOL0     H41442   8.277   2.264   5.800  2.4966 -0.6236  0.7924
  314MOL0     H41443   8.279   2.439   5.797 -0.4912 -1.5575 -1.2165
  314MOL0     H41444   8.059   2.313   5.881 -1.5955  3.1269  0.9478
  314MOL0     H41445   8.168   2.266   6.020  5.4678  1.2312 -0.1973
  314MOL0     H41446   8.021   2.631   6.127 -0.2013 -0.3231 -1.2830
  314MOL0     H41447   8.853   2.416   6.087  1.1513 -0.0348  1.1918
  314MOL0     H41448   9.074   2.313   6.046 -1.5516  1.3234  0.5731
  315MOL0     O41449   2.492   1.617   3.284 -0.6193  0.6278  0.1383
  315MOL0     C41450   2.520   1.625   3.165  0.0029 -0.2162  1.1153
  315MOL0     O41451   2.462   1.721   3.074  0.6823  0.6250 -0.5081
  315MOL0     C41452   2.381   1.816   3.131  0.1119 -0.7684 -1.0309
  315MOL0     C41453   2.391   1.947   3.079  0.5306 -0.1275 -0.5141
  315MOL0     C41454   2.323   2.049   3.133 -0.0971  0.3086 -0.2299
  315MOL0     C41455   2.213   2.029   3.218  0.6783  0.2027  0.6421
  315MOL0     O41456   2.132   2.125   3.271  0.0961  0.3468 -0.4659
  315MOL0     C41457   2.076   2.220   3.184  0.1037 -0.4112  0.2842
  315MOL0     C41458   1.934   2.273   3.231 -0.1583  0.6763  0.2266
  315MOL0     C41459   1.859   2.161   3.302 -0.0330 -0.4839  0.2305
  315MOL0     C41460   1.716   2.196   3.342  0.2514  0.5521 -0.2763
  315MOL0     C41461   1.670   2.086   3.431  0.3324  0.1070 -0.0563
  315MOL0     C41462   1.534   2.125   3.494 -0.2019 -0.3437 -0.2987
  315MOL0     C41463   1.419   2.076   3.409  0.2207  0.6762 -0.4311
  315MOL0     C41464   1.291   2.083   3.492  0.0864  0.3463 -0.0136
  315MOL0     N41465   1.173   2.035   3.415  0.0944  0.1877 -0.7680
  315MOL0     C41466   1.045   2.067   3.448  1.2163 -0.2119  0.1856
  315MOL0     C41467   0.971   1.991   3.360  0.3042  0.1854 -0.0343
  315MOL0     C41468   0.825   2.019   3.346 -0.1806  0.0720 -0.4405
  315MOL0     C41469   0.758   1.910   3.256 -0.0824 -0.3366 -0.0305
  315MOL0     C41470   0.602   1.924   3.264 -0.0106  0.4739  0.6249
  315MOL0     C41471   0.538   2.040   3.189  0.3355  0.7730  0.6788
  315MOL0     O41472   0.411   2.080   3.235  0.4297  0.0201 -0.1371
  315MOL0     C41473   0.309   1.996   3.200  0.1029  0.1489  0.1191
  315MOL0     C41474   0.244   1.916   3.296  0.1826 -0.2313  0.5021
  315MOL0     C41475   0.130   1.844   3.256 -0.6754  0.8691  0.3682
  315MOL0     C41476   0.091   1.832   3.117  0.2069 -0.4313 -0.4913
  315MOL0     C41477  -0.030   1.743   3.074  0.5565 -0.8893 -0.2950
  315MOL0     O41478  -0.116   1.697   3.170 -0.1326  0.1031  0.3430
  315MOL0     C41479  -0.224   1.625   3.125  0.4660 -0.0972 -0.5575
  315MOL0     C41480  -0.335   1.683   3.064  0.3049  0.0314  0.1035
  315MOL0     C41481  -0.437   1.606   3.012 -0.8701 -0.5906 -0.2791
  315MOL0     C41482  -0.430   1.469   3.023  0.4601 -1.0387  0.2839
  315MOL0     O41483  -0.534   1.398   2.972  0.7693 -0.1300  0.0097
  315MOL0     C41484  -0.633   1.355   3.073 -1.2665  0.4017 -0.7544
  315MOL0     C41485  -0.739   1.457   3.082  0.5722 -0.0599  0.3700
  315MOL0     C41486  -0.861   1.389   3.145 -0.1058  0.1039  0.4379
  315MOL0     C41487  -0.989   1.475   3.132 -0.1852 -0.1680  0.4105
  315MOL0     C41488  -1.105   1.408   3.205  0.4188  0.5999  0.2447
  315MOL0     C41489  -1.154   1.277   3.144 -0.1833  0.8571  0.2513
  315MOL0     C41490  -1.289   1.219   3.202  0.0287  0.8373  0.4678
  315MOL0     C41491  -1.328   1.096   3.120  0.3662 -0.2478 -0.5470
  315MOL0    Cl41492  -1.482   1.112   3.030 -0.1406 -0.0983  0.0854
  315MOL0     C41493  -0.326   1.411   3.099 -1.2695 -0.1720  0.1653
  315MOL0     C41494  -0.221   1.489   3.144 -0.2224 -0.3952  0.4216
  315MOL0     O41495  -0.053   1.746   2.956  0.1524 -0.1301  0.2089
  315MOL0     C41496   0.162   1.905   3.023  0.1533  0.2997  0.1322
  315MOL0     C41497   0.270   1.981   3.059 -0.4467 -0.4377  0.2504
  315MOL0     N41498   1.051   1.909   3.286  0.4553 -0.4396 -0.9087
  315MOL0     N41499   1.168   1.929   3.323  0.0603  0.0888 -0.5829
  315MOL0     C41500   2.187   1.904   3.259  0.0359  0.0393 -0.3269
  315MOL0     C41501   2.265   1.795   3.208  0.3067  0.1020  0.1303
  315MOL0     C41502   2.632   1.537   3.118 -0.2813  0.3988  0.1196
  315MOL0     C41503   2.667   1.426   3.195 -0.1716 -0.1536 -0.5382
  315MOL0     C41504   2.769   1.340   3.144 -0.3645  0.5136 -0.3632
  315MOL0     C41505   2.833   1.372   3.022  1.0826  1.1198  0.5660
  315MOL0     O41506   2.941   1.307   2.974 -0.2741 -0.1945 -0.2409
  315MOL0     C41507   3.022   1.223   3.058  0.2868  0.3978 -0.6723
  315MOL0     C41508   3.125   1.142   2.982 -0.0172 -0.1955 -1.4949
  315MOL0     C41509   3.239   1.223   2.943 -0.1754  0.5598  0.2876
  315MOL0     C41510   3.346   1.142   2.867  0.3654 -0.0768  0.4928
  315MOL0     C41511   3.445   1.227   2.798  0.5394 -0.2666 -0.3434
  315MOL0     C41512   3.515   1.310   2.739  0.4342  0.4265  0.1508
  315MOL0     C41513   2.795   1.481   2.948  0.0177  0.4475  0.0843
  315MOL0     C41514   2.697   1.566   3.000  0.1313  0.6936  0.4867
  315MOL0     H41515   2.459   1.966   2.996 -1.2311  1.9434 -1.5546
  315MOL0     H41516   2.333   2.152   3.101 -1.2151  0.0092 -1.6487
  315MOL0     H41517   2.059   2.168   3.089 -1.0794  0.8549 -0.2239
  315MOL0     H41518   2.146   2.304   3.175 -0.2898 -0.1315 -0.2036
  315MOL0     H41519   1.877   2.318   3.149 -0.4343  1.6627  0.9512
  315MOL0     H41520   1.956   2.360   3.294 -0.3386  2.6351 -2.2566
  315MOL0     H41521   1.909   2.139   3.397 -1.9878  0.7175  1.6015
  315MOL0     H41522   1.847   2.077   3.232 -1.6104  0.7937 -1.1143
  315MOL0     H41523   1.712   2.296   3.387  1.2652  1.1346 -1.4070
  315MOL0     H41524   1.655   2.191   3.252  0.0917 -2.8292 -0.1197
  315MOL0     H41525   1.744   2.080   3.511  2.7278  2.8054 -1.8537
  315MOL0     H41526   1.658   1.993   3.375 -2.0275  1.9535 -2.9792
  315MOL0     H41527   1.527   2.234   3.484 -0.6597 -0.3120  0.3280
  315MOL0     H41528   1.538   2.100   3.600  1.8342 -0.5305 -0.3720
  315MOL0     H41529   1.402   2.129   3.315  4.3663 -0.1048 -1.8251
  315MOL0     H41530   1.435   1.969   3.390  3.6606  1.1520 -0.8391
  315MOL0     H41531   1.283   2.182   3.537  1.1010  0.4202  0.0233
  315MOL0     H41532   1.308   2.008   3.570  0.6773 -0.3998 -0.8374
  315MOL0     H41533   1.005   2.135   3.522 -0.7254 -1.3788  0.2976
  315MOL0     H41534   0.805   2.109   3.286  0.8702 -1.6486 -3.5804
  315MOL0     H41535   0.792   2.036   3.449  0.0785  1.1008 -0.5083
  315MOL0     H41536   0.784   1.811   3.294 -0.6392 -0.9217 -1.1203
  315MOL0     H41537   0.787   1.911   3.150  2.0186  0.1981  0.5106
  315MOL0     H41538   0.564   1.830   3.223  2.2312 -0.5468  0.7636
  315MOL0     H41539   0.567   1.921   3.368 -2.5020 -0.3774 -0.1707
  315MOL0     H41540   0.535   2.011   3.084 -2.3146 -0.0491  0.9165
  315MOL0     H41541   0.605   2.127   3.193  0.3614  0.7212  2.1634
  315MOL0     H41542   0.275   1.923   3.400 -2.4706 -1.8895  1.5010
  315MOL0     H41543   0.072   1.794   3.333 -0.8892  1.3814  0.5380
  315MOL0     H41544  -0.325   1.789   3.043 -0.9836  0.0225 -0.6722
  315MOL0     H41545  -0.499   1.662   2.942 -1.6578 -1.3986 -0.2489
  315MOL0     H41546  -0.583   1.336   3.169 -2.0648 -2.0950 -0.7641
  315MOL0     H41547  -0.671   1.257   3.043 -2.0922  0.0149  1.3799
  315MOL0     H41548  -0.763   1.486   2.979 -1.8658 -1.3458  0.4957
  315MOL0     H41549  -0.704   1.542   3.142  0.4767  0.8807 -0.8780
  315MOL0     H41550  -0.845   1.348   3.246  0.2435 -3.3921 -0.9066
  315MOL0     H41551  -0.875   1.305   3.076  0.5671 -0.5160  1.0363
  315MOL0     H41552  -0.968   1.569   3.184 -3.5907  0.1017  1.5913
  315MOL0     H41553  -1.011   1.488   3.026 -1.9129 -1.0985  0.6051
  315MOL0     H41554  -1.184   1.484   3.198  0.2088  0.4130  0.5509
  315MOL0     H41555  -1.087   1.392   3.312 -1.0216  1.1271  0.5958
  315MOL0     H41556  -1.066   1.212   3.149  0.4318  1.5590 -1.0696
  315MOL0     H41557  -1.166   1.290   3.036  0.4824 -1.2074 -0.1139
  315MOL0     H41558  -1.262   1.185   3.303  2.1936 -0.0171 -0.3265
  315MOL0     H41559  -1.366   1.296   3.191 -1.6079 -1.0610 -2.7363
  315MOL0     H41560  -1.340   1.012   3.189 -1.1785  0.2441 -0.1792
  315MOL0     H41561  -1.245   1.070   3.053  0.3099 -1.4037 -0.1851
  315MOL0     H41562  -0.325   1.303   3.110 -1.1929 -0.2950 -0.9522
  315MOL0     H41563  -0.134   1.440   3.187  0.3734 -2.4788 -2.8224
  315MOL0     H41564   0.121   1.893   2.923  3.1020 -0.3029 -1.0772
  315MOL0     H41565   0.318   2.038   2.981 -0.3594  0.2638  0.8049
  315MOL0     H41566   2.109   1.883   3.331  1.0921  1.0139  1.1880
  315MOL0     H41567   2.233   1.696   3.240 -3.4443  0.3575 -2.1965
  315MOL0     H41568   2.622   1.392   3.288 -1.8926 -0.4918 -1.4483
  315MOL0     H41569   2.803   1.255   3.202  1.5699  0.4942 -1.4420
  315MOL0     H41570   2.965   1.144   3.106  3.3688 -1.0368  0.9003
  315MOL0     H41571   3.070   1.277   3.140 -0.1843  0.7476 -0.6177
  315MOL0     H41572   3.147   1.056   3.045 -1.0516  1.4154  1.2355
  315MOL0     H41573   3.074   1.092   2.899 -1.2601 -3.1794  0.8748
  315MOL0     H41574   3.289   1.266   3.030  2.5233  0.9768 -1.3352
  315MOL0     H41575   3.204   1.302   2.876 -1.0448 -0.0866 -0.0371
  315MOL0     H41576   3.397   1.073   2.934  3.6172  0.0950 -1.6048
  315MOL0     H41577   3.288   1.084   2.794 -1.1561  0.0102  1.5764
  315MOL0     H41578   3.582   1.378   2.691  1.1226  1.3293  2.2863
  315MOL0     H41579   2.860   1.509   2.866  2.2950  1.8066  2.2093
  315MOL0     H41580   2.679   1.663   2.954 -1.6982  0.8813  1.4801
  316MOL0     O41581   0.056   3.539   7.692  0.2099 -0.5010  0.4720
  316MOL0     C41582   0.134   3.632   7.683  0.5414  0.0574 -0.3901
  316MOL0     O41583   0.100   3.759   7.632 -0.4027  0.3379 -0.2085
  316MOL0     C41584  -0.026   3.799   7.596  0.0179  0.7592  0.0767
  316MOL0     C41585  -0.138   3.742   7.658  0.4625  0.0993  0.0554
  316MOL0     C41586  -0.262   3.806   7.626  0.4318  0.1594  0.2189
  316MOL0     C41587  -0.285   3.896   7.517  0.2511 -0.2251  0.1714
  316MOL0     O41588  -0.412   3.927   7.466  0.0086  0.0971  0.2258
  316MOL0     C41589  -0.412   4.002   7.341 -0.2130  0.0526 -1.0686
  316MOL0     C41590  -0.553   4.035   7.304  0.5336  0.3420 -0.5076
  316MOL0     C41591  -0.552   4.088   7.156 -0.8053 -0.6188 -0.6534
  316MOL0     C41592  -0.692   4.123   7.102  0.1672  0.1448  0.2784
  316MOL0     C41593  -0.677   4.179   6.967 -0.3067 -0.2107  0.0039
  316MOL0     C41594  -0.679   4.076   6.862 -0.2058  0.1041 -0.2810
  316MOL0     C41595  -0.663   4.141   6.724  0.8957 -0.3290  0.2275
  316MOL0     C41596  -0.543   4.229   6.702  0.3779 -0.9707 -0.1234
  316MOL0     N41597  -0.415   4.155   6.711 -0.2098 -0.6816  0.9046
  316MOL0     C41598  -0.367   4.042   6.639  0.3133  0.1180 -0.8549
  316MOL0     C41599  -0.241   4.028   6.677 -0.1373 -0.6110  0.2859
  316MOL0     C41600  -0.155   3.924   6.610  0.2554  0.8586  0.2977
  316MOL0     C41601  -0.189   3.780   6.650  0.4093 -0.8317 -0.8295
  316MOL0     C41602  -0.318   3.732   6.589  0.5372  0.8412  0.2368
  316MOL0     C41603  -0.327   3.585   6.599 -0.3553  0.7950  0.3445
  316MOL0     O41604  -0.467   3.547   6.599 -0.5518  0.6169  0.3138
  316MOL0     C41605  -0.547   3.564   6.490  0.5132 -0.6773 -0.5521
  316MOL0     C41606  -0.496   3.581   6.360 -0.4124 -0.8552 -0.9119
  316MOL0     C41607  -0.582   3.603   6.250 -0.2303 -0.3471 -0.3424
  316MOL0     C41608  -0.718   3.590   6.267 -0.0415 -0.4023  0.2059
  316MOL0     C41609  -0.811   3.608   6.154 -0.0625  0.4068  0.3275
  316MOL0     O41610  -0.940   3.613   6.185  0.6618  0.1113  0.4649
  316MOL0     C41611  -1.043   3.623   6.091 -0.3744  0.1712 -0.0780
  316MOL0     C41612  -1.035   3.644   5.949  0.4889  0.1255 -0.0458
  316MOL0     C41613  -1.147   3.624   5.864 -0.2850  0.2696 -0.5261
  316MOL0     C41614  -1.276   3.597   5.923  0.2999 -0.7068 -0.8322
  316MOL0     O41615  -1.388   3.599   5.846 -0.2571 -0.6817  0.7960
  316MOL0     C41616  -1.522   3.595   5.895 -0.3205 -0.3585 -0.7337
  316MOL0     C41617  -1.627   3.608   5.788 -0.5543 -0.4291 -1.2373
  316MOL0     C41618  -1.765   3.567   5.851  0.4994 -0.6801  0.4885
  316MOL0     C41619  -1.877   3.588   5.748 -0.0616  0.2838 -0.2483
  316MOL0     C41620  -2.006   3.532   5.796 -0.0311 -0.1821  0.5155
  316MOL0     C41621  -2.120   3.530   5.688  0.7623 -0.3565 -0.5114
  316MOL0     C41622  -2.244   3.470   5.745 -0.2669 -0.6223  0.3078
  316MOL0     C41623  -2.377   3.475   5.657 -0.4335  0.0813 -0.4487
  316MOL0    Cl41624  -2.519   3.397   5.740  0.4203  0.2258  0.1416
  316MOL0     C41625  -1.284   3.594   6.069  0.1526 -0.7265  0.6884
  316MOL0     C41626  -1.174   3.596   6.144  0.4715 -0.9222  0.2405
  316MOL0     O41627  -0.767   3.595   6.042  0.8270  0.2698  0.1752
  316MOL0     C41628  -0.773   3.566   6.400 -0.0631 -0.3009 -0.0437
  316MOL0     C41629  -0.686   3.552   6.509 -0.9581 -0.6115  0.0987
  316MOL0     N41630  -0.209   4.122   6.773 -0.2401 -0.8251  0.2397
  316MOL0     N41631  -0.314   4.197   6.795  0.1505 -0.2903 -0.7055
  316MOL0     C41632  -0.164   3.943   7.459  0.1460 -0.4668 -0.2827
  316MOL0     C41633  -0.040   3.894   7.496 -0.1451 -0.4307  0.3317
  316MOL0     C41634   0.265   3.602   7.733 -0.1265  0.2426 -0.2878
  316MOL0     C41635   0.371   3.667   7.671  0.4741  0.0167  0.4028
  316MOL0     C41636   0.501   3.637   7.707  0.1859  1.4180 -0.7413
  316MOL0     C41637   0.528   3.544   7.813  0.4041  0.0166  0.6466
  316MOL0     O41638   0.654   3.516   7.848  0.1857  0.1879 -0.1011
  316MOL0     C41639   0.677   3.408   7.939 -0.4294  0.6742 -0.2372
  316MOL0     C41640   0.824   3.372   7.905 -0.1661 -0.1243 -0.1349
  316MOL0     C41641   0.913   3.490   7.951 -0.1951 -1.3829 -1.1820
  316MOL0     C41642   1.046   3.446   8.015 -0.4673  0.0327 -0.1207
  316MOL0     C41643   1.142   3.557   8.021  0.6808 -0.6146  0.3633
  316MOL0     C41644   1.222   3.647   8.025 -0.2351  0.2005 -0.7575
  316MOL0     C41645   0.419   3.502   7.890 -0.0334 -0.3988 -0.8907
  316MOL0     C41646   0.288   3.530   7.852  0.5122 -0.2020 -0.5255
  316MOL0     H41647  -0.139   3.667   7.737 -2.3886 -1.1384 -0.9865
  316MOL0     H41648  -0.353   3.776   7.678  0.1427  0.9995  0.1998
  316MOL0     H41649  -0.357   3.944   7.267  2.3207  3.0363 -1.7122
  316MOL0     H41650  -0.353   4.094   7.347  3.7777 -2.2562 -1.9030
  316MOL0     H41651  -0.597   4.101   7.379  1.1809 -1.1794  1.2954
  316MOL0     H41652  -0.617   3.946   7.312  0.1953  0.5347 -1.0341
  316MOL0     H41653  -0.513   4.006   7.095  1.4634  0.4293 -0.7194
  316MOL0     H41654  -0.493   4.180   7.161 -2.6518  0.5876 -0.3484
  316MOL0     H41655  -0.761   4.039   7.108  0.5910 -0.2395 -0.1147
  316MOL0     H41656  -0.724   4.193   7.180  2.8465  0.2622  1.3793
  316MOL0     H41657  -0.578   4.226   6.973 -0.2813 -0.3671  1.0159
  316MOL0     H41658  -0.752   4.257   6.952 -2.1387 -1.6427  1.3275
  316MOL0     H41659  -0.775   4.023   6.862  1.4135 -3.0373  0.4405
  316MOL0     H41660  -0.594   4.015   6.892  0.1998  0.7547 -0.0787
  316MOL0     H41661  -0.660   4.059   6.652 -0.0623  2.7614 -3.7272
  316MOL0     H41662  -0.752   4.201   6.701  1.8619  0.5446 -1.4611
  316MOL0     H41663  -0.545   4.313   6.772 -1.7042 -1.4115  0.4137
  316MOL0     H41664  -0.545   4.267   6.599 -1.6033 -0.0332  0.2103
  316MOL0     H41665  -0.409   3.976   6.564  0.7823 -2.0217  0.6680
  316MOL0     H41666  -0.052   3.945   6.639  0.2379  1.1813  0.1391
  316MOL0     H41667  -0.155   3.943   6.502 -0.7943 -0.8679 -0.0449
  316MOL0     H41668  -0.197   3.770   6.758  0.6165 -3.0948 -0.9740
  316MOL0     H41669  -0.106   3.715   6.621  0.8469 -0.1990 -1.0306
  316MOL0     H41670  -0.405   3.771   6.643  0.1848 -0.0318  0.3100
  316MOL0     H41671  -0.325   3.766   6.485  0.5262 -2.0479 -0.7951
  316MOL0     H41672  -0.281   3.546   6.691 -0.8045  0.8829  0.6129
  316MOL0     H41673  -0.276   3.548   6.510  0.7026  2.7147  0.1073
  316MOL0     H41674  -0.391   3.584   6.331 -0.4482 -1.6178 -1.1418
  316MOL0     H41675  -0.536   3.614   6.152  0.8683 -2.3386 -0.1069
  316MOL0     H41676  -0.945   3.673   5.895 -1.2482 -1.5393 -4.2653
  316MOL0     H41677  -1.123   3.628   5.758  1.9551 -1.2280 -0.1491
  316MOL0     H41678  -1.547   3.677   5.963 -1.1774 -1.3438  0.1700
  316MOL0     H41679  -1.532   3.495   5.938  0.1660  0.2865  0.9460
  316MOL0     H41680  -1.600   3.552   5.698 -0.1258 -3.7703  0.8238
  316MOL0     H41681  -1.637   3.715   5.765 -1.2247 -0.7830 -2.7319
  316MOL0     H41682  -1.782   3.618   5.946 -0.2325  1.4850 -0.7337
  316MOL0     H41683  -1.756   3.459   5.868  0.0100 -0.5802  1.4322
  316MOL0     H41684  -1.882   3.694   5.724 -1.9694  0.6010  1.2713
  316MOL0     H41685  -1.849   3.533   5.658 -2.1133  2.3587 -2.2868
  316MOL0     H41686  -2.038   3.585   5.886 -0.3199 -1.5364  1.2417
  316MOL0     H41687  -1.998   3.429   5.832  1.1735 -0.1784  0.2778
  316MOL0     H41688  -2.088   3.470   5.603  0.7157  0.1620 -0.9010
  316MOL0     H41689  -2.142   3.629   5.647 -3.0720 -1.3902 -1.3276
  316MOL0     H41690  -2.226   3.365   5.770 -0.4147 -0.2649  2.0562
  316MOL0     H41691  -2.254   3.531   5.834  0.8485  2.3980 -1.5091
  316MOL0     H41692  -2.373   3.418   5.564 -1.4653 -1.8328  0.6234
  316MOL0     H41693  -2.407   3.579   5.637 -1.0140 -0.2397 -1.2888
  316MOL0     H41694  -1.379   3.585   6.119 -1.3701  1.0743 -1.6692
  316MOL0     H41695  -1.184   3.589   6.251  0.3723 -0.4606  0.2647
  316MOL0     H41696  -0.881   3.568   6.413 -0.5009  2.1995 -3.0163
  316MOL0     H41697  -0.731   3.537   6.606  0.1600  1.5127  1.0213
  316MOL0     H41698  -0.171   4.014   7.376  0.9295  0.1292  0.1470
  316MOL0     H41699   0.051   3.929   7.447 -1.0311 -0.1550 -1.1840
  316MOL0     H41700   0.345   3.745   7.601 -0.5326 -0.3948  0.2995
  316MOL0     H41701   0.585   3.692   7.667  2.6431 -0.4829  1.4723
  316MOL0     H41702   0.609   3.324   7.921  1.8169 -1.9084  2.2925
  316MOL0     H41703   0.675   3.450   8.040  0.1665 -0.7752  0.4063
  316MOL0     H41704   0.853   3.284   7.962  0.7466 -0.2990 -0.8534
  316MOL0     H41705   0.841   3.347   7.800  0.1550  2.0764 -0.6659
  316MOL0     H41706   0.865   3.557   8.023 -1.2048 -3.3548  0.0342
  316MOL0     H41707   0.931   3.560   7.868  1.7348  1.6597  1.5710
  316MOL0     H41708   1.021   3.411   8.116 -0.5948 -2.0569 -0.8332
  316MOL0     H41709   1.091   3.367   7.953 -1.0093 -1.4231  1.2726
  316MOL0     H41710   1.276   3.738   8.040 -0.1466 -0.1461  1.3163
  316MOL0     H41711   0.425   3.448   7.984 -2.6964  0.4666 -0.1256
  316MOL0     H41712   0.205   3.485   7.905  2.0069  0.6620  2.8045
  317MOL0     O41713   0.678   9.568   1.538  0.2974  0.4423 -0.1142
  317MOL0     C41714   0.784   9.622   1.512  0.0762 -0.7192 -1.7296
  317MOL0     O41715   0.785   9.742   1.459 -0.6914 -0.4262  0.0194
  317MOL0     C41716   0.673   9.820   1.429  0.0762  0.1782 -0.1995
  317MOL0     C41717   0.663   9.874   1.299 -0.0761 -0.1769  0.0255
  317MOL0     C41718   0.552   9.944   1.264 -0.0809  1.1686  0.8010
  317MOL0     C41719   0.441   9.951   1.348 -0.5924 -0.0816 -0.5866
  317MOL0     O41720   0.326  10.022   1.304 -0.3384  0.0574 -0.2737
  317MOL0     C41721   0.195   9.993   1.366 -0.7681  0.1823  0.2468
  317MOL0     C41722   0.165   9.847   1.347  0.0344  0.9497  0.4686
  317MOL0     C41723   0.022   9.810   1.362 -0.7146  0.4034 -0.1303
  317MOL0     C41724  -0.009   9.673   1.300  0.1582  0.0442 -0.3079
  317MOL0     C41725  -0.163   9.643   1.306 -0.0463 -0.3781 -0.5624
  317MOL0     C41726  -0.207   9.519   1.231  1.0395 -0.5802  0.3008
  317MOL0     C41727  -0.361   9.491   1.271 -0.6563  0.9223  0.4184
  317MOL0     C41728  -0.456   9.576   1.192  0.5408 -0.1829  0.8645
  317MOL0     N41729  -0.596   9.540   1.215 -0.1836 -0.4702 -0.1851
  317MOL0     C41730  -0.644   9.447   1.306 -0.1492 -0.6003 -0.6407
  317MOL0     C41731  -0.778   9.453   1.295  0.0132 -1.2478 -0.0826
  317MOL0     C41732  -0.879   9.360   1.353 -0.0380  1.1787 -0.4880
  317MOL0     C41733  -0.967   9.455   1.432  0.3309 -0.0265 -0.3317
  317MOL0     C41734  -1.086   9.389   1.513 -0.3111  0.1470 -1.1908
  317MOL0     C41735  -1.210   9.373   1.433  0.3276 -0.1481  0.0321
  317MOL0     O41736  -1.305   9.290   1.502  0.0184 -0.4083  0.0098
  317MOL0     C41737  -1.435   9.333   1.514  0.3991 -0.4796 -0.0913
  317MOL0     C41738  -1.532   9.233   1.533 -0.1714 -1.4934 -0.0639
  317MOL0     C41739  -1.666   9.264   1.538  0.1981 -0.2315  0.1171
  317MOL0     C41740  -1.711   9.402   1.529 -0.9544 -1.1881 -0.3488
  317MOL0     C41741  -1.850   9.437   1.532 -0.3530 -0.2053  0.1106
  317MOL0     O41742  -1.932   9.328   1.520  0.1371 -0.2345  0.4507
  317MOL0     C41743  -2.064   9.342   1.482  0.2534  0.0294 -0.3083
  317MOL0     C41744  -2.152   9.237   1.502  0.7212  0.0451 -0.2160
  317MOL0     C41745  -2.290   9.250   1.468  0.3653 -0.2521  0.6592
  317MOL0     C41746  -2.346   9.369   1.410  0.2151 -0.6208 -0.2794
  317MOL0     O41747  -2.480   9.382   1.378  0.2488 -0.0614  0.8673
  317MOL0     C41748  -2.560   9.263   1.346  0.3742  0.5060 -0.3047
  317MOL0     C41749  -2.701   9.303   1.301  0.1068 -0.4306 -0.2194
  317MOL0     C41750  -2.788   9.179   1.293  0.4854 -0.1570  0.0506
  317MOL0     C41751  -2.901   9.180   1.184  0.2328 -0.2451  0.0845
  317MOL0     C41752  -3.019   9.261   1.227  0.6148  0.2664 -0.2585
  317MOL0     C41753  -3.136   9.266   1.127 -0.9207  0.0510  0.4405
  317MOL0     C41754  -3.246   9.357   1.188  0.3131 -0.1828 -0.4974
  317MOL0     C41755  -3.382   9.329   1.120 -0.5598 -0.7762 -0.0145
  317MOL0    Cl41756  -3.448   9.167   1.167  0.0975 -0.1770 -0.2798
  317MOL0     C41757  -2.254   9.466   1.382 -1.0454  1.0637 -0.4492
  317MOL0     C41758  -2.119   9.456   1.422 -0.6888  0.5088  0.1279
  317MOL0     O41759  -1.887   9.556   1.552  0.1853  0.5296  0.1072
  317MOL0     C41760  -1.615   9.502   1.532 -0.3075  0.1141  0.3106
  317MOL0     C41761  -1.481   9.472   1.530 -0.1567  0.4013  0.6645
  317MOL0     N41762  -0.811   9.539   1.194  0.0092  0.8030 -0.3822
  317MOL0     N41763  -0.701   9.588   1.157  0.1627 -0.1500  0.4815
  317MOL0     C41764   0.447   9.906   1.478 -0.5379 -0.3547 -0.0939
  317MOL0     C41765   0.562   9.836   1.516  0.7638 -0.9639 -0.4297
  317MOL0     C41766   0.918   9.569   1.541 -0.4881 -0.1602  0.3143
  317MOL0     C41767   0.929   9.451   1.609  0.3027  1.1351 -0.1931
  317MOL0     C41768   1.052   9.394   1.648 -0.9605  0.5696 -0.4989
  317MOL0     C41769   1.169   9.459   1.618 -0.4158 -0.6804 -0.2399
  317MOL0     O41770   1.274   9.393   1.659 -0.1336 -0.1008 -0.4778
  317MOL0     C41771   1.396   9.467   1.657 -0.0619 -0.2309 -0.6584
  317MOL0     C41772   1.507   9.408   1.745  0.1810 -0.5676  0.4749
  317MOL0     C41773   1.637   9.431   1.675 -0.4057 -0.1176 -0.7489
  317MOL0     C41774   1.764   9.392   1.754 -0.6658 -0.0695  0.3356
  317MOL0     C41775   1.798   9.255   1.730 -0.2542  0.5790  0.7864
  317MOL0     C41776   1.802   9.140   1.695 -0.9336 -0.0481 -0.0619
  317MOL0     C41777   1.158   9.578   1.541  0.5092  0.5023 -0.4196
  317MOL0     C41778   1.037   9.637   1.509  0.6044  0.1496 -0.5832
  317MOL0     H41779   0.743   9.866   1.226  1.3137 -1.7265  1.6305
  317MOL0     H41780   0.552   9.998   1.170  4.1162  0.1570  0.0403
  317MOL0     H41781   0.125  10.037   1.295 -1.4717 -2.0678 -0.5364
  317MOL0     H41782   0.187  10.032   1.468  0.6146  2.6054 -0.4756
  317MOL0     H41783   0.226   9.785   1.414 -0.4587 -0.7202 -0.5523
  317MOL0     H41784   0.199   9.818   1.247  2.7283  1.1571  1.2405
  317MOL0     H41785  -0.044   9.887   1.321 -1.3960  0.2153  0.5846
  317MOL0     H41786   0.006   9.807   1.471  0.6807  1.8115  0.1474
  317MOL0     H41787   0.026   9.673   1.196 -0.7630  1.8129 -0.6670
  317MOL0     H41788   0.032   9.599   1.369 -0.9416  0.3390  0.7047
  317MOL0     H41789  -0.207   9.730   1.256 -0.4936  0.3952  1.1040
  317MOL0     H41790  -0.199   9.648   1.409 -2.7770  3.4781 -1.4528
  317MOL0     H41791  -0.144   9.438   1.268  1.0565 -0.7951 -0.1960
  317MOL0     H41792  -0.201   9.516   1.122 -0.0710  0.1883  0.1934
  317MOL0     H41793  -0.393   9.389   1.249 -0.8437  1.2203 -0.7329
  317MOL0     H41794  -0.388   9.505   1.376 -0.3036  1.6270  0.4195
  317MOL0     H41795  -0.434   9.565   1.085  0.8612 -1.4175  1.0400
  317MOL0     H41796  -0.451   9.685   1.198 -1.0114  0.0591 -1.2682
  317MOL0     H41797  -0.600   9.375   1.374 -2.1097 -0.3479  0.9911
  317MOL0     H41798  -0.835   9.290   1.425 -3.8196 -0.5090  0.4357
  317MOL0     H41799  -0.935   9.307   1.276 -0.0167  1.2900 -0.5804
  317MOL0     H41800  -1.015   9.529   1.368 -1.2198  0.0275  0.8546
  317MOL0     H41801  -0.916   9.501   1.517 -2.5621 -2.9013  3.3022
  317MOL0     H41802  -1.059   9.291   1.553 -2.9856 -0.2838 -0.2597
  317MOL0     H41803  -1.110   9.449   1.601  1.5282  1.3734 -1.4548
  317MOL0     H41804  -1.191   9.323   1.337 -0.2297 -0.5098  0.1079
  317MOL0     H41805  -1.249   9.469   1.398  2.1795  0.0569 -1.6617
  317MOL0     H41806  -1.496   9.134   1.555  3.1227 -0.2365  0.8053
  317MOL0     H41807  -1.741   9.186   1.548  0.3691 -0.3934  0.1382
  317MOL0     H41808  -2.125   9.140   1.544  0.4984 -0.4922 -1.2748
  317MOL0     H41809  -2.352   9.161   1.477 -0.2999  0.0033 -0.8907
  317MOL0     H41810  -2.576   9.199   1.433  3.6848 -0.0139  0.0384
  317MOL0     H41811  -2.509   9.214   1.262 -1.2779  3.0402 -2.9770
  317MOL0     H41812  -2.715   9.360   1.210 -4.5333  2.3661  1.8921
  317MOL0     H41813  -2.753   9.363   1.377  0.0542  1.3032 -1.5643
  317MOL0     H41814  -2.828   9.160   1.393 -0.4037  1.6387  0.0776
  317MOL0     H41815  -2.722   9.094   1.272 -1.4437 -2.5628  2.8701
  317MOL0     H41816  -2.861   9.227   1.093 -2.6340 -0.3598 -1.3626
  317MOL0     H41817  -2.925   9.076   1.160  2.2792 -0.1097 -3.0943
  317MOL0     H41818  -2.980   9.362   1.240 -0.6245  0.4169  3.3560
  317MOL0     H41819  -3.061   9.245   1.327 -1.0971  3.9856 -0.1824
  317MOL0     H41820  -3.172   9.167   1.100  2.1043 -1.4646  1.5407
  317MOL0     H41821  -3.102   9.301   1.029  2.5032 -0.5291  1.2606
  317MOL0     H41822  -3.256   9.334   1.294  0.8158 -0.5286 -0.5193
  317MOL0     H41823  -3.223   9.464   1.179 -1.1191  0.1221 -0.8304
  317MOL0     H41824  -3.370   9.339   1.011 -1.1887  2.0512  0.1191
  317MOL0     H41825  -3.445   9.416   1.139 -1.6000 -0.9098 -2.4776
  317MOL0     H41826  -2.294   9.551   1.327 -0.8868  0.2302 -1.9157
  317MOL0     H41827  -2.079   9.556   1.411 -3.8802  2.1261  1.7998
  317MOL0     H41828  -1.645   9.605   1.513  1.4962  0.1092 -3.5726
  317MOL0     H41829  -1.410   9.554   1.528 -0.5419  0.7428 -1.3273
  317MOL0     H41830   0.368   9.923   1.549  0.4525 -0.3248  1.0281
  317MOL0     H41831   0.562   9.792   1.616 -1.8791  2.2659  1.1871
  317MOL0     H41832   0.843   9.391   1.638  0.5550 -0.1884 -1.9981
  317MOL0     H41833   1.066   9.305   1.709  3.1999  1.8700  0.7643
  317MOL0     H41834   1.384   9.571   1.692 -2.0378 -1.1594  1.7387
  317MOL0     H41835   1.424   9.456   1.552 -2.0342 -1.8128 -1.0766
  317MOL0     H41836   1.506   9.464   1.839  1.1046 -2.4562  1.6653
  317MOL0     H41837   1.497   9.302   1.770 -0.6696 -0.2764  1.4339
  317MOL0     H41838   1.645   9.539   1.660  1.0746  0.2532  2.0558
  317MOL0     H41839   1.637   9.377   1.580 -0.3386  1.3206 -1.5943
  317MOL0     H41840   1.843   9.459   1.717 -1.0546  0.0357 -0.3147
  317MOL0     H41841   1.752   9.410   1.862 -2.2433 -2.1845  0.5825
  317MOL0     H41842   1.784   9.043   1.655 -2.5168 -0.4068  1.3996
  317MOL0     H41843   1.241   9.637   1.504 -1.3902  3.0193 -0.9168
  317MOL0     H41844   1.039   9.726   1.447  0.3529  0.3850 -0.2579
  318MOL0     O41845   9.876   5.994   9.701  0.7755 -0.7012  0.1922
  318MOL0     C41846   9.887   6.044   9.589 -0.2956 -0.2211  0.3395
  318MOL0     O41847   9.785   6.072   9.504  0.0788 -0.2605 -0.2191
  318MOL0     C41848   9.661   6.007   9.503 -0.2519 -0.2208 -0.1016
  318MOL0     C41849   9.630   5.894   9.567  0.1666 -0.3531  1.3997
  318MOL0     C41850   9.492   5.861   9.572  0.4407  0.1301 -0.6767
  318MOL0     C41851   9.389   5.927   9.508 -0.0293  0.0923  0.3631
  318MOL0     O41852   9.258   5.881   9.516  0.5513  0.0008 -0.1735
  318MOL0     C41853   9.150   5.963   9.465 -0.0599 -0.0868 -0.0913
  318MOL0     C41854   9.019   5.884   9.511 -0.6349 -0.5309  0.3290
  318MOL0     C41855   8.900   5.955   9.442  0.2419  0.0311 -0.2958
  318MOL0     C41856   8.762   5.907   9.489  0.1080 -0.0202 -0.4139
  318MOL0     C41857   8.743   5.764   9.468  0.2770 -0.0393  0.3164
  318MOL0     C41858   8.697   5.681   9.589  0.1190 -0.0797  0.4438
  318MOL0     C41859   8.821   5.648   9.669 -0.8186  0.2465 -0.4574
  318MOL0     C41860   8.802   5.527   9.760 -0.5056  0.1143 -0.5343
  318MOL0     N41861   8.689   5.543   9.850 -0.3517 -0.4974 -0.4315
  318MOL0     C41862   8.574   5.466   9.839 -0.3625 -0.2527 -0.2737
  318MOL0     C41863   8.505   5.498   9.948  0.5784  0.0773 -0.2831
  318MOL0     C41864   8.367   5.435   9.984 -0.3635 -0.2944 -0.3245
  318MOL0     C41865   8.248   5.511   9.924  0.4550  1.1994 -0.1630
  318MOL0     C41866   8.117   5.468   9.980  0.0529 -0.7680  0.5423
  318MOL0     C41867   8.007   5.566   9.933  1.2607  0.6395  0.8509
  318MOL0     O41868   7.946   5.517   9.813  0.0146  0.3431  0.0370
  318MOL0     C41869   7.838   5.588   9.754 -0.2804  0.5477  0.0961
  318MOL0     C41870   7.773   5.538   9.640 -0.4316  0.0205  0.2046
  318MOL0     C41871   7.664   5.602   9.580 -0.0580 -0.4337 -0.6007
  318MOL0     C41872   7.604   5.722   9.633  1.1774 -0.0536 -0.5743
  318MOL0     C41873   7.501   5.792   9.552  0.3010  0.2871 -0.1584
  318MOL0     O41874   7.431   5.884   9.615  0.9122 -0.4221 -0.1089
  318MOL0     C41875   7.302   5.902   9.578  0.4592 -0.1872 -0.2713
  318MOL0     C41876   7.270   6.009   9.487 -0.4381 -0.1035  0.6886
  318MOL0     C41877   7.143   6.037   9.442 -0.2642  1.0037  0.1031
  318MOL0     C41878   7.030   5.952   9.482  0.1058  0.2194  0.4328
  318MOL0     O41879   6.896   5.972   9.437 -1.0834 -0.2034  0.3516
  318MOL0     C41880   6.869   6.101   9.385  0.2253  0.0457 -0.6102
  318MOL0     C41881   6.720   6.099   9.350  0.1940 -0.1370  0.1871
  318MOL0     C41882   6.634   6.171   9.458  0.4883  0.2389 -0.6013
  318MOL0     C41883   6.490   6.134   9.444  0.9231 -0.8354 -0.1306
  318MOL0     C41884   6.404   6.188   9.561 -0.1728 -0.4660 -0.5576
  318MOL0     C41885   6.386   6.337   9.552 -0.0555  0.0596  0.2980
  318MOL0     C41886   6.282   6.393   9.647 -0.5428 -0.4771 -1.1084
  318MOL0     C41887   6.162   6.458   9.575 -0.1360 -0.2722 -0.0840
  318MOL0    Cl41888   6.038   6.504   9.701 -0.3270  0.4598  0.3020
  318MOL0     C41889   7.060   5.852   9.584 -0.5934 -0.2434  0.0505
  318MOL0     C41890   7.196   5.833   9.629  0.7903  0.2768 -0.7660
  318MOL0     O41891   7.473   5.746   9.442 -0.2029  0.2353  0.2326
  318MOL0     C41892   7.677   5.777   9.746  0.1874  0.3912 -0.0364
  318MOL0     C41893   7.785   5.710   9.799 -0.1913  0.3162  0.0712
  318MOL0     N41894   8.577   5.592  10.026  0.0940 -0.0304  0.3416
  318MOL0     N41895   8.684   5.621   9.961 -0.2197 -0.6471 -0.4380
  318MOL0     C41896   9.424   6.044   9.442 -0.6700 -0.2846  0.4233
  318MOL0     C41897   9.557   6.087   9.449  0.3827 -0.2557  0.1580
  318MOL0     C41898  10.017   6.109   9.553 -0.2680  0.2614  0.0196
  318MOL0     C41899  10.097   6.160   9.651  0.5273  0.2912  0.5428
  318MOL0     C41900  10.213   6.224   9.624  0.4768  0.5002  0.8378
  318MOL0     C41901  10.253   6.254   9.499  0.1507  0.1161 -0.4270
  318MOL0     O41902  10.356   6.325   9.466 -0.0526 -0.0844 -0.1371
  318MOL0     C41903  10.419   6.402   9.567 -0.6991  0.2987 -0.3261
  318MOL0     C41904  10.514   6.496   9.493 -0.3031  0.0537 -0.3301
  318MOL0     C41905  10.635   6.413   9.431  0.6456  0.5260  0.7265
  318MOL0     C41906  10.776   6.458   9.478  0.5820 -0.0865 -0.4890
  318MOL0     C41907  10.779   6.410   9.613  0.0847 -1.1377 -0.3555
  318MOL0     C41908  10.771   6.384   9.733 -0.4997 -0.3448 -0.0377
  318MOL0     C41909  10.172   6.205   9.393  0.5243  0.9465 -0.0151
  318MOL0     C41910  10.052   6.129   9.418 -0.5326  0.0462 -0.4705
  318MOL0     H41911   9.708   5.840   9.621  0.1979  0.7103  2.4403
  318MOL0     H41912   9.469   5.771   9.627  0.5052  1.8032  2.3032
  318MOL0     H41913   9.176   5.971   9.359 -0.2264  0.5507 -0.0874
  318MOL0     H41914   9.157   6.065   9.506  1.9507 -1.0623  2.2410
  318MOL0     H41915   9.003   5.884   9.619  1.4278 -3.0542  0.7360
  318MOL0     H41916   9.027   5.779   9.482  2.1911 -0.2675 -0.1220
  318MOL0     H41917   8.908   5.965   9.333 -2.6998  2.9187 -0.4049
  318MOL0     H41918   8.913   6.062   9.464  2.7255 -0.5939  1.7232
  318MOL0     H41919   8.756   5.923   9.597 -0.3047 -1.5275 -0.1983
  318MOL0     H41920   8.689   5.976   9.447 -0.4787 -0.1984  0.2983
  318MOL0     H41921   8.832   5.718   9.424  0.8288  1.2204  0.0610
  318MOL0     H41922   8.664   5.754   9.393  1.5532  0.4921 -1.1638
  318MOL0     H41923   8.651   5.587   9.558  1.1874 -1.2502  2.2257
  318MOL0     H41924   8.635   5.737   9.659  2.6712  1.0840  1.9292
  318MOL0     H41925   8.914   5.634   9.613 -0.4392  0.1167  0.1979
  318MOL0     H41926   8.841   5.737   9.729 -0.1305  0.6118 -1.2071
  318MOL0     H41927   8.890   5.518   9.824 -0.4677  1.1471 -0.4172
  318MOL0     H41928   8.773   5.439   9.702 -2.1478  1.7375 -2.3245
  318MOL0     H41929   8.546   5.400   9.757  2.8805 -0.6747 -1.1616
  318MOL0     H41930   8.357   5.434  10.093  0.5946  0.4288 -0.2187
  318MOL0     H41931   8.368   5.333   9.945  0.7221 -0.1630 -0.6711
  318MOL0     H41932   8.246   5.520   9.815 -1.2959  1.1557 -0.1735
  318MOL0     H41933   8.256   5.611   9.967 -1.4972  1.3815 -0.1336
  318MOL0     H41934   8.101   5.363   9.954 -3.4309 -0.4841  1.0054
  318MOL0     H41935   8.125   5.477  10.088  0.2503  1.7365  0.3873
  318MOL0     H41936   8.056   5.661   9.908 -1.0767  0.9299 -3.7178
  318MOL0     H41937   7.938   5.578  10.017 -2.0350 -0.8028 -1.4371
  318MOL0     H41938   7.810   5.444   9.600 -2.2758 -0.2614 -0.9407
  318MOL0     H41939   7.627   5.569   9.484 -2.6769  1.8162 -0.4906
  318MOL0     H41940   7.350   6.074   9.452 -2.5850  1.6364 -1.2839
  318MOL0     H41941   7.125   6.118   9.373  2.6851 -0.4613 -2.6561
  318MOL0     H41942   6.928   6.119   9.295  2.0144  1.2477  0.7421
  318MOL0     H41943   6.879   6.185   9.455 -1.9498  1.2404 -1.6333
  318MOL0     H41944   6.696   5.995   9.328  3.0942 -1.3205  2.1013
  318MOL0     H41945   6.691   6.154   9.260 -3.1414  1.5081  2.0729
  318MOL0     H41946   6.661   6.276   9.445 -0.4896  0.2712 -2.8862
  318MOL0     H41947   6.660   6.130   9.556 -2.9243  0.5116  0.5563
  318MOL0     H41948   6.450   6.181   9.354  1.3467  1.9309  1.0273
  318MOL0     H41949   6.492   6.025   9.440 -0.6169 -0.8572 -1.9393
  318MOL0     H41950   6.447   6.150   9.654 -0.1702 -0.9725 -0.7634
  318MOL0     H41951   6.311   6.134   9.547  1.3030 -3.0100 -1.1708
  318MOL0     H41952   6.376   6.372   9.449  2.4746  0.4053  0.1182
  318MOL0     H41953   6.481   6.388   9.573 -0.8546  1.6526  0.2214
  318MOL0     H41954   6.242   6.317   9.715  0.3769  0.3419  0.4056
  318MOL0     H41955   6.331   6.468   9.709  1.5433 -2.4853 -0.2037
  318MOL0     H41956   6.110   6.390   9.507 -2.7772  2.6969 -1.3081
  318MOL0     H41957   6.192   6.546   9.518 -1.8354 -0.9969 -2.2383
  318MOL0     H41958   6.985   5.784   9.623 -2.3057  2.3046  1.5142
  318MOL0     H41959   7.213   5.755   9.703 -2.0175  0.8887  0.6636
  318MOL0     H41960   7.645   5.872   9.787 -0.2411  1.4295 -2.5955
  318MOL0     H41961   7.823   5.759   9.888  1.2097 -0.9834  0.2212
  318MOL0     H41962   9.349   6.115   9.410  0.3715  0.1760 -1.1229
  318MOL0     H41963   9.582   6.181   9.401 -0.6834  2.4803  4.4249
  318MOL0     H41964  10.074   6.153   9.756 -1.0095 -2.2252  0.1307
  318MOL0     H41965  10.278   6.252   9.707  2.9106 -3.4880  0.5306
  318MOL0     H41966  10.472   6.331   9.631  0.2132  0.6712 -0.6537
  318MOL0     H41967  10.350   6.462   9.627 -2.0017 -1.9301  0.5358
  318MOL0     H41968  10.457   6.557   9.423  1.3628  1.5815 -0.4238
  318MOL0     H41969  10.555   6.563   9.569  0.1830  1.5254 -1.8252
  318MOL0     H41970  10.640   6.438   9.324 -1.5149  0.3397  0.5447
  318MOL0     H41971  10.618   6.306   9.442  1.0197  0.1075 -1.9614
  318MOL0     H41972  10.857   6.413   9.420  1.7568  1.7313 -0.3344
  318MOL0     H41973  10.779   6.567   9.478  0.2900 -0.0330  1.7878
  318MOL0     H41974  10.775   6.353   9.835 -0.1947 -0.2181 -0.0108
  318MOL0     H41975  10.217   6.232   9.298  0.9145 -0.5474 -0.2726
  318MOL0     H41976   9.998   6.098   9.329  0.2104  0.6500 -1.1534
  319MOL0     O41977   3.075   0.967   7.422 -0.7538  0.7850  1.0585
  319MOL0     C41978   3.030   0.854   7.443  0.1912  0.9084  0.1154
  319MOL0     O41979   2.908   0.815   7.404  0.2490  0.3413  0.4264
  319MOL0     C41980   2.828   0.889   7.320 -0.6393 -0.2184  0.2394
  319MOL0     C41981   2.688   0.855   7.326  0.3857 -1.0154 -0.1214
  319MOL0     C41982   2.590   0.909   7.244 -0.3612  0.2935 -0.2131
  319MOL0     C41983   2.624   1.007   7.153  0.1725  0.0048  0.0060
  319MOL0     O41984   2.522   1.084   7.096 -0.1228 -0.6340 -0.1115
  319MOL0     C41985   2.548   1.160   6.979  0.2259  0.9779 -0.4442
  319MOL0     C41986   2.417   1.224   6.920  0.8444  0.3113  0.3278
  319MOL0     C41987   2.377   1.343   7.008 -0.2067  0.1827  0.2963
  319MOL0     C41988   2.267   1.439   6.950  0.3752  0.5181 -0.2045
  319MOL0     C41989   2.132   1.358   6.934 -0.5920 -0.4826  0.8360
  319MOL0     C41990   2.077   1.306   7.068  0.1861 -1.2861 -0.1608
  319MOL0     C41991   1.952   1.219   7.032 -0.1641 -1.0604  0.3784
  319MOL0     C41992   1.880   1.157   7.152  0.1612 -0.1638 -0.2318
  319MOL0     N41993   1.752   1.089   7.115  0.6424 -0.5081 -0.2565
  319MOL0     C41994   1.718   0.957   7.139 -0.2068 -0.9065  0.2584
  319MOL0     C41995   1.584   0.946   7.109 -0.4438 -1.1843  0.2394
  319MOL0     C41996   1.514   0.819   7.125 -0.5963 -0.1493  0.4255
  319MOL0     C41997   1.361   0.835   7.137 -0.5193  0.3501  0.2217
  319MOL0     C41998   1.301   0.694   7.140  0.9116  0.1467 -0.0773
  319MOL0     C41999   1.145   0.690   7.158  0.0583  0.0464  0.1712
  319MOL0     O42000   1.109   0.739   7.286  0.2558  0.6437 -0.9113
  319MOL0     C42001   0.969   0.733   7.321  0.0686 -0.0691  0.8628
  319MOL0     C42002   0.917   0.823   7.418 -0.5378 -0.4589  0.1748
  319MOL0     C42003   0.783   0.837   7.437  1.0277  0.0355 -0.0042
  319MOL0     C42004   0.688   0.748   7.385 -0.2042 -0.1515 -0.9042
  319MOL0     C42005   0.543   0.764   7.423  1.0325  0.0816 -0.6858
  319MOL0     O42006   0.460   0.684   7.348  0.3211  0.4009 -0.7022
  319MOL0     C42007   0.332   0.676   7.396  0.6853 -0.6707 -0.3577
  319MOL0     C42008   0.306   0.565   7.484  0.8675 -0.6813  0.6159
  319MOL0     C42009   0.173   0.556   7.540 -0.2003  0.2063  0.1229
  319MOL0     C42010   0.072   0.645   7.493  0.4663  0.1803 -0.4279
  319MOL0     O42011  -0.055   0.638   7.541  0.6400 -0.1068  0.0573
  319MOL0     C42012  -0.113   0.509   7.560 -0.5644 -0.5549  0.3544
  319MOL0     C42013  -0.257   0.525   7.608 -0.9565  0.1333  0.2050
  319MOL0     C42014  -0.275   0.514   7.757  0.1958 -0.3967  0.2831
  319MOL0     C42015  -0.417   0.485   7.798  0.3886 -0.2876 -0.3381
  319MOL0     C42016  -0.505   0.604   7.757 -0.2403 -0.0436 -0.1883
  319MOL0     C42017  -0.475   0.730   7.847  0.5457  1.5192  0.7938
  319MOL0     C42018  -0.567   0.841   7.795  0.3258 -0.1185 -0.6448
  319MOL0     C42019  -0.577   0.962   7.880 -1.6137  0.2095  0.1599
  319MOL0    Cl42020  -0.427   1.053   7.891 -0.2654 -0.3055  0.3190
  319MOL0     C42021   0.100   0.735   7.393  0.2328  0.0935  0.0121
  319MOL0     C42022   0.232   0.755   7.350  0.4243  0.1156  0.2667
  319MOL0     O42023   0.508   0.841   7.512  0.1118 -0.7862 -0.3117
  319MOL0     C42024   0.742   0.651   7.300  0.9187 -0.4116  0.4413
  319MOL0     C42025   0.878   0.650   7.270  0.6444  0.0364 -0.3374
  319MOL0     N42026   1.537   1.075   7.079 -0.3397  0.2719  0.3838
  319MOL0     N42027   1.636   1.156   7.078 -0.7420 -0.2583 -0.2794
  319MOL0     C42028   2.759   1.057   7.159 -0.3280  0.2083  0.1533
  319MOL0     C42029   2.860   0.999   7.241  0.2610 -0.7748 -0.2640
  319MOL0     C42030   3.104   0.765   7.531  0.6796  0.4020 -0.8606
  319MOL0     C42031   3.051   0.653   7.581 -0.3815  0.2422  0.1858
  319MOL0     C42032   3.127   0.569   7.660 -0.4888 -0.4769  0.4362
  319MOL0     C42033   3.254   0.607   7.701 -0.5930 -0.0268 -0.6482
  319MOL0     O42034   3.324   0.526   7.784  0.2161  0.4314 -0.5432
  319MOL0     C42035   3.456   0.538   7.845  0.0184 -0.6798  0.1109
  319MOL0     C42036   3.443   0.595   7.984  0.5591  0.1288  0.1529
  319MOL0     C42037   3.575   0.609   8.058  0.4421 -0.7023 -0.0000
  319MOL0     C42038   3.615   0.762   8.063  0.5470 -1.1747 -0.2131
  319MOL0     C42039   3.756   0.779   8.097 -0.0080  0.3289  0.0096
  319MOL0     C42040   3.868   0.787   8.137 -0.5249 -0.3673 -0.6941
  319MOL0     C42041   3.304   0.733   7.658  0.7834  0.2762  0.5579
  319MOL0     C42042   3.225   0.809   7.578 -0.1793 -0.5535  0.9699
  319MOL0     H42043   2.661   0.786   7.406 -2.3399  1.6382  1.4732
  319MOL0     H42044   2.487   0.873   7.249  0.6934 -3.0227  0.3941
  319MOL0     H42045   2.586   1.098   6.897 -3.7097  0.3640 -2.0484
  319MOL0     H42046   2.611   1.245   7.009  2.5613 -0.7687 -0.1366
  319MOL0     H42047   2.333   1.153   6.922  0.6715  0.4357 -1.5604
  319MOL0     H42048   2.431   1.248   6.815  0.2486 -0.1871  0.1277
  319MOL0     H42049   2.467   1.405   7.010  0.9760 -1.4889  1.0616
  319MOL0     H42050   2.365   1.312   7.112  1.7332  1.4527  0.9484
  319MOL0     H42051   2.243   1.524   7.014  1.8062 -0.5509  1.8801
  319MOL0     H42052   2.303   1.478   6.854 -3.0792  0.3603 -1.7301
  319MOL0     H42053   2.149   1.274   6.865  1.0589 -0.6468  1.4007
  319MOL0     H42054   2.058   1.423   6.888  1.5392  0.4788 -1.4941
  319MOL0     H42055   2.062   1.389   7.138  1.5817 -1.4291  0.3409
  319MOL0     H42056   2.155   1.244   7.113 -0.4806 -1.4368  0.8187
  319MOL0     H42057   1.893   1.298   6.984  1.0625 -0.3976 -0.0868
  319MOL0     H42058   1.979   1.145   6.956  1.7743  2.0046 -2.1794
  319MOL0     H42059   1.864   1.233   7.229  1.9627 -0.1085  0.1247
  319MOL0     H42060   1.948   1.092   7.207  0.4985  2.5677  2.8759
  319MOL0     H42061   1.785   0.881   7.178  0.4874 -0.1625  0.5629
  319MOL0     H42062   1.554   0.769   7.214 -1.5839 -0.9092  0.4600
  319MOL0     H42063   1.538   0.759   7.038 -3.3321  0.4651 -0.8631
  319MOL0     H42064   1.321   0.880   7.046 -0.3853 -0.0977 -0.0620
  319MOL0     H42065   1.322   0.907   7.210 -0.5219  0.5535  0.0235
  319MOL0     H42066   1.325   0.637   7.050  0.7034  0.5915 -0.4161
  319MOL0     H42067   1.355   0.639   7.217 -0.2949 -0.7102  0.1912
  319MOL0     H42068   1.116   0.586   7.139  1.8340 -0.0575 -2.5761
  319MOL0     H42069   1.097   0.745   7.077  0.7183 -2.9514 -2.4701
  319MOL0     H42070   0.985   0.893   7.466  2.1054 -1.8931 -1.2115
  319MOL0     H42071   0.754   0.916   7.506  3.1009 -0.4974  1.5836
  319MOL0     H42072   0.383   0.491   7.502  3.7751  1.9266 -0.3490
  319MOL0     H42073   0.143   0.474   7.604 -0.7326  1.4900  1.5648
  319MOL0     H42074  -0.057   0.454   7.636  2.1024  2.4022  0.7519
  319MOL0     H42075  -0.110   0.455   7.465  0.0364  0.1276 -0.0214
  319MOL0     H42076  -0.315   0.444   7.563 -1.3222 -1.4638  3.3262
  319MOL0     H42077  -0.281   0.628   7.578  0.8271  0.1184 -1.5334
  319MOL0     H42078  -0.244   0.608   7.803 -1.5079  0.8051 -0.8933
  319MOL0     H42079  -0.211   0.434   7.793 -1.2475 -1.0375  1.5532
  319MOL0     H42080  -0.459   0.397   7.748 -2.7942  1.6753 -1.3924
  319MOL0     H42081  -0.421   0.469   7.907 -1.2978 -0.4487 -0.3972
  319MOL0     H42082  -0.608   0.571   7.765 -0.0793 -0.5601 -0.2434
  319MOL0     H42083  -0.475   0.635   7.656 -1.5378  2.8103  0.1965
  319MOL0     H42084  -0.372   0.769   7.850  0.9828  0.6909 -1.3737
  319MOL0     H42085  -0.501   0.705   7.950 -1.6025 -0.1678 -0.0903
  319MOL0     H42086  -0.538   0.870   7.694  2.8618  3.2139  0.8561
  319MOL0     H42087  -0.668   0.800   7.787  0.5371 -1.3139  1.8566
  319MOL0     H42088  -0.597   0.947   7.987  2.0968  0.6611  1.0327
  319MOL0     H42089  -0.665   1.020   7.849 -0.8907  2.0803  1.4241
  319MOL0     H42090   0.032   0.808   7.352 -1.8223 -1.0423  1.2427
  319MOL0     H42091   0.253   0.828   7.273  1.9646  0.5223  1.0369
  319MOL0     H42092   0.675   0.583   7.248 -1.4906 -0.4979  3.4014
  319MOL0     H42093   0.915   0.571   7.204  2.6902  0.8518 -0.2345
  319MOL0     H42094   2.780   1.140   7.093 -0.7384  0.6138  0.5242
  319MOL0     H42095   2.962   1.036   7.236  0.2461 -0.4340  1.4449
  319MOL0     H42096   2.961   0.603   7.546 -0.2272 -0.2621  0.4993
  319MOL0     H42097   3.088   0.471   7.684 -0.1286 -0.1280  2.7442
  319MOL0     H42098   3.514   0.609   7.785 -1.8916  0.9643  0.0973
  319MOL0     H42099   3.507   0.441   7.840 -2.4786 -2.0395 -1.0069
  319MOL0     H42100   3.385   0.688   7.982  0.6686  0.2449  1.4457
  319MOL0     H42101   3.385   0.516   8.032 -1.6039  1.4827 -0.1109
  319MOL0     H42102   3.651   0.556   8.000 -0.0788 -0.3777 -0.9955
  319MOL0     H42103   3.565   0.575   8.162 -1.4507 -0.5689 -0.1030
  319MOL0     H42104   3.604   0.814   7.968  0.0888  1.9740  1.4312
  319MOL0     H42105   3.552   0.816   8.135  0.5074  0.9345 -1.7336
  319MOL0     H42106   3.972   0.786   8.165 -0.8072 -2.9576  0.5401
  319MOL0     H42107   3.411   0.753   7.660  1.2818 -1.7565 -1.2703
  319MOL0     H42108   3.267   0.903   7.543  0.0473  0.0993  2.9004
  320MOL0     O42109   5.225   9.906  11.088 -0.3612  0.3444  0.1792
  320MOL0     C42110   5.161   9.956  10.997 -0.3342 -0.6058 -0.3939
  320MOL0     O42111   5.079  10.067  11.007  0.0970 -0.6931  0.3835
  320MOL0     C42112   5.057  10.148  11.115  0.7388 -0.3058 -0.2146
  320MOL0     C42113   5.139  10.144  11.233  0.3738 -0.2572  0.6279
  320MOL0     C42114   5.117  10.241  11.330 -0.3517 -0.4953 -1.0165
  320MOL0     C42115   5.014  10.333  11.315  0.6363  0.6353 -0.1243
  320MOL0     O42116   5.008  10.415  11.424 -0.2116 -0.5972  0.3366
  320MOL0     C42117   4.983  10.550  11.382 -0.3297  0.2229 -0.9014
  320MOL0     C42118   5.030  10.659  11.478  0.2146  0.5549 -1.3845
  320MOL0     C42119   4.954  10.645  11.615  0.6678 -0.5248  0.5423
  320MOL0     C42120   4.800  10.650  11.616 -0.3091  0.9896 -0.1878
  320MOL0     C42121   4.739  10.629  11.758  0.1360  0.5590  0.3356
  320MOL0     C42122   4.587  10.647  11.760  0.3676  0.0189 -0.0244
  320MOL0     C42123   4.538  10.658  11.906  0.3997  0.1228  0.3764
  320MOL0     C42124   4.392  10.633  11.922 -0.2587  0.3242  0.2239
  320MOL0     N42125   4.349  10.622  12.060  0.4106 -0.0825  0.5912
  320MOL0     C42126   4.385  10.713  12.164  0.4386 -0.4569 -0.3921
  320MOL0     C42127   4.339  10.658  12.279  0.5762  0.4097 -0.8332
  320MOL0     C42128   4.345  10.730  12.411 -0.5046  1.1868  0.5040
  320MOL0     C42129   4.257  10.862  12.415 -0.2059 -0.3295 -1.1998
  320MOL0     C42130   4.247  10.919  12.556  0.0081 -0.4929 -0.5745
  320MOL0     C42131   4.161  11.037  12.558 -0.1362  0.4118  1.0998
  320MOL0     O42132   4.163  11.101  12.688  0.0331 -0.2795 -0.6857
  320MOL0     C42133   4.057  11.109  12.779 -0.3226  0.5432 -0.2675
  320MOL0     C42134   3.941  11.032  12.776  0.1540  0.4321 -0.4897
  320MOL0     C42135   3.840  11.064  12.871 -0.5415  0.7173  0.3969
  320MOL0     C42136   3.866  11.153  12.973 -0.0731  0.2016 -0.5154
  320MOL0     C42137   3.770  11.157  13.081  0.3025  0.2553  0.2158
  320MOL0     O42138   3.665  11.069  13.079 -0.5579 -0.0162 -0.0624
  320MOL0     C42139   3.551  11.095  13.153  0.1934 -0.1616  0.5269
  320MOL0     C42140   3.486  11.220  13.152  0.0511 -0.3889 -0.0060
  320MOL0     C42141   3.364  11.230  13.221 -0.1645  0.7611  0.5227
  320MOL0     C42142   3.285  11.124  13.260 -0.8949  0.4132  0.6203
  320MOL0     O42143   3.161  11.140  13.318  0.2497 -0.0397  0.4332
  320MOL0     C42144   3.160  11.249  13.422 -0.5457 -0.4081 -0.2985
  320MOL0     C42145   3.047  11.351  13.389  0.2257  0.2036 -0.5931
  320MOL0     C42146   2.912  11.285  13.427  0.2957  0.0830  1.0654
  320MOL0     C42147   2.793  11.385  13.425 -0.0868  0.3030 -0.8412
  320MOL0     C42148   2.657  11.319  13.423  0.3174 -0.6059  0.1034
  320MOL0     C42149   2.548  11.415  13.473 -0.2317 -0.1449  0.8825
  320MOL0     C42150   2.413  11.342  13.490  0.2872  0.1738  0.2095
  320MOL0     C42151   2.304  11.435  13.552  0.8059  0.3377  0.4761
  320MOL0    Cl42152   2.333  11.509  13.702  0.2060  0.0004  0.1002
  320MOL0     C42153   3.347  10.999  13.265 -0.8406  0.1903  0.3005
  320MOL0     C42154   3.474  10.987  13.210  0.2328  0.0799  0.3603
  320MOL0     O42155   3.786  11.253  13.154  0.2707 -0.7592 -0.3244
  320MOL0     C42156   3.985  11.222  12.975  0.1321 -0.0882  0.4914
  320MOL0     C42157   4.079  11.204  12.877  0.6459 -0.2936  0.2928
  320MOL0     N42158   4.261  10.542  12.247  0.8504 -0.7196  0.0662
  320MOL0     N42159   4.282  10.522  12.119  0.5630 -0.1973  0.6628
  320MOL0     C42160   4.932  10.338  11.201  0.3976  0.1080  0.0637
  320MOL0     C42161   4.961  10.242  11.099  0.4848 -0.9090 -1.2474
  320MOL0     C42162   5.174   9.889  10.862  0.1769  0.6297 -0.7136
  320MOL0     C42163   5.098   9.942  10.752 -0.1287 -0.3300  0.2102
  320MOL0     C42164   5.135   9.884  10.624  0.3794 -0.3301 -0.1674
  320MOL0     C42165   5.217   9.777  10.606 -0.7898  0.5443 -0.9036
  320MOL0     O42166   5.243   9.703  10.488 -0.8738 -0.8094  0.3616
  320MOL0     C42167   5.237   9.777  10.364  0.1482  0.6919 -0.4193
  320MOL0     C42168   5.335   9.714  10.258 -0.6654 -0.4705  0.5980
  320MOL0     C42169   5.331   9.787  10.124 -0.3215 -0.2540 -0.7097
  320MOL0     C42170   5.433   9.726  10.029  0.6092 -0.0609 -0.2784
  320MOL0     C42171   5.569   9.716  10.083  0.3028  0.1281 -0.7056
  320MOL0     C42172   5.678   9.690  10.128 -1.0158 -0.0669 -0.1317
  320MOL0     C42173   5.279   9.728  10.716 -0.6001  0.4346 -0.0466
  320MOL0     C42174   5.263   9.779  10.847  0.3026 -0.1116 -0.2110
  320MOL0     H42175   5.221  10.076  11.256  2.1374  2.4639  3.0364
  320MOL0     H42176   5.182  10.237  11.416 -0.3551 -2.0179 -1.0483
  320MOL0     H42177   4.877  10.566  11.360 -1.1674  2.5368  3.7070
  320MOL0     H42178   5.040  10.562  11.289 -1.2868 -0.5369 -1.6086
  320MOL0     H42179   5.022  10.757  11.431  0.3596  1.2969  0.0551
  320MOL0     H42180   5.136  10.649  11.504 -0.4826 -1.8119  1.0348
  320MOL0     H42181   4.991  10.736  11.665  1.5977 -1.3481  1.3926
  320MOL0     H42182   5.000  10.573  11.683  2.5139  1.5507  1.6594
  320MOL0     H42183   4.759  10.742  11.574  0.1372  1.2078 -0.1477
  320MOL0     H42184   4.768  10.564  11.556 -1.4339  1.6478 -0.5774
  320MOL0     H42185   4.785  10.695  11.832 -0.5280  2.4746 -0.8961
  320MOL0     H42186   4.750  10.527  11.797 -1.4352  1.0408  2.2160
  320MOL0     H42187   4.546  10.557  11.712 -0.3186  0.3430 -0.0638
  320MOL0     H42188   4.555  10.735  11.703 -0.3311  0.2630  0.7399
  320MOL0     H42189   4.585  10.575  11.960  0.3638  0.1303  0.4178
  320MOL0     H42190   4.568  10.756  11.945  2.4615  0.0323 -0.8211
  320MOL0     H42191   4.373  10.531  11.888 -1.9651 -0.0412  2.0858
  320MOL0     H42192   4.330  10.713  11.880 -1.4190 -0.5540  0.2411
  320MOL0     H42193   4.438  10.807  12.153 -0.9716  0.2784 -1.2454
  320MOL0     H42194   4.450  10.756  12.428 -0.4981  2.6543 -1.4904
  320MOL0     H42195   4.316  10.662  12.492 -0.9397 -2.2166 -2.2902
  320MOL0     H42196   4.160  10.837  12.372  0.2043 -4.7945 -0.0455
  320MOL0     H42197   4.298  10.935  12.344  3.2708 -1.6630 -0.7594
  320MOL0     H42198   4.212  10.841  12.624  0.5713  1.3117  1.8956
  320MOL0     H42199   4.345  10.950  12.594  0.2782 -0.7681 -1.0303
  320MOL0     H42200   4.061  11.007  12.527  0.0444  0.8501  0.0667
  320MOL0     H42201   4.197  11.109  12.484  0.5647 -1.8396 -0.8829
  320MOL0     H42202   3.931  10.952  12.703 -0.6688  0.7888 -0.7784
  320MOL0     H42203   3.741  11.019  12.864 -1.2090  2.0847  0.7923
  320MOL0     H42204   3.536  11.308  13.111  0.9165 -1.8877 -2.3808
  320MOL0     H42205   3.312  11.326  13.220 -2.9007 -0.6024 -2.0932
  320MOL0     H42206   3.256  11.299  13.436 -1.4286  1.2988 -0.1909
  320MOL0     H42207   3.150  11.204  13.521  0.5499 -2.1223 -0.8977
  320MOL0     H42208   3.056  11.366  13.281  1.8686  0.7794 -0.4071
  320MOL0     H42209   3.061  11.446  13.441  3.6888  0.8516 -2.4438
  320MOL0     H42210   2.918  11.239  13.526  0.8709 -1.3929  0.3694
  320MOL0     H42211   2.902  11.211  13.347  0.4056  0.4115  0.7395
  320MOL0     H42212   2.801  11.448  13.514  0.6804  1.0225 -1.4002
  320MOL0     H42213   2.814  11.456  13.345  1.5300  0.6321 -0.1629
  320MOL0     H42214   2.661  11.233  13.490 -0.2900  0.6923  1.8868
  320MOL0     H42215   2.636  11.279  13.323 -1.1017 -1.8911  0.8622
  320MOL0     H42216   2.522  11.488  13.397 -3.0727 -1.6204  0.3088
  320MOL0     H42217   2.580  11.472  13.561  1.7141 -0.3157  0.3432
  320MOL0     H42218   2.386  11.290  13.398 -1.0823 -1.9992  1.7440
  320MOL0     H42219   2.429  11.263  13.565 -2.2931  0.6176  1.3109
  320MOL0     H42220   2.211  11.380  13.568  0.5436  0.8205  0.6426
  320MOL0     H42221   2.284  11.514  13.479 -2.0653 -0.7784 -0.0592
  320MOL0     H42222   3.298  10.914  13.310  0.2049 -0.3102  0.5298
  320MOL0     H42223   3.531  10.895  13.205  1.0127  0.5768 -4.8391
  320MOL0     H42224   4.000  11.297  13.052 -3.7491  0.0552  1.3165
  320MOL0     H42225   4.158  11.279  12.876 -1.2020  1.7496 -1.1349
  320MOL0     H42226   4.861  10.419  11.189  1.4105  0.6015 -4.2863
  320MOL0     H42227   4.910  10.241  11.003 -1.4914  0.5100 -0.2810
  320MOL0     H42228   5.030  10.026  10.755 -1.4795 -1.3877  0.6196
  320MOL0     H42229   5.089   9.934  10.540 -0.5613 -1.3779 -0.3072
  320MOL0     H42230   5.261   9.880  10.391  3.2854 -0.1421  0.3719
  320MOL0     H42231   5.134   9.770  10.328  0.3009  0.1849 -0.7606
  320MOL0     H42232   5.437   9.720  10.297 -0.7486  0.4813  0.6953
  320MOL0     H42233   5.300   9.611  10.251 -0.8283 -0.3846  0.1307
  320MOL0     H42234   5.362   9.890  10.143  0.3099 -0.7949  1.5984
  320MOL0     H42235   5.233   9.791  10.076 -0.6915 -0.3611  0.0154
  320MOL0     H42236   5.398   9.628   9.994 -0.1270 -0.4481  1.4501
  320MOL0     H42237   5.444   9.794   9.944 -0.8006  2.0494  1.1568
  320MOL0     H42238   5.770   9.654  10.171 -2.1136 -2.4528  0.3638
  320MOL0     H42239   5.335   9.637  10.698 -3.7038 -1.3981 -1.3962
  320MOL0     H42240   5.322   9.733  10.925  0.6294  0.0418 -0.3676
  321MOL0     O42241   6.450   5.000   0.166 -0.4526  0.6239 -0.3440
  321MOL0     C42242   6.536   5.074   0.116  0.6987  0.8793 -0.1316
  321MOL0     O42243   6.525   5.208   0.095  0.1384 -0.5901 -0.3597
  321MOL0     C42244   6.412   5.270   0.147  0.4729 -0.4306 -0.6269
  321MOL0     C42245   6.278   5.224   0.123  0.3057 -0.8678 -0.5214
  321MOL0     C42246   6.166   5.288   0.176 -0.2081 -0.3585 -0.0633
  321MOL0     C42247   6.177   5.416   0.243 -0.4969 -0.1427 -0.3034
  321MOL0     O42248   6.077   5.487   0.296  0.2896 -0.5325  0.0657
  321MOL0     C42249   5.951   5.458   0.243  0.4745  0.4897  0.7355
  321MOL0     C42250   5.865   5.583   0.255  0.0991  0.0630 -0.2966
  321MOL0     C42251   5.908   5.694   0.158  0.0994  0.8203 -0.4388
  321MOL0     C42252   5.797   5.803   0.170  0.7014 -0.5368  0.6072
  321MOL0     C42253   5.824   5.933   0.094 -0.0774 -0.2107  0.3754
  321MOL0     C42254   5.825   5.906  -0.053  0.9041  0.2591  0.6186
  321MOL0     C42255   5.837   6.031  -0.136  0.2041  0.3827 -1.0869
  321MOL0     C42256   5.841   5.999  -0.287  0.7714  0.3382  0.0738
  321MOL0     N42257   5.706   5.975  -0.341  0.2375 -0.3365  0.3659
  321MOL0     C42258   5.603   6.072  -0.359 -0.1233 -0.0380 -0.1045
  321MOL0     C42259   5.497   5.996  -0.384 -0.1168  0.6462 -0.3080
  321MOL0     C42260   5.360   6.062  -0.403  0.4652  0.0319  0.3952
  321MOL0     C42261   5.264   5.973  -0.497 -0.0571  0.1087  0.0802
  321MOL0     C42262   5.118   6.032  -0.498  0.2593  0.0990 -0.2704
  321MOL0     C42263   5.031   5.975  -0.609 -0.1932  0.1227  0.2278
  321MOL0     O42264   4.907   6.053  -0.631 -0.1735 -0.5448  0.4008
  321MOL0     C42265   4.827   6.074  -0.521  0.5223  0.7398  0.0547
  321MOL0     C42266   4.817   5.978  -0.423  0.5684 -1.5966 -0.2422
  321MOL0     C42267   4.723   5.995  -0.315  0.4748 -0.2165  1.2483
  321MOL0     C42268   4.659   6.116  -0.299 -0.0023  0.1649  0.0270
  321MOL0     C42269   4.547   6.135  -0.201 -0.7089  0.2155  0.2689
  321MOL0     O42270   4.436   6.203  -0.241 -0.2027  0.2701  1.5523
  321MOL0     C42271   4.321   6.194  -0.170 -0.2016 -0.3617 -0.2772
  321MOL0     C42272   4.268   6.067  -0.141 -0.1709 -0.5640 -0.0387
  321MOL0     C42273   4.157   6.051  -0.077  1.5961 -0.5675 -0.1280
  321MOL0     C42274   4.088   6.162  -0.023 -0.0398 -0.0689  0.2153
  321MOL0     O42275   3.966   6.148   0.052  0.3198  0.2237 -0.4335
  321MOL0     C42276   3.947   6.238   0.164  0.3413  0.1533 -1.0314
  321MOL0     C42277   3.811   6.305   0.166  0.8092 -0.4923 -0.1556
  321MOL0     C42278   3.789   6.384   0.306  0.0056  0.4764 -0.1495
  321MOL0     C42279   3.691   6.502   0.284 -1.2182  0.1855 -0.0069
  321MOL0     C42280   3.594   6.512   0.393 -0.1494 -0.1011  0.6791
  321MOL0     C42281   3.486   6.620   0.349  0.3363  0.2196 -0.6460
  321MOL0     C42282   3.389   6.640   0.460  0.2177  0.3730 -0.0551
  321MOL0     C42283   3.290   6.738   0.433 -0.7851  0.2485  0.1388
  321MOL0    Cl42284   3.231   6.735   0.263  0.1007  0.1147 -0.3263
  321MOL0     C42285   4.142   6.295  -0.047  0.5580 -0.7789  0.0465
  321MOL0     C42286   4.259   6.314  -0.125 -0.4014  0.0863 -0.4351
  321MOL0     O42287   4.563   6.095  -0.089 -0.4869  0.0408  0.3637
  321MOL0     C42288   4.676   6.216  -0.395 -0.0355  0.5648 -0.7970
  321MOL0     C42289   4.759   6.191  -0.508  0.2147 -0.2081  0.0061
  321MOL0     N42290   5.524   5.863  -0.389 -0.7290 -0.1537 -0.0873
  321MOL0     N42291   5.651   5.849  -0.358 -0.1585 -0.1196 -0.0716
  321MOL0     C42292   6.309   5.466   0.252 -0.5088  0.4232  0.1242
  321MOL0     C42293   6.425   5.398   0.209 -0.4410  0.2146 -0.0132
  321MOL0     C42294   6.666   5.015   0.084 -0.6469  0.0860 -0.4617
  321MOL0     C42295   6.742   5.081  -0.007 -0.2536  0.1542  0.6827
  321MOL0     C42296   6.880   5.052  -0.030 -0.0452  1.2348  0.8744
  321MOL0     C42297   6.930   4.932   0.035  0.6794 -0.4584 -0.2618
  321MOL0     O42298   7.059   4.891   0.031 -0.7265 -0.1010 -0.3963
  321MOL0     C42299   7.135   4.935  -0.082  0.4781 -0.1998 -0.7267
  321MOL0     C42300   7.274   4.869  -0.061  0.9101 -0.1270 -0.4407
  321MOL0     C42301   7.344   4.884   0.077  0.1188  0.1311  1.3147
  321MOL0     C42302   7.464   4.780   0.086  0.9361  0.4512 -0.7433
  321MOL0     C42303   7.549   4.797   0.206  0.2639  0.7943 -0.0171
  321MOL0     C42304   7.620   4.807   0.304 -0.3115 -0.2176 -0.7259
  321MOL0     C42305   6.843   4.848   0.114 -0.6824  0.2662 -0.0687
  321MOL0     C42306   6.712   4.893   0.142 -0.6590  0.3104  0.5357
  321MOL0     H42307   6.272   5.134   0.063 -4.1068 -1.8304  0.9985
  321MOL0     H42308   6.071   5.238   0.158 -0.0446 -0.7126  0.0378
  321MOL0     H42309   5.910   5.377   0.304 -0.4062  1.7779  1.9214
  321MOL0     H42310   5.965   5.434   0.137  3.0883  1.2002  0.8567
  321MOL0     H42311   5.858   5.629   0.354  2.1558  0.3344 -0.2289
  321MOL0     H42312   5.769   5.553   0.212  0.3505  0.7407 -1.3796
  321MOL0     H42313   5.895   5.653   0.057 -1.4087  4.1773 -1.7305
  321MOL0     H42314   6.005   5.741   0.180  0.1060  2.0213 -2.7938
  321MOL0     H42315   5.698   5.774   0.134  1.2415  1.5850 -3.0486
  321MOL0     H42316   5.778   5.828   0.275 -2.1341  0.9645 -0.1495
  321MOL0     H42317   5.924   5.967   0.119 -0.2858 -0.6742  1.9853
  321MOL0     H42318   5.759   6.017   0.120 -0.1277  1.0690 -3.3676
  321MOL0     H42319   5.732   5.861  -0.090 -0.6664  4.8152 -1.7051
  321MOL0     H42320   5.907   5.841  -0.083 -0.6486 -0.4787 -2.4785
  321MOL0     H42321   5.752   6.095  -0.110  0.3215  0.1015  0.0760
  321MOL0     H42322   5.933   6.076  -0.108  1.4941 -2.5074 -0.4896
  321MOL0     H42323   5.913   5.918  -0.300  3.5947  2.6107  0.3094
  321MOL0     H42324   5.890   6.082  -0.341 -0.6878  0.0027 -1.9034
  321MOL0     H42325   5.609   6.181  -0.357  0.0198  0.0025 -1.6151
  321MOL0     H42326   5.385   6.159  -0.447  2.5382 -1.0152 -0.9043
  321MOL0     H42327   5.330   6.077  -0.299 -1.7196 -0.4599 -0.1270
  321MOL0     H42328   5.260   5.874  -0.452  1.7096  0.4586  1.1292
  321MOL0     H42329   5.307   5.975  -0.597 -1.6282 -1.5969 -0.6780
  321MOL0     H42330   5.076   6.009  -0.400  0.9081 -1.6507 -0.3764
  321MOL0     H42331   5.118   6.142  -0.504 -0.2730  0.0949 -0.3726
  321MOL0     H42332   5.022   5.869  -0.584  2.5207 -0.4168 -0.8216
  321MOL0     H42333   5.074   5.972  -0.709 -0.7797 -0.8359 -0.0056
  321MOL0     H42334   4.865   5.881  -0.431  1.9178 -0.8344 -2.5254
  321MOL0     H42335   4.723   5.915  -0.241  0.4521 -0.7667  0.6690
  321MOL0     H42336   4.317   5.976  -0.172  2.2335 -0.2591  2.5152
  321MOL0     H42337   4.121   5.949  -0.067 -0.1654 -0.1817 -1.9536
  321MOL0     H42338   4.026   6.312   0.178 -0.3966  0.3812  3.2376
  321MOL0     H42339   3.961   6.180   0.256  2.8574  2.7366  0.3952
  321MOL0     H42340   3.733   6.232   0.143 -1.6251  1.7998  0.2590
  321MOL0     H42341   3.812   6.379   0.085  0.4535 -0.9826 -0.6151
  321MOL0     H42342   3.881   6.422   0.351 -0.6357  4.3033 -1.7012
  321MOL0     H42343   3.750   6.309   0.375 -0.1981 -0.1218 -0.8876
  321MOL0     H42344   3.741   6.599   0.285  3.1346 -1.8100 -1.0416
  321MOL0     H42345   3.637   6.487   0.190 -0.2827  1.9521 -0.8701
  321MOL0     H42346   3.649   6.536   0.484  0.8972 -4.0710  1.2436
  321MOL0     H42347   3.552   6.413   0.411 -1.2929  0.3903  0.8470
  321MOL0     H42348   3.434   6.571   0.266 -4.6978  2.2883  0.9129
  321MOL0     H42349   3.536   6.716   0.333  0.3998  0.5063  1.0970
  321MOL0     H42350   3.340   6.544   0.474  1.6781 -0.3997 -0.0429
  321MOL0     H42351   3.439   6.665   0.554 -1.5518 -2.3020  1.7360
  321MOL0     H42352   3.343   6.833   0.444  0.8056 -0.5298 -0.3691
  321MOL0     H42353   3.205   6.734   0.501 -2.3599  0.6531 -1.7336
  321MOL0     H42354   4.089   6.384  -0.015  3.2737  0.1809  2.3776
  321MOL0     H42355   4.292   6.415  -0.144 -0.4531  0.0479 -0.7314
  321MOL0     H42356   4.628   6.310  -0.369 -0.2875  0.4015 -0.6739
  321MOL0     H42357   4.781   6.266  -0.584  1.0956  0.2746  0.7204
  321MOL0     H42358   6.322   5.562   0.302  1.6365  1.1286 -1.6343
  321MOL0     H42359   6.528   5.425   0.233 -0.5900 -0.2808  1.2643
  321MOL0     H42360   6.710   5.174  -0.053  2.2287  0.6857 -0.1153
  321MOL0     H42361   6.929   5.107  -0.110 -0.4266 -1.4277 -1.3279
  321MOL0     H42362   7.150   5.043  -0.079  0.0799 -0.1655  1.4836
  321MOL0     H42363   7.087   4.907  -0.176  1.9136 -0.1160 -1.5205
  321MOL0     H42364   7.242   4.765  -0.075  0.0671  0.1439 -0.5550
  321MOL0     H42365   7.335   4.894  -0.149  1.1678  0.3462 -0.1326
  321MOL0     H42366   7.261   4.877   0.148 -2.5112 -0.0570 -1.5767
  321MOL0     H42367   7.389   4.982   0.095  1.7184 -0.2204 -0.4258
  321MOL0     H42368   7.424   4.678   0.087 -0.7216  0.9839  3.0581
  321MOL0     H42369   7.522   4.783  -0.007  0.9579  1.1488 -0.7093
  321MOL0     H42370   7.680   4.816   0.392  0.1729  0.2754 -1.0953
  321MOL0     H42371   6.879   4.762   0.170  1.0293  1.2473  0.3996
  321MOL0     H42372   6.644   4.828   0.198 -0.2495 -1.0642 -0.5177
  322MOL0     O42373  10.558   2.024   4.592  0.0580  0.6689 -0.2986
  322MOL0     C42374  10.593   1.995   4.702 -0.5438 -0.0354  0.0158
  322MOL0     O42375  10.626   2.083   4.797 -0.4790  0.0697 -0.1190
  322MOL0     C42376  10.577   2.214   4.789 -0.3272  0.1000  0.2695
  322MOL0     C42377  10.440   2.245   4.818  0.0487 -0.6556  1.1478
  322MOL0     C42378  10.403   2.383   4.836 -0.1998 -0.4989 -0.0970
  322MOL0     C42379  10.499   2.482   4.822 -0.3255  0.6455 -0.9657
  322MOL0     O42380  10.479   2.624   4.826 -0.1434  0.3328 -0.7666
  322MOL0     C42381  10.350   2.672   4.800  0.0600 -0.5136  0.3728
  322MOL0     C42382  10.342   2.824   4.767 -0.6608 -0.1686  0.1724
  322MOL0     C42383  10.202   2.867   4.724 -0.5654 -0.5738 -0.2649
  322MOL0     C42384  10.093   2.827   4.829  0.0324  0.0597  0.3890
  322MOL0     C42385   9.956   2.882   4.778  0.0310 -0.2992 -0.6532
  322MOL0     C42386   9.860   2.851   4.877  0.4772 -0.1745 -0.0786
  322MOL0     C42387   9.720   2.882   4.830  0.0188  0.4442  0.7558
  322MOL0     C42388   9.687   3.032   4.821 -0.5982 -0.3693 -0.2402
  322MOL0     N42389   9.566   3.067   4.754 -0.0549 -0.0185 -0.0232
  322MOL0     C42390   9.461   2.978   4.731 -0.0983  0.3081 -0.2850
  322MOL0     C42391   9.385   3.048   4.643 -0.2412  0.5712  1.4249
  322MOL0     C42392   9.259   2.998   4.578 -0.3905  0.5144  0.6167
  322MOL0     C42393   9.247   2.850   4.535 -0.4402  0.0374 -0.4676
  322MOL0     C42394   9.126   2.807   4.449 -0.6297  0.4945  0.5398
  322MOL0     C42395   9.120   2.666   4.407  0.3252  0.5230  0.3015
  322MOL0     O42396   9.056   2.664   4.282  0.2683 -0.3045  0.3094
  322MOL0     C42397   8.960   2.568   4.261 -0.4606 -0.5005 -0.1615
  322MOL0     C42398   8.985   2.434   4.286 -0.2718  0.7528  0.3206
  322MOL0     C42399   8.885   2.346   4.263 -0.3060 -0.4876  0.3726
  322MOL0     C42400   8.759   2.381   4.221 -0.8793 -0.6628 -0.2120
  322MOL0     C42401   8.661   2.279   4.205  0.1983 -0.3058  0.2290
  322MOL0     O42402   8.534   2.315   4.169  0.5537  0.0863 -0.2427
  322MOL0     C42403   8.431   2.223   4.131  0.0528  0.0655 -0.3013
  322MOL0     C42404   8.305   2.246   4.176  0.2244 -0.0645  0.1582
  322MOL0     C42405   8.202   2.160   4.127 -0.3689  0.3283  0.0232
  322MOL0     C42406   8.225   2.065   4.030  0.2465  0.9885  0.5931
  322MOL0     O42407   8.123   1.986   3.982 -1.3798 -0.1918 -0.7251
  322MOL0     C42408   8.121   1.942   3.848  0.3704 -0.4975 -0.0516
  322MOL0     C42409   7.975   1.925   3.788  0.5196 -0.1476 -0.7500
  322MOL0     C42410   7.893   1.818   3.855  0.6655  0.0040  0.7812
  322MOL0     C42411   7.743   1.843   3.841  0.1423 -1.1614  0.0613
  322MOL0     C42412   7.664   1.736   3.925 -0.7388  0.5031  0.8413
  322MOL0     C42413   7.520   1.733   3.892  1.0137 -1.0187 -0.2220
  322MOL0     C42414   7.446   1.661   4.007  0.6684 -0.7236  0.2096
  322MOL0     C42415   7.290   1.661   3.995 -0.0809  0.1597 -0.6621
  322MOL0    Cl42416   7.246   1.548   3.858  0.1296 -0.4546  0.3708
  322MOL0     C42417   8.354   2.045   3.985 -0.6743 -0.1160 -0.0669
  322MOL0     C42418   8.455   2.122   4.036  0.2434  0.7468  0.0509
  322MOL0     O42419   8.699   2.157   4.211  0.0434  0.1241 -0.0970
  322MOL0     C42420   8.731   2.521   4.204  0.4383  0.4071  0.4049
  322MOL0     C42421   8.838   2.614   4.220 -0.1423 -0.8500  0.0412
  322MOL0     N42422   9.443   3.166   4.619 -0.0756 -0.3992 -0.1570
  322MOL0     N42423   9.555   3.181   4.681  0.3919  1.0681  0.7107
  322MOL0     C42424  10.633   2.445   4.785  0.4645 -0.4476 -0.4931
  322MOL0     C42425  10.671   2.318   4.771  0.7319  0.2105 -0.9163
  322MOL0     C42426  10.624   1.848   4.744  0.5919  0.5274 -0.2585
  322MOL0     C42427  10.621   1.806   4.879 -1.1324 -0.3046  0.8384
  322MOL0     C42428  10.641   1.672   4.902  0.3605  0.1531  0.3584
  322MOL0     C42429  10.647   1.577   4.801 -0.3009 -0.0851 -0.0278
  322MOL0     O42430  10.658   1.451   4.840  0.1359 -0.2417 -0.0293
  322MOL0     C42431  10.598   1.352   4.755  0.7165  0.6697 -0.1884
  322MOL0     C42432  10.600   1.216   4.805  0.2424 -0.2724 -0.0145
  322MOL0     C42433  10.506   1.118   4.734  0.0687 -0.1978 -0.8326
  322MOL0     C42434  10.512   1.106   4.585 -0.5088 -0.3305 -0.6825
  322MOL0     C42435  10.415   1.006   4.554  0.3400  0.6516  0.0340
  322MOL0     C42436  10.338   0.915   4.534 -0.1894 -0.3041  0.5783
  322MOL0     C42437  10.661   1.619   4.673 -0.1329 -0.2303 -0.5489
  322MOL0     C42438  10.653   1.758   4.645  0.1570 -0.5395 -0.4359
  322MOL0     H42439  10.364   2.167   4.820 -2.3815  1.3734 -1.8600
  322MOL0     H42440  10.301   2.419   4.847  0.0208  0.1540 -0.1501
  322MOL0     H42441  10.291   2.651   4.890 -0.8793  1.7907  0.3681
  322MOL0     H42442  10.313   2.623   4.710 -0.9568  1.3675 -0.2943
  322MOL0     H42443  10.406   2.846   4.681 -1.3143 -0.1938 -0.3343
  322MOL0     H42444  10.374   2.882   4.853  1.7670 -0.2077 -0.6368
  322MOL0     H42445  10.189   2.818   4.627 -0.2654 -1.0153 -0.0883
  322MOL0     H42446  10.209   2.975   4.713  0.2714 -0.5968 -0.0118
  322MOL0     H42447  10.094   2.718   4.820  0.8587  0.0234  0.8309
  322MOL0     H42448  10.119   2.871   4.925  3.4998 -3.0441  1.0913
  322MOL0     H42449   9.912   2.847   4.684 -1.6262 -1.2772  0.4322
  322MOL0     H42450   9.958   2.991   4.765  0.5455 -0.3571 -1.1168
  322MOL0     H42451   9.869   2.897   4.976 -2.0780  0.1318  0.0807
  322MOL0     H42452   9.869   2.743   4.889  1.7376 -0.1945 -0.9801
  322MOL0     H42453   9.701   2.820   4.742 -1.7732 -0.5421  1.7893
  322MOL0     H42454   9.644   2.844   4.899  0.0155 -0.6400  0.1760
  322MOL0     H42455   9.760   3.079   4.753 -3.4238  1.7033 -2.0556
  322MOL0     H42456   9.690   3.087   4.915 -3.3212  0.8169 -0.7561
  322MOL0     H42457   9.438   2.884   4.780  2.0230  0.5341  1.3156
  322MOL0     H42458   9.252   3.061   4.489 -2.1024  1.9054  1.6792
  322MOL0     H42459   9.188   3.037   4.651 -2.0370  2.0528 -1.6568
  322MOL0     H42460   9.232   2.795   4.629 -3.9041  1.5391  0.0315
  322MOL0     H42461   9.334   2.813   4.481 -0.6217  1.2806 -1.6684
  322MOL0     H42462   9.039   2.830   4.510 -0.5764  0.2975  0.6890
  322MOL0     H42463   9.136   2.881   4.369  2.3037  0.2738  0.6034
  322MOL0     H42464   9.077   2.600   4.484 -1.4562  0.8468 -0.3688
  322MOL0     H42465   9.219   2.627   4.383  1.5336  3.4299  0.1004
  322MOL0     H42466   9.082   2.402   4.324 -0.1707 -0.4735 -0.8734
  322MOL0     H42467   8.918   2.243   4.274  3.3413  0.6112  1.2418
  322MOL0     H42468   8.277   2.319   4.251 -3.4134 -0.9201 -0.1383
  322MOL0     H42469   8.097   2.170   4.155 -0.8240  1.3231 -1.8428
  322MOL0     H42470   8.172   1.845   3.839 -0.8416 -1.1860  0.3250
  322MOL0     H42471   8.165   2.021   3.787 -0.4437  1.9788  2.3907
  322MOL0     H42472   7.985   1.890   3.685 -0.1800 -1.0845 -0.5218
  322MOL0     H42473   7.923   2.021   3.793  2.2155  0.7918 -0.2068
  322MOL0     H42474   7.908   1.811   3.963 -1.4960  0.0273  1.1344
  322MOL0     H42475   7.918   1.725   3.802 -0.2962  0.8943 -1.3527
  322MOL0     H42476   7.711   1.939   3.882  0.4502 -1.0967  0.1480
  322MOL0     H42477   7.701   1.839   3.740 -0.0117 -0.1508  0.0702
  322MOL0     H42478   7.676   1.754   4.032 -2.9237 -1.2564  1.4611
  322MOL0     H42479   7.705   1.640   3.892  2.4569  1.4035  1.8522
  322MOL0     H42480   7.503   1.683   3.796  1.6850  1.2333 -1.5914
  322MOL0     H42481   7.486   1.836   3.888  0.8634 -1.0618 -0.0761
  322MOL0     H42482   7.497   1.564   4.007  2.5517  0.2142  0.3867
  322MOL0     H42483   7.479   1.704   4.103  0.5088  1.3928 -0.6142
  322MOL0     H42484   7.248   1.761   3.981  1.2964  1.0237  1.0329
  322MOL0     H42485   7.267   1.617   4.093  0.9757  3.1961  1.0754
  322MOL0     H42486   8.377   1.960   3.922 -2.7408 -1.0074  0.2916
  322MOL0     H42487   8.547   2.111   3.981 -0.8188  1.9778 -2.1046
  322MOL0     H42488   8.639   2.569   4.174  0.0358 -1.4050 -1.5225
  322MOL0     H42489   8.821   2.714   4.183  2.3551 -0.5135 -0.3785
  322MOL0     H42490  10.703   2.527   4.776 -1.9207  1.7044 -0.6436
  322MOL0     H42491  10.778   2.312   4.754  1.3146  2.0972  1.5793
  322MOL0     H42492  10.608   1.886   4.951 -0.4838  2.7786 -2.1941
  322MOL0     H42493  10.639   1.646   5.007 -0.9986  0.3279  0.3882
  322MOL0     H42494  10.639   1.361   4.654  2.6918  3.1847  0.7249
  322MOL0     H42495  10.491   1.372   4.749  0.3697 -1.2160 -1.1901
  322MOL0     H42496  10.701   1.173   4.801  0.0565 -0.6280 -1.1855
  322MOL0     H42497  10.561   1.218   4.907 -4.8449  0.9163 -1.6823
  322MOL0     H42498  10.408   1.149   4.773  1.0266  0.6116  1.0675
  322MOL0     H42499  10.527   1.024   4.786  1.7307  0.8295  0.4595
  322MOL0     H42500  10.490   1.199   4.531 -1.2305 -0.8169 -1.2429
  322MOL0     H42501  10.612   1.074   4.557  0.0791 -0.2988  1.2387
  322MOL0     H42502  10.269   0.836   4.518  0.6589 -1.2446  1.3912
  322MOL0     H42503  10.658   1.550   4.589 -1.3344  2.0035 -2.4421
  322MOL0     H42504  10.653   1.800   4.545 -2.4973  1.9377  0.4925
  323MOL0     O42505   6.807   9.399   5.550 -0.8247 -0.3948  0.1527
  323MOL0     C42506   6.840   9.405   5.667  1.4432  0.2146 -0.0546
  323MOL0     O42507   6.755   9.408   5.775  0.1698 -0.7239 -0.5427
  323MOL0     C42508   6.621   9.386   5.762  0.2955 -0.0010 -0.8157
  323MOL0     C42509   6.535   9.483   5.815  0.6412 -0.3659  0.4375
  323MOL0     C42510   6.390   9.457   5.804 -0.3341  0.3378 -0.5656
  323MOL0     C42511   6.332   9.340   5.747 -0.6471 -0.5020  0.8239
  323MOL0     O42512   6.203   9.309   5.722 -0.5219 -0.2048  0.0596
  323MOL0     C42513   6.109   9.388   5.800  0.7547  0.0512 -0.0956
  323MOL0     C42514   5.967   9.348   5.751  0.1499 -0.1699 -0.2751
  323MOL0     C42515   5.849   9.437   5.800  0.1652  0.3378  0.3223
  323MOL0     C42516   5.721   9.379   5.730 -0.2234 -0.0013 -0.3128
  323MOL0     C42517   5.602   9.449   5.789  0.2283  0.3746  0.3833
  323MOL0     C42518   5.477   9.419   5.706  0.1177 -0.6506 -0.4940
  323MOL0     C42519   5.338   9.442   5.781  0.1461  0.0825  0.0932
  323MOL0     C42520   5.213   9.404   5.693  0.1059  0.5436 -0.2944
  323MOL0     N42521   5.092   9.447   5.762  0.2168 -0.0049 -0.6102
  323MOL0     C42522   5.058   9.412   5.891  0.5629 -0.5372  0.1527
  323MOL0     C42523   4.935   9.472   5.902  0.6764  0.5970 -0.2457
  323MOL0     C42524   4.871   9.480   6.038  0.2754  0.6221 -0.1354
  323MOL0     C42525   4.956   9.565   6.125  0.0218 -0.0720 -0.3355
  323MOL0     C42526   4.987   9.706   6.068 -0.7527  0.5619  0.8479
  323MOL0     C42527   5.051   9.792   6.175  0.1052  0.1985  0.4512
  323MOL0     O42528   5.098   9.910   6.113 -0.9507  0.1534 -0.4392
  323MOL0     C42529   5.221   9.906   6.058 -0.0409  1.1626 -0.8801
  323MOL0     C42530   5.262  10.029   6.010  0.7104  0.9350 -1.0442
  323MOL0     C42531   5.393  10.037   5.947  0.7744 -0.1853 -0.1737
  323MOL0     C42532   5.478   9.932   5.931  0.7379 -0.4310 -0.9520
  323MOL0     C42533   5.602   9.932   5.864 -0.5593  0.0373  0.6926
  323MOL0     O42534   5.686   9.825   5.893 -0.2545 -0.6896 -0.1485
  323MOL0     C42535   5.815   9.837   5.852  0.3403  0.1365  0.3950
  323MOL0     C42536   5.847   9.791   5.722 -0.2723  0.5353 -0.3760
  323MOL0     C42537   5.976   9.794   5.672  0.2655  0.0642  0.8117
  323MOL0     C42538   6.087   9.823   5.755  0.2294 -0.3733  0.8339
  323MOL0     O42539   6.209   9.797   5.694 -0.9802  0.0731 -0.2510
  323MOL0     C42540   6.329   9.834   5.769  0.8745 -0.4930 -0.0584
  323MOL0     C42541   6.449   9.806   5.674  0.0349 -0.2714  0.0460
  323MOL0     C42542   6.576   9.851   5.753  0.0532 -0.5874  1.2250
  323MOL0     C42543   6.704   9.819   5.665 -0.1953 -0.2393  0.2598
  323MOL0     C42544   6.822   9.885   5.740  0.4283  0.3002 -0.3970
  323MOL0     C42545   6.946   9.872   5.648  0.5519  0.3516 -0.6597
  323MOL0     C42546   7.072   9.927   5.722 -0.6946 -0.1882  0.8241
  323MOL0     C42547   7.142   9.817   5.805  0.6045 -0.1121  0.0352
  323MOL0    Cl42548   7.285   9.892   5.882  0.1332 -0.0587 -0.0520
  323MOL0     C42549   6.060   9.863   5.884  0.6565 -0.5447  0.2780
  323MOL0     C42550   5.925   9.871   5.932 -0.0350  0.3409 -0.5523
  323MOL0     O42551   5.634  10.034   5.800 -0.1055 -0.1195 -0.9385
  323MOL0     C42552   5.431   9.808   5.980 -0.3252 -0.0712 -0.6047
  323MOL0     C42553   5.308   9.789   6.036  0.3877 -0.0484 -0.3164
  323MOL0     N42554   4.899   9.534   5.786 -0.3449  0.1529  0.5327
  323MOL0     N42555   4.998   9.522   5.701 -0.0040  0.0401 -0.5166
  323MOL0     C42556   6.424   9.246   5.701 -1.5464  0.5306 -0.4420
  323MOL0     C42557   6.566   9.264   5.707  0.5713 -0.1285 -0.1816
  323MOL0     C42558   6.985   9.417   5.698  0.1411 -0.9437 -0.1976
  323MOL0     C42559   7.072   9.468   5.604  0.0516 -1.0143 -0.2379
  323MOL0     C42560   7.206   9.486   5.623  0.9253  0.3787 -0.0673
  323MOL0     C42561   7.254   9.456   5.750  0.6581 -0.0607  0.3682
  323MOL0     O42562   7.382   9.495   5.775  0.5434  0.8006  0.5143
  323MOL0     C42563   7.467   9.386   5.776  0.2213  0.1120 -0.0046
  323MOL0     C42564   7.475   9.309   5.649  0.1151 -0.3514  0.7251
  323MOL0     C42565   7.541   9.389   5.531 -0.0049  0.6099 -0.1657
  323MOL0     C42566   7.680   9.455   5.567  0.4244  0.4749  0.1431
  323MOL0     C42567   7.786   9.360   5.598 -0.0867 -0.3817  0.4003
  323MOL0     C42568   7.876   9.285   5.644 -0.0583  0.3223 -0.7296
  323MOL0     C42569   7.173   9.404   5.848 -0.0666  0.8871  0.2247
  323MOL0     C42570   7.036   9.389   5.824  0.7634 -1.0071 -0.2264
  323MOL0     H42571   6.569   9.574   5.864 -0.7996  1.2127 -1.3121
  323MOL0     H42572   6.328   9.534   5.849  0.9353  0.4932  1.0062
  323MOL0     H42573   6.115   9.496   5.782 -0.3493  0.1969  0.3874
  323MOL0     H42574   6.124   9.363   5.905 -2.2170  1.9498  0.9218
  323MOL0     H42575   5.942   9.248   5.786 -0.4501  0.7968  2.3518
  323MOL0     H42576   5.964   9.340   5.642 -0.8878  2.2222 -0.4931
  323MOL0     H42577   5.861   9.533   5.750 -1.7364 -0.2181 -1.3422
  323MOL0     H42578   5.842   9.441   5.909 -4.4895 -1.8092  0.3405
  323MOL0     H42579   5.729   9.397   5.622 -3.2826  3.0859 -0.2042
  323MOL0     H42580   5.716   9.272   5.752  1.2716 -0.2638 -1.0618
  323MOL0     H42581   5.629   9.555   5.792 -2.1016  1.0422 -0.0947
  323MOL0     H42582   5.582   9.412   5.890  2.2810  0.5633  0.9013
  323MOL0     H42583   5.470   9.314   5.678 -1.3784 -0.5312 -0.7013
  323MOL0     H42584   5.479   9.487   5.620 -3.1629 -1.3993 -1.3260
  323MOL0     H42585   5.329   9.399   5.881  0.2438  0.7193  0.3751
  323MOL0     H42586   5.340   9.547   5.810 -3.0607 -0.0766  1.1997
  323MOL0     H42587   5.210   9.295   5.687 -1.2608  0.3948  1.7893
  323MOL0     H42588   5.212   9.445   5.592  1.9106 -2.3878 -1.6225
  323MOL0     H42589   5.104   9.347   5.965 -2.1995 -2.2809  0.5047
  323MOL0     H42590   4.864   9.378   6.076 -3.0680  1.0187  0.5763
  323MOL0     H42591   4.770   9.522   6.044  0.0934  0.0028  3.9190
  323MOL0     H42592   5.053   9.517   6.138  0.6355  1.3644  0.6740
  323MOL0     H42593   4.904   9.568   6.221 -1.5292  1.5064 -1.1578
  323MOL0     H42594   5.041   9.693   5.974 -1.6831  0.0251  0.3617
  323MOL0     H42595   4.897   9.763   6.041 -0.5072  1.0524  1.0609
  323MOL0     H42596   5.133   9.741   6.227  0.2631 -2.6500 -2.3230
  323MOL0     H42597   4.972   9.833   6.239  0.4597  0.9578  0.4179
  323MOL0     H42598   5.213  10.125   6.026  0.3490  0.7962 -1.3010
  323MOL0     H42599   5.421  10.131   5.900  0.6140 -0.3072 -0.5187
  323MOL0     H42600   5.769   9.761   5.652  1.2192 -4.4016 -0.2788
  323MOL0     H42601   5.984   9.749   5.573 -1.9027 -0.3280  0.7674
  323MOL0     H42602   6.348   9.785   5.866 -0.3415  1.3016  1.1526
  323MOL0     H42603   6.316   9.937   5.803  2.4623 -0.6580  1.1507
  323MOL0     H42604   6.454   9.871   5.586  0.9890  2.3721  1.8968
  323MOL0     H42605   6.461   9.701   5.647 -0.0597  0.3125 -2.4992
  323MOL0     H42606   6.579   9.800   5.849 -1.7324 -0.9353  1.1205
  323MOL0     H42607   6.575   9.960   5.762  0.4524 -0.5872  1.2870
  323MOL0     H42608   6.723   9.713   5.643  0.5016 -0.0440 -0.1229
  323MOL0     H42609   6.697   9.865   5.567  0.1484 -0.7510 -0.0108
  323MOL0     H42610   6.848   9.846   5.839  1.7582 -1.4334 -1.3859
  323MOL0     H42611   6.804   9.990   5.765  0.0765  0.1548 -0.0140
  323MOL0     H42612   6.935   9.936   5.560 -0.0873  1.2083  0.0215
  323MOL0     H42613   6.955   9.767   5.618  1.4915  0.6475 -1.4755
  323MOL0     H42614   7.141   9.971   5.650 -0.4493 -0.1932  1.0549
  323MOL0     H42615   7.033  10.008   5.785  0.8626  3.1577 -2.1363
  323MOL0     H42616   7.181   9.749   5.729  1.5580 -0.9911  1.2687
  323MOL0     H42617   7.074   9.772   5.879 -1.4023  2.6198  0.0061
  323MOL0     H42618   6.145   9.884   5.949  0.0884  3.1754 -0.0075
  323MOL0     H42619   5.914   9.889   6.038  1.0509 -0.4082 -0.2920
  323MOL0     H42620   5.509   9.732   5.982  0.4728  0.7207 -0.6878
  323MOL0     H42621   5.287   9.690   6.077  3.4995 -1.8813 -2.6466
  323MOL0     H42622   6.401   9.148   5.660  2.5528 -1.6426  1.8030
  323MOL0     H42623   6.627   9.184   5.667  0.0414 -0.8692  0.4616
  323MOL0     H42624   7.043   9.496   5.503  0.1654  1.0506  0.2683
  323MOL0     H42625   7.273   9.530   5.550  0.5259  0.5209 -0.3523
  323MOL0     H42626   7.455   9.317   5.860  0.7300  0.7476  0.6089
  323MOL0     H42627   7.568   9.423   5.797  0.2566  0.1345 -0.2120
  323MOL0     H42628   7.528   9.217   5.676  2.3896  0.4935 -0.5485
  323MOL0     H42629   7.377   9.277   5.612  1.4214 -1.8382 -1.7405
  323MOL0     H42630   7.478   9.470   5.494  0.6515  1.5280  0.6718
  323MOL0     H42631   7.566   9.328   5.444  0.0912  0.4730 -0.0432
  323MOL0     H42632   7.723   9.499   5.477  1.2214  0.6418  0.6038
  323MOL0     H42633   7.677   9.533   5.643 -1.5375  2.8161 -2.1510
  323MOL0     H42634   7.953   9.213   5.661  0.3811  1.1150  0.8464
  323MOL0     H42635   7.216   9.380   5.945  1.7321  0.9518 -0.5118
  323MOL0     H42636   6.969   9.367   5.907  0.1960  1.4213  0.0564
  324MOL0     O42637   9.145   4.449   3.102 -0.3302 -0.0363  1.0927
  324MOL0     C42638   9.160   4.468   2.977 -0.3882 -0.8294  0.5759
  324MOL0     O42639   9.062   4.460   2.886  0.2355 -0.0355  0.3772
  324MOL0     C42640   8.923   4.440   2.915  0.4417 -0.0695  0.0193
  324MOL0     C42641   8.868   4.462   3.041 -0.2199 -0.1979  0.7024
  324MOL0     C42642   8.729   4.451   3.046 -0.2464 -0.1441  0.4235
  324MOL0     C42643   8.640   4.414   2.945  0.4672  0.2715  0.4841
  324MOL0     O42644   8.516   4.401   2.983  0.0105  0.1834 -0.0992
  324MOL0     C42645   8.406   4.364   2.898  0.4748  0.3335 -0.5338
  324MOL0     C42646   8.274   4.351   2.981 -0.6459  0.2497  0.0856
  324MOL0     C42647   8.148   4.298   2.904  0.2656  0.4329 -0.1135
  324MOL0     C42648   8.046   4.234   2.993  0.1272 -0.0099 -0.1284
  324MOL0     C42649   7.970   4.333   3.088  0.0419 -0.2578 -0.3099
  324MOL0     C42650   7.862   4.272   3.169  0.5097  0.6175  0.4028
  324MOL0     C42651   7.736   4.255   3.081  0.3345 -0.0331  0.5144
  324MOL0     C42652   7.630   4.214   3.174  0.3193  0.0358 -0.5976
  324MOL0     N42653   7.508   4.174   3.103  0.1699  0.0704  0.5292
  324MOL0     C42654   7.475   4.063   3.027  0.3203  0.0598 -0.2708
  324MOL0     C42655   7.363   4.093   2.961  0.3630 -1.1576  0.0197
  324MOL0     C42656   7.296   3.991   2.866  0.4968 -0.1233  0.1788
  324MOL0     C42657   7.193   3.899   2.931  0.7244  0.0663  0.0141
  324MOL0     C42658   7.061   3.965   2.954  0.0395  0.0758 -0.0719
  324MOL0     C42659   6.948   3.875   2.992 -0.0007 -0.1372 -0.1151
  324MOL0     O42660   6.914   3.799   2.879 -0.7201  0.2538  0.3346
  324MOL0     C42661   6.793   3.729   2.888 -0.1238 -1.0629  0.4460
  324MOL0     C42662   6.758   3.656   2.770  0.5444  0.6667  0.5940
  324MOL0     C42663   6.645   3.577   2.772  0.2223  0.1885 -0.3771
  324MOL0     C42664   6.567   3.564   2.889  0.1320 -0.0672 -0.1928
  324MOL0     C42665   6.446   3.478   2.875 -0.6525  0.1917  1.1478
  324MOL0     O42666   6.380   3.472   2.752  0.1526  0.2463  1.0155
  324MOL0     C42667   6.252   3.420   2.754 -0.0302 -1.1586 -0.0882
  324MOL0     C42668   6.144   3.504   2.723  0.3135  0.2091  0.4311
  324MOL0     C42669   6.014   3.461   2.731  0.2505 -0.1656 -0.0164
  324MOL0     C42670   5.981   3.328   2.753  0.5282  0.5144  0.3035
  324MOL0     O42671   5.853   3.278   2.779  0.4266 -0.4665  0.0198
  324MOL0     C42672   5.817   3.167   2.694  0.2165 -0.3146 -0.0751
  324MOL0     C42673   5.671   3.121   2.716  0.3239 -0.1907 -0.4146
  324MOL0     C42674   5.579   3.236   2.672  0.3619 -0.2527 -0.2847
  324MOL0     C42675   5.437   3.195   2.725  0.4210 -0.7477  0.5802
  324MOL0     C42676   5.326   3.291   2.682 -0.2595 -0.0694 -0.7247
  324MOL0     C42677   5.191   3.237   2.716  0.5013  0.0516  0.0468
  324MOL0     C42678   5.087   3.339   2.691 -0.0055  0.2790  0.4626
  324MOL0     C42679   4.950   3.287   2.715 -0.1006  0.1587 -0.0790
  324MOL0    Cl42680   4.909   3.144   2.596 -0.0728 -0.1240 -0.3875
  324MOL0     C42681   6.088   3.240   2.780 -0.3695 -0.6193 -0.8348
  324MOL0     C42682   6.223   3.287   2.785  0.1613 -0.8947 -0.2603
  324MOL0     O42683   6.406   3.428   2.978  0.0148  0.6978 -0.1169
  324MOL0     C42684   6.603   3.631   3.008 -0.4592  0.0900  0.4180
  324MOL0     C42685   6.708   3.726   2.999 -0.4405 -0.0192 -0.1147
  324MOL0     N42686   7.318   4.219   3.005  0.2550  0.3713 -0.1328
  324MOL0     N42687   7.409   4.271   3.083  0.0080 -0.1601  0.2353
  324MOL0     C42688   8.700   4.385   2.822 -0.2891 -0.5988 -0.1325
  324MOL0     C42689   8.844   4.397   2.804 -0.5563 -0.0838  0.6482
  324MOL0     C42690   9.299   4.503   2.926  1.1461 -0.5026 -0.1363
  324MOL0     C42691   9.412   4.505   3.016 -0.3803  0.1901  0.2535
  324MOL0     C42692   9.541   4.535   2.969  0.1695 -0.8696 -0.1165
  324MOL0     C42693   9.571   4.555   2.834 -0.2911  0.0309  0.0857
  324MOL0     O42694   9.695   4.588   2.779  0.8673  0.3935  0.1577
  324MOL0     C42695   9.804   4.508   2.821  0.0475  0.0159 -0.4892
  324MOL0     C42696   9.940   4.566   2.788 -0.5011 -0.6096 -0.4944
  324MOL0     C42697   9.960   4.692   2.871  0.6174 -0.3115  0.3336
  324MOL0     C42698  10.101   4.756   2.843  0.6133 -0.3996 -0.1616
  324MOL0     C42699  10.115   4.814   2.710 -0.3359  0.3990 -0.1181
  324MOL0     C42700  10.157   4.856   2.609 -0.2151 -0.5705 -0.1674
  324MOL0     C42701   9.469   4.556   2.744  0.4304 -0.9796  0.4932
  324MOL0     C42702   9.333   4.543   2.791  0.1944 -0.2808  0.2863
  324MOL0     H42703   8.929   4.491   3.126 -0.1307 -0.0741  0.5976
  324MOL0     H42704   8.686   4.462   3.145 -3.4922 -2.8863 -0.4856
  324MOL0     H42705   8.432   4.265   2.861  0.3838 -0.2995  1.0019
  324MOL0     H42706   8.389   4.430   2.813 -0.1171 -0.2136 -0.8414
  324MOL0     H42707   8.255   4.445   3.034  0.1162  0.4977 -0.0701
  324MOL0     H42708   8.287   4.273   3.055 -0.3586 -1.2104 -1.4474
  324MOL0     H42709   8.186   4.230   2.828  1.2164 -0.3226  0.9961
  324MOL0     H42710   8.098   4.386   2.864 -0.7983 -0.0710  0.0779
  324MOL0     H42711   7.971   4.183   2.932 -2.3164  1.3305  1.5701
  324MOL0     H42712   8.099   4.158   3.051 -0.2065 -0.1306  0.0244
  324MOL0     H42713   7.934   4.422   3.036 -1.2000 -0.2612  0.5070
  324MOL0     H42714   8.046   4.380   3.152  0.4448 -2.2670  0.7705
  324MOL0     H42715   7.835   4.330   3.257 -1.7145 -2.8356  2.1771
  324MOL0     H42716   7.886   4.170   3.200 -3.6453 -1.1615 -1.4802
  324MOL0     H42717   7.704   4.346   3.030 -2.8608  0.4719  3.1080
  324MOL0     H42718   7.755   4.183   3.001  0.1902  0.8723 -0.3535
  324MOL0     H42719   7.599   4.298   3.236 -0.9578 -2.2382  2.0708
  324MOL0     H42720   7.659   4.130   3.238  1.1999  0.6391 -0.1901
  324MOL0     H42721   7.532   3.971   3.020  0.8984  0.5281 -2.5760
  324MOL0     H42722   7.364   3.931   2.805 -2.2419 -1.5681 -1.6490
  324MOL0     H42723   7.236   4.059   2.804  1.1959  1.4574  1.1592
  324MOL0     H42724   7.226   3.866   3.030 -0.1318 -2.2150 -0.4099
  324MOL0     H42725   7.187   3.818   2.858  1.7553  0.7873 -0.8981
  324MOL0     H42726   7.067   4.042   3.031 -0.1024 -0.6431  0.6669
  324MOL0     H42727   7.029   4.009   2.859 -3.8640 -0.8183  0.6400
  324MOL0     H42728   6.861   3.939   3.010 -0.2271 -0.1381 -1.1769
  324MOL0     H42729   6.962   3.817   3.084  0.6492 -0.2036 -0.2558
  324MOL0     H42730   6.814   3.648   2.678 -0.4702  0.2282 -0.0101
  324MOL0     H42731   6.613   3.532   2.678  1.5863  0.1499 -0.8338
  324MOL0     H42732   6.165   3.609   2.711  1.4405 -0.2579 -2.1653
  324MOL0     H42733   5.945   3.545   2.731  1.3393  0.7577  0.0698
  324MOL0     H42734   5.880   3.078   2.704 -1.1006 -1.4731 -1.5304
  324MOL0     H42735   5.828   3.182   2.586  2.2069 -2.0051 -0.1658
  324MOL0     H42736   5.661   3.102   2.823  0.3300 -0.1474 -0.4063
  324MOL0     H42737   5.636   3.037   2.655  1.5158 -0.0584 -1.3207
  324MOL0     H42738   5.581   3.251   2.564  0.6548  2.5022  0.0188
  324MOL0     H42739   5.616   3.329   2.717  0.1162 -0.3317  0.0886
  324MOL0     H42740   5.405   3.103   2.675 -1.0607 -0.2248  0.5172
  324MOL0     H42741   5.439   3.183   2.834  2.6908 -2.3645  0.4290
  324MOL0     H42742   5.339   3.316   2.577  1.3054 -1.6274 -0.9492
  324MOL0     H42743   5.346   3.382   2.739  0.3298 -0.0644 -0.9363
  324MOL0     H42744   5.188   3.216   2.824 -0.0530  0.7097  0.1633
  324MOL0     H42745   5.164   3.147   2.660 -0.4625  1.3511 -1.6433
  324MOL0     H42746   5.090   3.426   2.758 -0.4537 -0.7119  1.8183
  324MOL0     H42747   5.092   3.361   2.584 -0.0432  0.9222  0.5888
  324MOL0     H42748   4.885   3.374   2.703  1.1997  1.0228 -1.0241
  324MOL0     H42749   4.940   3.255   2.820  1.7074 -3.2059 -0.7773
  324MOL0     H42750   6.077   3.137   2.816  2.7739 -0.6773  0.2837
  324MOL0     H42751   6.303   3.215   2.796  0.5373 -0.1558  2.4674
  324MOL0     H42752   6.536   3.623   3.093 -0.0629 -0.6987  0.6604
  324MOL0     H42753   6.736   3.784   3.087 -0.8656  0.0646 -0.0359
  324MOL0     H42754   8.637   4.350   2.741 -0.5174  0.0139 -0.2243
  324MOL0     H42755   8.888   4.376   2.707  0.6878  2.2167  0.6533
  324MOL0     H42756   9.408   4.488   3.123  1.4552  1.3829  0.5558
  324MOL0     H42757   9.625   4.539   3.038  0.5092  0.3408 -0.5797
  324MOL0     H42758   9.805   4.409   2.774  1.5318  0.7733 -2.1588
  324MOL0     H42759   9.795   4.494   2.929 -1.7724 -1.6081 -0.8014
  324MOL0     H42760  10.020   4.498   2.817  0.5461  0.5406 -0.6179
  324MOL0     H42761   9.936   4.578   2.680 -0.7612 -4.3744 -1.0546
  324MOL0     H42762   9.940   4.678   2.978 -0.3016 -2.4753 -0.0700
  324MOL0     H42763   9.882   4.759   2.837  0.1092 -1.7562 -1.4951
  324MOL0     H42764  10.117   4.843   2.907 -1.4655 -0.4954  0.5678
  324MOL0     H42765  10.183   4.686   2.855 -1.0741 -2.8941 -2.0605
  324MOL0     H42766  10.192   4.881   2.511 -1.3835  3.3629  0.2236
  324MOL0     H42767   9.496   4.582   2.642  0.6373  0.9959  0.9980
  324MOL0     H42768   9.260   4.553   2.711 -0.8068 -2.1198  0.9109
  325MOL0     O42769   9.229   8.111   4.501  0.0957 -0.1208 -0.0788
  325MOL0     C42770   9.322   8.194   4.507  0.3081  0.1909 -0.7721
  325MOL0     O42771   9.304   8.322   4.474 -0.2764 -0.1191 -0.3004
  325MOL0     C42772   9.176   8.385   4.472  0.2142 -0.1389  0.1647
  325MOL0     C42773   9.179   8.502   4.401 -0.0617  0.3701  0.4049
  325MOL0     C42774   9.062   8.582   4.387 -0.0768  0.0039  0.3528
  325MOL0     C42775   8.946   8.529   4.436  0.4183 -0.3542 -0.3230
  325MOL0     O42776   8.840   8.602   4.391  0.0540  0.2810  0.5234
  325MOL0     C42777   8.719   8.523   4.358  0.3970  0.2251  0.5362
  325MOL0     C42778   8.625   8.517   4.478 -0.1209 -0.5946 -0.3266
  325MOL0     C42779   8.507   8.440   4.440 -0.6718  0.5347  0.5485
  325MOL0     C42780   8.448   8.390   4.577 -0.1629  0.7417  0.4322
  325MOL0     C42781   8.303   8.341   4.563  0.5531  0.6010  1.1541
  325MOL0     C42782   8.277   8.225   4.474  0.6901  0.0262 -1.1050
  325MOL0     C42783   8.355   8.096   4.507  0.5474 -0.4676 -0.1928
  325MOL0     C42784   8.295   8.025   4.634 -0.8382 -0.3133 -0.7901
  325MOL0     N42785   8.341   7.883   4.627  0.6370 -0.7076  0.0696
  325MOL0     C42786   8.471   7.846   4.636 -0.7886 -0.7227  0.4677
  325MOL0     C42787   8.464   7.727   4.584 -0.1241 -0.2594 -0.3224
  325MOL0     C42788   8.587   7.652   4.556 -0.7583  0.2492  0.3868
  325MOL0     C42789   8.615   7.641   4.399  0.3259 -0.1275 -0.0598
  325MOL0     C42790   8.755   7.578   4.385  1.4488  0.6534 -0.0105
  325MOL0     C42791   8.797   7.541   4.242 -0.8200  0.5746 -0.6572
  325MOL0     O42792   8.921   7.466   4.234  0.0382  0.0690  0.1040
  325MOL0     C42793   8.965   7.440   4.104 -1.1096 -0.7945  0.2388
  325MOL0     C42794   9.100   7.411   4.094 -0.2759 -0.7309 -0.2882
  325MOL0     C42795   9.157   7.385   3.963  0.0587  0.4717 -1.1514
  325MOL0     C42796   9.084   7.387   3.847 -0.5130 -0.0266  0.3204
  325MOL0     C42797   9.142   7.372   3.710 -0.2406 -0.3884 -0.4389
  325MOL0     O42798   9.068   7.419   3.614 -0.0927 -0.4251  0.3922
  325MOL0     C42799   9.137   7.441   3.493 -1.1952 -0.7044 -0.5603
  325MOL0     C42800   9.261   7.514   3.494  1.0345 -0.5947  0.0403
  325MOL0     C42801   9.330   7.535   3.373  0.4076  0.1847 -0.5584
  325MOL0     C42802   9.277   7.485   3.250 -0.4431 -0.1383  0.0255
  325MOL0     O42803   9.338   7.516   3.132 -0.3989  0.0823  0.9938
  325MOL0     C42804   9.480   7.540   3.124  0.2382  0.0225 -0.1133
  325MOL0     C42805   9.546   7.505   2.984 -0.3394  0.5597 -0.2417
  325MOL0     C42806   9.476   7.383   2.922  0.3473  0.8325 -0.1406
  325MOL0     C42807   9.514   7.245   2.995 -0.0511  0.6112 -0.0438
  325MOL0     C42808   9.437   7.136   2.916  0.7205 -0.4898 -0.7112
  325MOL0     C42809   9.476   7.001   2.984 -0.2083  0.7196 -0.1286
  325MOL0     C42810   9.392   6.889   2.935  0.5238 -0.0166 -0.4524
  325MOL0     C42811   9.261   6.885   3.025  0.6118 -1.0270 -0.1000
  325MOL0    Cl42812   9.148   6.771   2.950 -0.0832 -0.1084  0.5142
  325MOL0     C42813   9.161   7.405   3.260  0.7899 -0.4131  0.0629
  325MOL0     C42814   9.097   7.375   3.381 -0.1236 -0.1835 -0.1116
  325MOL0     O42815   9.255   7.315   3.697 -0.1825  0.3983  0.1307
  325MOL0     C42816   8.952   7.418   3.864 -0.7553  0.0086  0.5386
  325MOL0     C42817   8.893   7.445   3.986  0.0783  0.1758  0.0037
  325MOL0     N42818   8.339   7.667   4.579  0.6187 -0.7913  0.2223
  325MOL0     N42819   8.264   7.769   4.610  0.1054  0.4185  0.3154
  325MOL0     C42820   8.945   8.406   4.504 -0.3281 -0.5231 -0.3178
  325MOL0     C42821   9.062   8.340   4.540  0.2496  0.0340  0.2696
  325MOL0     C42822   9.462   8.152   4.516 -0.2550 -0.6185 -0.0739
  325MOL0     C42823   9.566   8.246   4.534 -0.5023 -0.7995  0.1404
  325MOL0     C42824   9.695   8.202   4.537 -0.4810  0.6644  0.6927
  325MOL0     C42825   9.730   8.064   4.552 -0.4909  0.3570 -0.0337
  325MOL0     O42826   9.866   8.019   4.572 -0.0895  0.4366  0.2668
  325MOL0     C42827   9.888   7.885   4.621  0.5222 -0.5239  0.4199
  325MOL0     C42828   9.829   7.862   4.763  0.1941 -0.1504 -0.0424
  325MOL0     C42829   9.906   7.766   4.849  0.7831 -0.4666 -0.8046
  325MOL0     C42830   9.866   7.765   4.996 -0.5480  0.2583  0.2659
  325MOL0     C42831   9.866   7.903   5.050  0.3456 -0.1875  0.7103
  325MOL0     C42832   9.878   8.022   5.080 -0.2242 -0.8490 -0.4036
  325MOL0     C42833   9.624   7.971   4.543 -0.6037 -0.0298 -0.4351
  325MOL0     C42834   9.496   8.015   4.524 -0.0751 -0.1310  0.3358
  325MOL0     H42835   9.267   8.531   4.344  0.0769  0.5300  0.7005
  325MOL0     H42836   9.061   8.680   4.342 -0.2145  1.1003  2.5974
  325MOL0     H42837   8.754   8.424   4.327 -1.1351 -0.3514  0.5917
  325MOL0     H42838   8.668   8.568   4.272 -0.7710  0.8068  1.5178
  325MOL0     H42839   8.592   8.617   4.510 -2.1520 -1.3978  0.2337
  325MOL0     H42840   8.681   8.462   4.554  0.3200  0.4321  0.1163
  325MOL0     H42841   8.529   8.355   4.374  2.4963  1.3254  0.4238
  325MOL0     H42842   8.429   8.499   4.393  0.0009  1.8886  1.0914
  325MOL0     H42843   8.518   8.318   4.622  0.2286  0.0028 -1.2707
  325MOL0     H42844   8.440   8.475   4.645  1.4733  2.3684 -1.2981
  325MOL0     H42845   8.259   8.422   4.504  2.7777 -1.0104 -3.2406
  325MOL0     H42846   8.256   8.319   4.659  1.9866 -2.1757  1.3261
  325MOL0     H42847   8.309   8.248   4.372  1.8946  0.1292 -0.7222
  325MOL0     H42848   8.169   8.210   4.462  0.1469  1.2623  1.4930
  325MOL0     H42849   8.338   8.023   4.427 -2.3019 -0.6942  0.4784
  325MOL0     H42850   8.460   8.126   4.501 -0.8705  5.4353 -3.1174
  325MOL0     H42851   8.187   8.044   4.640 -0.6314  0.5322  1.0771
  325MOL0     H42852   8.326   8.068   4.730 -0.5516 -0.6298 -0.7414
  325MOL0     H42853   8.552   7.915   4.653  0.2154 -0.7033 -3.3965
  325MOL0     H42854   8.568   7.549   4.585 -2.3689 -0.5008 -2.8703
  325MOL0     H42855   8.675   7.691   4.608  0.7841 -2.2332 -0.2374
  325MOL0     H42856   8.618   7.744   4.362  2.6132  1.1807  3.2520
  325MOL0     H42857   8.540   7.582   4.345  1.0916  0.6994 -2.1391
  325MOL0     H42858   8.829   7.630   4.447  0.5788  2.7926 -0.6602
  325MOL0     H42859   8.754   7.476   4.423 -2.9271  0.7350  0.6085
  325MOL0     H42860   8.800   7.639   4.194  1.7629  0.0914 -1.6488
  325MOL0     H42861   8.718   7.482   4.194 -0.5498 -0.5027  0.1672
  325MOL0     H42862   9.167   7.405   4.179 -0.9627  1.9707  0.5224
  325MOL0     H42863   9.261   7.359   3.947  0.0257  0.7249 -1.8184
  325MOL0     H42864   9.288   7.558   3.589  0.7267 -0.8042  0.2254
  325MOL0     H42865   9.420   7.595   3.370  0.6606 -0.1819 -0.4285
  325MOL0     H42866   9.538   7.496   3.205 -0.2583  1.1063  0.8634
  325MOL0     H42867   9.488   7.649   3.131  2.1055 -0.0446 -0.7572
  325MOL0     H42868   9.653   7.486   2.986 -0.3209  0.6884 -0.0031
  325MOL0     H42869   9.537   7.586   2.911  0.9693  1.1577  0.2305
  325MOL0     H42870   9.503   7.380   2.816 -1.1342  0.1133 -0.5214
  325MOL0     H42871   9.368   7.402   2.917 -0.3382 -2.5173 -0.5712
  325MOL0     H42872   9.621   7.222   2.995 -0.5549 -2.6013  3.3130
  325MOL0     H42873   9.487   7.231   3.100 -3.3711  1.5586 -0.6503
  325MOL0     H42874   9.466   7.133   2.810  3.5218  3.9197 -0.3510
  325MOL0     H42875   9.328   7.147   2.910  0.9404  1.5981 -1.7362
  325MOL0     H42876   9.479   7.001   3.093  1.2794  0.6227 -0.1463
  325MOL0     H42877   9.579   6.979   2.952 -0.1224  0.1780  0.5146
  325MOL0     H42878   9.353   6.895   2.833 -2.6209 -4.7481  0.1505
  325MOL0     H42879   9.452   6.798   2.936 -0.9274 -1.0347  1.6791
  325MOL0     H42880   9.209   6.981   3.029  1.7577 -0.3954  0.3721
  325MOL0     H42881   9.275   6.851   3.128  0.2829 -1.8354 -0.3173
  325MOL0     H42882   9.110   7.377   3.168 -1.5545  0.7050  0.9328
  325MOL0     H42883   9.007   7.315   3.373 -1.4480  1.8075 -1.1368
  325MOL0     H42884   8.890   7.436   3.777 -0.0180 -0.0913 -0.0156
  325MOL0     H42885   8.787   7.466   3.980 -0.0204 -0.4914 -0.7493
  325MOL0     H42886   8.849   8.359   4.525 -0.4697 -0.1055  0.0083
  325MOL0     H42887   9.075   8.251   4.602  2.3766  0.2241  0.1670
  325MOL0     H42888   9.544   8.353   4.533 -4.8195 -1.4854  0.5669
  325MOL0     H42889   9.780   8.269   4.536  0.7962 -0.8902 -0.4753
  325MOL0     H42890   9.996   7.869   4.617  0.4800 -1.1538 -3.9449
  325MOL0     H42891   9.842   7.815   4.550  1.2998  0.2045 -0.8376
  325MOL0     H42892   9.820   7.960   4.811  1.2451 -0.6187  1.1703
  325MOL0     H42893   9.728   7.820   4.759 -0.0433  0.1052  1.9863
  325MOL0     H42894  10.012   7.792   4.849  0.5145  0.8086  0.7587
  325MOL0     H42895   9.909   7.663   4.812 -0.1225 -1.1755  0.9572
  325MOL0     H42896   9.768   7.720   5.012 -0.9620  1.0763  0.0565
  325MOL0     H42897   9.929   7.701   5.058 -0.1576  1.0468  0.6959
  325MOL0     H42898   9.895   8.118   5.125 -1.4597 -1.3020  1.1479
  325MOL0     H42899   9.638   7.866   4.568 -0.2908  0.1448  0.1610
  325MOL0     H42900   9.407   7.952   4.526  0.2965 -0.7115 -0.5593
  326MOL0     O42901   5.134   9.151   1.769  0.9100  0.2416  0.5497
  326MOL0     C42902   5.092   9.108   1.659  0.1550  0.3181 -1.0256
  326MOL0     O42903   4.962   9.105   1.620 -0.1470 -0.1640  0.2795
  326MOL0     C42904   4.877   9.171   1.700  0.1453  0.2216 -0.0898
  326MOL0     C42905   4.790   9.109   1.790 -0.2497  0.1253 -0.2446
  326MOL0     C42906   4.690   9.183   1.852 -0.1859  0.0644 -0.1365
  326MOL0     C42907   4.673   9.323   1.823  0.7132  0.3909 -0.0674
  326MOL0     O42908   4.576   9.413   1.868 -0.5263  0.7455  0.0464
  326MOL0     C42909   4.460   9.348   1.929  0.7759 -0.2488 -0.1081
  326MOL0     C42910   4.345   9.440   1.960  0.5399 -0.7325 -0.2704
  326MOL0     C42911   4.395   9.572   2.029  0.4477 -0.0494 -0.1471
  326MOL0     C42912   4.278   9.650   2.085  0.3619 -0.2070 -0.4756
  326MOL0     C42913   4.328   9.771   2.164  0.0297  0.4164 -0.4617
  326MOL0     C42914   4.224   9.874   2.223 -0.1562 -0.4561  0.1735
  326MOL0     C42915   4.093   9.807   2.277  0.1358 -0.9368 -0.8354
  326MOL0     C42916   4.015   9.906   2.361 -0.3482 -0.2603  0.5300
  326MOL0     N42917   3.901   9.839   2.418 -0.0183 -0.6249 -1.2037
  326MOL0     C42918   3.791   9.827   2.347  0.2723 -0.0708 -0.7376
  326MOL0     C42919   3.713   9.752   2.430 -0.1164 -0.5397  0.1716
  326MOL0     C42920   3.568   9.711   2.404  0.8111 -0.2623 -0.1411
  326MOL0     C42921   3.476   9.823   2.463  0.0334 -0.1629 -0.3357
  326MOL0     C42922   3.327   9.810   2.419 -0.1141  0.0912  0.3015
  326MOL0     C42923   3.233   9.895   2.507  0.1275 -0.9646 -0.1225
  326MOL0     O42924   3.228   9.845   2.645  0.3848 -0.0285  0.7400
  326MOL0     C42925   3.145   9.890   2.736  1.3718  0.2808  0.8028
  326MOL0     C42926   3.043   9.979   2.718  0.5897 -0.1108 -0.0136
  326MOL0     C42927   2.967  10.036   2.812 -0.2254 -0.3595  0.1312
  326MOL0     C42928   2.986   9.998   2.944 -0.1903 -0.1211 -0.0681
  326MOL0     C42929   2.895  10.054   3.049 -0.0243  0.0499 -0.0336
  326MOL0     O42930   2.896   9.981   3.166  0.2701 -0.2401  0.1334
  326MOL0     C42931   2.827  10.019   3.277 -0.3037  0.4235  0.5168
  326MOL0     C42932   2.871   9.987   3.399 -0.3000 -0.0228 -1.0695
  326MOL0     C42933   2.793   9.999   3.509 -0.6944  0.1046 -0.0602
  326MOL0     C42934   2.668  10.050   3.503  0.2434  0.7875  0.2131
  326MOL0     O42935   2.600  10.055   3.614  0.0291  0.3266 -0.1564
  326MOL0     C42936   2.465  10.092   3.608  1.0470 -0.4726 -0.1844
  326MOL0     C42937   2.384  10.087   3.742 -1.0301  0.2015  0.1080
  326MOL0     C42938   2.475  10.148   3.848 -0.3302  0.4036 -0.4139
  326MOL0     C42939   2.409  10.164   3.985  0.1167  0.7550 -0.7917
  326MOL0     C42940   2.502  10.225   4.086  0.4114 -0.3314 -0.1283
  326MOL0     C42941   2.439  10.229   4.225  0.3186  0.2954 -0.0333
  326MOL0     C42942   2.511  10.320   4.331  0.4179 -0.1499 -0.0032
  326MOL0     C42943   2.498  10.470   4.302  0.0199  0.2912  0.4025
  326MOL0    Cl42944   2.332  10.537   4.308 -0.6359 -0.0246 -0.0353
  326MOL0     C42945   2.621  10.103   3.381 -0.1182  0.4453  0.2827
  326MOL0     C42946   2.695  10.070   3.266 -0.1803 -0.0118 -0.7451
  326MOL0     O42947   2.835  10.159   3.023 -0.0194 -0.4485  0.2732
  326MOL0     C42948   3.095   9.913   2.975 -0.5119  0.2406  0.9619
  326MOL0     C42949   3.176   9.859   2.867 -0.1951 -0.2345  0.3983
  326MOL0     N42950   3.781   9.725   2.541 -0.4220 -0.0032  0.3041
  326MOL0     N42951   3.897   9.769   2.533 -0.5761 -0.3927  0.4331
  326MOL0     C42952   4.757   9.384   1.726 -0.1130 -0.2520 -0.2531
  326MOL0     C42953   4.858   9.307   1.670 -0.0294 -0.5915  0.2706
  326MOL0     C42954   5.188   9.052   1.563  1.1746 -0.0714  0.7685
  326MOL0     C42955   5.324   9.074   1.575 -0.5213 -0.6754 -1.3365
  326MOL0     C42956   5.414   9.034   1.481 -0.0929  0.2888 -0.5672
  326MOL0     C42957   5.371   8.954   1.372 -0.3468  0.4079  0.1163
  326MOL0     O42958   5.459   8.907   1.285 -0.1094 -0.9509  0.3912
  326MOL0     C42959   5.418   8.883   1.149  0.2209 -0.0778  0.2859
  326MOL0     C42960   5.419   8.738   1.110  0.2832 -0.3911  0.2944
  326MOL0     C42961   5.393   8.714   0.959 -0.4791  0.0214 -0.2769
  326MOL0     C42962   5.356   8.570   0.942 -0.5279 -0.0475 -0.3398
  326MOL0     C42963   5.463   8.481   0.988 -0.1760 -0.2391 -0.4706
  326MOL0     C42964   5.540   8.400   1.033 -1.0719 -0.0047 -1.0806
  326MOL0     C42965   5.234   8.915   1.361 -0.5629 -0.3014  0.3959
  326MOL0     C42966   5.143   8.969   1.455 -0.3414 -0.9399  0.0498
  326MOL0     H42967   4.792   9.003   1.809  3.0762 -0.0627 -1.0090
  326MOL0     H42968   4.620   9.129   1.916 -0.5228  0.0332 -0.5262
  326MOL0     H42969   4.496   9.290   2.014  0.8548 -0.0171  0.0183
  326MOL0     H42970   4.416   9.275   1.861  3.1522 -2.2010  0.3031
  326MOL0     H42971   4.282   9.388   2.033 -2.9454 -0.0249 -2.4934
  326MOL0     H42972   4.287   9.460   1.869  1.0398 -4.4136 -1.5765
  326MOL0     H42973   4.456   9.622   1.953  0.5052  0.7593  0.4287
  326MOL0     H42974   4.456   9.554   2.118  0.4232  1.6115  0.2258
  326MOL0     H42975   4.213   9.685   2.004 -2.0575 -1.6163  0.7189
  326MOL0     H42976   4.216   9.592   2.154 -0.5112  0.6068 -0.5571
  326MOL0     H42977   4.402   9.820   2.101  1.2816  0.0225  0.6513
  326MOL0     H42978   4.390   9.733   2.246 -0.7322  0.2638  0.0564
  326MOL0     H42979   4.191   9.942   2.145 -0.9971 -3.6675 -2.5233
  326MOL0     H42980   4.266   9.933   2.305  2.1549  0.9352 -1.8928
  326MOL0     H42981   4.038   9.784   2.185  2.3997  0.0736 -2.5437
  326MOL0     H42982   4.123   9.730   2.348  0.6999  1.2660  1.4257
  326MOL0     H42983   3.984   9.986   2.292  1.8001 -0.1177 -0.3609
  326MOL0     H42984   4.083   9.950   2.434  2.5628 -0.2394 -1.9857
  326MOL0     H42985   3.764   9.867   2.250 -0.3809 -0.8330 -0.8905
  326MOL0     H42986   3.546   9.616   2.452  1.5195  0.2323  1.2268
  326MOL0     H42987   3.560   9.698   2.295  2.1908 -1.3270 -0.1439
  326MOL0     H42988   3.510   9.923   2.436 -0.1237  0.5462  1.8832
  326MOL0     H42989   3.492   9.803   2.569 -2.6940 -1.6781 -0.1216
  326MOL0     H42990   3.320   9.846   2.315  0.2262 -1.5877 -0.3287
  326MOL0     H42991   3.294   9.706   2.423  0.5667 -0.2005 -0.9444
  326MOL0     H42992   3.132   9.901   2.466 -0.3106  3.1656  1.0860
  326MOL0     H42993   3.262  10.001   2.508 -1.3221 -0.5015 -1.6995
  326MOL0     H42994   3.028  10.022   2.619  0.7431  0.6944  0.3027
  326MOL0     H42995   2.888  10.105   2.784  0.2561 -0.0056 -0.3847
  326MOL0     H42996   2.970   9.944   3.398  0.4754  1.5746  0.9098
  326MOL0     H42997   2.833   9.957   3.600  0.2610 -0.1108 -0.5660
  326MOL0     H42998   2.415  10.026   3.536  1.9158 -0.2440 -1.0197
  326MOL0     H42999   2.452  10.199   3.587  1.1528 -0.8865 -2.6535
  326MOL0     H43000   2.352   9.985   3.766  0.1692 -0.6909 -1.7728
  326MOL0     H43001   2.300  10.155   3.723 -1.5322 -1.0345 -2.7885
  326MOL0     H43002   2.514  10.245   3.815 -0.7069  1.8803  3.0325
  326MOL0     H43003   2.560  10.079   3.851 -1.3507 -0.9118 -0.6374
  326MOL0     H43004   2.319  10.225   3.977  0.0826  1.0056  1.1575
  326MOL0     H43005   2.383  10.065   4.024 -1.7883  1.6155  0.2770
  326MOL0     H43006   2.523  10.329   4.057  0.9259  0.0354  1.4438
  326MOL0     H43007   2.592  10.162   4.091  1.1373  0.7488  1.0474
  326MOL0     H43008   2.423  10.132   4.273  1.1291  0.5339  0.7281
  326MOL0     H43009   2.333  10.258   4.222  0.8976  3.2680  2.9184
  326MOL0     H43010   2.453  10.307   4.424 -1.7458  0.1067 -1.2564
  326MOL0     H43011   2.615  10.286   4.334  0.1807 -0.8411  1.1609
  326MOL0     H43012   2.541  10.495   4.204 -2.6509 -0.9783 -1.2027
  326MOL0     H43013   2.554  10.530   4.374 -2.0225  1.8246  0.7971
  326MOL0     H43014   2.527  10.156   3.369  0.6593  1.2450 -4.7988
  326MOL0     H43015   2.649  10.097   3.172  1.1814  0.5728 -1.2720
  326MOL0     H43016   3.109   9.881   3.078  1.1940 -0.2342  0.6126
  326MOL0     H43017   3.263   9.800   2.894 -1.3779 -1.8970  0.7277
  326MOL0     H43018   4.737   9.481   1.683  2.4170  1.3779  2.0053
  326MOL0     H43019   4.920   9.353   1.593 -0.9770  0.4056  0.0696
  326MOL0     H43020   5.364   9.134   1.655  0.5495  0.9076 -2.9879
  326MOL0     H43021   5.521   9.053   1.485 -0.0840  0.0739  1.4192
  326MOL0     H43022   5.491   8.943   1.095 -0.9863 -1.1207 -2.7226
  326MOL0     H43023   5.318   8.922   1.128 -0.2018 -1.4371 -0.3209
  326MOL0     H43024   5.519   8.697   1.130  0.0259 -0.9656  0.4199
  326MOL0     H43025   5.349   8.686   1.177 -0.0862  1.2419  1.2471
  326MOL0     H43026   5.493   8.723   0.915 -0.5453 -1.0390 -0.6600
  326MOL0     H43027   5.321   8.784   0.917 -0.7091 -1.4458 -2.5006
  326MOL0     H43028   5.266   8.556   1.001 -1.1861 -1.1625 -1.5608
  326MOL0     H43029   5.338   8.548   0.836  3.0855 -0.6793 -0.9492
  326MOL0     H43030   5.606   8.324   1.071 -3.0934 -0.8752  0.9687
  326MOL0     H43031   5.190   8.846   1.289 -0.1624 -0.6405  0.4718
  326MOL0     H43032   5.038   8.940   1.456 -2.0245  4.2577 -0.5703
  327MOL0     O43033   3.297   3.390   7.324 -0.1086  0.5620  0.0734
  327MOL0     C43034   3.314   3.334   7.427  1.1931  0.5292 -0.0952
  327MOL0     O43035   3.415   3.259   7.470  0.6237 -0.5350  0.2882
  327MOL0     C43036   3.524   3.241   7.384  0.7275  0.3042  0.2144
  327MOL0     C43037   3.650   3.272   7.423 -0.6474 -0.1996 -0.9948
  327MOL0     C43038   3.760   3.249   7.330 -0.3836  0.1915  0.2307
  327MOL0     C43039   3.737   3.197   7.200  0.1902  0.5485 -0.9817
  327MOL0     O43040   3.828   3.179   7.103 -0.0224 -0.0202  0.1732
  327MOL0     C43041   3.958   3.224   7.134  0.1716  0.1712  0.0054
  327MOL0     C43042   4.063   3.195   7.025  0.0099 -0.4094 -0.1771
  327MOL0     C43043   4.031   3.247   6.899  0.7361  0.6728  0.5607
  327MOL0     C43044   4.142   3.203   6.809  0.0994 -0.6374 -0.8773
  327MOL0     C43045   4.123   3.238   6.660  0.1525 -0.7145 -1.0384
  327MOL0     C43046   4.242   3.198   6.578 -0.4743  0.4014 -0.5761
  327MOL0     C43047   4.212   3.205   6.428 -1.1054 -0.4727 -0.7173
  327MOL0     C43048   4.338   3.182   6.334  0.1834 -0.1931 -0.0602
  327MOL0     N43049   4.370   3.041   6.298  0.7825 -0.6081 -0.3649
  327MOL0     C43050   4.474   2.968   6.347 -0.4830  0.4194  0.9328
  327MOL0     C43051   4.462   2.847   6.271 -0.7306  0.2438 -1.0307
  327MOL0     C43052   4.571   2.745   6.264 -0.3241 -0.3599 -0.2987
  327MOL0     C43053   4.669   2.766   6.151  0.2244  0.4537 -1.0114
  327MOL0     C43054   4.819   2.739   6.191  0.0248 -0.6196 -0.0489
  327MOL0     C43055   4.835   2.598   6.253  0.5768 -0.4433  0.2646
  327MOL0     O43056   4.975   2.599   6.263 -0.0206 -0.3532  0.2312
  327MOL0     C43057   5.033   2.480   6.291  0.7596  0.4796 -0.3179
  327MOL0     C43058   4.963   2.360   6.284  0.8176 -0.4957 -0.9089
  327MOL0     C43059   5.030   2.238   6.314  0.1430 -0.8740  0.6154
  327MOL0     C43060   5.166   2.237   6.351  0.3561 -0.0572  0.7789
  327MOL0     C43061   5.234   2.116   6.382  1.0851  0.6439  0.2554
  327MOL0     O43062   5.346   2.128   6.454 -0.1400  0.9320 -0.2014
  327MOL0     C43063   5.414   2.017   6.499 -0.5053 -0.4473  1.1464
  327MOL0     C43064   5.359   1.913   6.569 -0.1866  0.4800  0.1037
  327MOL0     C43065   5.430   1.805   6.612 -0.6987  0.6441  0.4719
  327MOL0     C43066   5.566   1.791   6.580  0.4418  0.1560  0.8789
  327MOL0     O43067   5.644   1.680   6.601  0.3290  0.6485  0.2084
  327MOL0     C43068   5.613   1.608   6.721  0.6058 -0.7278 -0.6192
  327MOL0     C43069   5.717   1.508   6.758  0.9729  0.7360 -0.6353
  327MOL0     C43070   5.840   1.565   6.825 -0.3238 -0.6638  0.4968
  327MOL0     C43071   5.922   1.471   6.914  0.4565 -0.1281  0.3231
  327MOL0     C43072   5.852   1.444   7.045  0.0698  0.4225 -0.2226
  327MOL0     C43073   5.930   1.328   7.112  0.1519  0.0321 -0.0960
  327MOL0     C43074   5.850   1.261   7.224 -0.9499  0.4698 -0.2737
  327MOL0     C43075   5.788   1.362   7.310 -0.1717 -0.0593 -0.4454
  327MOL0    Cl43076   5.706   1.294   7.457  0.3987  0.6934  0.4926
  327MOL0     C43077   5.628   1.897   6.514 -0.0128 -0.6180 -0.9886
  327MOL0     C43078   5.553   2.009   6.477 -0.1096  0.3131  0.3680
  327MOL0     O43079   5.193   2.011   6.332 -0.1223 -0.1830 -0.8268
  327MOL0     C43080   5.231   2.353   6.361 -0.5866 -0.3125 -0.4177
  327MOL0     C43081   5.163   2.476   6.326 -0.5043  0.1817  0.4230
  327MOL0     N43082   4.337   2.853   6.200  0.3975  0.1085 -0.3360
  327MOL0     N43083   4.285   2.971   6.221  0.1741 -0.2167  0.1044
  327MOL0     C43084   3.606   3.163   7.168 -0.4621 -0.1835  0.4888
  327MOL0     C43085   3.503   3.192   7.255  0.2562  0.2619 -1.0224
  327MOL0     C43086   3.199   3.345   7.523  0.0078 -0.3214 -0.1592
  327MOL0     C43087   3.221   3.334   7.662  0.3270  0.3111  0.1052
  327MOL0     C43088   3.115   3.354   7.755  0.6489 -0.5014  0.3627
  327MOL0     C43089   2.982   3.379   7.710 -0.7030 -0.1477  0.8550
  327MOL0     O43090   2.885   3.384   7.804 -0.2314  0.2647 -0.2385
  327MOL0     C43091   2.744   3.403   7.760 -0.4670 -0.6430 -0.6688
  327MOL0     C43092   2.656   3.413   7.880  0.4466 -0.6383 -0.0980
  327MOL0     C43093   2.660   3.288   7.977 -0.5186  0.0701  0.1610
  327MOL0     C43094   2.566   3.325   8.090  0.2290  0.1948 -0.3378
  327MOL0     C43095   2.551   3.223   8.190 -0.0828  0.3658 -0.6994
  327MOL0     C43096   2.562   3.141   8.283 -0.0544 -0.2683 -0.7305
  327MOL0     C43097   2.969   3.395   7.572  0.4491 -0.2177  0.0140
  327MOL0     C43098   3.076   3.377   7.477  0.1100 -0.2250  0.0648
  327MOL0     H43099   3.676   3.313   7.521  2.5279 -1.4660 -1.1997
  327MOL0     H43100   3.862   3.275   7.356 -0.8126 -0.3418  2.7285
  327MOL0     H43101   3.991   3.190   7.233  0.8717 -1.1391 -0.6562
  327MOL0     H43102   3.952   3.333   7.143  2.7676  0.3295  0.8040
  327MOL0     H43103   4.073   3.086   7.011  2.7500 -0.2640  0.1046
  327MOL0     H43104   4.160   3.218   7.070 -1.5306  0.0035  3.1877
  327MOL0     H43105   4.032   3.356   6.906  4.5528  0.7257  1.1820
  327MOL0     H43106   3.934   3.206   6.869  0.8252  2.1944 -2.1001
  327MOL0     H43107   4.239   3.232   6.850 -0.7946 -0.2151  1.0632
  327MOL0     H43108   4.141   3.094   6.801 -0.5897 -0.5175 -6.2174
  327MOL0     H43109   4.132   3.346   6.641  1.5455 -0.2902  1.5764
  327MOL0     H43110   4.029   3.201   6.620 -1.0959  2.7072 -1.6175
  327MOL0     H43111   4.263   3.093   6.602  0.5002  0.6045 -0.5038
  327MOL0     H43112   4.323   3.266   6.605 -1.0103  0.8137 -0.0098
  327MOL0     H43113   4.131   3.137   6.402 -3.3171  1.4449  0.7828
  327MOL0     H43114   4.176   3.307   6.410  0.3791  0.0128 -1.0755
  327MOL0     H43115   4.429   3.228   6.373  0.5729  0.2513 -1.4578
  327MOL0     H43116   4.318   3.235   6.240 -0.8115  1.7848  1.1908
  327MOL0     H43117   4.548   2.998   6.421  1.7831 -0.2670 -0.9408
  327MOL0     H43118   4.518   2.651   6.243  0.3003 -0.9983  0.8644
  327MOL0     H43119   4.621   2.731   6.360 -0.0131 -0.9420 -0.5390
  327MOL0     H43120   4.656   2.870   6.120 -1.2296  1.6120  2.9373
  327MOL0     H43121   4.654   2.699   6.066 -2.6116  0.0862 -0.3114
  327MOL0     H43122   4.877   2.741   6.098 -0.2708 -1.6217 -0.2655
  327MOL0     H43123   4.850   2.808   6.270  1.5847 -2.1948  0.7751
  327MOL0     H43124   4.788   2.533   6.178  3.9722 -1.9686 -0.7275
  327MOL0     H43125   4.791   2.604   6.353  1.3381 -0.0766  0.5848
  327MOL0     H43126   4.859   2.353   6.256  1.2207  1.6259 -3.2868
  327MOL0     H43127   4.978   2.147   6.289 -0.5722 -0.0947 -0.8176
  327MOL0     H43128   5.254   1.929   6.590  0.1223  0.7043  1.5853
  327MOL0     H43129   5.383   1.723   6.665  3.2125 -1.2658  1.3105
  327MOL0     H43130   5.519   1.553   6.716 -0.6292  1.3687 -2.2947
  327MOL0     H43131   5.593   1.684   6.797  0.2883 -1.7585  0.3588
  327MOL0     H43132   5.736   1.431   6.683  0.5877 -0.5112  0.5146
  327MOL0     H43133   5.661   1.448   6.830  0.1112  0.0187 -1.8571
  327MOL0     H43134   5.814   1.657   6.877 -1.4323  0.6173 -2.1061
  327MOL0     H43135   5.905   1.606   6.747  2.8485 -1.2157  2.6901
  327MOL0     H43136   5.927   1.379   6.855  2.0057  0.1927 -0.0971
  327MOL0     H43137   6.022   1.510   6.933  0.2885  0.6795 -0.4019
  327MOL0     H43138   5.750   1.413   7.020  0.1038  1.6510 -2.0368
  327MOL0     H43139   5.849   1.537   7.104  2.4910 -0.2395  1.0564
  327MOL0     H43140   6.019   1.375   7.155 -1.5550  0.6807  3.0045
  327MOL0     H43141   5.958   1.249   7.041 -0.4174 -2.5805  2.4083
  327MOL0     H43142   5.768   1.202   7.182 -0.4484  1.6868 -3.2853
  327MOL0     H43143   5.922   1.202   7.281  2.2266  3.4583 -0.8373
  327MOL0     H43144   5.713   1.419   7.254  1.8416  0.2379 -3.0219
  327MOL0     H43145   5.872   1.424   7.343  3.6534 -1.4559 -6.0911
  327MOL0     H43146   5.732   1.880   6.488  0.7842 -1.2475  2.1934
  327MOL0     H43147   5.600   2.091   6.425 -0.5253 -0.3899 -1.1543
  327MOL0     H43148   5.339   2.354   6.377 -0.6346  0.4193 -0.1048
  327MOL0     H43149   5.229   2.562   6.327 -0.6318  0.3101 -0.5514
  327MOL0     H43150   3.583   3.111   7.075 -0.0846  0.4495  0.0368
  327MOL0     H43151   3.401   3.173   7.224 -0.9253  0.1084  2.4914
  327MOL0     H43152   3.316   3.297   7.698  0.4231 -0.1614 -0.6032
  327MOL0     H43153   3.137   3.347   7.861 -1.8369 -1.6502  0.8781
  327MOL0     H43154   2.716   3.319   7.695  5.7304 -2.2120 -1.9208
  327MOL0     H43155   2.735   3.497   7.705 -2.9648  1.1376  2.4331
  327MOL0     H43156   2.692   3.496   7.942  0.4625 -0.6212 -0.1303
  327MOL0     H43157   2.551   3.428   7.854 -1.1295 -1.6759  4.6494
  327MOL0     H43158   2.763   3.277   8.013  0.9738 -0.5647 -3.8046
  327MOL0     H43159   2.625   3.199   7.924 -1.2943 -2.9079  5.1326
  327MOL0     H43160   2.602   3.410   8.149  2.1572 -1.7399  1.4573
  327MOL0     H43161   2.467   3.340   8.047 -1.2890  2.5950  3.4520
  327MOL0     H43162   2.586   3.075   8.364  2.5627 -0.7539 -1.8187
  327MOL0     H43163   2.877   3.439   7.536  1.9722  2.7961 -0.4204
  327MOL0     H43164   3.063   3.404   7.373  2.4231 -2.4636 -0.9204
  328MOL0     O43165   0.539   0.523   4.537  0.4486 -0.4456 -0.1977
  328MOL0     C43166   0.448   0.599   4.509 -0.2340  0.4624 -0.0025
  328MOL0     O43167   0.455   0.738   4.511 -0.2152  0.1159 -0.4647
  328MOL0     C43168   0.572   0.810   4.498  0.0434  0.3465  0.0109
  328MOL0     C43169   0.680   0.755   4.434  0.2296  0.4287  0.4075
  328MOL0     C43170   0.797   0.823   4.414 -0.2807 -0.6399 -0.2588
  328MOL0     C43171   0.818   0.949   4.469 -0.2217  0.2913  0.0416
  328MOL0     O43172   0.940   1.010   4.458 -0.2868 -0.3560 -0.3246
  328MOL0     C43173   0.936   1.143   4.393  0.4044 -0.4854 -0.8485
  328MOL0     C43174   1.052   1.170   4.305  0.4008  0.5233 -0.2063
  328MOL0     C43175   1.037   1.303   4.235  0.3353  0.4908 -0.4915
  328MOL0     C43176   1.173   1.326   4.162  0.1597  0.3013  0.0240
  328MOL0     C43177   1.194   1.456   4.087  0.5007  0.2518 -0.3378
  328MOL0     C43178   1.077   1.494   3.994 -0.3472  0.7726 -0.1453
  328MOL0     C43179   1.072   1.433   3.851 -0.0441  0.0419  0.8715
  328MOL0     C43180   1.035   1.286   3.842 -0.2197  0.4092 -0.5152
  328MOL0     N43181   0.895   1.268   3.882 -0.8512  0.4839 -0.7780
  328MOL0     C43182   0.844   1.147   3.899 -0.9119  0.1799 -0.4938
  328MOL0     C43183   0.724   1.159   3.944 -0.1794 -0.5678  0.0768
  328MOL0     C43184   0.641   1.043   3.970 -0.2427  0.3599 -0.0225
  328MOL0     C43185   0.649   0.974   4.104 -0.5818  1.2090  0.5015
  328MOL0     C43186   0.590   0.838   4.108  0.1034 -0.8380 -0.4719
  328MOL0     C43187   0.441   0.845   4.113  0.2383  0.3807  0.0624
  328MOL0     O43188   0.387   0.714   4.136  0.5045 -0.3283 -0.0027
  328MOL0     C43189   0.251   0.695   4.096  0.0427 -0.8890 -0.5993
  328MOL0     C43190   0.206   0.562   4.091 -0.0093  0.9530 -0.8507
  328MOL0     C43191   0.074   0.539   4.054 -0.0300  0.0224 -0.4541
  328MOL0     C43192  -0.018   0.643   4.040  0.4212  0.6320 -0.4135
  328MOL0     C43193  -0.167   0.629   4.031 -0.5185 -0.2889 -0.3478
  328MOL0     O43194  -0.252   0.732   4.007  0.2384  0.0606 -0.6971
  328MOL0     C43195  -0.387   0.723   3.981  0.0437 -0.5779 -0.4449
  328MOL0     C43196  -0.472   0.613   4.011 -0.4823 -0.3679 -0.0224
  328MOL0     C43197  -0.604   0.614   3.960  0.2383 -0.2681 -0.0788
  328MOL0     C43198  -0.644   0.719   3.880 -0.0603  0.2443 -0.2133
  328MOL0     O43199  -0.769   0.705   3.825  0.3949 -0.3837 -0.2164
  328MOL0     C43200  -0.783   0.728   3.683 -0.3796 -0.2179 -0.3650
  328MOL0     C43201  -0.896   0.667   3.612 -0.3541  0.1479 -0.0852
  328MOL0     C43202  -1.030   0.716   3.668 -1.1536  0.1207  0.1615
  328MOL0     C43203  -1.144   0.655   3.590  0.0069 -0.1235 -0.3998
  328MOL0     C43204  -1.265   0.691   3.670  0.3533  0.8370  0.2222
  328MOL0     C43205  -1.393   0.621   3.611 -0.6662 -0.0267  0.4473
  328MOL0     C43206  -1.509   0.633   3.706  0.2711 -0.0025  0.5050
  328MOL0     C43207  -1.631   0.548   3.666  0.1596  0.1097 -0.4502
  328MOL0    Cl43208  -1.586   0.370   3.698 -0.0640 -0.3199  0.1037
  328MOL0     C43209  -0.562   0.828   3.855  0.8778  0.0072  0.0293
  328MOL0     C43210  -0.438   0.835   3.909  0.0080  0.0545  0.0880
  328MOL0     O43211  -0.203   0.510   4.026 -0.2996  0.4499 -0.1780
  328MOL0     C43212   0.030   0.772   4.032  0.1193 -0.4399  0.7426
  328MOL0     C43213   0.160   0.803   4.067  0.4438  0.3778  0.1098
  328MOL0     N43214   0.693   1.291   3.967 -0.3525  0.1069  0.3878
  328MOL0     N43215   0.800   1.356   3.920 -0.6835  0.4873  0.8145
  328MOL0     C43216   0.717   1.007   4.541  0.9452 -0.1507 -0.3617
  328MOL0     C43217   0.594   0.943   4.553  1.4503  0.3723 -0.2961
  328MOL0     C43218   0.327   0.538   4.451  0.5169 -0.0387  0.1845
  328MOL0     C43219   0.301   0.396   4.446  0.0444 -0.0154  0.3890
  328MOL0     C43220   0.177   0.340   4.423 -1.3017  0.1693  0.6159
  328MOL0     C43221   0.069   0.421   4.394 -0.5659 -0.0240  0.6004
  328MOL0     O43222  -0.056   0.362   4.387  0.0005  0.6227  0.5443
  328MOL0     C43223  -0.176   0.436   4.408 -0.7706  1.0037 -0.4243
  328MOL0     C43224  -0.310   0.365   4.398 -0.2981  1.3254  0.2853
  328MOL0     C43225  -0.324   0.215   4.459  0.2419 -0.1376 -0.2487
  328MOL0     C43226  -0.340   0.209   4.607  0.8495 -0.0438  0.9666
  328MOL0     C43227  -0.472   0.258   4.641  0.3539  0.3588  0.0366
  328MOL0     C43228  -0.588   0.289   4.642 -0.5787  0.6129 -1.0945
  328MOL0     C43229   0.091   0.558   4.386  0.0833  0.2305  0.1553
  328MOL0     C43230   0.213   0.614   4.419 -0.2134 -0.0010 -0.2035
  328MOL0     H43231   0.672   0.660   4.382  1.3221  0.8558 -0.6030
  328MOL0     H43232   0.872   0.774   4.352  2.6174  2.3981  0.5481
  328MOL0     H43233   0.906   1.222   4.463 -0.7526 -2.7152  1.3173
  328MOL0     H43234   0.849   1.144   4.327 -1.6445  1.1786  1.6819
  328MOL0     H43235   1.061   1.097   4.224  2.6927  2.5202 -1.8904
  328MOL0     H43236   1.143   1.148   4.362  1.0451 -0.9944 -1.7463
  328MOL0     H43237   1.015   1.383   4.306 -1.0871  0.3717 -0.7605
  328MOL0     H43238   0.951   1.308   4.166  0.3267  0.8779 -0.4568
  328MOL0     H43239   1.257   1.330   4.232  1.4551  2.0483 -1.5411
  328MOL0     H43240   1.188   1.238   4.100 -0.7276 -0.6310  1.0898
  328MOL0     H43241   1.287   1.449   4.030  1.2099 -0.6177  0.8943
  328MOL0     H43242   1.206   1.539   4.158 -1.7272  1.8905 -1.7119
  328MOL0     H43243   1.093   1.600   3.969 -1.1394  0.6882 -1.0650
  328MOL0     H43244   0.979   1.480   4.041  1.0238  0.1926  2.7806
  328MOL0     H43245   1.002   1.489   3.787 -0.8059 -0.1163  1.5529
  328MOL0     H43246   1.168   1.447   3.801 -1.7318 -3.4694 -4.1983
  328MOL0     H43247   1.109   1.229   3.900  0.0179  0.3561 -0.8661
  328MOL0     H43248   1.045   1.251   3.739  0.5712  1.9765 -0.9949
  328MOL0     H43249   0.893   1.050   3.892  0.8046  0.6413  3.0462
  328MOL0     H43250   0.663   0.969   3.894 -1.8302 -2.9965  2.5325
  328MOL0     H43251   0.538   1.077   3.955  0.1565  2.6193  1.6995
  328MOL0     H43252   0.606   1.037   4.183 -0.4510  1.6934  0.1859
  328MOL0     H43253   0.755   0.970   4.131 -0.2347  1.2740 -0.7960
  328MOL0     H43254   0.625   0.792   4.015  1.4137  1.6122 -1.2621
  328MOL0     H43255   0.620   0.780   4.196 -0.0772 -0.2760 -0.0364
  328MOL0     H43256   0.397   0.890   4.024 -2.0910 -0.6651  0.6190
  328MOL0     H43257   0.416   0.921   4.188  0.3545  1.2412 -0.7531
  328MOL0     H43258   0.274   0.486   4.129  0.9802  2.1807 -0.0655
  328MOL0     H43259   0.052   0.433   4.059 -0.4293  0.1352  0.2610
  328MOL0     H43260  -0.437   0.520   4.053 -1.3954 -0.1792  1.2342
  328MOL0     H43261  -0.678   0.535   3.972 -1.9498  1.3720 -1.9821
  328MOL0     H43262  -0.693   0.682   3.642  1.0898  2.9473 -0.9672
  328MOL0     H43263  -0.794   0.836   3.671  1.6598  0.1024  0.2384
  328MOL0     H43264  -0.875   0.560   3.614  2.4452  0.5782  2.9350
  328MOL0     H43265  -0.879   0.706   3.511  1.5279 -3.3707 -1.2837
  328MOL0     H43266  -1.023   0.824   3.652  0.1678 -0.2882 -2.7682
  328MOL0     H43267  -1.022   0.687   3.773  2.7436  1.0027  0.2685
  328MOL0     H43268  -1.145   0.693   3.487  1.4674  1.0723  0.0042
  328MOL0     H43269  -1.131   0.546   3.588  2.7021  0.0231 -4.5780
  328MOL0     H43270  -1.267   0.801   3.668  1.3909  0.8696  0.4537
  328MOL0     H43271  -1.270   0.656   3.774 -2.2240  0.2065 -0.0323
  328MOL0     H43272  -1.364   0.519   3.584 -0.6771  0.3855 -1.2202
  328MOL0     H43273  -1.414   0.666   3.514 -0.8528 -4.3792 -1.7810
  328MOL0     H43274  -1.481   0.594   3.805 -1.9535 -1.6308  0.5800
  328MOL0     H43275  -1.531   0.740   3.712 -0.5620 -0.0622 -1.0042
  328MOL0     H43276  -1.660   0.571   3.563  0.9902  1.9925 -0.3101
  328MOL0     H43277  -1.718   0.560   3.732 -0.1737  0.9278 -1.0301
  328MOL0     H43278  -0.607   0.906   3.793 -3.1277 -3.3641 -1.7888
  328MOL0     H43279  -0.368   0.916   3.896 -1.0453  0.6644 -2.2804
  328MOL0     H43280  -0.034   0.856   4.006 -1.1020 -1.7548 -0.7816
  328MOL0     H43281   0.191   0.907   4.077 -1.1542  0.8692  0.1784
  328MOL0     H43282   0.727   1.101   4.594 -1.7077  0.3253 -0.5389
  328MOL0     H43283   0.510   0.985   4.607  0.9607 -3.1343  2.0674
  328MOL0     H43284   0.382   0.331   4.477  2.6366  2.8206  0.0573
  328MOL0     H43285   0.173   0.234   4.445 -2.0812  0.5937  2.8187
  328MOL0     H43286  -0.176   0.532   4.356 -0.7979  1.1281 -0.1986
  328MOL0     H43287  -0.169   0.469   4.512 -0.1656 -1.3142  0.3375
  328MOL0     H43288  -0.384   0.435   4.436 -0.1978  1.9622 -0.6621
  328MOL0     H43289  -0.335   0.339   4.294 -0.5101 -2.5434  1.1410
  328MOL0     H43290  -0.234   0.156   4.442 -0.3899 -1.2273  0.0927
  328MOL0     H43291  -0.394   0.152   4.403  0.2876 -2.4615  2.1373
  328MOL0     H43292  -0.329   0.103   4.629  1.3647  0.0136  0.9960
  328MOL0     H43293  -0.261   0.262   4.660 -1.1235  2.8743  1.2328
  328MOL0     H43294  -0.694   0.299   4.636 -1.1409 -1.4535  2.2605
  328MOL0     H43295   0.018   0.636   4.367  1.8122  1.5244 -1.5470
  328MOL0     H43296   0.218   0.722   4.422 -1.4452  0.1104 -1.4620
  329MOL0     O43297   0.416   9.916   2.328 -0.9890 -0.4287  0.4335
  329MOL0     C43298   0.416   9.822   2.408  0.4628  0.1639  0.2592
  329MOL0     O43299   0.325   9.720   2.414  0.5197  0.0966 -0.6427
  329MOL0     C43300   0.212   9.706   2.341  0.2529  0.3432  0.1020
  329MOL0     C43301   0.156   9.580   2.371  0.2992 -0.1058 -0.2481
  329MOL0     C43302   0.045   9.545   2.298  0.0020  0.6004 -0.1946
  329MOL0     C43303  -0.015   9.633   2.204 -0.0752 -0.3343  0.2303
  329MOL0     O43304  -0.131   9.588   2.151  0.4240 -0.3077  0.2091
  329MOL0     C43305  -0.227   9.683   2.110 -0.2493 -0.8080 -0.0455
  329MOL0     C43306  -0.361   9.615   2.093 -0.3669  0.1021 -0.0561
  329MOL0     C43307  -0.427   9.578   2.231  0.0773  0.9289  0.0112
  329MOL0     C43308  -0.565   9.517   2.212  0.4630  0.1704  0.1913
  329MOL0     C43309  -0.617   9.424   2.316 -1.1555 -0.1966  0.1470
  329MOL0     C43310  -0.768   9.396   2.303  0.6837  0.0624 -1.1902
  329MOL0     C43311  -0.816   9.322   2.428  0.0114  0.3499 -0.1971
  329MOL0     C43312  -0.956   9.294   2.404  0.3665  0.6196  0.1899
  329MOL0     N43313  -1.018   9.220   2.510 -0.5668 -0.1374  0.5311
  329MOL0     C43314  -1.124   9.265   2.584  0.3315  0.1235 -0.8654
  329MOL0     C43315  -1.151   9.168   2.682 -0.0271 -0.3177  0.1343
  329MOL0     C43316  -1.272   9.157   2.779 -0.1763 -0.0706 -0.0155
  329MOL0     C43317  -1.403   9.202   2.711 -0.3759  0.6084  0.0040
  329MOL0     C43318  -1.522   9.142   2.784  0.4349  0.0241  0.5929
  329MOL0     C43319  -1.648   9.209   2.736 -0.2636 -0.6535 -0.8199
  329MOL0     O43320  -1.759   9.125   2.780  0.5402 -1.0289  0.2671
  329MOL0     C43321  -1.890   9.186   2.774 -0.7077  0.0488 -0.0658
  329MOL0     C43322  -1.932   9.310   2.718 -0.1555  0.4287 -0.1793
  329MOL0     C43323  -2.070   9.347   2.721 -0.4604  0.4694 -0.2517
  329MOL0     C43324  -2.163   9.261   2.780 -0.4559  0.5726 -0.5179
  329MOL0     C43325  -2.305   9.301   2.799 -1.0171 -0.2672 -0.1420
  329MOL0     O43326  -2.383   9.210   2.859  0.5445 -0.0103 -0.4589
  329MOL0     C43327  -2.517   9.238   2.870  0.3119 -0.4034 -1.2408
  329MOL0     C43328  -2.573   9.215   2.999 -0.1142  0.6140  0.1981
  329MOL0     C43329  -2.706   9.249   3.020  0.1578  0.0020  0.9410
  329MOL0     C43330  -2.785   9.302   2.919  0.4135  0.6703  0.2402
  329MOL0     O43331  -2.918   9.324   2.943 -0.7553  0.0450 -0.3679
  329MOL0     C43332  -2.981   9.309   3.071  0.1601  0.2618 -0.0065
  329MOL0     C43333  -3.131   9.330   3.058  0.7866  0.2340  0.4591
  329MOL0     C43334  -3.213   9.273   3.178 -0.2639 -0.1621  0.5851
  329MOL0     C43335  -3.362   9.329   3.180  0.0749  1.2095 -0.3162
  329MOL0     C43336  -3.367   9.480   3.183  0.2441  0.0497  0.4466
  329MOL0     C43337  -3.496   9.521   3.235  0.3877 -0.2815  0.3499
  329MOL0     C43338  -3.615   9.489   3.154  0.6974 -0.1727  0.0340
  329MOL0     C43339  -3.725   9.579   3.178  1.0809 -0.1748  0.0415
  329MOL0    Cl43340  -3.853   9.500   3.090 -0.5073 -0.2282 -0.2258
  329MOL0     C43341  -2.735   9.320   2.797 -0.4312 -0.5798 -0.1941
  329MOL0     C43342  -2.603   9.284   2.767  0.1121  0.4750 -0.3929
  329MOL0     O43343  -2.340   9.408   2.751  0.5611 -0.1410  0.2810
  329MOL0     C43344  -2.118   9.138   2.833  0.1037 -0.2062  0.3674
  329MOL0     C43345  -1.983   9.104   2.830 -0.2524 -0.5327  0.1049
  329MOL0     N43346  -1.076   9.059   2.643 -0.1983 -0.3187 -0.5584
  329MOL0     N43347  -0.994   9.086   2.541 -0.4012 -0.5391  0.0821
  329MOL0     C43348   0.042   9.762   2.180  0.2462  0.1789 -0.6237
  329MOL0     C43349   0.151   9.798   2.253  0.1492 -0.2761 -0.1144
  329MOL0     C43350   0.517   9.822   2.512  0.9148  0.7328 -0.5706
  329MOL0     C43351   0.625   9.905   2.500  0.3005 -0.2778  0.5653
  329MOL0     C43352   0.722   9.917   2.599  0.6703 -1.1105 -0.9795
  329MOL0     C43353   0.712   9.826   2.711 -0.3053 -0.2490 -0.0223
  329MOL0     O43354   0.814   9.850   2.799  0.1643  0.2533  0.1820
  329MOL0     C43355   0.852   9.740   2.891 -0.7174  0.2554  0.3851
  329MOL0     C43356   0.995   9.763   2.924 -0.5758 -0.7354 -0.2112
  329MOL0     C43357   1.097   9.763   2.808  0.2251 -0.5913 -0.7657
  329MOL0     C43358   1.121   9.898   2.744 -0.1981  0.3658 -0.0387
  329MOL0     C43359   1.198   9.978   2.842 -0.6199  0.4094 -0.1615
  329MOL0     C43360   1.280  10.026   2.912 -0.6042 -0.7525  1.0698
  329MOL0     C43361   0.607   9.736   2.715  0.0324 -0.2194 -0.6867
  329MOL0     C43362   0.504   9.741   2.624 -0.0675 -0.0710 -0.7531
  329MOL0     H43363   0.201   9.504   2.435 -0.8933 -0.9455 -0.3662
  329MOL0     H43364  -0.002   9.448   2.297 -0.4330  0.8045 -1.1256
  329MOL0     H43365  -0.187   9.727   2.018 -0.8056  0.5860  0.3534
  329MOL0     H43366  -0.245   9.772   2.172  0.0040  2.4290 -4.1722
  329MOL0     H43367  -0.348   9.533   2.022  2.6820  1.2701 -0.9871
  329MOL0     H43368  -0.442   9.675   2.052 -0.9144  0.4330  1.4397
  329MOL0     H43369  -0.439   9.663   2.299 -0.5682 -0.9968  2.4244
  329MOL0     H43370  -0.363   9.505   2.281  2.2412  2.2220 -0.7387
  329MOL0     H43371  -0.633   9.603   2.205  0.4500  0.0994 -0.7308
  329MOL0     H43372  -0.562   9.460   2.119 -0.2700 -0.1191  0.3370
  329MOL0     H43373  -0.595   9.458   2.418  1.1526  1.4921 -0.8065
  329MOL0     H43374  -0.563   9.329   2.317  1.4700  1.1937  1.6525
  329MOL0     H43375  -0.792   9.336   2.215  1.3855 -0.1996 -1.2104
  329MOL0     H43376  -0.827   9.484   2.278 -0.6549 -0.8923 -1.4660
  329MOL0     H43377  -0.761   9.229   2.439  1.1689  1.0580  0.1919
  329MOL0     H43378  -0.797   9.388   2.513 -1.6933  0.0120  0.4926
  329MOL0     H43379  -0.970   9.231   2.316  3.8269 -0.8737  0.5626
  329MOL0     H43380  -1.021   9.382   2.394 -0.3932 -0.0746 -1.3843
  329MOL0     H43381  -1.178   9.359   2.576  1.1120  0.7130  0.4195
  329MOL0     H43382  -1.262   9.222   2.866  0.2752  1.8893 -1.4623
  329MOL0     H43383  -1.273   9.051   2.808  0.0461 -0.5494 -1.6301
  329MOL0     H43384  -1.400   9.150   2.615 -1.2442 -2.4545  1.4838
  329MOL0     H43385  -1.403   9.311   2.706  1.6977  0.5777 -3.2894
  329MOL0     H43386  -1.533   9.037   2.755 -0.7918  0.0333  0.9629
  329MOL0     H43387  -1.514   9.139   2.893  0.5478 -0.2609  0.5758
  329MOL0     H43388  -1.642   9.208   2.627  2.6136 -1.3791 -0.7500
  329MOL0     H43389  -1.647   9.311   2.774  1.2786 -0.9534  0.0692
  329MOL0     H43390  -1.854   9.378   2.681  2.1436 -2.3598 -0.8165
  329MOL0     H43391  -2.113   9.442   2.694 -4.4335  0.0093  3.4366
  329MOL0     H43392  -2.517   9.183   3.087  0.8302 -0.2221 -0.6697
  329MOL0     H43393  -2.742   9.220   3.118 -0.9378  0.2719  0.6309
  329MOL0     H43394  -2.934   9.362   3.155 -1.0609 -1.1471  1.6621
  329MOL0     H43395  -2.976   9.202   3.092 -2.0120 -0.2326 -1.6303
  329MOL0     H43396  -3.178   9.278   2.975 -1.0372 -1.2262  2.2890
  329MOL0     H43397  -3.146   9.437   3.039 -0.7788  0.0891  0.7281
  329MOL0     H43398  -3.165   9.291   3.275  0.4315 -1.6957  0.5550
  329MOL0     H43399  -3.214   9.166   3.160 -0.2855  0.3353 -3.1881
  329MOL0     H43400  -3.416   9.304   3.088 -0.0745  0.6982 -0.0920
  329MOL0     H43401  -3.423   9.281   3.258 -2.2108  0.3062 -2.4864
  329MOL0     H43402  -3.351   9.507   3.079  1.1800 -0.0171  0.5665
  329MOL0     H43403  -3.289   9.522   3.247 -0.3914  0.6486  0.8329
  329MOL0     H43404  -3.498   9.629   3.252 -2.2345 -0.3467  0.8609
  329MOL0     H43405  -3.510   9.489   3.339  0.2975  1.8176  1.0331
  329MOL0     H43406  -3.594   9.498   3.047 -1.9187  0.8658 -0.4554
  329MOL0     H43407  -3.643   9.386   3.179  0.6496  0.7385  4.5414
  329MOL0     H43408  -3.707   9.684   3.150 -1.7901  0.6504  0.9524
  329MOL0     H43409  -3.759   9.581   3.281 -0.7268 -3.8295 -0.3521
  329MOL0     H43410  -2.802   9.345   2.716  1.0856  0.9470 -1.0406
  329MOL0     H43411  -2.571   9.284   2.663 -0.2005  0.9306 -0.4928
  329MOL0     H43412  -2.181   9.057   2.870 -0.0505 -1.1184 -1.7326
  329MOL0     H43413  -1.949   9.019   2.889  0.4168 -1.1455 -1.1349
  329MOL0     H43414  -0.002   9.834   2.112 -3.0062 -1.6050 -0.6056
  329MOL0     H43415   0.204   9.891   2.234  1.0793 -0.9989 -1.1544
  329MOL0     H43416   0.636   9.969   2.413 -2.0610 -3.3964 -2.3038
  329MOL0     H43417   0.804   9.988   2.596 -1.6963  1.7844 -1.6964
  329MOL0     H43418   0.853   9.643   2.839 -0.8881 -1.0658  2.6955
  329MOL0     H43419   0.781   9.728   2.973 -1.7313 -1.3242 -0.6517
  329MOL0     H43420   1.006   9.858   2.977  0.8819 -0.9290 -0.1010
  329MOL0     H43421   1.022   9.685   2.996 -2.2490 -0.2104  1.0290
  329MOL0     H43422   1.062   9.700   2.726 -2.1976  0.2183 -0.4275
  329MOL0     H43423   1.198   9.734   2.841 -0.0147  0.0589  0.6150
  329MOL0     H43424   1.180   9.878   2.654 -0.9222 -1.6229 -0.1176
  329MOL0     H43425   1.026   9.947   2.722 -0.5418 -0.1996  0.1587
  329MOL0     H43426   1.352  10.090   2.961 -0.4014 -0.4835  0.4413
  329MOL0     H43427   0.589   9.676   2.804 -0.3128 -1.2082 -1.4115
  329MOL0     H43428   0.414   9.682   2.640 -0.3221  0.6748  0.7072
  330MOL0     O43429   0.383   2.580   9.511 -0.4239 -0.0722  0.1062
  330MOL0     C43430   0.494   2.585   9.572  0.3536 -0.6777  0.1627
  330MOL0     O43431   0.522   2.667   9.678 -0.5912 -0.0366 -0.3600
  330MOL0     C43432   0.433   2.713   9.772  0.4090  0.8940 -0.1174
  330MOL0     C43433   0.476   2.800   9.867 -0.2614  0.4552 -0.9920
  330MOL0     C43434   0.393   2.846   9.967  1.0495 -0.4359 -0.0019
  330MOL0     C43435   0.260   2.796   9.971 -0.0322 -0.0536 -0.5555
  330MOL0     O43436   0.170   2.844  10.063 -0.2109  0.3386 -0.7334
  330MOL0     C43437   0.204   2.860  10.207 -0.0059 -0.2905 -0.0987
  330MOL0     C43438   0.125   2.973  10.266  0.2500 -1.1230  0.2001
  330MOL0     C43439  -0.028   2.934  10.266 -0.2330  0.0482  0.4235
  330MOL0     C43440  -0.116   3.060  10.301 -0.1658  0.0258  0.3575
  330MOL0     C43441  -0.266   3.017  10.296 -0.1397  0.4931 -0.2908
  330MOL0     C43442  -0.342   3.146  10.272  0.5181 -0.5939  1.4344
  330MOL0     C43443  -0.498   3.122  10.281 -0.7351 -0.4583 -0.0348
  330MOL0     C43444  -0.551   3.124  10.425 -0.7569 -0.6505 -0.3166
  330MOL0     N43445  -0.697   3.127  10.410  0.2754  0.0198  0.6965
  330MOL0     C43446  -0.772   3.232  10.353  0.2765 -0.0118 -0.5976
  330MOL0     C43447  -0.901   3.190  10.376 -0.3854 -0.6245 -0.0740
  330MOL0     C43448  -1.022   3.264  10.330  0.1167  0.2456 -0.2046
  330MOL0     C43449  -1.047   3.381  10.424  0.3260 -0.0949  0.1905
  330MOL0     C43450  -1.174   3.467  10.381 -1.2397 -0.2804  0.7846
  330MOL0     C43451  -1.264   3.499  10.501  0.5849  0.4730  0.6501
  330MOL0     O43452  -1.312   3.379  10.557  0.8055  0.0440  0.1802
  330MOL0     C43453  -1.433   3.392  10.626  0.2351  0.1663 -0.4404
  330MOL0     C43454  -1.485   3.511  10.688  0.4001 -0.6492 -0.3691
  330MOL0     C43455  -1.615   3.522  10.741  0.1380  0.3855  0.5791
  330MOL0     C43456  -1.693   3.406  10.759 -0.0290  0.0569  0.7205
  330MOL0     C43457  -1.834   3.416  10.811  0.9943 -0.0275 -0.2610
  330MOL0     O43458  -1.866   3.542  10.870 -0.0826 -0.4464  0.3566
  330MOL0     C43459  -1.981   3.570  10.946  0.5779  0.0872 -0.1545
  330MOL0     C43460  -1.979   3.688  11.026  0.9403 -0.7204  0.9007
  330MOL0     C43461  -2.095   3.723  11.097  0.1933 -0.3950 -0.0919
  330MOL0     C43462  -2.213   3.650  11.098  0.1017  0.6275  0.0316
  330MOL0     O43463  -2.314   3.700  11.166  0.9509 -0.3580  0.0719
  330MOL0     C43464  -2.418   3.602  11.200  0.4608  0.2251  0.9661
  330MOL0     C43465  -2.530   3.600  11.090 -0.0238 -0.1941  0.1059
  330MOL0     C43466  -2.657   3.516  11.125  0.9525  0.0056 -0.0608
  330MOL0     C43467  -2.782   3.544  11.040  0.2800  0.1060 -0.1244
  330MOL0     C43468  -2.914   3.478  11.095  0.3284 -0.6129  0.5685
  330MOL0     C43469  -3.029   3.494  10.988  0.0909 -0.4507  0.0918
  330MOL0     C43470  -3.065   3.643  10.965 -0.9526  0.2325  0.5102
  330MOL0     C43471  -3.203   3.649  10.900 -1.0953  0.6753  0.1261
  330MOL0    Cl43472  -3.339   3.607  11.011  0.6119  0.2639 -0.0103
  330MOL0     C43473  -2.217   3.533  11.019 -0.3312 -0.6339  0.4371
  330MOL0     C43474  -2.101   3.499  10.942  0.1055  0.3810  0.2561
  330MOL0     O43475  -1.906   3.310  10.805 -0.5551  0.1640  0.3567
  330MOL0     C43476  -1.644   3.284  10.705 -1.1374  0.8982 -0.3389
  330MOL0     C43477  -1.510   3.281  10.640 -0.5450  0.8838 -0.8909
  330MOL0     N43478  -0.898   3.066  10.450 -0.2403  0.2784  0.5082
  330MOL0     N43479  -0.780   3.039  10.468  0.0453  0.8787  0.7177
  330MOL0     C43480   0.215   2.700   9.883  0.1558  0.1589 -0.7972
  330MOL0     C43481   0.301   2.671   9.780 -0.0433  0.3569  0.3573
  330MOL0     C43482   0.605   2.515   9.506 -0.1672 -0.2863 -0.5037
  330MOL0     C43483   0.703   2.459   9.582  0.4895 -0.2302 -0.5323
  330MOL0     C43484   0.823   2.406   9.523 -0.3468 -0.2335  0.0826
  330MOL0     C43485   0.836   2.396   9.381 -0.2912 -0.9080 -0.3285
  330MOL0     O43486   0.943   2.337   9.318  0.0645 -0.0399 -0.2908
  330MOL0     C43487   1.073   2.380   9.360  0.2173 -0.6654  0.3499
  330MOL0     C43488   1.168   2.349   9.245  0.8146 -0.3214  0.5069
  330MOL0     C43489   1.298   2.422   9.260  0.4553  0.4530 -0.3501
  330MOL0     C43490   1.381   2.412   9.137 -0.2333  0.0703 -0.8060
  330MOL0     C43491   1.439   2.273   9.118  0.2923 -0.5466  0.3241
  330MOL0     C43492   1.489   2.173   9.079  0.2318 -0.0204 -0.0431
  330MOL0     C43493   0.724   2.450   9.303 -0.2270  0.7331 -0.3013
  330MOL0     C43494   0.614   2.508   9.368  0.2704 -0.3106  0.9917
  330MOL0     H43495   0.576   2.840   9.876 -0.8897  2.3016 -1.8254
  330MOL0     H43496   0.420   2.934  10.024 -0.1664  1.4063 -2.1094
  330MOL0     H43497   0.312   2.876  10.219  0.1712 -0.6877 -1.0981
  330MOL0     H43498   0.172   2.771  10.261 -1.1896  0.7016  0.8737
  330MOL0     H43499   0.146   3.058  10.199 -3.9678  0.4205  0.5155
  330MOL0     H43500   0.156   2.986  10.370  3.8707 -3.1487 -0.4752
  330MOL0     H43501  -0.052   2.864  10.346 -0.4004 -0.4815 -0.0853
  330MOL0     H43502  -0.066   2.902  10.169 -0.9301 -1.9579  1.2972
  330MOL0     H43503  -0.093   3.095  10.403 -1.2345  3.0125 -0.3214
  330MOL0     H43504  -0.102   3.143  10.231 -0.4969  0.8265  1.2188
  330MOL0     H43505  -0.290   2.978  10.395  1.0448 -3.1331 -1.2680
  330MOL0     H43506  -0.285   2.936  10.225 -1.3326  1.1425 -0.7395
  330MOL0     H43507  -0.317   3.185  10.173  0.2263  1.6863  2.1905
  330MOL0     H43508  -0.320   3.216  10.353  2.3728 -0.1935  0.6333
  330MOL0     H43509  -0.546   3.198  10.220 -1.4430 -2.2349 -1.8229
  330MOL0     H43510  -0.525   3.027  10.234 -2.0173 -0.1434  0.0259
  330MOL0     H43511  -0.510   3.212  10.477  0.2058 -1.2359 -0.0481
  330MOL0     H43512  -0.514   3.036  10.479 -0.8019  0.0265  0.8502
  330MOL0     H43513  -0.746   3.328  10.310 -0.9102  0.2107 -0.8479
  330MOL0     H43514  -1.112   3.202  10.337  0.2845  0.0065 -0.1886
  330MOL0     H43515  -1.006   3.304  10.230  0.2300 -1.0276 -0.7010
  330MOL0     H43516  -0.961   3.447  10.420  1.3160 -1.3982 -1.7326
  330MOL0     H43517  -1.057   3.326  10.518  0.8334 -0.2767  0.1397
  330MOL0     H43518  -1.139   3.562  10.339 -0.1173 -0.5670  1.0540
  330MOL0     H43519  -1.234   3.412  10.308  0.2012  1.8209 -2.1618
  330MOL0     H43520  -1.347   3.559  10.462 -0.0620  0.8932  2.5621
  330MOL0     H43521  -1.213   3.563  10.573 -2.4091  4.4342 -0.3812
  330MOL0     H43522  -1.435   3.607  10.679 -0.1508 -0.4341 -1.1796
  330MOL0     H43523  -1.663   3.612  10.778 -4.5157 -1.8678  0.7848
  330MOL0     H43524  -1.894   3.756  11.020  1.7704 -1.8550 -2.0637
  330MOL0     H43525  -2.080   3.812  11.157  2.8914 -0.3485 -0.7168
  330MOL0     H43526  -2.461   3.636  11.296  0.3741  0.3759  0.8753
  330MOL0     H43527  -2.381   3.502  11.225 -1.6187 -0.3083  2.1922
  330MOL0     H43528  -2.489   3.568  10.994 -1.0854  0.0713 -0.4559
  330MOL0     H43529  -2.563   3.701  11.062 -1.5019 -1.3624 -2.7914
  330MOL0     H43530  -2.682   3.555  11.224  1.3456 -0.0853  0.0755
  330MOL0     H43531  -2.635   3.409  11.132  1.3573  0.1624  1.3337
  330MOL0     H43532  -2.786   3.652  11.019  1.1440  0.0015 -0.9167
  330MOL0     H43533  -2.769   3.512  10.936  2.9611 -1.7032  0.6570
  330MOL0     H43534  -2.952   3.528  11.185 -4.1039 -3.1661  0.4048
  330MOL0     H43535  -2.906   3.370  11.108 -1.3466 -0.9306 -0.7286
  330MOL0     H43536  -3.124   3.451  11.023 -1.4039  2.7561  0.2883
  330MOL0     H43537  -2.991   3.453  10.894  2.4553  1.4327  0.1501
  330MOL0     H43538  -3.064   3.692  11.062 -1.1884 -0.7312  1.0169
  330MOL0     H43539  -2.999   3.680  10.886 -1.9883 -2.2104 -1.7019
  330MOL0     H43540  -3.213   3.601  10.802 -3.3917 -0.0831  0.6555
  330MOL0     H43541  -3.215   3.756  10.883 -0.8659  0.8380  0.9453
  330MOL0     H43542  -2.307   3.473  11.014 -1.1999  0.6049  0.9186
  330MOL0     H43543  -2.119   3.413  10.877  1.8997 -1.9169  2.5895
  330MOL0     H43544  -1.704   3.194  10.712 -0.7126  0.5227 -1.4412
  330MOL0     H43545  -1.472   3.191  10.594 -0.7906 -0.1026  0.7392
  330MOL0     H43546   0.114   2.665   9.897  0.8513 -1.2653  1.2152
  330MOL0     H43547   0.256   2.606   9.707  0.4010 -0.9210  1.1888
  330MOL0     H43548   0.692   2.457   9.690 -3.9380 -1.7291 -0.8265
  330MOL0     H43549   0.901   2.361   9.584  2.5287  2.2858 -1.4746
  330MOL0     H43550   1.116   2.328   9.446  0.6240 -1.6411 -0.4221
  330MOL0     H43551   1.075   2.488   9.375 -0.9528 -0.5565 -0.1332
  330MOL0     H43552   1.176   2.240   9.241  0.2836 -0.3508  0.0439
  330MOL0     H43553   1.127   2.376   9.147 -0.3387  0.1631  1.1096
  330MOL0     H43554   1.351   2.381   9.347 -1.4397  1.1714  1.2328
  330MOL0     H43555   1.289   2.530   9.277  2.6501  0.9707 -2.0468
  330MOL0     H43556   1.324   2.432   9.045 -0.1138  1.5946 -0.5807
  330MOL0     H43557   1.462   2.485   9.140 -0.9118  0.8233  0.9509
  330MOL0     H43558   1.522   2.082   9.033  0.7720  0.8403 -1.4066
  330MOL0     H43559   0.730   2.452   9.194  2.8237 -0.6121 -0.2547
  330MOL0     H43560   0.535   2.554   9.309  1.7674  0.0559 -0.8113
  331MOL0     O43561  10.945   9.834   3.162  0.5729 -0.1184  0.1999
  331MOL0     C43562  10.987   9.928   3.089 -0.5892  0.2970 -1.2429
  331MOL0     O43563  10.907  10.014   3.008 -0.1941  0.1993 -0.0253
  331MOL0     C43564  10.766   9.998   3.001 -0.7139  0.3384 -0.3812
  331MOL0     C43565  10.693   9.881   3.014 -0.4911  0.5319 -0.2677
  331MOL0     C43566  10.550   9.874   3.022  0.2542  0.0159  0.1999
  331MOL0     C43567  10.479  10.000   3.015  0.4697  0.3413  0.1672
  331MOL0     O43568  10.342  10.016   3.015 -0.3953 -0.3101 -1.0457
  331MOL0     C43569  10.254   9.905   3.027 -0.0021  0.3004 -0.9741
  331MOL0     C43570  10.111   9.955   3.074 -0.0063  0.1331  0.2795
  331MOL0     C43571   9.996   9.848   3.071 -0.1588 -0.7443  0.3044
  331MOL0     C43572   9.861   9.920   3.072 -0.5449  0.4715  0.4230
  331MOL0     C43573   9.751   9.824   3.026 -0.2886 -0.4574  0.3245
  331MOL0     C43574   9.616   9.886   3.077 -0.2648 -0.5072 -0.9058
  331MOL0     C43575   9.493   9.826   3.013 -0.4888 -0.0206 -0.8468
  331MOL0     C43576   9.505   9.813   2.861  0.5040  0.0648 -0.1622
  331MOL0     N43577   9.372   9.764   2.813  0.2173  0.3896  0.4130
  331MOL0     C43578   9.253   9.843   2.822  0.7418  0.8084 -0.0129
  331MOL0     C43579   9.175   9.792   2.727  0.2323 -0.4044  1.3114
  331MOL0     C43580   9.047   9.854   2.684  0.2982  0.1493  0.3589
  331MOL0     C43581   8.924   9.792   2.739 -0.0237  0.0494  0.7970
  331MOL0     C43582   8.787   9.826   2.676  0.0766 -0.0605 -1.0206
  331MOL0     C43583   8.674   9.754   2.741  0.0615 -0.2163 -0.2677
  331MOL0     O43584   8.567   9.791   2.652 -0.4264  0.6518 -0.3777
  331MOL0     C43585   8.444   9.738   2.669  0.0895  0.0908 -0.1156
  331MOL0     C43586   8.362   9.754   2.562 -0.2200  0.7250 -0.2923
  331MOL0     C43587   8.243   9.691   2.559 -0.4591 -0.2554 -0.6762
  331MOL0     C43588   8.197   9.602   2.662  0.4868 -0.1573  0.3463
  331MOL0     C43589   8.068   9.534   2.653  0.4087 -0.1819 -0.2402
  331MOL0     O43590   8.045   9.411   2.724 -0.5165  0.1468  0.9919
  331MOL0     C43591   7.918   9.364   2.712 -0.3873 -0.5138 -0.3729
  331MOL0     C43592   7.876   9.253   2.632 -0.5609 -0.0289 -0.1759
  331MOL0     C43593   7.745   9.209   2.630 -0.1137 -0.1615 -0.2495
  331MOL0     C43594   7.653   9.278   2.694  0.0937  0.8701 -0.5442
  331MOL0     O43595   7.526   9.220   2.692  0.5854  0.2142 -0.1417
  331MOL0     C43596   7.412   9.300   2.725  0.1805 -0.2258  0.2365
  331MOL0     C43597   7.284   9.238   2.677  0.8929  0.5136  0.4594
  331MOL0     C43598   7.170   9.333   2.705 -0.2060 -0.1831 -0.1346
  331MOL0     C43599   7.040   9.275   2.644 -0.4479  0.5696 -0.0266
  331MOL0     C43600   6.921   9.375   2.651 -0.3385  0.8260  0.0429
  331MOL0     C43601   6.856   9.374   2.787  0.6524  0.2755 -0.2842
  331MOL0     C43602   6.718   9.437   2.770 -0.0682  0.2674 -0.4026
  331MOL0     C43603   6.643   9.483   2.904 -0.2722 -1.1314 -0.0665
  331MOL0    Cl43604   6.717   9.629   2.970 -0.2553  0.1106 -0.3665
  331MOL0     C43605   7.681   9.383   2.777 -0.3939 -0.0995 -0.6311
  331MOL0     C43606   7.811   9.434   2.772 -0.6065 -0.4323  0.7286
  331MOL0     O43607   7.976   9.593   2.589 -0.4085 -0.6298  0.2857
  331MOL0     C43608   8.281   9.600   2.774 -0.9943 -0.6197 -0.7566
  331MOL0     C43609   8.405   9.659   2.778 -0.1039  0.0865  0.1683
  331MOL0     N43610   9.235   9.689   2.660 -0.3549 -0.0363  0.0058
  331MOL0     N43611   9.351   9.681   2.711 -0.1362  0.2475  0.1305
  331MOL0     C43612  10.557  10.118   3.000 -0.1556 -0.2743  0.3421
  331MOL0     C43613  10.694  10.116   2.988 -0.9029 -0.2785 -0.3330
  331MOL0     C43614  11.136   9.951   3.100  0.8281 -0.0284  0.7793
  331MOL0     C43615  11.213   9.882   3.196 -0.1827 -0.1101 -0.2472
  331MOL0     C43616  11.355   9.908   3.189  0.0524 -0.2669  0.1036
  331MOL0     C43617  11.411   9.987   3.087 -0.7192  0.4812  0.3738
  331MOL0     O43618  11.543  10.012   3.092  0.0404 -0.6284 -0.5261
  331MOL0     C43619  11.618  10.084   2.985 -0.4298 -0.1141  0.0953
  331MOL0     C43620  11.770  10.088   3.015  0.1477 -0.8887 -0.3205
  331MOL0     C43621  11.856  10.127   2.897  1.0026  0.0990 -0.4443
  331MOL0     C43622  11.996  10.170   2.945  0.0848 -0.0072  0.2307
  331MOL0     C43623  12.081  10.200   2.840  0.5857 -0.6907  0.1522
  331MOL0     C43624  12.169  10.236   2.769 -0.1349  0.1708  0.1107
  331MOL0     C43625  11.330  10.048   2.989 -0.4582 -0.1345 -0.4696
  331MOL0     C43626  11.193  10.025   3.001 -0.0523 -0.3213  0.4141
  331MOL0     H43627  10.736   9.781   3.013  0.6805  1.0235 -1.9443
  331MOL0     H43628  10.499   9.779   3.020  1.8349 -0.8744  0.4938
  331MOL0     H43629  10.281   9.839   3.110 -0.1128  0.8978 -0.4542
  331MOL0     H43630  10.234   9.857   2.931 -2.8519 -0.6051 -0.0273
  331MOL0     H43631  10.081  10.036   3.008 -2.4634 -1.9360 -1.3488
  331MOL0     H43632  10.124   9.992   3.176 -1.2087 -1.0221  0.8849
  331MOL0     H43633  10.006   9.777   3.154  0.4129  0.8478  1.6564
  331MOL0     H43634  10.011   9.789   2.980  0.2444 -0.5905  0.2673
  331MOL0     H43635   9.830   9.941   3.175  3.6951  1.0949  1.7366
  331MOL0     H43636   9.854  10.009   3.009 -4.3194 -1.9793 -3.0940
  331MOL0     H43637   9.775   9.732   3.079  2.3147  2.1408  4.2262
  331MOL0     H43638   9.751   9.809   2.917  0.1882 -1.7807  0.4867
  331MOL0     H43639   9.617   9.993   3.055 -0.9748 -0.5977 -1.4310
  331MOL0     H43640   9.624   9.865   3.184  1.4724 -2.5950 -1.3844
  331MOL0     H43641   9.473   9.730   3.060  0.1854 -0.5170 -1.5483
  331MOL0     H43642   9.412   9.895   3.039 -0.1439  0.7016 -1.6267
  331MOL0     H43643   9.579   9.740   2.825  0.6457  0.6383 -1.0427
  331MOL0     H43644   9.541   9.902   2.809 -0.5285 -0.2619 -1.4753
  331MOL0     H43645   9.235   9.926   2.889 -0.5533  1.6645 -1.3715
  331MOL0     H43646   9.032   9.845   2.576 -0.1932  0.4854  0.3905
  331MOL0     H43647   9.041   9.963   2.696 -2.5251  0.3657 -1.8296
  331MOL0     H43648   8.932   9.811   2.846 -0.2756 -0.8702  0.9855
  331MOL0     H43649   8.935   9.683   2.736 -1.5176 -0.1230  1.0623
  331MOL0     H43650   8.760   9.931   2.683 -1.6989 -0.5748  0.5398
  331MOL0     H43651   8.789   9.795   2.571  1.5979  0.1514 -1.0827
  331MOL0     H43652   8.653   9.782   2.844  0.1874 -1.9849  0.2599
  331MOL0     H43653   8.685   9.645   2.736  1.4771 -0.0692 -0.7958
  331MOL0     H43654   8.393   9.820   2.481  2.8249  2.3896  2.0133
  331MOL0     H43655   8.176   9.710   2.476 -1.4462 -1.6080 -0.2191
  331MOL0     H43656   7.959   9.200   2.587 -1.4681 -0.5127 -1.3362
  331MOL0     H43657   7.713   9.119   2.577  1.8469 -0.2196 -1.4600
  331MOL0     H43658   7.433   9.394   2.674 -1.7545 -0.6527 -1.4882
  331MOL0     H43659   7.396   9.307   2.833 -3.0303 -0.9347 -0.0841
  331MOL0     H43660   7.257   9.149   2.735  1.8601 -0.2062 -0.1420
  331MOL0     H43661   7.279   9.201   2.574 -0.4458  1.5766  0.1215
  331MOL0     H43662   7.201   9.424   2.653  1.6679 -1.4285 -1.2979
  331MOL0     H43663   7.154   9.354   2.811 -2.1382 -0.1598 -0.3971
  331MOL0     H43664   7.056   9.248   2.540 -1.6262 -0.5132  0.0463
  331MOL0     H43665   7.015   9.185   2.701  0.1066  1.4274  1.6250
  331MOL0     H43666   6.857   9.337   2.570  2.2564  0.4193 -1.9506
  331MOL0     H43667   6.948   9.473   2.611  0.6805  1.2410  1.6762
  331MOL0     H43668   6.914   9.435   2.857 -1.1910 -0.1983  1.7729
  331MOL0     H43669   6.840   9.269   2.816 -1.9279  1.0453  1.3893
  331MOL0     H43670   6.731   9.526   2.708  0.5365  0.1311 -0.4781
  331MOL0     H43671   6.651   9.370   2.715  0.5868 -1.0881  0.3854
  331MOL0     H43672   6.639   9.401   2.977 -1.5339 -0.0325  1.1469
  331MOL0     H43673   6.542   9.509   2.873 -0.7316 -1.8774  0.7291
  331MOL0     H43674   7.602   9.411   2.846 -1.3245 -0.9875 -1.2981
  331MOL0     H43675   7.839   9.518   2.834  1.3361 -0.4638 -0.0297
  331MOL0     H43676   8.252   9.538   2.858 -0.3084  1.0159  0.7626
  331MOL0     H43677   8.475   9.653   2.861  2.0360 -0.1578 -1.5523
  331MOL0     H43678  10.504  10.213   2.996  0.9286  0.3501 -3.8473
  331MOL0     H43679  10.748  10.208   2.971  1.3576 -1.6106 -0.8559
  331MOL0     H43680  11.177   9.814   3.273 -0.1063 -1.6773 -1.5438
  331MOL0     H43681  11.417   9.858   3.263 -1.8319 -2.7256  0.1632
  331MOL0     H43682  11.575  10.184   2.980  2.5099  1.2970  1.0330
  331MOL0     H43683  11.597  10.044   2.885  2.1005  1.8112 -1.3419
  331MOL0     H43684  11.783  10.162   3.095  1.4580 -2.1881  0.7329
  331MOL0     H43685  11.801   9.993   3.060 -3.9370 -2.6215 -0.8000
  331MOL0     H43686  11.805  10.209   2.846 -0.8406 -1.6512 -1.5848
  331MOL0     H43687  11.854  10.037   2.835 -1.2651  1.1105 -2.0123
  331MOL0     H43688  11.990  10.257   3.010 -0.9152  0.1858 -0.0975
  331MOL0     H43689  12.044  10.088   2.999 -2.1831 -0.6338  1.4344
  331MOL0     H43690  12.245  10.269   2.701  0.0814 -3.2342 -1.5454
  331MOL0     H43691  11.370  10.105   2.905  0.5388 -0.5678 -0.2964
  331MOL0     H43692  11.138  10.057   2.912  0.6065  0.7725  0.3846
  332MOL0     O43693  10.364  10.745   5.215 -0.3637 -0.3053  0.2993
  332MOL0     C43694  10.302  10.838   5.270  0.6523 -0.2853 -0.4398
  332MOL0     O43695  10.163  10.844   5.280  0.1138  0.0290 -0.6675
  332MOL0     C43696  10.071  10.742   5.249  0.2739 -0.3001 -0.4479
  332MOL0     C43697   9.962  10.714   5.342 -0.9455  0.9431  0.4188
  332MOL0     C43698   9.870  10.613   5.317 -0.8288 -0.5576 -1.0748
  332MOL0     C43699   9.889  10.537   5.203  0.4063  0.4732 -0.2561
  332MOL0     O43700   9.803  10.432   5.193 -0.6738  0.5552 -0.4195
  332MOL0     C43701   9.847  10.327   5.103  0.1909 -0.0447 -0.1371
  332MOL0     C43702   9.755  10.201   5.119 -0.8219 -0.1986  0.2523
  332MOL0     C43703   9.616  10.239   5.067  0.7243  0.3529 -0.4349
  332MOL0     C43704   9.532  10.116   5.043 -1.4694 -0.8212 -0.7031
  332MOL0     C43705   9.411  10.164   4.974 -0.8129  0.4117  0.1846
  332MOL0     C43706   9.332  10.037   4.943  0.1123 -0.8102 -0.2351
  332MOL0     C43707   9.224  10.049   4.837 -0.1811  0.0241  0.9028
  332MOL0     C43708   9.133  10.175   4.850  0.3584 -0.1081 -0.2916
  332MOL0     N43709   9.016  10.164   4.759 -0.2323  0.3642 -0.3828
  332MOL0     C43710   9.000  10.220   4.636 -0.5944  0.6508 -0.7688
  332MOL0     C43711   8.867  10.200   4.611 -0.2275  0.5599  0.1881
  332MOL0     C43712   8.794  10.225   4.481  0.3739 -0.7482  0.2277
  332MOL0     C43713   8.647  10.264   4.501  0.7983 -0.3354  0.3521
  332MOL0     C43714   8.585  10.329   4.382  0.4270 -0.2385  0.1736
  332MOL0     C43715   8.438  10.360   4.409  0.8326 -0.0661  0.0036
  332MOL0     O43716   8.349  10.243   4.422  0.1974 -0.1853 -0.6258
  332MOL0     C43717   8.218  10.279   4.446 -0.9094 -0.7926 -0.2843
  332MOL0     C43718   8.130  10.308   4.338 -0.1030 -0.5409 -0.8500
  332MOL0     C43719   7.997  10.333   4.368  0.1822  1.3137 -0.2772
  332MOL0     C43720   7.954  10.337   4.500  0.9186 -0.2444  0.0081
  332MOL0     C43721   7.813  10.362   4.541 -0.6309 -0.4114 -0.1562
  332MOL0     O43722   7.721  10.373   4.443 -0.0400 -0.3209 -0.0750
  332MOL0     C43723   7.604  10.317   4.463 -0.1401 -0.4080  0.1156
  332MOL0     C43724   7.574  10.191   4.414  0.0323 -0.2370 -0.3136
  332MOL0     C43725   7.438  10.146   4.430  0.2870  0.2192 -0.1491
  332MOL0     C43726   7.335  10.228   4.484 -0.4732  0.1008  0.1010
  332MOL0     O43727   7.204  10.189   4.492  0.9529  0.2027  0.4393
  332MOL0     C43728   7.114  10.245   4.585  0.1628  0.9772  0.5357
  332MOL0     C43729   7.007  10.137   4.614  1.0943  0.4402 -0.0556
  332MOL0     C43730   6.923  10.102   4.492  0.9747 -0.1088 -0.4447
  332MOL0     C43731   6.774  10.068   4.530  0.7058 -0.4488  0.1195
  332MOL0     C43732   6.691  10.054   4.404  0.4795 -0.3924  0.2144
  332MOL0     C43733   6.557   9.985   4.439 -0.0970  0.1275  0.4912
  332MOL0     C43734   6.467  10.003   4.317 -0.6650 -0.1663 -0.2279
  332MOL0     C43735   6.331   9.938   4.318 -0.0139 -0.2869  0.2009
  332MOL0    Cl43736   6.319   9.771   4.400  0.0864  0.4495 -0.1609
  332MOL0     C43737   7.370  10.349   4.529 -1.0857 -0.6165 -0.4576
  332MOL0     C43738   7.503  10.391   4.527 -0.1741 -1.0469  0.5379
  332MOL0     O43739   7.786  10.363   4.664 -0.2724  0.3818  0.1228
  332MOL0     C43740   8.045  10.310   4.604 -0.5607 -0.6764 -0.5178
  332MOL0     C43741   8.177  10.285   4.584  0.0011  0.4831 -0.1020
  332MOL0     N43742   8.802  10.129   4.709  0.2189 -0.2033 -1.1947
  332MOL0     N43743   8.896  10.117   4.803  0.4604 -1.1301  0.4640
  332MOL0     C43744   9.992  10.563   5.107  0.2091 -0.4643 -0.1194
  332MOL0     C43745  10.074  10.676   5.130  0.0750 -0.7754 -0.7062
  332MOL0     C43746  10.384  10.955   5.324  0.1605  0.6918  0.3477
  332MOL0     C43747  10.319  11.068   5.372 -0.0892  1.2157 -0.6329
  332MOL0     C43748  10.398  11.173   5.423 -0.4066 -0.8485 -0.0676
  332MOL0     C43749  10.540  11.166   5.413 -0.0508  0.1231  0.7973
  332MOL0     O43750  10.609  11.281   5.450 -0.4527 -0.2509  0.1467
  332MOL0     C43751  10.752  11.279   5.439 -0.4908 -0.5735  0.0669
  332MOL0     C43752  10.819  11.388   5.520 -0.2672 -0.1130  0.2914
  332MOL0     C43753  10.794  11.525   5.461 -0.1556 -0.6855  1.0411
  332MOL0     C43754  10.835  11.638   5.557  0.6491  0.1286 -0.0746
  332MOL0     C43755  10.978  11.638   5.588 -0.4511 -0.1645  1.3341
  332MOL0     C43756  11.098  11.661   5.578 -0.4879  0.1975  0.0258
  332MOL0     C43757  10.603  11.051   5.366 -0.8334  0.7260 -0.1149
  332MOL0     C43758  10.521  10.941   5.329 -0.6519 -0.2332  0.0292
  332MOL0     H43759   9.954  10.764   5.438 -0.8866 -0.0983  0.9745
  332MOL0     H43760   9.800  10.575   5.390 -0.0116 -0.4899 -0.2219
  332MOL0     H43761   9.951  10.303   5.126 -0.0925 -1.6291 -0.4136
  332MOL0     H43762   9.851  10.359   4.998 -0.0894  2.5526  0.5720
  332MOL0     H43763   9.753  10.172   5.224  0.6728  0.4868  0.4887
  332MOL0     H43764   9.798  10.125   5.052 -1.6845 -0.7474  0.2984
  332MOL0     H43765   9.629  10.289   4.970  0.2225  1.7806  0.2063
  332MOL0     H43766   9.565  10.309   5.135  0.1795  2.0646 -2.4962
  332MOL0     H43767   9.601  10.050   4.989 -0.4820  0.2060 -0.7515
  332MOL0     H43768   9.511  10.064   5.137  0.4654 -1.0733 -0.3653
  332MOL0     H43769   9.444  10.208   4.880  0.7559 -0.1049  0.4732
  332MOL0     H43770   9.357  10.243   5.027 -2.1643 -0.2955 -0.0812
  332MOL0     H43771   9.288   9.991   5.032 -2.1796 -1.0326 -1.4078
  332MOL0     H43772   9.401   9.968   4.893  4.8150  3.5576 -0.6934
  332MOL0     H43773   9.270  10.040   4.738  0.8726  0.8492  1.3015
  332MOL0     H43774   9.158   9.961   4.840 -1.1628  0.7493  1.0593
  332MOL0     H43775   9.182  10.271   4.832 -2.6280  2.2054  2.6289
  332MOL0     H43776   9.097  10.185   4.953  1.8828  2.6964  0.0648
  332MOL0     H43777   9.073  10.263   4.569  0.8445 -1.9811 -1.0456
  332MOL0     H43778   8.802  10.144   4.407  1.3850  0.7917 -1.4372
  332MOL0     H43779   8.853  10.304   4.434 -0.7963 -0.2863 -0.4963
  332MOL0     H43780   8.638  10.340   4.579  0.7263 -1.6904  1.7118
  332MOL0     H43781   8.585  10.180   4.532 -1.8174  1.7352  1.0937
  332MOL0     H43782   8.636  10.423   4.364  0.0241  0.1734  1.0883
  332MOL0     H43783   8.604  10.277   4.288  1.4898  1.0658 -0.3590
  332MOL0     H43784   8.397  10.427   4.334  3.4402 -0.7665 -2.2079
  332MOL0     H43785   8.426  10.415   4.503  0.8162 -0.8427  0.4685
  332MOL0     H43786   8.167  10.313   4.237  1.5195  3.6366 -0.2382
  332MOL0     H43787   7.938  10.369   4.284  1.7667  2.1978 -1.0415
  332MOL0     H43788   7.650  10.138   4.358 -0.1443 -0.6095 -0.2053
  332MOL0     H43789   7.416  10.046   4.394  0.2673 -1.2745  3.5452
  332MOL0     H43790   7.068  10.326   4.528 -3.4057 -0.3520  1.2285
  332MOL0     H43791   7.156  10.282   4.679  0.8327  1.8796 -0.1048
  332MOL0     H43792   6.934  10.171   4.689 -2.8694 -1.2087 -2.8174
  332MOL0     H43793   7.051  10.044   4.652  1.3065  0.2297 -0.8082
  332MOL0     H43794   6.966  10.023   4.430 -1.0379 -0.8804 -0.9476
  332MOL0     H43795   6.920  10.195   4.436  1.8280 -0.1116 -0.5018
  332MOL0     H43796   6.766   9.971   4.580 -1.5375 -0.4449 -0.1253
  332MOL0     H43797   6.721  10.143   4.589 -0.6298  1.0440 -2.7682
  332MOL0     H43798   6.747  10.007   4.323  1.4247 -1.1987  1.3038
  332MOL0     H43799   6.663  10.153   4.368 -1.6231  0.3905  3.5522
  332MOL0     H43800   6.501  10.037   4.517 -1.9580  0.6673 -1.1335
  332MOL0     H43801   6.591   9.884   4.462  2.0156  0.2488 -1.7285
  332MOL0     H43802   6.460  10.111   4.299  1.0324 -0.0829 -0.5892
  332MOL0     H43803   6.511   9.959   4.226 -1.7113  0.5087 -1.0782
  332MOL0     H43804   6.281   9.935   4.221  1.4132 -1.1425 -0.5350
  332MOL0     H43805   6.269  10.005   4.378  0.8310  2.4828 -1.7858
  332MOL0     H43806   7.293  10.418   4.561 -0.3391 -1.2750  3.2524
  332MOL0     H43807   7.525  10.486   4.575  2.3818 -1.4714  0.3642
  332MOL0     H43808   8.010  10.308   4.707 -2.7740  1.2967 -1.1140
  332MOL0     H43809   8.240  10.267   4.671  0.4243  1.7271 -0.1276
  332MOL0     H43810  10.012  10.511   5.014  1.4280 -1.0667  0.4526
  332MOL0     H43811  10.137  10.700   5.045  1.2661  1.3489  0.6549
  332MOL0     H43812  10.212  11.079   5.361 -0.5995  1.2665  2.9884
  332MOL0     H43813  10.343  11.253   5.471 -3.3710 -0.0247 -4.2846
  332MOL0     H43814  10.770  11.301   5.333  1.5484 -0.3317  0.4346
  332MOL0     H43815  10.799  11.185   5.470  1.8111  1.0010  1.6241
  332MOL0     H43816  10.799  11.381   5.627 -2.4046 -2.1986 -0.1821
  332MOL0     H43817  10.924  11.362   5.502 -0.2824  0.9160 -1.4516
  332MOL0     H43818  10.687  11.526   5.436  0.2657 -1.9043 -1.1014
  332MOL0     H43819  10.839  11.546   5.364 -0.9953  1.1808  1.0231
  332MOL0     H43820  10.822  11.735   5.509  2.3424  1.6137  2.2659
  332MOL0     H43821  10.771  11.629   5.646  0.7139 -0.9338 -0.1276
  332MOL0     H43822  11.204  11.675   5.571 -0.9004  3.9721 -0.7571
  332MOL0     H43823  10.710  11.032   5.363 -1.3281 -5.2329  3.8630
  332MOL0     H43824  10.574  10.853   5.294  2.5471  1.4937  0.0380
  333MOL0     O43825   3.594   1.475   8.465 -0.2647 -0.2941  0.5956
  333MOL0     C43826   3.584   1.532   8.360  0.0539  0.1876 -0.3498
  333MOL0     O43827   3.473   1.527   8.274 -0.5129  0.0503  0.2646
  333MOL0     C43828   3.349   1.497   8.326 -0.3147 -0.7727  0.3742
  333MOL0     C43829   3.254   1.429   8.245 -1.0978  0.4099 -0.0183
  333MOL0     C43830   3.125   1.402   8.280  0.2643 -0.9741  0.1279
  333MOL0     C43831   3.081   1.436   8.413 -0.4389  0.7930  0.3905
  333MOL0     O43832   2.960   1.392   8.460  0.0885  0.0872 -0.2499
  333MOL0     C43833   2.899   1.275   8.419  0.1163  0.1041 -0.2259
  333MOL0     C43834   2.755   1.289   8.404  0.3004 -0.1511 -0.4792
  333MOL0     C43835   2.713   1.373   8.279  0.0392 -0.8270  0.1230
  333MOL0     C43836   2.563   1.357   8.259  0.3410  0.4019 -0.5163
  333MOL0     C43837   2.507   1.233   8.199  0.2294 -0.1869  0.4450
  333MOL0     C43838   2.358   1.257   8.172  0.4350  0.0788  0.5172
  333MOL0     C43839   2.273   1.133   8.133 -0.2613 -0.3891  0.1973
  333MOL0     C43840   2.224   1.052   8.247  0.0099 -0.3338 -0.0584
  333MOL0     N43841   2.110   1.118   8.305 -0.4556 -0.8632 -0.5766
  333MOL0     C43842   1.984   1.111   8.255 -0.7066  0.3316  0.4409
  333MOL0     C43843   1.905   1.157   8.353 -0.0377 -0.5690 -0.8984
  333MOL0     C43844   1.756   1.162   8.356 -0.0553 -0.1895 -0.1139
  333MOL0     C43845   1.699   1.070   8.463  0.3726 -0.4226 -1.0854
  333MOL0     C43846   1.550   1.052   8.475 -0.0787  0.0681 -0.1970
  333MOL0     C43847   1.472   1.177   8.511  0.1420  0.3282  0.1597
  333MOL0     O43848   1.337   1.161   8.465  0.4703 -0.0645  0.2790
  333MOL0     C43849   1.242   1.254   8.496  0.3820  0.0937  0.3013
  333MOL0     C43850   1.279   1.382   8.542 -0.4506  0.3777 -0.3747
  333MOL0     C43851   1.173   1.466   8.578 -0.6783  0.4011 -0.0999
  333MOL0     C43852   1.044   1.435   8.563  0.7687  0.5671  0.4841
  333MOL0     C43853   0.943   1.544   8.573  0.4945  0.0588  0.4225
  333MOL0     O43854   0.816   1.514   8.527  0.1673  0.0790 -0.0301
  333MOL0     C43855   0.715   1.600   8.536  0.5773 -0.2126 -0.9440
  333MOL0     C43856   0.642   1.633   8.429  0.7193  0.1968 -0.6072
  333MOL0     C43857   0.521   1.700   8.464 -0.2389  0.2919  0.0981
  333MOL0     C43858   0.487   1.736   8.590  0.7007 -0.6958  0.4236
  333MOL0     O43859   0.373   1.818   8.603  0.1441 -1.0361  0.0798
  333MOL0     C43860   0.246   1.763   8.560 -0.1237  0.6812 -0.0952
  333MOL0     C43861   0.141   1.757   8.675 -0.5263  0.1103  0.0258
  333MOL0     C43862   0.173   1.642   8.771 -0.0608  0.1152 -0.3018
  333MOL0     C43863   0.171   1.494   8.721  0.7098 -0.3809  0.4353
  333MOL0     C43864   0.235   1.396   8.818 -0.0187  0.0135  0.5963
  333MOL0     C43865   0.391   1.399   8.817  0.6020  0.6675 -0.1687
  333MOL0     C43866   0.449   1.357   8.687  0.4564 -0.0036  0.6946
  333MOL0     C43867   0.584   1.281   8.716  0.4491  0.6507 -0.1054
  333MOL0    Cl43868   0.634   1.183   8.571  0.2092 -0.2217 -0.0386
  333MOL0     C43869   0.570   1.719   8.696 -1.2713 -0.7289  0.3867
  333MOL0     C43870   0.683   1.643   8.675  0.1128  0.0467  0.5666
  333MOL0     O43871   0.970   1.655   8.607 -0.0690 -0.4808 -0.8917
  333MOL0     C43872   1.009   1.300   8.522 -0.1222 -0.1188 -0.9573
  333MOL0     C43873   1.113   1.212   8.497  0.2048 -0.5759 -0.0086
  333MOL0     N43874   1.986   1.201   8.456  0.6047 -0.3483  0.8896
  333MOL0     N43875   2.109   1.173   8.430 -0.0657 -0.1880  1.0027
  333MOL0     C43876   3.169   1.517   8.487 -0.2566 -0.7326 -0.7710
  333MOL0     C43877   3.302   1.547   8.442  0.2463 -0.2340 -0.4764
  333MOL0     C43878   3.691   1.619   8.321  0.2305  0.5919 -0.5002
  333MOL0     C43879   3.822   1.570   8.307  0.2881  0.1434  0.2718
  333MOL0     C43880   3.927   1.651   8.264  0.3581 -0.3624  0.1994
  333MOL0     C43881   3.912   1.787   8.239  0.7102  0.0481  0.2147
  333MOL0     O43882   4.025   1.860   8.211 -0.4234  0.1213  0.3458
  333MOL0     C43883   4.007   2.000   8.183  0.5384 -0.0902  0.6870
  333MOL0     C43884   3.958   2.026   8.040  0.8710  0.1857 -0.6000
  333MOL0     C43885   4.075   1.992   7.942 -0.1102  0.0323  0.5354
  333MOL0     C43886   4.032   1.973   7.800 -0.1126  1.0984 -0.0837
  333MOL0     C43887   3.981   2.098   7.743  0.2447  0.2603 -0.2019
  333MOL0     C43888   3.932   2.203   7.698 -0.0320  0.2214  0.3216
  333MOL0     C43889   3.777   1.835   8.239 -0.4034  0.0271  0.7631
  333MOL0     C43890   3.670   1.755   8.282 -0.2127 -0.1538  0.2580
  333MOL0     H43891   3.286   1.423   8.142 -3.3854  3.0221 -1.0049
  333MOL0     H43892   3.059   1.365   8.202  1.0619 -1.1929 -0.4497
  333MOL0     H43893   2.904   1.201   8.500 -2.6814  0.6729  0.5702
  333MOL0     H43894   2.949   1.229   8.333  4.2495  1.7848  1.0357
  333MOL0     H43895   2.706   1.326   8.495 -0.3736  2.4519 -1.7932
  333MOL0     H43896   2.715   1.191   8.378 -1.6933  0.9736 -2.0335
  333MOL0     H43897   2.758   1.330   8.188 -0.9733 -1.5649 -0.0447
  333MOL0     H43898   2.739   1.479   8.291  4.0690 -1.7726  1.2392
  333MOL0     H43899   2.525   1.372   8.361  0.7580 -1.9671  0.0541
  333MOL0     H43900   2.538   1.441   8.194  1.4725  0.6861 -0.6108
  333MOL0     H43901   2.520   1.146   8.265  2.8012  0.1580  0.4967
  333MOL0     H43902   2.568   1.217   8.110  1.3239  1.8959  0.7795
  333MOL0     H43903   2.336   1.312   8.081 -4.3772 -0.3387  1.1689
  333MOL0     H43904   2.312   1.312   8.255 -0.9521  2.2225 -1.5433
  333MOL0     H43905   2.186   1.167   8.076  0.8573  2.0407 -0.1859
  333MOL0     H43906   2.331   1.072   8.062  0.3287  0.3809  0.0062
  333MOL0     H43907   2.306   1.047   8.319 -0.6164  2.4117  0.9344
  333MOL0     H43908   2.202   0.947   8.222 -0.8878 -0.0903 -0.3351
  333MOL0     H43909   1.946   1.070   8.162 -1.5701 -0.3846  1.0947
  333MOL0     H43910   1.719   1.122   8.262  0.1862 -0.9637  0.1111
  333MOL0     H43911   1.731   1.266   8.380 -1.0756 -0.4559  0.0011
  333MOL0     H43912   1.734   1.093   8.564 -0.4899 -0.2714 -0.8151
  333MOL0     H43913   1.744   0.971   8.445  0.1566 -0.8854  0.7322
  333MOL0     H43914   1.512   1.014   8.380 -5.0127  0.2912  1.3960
  333MOL0     H43915   1.525   0.974   8.548 -2.2655  1.3413  0.5033
  333MOL0     H43916   1.514   1.265   8.462 -0.8470  0.0267 -1.2967
  333MOL0     H43917   1.472   1.193   8.619 -0.2283  1.3002  0.0254
  333MOL0     H43918   1.380   1.420   8.546 -1.6832  3.9357  1.7229
  333MOL0     H43919   1.198   1.566   8.613 -0.6972 -0.4409  2.5797
  333MOL0     H43920   0.663   1.584   8.335  0.1568 -0.1732 -0.5495
  333MOL0     H43921   0.461   1.721   8.377 -0.3191 -0.8371 -0.1411
  333MOL0     H43922   0.271   1.666   8.516  1.8673  0.0707  2.1831
  333MOL0     H43923   0.204   1.825   8.480 -1.4420 -1.9859 -1.5977
  333MOL0     H43924   0.041   1.743   8.633 -0.4793 -2.5232  0.6206
  333MOL0     H43925   0.139   1.854   8.726 -0.4098  0.7597 -1.1854
  333MOL0     H43926   0.093   1.648   8.845  0.0901 -3.3250  0.3262
  333MOL0     H43927   0.263   1.669   8.825  0.8925  2.6752 -2.8885
  333MOL0     H43928   0.066   1.471   8.697  1.8160 -2.0351 -3.9696
  333MOL0     H43929   0.213   1.482   8.620  1.3747  1.1628  0.5033
  333MOL0     H43930   0.207   1.295   8.788 -1.1688  0.6000 -0.3909
  333MOL0     H43931   0.196   1.404   8.920  1.3019  1.7867  1.0014
  333MOL0     H43932   0.425   1.340   8.902  0.8993  0.0770 -0.6921
  333MOL0     H43933   0.427   1.499   8.844 -1.3590  1.2081  0.6216
  333MOL0     H43934   0.380   1.289   8.636 -0.1678  0.6027  0.7189
  333MOL0     H43935   0.472   1.447   8.629  0.4581 -0.2209  0.3502
  333MOL0     H43936   0.572   1.205   8.793 -1.3380  0.2556 -0.7273
  333MOL0     H43937   0.665   1.349   8.745  0.7402 -0.5093  1.9274
  333MOL0     H43938   0.548   1.774   8.787 -2.6295 -1.3138  0.4370
  333MOL0     H43939   0.737   1.619   8.766 -1.3970 -0.8544  1.2677
  333MOL0     H43940   0.906   1.264   8.520 -0.5585  0.6241  2.2826
  333MOL0     H43941   1.087   1.110   8.472 -0.6681 -0.6686  1.1976
  333MOL0     H43942   3.133   1.562   8.579 -0.3056  1.5077 -1.8309
  333MOL0     H43943   3.366   1.611   8.501 -1.5995  0.6143  0.6785
  333MOL0     H43944   3.844   1.467   8.332  1.0547  0.5892  1.5778
  333MOL0     H43945   4.028   1.615   8.247  0.9566  1.0022  0.7226
  333MOL0     H43946   4.102   2.054   8.187  0.9812 -0.8548  0.6393
  333MOL0     H43947   3.946   2.047   8.261  2.6135  1.6427  1.3689
  333MOL0     H43948   3.863   1.975   8.022  0.2260  0.7799  0.9232
  333MOL0     H43949   3.922   2.129   8.032 -1.1167 -0.3706  0.3212
  333MOL0     H43950   4.131   1.902   7.971 -1.1384 -1.0756 -0.7489
  333MOL0     H43951   4.144   2.076   7.953  0.5698 -0.6695  1.9273
  333MOL0     H43952   4.112   1.940   7.733 -0.7115  1.6045 -1.0598
  333MOL0     H43953   3.954   1.896   7.798  0.4341  0.5543 -0.9179
  333MOL0     H43954   3.902   2.302   7.671 -0.6681  0.6216  2.3177
  333MOL0     H43955   3.754   1.938   8.210 -0.8858 -0.6723 -1.5828
  333MOL0     H43956   3.573   1.802   8.276  0.7123  1.8398 -0.1265
  334MOL0     O43957   9.300  10.501   4.697 -0.1770  0.3460  0.1620
  334MOL0     C43958   9.319  10.612   4.728 -0.0605 -0.5283  0.3997
  334MOL0     O43959   9.217  10.708   4.745 -0.3841 -0.1115 -0.6052
  334MOL0     C43960   9.086  10.677   4.729 -0.0756  0.0745  0.1040
  334MOL0     C43961   9.027  10.623   4.614 -0.8344  1.1081  0.2240
  334MOL0     C43962   8.886  10.606   4.594  0.1127 -0.5793  0.6342
  334MOL0     C43963   8.798  10.667   4.693  0.9337  0.5608  0.1348
  334MOL0     O43964   8.657  10.650   4.669  0.3226 -0.1680  0.5860
  334MOL0     C43965   8.565  10.673   4.781 -1.4029  0.4217 -0.4047
  334MOL0     C43966   8.432  10.608   4.762  0.2548  0.5802  0.1083
  334MOL0     C43967   8.332  10.645   4.871 -0.6750  0.0807  0.5033
  334MOL0     C43968   8.186  10.624   4.820  0.5091  0.0678  0.0395
  334MOL0     C43969   8.087  10.668   4.932 -0.6521  0.4123  0.0736
  334MOL0     C43970   7.942  10.625   4.896 -0.7873 -0.5067 -0.3211
  334MOL0     C43971   7.852  10.708   4.982 -0.6102  0.2507 -0.8311
  334MOL0     C43972   7.702  10.678   4.967  1.0302 -0.6123  0.0479
  334MOL0     N43973   7.648  10.747   4.847 -0.1118 -0.3420 -0.5698
  334MOL0     C43974   7.717  10.833   4.766  0.6756  0.9122  0.0812
  334MOL0     C43975   7.644  10.825   4.653 -0.9436 -0.5632 -0.6893
  334MOL0     C43976   7.672  10.889   4.521  0.2444  0.1507  1.0054
  334MOL0     C43977   7.705  10.785   4.409 -0.0043  0.6539  0.0150
  334MOL0     C43978   7.831  10.707   4.448 -0.4637  0.7773  0.0949
  334MOL0     C43979   7.967  10.778   4.449 -0.0571  0.5797  1.0274
  334MOL0     O43980   7.984  10.852   4.567 -0.0072 -0.0346 -0.4408
  334MOL0     C43981   8.098  10.917   4.591  0.0254 -0.4457 -0.6654
  334MOL0     C43982   8.112  10.979   4.715  0.0860 -0.6888 -0.6774
  334MOL0     C43983   8.232  11.039   4.749 -1.7358  0.3249  0.2473
  334MOL0     C43984   8.342  11.040   4.663 -0.6043 -0.5636 -0.2958
  334MOL0     C43985   8.479  11.088   4.706 -0.6099  0.3818  0.1351
  334MOL0     O43986   8.514  11.073   4.839  0.0959 -0.2387 -0.2850
  334MOL0     C43987   8.637  11.104   4.891  0.1152 -0.1971  0.1227
  334MOL0     C43988   8.652  11.167   5.019 -0.2455 -0.2593  0.4471
  334MOL0     C43989   8.776  11.209   5.063 -0.1014 -0.4788  0.4630
  334MOL0     C43990   8.892  11.184   4.986  0.1610 -0.6726 -0.0952
  334MOL0     O43991   9.003  11.230   5.054  0.1924  0.8177 -0.0425
  334MOL0     C43992   9.120  11.246   4.971 -0.5049  0.1114  0.2840
  334MOL0     C43993   9.242  11.298   5.055  0.0331 -0.4284  0.1023
  334MOL0     C43994   9.377  11.305   4.977  0.1283 -0.9260 -0.1173
  334MOL0     C43995   9.391  11.415   4.863  0.2422 -0.0052  0.3834
  334MOL0     C43996   9.506  11.398   4.768 -0.2376  0.2404  0.5151
  334MOL0     C43997   9.637  11.404   4.850  0.1665 -0.3966  0.6458
  334MOL0     C43998   9.759  11.427   4.761  0.1777 -0.5249 -0.1831
  334MOL0     C43999   9.766  11.570   4.707  0.2852 -0.5998 -0.4449
  334MOL0    Cl44000   9.930  11.607   4.648 -0.0482 -0.0184 -0.3214
  334MOL0     C44001   8.881  11.119   4.863 -0.2163 -0.0961  0.4819
  334MOL0     C44002   8.759  11.072   4.823 -0.3961 -0.0947 -0.3616
  334MOL0     O44003   8.555  11.136   4.618  0.3057 -0.8369 -0.1957
  334MOL0     C44004   8.327  10.997   4.533 -0.0943 -0.1832 -0.1789
  334MOL0     C44005   8.211  10.923   4.500  0.1417 -0.4430  0.3215
  334MOL0     N44006   7.526  10.757   4.666 -0.6523 -0.2252  0.2318
  334MOL0     N44007   7.523  10.719   4.788 -0.1551  0.1127  0.3005
  334MOL0     C44008   8.858  10.715   4.808  0.2309 -0.0134  0.0157
  334MOL0     C44009   8.995  10.725   4.824  0.3636 -0.0252  0.4786
  334MOL0     C44010   9.456  10.672   4.752  0.2194 -0.3395  0.1388
  334MOL0     C44011   9.474  10.807   4.763 -0.1136  0.3397 -0.6207
  334MOL0     C44012   9.604  10.861   4.793 -0.3723 -0.2447 -0.8083
  334MOL0     C44013   9.716  10.776   4.793 -0.7546  0.6836  1.2081
  334MOL0     O44014   9.838  10.837   4.800  0.1159  0.5306 -0.4487
  334MOL0     C44015   9.940  10.762   4.724 -0.0696 -0.2286 -0.4016
  334MOL0     C44016  10.037  10.858   4.659 -0.0970 -0.0573  0.2307
  334MOL0     C44017  10.148  10.782   4.593  0.1975  0.0634 -0.5316
  334MOL0     C44018  10.256  10.883   4.541  0.3668  0.4509 -0.1087
  334MOL0     C44019  10.219  10.920   4.407 -0.6500 -0.5887  0.3716
  334MOL0     C44020  10.182  10.953   4.294 -0.2343  0.4143 -0.1590
  334MOL0     C44021   9.699  10.637   4.799  0.1779  0.4084  0.3960
  334MOL0     C44022   9.571  10.583   4.761  0.7409 -0.1248 -0.4312
  334MOL0     H44023   9.092  10.590   4.533  1.3447  3.6607  0.7894
  334MOL0     H44024   8.831  10.582   4.503 -0.5078  3.4980 -0.2823
  334MOL0     H44025   8.546  10.781   4.788 -2.5768  0.0946  3.9181
  334MOL0     H44026   8.606  10.639   4.876 -0.2300  0.0495 -1.0147
  334MOL0     H44027   8.426  10.505   4.727  0.8530  0.4987  0.2527
  334MOL0     H44028   8.398  10.664   4.674  0.2915  2.6777  1.3504
  334MOL0     H44029   8.339  10.752   4.894 -0.9564  0.2249 -0.0614
  334MOL0     H44030   8.356  10.596   4.966 -0.0012 -1.2365 -0.3152
  334MOL0     H44031   8.168  10.696   4.739  0.9201  1.8333  1.4299
  334MOL0     H44032   8.164  10.519   4.799  1.3168  0.4494 -3.1705
  334MOL0     H44033   8.086  10.777   4.935 -1.6184  0.3947  2.0293
  334MOL0     H44034   8.115  10.640   5.034  0.0869  2.9783  0.6259
  334MOL0     H44035   7.931  10.517   4.905  0.8364 -0.6509  0.3030
  334MOL0     H44036   7.915  10.649   4.793 -2.4905  2.6546  0.7328
  334MOL0     H44037   7.872  10.669   5.083 -1.0591 -0.7646 -1.1253
  334MOL0     H44038   7.871  10.815   4.994 -3.0320  0.7324 -0.8245
  334MOL0     H44039   7.636  10.703   5.050 -0.4551 -1.5335 -0.8131
  334MOL0     H44040   7.687  10.571   4.950 -1.3928 -0.1914 -0.8151
  334MOL0     H44041   7.814  10.881   4.768  1.1512 -0.0158 -0.3130
  334MOL0     H44042   7.755  10.960   4.526  0.3087  0.0813  0.9291
  334MOL0     H44043   7.595  10.956   4.482 -0.4574 -2.5637 -2.8837
  334MOL0     H44044   7.724  10.835   4.314 -0.9327 -0.4108 -0.7563
  334MOL0     H44045   7.626  10.710   4.401 -0.6217  1.2922 -0.0476
  334MOL0     H44046   7.809  10.654   4.542  0.3905 -0.0787 -0.1660
  334MOL0     H44047   7.832  10.627   4.373 -0.1104 -0.9860  1.8966
  334MOL0     H44048   7.970  10.855   4.371  3.0524  1.0106  1.4335
  334MOL0     H44049   8.042  10.698   4.445 -2.5379 -1.9212  1.4413
  334MOL0     H44050   8.033  10.979   4.789  0.7019  1.3148  0.0503
  334MOL0     H44051   8.235  11.070   4.853  1.2993 -1.3391  0.7893
  334MOL0     H44052   8.570  11.203   5.081 -3.6882 -1.0320 -3.2270
  334MOL0     H44053   8.769  11.274   5.150 -0.7803 -2.9299  2.3684
  334MOL0     H44054   9.105  11.321   4.893  1.9772  0.4113  0.0216
  334MOL0     H44055   9.146  11.152   4.923 -0.3501  0.2704  0.0550
  334MOL0     H44056   9.260  11.232   5.140  0.6693  0.8531  1.0049
  334MOL0     H44057   9.218  11.399   5.091 -1.5028 -0.2969 -1.1422
  334MOL0     H44058   9.393  11.206   4.933 -0.0850 -1.6021  1.2881
  334MOL0     H44059   9.443  11.340   5.056 -1.7021  0.5163  0.8464
  334MOL0     H44060   9.302  11.408   4.801 -0.0430 -2.7086  0.9350
  334MOL0     H44061   9.398  11.509   4.918 -2.0713 -0.1708  1.0627
  334MOL0     H44062   9.496  11.475   4.691 -2.9142  0.0533  0.6014
  334MOL0     H44063   9.494  11.302   4.716  2.0362  0.3455 -0.3224
  334MOL0     H44064   9.648  11.310   4.906 -3.8314  0.1280  2.7386
  334MOL0     H44065   9.627  11.473   4.935 -0.8538 -0.7280  0.8086
  334MOL0     H44066   9.846  11.412   4.825  0.2141  3.0166  0.8026
  334MOL0     H44067   9.759  11.359   4.675  3.1354 -1.5389  0.4865
  334MOL0     H44068   9.721  11.630   4.787 -2.5522 -0.3641 -2.0643
  334MOL0     H44069   9.698  11.563   4.621  1.0812  0.9782 -1.2542
  334MOL0     H44070   8.967  11.086   4.806  0.2808 -1.4744  1.9314
  334MOL0     H44071   8.748  11.022   4.727 -0.1660  2.4287 -1.7981
  334MOL0     H44072   8.407  11.015   4.461 -0.4368 -1.4706 -0.9220
  334MOL0     H44073   8.197  10.871   4.406  1.7552 -0.0767 -0.1439
  334MOL0     H44074   8.791  10.766   4.876 -1.5694 -0.1581 -1.5739
  334MOL0     H44075   9.035  10.776   4.911 -1.1575  2.4377 -0.1640
  334MOL0     H44076   9.392  10.878   4.769 -1.1303 -0.9173  1.7515
  334MOL0     H44077   9.605  10.968   4.812 -0.7508 -0.2798 -0.5689
  334MOL0     H44078   9.911  10.696   4.642  1.8939 -1.3855 -0.2119
  334MOL0     H44079   9.987  10.696   4.797 -2.0169  0.4460  1.5716
  334MOL0     H44080   9.992  10.916   4.578  3.4173  2.4685 -0.1208
  334MOL0     H44081  10.067  10.939   4.726  0.6408 -1.1633  1.2590
  334MOL0     H44082  10.110  10.715   4.516  0.2828 -1.6755  0.8688
  334MOL0     H44083  10.187  10.712   4.668 -1.4088 -0.3985 -0.0851
  334MOL0     H44084  10.272  10.967   4.608 -0.5535  0.5891 -0.0494
  334MOL0     H44085  10.349  10.828   4.524 -1.0418 -2.2863  0.3848
  334MOL0     H44086  10.151  10.990   4.198  2.5585 -3.3854 -2.8542
  334MOL0     H44087   9.777  10.566   4.823  0.8060 -0.1016 -2.7999
  334MOL0     H44088   9.549  10.477   4.756 -3.0934  0.5029 -0.0779
  335MOL0     O44089   3.795   8.779   0.266  0.0644  0.8673  0.5242
  335MOL0     C44090   3.778   8.659   0.250  0.1977 -0.6372  0.0846
  335MOL0     O44091   3.663   8.588   0.265  0.3332 -1.1309 -0.2539
  335MOL0     C44092   3.551   8.635   0.325  0.3007 -0.1820  0.7129
  335MOL0     C44093   3.544   8.738   0.419 -0.9167 -0.1297 -0.1065
  335MOL0     C44094   3.431   8.797   0.455  0.8318  0.6540  0.6332
  335MOL0     C44095   3.304   8.750   0.407 -0.2913  0.6443 -0.1454
  335MOL0     O44096   3.187   8.818   0.429  0.6378 -0.2826  0.5119
  335MOL0     C44097   3.189   8.946   0.501  0.1710 -0.2844 -0.7207
  335MOL0     C44098   3.057   9.021   0.477  0.5181 -0.0181 -0.0653
  335MOL0     C44099   2.935   8.960   0.545  0.1137  0.5875  0.1992
  335MOL0     C44100   2.817   9.049   0.515 -0.6858 -0.5038  0.2383
  335MOL0     C44101   2.691   8.989   0.580 -0.3333 -0.5344  0.6550
  335MOL0     C44102   2.584   9.092   0.586  0.9844 -0.5679 -0.3741
  335MOL0     C44103   2.445   9.038   0.631 -0.6517 -0.3227 -1.1208
  335MOL0     C44104   2.333   9.138   0.614 -0.2894  0.0109  0.7313
  335MOL0     N44105   2.210   9.085   0.672 -0.3933  0.0164  0.0255
  335MOL0     C44106   2.080   9.130   0.634  0.7725 -0.0100  0.2778
  335MOL0     C44107   1.990   9.046   0.693 -0.2150  0.3249  0.6481
  335MOL0     C44108   1.848   9.065   0.691  0.8914 -0.5099 -0.2459
  335MOL0     C44109   1.771   8.976   0.770 -0.5555 -0.0352 -0.0820
  335MOL0     C44110   1.626   9.023   0.784 -0.5438 -0.1598  0.0392
  335MOL0     C44111   1.539   8.906   0.834 -0.3181 -0.2213 -0.2108
  335MOL0     O44112   1.406   8.955   0.849  0.7751 -0.6876  0.7494
  335MOL0     C44113   1.336   8.886   0.941 -0.1918 -0.4799  0.3688
  335MOL0     C44114   1.375   8.865   1.068  0.6341 -1.1201 -0.3270
  335MOL0     C44115   1.286   8.795   1.162 -0.6458 -0.2377 -0.2950
  335MOL0     C44116   1.163   8.747   1.125 -0.2089  0.0799 -0.5807
  335MOL0     C44117   1.077   8.666   1.218 -0.1343 -0.1172 -1.4188
  335MOL0     O44118   0.974   8.605   1.152  0.6651  0.2355 -0.1358
  335MOL0     C44119   0.907   8.504   1.218  0.2544  0.3640  0.2836
  335MOL0     C44120   0.765   8.505   1.216 -0.4122  0.6159 -0.1141
  335MOL0     C44121   0.697   8.400   1.285 -0.2151 -0.2340  0.2285
  335MOL0     C44122   0.773   8.294   1.348 -0.0939 -0.4204  0.5529
  335MOL0     O44123   0.696   8.193   1.400 -0.1464 -0.2120 -0.2367
  335MOL0     C44124   0.765   8.092   1.484  0.1400  0.1258  0.0709
  335MOL0     C44125   0.677   7.986   1.529 -0.4525  0.5583 -0.2817
  335MOL0     C44126   0.628   7.905   1.416 -0.1965  1.0978  0.1834
  335MOL0     C44127   0.554   7.781   1.466  0.1167  0.4331  0.6020
  335MOL0     C44128   0.433   7.798   1.559 -0.5719 -0.6704 -0.2394
  335MOL0     C44129   0.370   7.656   1.593  0.3308 -0.0467 -0.1221
  335MOL0     C44130   0.284   7.667   1.720  0.3360 -0.2971 -0.0037
  335MOL0     C44131   0.153   7.733   1.701  0.1267  0.0591  0.4673
  335MOL0    Cl44132   0.039   7.617   1.651 -0.1248  0.1241 -0.1376
  335MOL0     C44133   0.914   8.299   1.346  0.5164  0.3051  0.0324
  335MOL0     C44134   0.977   8.410   1.291 -0.4025  0.1047 -0.4334
  335MOL0     O44135   1.097   8.667   1.342  0.6876 -0.1508 -0.1221
  335MOL0     C44136   1.126   8.777   0.993  0.7340 -0.2129  0.0565
  335MOL0     C44137   1.207   8.851   0.908 -1.0137  0.7058 -0.2067
  335MOL0     N44138   2.069   8.957   0.764  0.2144  0.4537 -0.5543
  335MOL0     N44139   2.195   8.983   0.762  0.0069  0.0353  0.6929
  335MOL0     C44140   3.305   8.634   0.324 -0.2231  0.0129  0.0598
  335MOL0     C44141   3.426   8.587   0.277 -0.0288 -0.1838  0.3157
  335MOL0     C44142   3.897   8.580   0.215 -0.0095 -0.6263 -0.4928
  335MOL0     C44143   3.867   8.462   0.145 -0.3322  0.6602 -0.0614
  335MOL0     C44144   3.973   8.386   0.096  0.3685  0.2807  0.2238
  335MOL0     C44145   4.104   8.429   0.114 -0.3538  0.1431  0.8901
  335MOL0     O44146   4.224   8.380   0.057 -0.1787 -0.3054 -0.5663
  335MOL0     C44147   4.218   8.364  -0.085 -0.0039  1.0124  0.9380
  335MOL0     C44148   4.243   8.213  -0.113  0.8825  0.1346  0.9213
  335MOL0     C44149   4.176   8.182  -0.244 -0.7689  0.1490  1.0205
  335MOL0     C44150   4.249   8.225  -0.375  0.0207 -0.0670 -0.6305
  335MOL0     C44151   4.200   8.186  -0.500  0.9705 -0.9885  1.3498
  335MOL0     C44152   4.137   8.148  -0.594  1.2790 -0.1292  0.2549
  335MOL0     C44153   4.126   8.538   0.197  0.4880 -0.1292  1.1091
  335MOL0     C44154   4.026   8.620   0.252 -1.5489 -0.2601 -0.2687
  335MOL0     H44155   3.633   8.778   0.468 -1.3648 -0.4847  1.0229
  335MOL0     H44156   3.440   8.882   0.521  1.3736  0.9865  0.1379
  335MOL0     H44157   3.267   9.015   0.466 -1.0385  1.2382 -0.5490
  335MOL0     H44158   3.202   8.934   0.609 -2.4022 -2.1087 -0.5187
  335MOL0     H44159   3.034   9.019   0.370 -1.8844  0.9209  0.3502
  335MOL0     H44160   3.063   9.128   0.499  0.1890  1.0372 -4.2227
  335MOL0     H44161   2.947   8.936   0.651 -0.3584  0.3319  0.1939
  335MOL0     H44162   2.917   8.864   0.495  3.3472 -0.1727  0.2209
  335MOL0     H44163   2.839   9.147   0.559 -0.3531  0.1165 -1.2481
  335MOL0     H44164   2.805   9.054   0.406 -0.7343  0.1969  0.2727
  335MOL0     H44165   2.732   8.969   0.679  1.5487 -0.9992 -0.1676
  335MOL0     H44166   2.655   8.904   0.520 -1.0731  0.7300 -0.7675
  335MOL0     H44167   2.576   9.132   0.484 -1.7135 -1.3213 -0.5441
  335MOL0     H44168   2.607   9.176   0.653 -0.9554 -0.2686 -0.0289
  335MOL0     H44169   2.434   8.941   0.581  2.8425 -0.7268 -1.3951
  335MOL0     H44170   2.444   9.031   0.740 -2.0114  1.8593 -0.9309
  335MOL0     H44171   2.314   9.148   0.507  1.5326 -1.1407  0.2519
  335MOL0     H44172   2.352   9.235   0.660 -1.1468 -0.8978  3.1421
  335MOL0     H44173   2.059   9.219   0.576 -2.0894 -1.1632 -0.6229
  335MOL0     H44174   1.808   9.056   0.589 -0.1080 -0.1338  0.1019
  335MOL0     H44175   1.824   9.164   0.731 -0.9807 -1.4075  1.0191
  335MOL0     H44176   1.821   8.976   0.867 -0.9389 -1.0659  0.1218
  335MOL0     H44177   1.780   8.881   0.716  0.9045  0.8208 -1.4384
  335MOL0     H44178   1.614   9.099   0.862 -0.9259 -0.7323  0.5530
  335MOL0     H44179   1.576   9.070   0.699  2.6474 -0.4827 -2.2195
  335MOL0     H44180   1.573   8.860   0.927 -0.7949  0.1337  0.1404
  335MOL0     H44181   1.536   8.832   0.753 -0.6482 -0.7214  0.2534
  335MOL0     H44182   1.476   8.894   1.096  1.4297 -2.0587 -2.0348
  335MOL0     H44183   1.322   8.775   1.262 -2.4282  0.6531  0.5741
  335MOL0     H44184   0.712   8.591   1.176 -2.1027  1.3176  3.2618
  335MOL0     H44185   0.589   8.404   1.300 -0.2999  0.4160 -0.5458
  335MOL0     H44186   0.815   8.127   1.575  0.9856 -0.8057 -0.0298
  335MOL0     H44187   0.839   8.034   1.428 -2.0570 -5.2736  2.0842
  335MOL0     H44188   0.599   8.022   1.596  1.6066 -0.0159  2.6728
  335MOL0     H44189   0.740   7.928   1.598  2.5784  3.2220 -0.5636
  335MOL0     H44190   0.719   7.872   1.365 -0.4204  1.2509 -0.3206
  335MOL0     H44191   0.560   7.955   1.347 -1.0951 -0.7852 -0.3638
  335MOL0     H44192   0.517   7.720   1.383 -0.2785  0.7110  0.5704
  335MOL0     H44193   0.621   7.721   1.528  2.6531  0.7164 -1.6882
  335MOL0     H44194   0.351   7.856   1.516  0.6612 -0.2661 -2.1786
  335MOL0     H44195   0.469   7.843   1.652  1.3434 -2.5710  0.0354
  335MOL0     H44196   0.453   7.589   1.616 -1.3191 -1.4764  2.1040
  335MOL0     H44197   0.309   7.618   1.511  0.0902 -1.8285  0.8340
  335MOL0     H44198   0.270   7.571   1.770  2.3229 -0.3474  0.5380
  335MOL0     H44199   0.332   7.720   1.802  0.7115 -0.4399 -0.1325
  335MOL0     H44200   0.162   7.818   1.633  3.2420  0.4434  1.2196
  335MOL0     H44201   0.119   7.773   1.797  0.0522 -0.4891  0.6711
  335MOL0     H44202   0.976   8.219   1.385 -1.7687 -2.7502 -2.1246
  335MOL0     H44203   1.085   8.419   1.298 -0.2684 -1.1460 -0.7056
  335MOL0     H44204   1.036   8.740   0.946 -0.5608  1.9935  0.6467
  335MOL0     H44205   1.176   8.862   0.804 -0.5929  1.4105 -0.2606
  335MOL0     H44206   3.212   8.595   0.284 -1.6677  2.5811  0.7267
  335MOL0     H44207   3.425   8.513   0.198 -0.1759  2.3695 -2.2651
  335MOL0     H44208   3.768   8.424   0.122 -0.5963 -0.3278  2.3908
  335MOL0     H44209   3.951   8.300   0.033  0.0510 -1.4025  2.4810
  335MOL0     H44210   4.303   8.418  -0.129  0.3000  0.3310  0.6617
  335MOL0     H44211   4.122   8.399  -0.123  0.1712 -0.6593 -1.2567
  335MOL0     H44212   4.347   8.182  -0.121  0.0519 -2.8940  0.3708
  335MOL0     H44213   4.187   8.151  -0.042 -0.2588 -1.3087 -1.0888
  335MOL0     H44214   4.074   8.221  -0.247 -0.6409  0.4400 -0.8927
  335MOL0     H44215   4.172   8.073  -0.244 -0.6807  0.1443  1.5829
  335MOL0     H44216   4.249   8.334  -0.372  1.2304 -0.0826  1.4214
  335MOL0     H44217   4.351   8.186  -0.371  0.9173  2.2062  1.4792
  335MOL0     H44218   4.084   8.117  -0.683  1.0100 -0.0648  0.3928
  335MOL0     H44219   4.228   8.564   0.223  0.1891  1.9822  0.3857
  335MOL0     H44220   4.045   8.708   0.314 -2.8136 -0.2528  0.1335
  336MOL0     O44221   2.968   0.207   6.038 -0.3319 -0.2307 -0.2426
  336MOL0     C44222   2.964   0.091   6.075  0.4064 -0.3218  0.0794
  336MOL0     O44223   2.910  -0.016   6.006 -0.7002  0.8275  0.5356
  336MOL0     C44224   2.834  -0.006   5.893 -0.2570  0.5000  0.0615
  336MOL0     C44225   2.725  -0.086   5.877  0.6821 -0.4209 -0.2079
  336MOL0     C44226   2.655  -0.085   5.760 -0.3422  0.1169 -0.5256
  336MOL0     C44227   2.680   0.011   5.662  0.1954  0.2510 -0.3469
  336MOL0     O44228   2.605   0.028   5.547  0.0181 -0.7568 -0.0482
  336MOL0     C44229   2.540  -0.090   5.504  0.4162  0.4061  0.7323
  336MOL0     C44230   2.484  -0.058   5.364 -0.0797 -0.7645 -0.2301
  336MOL0     C44231   2.425  -0.183   5.293  0.2883  0.0769 -0.5596
  336MOL0     C44232   2.355  -0.145   5.164 -0.4304  1.1161  1.0982
  336MOL0     C44233   2.318  -0.270   5.076 -0.2503 -0.4755 -0.4796
  336MOL0     C44234   2.196  -0.340   5.139  0.4164  1.1144 -0.9174
  336MOL0     C44235   2.176  -0.463   5.065 -0.4170 -0.4935  0.2990
  336MOL0     C44236   2.037  -0.526   5.082 -0.3228 -1.3158  0.3480
  336MOL0     N44237   2.002  -0.542   5.222  0.0423  0.3982  0.2191
  336MOL0     C44238   2.067  -0.636   5.307  0.0973 -0.4643 -0.2333
  336MOL0     C44239   2.011  -0.616   5.429 -0.3280 -0.4104  0.1066
  336MOL0     C44240   2.054  -0.673   5.564  0.3602  0.2194 -0.3207
  336MOL0     C44241   1.977  -0.795   5.605  0.2636  0.7980  1.1719
  336MOL0     C44242   1.954  -0.784   5.760 -0.4389  0.3188 -0.1444
  336MOL0     C44243   1.872  -0.911   5.808  0.2791 -0.2124  0.8646
  336MOL0     O44244   1.851  -0.888   5.950  0.0613  0.3586  0.5385
  336MOL0     C44245   1.784  -0.984   6.030  0.4844  0.2305 -0.1029
  336MOL0     C44246   1.806  -0.966   6.167  0.6857  0.3022  0.2619
  336MOL0     C44247   1.723  -1.037   6.257  0.2031  0.3983  0.9763
  336MOL0     C44248   1.627  -1.131   6.210  1.2788 -1.0687  0.9112
  336MOL0     C44249   1.519  -1.182   6.298 -0.5539  0.3209 -0.0130
  336MOL0     O44250   1.551  -1.196   6.427  0.0554 -0.0694  0.4018
  336MOL0     C44251   1.455  -1.216   6.520  0.8471 -0.3382  0.8626
  336MOL0     C44252   1.374  -1.332   6.525 -0.5026  0.4207 -0.2980
  336MOL0     C44253   1.277  -1.352   6.625  0.0179 -0.6118  0.1353
  336MOL0     C44254   1.267  -1.259   6.725 -0.0409  0.1485 -0.3350
  336MOL0     O44255   1.159  -1.272   6.817 -0.1801 -0.2246  0.1517
  336MOL0     C44256   1.128  -1.403   6.868 -0.1032  0.4127  0.9502
  336MOL0     C44257   0.979  -1.415   6.882  0.6437  0.1463 -1.0388
  336MOL0     C44258   0.943  -1.532   6.969  0.4675  0.5291 -0.4342
  336MOL0     C44259   0.794  -1.548   6.988  1.0158 -0.1759 -0.1198
  336MOL0     C44260   0.736  -1.449   7.089 -0.2284  0.4804 -0.0983
  336MOL0     C44261   0.775  -1.477   7.229 -0.7954 -0.2231 -0.6474
  336MOL0     C44262   0.698  -1.386   7.321 -0.1668  0.0299 -0.4880
  336MOL0     C44263   0.729  -1.389   7.468  0.4059  1.2898 -0.6881
  336MOL0    Cl44264   0.669  -1.529   7.550 -0.5016 -0.1857 -0.0539
  336MOL0     C44265   1.339  -1.144   6.719 -0.5340  0.0582 -1.0018
  336MOL0     C44266   1.435  -1.125   6.622  1.3714 -0.0320  0.4617
  336MOL0     O44267   1.400  -1.196   6.250 -0.7878 -0.1523  0.8746
  336MOL0     C44268   1.628  -1.165   6.077  0.6112 -0.3185  0.5803
  336MOL0     C44269   1.710  -1.096   5.986 -0.7482 -1.1195 -0.6037
  336MOL0     N44270   1.935  -0.507   5.427  0.8946 -0.1007  0.1529
  336MOL0     N44271   1.927  -0.457   5.303  0.5423  0.1641  0.4731
  336MOL0     C44272   2.787   0.101   5.674  0.7518  0.2265 -0.4101
  336MOL0     C44273   2.871   0.080   5.790  0.1558 -0.8465  0.2834
  336MOL0     C44274   3.016   0.054   6.205 -0.8119  0.1754  0.0943
  336MOL0     C44275   3.067   0.147   6.298 -0.2679  0.2514  1.0166
  336MOL0     C44276   3.120   0.089   6.416  0.5082 -0.1222 -0.0787
  336MOL0     C44277   3.128  -0.040   6.451 -0.3030  0.8372 -0.0901
  336MOL0     O44278   3.173  -0.077   6.576  0.2686  0.1888 -0.0402
  336MOL0     C44279   3.214   0.022   6.672 -0.3843 -0.8942  0.3251
  336MOL0     C44280   3.340  -0.033   6.754 -0.1780 -0.4714 -0.3282
  336MOL0     C44281   3.460  -0.056   6.660  0.0786 -0.3792 -0.2357
  336MOL0     C44282   3.587  -0.128   6.723  0.1789 -0.1848 -0.0432
  336MOL0     C44283   3.692  -0.108   6.617  0.0109 -0.1880  0.3705
  336MOL0     C44284   3.766  -0.082   6.526 -0.3983 -0.4087  0.7198
  336MOL0     C44285   3.083  -0.128   6.359 -0.4828 -0.9132  0.7281
  336MOL0     C44286   3.029  -0.085   6.236 -0.7495  0.1167 -0.0968
  336MOL0     H44287   2.684  -0.148   5.956  0.7449  1.4257  1.3470
  336MOL0     H44288   2.567  -0.148   5.753 -1.6676  1.9745 -1.1049
  336MOL0     H44289   2.458  -0.114   5.571  1.2918 -3.9936  0.5060
  336MOL0     H44290   2.598  -0.182   5.504  0.6709  0.5586 -0.1737
  336MOL0     H44291   2.564  -0.021   5.299 -0.4565 -0.1265 -0.3409
  336MOL0     H44292   2.402   0.014   5.373  0.6092  0.1195 -0.8384
  336MOL0     H44293   2.351  -0.235   5.354  1.0932  1.2273  1.5014
  336MOL0     H44294   2.504  -0.250   5.256  1.2715  1.6124 -1.3562
  336MOL0     H44295   2.268  -0.084   5.190 -0.2579  1.1915  1.5009
  336MOL0     H44296   2.422  -0.083   5.103 -0.7328  0.6492  0.2778
  336MOL0     H44297   2.400  -0.343   5.085 -0.8890 -1.1292  0.2272
  336MOL0     H44298   2.298  -0.242   4.973 -1.9290 -3.1462 -0.9895
  336MOL0     H44299   2.104  -0.282   5.142 -1.0879 -0.9690  4.5328
  336MOL0     H44300   2.212  -0.364   5.245 -2.5135  0.0075 -0.6335
  336MOL0     H44301   2.183  -0.440   4.958 -1.0993 -0.0336  0.3519
  336MOL0     H44302   2.253  -0.537   5.090 -1.2855 -0.9010  1.9162
  336MOL0     H44303   2.039  -0.623   5.032 -0.9610 -1.1710  0.0299
  336MOL0     H44304   1.966  -0.451   5.045  0.5708  0.9715  2.8724
  336MOL0     H44305   2.132  -0.717   5.278  0.3880 -0.5634  0.6731
  336MOL0     H44306   2.041  -0.599   5.643  2.6325 -1.3101  1.6624
  336MOL0     H44307   2.162  -0.691   5.556  0.0645 -1.7852 -0.4377
  336MOL0     H44308   2.038  -0.881   5.576 -1.2734  0.3327 -0.9401
  336MOL0     H44309   1.887  -0.783   5.543  2.0028  4.4251 -1.0325
  336MOL0     H44310   2.050  -0.782   5.812 -0.8226 -1.6172  0.7102
  336MOL0     H44311   1.897  -0.694   5.784 -0.8826  0.0983 -0.3563
  336MOL0     H44312   1.915  -1.009   5.785 -2.3322 -1.4553  0.8659
  336MOL0     H44313   1.776  -0.908   5.755  1.1223 -3.7091 -1.1477
  336MOL0     H44314   1.884  -0.894   6.188  0.0384  1.0720  0.1051
  336MOL0     H44315   1.727  -1.016   6.363 -1.2845 -1.7135  1.5142
  336MOL0     H44316   1.396  -1.413   6.456 -2.0188 -0.0093 -0.3111
  336MOL0     H44317   1.213  -1.438   6.611 -0.9787 -0.1696  1.7387
  336MOL0     H44318   1.182  -1.420   6.962  1.8360 -0.3193 -0.2372
  336MOL0     H44319   1.159  -1.482   6.800 -2.7568  0.0549  0.0536
  336MOL0     H44320   0.938  -1.418   6.781  1.2910  1.2351 -1.3546
  336MOL0     H44321   0.949  -1.322   6.932  1.0058 -1.2069  1.9596
  336MOL0     H44322   0.990  -1.519   7.067 -2.5432  1.6819  0.9747
  336MOL0     H44323   0.990  -1.620   6.923  1.2659  0.8995 -0.3461
  336MOL0     H44324   0.750  -1.533   6.889  3.2361  0.6956 -1.0474
  336MOL0     H44325   0.767  -1.643   7.034  1.1433  0.4381  1.2687
  336MOL0     H44326   0.628  -1.444   7.073 -0.2595 -0.8708 -0.4406
  336MOL0     H44327   0.775  -1.352   7.058 -0.3881  0.2767 -0.9855
  336MOL0     H44328   0.882  -1.456   7.243 -0.1397 -2.8218 -1.2644
  336MOL0     H44329   0.764  -1.581   7.261 -0.6877  0.1829  0.8143
  336MOL0     H44330   0.718  -1.282   7.295 -0.6849  0.5911  1.2025
  336MOL0     H44331   0.595  -1.406   7.292 -0.8588  0.2927  1.6008
  336MOL0     H44332   0.683  -1.298   7.508  0.9104  2.2394 -2.1721
  336MOL0     H44333   0.836  -1.377   7.486  0.5652  1.0765 -1.4840
  336MOL0     H44334   1.322  -1.073   6.800 -1.4469  0.4329 -1.5059
  336MOL0     H44335   1.488  -1.030   6.615 -1.1874  1.4102 -0.9124
  336MOL0     H44336   1.567  -1.247   6.042 -1.2313  0.6496  1.4107
  336MOL0     H44337   1.705  -1.122   5.881 -1.1373 -1.9022 -0.3988
  336MOL0     H44338   2.795   0.179   5.600  0.0321  0.1675 -0.5586
  336MOL0     H44339   2.968   0.128   5.798 -0.4306  0.1050  1.9547
  336MOL0     H44340   3.072   0.255   6.288 -1.9147  0.3750  1.3032
  336MOL0     H44341   3.165   0.170   6.472  2.1404 -1.5959  0.8164
  336MOL0     H44342   3.130   0.046   6.737  0.4912  2.7030  0.3118
  336MOL0     H44343   3.255   0.113   6.627 -0.8140  0.2813  2.2052
  336MOL0     H44344   3.369   0.043   6.828 -0.5690 -0.9599  0.3326
  336MOL0     H44345   3.316  -0.122   6.812  0.9230 -0.8540 -0.4336
  336MOL0     H44346   3.501   0.037   6.621  0.4877 -0.6907 -0.5533
  336MOL0     H44347   3.417  -0.116   6.579 -1.5584  0.6380 -0.1612
  336MOL0     H44348   3.628  -0.089   6.817  1.8811 -0.9780 -0.4134
  336MOL0     H44349   3.567  -0.235   6.732 -1.5877 -0.0362 -1.6326
  336MOL0     H44350   3.824  -0.055   6.440  0.2251 -2.6862  0.3621
  336MOL0     H44351   3.094  -0.234   6.382 -3.2383 -0.8395  2.8086
  336MOL0     H44352   2.992  -0.161   6.167 -4.1542  2.3079 -0.9468
  337MOL0     O44353   3.208   4.881   6.453 -0.2070 -0.0612 -0.1599
  337MOL0     C44354   3.305   4.818   6.411 -0.0189 -0.0928 -0.0309
  337MOL0     O44355   3.332   4.687   6.432  0.2040  0.0541  0.6614
  337MOL0     C44356   3.300   4.633   6.555 -0.2392 -0.0116  1.1859
  337MOL0     C44357   3.312   4.486   6.556 -0.0113 -0.2052 -0.0381
  337MOL0     C44358   3.285   4.409   6.674  1.1721  0.3969  0.3714
  337MOL0     C44359   3.233   4.474   6.788 -0.0089  0.1907 -0.1727
  337MOL0     O44360   3.196   4.405   6.903 -1.1327  0.2628 -0.1199
  337MOL0     C44361   3.057   4.391   6.927 -0.7164  0.4310  0.6782
  337MOL0     C44362   3.014   4.250   6.971  0.6058  0.3351  0.1412
  337MOL0     C44363   3.025   4.155   6.844  0.1875 -0.0922 -0.2775
  337MOL0     C44364   2.985   4.016   6.891 -0.6562  0.3959 -1.0325
  337MOL0     C44365   2.837   4.006   6.906  0.0283  0.0209 -0.2620
  337MOL0     C44366   2.789   3.856   6.940 -0.3580 -0.6553 -0.2594
  337MOL0     C44367   2.646   3.837   6.902 -0.2933  0.5893  0.0688
  337MOL0     C44368   2.602   3.685   6.915 -0.1163 -0.9982  0.2859
  337MOL0     N44369   2.664   3.606   6.811  0.2319 -0.7829 -0.5861
  337MOL0     C44370   2.790   3.553   6.809 -1.0746 -0.1721 -0.0738
  337MOL0     C44371   2.798   3.479   6.698 -0.1758 -0.2030  0.3578
  337MOL0     C44372   2.921   3.404   6.649  0.6216 -0.8282 -0.2220
  337MOL0     C44373   2.924   3.378   6.499  0.0005  0.3108 -0.1473
  337MOL0     C44374   3.066   3.337   6.439  0.8098  0.2528  0.3899
  337MOL0     C44375   3.123   3.191   6.462 -0.4633  0.8143 -0.4971
  337MOL0     O44376   3.263   3.196   6.431 -0.1129 -0.4354 -0.1325
  337MOL0     C44377   3.327   3.077   6.391  0.2012  0.0029 -0.5843
  337MOL0     C44378   3.444   3.086   6.310 -0.5417 -0.3372 -0.1815
  337MOL0     C44379   3.522   2.977   6.265  0.0846  0.0323 -0.6122
  337MOL0     C44380   3.484   2.851   6.316 -0.1120  0.8100  0.4709
  337MOL0     C44381   3.576   2.730   6.283  0.2672 -0.2763 -0.9438
  337MOL0     O44382   3.553   2.616   6.361 -0.1480  0.3414  0.1305
  337MOL0     C44383   3.629   2.495   6.353  0.5320  0.3750 -0.0258
  337MOL0     C44384   3.570   2.379   6.401 -0.3900 -0.6450 -0.4682
  337MOL0     C44385   3.633   2.258   6.381  0.8428 -0.1880  0.1383
  337MOL0     C44386   3.756   2.242   6.316  0.2852  0.9368 -0.5403
  337MOL0     O44387   3.798   2.116   6.291  0.3913 -0.6266  0.0128
  337MOL0     C44388   3.888   2.103   6.178  0.3150 -0.2970 -0.1150
  337MOL0     C44389   3.883   1.950   6.135  0.1766 -0.0457 -0.6499
  337MOL0     C44390   3.950   1.861   6.240  0.4442 -0.2870 -0.2733
  337MOL0     C44391   3.917   1.712   6.231  0.5608 -0.4461 -0.1369
  337MOL0     C44392   4.008   1.619   6.311  0.0702  0.3572 -0.6954
  337MOL0     C44393   4.155   1.637   6.285 -0.3353 -0.7604  0.3275
  337MOL0     C44394   4.240   1.520   6.338  1.2405  0.0791  0.1473
  337MOL0     C44395   4.390   1.540   6.308 -0.2946 -0.7224  0.0162
  337MOL0    Cl44396   4.428   1.523   6.133 -0.1464 -0.7069 -0.2072
  337MOL0     C44397   3.823   2.358   6.276  1.0587  0.7485 -0.2378
  337MOL0     C44398   3.759   2.488   6.293  0.2071 -0.4629 -0.3992
  337MOL0     O44399   3.665   2.738   6.197 -0.1531 -0.6000 -0.2039
  337MOL0     C44400   3.363   2.839   6.389 -0.3548 -0.1799  0.4336
  337MOL0     C44401   3.286   2.946   6.429  0.5424  0.7676  0.4723
  337MOL0     N44402   2.675   3.480   6.636  0.2999 -0.9086  0.3638
  337MOL0     N44403   2.602   3.567   6.698 -0.5287 -0.7886  0.3327
  337MOL0     C44404   3.225   4.616   6.789 -0.7343  0.1063 -0.6615
  337MOL0     C44405   3.257   4.690   6.673  0.6609 -0.4207 -0.5821
  337MOL0     C44406   3.416   4.881   6.332 -0.5761 -0.3511  0.4274
  337MOL0     C44407   3.397   5.015   6.294  0.3564  0.3196  0.1243
  337MOL0     C44408   3.491   5.078   6.217 -0.2834  0.1700  0.7742
  337MOL0     C44409   3.609   5.011   6.176  0.9718  0.8526 -0.1175
  337MOL0     O44410   3.694   5.075   6.092 -0.1657  0.2611  0.0717
  337MOL0     C44411   3.834   5.072   6.130 -0.0940 -0.2099 -0.2644
  337MOL0     C44412   3.906   5.030   6.003 -0.1689  0.6056  0.0372
  337MOL0     C44413   4.053   5.028   6.041  0.6798  0.1692 -0.0566
  337MOL0     C44414   4.132   5.018   5.914 -0.3868 -0.2644  0.2952
  337MOL0     C44415   4.088   4.932   5.800 -0.0199 -0.3148 -0.1557
  337MOL0     C44416   4.044   4.858   5.717 -0.0207 -0.1413  0.4190
  337MOL0     C44417   3.626   4.872   6.205  0.8233 -0.3809 -0.6553
  337MOL0     C44418   3.535   4.808   6.292  0.3358 -0.2015 -0.4972
  337MOL0     H44419   3.343   4.432   6.467  0.3768 -1.5123  0.8652
  337MOL0     H44420   3.284   4.302   6.687 -0.9683  0.5719  2.2387
  337MOL0     H44421   3.002   4.416   6.835 -0.1642 -1.7546 -0.2839
  337MOL0     H44422   3.039   4.473   6.999  2.2712  0.5061  1.4577
  337MOL0     H44423   2.911   4.246   7.008  1.5270 -2.4195  2.8277
  337MOL0     H44424   3.076   4.207   7.051  0.7064  0.2828  0.0353
  337MOL0     H44425   3.125   4.158   6.799 -0.1010 -2.2600 -1.1841
  337MOL0     H44426   2.953   4.184   6.768 -0.6101 -1.3344 -0.0304
  337MOL0     H44427   3.018   3.945   6.813 -1.1194  1.0698 -1.8594
  337MOL0     H44428   3.033   3.991   6.986  1.3637 -0.7132 -2.2467
  337MOL0     H44429   2.787   4.050   6.820 -3.9440  2.3736  2.9327
  337MOL0     H44430   2.805   4.063   6.993 -0.9256  1.5676 -1.5776
  337MOL0     H44431   2.804   3.839   7.047  1.2852  1.7010 -0.0343
  337MOL0     H44432   2.846   3.783   6.882 -0.7482  1.7040 -3.9828
  337MOL0     H44433   2.579   3.886   6.974 -0.9451 -2.1483  1.4747
  337MOL0     H44434   2.630   3.877   6.802  1.8102  4.2119  0.9927
  337MOL0     H44435   2.494   3.681   6.903 -0.2227  1.1768  0.0534
  337MOL0     H44436   2.632   3.642   7.011 -0.2028 -1.3771  0.1413
  337MOL0     H44437   2.862   3.554   6.890  0.5028  1.3060 -1.4281
  337MOL0     H44438   2.908   3.310   6.702 -2.0871 -1.2460 -1.4510
  337MOL0     H44439   3.010   3.453   6.689  0.3004  0.0849 -0.5798
  337MOL0     H44440   2.892   3.464   6.439  0.9879 -0.7358 -2.2938
  337MOL0     H44441   2.855   3.296   6.481 -0.2336  0.2708  0.8522
  337MOL0     H44442   3.065   3.366   6.334 -1.8751  2.5025  0.8852
  337MOL0     H44443   3.130   3.414   6.484 -2.9321  1.2076  4.9382
  337MOL0     H44444   3.058   3.127   6.401  0.3354 -0.0912 -0.4074
  337MOL0     H44445   3.112   3.157   6.565 -2.5207 -0.4368 -1.0749
  337MOL0     H44446   3.482   3.184   6.283  1.4713 -1.5403 -2.0297
  337MOL0     H44447   3.605   2.996   6.198 -0.2965  2.7489 -0.4392
  337MOL0     H44448   3.475   2.381   6.453  0.6930  0.1024  1.6023
  337MOL0     H44449   3.576   2.176   6.424 -1.0394  1.5733  1.1696
  337MOL0     H44450   3.993   2.118   6.204 -0.0250  0.0808  1.0788
  337MOL0     H44451   3.861   2.169   6.095  1.4598  1.9731  1.2029
  337MOL0     H44452   3.935   1.943   6.039  2.2703 -1.9988  0.5119
  337MOL0     H44453   3.775   1.932   6.126  0.0694  0.7909 -1.1286
  337MOL0     H44454   3.931   1.890   6.344 -1.4461 -1.6668 -0.1607
  337MOL0     H44455   4.058   1.868   6.228  0.4220 -1.3147 -1.3370
  337MOL0     H44456   3.815   1.692   6.265  0.8291 -1.5545  0.0577
  337MOL0     H44457   3.921   1.674   6.129 -0.6786 -3.6600  0.8550
  337MOL0     H44458   3.966   1.518   6.304 -1.9455  1.0832  0.1515
  337MOL0     H44459   3.981   1.646   6.414  0.0248  1.4145 -0.9750
  337MOL0     H44460   4.191   1.732   6.327 -0.3594 -0.2468 -0.7668
  337MOL0     H44461   4.179   1.655   6.179 -1.0372  0.9724  0.4227
  337MOL0     H44462   4.232   1.509   6.447  1.8143 -1.7196  0.0444
  337MOL0     H44463   4.222   1.431   6.277 -1.3325  1.6276 -1.5777
  337MOL0     H44464   4.449   1.467   6.364  2.3266 -0.0443 -1.6758
  337MOL0     H44465   4.420   1.641   6.337  0.9128 -1.1950  0.4843
  337MOL0     H44466   3.925   2.351   6.240  1.3479 -2.8538  0.8316
  337MOL0     H44467   3.814   2.578   6.265  0.1705 -0.2288  0.2709
  337MOL0     H44468   3.338   2.742   6.430  2.7105 -1.5466 -0.6049
  337MOL0     H44469   3.198   2.937   6.491 -0.5414  0.2455 -1.0765
  337MOL0     H44470   3.200   4.653   6.888  0.9698  1.3673 -0.6608
  337MOL0     H44471   3.254   4.797   6.693 -0.8433 -0.5250 -0.0984
  337MOL0     H44472   3.301   5.058   6.320 -0.0438 -0.0795 -0.6846
  337MOL0     H44473   3.469   5.176   6.175  1.0805 -0.2981 -1.1970
  337MOL0     H44474   3.856   4.990   6.200 -2.8578 -2.5620 -1.9278
  337MOL0     H44475   3.861   5.169   6.173 -1.0313  0.3599 -0.9274
  337MOL0     H44476   3.875   4.927   5.980  1.1814 -0.5463  2.9364
  337MOL0     H44477   3.881   5.085   5.911 -1.2971 -2.5675 -1.7442
  337MOL0     H44478   4.072   4.937   6.099 -1.4421 -0.4059 -0.1797
  337MOL0     H44479   4.079   5.125   6.084  0.4977  2.3257 -4.2756
  337MOL0     H44480   4.139   5.123   5.884 -3.1955 -0.1332 -0.1027
  337MOL0     H44481   4.234   4.982   5.933 -0.0373  0.7458  0.3816
  337MOL0     H44482   4.005   4.784   5.650 -1.1341  2.0893 -1.5044
  337MOL0     H44483   3.698   4.818   6.144 -2.4299 -2.8161 -2.6443
  337MOL0     H44484   3.551   4.702   6.308  1.9319 -0.0303 -0.7978
  338MOL0     O44485   4.098   4.117   0.155 -0.0041 -0.6947  0.4409
  338MOL0     C44486   4.106   4.148   0.035  0.5594 -0.3789 -0.8007
  338MOL0     O44487   4.022   4.111  -0.060 -0.5411  0.2202 -0.6743
  338MOL0     C44488   3.892   4.063  -0.040 -0.3534 -0.2826  0.0386
  338MOL0     C44489   3.831   4.032   0.082 -0.1565  0.1736  0.2176
  338MOL0     C44490   3.695   3.981   0.091  0.4136 -0.0922 -0.9922
  338MOL0     C44491   3.621   3.960  -0.028 -1.2041  0.7631  0.2628
  338MOL0     O44492   3.499   3.911  -0.007  0.3051 -0.0949  0.2015
  338MOL0     C44493   3.421   3.876  -0.126  0.2029 -0.3248  0.2881
  338MOL0     C44494   3.292   3.793  -0.102 -0.2341  0.0946 -0.7927
  338MOL0     C44495   3.204   3.796  -0.224  0.8488  0.0740 -0.8741
  338MOL0     C44496   3.095   3.695  -0.210 -0.4211  0.0128 -0.4940
  338MOL0     C44497   2.968   3.719  -0.294 -0.0637 -0.2460  0.4295
  338MOL0     C44498   2.860   3.614  -0.262 -0.1413 -0.2222 -0.0223
  338MOL0     C44499   2.756   3.610  -0.382  0.0991 -0.6012 -0.9123
  338MOL0     C44500   2.640   3.707  -0.372  0.3446 -0.1627 -0.3771
  338MOL0     N44501   2.565   3.719  -0.506 -0.3140 -0.1466 -0.0398
  338MOL0     C44502   2.442   3.779  -0.524 -0.3411 -0.0976  0.4230
  338MOL0     C44503   2.402   3.754  -0.648 -0.2294  0.0742  0.3749
  338MOL0     C44504   2.267   3.797  -0.708  0.0721 -0.4939 -0.5497
  338MOL0     C44505   2.143   3.795  -0.606  0.7837  0.5697 -0.1712
  338MOL0     C44506   2.023   3.844  -0.692 -0.4027  0.2434 -0.9616
  338MOL0     C44507   1.892   3.810  -0.623 -0.0440  0.7306 -0.4392
  338MOL0     O44508   1.900   3.857  -0.486  0.5680 -0.0224  0.3131
  338MOL0     C44509   1.782   3.876  -0.420 -0.3834  0.1816  0.5870
  338MOL0     C44510   1.781   3.993  -0.336  0.1185  0.0754 -0.0288
  338MOL0     C44511   1.668   4.011  -0.256  0.4184 -0.3936 -0.9280
  338MOL0     C44512   1.551   3.927  -0.263 -0.0864  0.0353 -0.3188
  338MOL0     C44513   1.434   3.961  -0.175 -0.1833 -0.4289  0.1309
  338MOL0     O44514   1.454   4.021  -0.055 -0.8408 -0.0429 -0.0674
  338MOL0     C44515   1.356   4.034   0.035  0.3009 -0.0932  0.1356
  338MOL0     C44516   1.385   4.134   0.125  0.0293  0.0334 -0.4710
  338MOL0     C44517   1.303   4.168   0.229 -0.0056  0.1961  0.3841
  338MOL0     C44518   1.192   4.090   0.258  0.2322 -0.8167 -0.0440
  338MOL0     O44519   1.127   4.115   0.379 -0.0156  0.3593  0.0545
  338MOL0     C44520   1.114   4.244   0.443  0.9566  0.0996  0.1599
  338MOL0     C44521   1.040   4.230   0.578  1.0392  0.0041 -0.6138
  338MOL0     C44522   1.100   4.135   0.684  0.5322  0.5860  0.3424
  338MOL0     C44523   1.247   4.136   0.711  0.2703  0.5877 -0.9913
  338MOL0     C44524   1.284   4.060   0.838 -0.1860 -0.9741 -0.1592
  338MOL0     C44525   1.248   4.152   0.958  0.0154 -0.2967 -0.9542
  338MOL0     C44526   1.293   4.094   1.086 -0.0826 -0.0217 -0.3232
  338MOL0     C44527   1.290   4.206   1.194 -0.7106 -0.0912  0.6363
  338MOL0    Cl44528   1.275   4.120   1.337 -0.2443  0.3286 -0.3827
  338MOL0     C44529   1.162   3.976   0.175  0.1086 -1.1885 -0.1783
  338MOL0     C44530   1.249   3.947   0.066  0.0887  0.3013  0.3777
  338MOL0     O44531   1.322   3.939  -0.222  0.6241 -0.2460  0.4712
  338MOL0     C44532   1.549   3.821  -0.362  0.4037 -0.1366  0.2714
  338MOL0     C44533   1.662   3.807  -0.442  0.2736 -0.4792  0.0599
  338MOL0     N44534   2.490   3.666  -0.709  1.6235  0.2924 -0.2861
  338MOL0     N44535   2.586   3.648  -0.621  0.1539 -0.7475 -0.0018
  338MOL0     C44536   3.683   3.993  -0.154  0.2111  0.3481 -0.4296
  338MOL0     C44537   3.813   4.046  -0.157  0.1899 -0.3902  1.1333
  338MOL0     C44538   4.222   4.226  -0.005 -0.2791 -0.2764  0.6263
  338MOL0     C44539   4.244   4.254  -0.150  0.5100 -1.2509  0.1855
  338MOL0     C44540   4.348   4.338  -0.187  0.4992  0.8956  0.1401
  338MOL0     C44541   4.443   4.364  -0.087 -0.3506 -0.8175  0.2867
  338MOL0     O44542   4.568   4.416  -0.119 -0.2391 -0.4513 -0.5533
  338MOL0     C44543   4.604   4.458  -0.249  0.0116  0.2194  0.0827
  338MOL0     C44544   4.748   4.491  -0.241 -0.4290 -0.3605  0.0969
  338MOL0     C44545   4.810   4.521  -0.381 -0.2255 -0.4699 -0.1791
  338MOL0     C44546   4.823   4.406  -0.477  0.0997  0.7554 -0.1725
  338MOL0     C44547   4.869   4.459  -0.604 -1.5115  0.9963  0.1100
  338MOL0     C44548   4.921   4.494  -0.709  0.1094  0.5023  0.2171
  338MOL0     C44549   4.423   4.349   0.048  0.0398  0.3642 -0.4045
  338MOL0     C44550   4.307   4.280   0.090  0.4543 -0.7852 -0.5828
  338MOL0     H44551   3.883   4.043   0.176  1.0208 -2.2169 -0.0607
  338MOL0     H44552   3.650   3.964   0.188  0.4687 -0.4217 -1.0227
  338MOL0     H44553   3.488   3.813  -0.186  0.9582  0.0209  0.7516
  338MOL0     H44554   3.395   3.969  -0.177  1.3199  0.7895  1.6912
  338MOL0     H44555   3.237   3.837  -0.018 -0.4345  0.0713 -0.9119
  338MOL0     H44556   3.336   3.698  -0.070  0.2721 -0.1230 -2.0462
  338MOL0     H44557   3.258   3.781  -0.318  0.7516  1.9272 -1.2585
  338MOL0     H44558   3.157   3.894  -0.224 -0.0975 -0.3525  0.1372
  338MOL0     H44559   3.133   3.597  -0.241  1.6075  0.9354 -1.0882
  338MOL0     H44560   3.066   3.692  -0.105  1.2536  1.7364  0.0506
  338MOL0     H44561   2.994   3.723  -0.400  2.2979 -0.0076  0.9613
  338MOL0     H44562   2.924   3.816  -0.270  1.7601  0.3834  1.4966
  338MOL0     H44563   2.819   3.630  -0.162  0.4673  1.8018 -0.0511
  338MOL0     H44564   2.909   3.516  -0.251  0.1943  0.0505  1.0936
  338MOL0     H44565   2.810   3.623  -0.476 -0.9049  0.7415 -1.3341
  338MOL0     H44566   2.711   3.511  -0.397 -2.8501  0.2941  1.0826
  338MOL0     H44567   2.669   3.810  -0.347  1.9591 -0.6521 -0.1269
  338MOL0     H44568   2.570   3.666  -0.300  0.5644 -1.1826 -0.7251
  338MOL0     H44569   2.391   3.837  -0.448 -2.1283  0.2448 -0.9603
  338MOL0     H44570   2.252   3.750  -0.805  0.7742  0.3823 -1.0947
  338MOL0     H44571   2.292   3.903  -0.719  0.0560 -0.2504  1.3934
  338MOL0     H44572   2.175   3.863  -0.526 -1.5655  1.1888  0.2948
  338MOL0     H44573   2.140   3.692  -0.572  0.3774  0.5170 -0.3596
  338MOL0     H44574   2.030   3.950  -0.715  0.2592  1.0042  2.2785
  338MOL0     H44575   2.036   3.800  -0.792  1.8309  3.1470 -2.0694
  338MOL0     H44576   1.886   3.701  -0.621  0.7352  0.6401 -1.7902
  338MOL0     H44577   1.804   3.850  -0.674 -2.9484 -2.9999  1.1574
  338MOL0     H44578   1.870   4.055  -0.339 -0.2704  0.6828  0.6209
  338MOL0     H44579   1.673   4.095  -0.186  2.0273  0.0144 -1.4854
  338MOL0     H44580   1.473   4.196   0.108  2.4610 -2.6190  1.4325
  338MOL0     H44581   1.338   4.245   0.297 -0.0182 -0.8605  1.6158
  338MOL0     H44582   1.063   4.310   0.372  0.5775 -1.1125 -0.7267
  338MOL0     H44583   1.212   4.285   0.469 -0.5452  2.9569  1.7104
  338MOL0     H44584   0.936   4.205   0.554  0.9039 -0.1943  0.1658
  338MOL0     H44585   1.041   4.332   0.618 -3.0425 -0.5264  1.4395
  338MOL0     H44586   1.079   4.031   0.659  0.9260  0.3476  0.9784
  338MOL0     H44587   1.044   4.156   0.775 -1.1257 -1.7293 -0.0574
  338MOL0     H44588   1.284   4.080   0.625 -0.6872 -0.8749 -0.4924
  338MOL0     H44589   1.300   4.232   0.705  0.2224  0.5169 -3.6953
  338MOL0     H44590   1.390   4.036   0.839  0.6268  2.1764  1.8243
  338MOL0     H44591   1.231   3.965   0.850  0.2387 -1.2323 -0.3221
  338MOL0     H44592   1.141   4.174   0.973  0.7322  1.1277  4.2075
  338MOL0     H44593   1.300   4.246   0.939 -0.0022  0.9131  3.6429
  338MOL0     H44594   1.229   4.008   1.111  0.1207 -0.6004 -1.7063
  338MOL0     H44595   1.396   4.059   1.074 -0.1817  0.1404 -1.8471
  338MOL0     H44596   1.199   4.264   1.176 -1.3687 -1.8550 -2.4280
  338MOL0     H44597   1.382   4.264   1.197  0.4358 -1.8178  0.4462
  338MOL0     H44598   1.077   3.918   0.207 -2.4080  2.4853  0.4765
  338MOL0     H44599   1.228   3.854   0.014  0.4555  0.7975 -0.6908
  338MOL0     H44600   1.463   3.758  -0.382 -0.2669  1.4688 -2.5337
  338MOL0     H44601   1.667   3.732  -0.520 -2.1622  0.4042 -1.0328
  338MOL0     H44602   3.615   3.989  -0.239  1.4397  1.9027 -1.5307
  338MOL0     H44603   3.847   4.076  -0.255 -1.1770  1.3569  1.1556
  338MOL0     H44604   4.167   4.234  -0.224 -0.8730 -1.4527  1.6301
  338MOL0     H44605   4.353   4.360  -0.293 -2.4712 -2.8749 -1.0388
  338MOL0     H44606   4.546   4.546  -0.278 -0.0418 -0.4619 -2.0373
  338MOL0     H44607   4.578   4.380  -0.320 -2.3623  1.5478 -0.6015
  338MOL0     H44608   4.765   4.574  -0.172 -0.0413 -1.3403  1.2043
  338MOL0     H44609   4.802   4.402  -0.206  2.3711  1.2950  0.2761
  338MOL0     H44610   4.910   4.566  -0.371 -0.4807  0.1508 -0.3552
  338MOL0     H44611   4.742   4.597  -0.421  0.3894 -0.1794 -0.6986
  338MOL0     H44612   4.899   4.341  -0.433 -0.0888 -1.1580 -2.4745
  338MOL0     H44613   4.724   4.360  -0.487 -1.0244  3.1271 -0.6045
  338MOL0     H44614   4.949   4.519  -0.809 -1.9428 -0.9615 -0.8074
  338MOL0     H44615   4.503   4.372   0.117  1.6735 -1.7359 -1.4742
  338MOL0     H44616   4.276   4.266   0.193  1.2419 -1.6647 -0.4510
  339MOL0     O44617   5.500   3.312   2.084 -0.0107 -0.2105  0.0412
  339MOL0     C44618   5.542   3.343   2.194 -0.8344 -0.3841  0.3255
  339MOL0     O44619   5.470   3.358   2.305 -0.4038 -0.0509 -0.0439
  339MOL0     C44620   5.335   3.389   2.298 -0.8682  0.5261 -0.2202
  339MOL0     C44621   5.242   3.285   2.283 -0.1532 -0.1784 -0.6250
  339MOL0     C44622   5.114   3.316   2.309  0.1034 -0.3021 -0.1472
  339MOL0     C44623   5.072   3.442   2.338  0.4667 -0.2232  0.0638
  339MOL0     O44624   4.949   3.484   2.386  0.5160  0.0184  0.7354
  339MOL0     C44625   4.839   3.393   2.360  0.4950 -0.5367  0.1347
  339MOL0     C44626   4.697   3.462   2.368  0.0421  1.1959 -0.6002
  339MOL0     C44627   4.682   3.509   2.508  0.0059 -0.0743 -0.9145
  339MOL0     C44628   4.543   3.540   2.539 -0.5745 -0.4537  0.2014
  339MOL0     C44629   4.512   3.521   2.690  0.0066 -0.1670 -0.2046
  339MOL0     C44630   4.375   3.583   2.726 -0.2530  0.7229 -0.1178
  339MOL0     C44631   4.264   3.532   2.639  0.2429  0.5214  0.1422
  339MOL0     C44632   4.120   3.579   2.682 -0.3534  0.1453 -0.3359
  339MOL0     N44633   4.121   3.718   2.721  0.1294  0.2742  0.1474
  339MOL0     C44634   4.123   3.761   2.848  0.6789  0.0710 -0.4172
  339MOL0     C44635   4.105   3.898   2.835 -0.7653  0.5739  0.4348
  339MOL0     C44636   4.084   3.995   2.950 -0.2446 -0.8311 -0.3254
  339MOL0     C44637   3.955   3.970   3.031  0.4635  0.1688  1.2134
  339MOL0     C44638   3.961   4.070   3.152  0.3287  0.8645  0.1934
  339MOL0     C44639   3.838   4.046   3.246  0.6721 -0.0786  0.1148
  339MOL0     O44640   3.713   4.075   3.182 -0.1296 -0.4603  1.0783
  339MOL0     C44641   3.598   4.015   3.229  0.1934 -0.6426  0.9653
  339MOL0     C44642   3.591   3.918   3.327  0.6094  0.2080 -0.5823
  339MOL0     C44643   3.460   3.879   3.376  0.2962 -0.2872  0.0186
  339MOL0     C44644   3.344   3.933   3.319  0.7188 -0.0339 -0.4559
  339MOL0     C44645   3.208   3.899   3.358  0.2958 -0.1515 -0.3220
  339MOL0     O44646   3.106   3.924   3.272 -0.1179 -0.0399 -0.4007
  339MOL0     C44647   2.979   3.874   3.302 -0.8086  0.3541  0.8055
  339MOL0     C44648   2.957   3.740   3.326 -0.8237 -0.2461  0.8794
  339MOL0     C44649   2.826   3.695   3.351  0.6158 -1.1243 -1.0221
  339MOL0     C44650   2.720   3.790   3.361  0.3487 -0.0962 -0.5479
  339MOL0     O44651   2.591   3.732   3.390 -0.2041  0.1701 -0.4274
  339MOL0     C44652   2.473   3.815   3.398  0.4289  0.2058  0.0286
  339MOL0     C44653   2.346   3.725   3.434 -0.5198  0.0968  0.7402
  339MOL0     C44654   2.383   3.635   3.549  0.1566  0.8806 -0.2250
  339MOL0     C44655   2.271   3.587   3.633  0.2190 -0.9327 -0.0952
  339MOL0     C44656   2.169   3.500   3.560 -0.3874 -0.1665 -0.5892
  339MOL0     C44657   2.061   3.463   3.664  0.2732  0.2783 -0.0504
  339MOL0     C44658   1.960   3.368   3.602  0.8769  0.6430  0.3874
  339MOL0     C44659   2.017   3.239   3.532 -0.2172 -0.0269 -0.1667
  339MOL0    Cl44660   2.120   3.145   3.651  0.1725 -0.4174  0.3778
  339MOL0     C44661   2.743   3.924   3.333 -0.5097  0.2511  0.5883
  339MOL0     C44662   2.875   3.970   3.309  0.8405 -0.1586 -0.1148
  339MOL0     O44663   3.195   3.851   3.471  0.1017 -0.0085  0.1883
  339MOL0     C44664   3.357   4.018   3.211  0.0323 -0.9947  0.0124
  339MOL0     C44665   3.488   4.064   3.164  1.0173  0.7493 -0.6172
  339MOL0     N44666   4.097   3.931   2.701  0.3439 -0.4813 -0.4459
  339MOL0     N44667   4.121   3.829   2.639  0.4632 -0.0836 -0.7639
  339MOL0     C44668   5.166   3.542   2.347  0.7430  0.1444 -0.2539
  339MOL0     C44669   5.296   3.520   2.322 -0.2312  0.4419  0.0497
  339MOL0     C44670   5.686   3.347   2.221 -0.6491  0.3215 -0.8733
  339MOL0     C44671   5.734   3.383   2.348  1.5166  0.3835  0.2518
  339MOL0     C44672   5.868   3.386   2.384 -0.0937 -0.4788  0.0660
  339MOL0     C44673   5.959   3.349   2.283  0.3009 -0.7438  0.4401
  339MOL0     O44674   6.093   3.315   2.297  0.7905  0.6081  0.7470
  339MOL0     C44675   6.151   3.338   2.421  0.0822  0.2655  0.6682
  339MOL0     C44676   6.287   3.272   2.419 -0.1301  0.3962  0.3284
  339MOL0     C44677   6.382   3.337   2.308  0.4834  0.2420 -0.4048
  339MOL0     C44678   6.517   3.262   2.313 -0.3428  0.1590  0.1999
  339MOL0     C44679   6.633   3.332   2.263  0.2691 -0.2644 -0.5982
  339MOL0     C44680   6.728   3.379   2.200  0.1757  0.5416 -0.7702
  339MOL0     C44681   5.912   3.319   2.156  0.8862 -0.4189 -0.3156
  339MOL0     C44682   5.774   3.314   2.120 -0.2289 -0.0333  0.3849
  339MOL0     H44683   5.263   3.181   2.257 -0.7017 -0.0880 -1.4677
  339MOL0     H44684   5.050   3.229   2.322  1.0179 -1.0063 -0.3311
  339MOL0     H44685   4.838   3.308   2.429  0.6388 -0.4856  0.1975
  339MOL0     H44686   4.846   3.351   2.259 -0.6710 -0.1739 -0.1155
  339MOL0     H44687   4.623   3.383   2.355 -0.6260  1.0485  3.0288
  339MOL0     H44688   4.687   3.543   2.295 -1.1792  0.4900 -1.2467
  339MOL0     H44689   4.742   3.596   2.538 -1.1500  0.8629 -1.2291
  339MOL0     H44690   4.706   3.427   2.576  1.0146  0.7269 -0.2585
  339MOL0     H44691   4.521   3.643   2.510 -2.6259 -1.4746 -2.2197
  339MOL0     H44692   4.483   3.471   2.478 -0.7225 -0.6807  0.5982
  339MOL0     H44693   4.595   3.557   2.751  1.3500 -0.1633 -1.9728
  339MOL0     H44694   4.501   3.413   2.697 -2.2291  0.0899  2.0717
  339MOL0     H44695   4.384   3.692   2.732 -2.9777  1.1759 -2.2603
  339MOL0     H44696   4.346   3.560   2.829 -0.7142 -2.4293 -0.8506
  339MOL0     H44697   4.281   3.565   2.537  1.7042 -2.4690 -0.6937
  339MOL0     H44698   4.254   3.423   2.633  2.2944 -0.0808  4.2260
  339MOL0     H44699   4.083   3.515   2.762  1.6266 -1.3666 -0.5504
  339MOL0     H44700   4.049   3.571   2.600 -0.1539 -3.1550 -0.3140
  339MOL0     H44701   4.132   3.704   2.940  0.7572  2.8441  1.4235
  339MOL0     H44702   4.076   4.091   2.897 -1.4606 -2.7728 -4.0315
  339MOL0     H44703   4.162   3.983   3.026  0.3259 -0.1395 -0.7821
  339MOL0     H44704   3.949   3.865   3.063  0.8791 -0.4568 -0.6276
  339MOL0     H44705   3.871   3.996   2.965  0.1420  1.5556  2.1276
  339MOL0     H44706   4.054   4.053   3.206 -1.2656 -1.3002  2.5100
  339MOL0     H44707   3.965   4.172   3.111 -0.1794 -0.0138 -2.2167
  339MOL0     H44708   3.842   4.105   3.338 -0.7991 -1.7730  1.3512
  339MOL0     H44709   3.840   3.944   3.285  0.1734  0.4244  1.5461
  339MOL0     H44710   3.679   3.875   3.373 -1.0329  0.3024  2.9523
  339MOL0     H44711   3.442   3.824   3.468 -0.8255  0.1381  0.0695
  339MOL0     H44712   3.038   3.668   3.323 -0.6650 -0.0984 -2.7539
  339MOL0     H44713   2.809   3.592   3.381 -1.6816 -0.2546  0.9660
  339MOL0     H44714   2.453   3.861   3.301  2.1489  0.6980 -0.1235
  339MOL0     H44715   2.494   3.895   3.469  0.2823 -0.7167  1.1503
  339MOL0     H44716   2.316   3.665   3.347  1.0727 -1.3819  1.1590
  339MOL0     H44717   2.262   3.788   3.465 -1.7992 -1.8007  1.3211
  339MOL0     H44718   2.454   3.696   3.604  0.8541 -0.0235 -0.0912
  339MOL0     H44719   2.442   3.549   3.513  0.1053  1.4699 -1.7885
  339MOL0     H44720   2.311   3.533   3.719  0.2277 -3.7650 -1.7384
  339MOL0     H44721   2.221   3.676   3.672  0.6244 -0.9625  0.5093
  339MOL0     H44722   2.230   3.417   3.523  2.4172  1.4487  0.0788
  339MOL0     H44723   2.122   3.560   3.481  1.7918  1.0928 -1.0114
  339MOL0     H44724   1.998   3.543   3.704 -1.5240 -0.1153 -1.8718
  339MOL0     H44725   2.108   3.415   3.750 -2.0281  0.7624  1.5619
  339MOL0     H44726   1.879   3.333   3.667 -1.4074 -0.6645 -2.8845
  339MOL0     H44727   1.904   3.422   3.525  2.1424  2.8262  0.9091
  339MOL0     H44728   2.069   3.257   3.437  0.9935 -1.6818  0.1459
  339MOL0     H44729   1.932   3.174   3.512  1.4138 -2.1877 -0.3718
  339MOL0     H44730   2.658   3.992   3.336 -1.6755 -1.0669 -0.6104
  339MOL0     H44731   2.884   4.077   3.293 -0.9831 -0.1653 -1.4955
  339MOL0     H44732   3.269   4.051   3.155 -0.9894 -2.6980  0.5396
  339MOL0     H44733   3.495   4.136   3.083 -1.8221  0.9885 -0.7651
  339MOL0     H44734   5.134   3.631   2.399 -4.1554 -1.8480  0.6388
  339MOL0     H44735   5.367   3.602   2.333 -1.1288  1.4137 -1.0599
  339MOL0     H44736   5.665   3.420   2.423  1.4512  0.9475 -0.0807
  339MOL0     H44737   5.901   3.410   2.485  0.0155  2.4188 -0.5647
  339MOL0     H44738   6.095   3.292   2.502  2.2465  0.5009  2.3710
  339MOL0     H44739   6.156   3.445   2.444 -2.4308  1.2862 -2.7165
  339MOL0     H44740   6.337   3.276   2.516 -0.6929 -0.0132  0.6458
  339MOL0     H44741   6.266   3.167   2.397 -1.5947  1.1384 -2.3218
  339MOL0     H44742   6.409   3.438   2.342 -2.4993 -0.0970  3.8134
  339MOL0     H44743   6.334   3.333   2.210 -0.6307  3.4994 -0.1352
  339MOL0     H44744   6.535   3.240   2.419 -0.6224  0.8238  0.3952
  339MOL0     H44745   6.513   3.165   2.263 -1.2291 -0.3613  1.2164
  339MOL0     H44746   6.809   3.421   2.144 -0.2475  3.1693  0.4293
  339MOL0     H44747   5.986   3.283   2.085  2.0317  4.0307 -1.6968
  339MOL0     H44748   5.759   3.287   2.016  3.2319  0.1246 -0.2921
  340MOL0     O44749  10.898   4.363   1.123  0.7498 -0.4348  0.3396
  340MOL0     C44750  10.984   4.371   1.031  0.5499 -0.0114 -0.6003
  340MOL0     O44751  10.962   4.320   0.904 -0.4310 -0.1355  0.5661
  340MOL0     C44752  10.840   4.266   0.864  0.0446 -0.9879  0.6483
  340MOL0     C44753  10.710   4.298   0.911 -0.8546 -0.3507 -0.0080
  340MOL0     C44754  10.597   4.233   0.865  0.1327 -1.2157 -0.0465
  340MOL0     C44755  10.603   4.142   0.761 -0.5091  0.3871 -0.8705
  340MOL0     O44756  10.498   4.081   0.695 -0.2483  0.1569 -0.8964
  340MOL0     C44757  10.398   4.033   0.791 -0.4492  1.6164  0.5670
  340MOL0     C44758  10.267   4.119   0.799 -0.3022  0.1723  0.0186
  340MOL0     C44759  10.144   4.029   0.784  0.5721 -0.6981 -0.3457
  340MOL0     C44760  10.012   4.109   0.810  0.3680  0.1582  0.3261
  340MOL0     C44761   9.884   4.014   0.802 -0.3949 -0.7763 -0.4508
  340MOL0     C44762   9.775   4.099   0.875 -0.3173 -0.8891  0.4627
  340MOL0     C44763   9.651   4.019   0.902  0.7007  1.1136 -0.3129
  340MOL0     C44764   9.528   4.108   0.939 -0.4722  0.7978 -0.0192
  340MOL0     N44765   9.435   4.032   1.020  0.4764 -1.0560 -0.4289
  340MOL0     C44766   9.396   3.903   1.002  0.7202 -0.5016 -0.2105
  340MOL0     C44767   9.300   3.879   1.098 -0.2236 -0.3490  0.5480
  340MOL0     C44768   9.225   3.762   1.140 -0.8979 -0.4836  0.6678
  340MOL0     C44769   9.089   3.814   1.175  0.0241 -0.5660 -0.7115
  340MOL0     C44770   8.966   3.711   1.158  0.5750 -0.2193 -0.2750
  340MOL0     C44771   8.836   3.753   1.227  0.7921 -0.2733 -1.0009
  340MOL0     O44772   8.714   3.698   1.178 -0.0182 -0.5848  0.6324
  340MOL0     C44773   8.607   3.724   1.254  0.3773  0.0338 -0.1920
  340MOL0     C44774   8.599   3.813   1.365  0.7049 -0.5310  0.2177
  340MOL0     C44775   8.480   3.829   1.435 -0.1356 -0.0852  0.3289
  340MOL0     C44776   8.363   3.751   1.401  0.6652 -0.2194 -0.4170
  340MOL0     C44777   8.241   3.749   1.484  0.0079 -0.1998  0.0971
  340MOL0     O44778   8.144   3.642   1.464 -0.4847 -0.5656  0.2946
  340MOL0     C44779   8.023   3.630   1.532 -0.3209  0.5656 -0.1813
  340MOL0     C44780   7.930   3.542   1.479 -0.6123  0.3732  0.3581
  340MOL0     C44781   7.809   3.520   1.543  0.0481  0.7812  0.1005
  340MOL0     C44782   7.772   3.584   1.662  0.0112  0.2965  0.1728
  340MOL0     O44783   7.649   3.569   1.730  0.3681  1.5213 -0.1452
  340MOL0     C44784   7.554   3.480   1.664  0.1970 -0.8456 -0.2118
  340MOL0     C44785   7.417   3.526   1.721 -0.0178 -0.5595  0.0519
  340MOL0     C44786   7.370   3.469   1.857  0.1013  0.3040 -0.4381
  340MOL0     C44787   7.331   3.321   1.851  0.7345 -0.5453  0.0278
  340MOL0     C44788   7.291   3.263   1.991 -0.0507  0.2076 -0.0738
  340MOL0     C44789   7.149   3.310   2.024 -0.1412 -0.1071  0.6037
  340MOL0     C44790   7.111   3.269   2.160 -0.1030  1.0428 -0.1822
  340MOL0     C44791   7.055   3.127   2.166  0.1919 -0.3212 -0.0802
  340MOL0    Cl44792   6.901   3.117   2.083 -0.2792 -0.2417 -0.0028
  340MOL0     C44793   7.857   3.678   1.704 -0.8175 -0.5487 -0.2279
  340MOL0     C44794   7.981   3.708   1.643 -0.6379 -0.0538  0.5292
  340MOL0     O44795   8.241   3.832   1.573 -0.2468  0.2153 -0.2867
  340MOL0     C44796   8.372   3.663   1.298 -0.2031  0.5277  0.3054
  340MOL0     C44797   8.493   3.647   1.224 -0.3523  0.7322 -0.7303
  340MOL0     N44798   9.303   3.990   1.183  1.0077 -0.3431 -1.0042
  340MOL0     N44799   9.369   4.083   1.135 -0.0231 -0.6932  0.2134
  340MOL0     C44800  10.731   4.115   0.710  0.4212 -0.4669  0.2792
  340MOL0     C44801  10.848   4.182   0.751  0.0330  0.4796 -0.3461
  340MOL0     C44802  11.123   4.424   1.060  0.0907 -0.2570  0.1393
  340MOL0     C44803  11.226   4.404   0.971  0.6378  0.1821  0.5798
  340MOL0     C44804  11.354   4.452   0.989 -0.4938 -0.1219 -0.9762
  340MOL0     C44805  11.382   4.514   1.115 -0.4410 -0.6590 -1.3611
  340MOL0     O44806  11.500   4.555   1.162 -0.4951  0.5737 -0.5948
  340MOL0     C44807  11.616   4.485   1.101  0.2379  0.1839 -0.6592
  340MOL0     C44808  11.747   4.511   1.193  0.5192 -0.6187 -0.1321
  340MOL0     C44809  11.856   4.407   1.155  0.0311  0.2961  0.5103
  340MOL0     C44810  11.990   4.397   1.243 -0.0516  0.4249 -0.0546
  340MOL0     C44811  11.972   4.341   1.379 -0.1760  0.2018  0.9259
  340MOL0     C44812  11.948   4.294   1.484 -0.0981 -0.1780  0.0525
  340MOL0     C44813  11.286   4.516   1.211 -1.0319 -0.2317 -0.6397
  340MOL0     C44814  11.158   4.475   1.189  0.2255 -0.4157  0.7520
  340MOL0     H44815  10.699   4.375   0.987 -1.3936 -0.4341  0.0018
  340MOL0     H44816  10.504   4.262   0.912  0.4997 -0.0768 -0.0074
  340MOL0     H44817  10.439   4.022   0.892 -0.1439 -0.2058  0.2939
  340MOL0     H44818  10.375   3.930   0.760 -0.4247  0.6104  3.5538
  340MOL0     H44819  10.265   4.199   0.724 -1.4171 -1.6062 -1.9741
  340MOL0     H44820  10.259   4.172   0.894 -3.2095  0.2329 -0.1656
  340MOL0     H44821  10.144   3.951   0.860 -2.9187 -0.4042  0.1342
  340MOL0     H44822  10.145   3.982   0.685  0.4174 -0.1798 -0.6038
  340MOL0     H44823  10.013   4.157   0.908  0.5195  1.0640 -0.1051
  340MOL0     H44824  10.003   4.191   0.738 -2.2749  0.0946  0.4796
  340MOL0     H44825   9.902   3.916   0.847  1.3108  0.3000  1.4167
  340MOL0     H44826   9.852   3.983   0.702 -0.8952 -0.8107 -0.2800
  340MOL0     H44827   9.747   4.188   0.818  0.1341 -1.3451 -0.5039
  340MOL0     H44828   9.814   4.132   0.972 -0.0964  0.5522 -0.0891
  340MOL0     H44829   9.637   3.958   0.812  0.0368  0.4558  0.2241
  340MOL0     H44830   9.664   3.951   0.987 -2.3053  1.0656  0.2221
  340MOL0     H44831   9.480   4.140   0.845  0.7598 -2.2101 -1.8091
  340MOL0     H44832   9.556   4.199   0.992 -1.4739  0.2210  1.5690
  340MOL0     H44833   9.420   3.835   0.921 -0.9987 -1.5207  0.0884
  340MOL0     H44834   9.275   3.705   1.218  2.7965  0.7620 -0.5988
  340MOL0     H44835   9.207   3.690   1.060 -1.5556  1.1617 -0.7465
  340MOL0     H44836   9.062   3.901   1.115  2.4905  2.5788  2.3490
  340MOL0     H44837   9.088   3.862   1.273  2.2056 -0.9637 -0.4557
  340MOL0     H44838   8.943   3.686   1.054 -2.6292 -2.1507  0.7474
  340MOL0     H44839   8.999   3.619   1.207 -1.3653 -2.2585 -2.5657
  340MOL0     H44840   8.828   3.861   1.215 -2.3463 -0.4850 -1.5032
  340MOL0     H44841   8.851   3.734   1.334 -0.0269  1.2176 -0.5930
  340MOL0     H44842   8.683   3.874   1.397 -0.9611  0.8937  2.1947
  340MOL0     H44843   8.478   3.905   1.513  0.7109  1.2102 -0.8539
  340MOL0     H44844   7.940   3.506   1.377 -0.2997  0.3164  0.4104
  340MOL0     H44845   7.750   3.440   1.498  1.2806 -0.1174  0.0414
  340MOL0     H44846   7.569   3.374   1.685 -1.0016 -1.0306 -0.2081
  340MOL0     H44847   7.552   3.498   1.557  0.1515  2.7563  0.2774
  340MOL0     H44848   7.345   3.511   1.639 -1.4507 -0.0390  1.1705
  340MOL0     H44849   7.421   3.634   1.734 -0.5092  0.2266 -4.4838
  340MOL0     H44850   7.283   3.525   1.893 -0.0303 -0.1252 -0.0717
  340MOL0     H44851   7.448   3.475   1.933 -0.4243 -2.2679  0.4223
  340MOL0     H44852   7.238   3.300   1.796 -0.0181  1.3523  0.4913
  340MOL0     H44853   7.419   3.266   1.816  1.3487 -2.3028  3.7802
  340MOL0     H44854   7.365   3.291   2.067  0.5618 -0.5198 -0.3950
  340MOL0     H44855   7.293   3.154   1.982 -4.6098 -0.2345  1.8468
  340MOL0     H44856   7.081   3.264   1.951 -1.8475  1.2658  1.2517
  340MOL0     H44857   7.130   3.418   2.023 -2.1786 -0.4235  0.8245
  340MOL0     H44858   7.197   3.279   2.227 -0.6315 -1.2502  0.9358
  340MOL0     H44859   7.038   3.343   2.195 -0.3432  1.0025 -0.5846
  340MOL0     H44860   7.043   3.084   2.266  0.4621 -1.4484 -0.5069
  340MOL0     H44861   7.132   3.062   2.124  0.0865  0.8989 -2.3072
  340MOL0     H44862   7.819   3.739   1.784 -0.5047  1.3139 -1.4433
  340MOL0     H44863   8.045   3.783   1.689 -0.4710  0.5864 -0.7020
  340MOL0     H44864   8.285   3.606   1.266 -0.0454  0.1308  0.5773
  340MOL0     H44865   8.500   3.565   1.154  2.1646  0.1572  0.0869
  340MOL0     H44866  10.725   4.051   0.622 -1.7553 -0.4872  0.4001
  340MOL0     H44867  10.946   4.175   0.705 -0.0309  1.1783 -0.5913
  340MOL0     H44868  11.218   4.356   0.873 -0.1815 -0.3453  0.8913
  340MOL0     H44869  11.434   4.431   0.919  0.3208 -1.8160  0.3893
  340MOL0     H44870  11.622   4.520   0.997  0.1248 -1.7502 -1.3491
  340MOL0     H44871  11.603   4.377   1.106  2.3786 -0.0558  1.9722
  340MOL0     H44872  11.785   4.612   1.175  1.8168 -0.5932  2.3171
  340MOL0     H44873  11.726   4.497   1.300  0.1907 -2.7080 -0.4272
  340MOL0     H44874  11.880   4.430   1.051  1.2692 -1.0798  0.4679
  340MOL0     H44875  11.809   4.309   1.157  0.6536 -0.0047  2.4689
  340MOL0     H44876  12.060   4.330   1.194  0.0990 -0.0581  0.8042
  340MOL0     H44877  12.036   4.496   1.255 -0.5245  0.4920  1.5782
  340MOL0     H44878  11.911   4.264   1.579  0.5813  2.6821  1.3151
  340MOL0     H44879  11.316   4.555   1.308 -3.2534 -1.0038  0.3997
  340MOL0     H44880  11.093   4.493   1.273 -3.2363  2.2987 -2.1585
  341MOL0     O44881  10.362   9.668  10.542  0.0856  0.4412 -0.4573
  341MOL0     C44882  10.344   9.794  10.552  0.3278 -0.0530 -0.0743
  341MOL0     O44883  10.224   9.849  10.580 -0.1878  0.0103 -0.1460
  341MOL0     C44884  10.105   9.788  10.564  0.2368 -0.4062  0.2672
  341MOL0     C44885  10.003   9.880  10.525 -1.2086 -0.6275 -0.2010
  341MOL0     C44886   9.877   9.830  10.498  1.1762 -0.8723  0.2992
  341MOL0     C44887   9.843   9.701  10.519 -0.8164  0.2990 -0.2900
  341MOL0     O44888   9.718   9.638  10.495  0.0249 -0.7147  0.5144
  341MOL0     C44889   9.611   9.705  10.423 -0.1300  0.7513  0.2022
  341MOL0     C44890   9.496   9.604  10.395 -0.2155 -0.3946 -0.5386
  341MOL0     C44891   9.383   9.676  10.328  0.5395 -0.0022 -0.4450
  341MOL0     C44892   9.258   9.577  10.321  0.5758  0.0349  0.5183
  341MOL0     C44893   9.156   9.626  10.223  0.0098 -0.1949 -0.5052
  341MOL0     C44894   9.026   9.546  10.235  0.7759  0.0487 -0.7014
  341MOL0     C44895   8.933   9.556  10.110 -0.4014 -0.7226 -0.8918
  341MOL0     C44896   8.796   9.493  10.140  0.0811 -0.2560  0.9083
  341MOL0     N44897   8.710   9.504  10.023 -0.7508  0.4459  0.6519
  341MOL0     C44898   8.710   9.412   9.922  0.1189  0.1675  0.9055
  341MOL0     C44899   8.604   9.438   9.844  0.2874 -0.0612  1.2334
  341MOL0     C44900   8.561   9.362   9.722  0.2228  0.4246  0.0523
  341MOL0     C44901   8.414   9.328   9.709  0.5722  0.0614  0.2582
  341MOL0     C44902   8.316   9.448   9.710 -0.1498  0.3379  0.2208
  341MOL0     C44903   8.172   9.391   9.710 -0.1143  0.8939  0.8026
  341MOL0     O44904   8.067   9.491   9.721  0.1600 -0.3350 -0.2071
  341MOL0     C44905   7.939   9.459   9.669 -0.4127  1.0029  0.3411
  341MOL0     C44906   7.895   9.332   9.630 -0.2763  0.0973 -0.2554
  341MOL0     C44907   7.763   9.308   9.592  0.2975 -0.3091  1.1958
  341MOL0     C44908   7.667   9.408   9.583  0.0139 -0.4845  0.2419
  341MOL0     C44909   7.529   9.374   9.539  0.4019 -0.0123  0.6575
  341MOL0     O44910   7.437   9.474   9.527 -0.5781 -0.5586 -0.5812
  341MOL0     C44911   7.308   9.457   9.481 -0.5028 -0.1331 -0.3350
  341MOL0     C44912   7.234   9.340   9.467 -0.0245  0.6289 -0.4905
  341MOL0     C44913   7.102   9.342   9.424  0.6974 -0.6044  0.1881
  341MOL0     C44914   7.036   9.464   9.408 -1.0452  0.4590 -0.2485
  341MOL0     O44915   6.913   9.450   9.373 -0.0250  0.5073 -0.2980
  341MOL0     C44916   6.887   9.523   9.261  0.2662 -0.4047  0.4783
  341MOL0     C44917   6.765   9.461   9.194  0.3921 -0.5027  0.2246
  341MOL0     C44918   6.718   9.549   9.075 -1.2543 -0.1942  0.1523
  341MOL0     C44919   6.597   9.492   9.011  0.1706 -0.2381  0.3198
  341MOL0     C44920   6.564   9.575   8.884 -0.0214  0.1708 -0.4419
  341MOL0     C44921   6.430   9.542   8.834  0.2852  0.8731  0.8096
  341MOL0     C44922   6.369   9.658   8.744  0.0689  0.1691  0.0643
  341MOL0     C44923   6.433   9.684   8.609  0.0059 -0.3298 -0.2838
  341MOL0    Cl44924   6.356   9.832   8.521  0.4401 -0.4510 -0.3723
  341MOL0     C44925   7.108   9.586   9.426  0.0979  0.2875 -0.4624
  341MOL0     C44926   7.240   9.578   9.459 -0.8555  0.2181 -0.0803
  341MOL0     O44927   7.505   9.256   9.507  0.2407  0.3049 -0.0586
  341MOL0     C44928   7.711   9.538   9.622  0.8273 -0.1173 -0.0868
  341MOL0     C44929   7.842   9.563   9.662 -0.0444 -1.1080  0.1404
  341MOL0     N44930   8.538   9.557   9.902 -0.0828 -0.1832 -0.5346
  341MOL0     N44931   8.604   9.586  10.007  0.2375  0.0789 -0.3493
  341MOL0     C44932   9.938   9.611  10.569  0.3056  0.0824  1.2642
  341MOL0     C44933  10.070   9.649  10.588  0.8276  0.4924  0.5317
  341MOL0     C44934  10.468   9.878  10.547  0.0314  0.3093 -0.5358
  341MOL0     C44935  10.479   9.991  10.616  0.1514 -0.2594 -0.0284
  341MOL0     C44936  10.605  10.052  10.630 -0.2009 -1.1113  0.5182
  341MOL0     C44937  10.720  10.007  10.555 -0.7895 -0.2876  0.0738
  341MOL0     O44938  10.840  10.065  10.545  0.2530 -0.6046 -0.9299
  341MOL0     C44939  10.847  10.212  10.522  0.0592  0.7259  0.5447
  341MOL0     C44940  10.881  10.290  10.648  0.1227  0.2577 -0.0695
  341MOL0     C44941  11.021  10.257  10.704  0.6508  0.4890 -0.5362
  341MOL0     C44942  11.024  10.283  10.855 -0.0221  0.6444  0.6935
  341MOL0     C44943  11.154  10.282  10.912 -0.2545  0.7618  0.3772
  341MOL0     C44944  11.272  10.294  10.939  0.5224 -0.0025  1.3696
  341MOL0     C44945  10.704   9.896  10.471  0.3370  0.1335 -0.5658
  341MOL0     C44946  10.580   9.833  10.474 -0.7724  0.1202 -0.2198
  341MOL0     H44947  10.022   9.986  10.511 -3.8571  0.2820  2.1157
  341MOL0     H44948   9.807   9.905  10.462 -0.8669 -2.9074 -0.1168
  341MOL0     H44949   9.650   9.754  10.333  0.8055 -0.0467  0.1530
  341MOL0     H44950   9.564   9.784  10.482  0.7022  0.7935  0.8206
  341MOL0     H44951   9.466   9.557  10.488  1.7636 -2.0396 -0.6640
  341MOL0     H44952   9.531   9.524  10.329  0.9375 -0.3480 -0.0040
  341MOL0     H44953   9.417   9.713  10.230  3.1257  2.2923  1.1720
  341MOL0     H44954   9.349   9.762  10.387  1.4087 -0.8408  1.3274
  341MOL0     H44955   9.295   9.479  10.287  0.3588  0.1895 -0.1778
  341MOL0     H44956   9.207   9.571  10.418  0.6941  0.2497  0.5937
  341MOL0     H44957   9.207   9.615  10.127  2.8994 -2.0430  1.1072
  341MOL0     H44958   9.123   9.730  10.236 -0.0477 -0.0737 -1.5461
  341MOL0     H44959   8.963   9.585  10.316  0.3773 -1.2190 -0.3795
  341MOL0     H44960   9.048   9.446  10.272 -2.9068 -1.3304 -1.8232
  341MOL0     H44961   8.922   9.663  10.088 -1.2914 -0.6294 -0.0526
  341MOL0     H44962   8.975   9.514  10.018 -2.2215 -0.8464 -1.7009
  341MOL0     H44963   8.740   9.540  10.221 -1.1919 -0.0890 -0.0370
  341MOL0     H44964   8.826   9.393  10.173 -0.7607 -0.4794  1.0080
  341MOL0     H44965   8.776   9.328   9.905 -0.0919  0.3539 -0.9884
  341MOL0     H44966   8.608   9.263   9.722 -1.9053 -0.6972 -2.0893
  341MOL0     H44967   8.596   9.423   9.639 -0.3891  1.1097  0.2920
  341MOL0     H44968   8.383   9.254   9.783  2.7765  1.9385  3.3055
  341MOL0     H44969   8.405   9.269   9.617  1.3654  1.5755 -0.8443
  341MOL0     H44970   8.323   9.505   9.804  0.3124 -3.0142  2.3997
  341MOL0     H44971   8.327   9.522   9.631 -0.8549  0.8612  0.5974
  341MOL0     H44972   8.159   9.338   9.805 -1.4101  0.3268  0.3370
  341MOL0     H44973   8.157   9.319   9.629  1.1782  1.1329  0.3163
  341MOL0     H44974   7.965   9.255   9.662  1.1043  2.8670  4.3555
  341MOL0     H44975   7.738   9.205   9.566 -3.0317  1.0065 -1.5605
  341MOL0     H44976   7.273   9.240   9.482 -2.0947 -0.0488  0.7175
  341MOL0     H44977   7.053   9.245   9.419  0.3288 -0.3918 -0.4601
  341MOL0     H44978   6.967   9.524   9.186 -1.6425 -0.9887 -1.6805
  341MOL0     H44979   6.868   9.627   9.286 -0.9468  0.1992 -2.5825
  341MOL0     H44980   6.683   9.461   9.267 -0.0143  2.8374 -0.0875
  341MOL0     H44981   6.788   9.360   9.158 -0.1177 -0.3212 -0.6286
  341MOL0     H44982   6.788   9.557   8.991 -1.4083  0.3046  0.0693
  341MOL0     H44983   6.699   9.650   9.112  0.9965  0.1785  0.4429
  341MOL0     H44984   6.609   9.389   8.975  2.0272  0.1186 -0.2260
  341MOL0     H44985   6.519   9.497   9.087 -0.1450 -4.1120  0.4438
  341MOL0     H44986   6.637   9.540   8.810 -2.4275  0.4366 -3.0747
  341MOL0     H44987   6.574   9.682   8.902  0.7924  0.1808 -0.8970
  341MOL0     H44988   6.376   9.529   8.928  0.7208  1.8772  1.2115
  341MOL0     H44989   6.440   9.450   8.776  1.0984  1.7200 -0.4431
  341MOL0     H44990   6.262   9.638   8.735  0.1903 -0.9262  0.8369
  341MOL0     H44991   6.368   9.749   8.804 -2.9816 -0.5942  1.3829
  341MOL0     H44992   6.425   9.591   8.553 -1.8542 -0.9874  0.9760
  341MOL0     H44993   6.540   9.703   8.621  0.0423 -0.2019 -0.8157
  341MOL0     H44994   7.053   9.679   9.425  0.2487  0.3821 -0.1244
  341MOL0     H44995   7.294   9.669   9.484  0.3382 -0.5877  0.3357
  341MOL0     H44996   7.644   9.623   9.628  2.1258  0.8950  0.8292
  341MOL0     H44997   7.873   9.660   9.701 -2.2905 -0.5393  0.6358
  341MOL0     H44998   9.905   9.510  10.589  1.3286 -0.9712 -1.8213
  341MOL0     H44999  10.150   9.581  10.617  1.6930  1.0157 -0.5512
  341MOL0     H45000  10.396  10.029  10.675 -1.7417  0.2297 -2.8255
  341MOL0     H45001  10.599  10.144  10.687  1.0917  0.0286 -1.1170
  341MOL0     H45002  10.757  10.237  10.465  0.4635  0.6705 -0.1434
  341MOL0     H45003  10.925  10.228  10.446 -1.3704  1.3547 -0.8442
  341MOL0     H45004  10.891  10.397  10.630  0.9447  0.1949 -0.0373
  341MOL0     H45005  10.802  10.271  10.722  0.0181 -0.8592 -0.4402
  341MOL0     H45006  11.097  10.323  10.661 -0.2891  2.1929  0.3084
  341MOL0     H45007  11.060  10.156  10.685  1.6531  1.0173 -1.3610
  341MOL0     H45008  10.986  10.384  10.872  1.3153  1.2577  0.2395
  341MOL0     H45009  10.977  10.199  10.905 -1.9534  0.6210 -1.0286
  341MOL0     H45010  11.376  10.288  10.966  1.3871 -2.0842 -1.8854
  341MOL0     H45011  10.793   9.867  10.416  0.5783 -0.9260  0.3327
  341MOL0     H45012  10.574   9.737  10.423 -1.0892  0.5817 -1.0788
  342MOL0     O45013   9.941   3.777  10.950 -0.9121  0.0289  0.6538
  342MOL0     C45014   9.955   3.653  10.937  0.2047 -0.3758  0.1121
  342MOL0     O45015   9.874   3.561  10.995 -0.4040 -0.3893 -0.0256
  342MOL0     C45016   9.759   3.600  11.069  0.1468 -0.5946  0.9579
  342MOL0     C45017   9.724   3.519  11.177 -0.5060 -0.6455 -0.3106
  342MOL0     C45018   9.617   3.554  11.259 -0.1590  0.0662  0.3774
  342MOL0     C45019   9.540   3.662  11.218  0.3228  0.9209 -0.4811
  342MOL0     O45020   9.437   3.708  11.296  0.1729  0.0226 -0.9463
  342MOL0     C45021   9.357   3.603  11.351  0.0653 -0.8692  0.5092
  342MOL0     C45022   9.254   3.666  11.448  0.4266 -0.4275  0.1869
  342MOL0     C45023   9.171   3.557  11.523 -0.2673  0.2039 -0.7246
  342MOL0     C45024   9.240   3.464  11.626 -0.1081  0.0884  1.1010
  342MOL0     C45025   9.144   3.377  11.699 -0.4968  0.2247  0.0775
  342MOL0     C45026   9.225   3.289  11.798  0.3942  0.0819  0.7151
  342MOL0     C45027   9.148   3.246  11.932 -0.2547 -0.2213  0.9036
  342MOL0     C45028   9.032   3.154  11.913 -0.2357 -0.7494  0.3708
  342MOL0     N45029   8.976   3.107  12.035  0.6028  0.6404  0.2816
  342MOL0     C45030   8.912   3.185  12.131 -0.4735 -0.8555 -0.0742
  342MOL0     C45031   8.857   3.095  12.211  0.0196 -0.2136 -0.1141
  342MOL0     C45032   8.785   3.123  12.341  0.7362 -0.1283  0.1975
  342MOL0     C45033   8.690   3.016  12.403 -0.1290 -0.2504 -0.8292
  342MOL0     C45034   8.568   2.992  12.321 -0.6198 -0.4705  1.2366
  342MOL0     C45035   8.487   3.126  12.291 -0.2755 -0.4578  0.8249
  342MOL0     O45036   8.487   3.218  12.411  0.3936  0.2678  0.7578
  342MOL0     C45037   8.395   3.206  12.512  0.5969  0.1963  0.9310
  342MOL0     C45038   8.356   3.319  12.592  0.7818  0.1198  0.3534
  342MOL0     C45039   8.247   3.312  12.678  0.4373 -0.6027  0.0888
  342MOL0     C45040   8.183   3.192  12.714 -0.2280 -0.1157 -0.1154
  342MOL0     C45041   8.075   3.190  12.815  0.3210  0.7618 -0.4889
  342MOL0     O45042   8.026   3.064  12.865  0.2775 -0.7660 -0.1845
  342MOL0     C45043   7.931   3.061  12.976 -0.2423  0.2995  0.8047
  342MOL0     C45044   7.948   2.956  13.066  0.1213  0.5877 -0.2668
  342MOL0     C45045   7.870   2.946  13.182  0.0378  0.0530 -0.3033
  342MOL0     C45046   7.776   3.040  13.207 -0.3817 -0.1427  0.7896
  342MOL0     O45047   7.713   3.031  13.328 -0.2024  0.3660 -0.5019
  342MOL0     C45048   7.611   3.127  13.361  0.4960  0.5280  0.2733
  342MOL0     C45049   7.535   3.075  13.480  1.8274 -0.2422 -0.0093
  342MOL0     C45050   7.449   2.960  13.426  0.1651 -0.2463 -0.0322
  342MOL0     C45051   7.359   2.899  13.539 -0.0256 -0.1757 -0.2212
  342MOL0     C45052   7.298   2.776  13.471  0.4344  0.3841 -0.0246
  342MOL0     C45053   7.167   2.740  13.532  0.2603  0.0907 -0.2978
  342MOL0     C45054   7.095   2.640  13.450 -0.1960 -0.0900  0.2319
  342MOL0     C45055   6.961   2.589  13.514 -0.2382  0.5235 -0.1643
  342MOL0    Cl45056   6.978   2.518  13.680  0.3979  0.0165 -0.4184
  342MOL0     C45057   7.752   3.147  13.118 -0.9999  0.0014  0.0625
  342MOL0     C45058   7.835   3.155  13.008 -0.5648  0.4774  0.1666
  342MOL0     O45059   8.051   3.294  12.871 -0.1875  0.3061 -0.4912
  342MOL0     C45060   8.229   3.077  12.648 -0.3009 -0.0306 -0.4948
  342MOL0     C45061   8.332   3.083  12.543  0.3452 -0.5094  0.3141
  342MOL0     N45062   8.863   2.969  12.160 -0.1392 -0.6344  0.5711
  342MOL0     N45063   8.930   2.975  12.050 -0.2040 -0.6686 -0.7010
  342MOL0     C45064   9.570   3.743  11.110 -0.5453  0.7800 -0.6477
  342MOL0     C45065   9.680   3.717  11.035  1.6654  0.7892  0.1710
  342MOL0     C45066  10.065   3.609  10.852 -0.5154 -0.6252 -0.0898
  342MOL0     C45067  10.164   3.695  10.807 -0.1403 -0.2154 -0.2779
  342MOL0     C45068  10.284   3.658  10.740  0.5259  0.7317 -0.2645
  342MOL0     C45069  10.290   3.526  10.697 -1.0587  0.6885  0.4389
  342MOL0     O45070  10.391   3.472  10.630 -0.7608 -0.1737  0.4100
  342MOL0     C45071  10.461   3.555  10.538 -0.2577 -0.0628  0.0074
  342MOL0     C45072  10.593   3.589  10.606 -0.0269  0.3880  0.1263
  342MOL0     C45073  10.688   3.470  10.620  0.4898 -0.2573  0.2817
  342MOL0     C45074  10.823   3.534  10.663  0.6284  0.3796  1.3955
  342MOL0     C45075  10.906   3.612  10.563  0.5944  0.5762  0.3296
  342MOL0     C45076  10.971   3.663  10.479  0.3074  0.2028  0.5681
  342MOL0     C45077  10.203   3.430  10.748  1.5089  0.1843 -0.0603
  342MOL0     C45078  10.088   3.476  10.818 -0.3647  0.1331  0.2135
  342MOL0     H45079   9.790   3.437  11.202 -0.3424 -0.1663  0.8516
  342MOL0     H45080   9.607   3.500  11.352  0.2030  1.4978  1.2859
  342MOL0     H45081   9.415   3.534  11.413  3.6947 -0.4056 -2.0687
  342MOL0     H45082   9.295   3.553  11.276  0.0376 -2.0086  1.2644
  342MOL0     H45083   9.199   3.743  11.393  1.5750  2.4919  2.7603
  342MOL0     H45084   9.314   3.720  11.522  0.5439  0.7450 -0.7413
  342MOL0     H45085   9.121   3.501  11.443 -1.3156  1.2916 -0.8543
  342MOL0     H45086   9.093   3.607  11.580 -0.0182 -0.4673  0.2161
  342MOL0     H45087   9.309   3.399  11.571 -1.3506  0.9523 -1.7000
  342MOL0     H45088   9.296   3.533  11.690 -0.2961  0.8048  0.5161
  342MOL0     H45089   9.092   3.306  11.634  1.6840 -0.5466 -0.8934
  342MOL0     H45090   9.068   3.440  11.749  0.5515 -0.5460  2.8401
  342MOL0     H45091   9.311   3.342  11.839  0.7690  0.1457 -0.1239
  342MOL0     H45092   9.245   3.195  11.745 -0.7239  0.2932 -0.1268
  342MOL0     H45093   9.202   3.184  12.004  0.9585  1.7182  1.7553
  342MOL0     H45094   9.123   3.337  11.988 -2.5623 -0.4489  0.3117
  342MOL0     H45095   9.052   3.078  11.837 -2.2247 -1.2579  0.3068
  342MOL0     H45096   8.950   3.217  11.878 -1.4619 -0.4006  3.5418
  342MOL0     H45097   8.914   3.290  12.157  1.0167 -1.4880  2.9206
  342MOL0     H45098   8.739   3.222  12.333 -0.5544 -0.4520  2.6025
  342MOL0     H45099   8.866   3.137  12.414  1.2214 -0.5285 -0.2612
  342MOL0     H45100   8.657   3.049  12.502 -0.4279 -0.0308 -1.0017
  342MOL0     H45101   8.748   2.923  12.411  0.1091 -0.0516 -0.1322
  342MOL0     H45102   8.606   2.953  12.226  0.8410 -0.5393  1.8213
  342MOL0     H45103   8.499   2.918  12.362 -1.4031 -0.1336  0.5514
  342MOL0     H45104   8.385   3.104  12.259  0.9071  0.5350 -4.4629
  342MOL0     H45105   8.521   3.182  12.204 -4.5837 -1.1079 -1.5632
  342MOL0     H45106   8.392   3.421  12.581  1.9226 -0.2250  0.6915
  342MOL0     H45107   8.208   3.407  12.714  1.8664 -0.1317  0.4622
  342MOL0     H45108   8.033   2.890  13.053 -0.2077 -0.2139  1.3719
  342MOL0     H45109   7.890   2.869  13.256  1.5994  0.3056 -0.4288
  342MOL0     H45110   7.548   3.131  13.272 -0.6611  0.4544  1.0615
  342MOL0     H45111   7.654   3.226  13.375  1.8137  0.0038  0.1263
  342MOL0     H45112   7.470   3.152  13.522  1.0162 -2.0140  2.2544
  342MOL0     H45113   7.604   3.046  13.561 -0.4412 -0.6328  1.8963
  342MOL0     H45114   7.515   2.888  13.376  1.4470  1.3536 -0.7557
  342MOL0     H45115   7.387   3.004  13.348  0.5636  0.0885 -0.1648
  342MOL0     H45116   7.414   2.872  13.630 -1.2381  0.8893  0.8676
  342MOL0     H45117   7.289   2.980  13.559  2.0084  1.4070  0.8399
  342MOL0     H45118   7.365   2.689  13.471 -1.6427 -1.3029 -0.7392
  342MOL0     H45119   7.273   2.796  13.366  2.7576 -1.2658 -0.9932
  342MOL0     H45120   7.102   2.827  13.547  0.6798  0.3750 -0.1177
  342MOL0     H45121   7.181   2.703  13.634 -0.6392  2.2609  0.6830
  342MOL0     H45122   7.073   2.672  13.348  0.8581 -1.6496 -0.5177
  342MOL0     H45123   7.156   2.551  13.433 -3.6667 -2.3195 -1.5494
  342MOL0     H45124   6.902   2.518  13.455  0.6594 -1.3252  1.0662
  342MOL0     H45125   6.894   2.674  13.528 -0.7947  0.1796 -0.6684
  342MOL0     H45126   7.686   3.231  13.137  0.7946  0.9738  2.5583
  342MOL0     H45127   7.821   3.248  12.954 -0.9628  0.9458  1.0474
  342MOL0     H45128   8.197   2.984  12.695 -0.3778  1.2499  2.2304
  342MOL0     H45129   8.349   2.985  12.498 -1.3609 -1.9379  2.5521
  342MOL0     H45130   9.523   3.835  11.078  0.2930  1.6081  0.3971
  342MOL0     H45131   9.708   3.777  10.950  2.1775  0.3203  0.0049
  342MOL0     H45132  10.159   3.800  10.835 -1.0614 -0.5091  0.6943
  342MOL0     H45133  10.364   3.732  10.737  1.3570 -0.1894 -1.4836
  342MOL0     H45134  10.401   3.643  10.516 -0.8057 -0.6673 -1.0086
  342MOL0     H45135  10.465   3.508  10.439 -3.0595 -0.7160  0.0993
  342MOL0     H45136  10.649   3.672  10.562  1.3465  0.5480  2.0676
  342MOL0     H45137  10.582   3.631  10.706  1.9137  0.7899  0.2212
  342MOL0     H45138  10.702   3.424  10.522 -1.2256  0.5928 -0.4041
  342MOL0     H45139  10.644   3.395  10.685 -0.5963  0.6557  0.6229
  342MOL0     H45140  10.795   3.598  10.748 -2.3066 -0.5974  1.2592
  342MOL0     H45141  10.876   3.445  10.696 -1.0824 -1.1844  0.0910
  342MOL0     H45142  11.024   3.718  10.404 -2.0259  2.7503  0.6231
  342MOL0     H45143  10.238   3.330  10.724  1.4450  0.2935 -0.6203
  342MOL0     H45144  10.011   3.405  10.845 -0.8113  0.7609  0.6158
  343MOL0     O45145   3.535   4.572   9.885  0.2395 -0.4764 -0.1035
  343MOL0     C45146   3.540   4.682   9.834 -0.0845  0.2817 -0.3830
  343MOL0     O45147   3.436   4.767   9.811 -0.2958  0.7226 -0.3256
  343MOL0     C45148   3.313   4.723   9.856  0.9694  0.8619  0.5205
  343MOL0     C45149   3.229   4.647   9.772  0.5475 -0.4590  0.3797
  343MOL0     C45150   3.101   4.611   9.824  0.0234  0.5032 -0.0723
  343MOL0     C45151   3.065   4.634   9.958 -0.5742 -0.2172 -0.3907
  343MOL0     O45152   2.946   4.596  10.022  0.1489 -0.8495  0.6224
  343MOL0     C45153   2.872   4.480   9.969 -0.6562 -0.1629  0.6284
  343MOL0     C45154   2.724   4.516   9.922  0.7973 -0.2019 -0.5385
  343MOL0     C45155   2.626   4.573  10.031 -0.3072  0.4922  0.4838
  343MOL0     C45156   2.633   4.495  10.172 -0.5465  0.5618  0.0906
  343MOL0     C45157   2.519   4.530  10.271  0.1163  0.0833  0.2001
  343MOL0     C45158   2.526   4.430  10.390  0.8706  0.6922  0.5758
  343MOL0     C45159   2.423   4.455  10.505 -0.0654  0.2321  0.3203
  343MOL0     C45160   2.422   4.329  10.593 -0.0765 -0.0365 -0.2213
  343MOL0     N45161   2.316   4.343  10.695 -0.3319  0.2844  0.5322
  343MOL0     C45162   2.220   4.251  10.734  0.4121 -0.6528 -0.1815
  343MOL0     C45163   2.163   4.309  10.842  0.0364 -0.0920 -0.0923
  343MOL0     C45164   2.053   4.253  10.923  0.3672  1.3224 -0.6419
  343MOL0     C45165   1.917   4.323  10.901 -0.1463 -0.7058 -0.3705
  343MOL0     C45166   1.876   4.339  10.750 -0.2387  0.9083  0.3265
  343MOL0     C45167   1.734   4.394  10.749 -0.9433 -0.8022  0.2016
  343MOL0     O45168   1.637   4.293  10.753 -0.1021  0.0505 -0.3705
  343MOL0     C45169   1.503   4.330  10.758  0.1271 -0.1354  0.2516
  343MOL0     C45170   1.419   4.216  10.759  0.0077  0.6366  0.0229
  343MOL0     C45171   1.284   4.235  10.773  0.4672  0.3248  1.4543
  343MOL0     C45172   1.229   4.365  10.774 -0.0423  0.5838 -0.2921
  343MOL0     C45173   1.083   4.381  10.768 -0.3851  0.8938 -0.7099
  343MOL0     O45174   1.004   4.275  10.797  0.1720  0.2770 -0.0376
  343MOL0     C45175   0.870   4.284  10.814 -0.0939 -0.4387 -0.1167
  343MOL0     C45176   0.817   4.399  10.873  0.9437 -0.0512  0.1903
  343MOL0     C45177   0.681   4.402  10.892  0.0281 -0.5792  0.1764
  343MOL0     C45178   0.588   4.302  10.842 -0.2409  0.7805  0.0996
  343MOL0     O45179   0.449   4.310  10.857 -0.5357  1.1936  0.0107
  343MOL0     C45180   0.385   4.439  10.841  0.4789  0.0311 -0.0271
  343MOL0     C45181   0.247   4.412  10.787 -0.1021  0.7163 -0.8422
  343MOL0     C45182   0.242   4.409  10.634 -0.2946  0.0056 -0.2557
  343MOL0     C45183   0.090   4.418  10.593  0.9189  0.2691  0.0803
  343MOL0     C45184   0.068   4.389  10.450  0.0278  0.4990  0.4875
  343MOL0     C45185  -0.082   4.373  10.409  1.3114  0.0220  0.4531
  343MOL0     C45186  -0.106   4.351  10.258  0.5314 -0.1376 -0.0693
  343MOL0     C45187  -0.215   4.255  10.222  0.9178  0.1159  0.7202
  343MOL0    Cl45188  -0.232   4.234  10.034 -0.2294  0.0142 -0.1958
  343MOL0     C45189   0.651   4.192  10.785  0.4634 -0.5825  0.1650
  343MOL0     C45190   0.791   4.187  10.760  0.3942  0.5725 -0.0060
  343MOL0     O45191   1.046   4.490  10.733  0.1386 -0.1868 -0.4550
  343MOL0     C45192   1.314   4.471  10.790 -0.3668 -0.2069 -0.4921
  343MOL0     C45193   1.454   4.457  10.789 -1.1566  0.0910  0.5035
  343MOL0     N45194   2.221   4.433  10.869 -0.3435 -0.3803  0.6780
  343MOL0     N45195   2.312   4.454  10.781  0.9275  0.0850  0.7705
  343MOL0     C45196   3.153   4.703  10.042 -0.2117  0.0834  1.2619
  343MOL0     C45197   3.277   4.745   9.986  0.4101 -0.5650 -1.0477
  343MOL0     C45198   3.680   4.730   9.819  0.2765  0.4913 -0.5409
  343MOL0     C45199   3.790   4.637   9.792  0.8216  1.2182  0.6029
  343MOL0     C45200   3.923   4.680   9.786 -0.6688  0.1986  0.4073
  343MOL0     C45201   3.957   4.817   9.787  0.2388 -0.0231 -0.2547
  343MOL0     O45202   4.081   4.870   9.777 -0.5324 -0.6470 -0.8184
  343MOL0     C45203   4.194   4.777   9.784 -0.2630 -0.3668 -0.0178
  343MOL0     C45204   4.315   4.874   9.800 -0.1999 -1.1251  0.2905
  343MOL0     C45205   4.450   4.803   9.775 -0.3010 -0.1776  0.2522
  343MOL0     C45206   4.564   4.876   9.792 -0.1191 -0.6275  0.3940
  343MOL0     C45207   4.684   4.800   9.779 -0.1075  0.2531  0.0063
  343MOL0     C45208   4.776   4.717   9.776 -0.9351 -0.5742  0.6892
  343MOL0     C45209   3.848   4.905   9.822 -0.2519 -0.2145 -0.1725
  343MOL0     C45210   3.710   4.867   9.827 -0.2689 -0.3161 -0.5325
  343MOL0     H45211   3.259   4.633   9.669 -1.6840 -0.5607 -0.2996
  343MOL0     H45212   3.030   4.551   9.768  0.8331  1.0241 -1.7230
  343MOL0     H45213   2.857   4.400  10.042 -3.1353 -2.6009 -2.2589
  343MOL0     H45214   2.921   4.436   9.881 -1.2734  1.2179 -0.4534
  343MOL0     H45215   2.670   4.430   9.881 -2.1008  0.0934  2.2171
  343MOL0     H45216   2.737   4.594   9.847  1.5500  1.0161  0.7891
  343MOL0     H45217   2.526   4.571   9.988  0.9728  1.5189 -2.8365
  343MOL0     H45218   2.643   4.679  10.048  1.7063  0.4931 -1.1310
  343MOL0     H45219   2.641   4.387  10.156 -2.1717  0.2392  1.2286
  343MOL0     H45220   2.730   4.533  10.205 -0.5748 -0.0908  0.9445
  343MOL0     H45221   2.420   4.529  10.223 -0.1961  0.3940  0.8116
  343MOL0     H45222   2.531   4.631  10.311  3.0583  0.1865 -0.7317
  343MOL0     H45223   2.630   4.431  10.422  1.0278  2.7024  0.1218
  343MOL0     H45224   2.497   4.333  10.350 -1.1039  1.3115  0.3716
  343MOL0     H45225   2.428   4.545  10.566  0.1004  0.5330 -0.1353
  343MOL0     H45226   2.322   4.468  10.465 -0.2238  1.5250  1.0874
  343MOL0     H45227   2.522   4.309  10.634 -0.6987 -2.3520  0.3004
  343MOL0     H45228   2.402   4.241  10.532  1.1689  0.4735 -1.4220
  343MOL0     H45229   2.191   4.154  10.695 -2.0803  0.1094 -0.4491
  343MOL0     H45230   2.081   4.281  11.026  1.5461 -2.4888  0.2331
  343MOL0     H45231   2.045   4.144  10.921  0.0877  1.2030  2.1880
  343MOL0     H45232   1.927   4.423  10.945  1.5290  0.3296 -2.9384
  343MOL0     H45233   1.843   4.267  10.959  0.5087 -0.5308  0.6708
  343MOL0     H45234   1.936   4.404  10.686  1.7279  0.9290  2.0888
  343MOL0     H45235   1.875   4.236  10.712 -3.4338  0.3534  1.6295
  343MOL0     H45236   1.719   4.461  10.664  1.3605 -0.0515  0.3100
  343MOL0     H45237   1.717   4.454  10.839  0.9480  0.6172 -0.3365
  343MOL0     H45238   1.466   4.119  10.756  2.8728  1.9303 -0.7743
  343MOL0     H45239   1.219   4.149  10.764  1.1170  0.0651 -1.6029
  343MOL0     H45240   0.880   4.478  10.912  2.9395 -1.1475 -0.6571
  343MOL0     H45241   0.640   4.482  10.951 -0.2736  0.2336 -1.1013
  343MOL0     H45242   0.437   4.506  10.773 -1.2889  1.6023  0.1103
  343MOL0     H45243   0.347   4.489  10.931 -1.7911 -0.3758 -0.6903
  343MOL0     H45244   0.182   4.497  10.808  0.6871  1.1430 -0.0642
  343MOL0     H45245   0.204   4.324  10.837  2.8297 -1.4978 -1.9089
  343MOL0     H45246   0.286   4.316  10.597  2.0061  1.8617 -2.5579
  343MOL0     H45247   0.288   4.502  10.599  1.6773 -0.5719  0.6813
  343MOL0     H45248   0.036   4.342  10.650  1.8411 -1.5205 -1.3342
  343MOL0     H45249   0.047   4.515  10.620 -0.4249 -0.5801  1.0629
  343MOL0     H45250   0.119   4.295  10.427  1.2072  1.4228 -0.8003
  343MOL0     H45251   0.103   4.471  10.387 -0.9186  1.6012  1.3512
  343MOL0     H45252  -0.152   4.452  10.437  1.1361  0.0747 -0.1197
  343MOL0     H45253  -0.116   4.284  10.463  1.9776  0.7817  2.2046
  343MOL0     H45254  -0.137   4.448  10.219  0.6578 -0.3705 -0.7608
  343MOL0     H45255  -0.018   4.317  10.203  1.6941  0.0509  1.5964
  343MOL0     H45256  -0.309   4.293  10.264  0.4021  2.5315 -2.2813
  343MOL0     H45257  -0.197   4.155  10.264  1.4544  0.3997  1.1752
  343MOL0     H45258   0.577   4.117  10.761 -2.4621  1.8586  0.8778
  343MOL0     H45259   0.852   4.114  10.707  1.8272  2.7636 -1.5584
  343MOL0     H45260   1.273   4.569  10.813  0.5888 -0.3343  2.1438
  343MOL0     H45261   1.520   4.542  10.795 -2.0919  1.2176 -3.0262
  343MOL0     H45262   3.142   4.704  10.150 -2.1482 -5.7139  1.4530
  343MOL0     H45263   3.356   4.789  10.047  1.9804 -4.3087 -0.0924
  343MOL0     H45264   3.767   4.531   9.783 -0.5843  1.6514 -1.7550
  343MOL0     H45265   4.009   4.614   9.781 -0.3316  0.4299  2.4308
  343MOL0     H45266   4.204   4.710   9.698 -1.5414 -1.2925  0.5280
  343MOL0     H45267   4.181   4.704   9.864 -1.5800 -0.7017 -0.5097
  343MOL0     H45268   4.316   4.955   9.726 -0.1876 -1.7537 -0.4010
  343MOL0     H45269   4.320   4.918   9.900 -1.8127  1.9493 -0.8299
  343MOL0     H45270   4.445   4.762   9.673 -0.7845  2.0915 -0.6896
  343MOL0     H45271   4.452   4.728   9.855  0.6998  1.9759  2.3399
  343MOL0     H45272   4.566   4.964   9.726 -0.0612  2.3925  4.0952
  343MOL0     H45273   4.570   4.922   9.891  0.9655 -1.3949  0.6972
  343MOL0     H45274   4.861   4.653   9.766 -0.4887 -0.1059  1.4382
  343MOL0     H45275   3.870   5.010   9.834  2.7269 -0.7089 -0.4446
  343MOL0     H45276   3.634   4.940   9.854  0.0939 -0.9799  2.6731
  344MOL0     O45277   7.053   0.213   5.014 -0.5709 -0.5818 -0.6225
  344MOL0     C45278   7.087   0.184   5.129 -0.0575  0.0585 -1.1927
  344MOL0     O45279   7.030   0.086   5.208 -0.0339 -0.0645 -0.1664
  344MOL0     C45280   6.923   0.015   5.159 -0.2889  0.2778 -0.2112
  344MOL0     C45281   6.924  -0.118   5.132  0.3756  0.0707  0.8685
  344MOL0     C45282   6.808  -0.184   5.078  0.1931  0.7047 -0.8967
  344MOL0     C45283   6.679  -0.129   5.080  0.2152 -0.2705 -0.1577
  344MOL0     O45284   6.582  -0.210   5.029 -0.2187  0.0691 -0.1590
  344MOL0     C45285   6.469  -0.139   4.972 -0.2567 -0.6724  0.7164
  344MOL0     C45286   6.396  -0.234   4.873 -0.0979  0.3910  0.9404
  344MOL0     C45287   6.345  -0.365   4.940 -0.2461 -0.1066  0.1663
  344MOL0     C45288   6.261  -0.455   4.849  0.2443  0.0615  0.2954
  344MOL0     C45289   6.183  -0.558   4.920 -0.2279 -0.4509 -0.8374
  344MOL0     C45290   6.056  -0.505   4.997 -0.8318  0.4437 -0.0843
  344MOL0     C45291   5.999  -0.624   5.070 -0.2334  0.0054 -0.3588
  344MOL0     C45292   5.864  -0.603   5.141 -0.3662  0.7333  0.5349
  344MOL0     N45293   5.871  -0.529   5.272  0.5778  0.4565 -0.2095
  344MOL0     C45294   5.880  -0.396   5.289 -0.1719  0.8077 -0.0531
  344MOL0     C45295   5.903  -0.377   5.418 -0.9679 -0.1977  0.7545
  344MOL0     C45296   5.939  -0.249   5.476 -0.0619  0.1907 -0.6815
  344MOL0     C45297   5.835  -0.144   5.461  0.0996 -0.0689 -0.2059
  344MOL0     C45298   5.892  -0.007   5.521 -0.4249 -0.4200  0.6141
  344MOL0     C45299   5.805   0.110   5.473  0.2876 -0.3678  0.0705
  344MOL0     O45300   5.664   0.082   5.504  0.1779  0.0942 -0.3424
  344MOL0     C45301   5.563   0.175   5.468  0.6131 -0.0995  0.0588
  344MOL0     C45302   5.433   0.141   5.507 -0.2006 -0.3175  0.0779
  344MOL0     C45303   5.337   0.242   5.497 -0.1072  0.3867  0.2571
  344MOL0     C45304   5.353   0.364   5.430  0.2874  0.4184 -0.9583
  344MOL0     C45305   5.244   0.461   5.411 -1.1961 -0.0543 -0.2128
  344MOL0     O45306   5.119   0.415   5.436  0.2449  0.0938  0.7285
  344MOL0     C45307   5.004   0.486   5.407 -0.8675  0.4615 -0.0036
  344MOL0     C45308   4.936   0.451   5.287  0.3315 -0.9126  0.1458
  344MOL0     C45309   4.816   0.513   5.254  0.0571 -0.1005  0.1425
  344MOL0     C45310   4.773   0.623   5.331  0.4434  0.6097  0.3664
  344MOL0     O45311   4.662   0.690   5.285 -0.6308  0.3603  0.1720
  344MOL0     C45312   4.629   0.814   5.349  0.5027  0.3665 -0.2499
  344MOL0     C45313   4.503   0.854   5.268  0.7740  0.0252 -0.0163
  344MOL0     C45314   4.414   0.957   5.339  0.4085  0.3371 -0.4036
  344MOL0     C45315   4.268   0.957   5.285  0.6584 -0.1257  0.0072
  344MOL0     C45316   4.194   1.080   5.352 -0.1352  0.0993 -0.2450
  344MOL0     C45317   4.045   1.069   5.309  0.0667 -0.2513  0.0623
  344MOL0     C45318   3.962   1.185   5.372  0.4473 -0.4314  0.6755
  344MOL0     C45319   3.820   1.208   5.335  0.3561  0.1973  0.3406
  344MOL0    Cl45320   3.773   1.376   5.393 -0.3975 -0.1390  0.1906
  344MOL0     C45321   4.839   0.653   5.450 -0.3545 -0.0978  0.1732
  344MOL0     C45322   4.953   0.588   5.489  0.8428 -0.7139  0.2097
  344MOL0     O45323   5.278   0.573   5.365 -0.2147  0.4010 -0.6631
  344MOL0     C45324   5.484   0.388   5.378 -0.4493  0.9126  0.4341
  344MOL0     C45325   5.590   0.300   5.402  0.3943  0.3629  0.0891
  344MOL0     N45326   5.892  -0.498   5.488 -0.3371 -0.0544  0.0156
  344MOL0     N45327   5.860  -0.583   5.400  0.0177  0.4366  1.1118
  344MOL0     C45328   6.677   0.004   5.113 -1.3255 -0.2439 -0.1917
  344MOL0     C45329   6.796   0.073   5.154 -0.6921 -0.9046 -0.0947
  344MOL0     C45330   7.216   0.244   5.168 -0.0634  0.1427  0.5012
  344MOL0     C45331   7.277   0.196   5.286  0.0658 -0.2074  0.2517
  344MOL0     C45332   7.407   0.247   5.321 -0.1905  0.3149  0.3232
  344MOL0     C45333   7.468   0.352   5.249  0.9376 -0.0940 -0.5235
  344MOL0     O45334   7.591   0.408   5.279  0.5498  0.4547  0.1711
  344MOL0     C45335   7.674   0.357   5.387  0.2483  0.1742  0.6938
  344MOL0     C45336   7.823   0.389   5.359 -0.0198  0.2488  0.2116
  344MOL0     C45337   7.902   0.381   5.489  1.3176 -0.2881  0.3795
  344MOL0     C45338   8.041   0.424   5.474 -0.4478 -0.5579 -0.8799
  344MOL0     C45339   8.127   0.352   5.571  0.1367  0.1868 -0.8874
  344MOL0     C45340   8.185   0.294   5.657 -0.6210 -0.2900  0.0714
  344MOL0     C45341   7.398   0.397   5.139 -0.0786 -0.6655  0.0987
  344MOL0     C45342   7.272   0.348   5.096 -0.3750  0.5314 -1.3138
  344MOL0     H45343   7.011  -0.184   5.138  1.2549  1.0682 -0.4045
  344MOL0     H45344   6.822  -0.284   5.040 -0.8670  0.2787 -0.2080
  344MOL0     H45345   6.496  -0.044   4.926  0.5655 -1.7325 -1.1232
  344MOL0     H45346   6.402  -0.119   5.056 -1.9525  0.8563 -0.9174
  344MOL0     H45347   6.464  -0.254   4.790 -0.7291  0.1007  0.4840
  344MOL0     H45348   6.309  -0.183   4.831 -0.3181  1.0995  2.1986
  344MOL0     H45349   6.286  -0.338   5.028 -3.1204 -1.6060 -1.1737
  344MOL0     H45350   6.428  -0.427   4.977 -0.7505  0.0863  1.6796
  344MOL0     H45351   6.190  -0.386   4.803  0.7350  0.0119 -0.5596
  344MOL0     H45352   6.321  -0.493   4.766 -0.8913  2.3650 -1.7013
  344MOL0     H45353   6.238  -0.612   4.997 -2.5221 -1.8807 -0.0913
  344MOL0     H45354   6.163  -0.631   4.841  1.5981  0.1692 -1.9403
  344MOL0     H45355   5.985  -0.462   4.926 -1.2194  1.3378  0.8337
  344MOL0     H45356   6.086  -0.431   5.072  2.5556 -0.6980 -0.1124
  344MOL0     H45357   5.975  -0.705   5.001  1.8156 -2.8907  2.0746
  344MOL0     H45358   6.074  -0.659   5.141  1.8259  1.9531 -1.4246
  344MOL0     H45359   5.821  -0.700   5.166 -3.2835  1.4014 -1.3443
  344MOL0     H45360   5.794  -0.548   5.077  0.1769  2.8579  1.6443
  344MOL0     H45361   5.876  -0.321   5.210 -2.4242  1.9801  1.0871
  344MOL0     H45362   6.035  -0.207   5.444 -0.1940 -1.2932 -3.2779
  344MOL0     H45363   5.960  -0.284   5.578 -0.4448 -0.4381 -0.8105
  344MOL0     H45364   5.741  -0.179   5.505  1.0707 -1.7866  0.6049
  344MOL0     H45365   5.820  -0.132   5.353 -1.9020  3.1705  0.2855
  344MOL0     H45366   5.886  -0.011   5.630 -2.5571 -2.9416  0.5100
  344MOL0     H45367   5.998   0.000   5.496 -0.4737 -3.5289 -1.0107
  344MOL0     H45368   5.820   0.115   5.365 -2.5705  1.9218 -0.3280
  344MOL0     H45369   5.827   0.208   5.515  3.8311 -2.3641  3.5440
  344MOL0     H45370   5.412   0.045   5.553 -0.5656  0.0321  0.6565
  344MOL0     H45371   5.241   0.213   5.538  0.2525 -0.5697  0.4341
  344MOL0     H45372   4.981   0.380   5.219  0.3149 -0.6674 -0.1197
  344MOL0     H45373   4.751   0.480   5.174  1.7735  0.8044 -1.7266
  344MOL0     H45374   4.704   0.894   5.344  0.1908  0.6400 -0.6264
  344MOL0     H45375   4.592   0.814   5.452  0.2032  0.8863 -0.3528
  344MOL0     H45376   4.442   0.768   5.239  2.2045 -0.6733 -1.0392
  344MOL0     H45377   4.530   0.908   5.176 -0.6620 -0.5662 -0.8184
  344MOL0     H45378   4.463   1.052   5.316 -0.2281  0.6568 -0.4369
  344MOL0     H45379   4.412   0.941   5.447 -3.1113  1.3990 -0.1935
  344MOL0     H45380   4.266   0.977   5.177  0.9340 -1.9927 -0.3789
  344MOL0     H45381   4.226   0.860   5.314 -2.5268  1.2754  0.5191
  344MOL0     H45382   4.236   1.177   5.323  1.1482 -0.3391  0.0593
  344MOL0     H45383   4.195   1.071   5.461 -1.4958  3.3008  0.1388
  344MOL0     H45384   4.012   0.975   5.353  1.6187 -1.1695 -0.6574
  344MOL0     H45385   4.032   1.068   5.201 -0.1363  0.4265  0.0707
  344MOL0     H45386   3.966   1.192   5.482 -1.9651  0.4735  0.7694
  344MOL0     H45387   4.002   1.280   5.335 -0.8317 -0.0996  0.0753
  344MOL0     H45388   3.745   1.135   5.365 -0.2037  0.5518 -0.1863
  344MOL0     H45389   3.814   1.208   5.226  1.6950 -1.4278  0.2268
  344MOL0     H45390   4.805   0.732   5.517 -2.5882 -1.8389  1.2213
  344MOL0     H45391   5.016   0.609   5.575  1.9700 -2.3497 -0.1657
  344MOL0     H45392   5.501   0.478   5.320 -2.4912  1.8224  1.1374
  344MOL0     H45393   5.691   0.310   5.366  0.8494 -3.0838  0.1343
  344MOL0     H45394   6.585   0.061   5.112 -0.9169  0.4209 -1.4091
  344MOL0     H45395   6.796   0.171   5.200  0.1203 -0.9685  0.0542
  344MOL0     H45396   7.246   0.110   5.344  2.5574 -0.0559  2.0075
  344MOL0     H45397   7.471   0.198   5.394  2.3116 -1.3470 -2.7343
  344MOL0     H45398   7.675   0.248   5.387  0.3525  0.1663 -0.0855
  344MOL0     H45399   7.636   0.396   5.482 -1.2089 -1.0537  0.6546
  344MOL0     H45400   7.865   0.330   5.277 -0.4356 -1.5478  1.2265
  344MOL0     H45401   7.831   0.493   5.325 -0.2824  0.3494  0.4511
  344MOL0     H45402   7.889   0.277   5.520 -0.5355 -0.5766 -1.1423
  344MOL0     H45403   7.848   0.440   5.563  2.1892 -1.8532  2.3876
  344MOL0     H45404   8.073   0.419   5.370 -0.7011  1.6516 -1.1233
  344MOL0     H45405   8.046   0.532   5.494  0.7305 -0.4897 -1.4615
  344MOL0     H45406   8.243   0.258   5.739 -2.3274  3.0011  3.0322
  344MOL0     H45407   7.437   0.479   5.081 -0.5785  0.2486  1.0240
  344MOL0     H45408   7.226   0.372   5.000 -1.0781 -0.1054 -1.1466
  345MOL0     O45409   6.740   9.478   4.807  0.0027  0.6024 -0.1718
  345MOL0     C45410   6.796   9.504   4.701  0.4214 -0.0691  0.1882
  345MOL0     O45411   6.746   9.482   4.573  0.5666 -0.3421  0.0312
  345MOL0     C45412   6.608   9.461   4.553 -0.8560 -0.8623 -0.2988
  345MOL0     C45413   6.568   9.400   4.436  0.5470  0.4513  0.3242
  345MOL0     C45414   6.430   9.380   4.406  0.1159  0.2665  0.1779
  345MOL0     C45415   6.335   9.426   4.494 -0.2035 -0.5136  0.4601
  345MOL0     O45416   6.199   9.407   4.458 -0.2738 -0.3261 -0.0650
  345MOL0     C45417   6.105   9.432   4.559  0.2006 -0.0408 -0.8198
  345MOL0     C45418   5.963   9.391   4.520 -0.5072  0.0122  0.5521
  345MOL0     C45419   5.864   9.463   4.612 -0.0974  0.3084 -0.7955
  345MOL0     C45420   5.725   9.413   4.591  0.0340 -0.4918  0.2507
  345MOL0     C45421   5.630   9.466   4.699 -0.2387  0.6078  0.1164
  345MOL0     C45422   5.485   9.405   4.678 -0.0823 -0.3080 -0.3322
  345MOL0     C45423   5.377   9.445   4.785 -0.9198  0.1402  0.6077
  345MOL0     C45424   5.398   9.368   4.912  0.0366 -0.1651  0.1415
  345MOL0     N45425   5.293   9.382   5.000  0.7501  0.2334  0.4168
  345MOL0     C45426   5.246   9.497   5.063  0.8495  0.6607 -0.1768
  345MOL0     C45427   5.139   9.450   5.137  0.1046 -0.5253  1.0399
  345MOL0     C45428   5.059   9.535   5.237  1.2037 -0.3196 -0.4802
  345MOL0     C45429   4.903   9.530   5.212  0.1377 -0.7033 -0.1364
  345MOL0     C45430   4.822   9.643   5.282 -0.2985  0.6914  0.1910
  345MOL0     C45431   4.689   9.679   5.215 -0.2756  0.3382  0.2612
  345MOL0     O45432   4.623   9.784   5.273 -0.4644 -0.1059 -0.5745
  345MOL0     C45433   4.501   9.822   5.235 -0.7649  0.5596  0.9426
  345MOL0     C45434   4.429   9.763   5.127  0.2207  1.3950 -0.6111
  345MOL0     C45435   4.295   9.808   5.096 -0.2691 -0.0650 -1.2244
  345MOL0     C45436   4.245   9.919   5.163  0.5020  0.3276 -0.5918
  345MOL0     C45437   4.106   9.956   5.138  0.1733  1.4349  0.0535
  345MOL0     O45438   4.080  10.085   5.162  0.3934  0.1390  0.1886
  345MOL0     C45439   3.962  10.130   5.111  0.1413 -0.2521 -1.0867
  345MOL0     C45440   3.949  10.174   4.976 -0.8775  0.4298 -0.6400
  345MOL0     C45441   3.832  10.218   4.923  0.5988  1.1306  0.0639
  345MOL0     C45442   3.716  10.228   5.003  0.6214  0.2083 -0.0432
  345MOL0     O45443   3.608  10.287   4.939 -0.3252  0.2650 -0.8664
  345MOL0     C45444   3.496  10.318   5.021 -0.0261 -0.2515  0.3932
  345MOL0     C45445   3.505  10.460   5.078  0.0468  0.6407  0.2315
  345MOL0     C45446   3.366  10.532   5.081 -0.2744  0.5125  0.6262
  345MOL0     C45447   3.377  10.657   5.166 -0.0934  0.9979  0.0069
  345MOL0     C45448   3.260  10.758   5.139  1.1213 -0.1512  0.0460
  345MOL0     C45449   3.269  10.886   5.219 -0.6966 -0.6780 -0.7325
  345MOL0     C45450   3.194  11.010   5.165 -0.0973  0.3196 -0.7828
  345MOL0     C45451   3.227  11.048   5.024  0.2777  0.0665 -0.1271
  345MOL0    Cl45452   3.396  11.064   4.998 -0.3396  0.1440 -0.7041
  345MOL0     C45453   3.730  10.182   5.139 -0.0416 -0.7067 -0.1625
  345MOL0     C45454   3.848  10.140   5.195  0.3517 -1.1786 -0.3313
  345MOL0     O45455   4.032   9.871   5.092  0.3802  0.3313  0.2094
  345MOL0     C45456   4.323   9.988   5.262 -0.2079  0.5095 -0.4121
  345MOL0     C45457   4.452   9.941   5.294  0.5612 -0.3874  0.5122
  345MOL0     N45458   5.115   9.318   5.110 -0.3192  0.0818 -0.4398
  345MOL0     N45459   5.211   9.277   5.038 -0.3465  0.1864 -1.0620
  345MOL0     C45460   6.376   9.504   4.612 -0.5616  0.1830  1.0944
  345MOL0     C45461   6.517   9.520   4.635 -0.9053 -0.4460 -0.8405
  345MOL0     C45462   6.929   9.562   4.703  0.9597 -0.7921  0.4424
  345MOL0     C45463   7.013   9.553   4.591 -0.2303  0.5338 -0.6836
  345MOL0     C45464   7.142   9.604   4.590  0.0838 -0.0621 -0.0003
  345MOL0     C45465   7.192   9.662   4.715  0.0299  0.4145  0.1053
  345MOL0     O45466   7.310   9.730   4.736  0.4111 -0.1411 -0.1108
  345MOL0     C45467   7.397   9.748   4.627  0.1222  0.4402  0.1000
  345MOL0     C45468   7.507   9.833   4.669  0.6873  0.1550  0.3808
  345MOL0     C45469   7.621   9.840   4.564 -0.2660  0.7485  0.2500
  345MOL0     C45470   7.736   9.938   4.618  0.1092 -0.6070  0.3527
  345MOL0     C45471   7.852   9.911   4.533 -0.2123  0.0030  0.3361
  345MOL0     C45472   7.960   9.893   4.482  0.1527  0.6964 -0.3990
  345MOL0     C45473   7.103   9.670   4.825  0.5945  0.2847 -0.4182
  345MOL0     C45474   6.978   9.623   4.820 -0.4160 -0.0700  0.2781
  345MOL0     H45475   6.643   9.362   4.367 -0.3784  0.0868 -0.5062
  345MOL0     H45476   6.398   9.330   4.315  0.9638  1.6949 -0.9281
  345MOL0     H45477   6.106   9.534   4.598  3.7891  0.5987 -2.1762
  345MOL0     H45478   6.133   9.370   4.645 -1.6275 -0.5200 -0.5395
  345MOL0     H45479   5.948   9.283   4.527  2.2933 -0.4657  0.4137
  345MOL0     H45480   5.941   9.413   4.415 -0.0443 -3.5478 -0.4294
  345MOL0     H45481   5.884   9.570   4.610 -0.6456  0.3950 -1.8984
  345MOL0     H45482   5.876   9.428   4.715  1.1294 -0.7654 -1.2697
  345MOL0     H45483   5.703   9.449   4.490  4.3972  0.8374 -0.4421
  345MOL0     H45484   5.720   9.303   4.588  0.0151 -0.4827 -1.1265
  345MOL0     H45485   5.613   9.573   4.685  2.2501  0.8989 -1.2414
  345MOL0     H45486   5.674   9.445   4.797  0.7631  1.4845 -0.1246
  345MOL0     H45487   5.501   9.298   4.673 -0.3757 -0.2983 -2.2974
  345MOL0     H45488   5.440   9.435   4.583  2.0434  1.2272 -0.9353
  345MOL0     H45489   5.402   9.551   4.795 -1.8202  0.4511 -0.2642
  345MOL0     H45490   5.280   9.426   4.737 -0.1686  2.6816 -2.2564
  345MOL0     H45491   5.495   9.394   4.955 -0.7312  0.8423  1.3747
  345MOL0     H45492   5.401   9.264   4.879 -0.0054 -0.5969  1.4380
  345MOL0     H45493   5.277   9.601   5.053  1.4117  0.3634 -1.8929
  345MOL0     H45494   5.087   9.640   5.249  0.4420 -0.0312 -1.1432
  345MOL0     H45495   5.087   9.498   5.336  4.0715  0.9489 -0.7244
  345MOL0     H45496   4.865   9.432   5.241  0.5113 -0.0952  2.7144
  345MOL0     H45497   4.892   9.538   5.103  0.1496 -0.9752 -0.1585
  345MOL0     H45498   4.800   9.609   5.383 -2.0068 -1.2282 -0.7433
  345MOL0     H45499   4.886   9.732   5.289  1.5299 -0.4498 -1.1885
  345MOL0     H45500   4.630   9.589   5.234  2.3754 -0.9906  3.1693
  345MOL0     H45501   4.700   9.699   5.108 -2.6537  0.4780 -0.0117
  345MOL0     H45502   4.467   9.681   5.067 -2.3045  0.0920 -0.5797
  345MOL0     H45503   4.234   9.755   5.023 -0.1882 -1.6296 -0.1882
  345MOL0     H45504   4.039  10.143   4.923 -0.9132 -2.1009  0.6493
  345MOL0     H45505   3.828  10.256   4.821  1.2656 -0.4930 -0.5873
  345MOL0     H45506   3.463  10.242   5.092 -2.8962  2.2071  1.9211
  345MOL0     H45507   3.408  10.312   4.957  1.6991  1.7212 -2.4186
  345MOL0     H45508   3.578  10.516   5.019 -3.9662  2.8676 -3.2160
  345MOL0     H45509   3.548  10.443   5.177 -1.5330 -3.2747  0.4047
  345MOL0     H45510   3.299  10.457   5.123  0.3567 -1.9011 -2.3224
  345MOL0     H45511   3.332  10.552   4.979 -0.5060 -1.3398  0.2994
  345MOL0     H45512   3.375  10.629   5.272  1.5917  2.0538  0.3552
  345MOL0     H45513   3.475  10.704   5.148 -1.0657  2.9046 -0.5055
  345MOL0     H45514   3.162  10.714   5.162  0.5640  0.4499 -1.0767
  345MOL0     H45515   3.259  10.782   5.032 -0.9479  2.0631  0.4853
  345MOL0     H45516   3.377  10.898   5.231 -0.6889 -2.7979  3.3372
  345MOL0     H45517   3.238  10.874   5.323  1.3370  1.3649  0.2013
  345MOL0     H45518   3.087  10.986   5.174  0.4825 -1.8279  1.4235
  345MOL0     H45519   3.215  11.094   5.232 -0.1611 -0.4671  0.2368
  345MOL0     H45520   3.169  11.140   5.010 -0.1223  0.0223  1.1073
  345MOL0     H45521   3.175  10.974   4.961 -0.4847 -0.4861  1.1040
  345MOL0     H45522   3.641  10.169   5.199 -0.5625 -0.3343 -0.8397
  345MOL0     H45523   3.849  10.103   5.297 -3.6196 -2.0719 -0.4650
  345MOL0     H45524   4.280  10.071   5.317  0.5527  0.4430  0.3073
  345MOL0     H45525   4.518   9.985   5.367 -0.8558 -0.9958  2.2266
  345MOL0     H45526   6.309   9.564   4.673 -0.8955  1.2918 -0.3298
  345MOL0     H45527   6.551   9.583   4.716 -0.2663 -0.7534 -0.8623
  345MOL0     H45528   6.984   9.511   4.495  0.6020  0.5795 -0.9655
  345MOL0     H45529   7.204   9.625   4.503  0.6246 -0.3810  0.3053
  345MOL0     H45530   7.348   9.797   4.543  2.3632  1.7448 -0.5157
  345MOL0     H45531   7.438   9.652   4.593 -1.7927 -0.4329  0.0965
  345MOL0     H45532   7.465   9.932   4.688 -2.0542 -0.9807  0.6110
  345MOL0     H45533   7.546   9.782   4.758  0.9416  1.1019  0.8290
  345MOL0     H45534   7.580   9.882   4.471 -3.3822 -1.1523  0.6293
  345MOL0     H45535   7.652   9.737   4.544  1.6310  1.7020 -2.2935
  345MOL0     H45536   7.710  10.042   4.596  1.4971  0.4370  3.1265
  345MOL0     H45537   7.756   9.923   4.725 -0.0371 -0.4364  0.4048
  345MOL0     H45538   8.055   9.857   4.446  0.3664  1.5739 -0.7475
  345MOL0     H45539   7.145   9.733   4.902  3.5234 -0.3139 -1.4174
  345MOL0     H45540   6.913   9.634   4.907 -0.1510  0.2741  0.4365
  346MOL0     O45541   1.821   7.746   4.990 -0.4679  0.3722  0.2709
  346MOL0     C45542   1.874   7.847   4.941  0.0756  0.0559 -0.5788
  346MOL0     O45543   1.827   7.965   4.935  0.1655 -0.4249 -0.5592
  346MOL0     C45544   1.694   7.987   4.968 -0.4737 -0.1539 -0.0218
  346MOL0     C45545   1.654   8.083   5.062 -1.5238  1.0301  0.1911
  346MOL0     C45546   1.520   8.096   5.100 -0.0176  0.2862  0.4993
  346MOL0     C45547   1.422   8.012   5.043 -0.1157 -0.2149  0.0161
  346MOL0     O45548   1.290   8.047   5.079 -0.2623  0.5835  0.2534
  346MOL0     C45549   1.197   7.933   5.073  0.0646 -0.6633 -0.0718
  346MOL0     C45550   1.106   7.953   4.951 -0.0958  0.3532 -0.0212
  346MOL0     C45551   1.004   7.849   4.945  0.1462 -0.2103 -0.2422
  346MOL0     C45552   0.918   7.858   4.813  0.3838 -0.4173  0.6297
  346MOL0     C45553   0.811   7.747   4.811  0.5191  0.4267  0.5078
  346MOL0     C45554   0.734   7.736   4.681 -0.4283 -0.2291  0.6624
  346MOL0     C45555   0.635   7.625   4.696  0.4436  0.0621  0.2345
  346MOL0     C45556   0.543   7.622   4.567 -0.1983  0.3123 -0.5208
  346MOL0     N45557   0.454   7.503   4.572  0.2413 -0.4454 -0.1237
  346MOL0     C45558   0.340   7.488   4.652  0.7490 -0.5963  0.0771
  346MOL0     C45559   0.296   7.361   4.621  0.6751  0.8203  0.4016
  346MOL0     C45560   0.176   7.291   4.683  0.7132  0.4919  0.6341
  346MOL0     C45561   0.157   7.322   4.833 -0.7623 -0.7867 -0.6308
  346MOL0     C45562   0.046   7.225   4.893 -0.7575 -0.0390 -0.2716
  346MOL0     C45563   0.060   7.213   5.047  0.2201 -0.1768 -0.3277
  346MOL0     O45564   0.059   7.337   5.121 -0.6330 -0.1894  0.7246
  346MOL0     C45565  -0.062   7.372   5.180  0.7343 -0.4346  0.0843
  346MOL0     C45566  -0.059   7.473   5.283 -0.4166 -0.6404  0.0629
  346MOL0     C45567  -0.184   7.502   5.352  0.1633  0.5124 -0.2453
  346MOL0     C45568  -0.300   7.425   5.334  0.7932 -0.5825 -0.2447
  346MOL0     C45569  -0.436   7.458   5.405 -0.5205  0.3660 -0.8760
  346MOL0     O45570  -0.420   7.525   5.531  0.1738 -0.4466 -0.3682
  346MOL0     C45571  -0.532   7.584   5.584  0.2476 -0.0131  0.1943
  346MOL0     C45572  -0.619   7.517   5.667  0.2480 -0.1583  0.1499
  346MOL0     C45573  -0.725   7.582   5.713  0.6079  0.4259  0.2870
  346MOL0     C45574  -0.747   7.720   5.690  0.1815 -0.2908 -0.1170
  346MOL0     O45575  -0.852   7.787   5.734 -0.1418  0.1542 -0.4390
  346MOL0     C45576  -0.922   7.742   5.851  0.7126 -0.1579  0.0707
  346MOL0     C45577  -0.972   7.863   5.922 -0.3190 -0.6448 -0.2124
  346MOL0     C45578  -1.072   7.961   5.842 -0.3572  0.4369 -0.8156
  346MOL0     C45579  -1.218   7.903   5.836 -1.0137 -0.6318 -0.0629
  346MOL0     C45580  -1.318   8.006   5.776  0.1465  0.4412  0.4440
  346MOL0     C45581  -1.461   7.966   5.815  0.3423 -0.6024 -0.4128
  346MOL0     C45582  -1.579   8.047   5.748 -0.1025  0.8185 -0.6636
  346MOL0     C45583  -1.568   8.064   5.602  0.1387 -0.3670 -0.7515
  346MOL0    Cl45584  -1.496   7.915   5.528 -0.0725  0.3721  0.6483
  346MOL0     C45585  -0.647   7.786   5.611  0.2361 -0.1519 -0.2564
  346MOL0     C45586  -0.551   7.713   5.542  0.0033  0.4935 -1.5557
  346MOL0     O45587  -0.539   7.433   5.345  0.1028 -0.6654 -0.4589
  346MOL0     C45588  -0.297   7.331   5.232 -0.1979  0.4092  0.7485
  346MOL0     C45589  -0.187   7.307   5.152 -0.1476  0.3321  0.0487
  346MOL0     N45590   0.385   7.303   4.538  0.0350  0.4164 -0.0492
  346MOL0     N45591   0.484   7.385   4.508  0.1017  0.2927 -0.8203
  346MOL0     C45592   1.461   7.922   4.944  0.0063 -0.5345 -0.1184
  346MOL0     C45593   1.594   7.911   4.905 -0.4059 -0.1750 -0.1042
  346MOL0     C45594   2.010   7.823   4.892 -0.1452 -1.3028  0.2763
  346MOL0     C45595   2.065   7.931   4.823  0.0933 -0.6245 -0.1079
  346MOL0     C45596   2.191   7.916   4.764  0.0657  0.0935  0.1032
  346MOL0     C45597   2.269   7.806   4.790  0.4462 -0.4023  0.2893
  346MOL0     O45598   2.391   7.800   4.725  0.6191 -0.1472  0.2989
  346MOL0     C45599   2.502   7.722   4.774  0.7851 -1.0462 -0.0553
  346MOL0     C45600   2.623   7.762   4.688  1.0544 -0.2625 -0.5010
  346MOL0     C45601   2.598   7.763   4.539  0.3128  0.6223  0.1587
  346MOL0     C45602   2.729   7.801   4.469 -0.1713  0.8509 -0.3837
  346MOL0     C45603   2.827   7.688   4.474  1.2437 -0.5148  0.3831
  346MOL0     C45604   2.889   7.584   4.467  1.1839  0.1199  0.6015
  346MOL0     C45605   2.218   7.702   4.867 -0.8397  0.2640  0.0228
  346MOL0     C45606   2.088   7.711   4.913 -0.5963 -0.4524 -0.1278
  346MOL0     H45607   1.731   8.148   5.104  0.8982 -2.4412  1.5573
  346MOL0     H45608   1.499   8.183   5.162 -2.1310  0.8351 -0.8837
  346MOL0     H45609   1.129   7.939   5.158  0.7953  0.5092  0.4577
  346MOL0     H45610   1.247   7.837   5.088  0.3340 -0.1337  3.0295
  346MOL0     H45611   1.160   7.942   4.856 -3.1327  0.1836 -1.8733
  346MOL0     H45612   1.068   8.056   4.950  0.5757  0.6348  1.2143
  346MOL0     H45613   0.941   7.846   5.034 -0.6067 -1.0495 -0.7797
  346MOL0     H45614   1.055   7.752   4.938  0.4819 -0.1133  0.7748
  346MOL0     H45615   0.859   7.950   4.823  3.1562  1.2184  3.5706
  346MOL0     H45616   0.978   7.861   4.722  1.1254 -0.9858  1.0916
  346MOL0     H45617   0.741   7.755   4.895  0.7884  2.5732  0.5988
  346MOL0     H45618   0.866   7.653   4.822  1.2972  0.5207 -1.9258
  346MOL0     H45619   0.802   7.721   4.597  0.7239 -0.3154  1.5800
  346MOL0     H45620   0.667   7.819   4.659 -3.1060 -2.2325  0.7148
  346MOL0     H45621   0.688   7.529   4.701 -1.7961 -1.1857  1.6715
  346MOL0     H45622   0.581   7.644   4.789  0.8507  0.0813  0.4709
  346MOL0     H45623   0.603   7.618   4.475 -0.2243  1.4005 -0.6004
  346MOL0     H45624   0.482   7.713   4.567  0.3065  0.7502  2.4658
  346MOL0     H45625   0.305   7.559   4.725 -0.1153  0.7589 -1.5847
  346MOL0     H45626   0.171   7.182   4.674 -2.3212  0.6905 -1.4093
  346MOL0     H45627   0.090   7.330   4.628  0.5787 -0.6777 -0.0320
  346MOL0     H45628   0.128   7.425   4.852  1.6052 -0.1664 -0.0724
  346MOL0     H45629   0.259   7.300   4.869 -0.7001  1.8774  1.0662
  346MOL0     H45630  -0.055   7.258   4.866 -0.5724  0.0609 -0.8641
  346MOL0     H45631   0.049   7.123   4.853 -2.3747 -1.0754  2.0135
  346MOL0     H45632   0.147   7.148   5.054 -2.0156 -3.5479 -1.2926
  346MOL0     H45633  -0.020   7.144   5.076 -0.1768  0.7803  0.9203
  346MOL0     H45634   0.035   7.524   5.298 -1.3614  1.2886 -0.2876
  346MOL0     H45635  -0.193   7.583   5.424 -3.5626  2.4781 -2.5999
  346MOL0     H45636  -0.591   7.415   5.692  0.6621 -0.8420 -2.7530
  346MOL0     H45637  -0.807   7.531   5.762  0.9015 -1.8925 -1.4567
  346MOL0     H45638  -0.862   7.683   5.919  2.2812  1.6926  0.3746
  346MOL0     H45639  -1.008   7.683   5.819 -1.0780  2.4439 -0.2882
  346MOL0     H45640  -0.886   7.927   5.946 -1.1699  0.0400  1.1201
  346MOL0     H45641  -1.007   7.833   6.021  0.9754  1.2590  0.9029
  346MOL0     H45642  -1.038   7.976   5.739 -3.3304 -0.8424 -2.1081
  346MOL0     H45643  -1.079   8.061   5.886  0.0666 -0.6424  1.8939
  346MOL0     H45644  -1.224   7.807   5.784  1.4220 -0.1699 -1.3480
  346MOL0     H45645  -1.233   7.884   5.943  2.5381  3.7433  1.5544
  346MOL0     H45646  -1.323   7.989   5.669 -3.5064 -0.1536  0.5734
  346MOL0     H45647  -1.298   8.110   5.805 -2.9570  1.1492  0.4356
  346MOL0     H45648  -1.463   7.971   5.925  2.1479  2.2679 -0.3884
  346MOL0     H45649  -1.474   7.862   5.785 -0.9857  0.0054 -2.1357
  346MOL0     H45650  -1.679   8.006   5.764  0.8671 -1.4999 -0.1489
  346MOL0     H45651  -1.579   8.149   5.789 -0.1650  1.4392 -2.1400
  346MOL0     H45652  -1.501   8.148   5.580  1.0669  0.2692  3.6015
  346MOL0     H45653  -1.667   8.084   5.562 -0.6879  2.4814  2.2426
  346MOL0     H45654  -0.665   7.891   5.594  2.7047  0.4982  0.7561
  346MOL0     H45655  -0.466   7.750   5.487  2.5645  0.3802  2.0129
  346MOL0     H45656  -0.387   7.273   5.214  0.1840 -0.2264  0.8457
  346MOL0     H45657  -0.197   7.235   5.071  0.9603  1.6659 -1.3370
  346MOL0     H45658   1.388   7.860   4.894  1.1839 -1.3661 -0.8575
  346MOL0     H45659   1.634   7.845   4.829  2.8735 -0.5073  1.7556
  346MOL0     H45660   2.015   8.027   4.813  0.7228 -0.3280 -0.4778
  346MOL0     H45661   2.236   7.987   4.695 -0.8725  0.2886 -0.3200
  346MOL0     H45662   2.480   7.615   4.766  0.0329 -0.8237 -1.1707
  346MOL0     H45663   2.526   7.743   4.879  0.9491  0.3965 -0.3584
  346MOL0     H45664   2.656   7.862   4.719 -1.2217  0.3894 -0.0313
  346MOL0     H45665   2.695   7.685   4.719  1.2129  0.8634  2.2133
  346MOL0     H45666   2.523   7.837   4.512  1.4493  1.7745  0.0988
  346MOL0     H45667   2.566   7.666   4.499  0.8740  0.1217  0.8948
  346MOL0     H45668   2.698   7.814   4.365 -0.8508  2.0722 -0.0461
  346MOL0     H45669   2.770   7.898   4.500  1.2901  0.6109 -1.4668
  346MOL0     H45670   2.955   7.500   4.459 -2.4789 -2.9516 -0.2532
  346MOL0     H45671   2.267   7.608   4.891 -0.4991  0.3936 -0.1580
  346MOL0     H45672   2.036   7.636   4.972 -1.6103  2.2216  2.7034
  347MOL0     O45673   4.685   8.975  11.058  0.4567 -0.4473  0.2145
  347MOL0     C45674   4.624   9.058  11.127 -0.1004 -0.4505  0.0974
  347MOL0     O45675   4.493   9.068  11.138  0.1085  0.1551 -0.1596
  347MOL0     C45676   4.416   8.961  11.109  0.2258  0.4053 -0.6028
  347MOL0     C45677   4.394   8.855  11.190 -1.2645 -0.0834  0.2679
  347MOL0     C45678   4.302   8.754  11.153 -0.5135 -0.2261  1.4582
  347MOL0     C45679   4.238   8.759  11.032 -0.6058 -0.1038 -0.1245
  347MOL0     O45680   4.173   8.640  10.987  0.0295  0.0707 -0.6390
  347MOL0     C45681   4.059   8.658  10.902  0.2688  0.0903  0.5966
  347MOL0     C45682   3.959   8.543  10.918 -0.1155  0.5042  0.4743
  347MOL0     C45683   3.812   8.578  10.883 -0.6006  0.2823  0.3777
  347MOL0     C45684   3.812   8.641  10.743 -0.2878 -0.3240  0.0866
  347MOL0     C45685   3.683   8.686  10.693 -0.3535 -0.9621 -0.4719
  347MOL0     C45686   3.570   8.585  10.684  0.6106 -0.0550  0.3865
  347MOL0     C45687   3.441   8.650  10.634  0.5179  0.6231 -0.0891
  347MOL0     C45688   3.411   8.799  10.649  0.2438 -0.1133 -0.0290
  347MOL0     N45689   3.297   8.837  10.569  0.7675  0.2316  0.8012
  347MOL0     C45690   3.167   8.780  10.594 -0.5602  0.1118  1.3816
  347MOL0     C45691   3.106   8.796  10.467  0.2260  0.6757  0.5863
  347MOL0     C45692   2.968   8.753  10.418  0.1927 -0.0250 -0.3826
  347MOL0     C45693   2.848   8.818  10.493 -1.2184 -0.2879 -0.0533
  347MOL0     C45694   2.842   8.968  10.502  0.4573  0.4242 -0.6763
  347MOL0     C45695   2.699   9.009  10.541  0.3746  0.5143 -0.1814
  347MOL0     O45696   2.703   9.134  10.603  0.0208  0.7575  0.1828
  347MOL0     C45697   2.590   9.164  10.671 -0.3285  0.2840 -0.1828
  347MOL0     C45698   2.466   9.118  10.625 -0.3981  0.3794 -0.6192
  347MOL0     C45699   2.354   9.129  10.705 -0.2779 -0.5218  0.2691
  347MOL0     C45700   2.361   9.201  10.832 -0.0691  1.1983  1.0095
  347MOL0     C45701   2.238   9.239  10.911 -0.3488  0.2028 -0.6847
  347MOL0     O45702   2.127   9.178  10.862 -0.0246 -0.2100 -0.2497
  347MOL0     C45703   2.007   9.177  10.926 -0.4365  0.5450 -0.2307
  347MOL0     C45704   1.997   9.158  11.065  1.1136 -0.0783 -0.3130
  347MOL0     C45705   1.876   9.131  11.127  0.2454  0.4246 -0.4753
  347MOL0     C45706   1.754   9.131  11.056 -1.0712 -0.5014  0.9401
  347MOL0     O45707   1.632   9.129  11.118  0.2063 -0.4551 -0.0070
  347MOL0     C45708   1.519   9.096  11.040 -0.0675 -0.2527  0.6295
  347MOL0     C45709   1.417   9.043  11.137 -0.1348 -0.6568 -0.3389
  347MOL0     C45710   1.278   9.055  11.075 -0.7655 -0.3970 -0.4408
  347MOL0     C45711   1.189   8.976  11.170  0.2545 -0.9076  0.4054
  347MOL0     C45712   1.048   8.994  11.112  0.0324  0.2638  0.1871
  347MOL0     C45713   0.946   8.912  11.197 -0.3389 -0.3071 -0.0716
  347MOL0     C45714   0.814   8.894  11.119 -0.0389 -0.7047  0.2364
  347MOL0     C45715   0.725   8.778  11.148  0.0121 -0.2786  0.5217
  347MOL0    Cl45716   0.584   8.790  11.038 -0.4343 -0.4327 -0.0902
  347MOL0     C45717   1.765   9.138  10.914  0.1563  0.8021  0.7613
  347MOL0     C45718   1.888   9.150  10.854 -0.5837 -0.5957  1.1719
  347MOL0     O45719   2.249   9.302  11.015  0.2894 -0.0558 -0.3655
  347MOL0     C45720   2.485   9.246  10.870  0.3679  0.1142 -0.1757
  347MOL0     C45721   2.598   9.223  10.799 -0.2642  0.2247  0.2980
  347MOL0     N45722   3.193   8.857  10.383  0.1366 -0.4868 -0.0719
  347MOL0     N45723   3.307   8.880  10.440 -0.5817  0.3061  0.2190
  347MOL0     C45724   4.239   8.875  10.959  0.4456 -0.5480  1.0824
  347MOL0     C45725   4.322   8.979  11.006 -0.6145 -0.5134 -0.2758
  347MOL0     C45726   4.698   9.166  11.185  0.0463 -0.1058 -0.3969
  347MOL0     C45727   4.833   9.142  11.225 -0.6760 -0.5636 -0.3853
  347MOL0     C45728   4.912   9.252  11.261 -0.3957  0.2113  0.5954
  347MOL0     C45729   4.867   9.383  11.260 -0.5091  0.0432 -0.0379
  347MOL0     O45730   4.960   9.480  11.286 -0.4991  0.1965  0.1375
  347MOL0     C45731   4.915   9.614  11.268 -0.2960 -0.6686 -0.2463
  347MOL0     C45732   5.039   9.709  11.301  0.3295  0.3269  0.1491
  347MOL0     C45733   5.088   9.691  11.440  0.5506 -0.8366 -0.1160
  347MOL0     C45734   4.974   9.726  11.543  0.1330 -0.2285 -0.4068
  347MOL0     C45735   4.953   9.872  11.556 -0.5900 -0.1279  0.4058
  347MOL0     C45736   4.949   9.989  11.557  0.4872  0.1380  0.2957
  347MOL0     C45737   4.732   9.403  11.216  0.2010 -0.8363 -1.1599
  347MOL0     C45738   4.649   9.297  11.185 -0.0626  0.5689  0.3627
  347MOL0     H45739   4.440   8.854  11.288  1.0830 -1.2312 -0.7488
  347MOL0     H45740   4.275   8.670  11.215 -1.5782  1.1076  2.8823
  347MOL0     H45741   4.086   8.672  10.797 -4.1899 -0.6491 -0.8813
  347MOL0     H45742   3.998   8.745  10.930  0.3504  0.2642  0.2365
  347MOL0     H45743   3.969   8.504  11.020  2.1202  1.1111  0.5604
  347MOL0     H45744   3.999   8.466  10.851  1.7642  0.5395  1.4674
  347MOL0     H45745   3.776   8.645  10.962 -1.5560 -2.7020  2.6537
  347MOL0     H45746   3.742   8.495  10.884 -0.5189  0.1991  2.2256
  347MOL0     H45747   3.866   8.735  10.755  0.5604 -0.7914 -0.0407
  347MOL0     H45748   3.864   8.583  10.667 -0.5503  2.6788 -2.6531
  347MOL0     H45749   3.707   8.725  10.594 -0.2774  0.1366 -0.0320
  347MOL0     H45750   3.653   8.775  10.750  1.3922 -1.2458  0.9667
  347MOL0     H45751   3.550   8.558  10.789 -0.4640  2.3726  0.8845
  347MOL0     H45752   3.601   8.497  10.628 -1.3173 -0.9132  0.5678
  347MOL0     H45753   3.442   8.639  10.525 -0.7545 -2.3315  0.1010
  347MOL0     H45754   3.362   8.588  10.678  1.8548 -0.2453  1.1836
  347MOL0     H45755   3.501   8.848  10.611  0.2322 -0.8275 -1.0165
  347MOL0     H45756   3.393   8.825  10.753  0.5884 -1.6832  0.4534
  347MOL0     H45757   3.131   8.733  10.685 -3.1055  2.5463  1.7796
  347MOL0     H45758   2.956   8.645  10.428 -0.0911  0.1302  1.2564
  347MOL0     H45759   2.959   8.786  10.314  0.2321 -0.2025 -0.4409
  347MOL0     H45760   2.856   8.773  10.593 -0.0094 -1.2962 -0.5768
  347MOL0     H45761   2.752   8.788  10.450 -0.8022  0.9229 -1.9248
  347MOL0     H45762   2.914   8.985  10.583  2.2715 -1.2015 -1.8326
  347MOL0     H45763   2.867   9.012  10.405 -1.5487  0.0949 -1.3835
  347MOL0     H45764   2.654   8.931  10.603  0.9593  1.2302  1.1866
  347MOL0     H45765   2.641   9.031  10.451 -0.5638  0.4980  0.4065
  347MOL0     H45766   2.457   9.068  10.529 -0.6345 -1.7967  0.4864
  347MOL0     H45767   2.256   9.109  10.664 -0.1649  0.3029 -0.4413
  347MOL0     H45768   2.080   9.166  11.135 -0.1993 -1.9549  1.6020
  347MOL0     H45769   1.870   9.106  11.232 -3.4673  0.8761 -0.4576
  347MOL0     H45770   1.536   9.013  10.971 -0.7824 -0.1362  0.3050
  347MOL0     H45771   1.477   9.178  10.981 -1.3293 -2.5070 -1.8336
  347MOL0     H45772   1.423   9.103  11.228 -4.0459  1.2901 -1.1746
  347MOL0     H45773   1.432   8.936  11.159 -0.6668 -0.7957 -0.6338
  347MOL0     H45774   1.271   9.007  10.977 -0.9124  0.7969 -1.0465
  347MOL0     H45775   1.249   9.160  11.063  1.3197  0.7865  3.4462
  347MOL0     H45776   1.220   8.872  11.183 -2.0982 -1.8994 -1.2597
  347MOL0     H45777   1.176   9.011  11.273 -2.5388 -2.4316  0.6725
  347MOL0     H45778   1.049   8.936  11.019 -0.9366 -0.5035  0.6347
  347MOL0     H45779   1.016   9.098  11.107 -0.6440  0.1875  2.1396
  347MOL0     H45780   0.936   8.955  11.297  2.1195  2.5612 -0.9108
  347MOL0     H45781   0.978   8.808  11.209  0.0532 -0.1578  0.1756
  347MOL0     H45782   0.754   8.982  11.142  2.3365  0.3635  2.9170
  347MOL0     H45783   0.824   8.888  11.010  1.3600 -0.0211  0.3095
  347MOL0     H45784   0.686   8.783  11.250 -3.2131  1.1700 -0.6366
  347MOL0     H45785   0.786   8.690  11.128 -0.6736 -0.1282 -2.8675
  347MOL0     H45786   1.687   9.138  10.839  2.3015  1.5286 -1.5908
  347MOL0     H45787   1.900   9.173  10.748 -0.3968  0.0274  1.3218
  347MOL0     H45788   2.491   9.287  10.970 -0.6351  1.5880 -0.6739
  347MOL0     H45789   2.693   9.253  10.841 -0.0948 -0.7025  0.5879
  347MOL0     H45790   4.178   8.889  10.870 -0.1930 -3.4243  0.9719
  347MOL0     H45791   4.332   9.065  10.942 -0.7121  1.0471  1.7120
  347MOL0     H45792   4.869   9.040  11.215  2.1087 -0.0197  2.4996
  347MOL0     H45793   5.016   9.233  11.287  0.5775 -0.6948 -3.2666
  347MOL0     H45794   4.828   9.638  11.330  0.1435 -0.9505  0.4920
  347MOL0     H45795   4.872   9.631  11.169  0.2156 -2.7632 -0.8721
  347MOL0     H45796   5.118   9.674  11.235 -1.1168 -1.1750 -0.8549
  347MOL0     H45797   5.013   9.815  11.287  0.3194  0.6003  1.8895
  347MOL0     H45798   5.172   9.760  11.453  0.3865 -0.5088 -0.7731
  347MOL0     H45799   5.146   9.598  11.442  2.0624  0.0790  1.7125
  347MOL0     H45800   4.877   9.679  11.523  1.3728 -2.2760 -1.9535
  347MOL0     H45801   4.996   9.704  11.648  0.8981  0.1477 -0.4826
  347MOL0     H45802   4.936  10.095  11.560 -1.5880  0.1899 -3.7960
  347MOL0     H45803   4.689   9.503  11.207 -1.4494 -1.4363 -0.4136
  347MOL0     H45804   4.548   9.314  11.149  0.3967  0.4999 -1.0223
  348MOL0     O45805   9.741  10.566   3.425  0.0139  0.5834  0.0567
  348MOL0     C45806   9.731  10.666   3.495  0.2902  0.4978 -0.0541
  348MOL0     O45807   9.612  10.740   3.516 -0.2874  0.2547  0.1038
  348MOL0     C45808   9.507  10.699   3.432 -0.1285  0.2176  0.2021
  348MOL0     C45809   9.396  10.624   3.481  0.1659  0.0408  0.0141
  348MOL0     C45810   9.299  10.589   3.380  0.7305 -1.1711 -0.0304
  348MOL0     C45811   9.301  10.637   3.246 -0.0866  0.5729  0.1110
  348MOL0     O45812   9.197  10.616   3.165  0.5866 -0.6989  0.3134
  348MOL0     C45813   9.120  10.500   3.181 -0.7312  0.3738  0.4861
  348MOL0     C45814   9.029  10.488   3.052  0.4108  0.3532  0.2574
  348MOL0     C45815   8.927  10.374   3.086 -0.3083 -0.8304  0.0425
  348MOL0     C45816   8.833  10.344   2.969  0.5615 -0.0380 -0.3492
  348MOL0     C45817   8.712  10.261   3.024 -0.8505 -1.0155 -0.2277
  348MOL0     C45818   8.607  10.249   2.917 -0.2564  0.4170  0.6804
  348MOL0     C45819   8.474  10.181   2.971 -0.5905 -0.5108 -0.0203
  348MOL0     C45820   8.476  10.032   3.012  0.3850  0.5164 -0.4967
  348MOL0     N45821   8.341   9.988   3.054 -0.2985 -0.1117  0.2310
  348MOL0     C45822   8.255   9.933   2.960  0.1717 -0.3455  0.0874
  348MOL0     C45823   8.146   9.895   3.034 -0.1280  0.2296 -0.0951
  348MOL0     C45824   8.017   9.839   2.983 -0.0852 -0.1480 -0.0463
  348MOL0     C45825   7.904   9.951   2.995 -0.0671  0.0780 -0.0173
  348MOL0     C45826   7.772   9.876   2.957 -0.0173 -0.0097  0.3174
  348MOL0     C45827   7.759   9.847   2.807  0.0962  0.6648 -0.1186
  348MOL0     O45828   7.654   9.756   2.788 -0.0087 -0.1886  0.1973
  348MOL0     C45829   7.517   9.793   2.764 -0.4154 -0.7997  0.9950
  348MOL0     C45830   7.475   9.927   2.777 -0.3355  0.7743 -0.6028
  348MOL0     C45831   7.340   9.960   2.758  0.5203  0.5842  0.8993
  348MOL0     C45832   7.246   9.855   2.738  0.7229 -0.9202 -0.1946
  348MOL0     C45833   7.107   9.891   2.703  0.0797  0.4002  0.1371
  348MOL0     O45834   7.015   9.786   2.710 -0.3940  0.1930 -0.1990
  348MOL0     C45835   6.886   9.806   2.685 -0.2914  0.2693  0.1991
  348MOL0     C45836   6.810   9.882   2.780 -0.8611 -0.5147  0.1074
  348MOL0     C45837   6.675   9.897   2.759 -0.2400 -0.3479  0.0319
  348MOL0     C45838   6.615   9.837   2.642  0.6927 -0.6680 -0.7391
  348MOL0     O45839   6.481   9.836   2.622 -0.3226 -0.6028 -0.5547
  348MOL0     C45840   6.401   9.936   2.689  0.4729 -0.3393  0.5741
  348MOL0     C45841   6.261   9.957   2.626 -0.2159  0.0064  0.5614
  348MOL0     C45842   6.252  10.091   2.545 -0.5679 -0.2993 -0.5658
  348MOL0     C45843   6.107  10.146   2.526  0.7700  0.1466  0.3557
  348MOL0     C45844   6.017  10.049   2.454  0.6893  0.3911 -0.2972
  348MOL0     C45845   5.880  10.114   2.416  1.0092  0.1115 -0.1182
  348MOL0     C45846   5.800  10.009   2.343  0.7325  0.6633 -0.8248
  348MOL0     C45847   5.652  10.033   2.367 -0.5182  0.8506  0.7112
  348MOL0    Cl45848   5.604  10.206   2.325  0.2180  0.2974  0.0416
  348MOL0     C45849   6.689   9.761   2.557  0.1687 -0.5999  0.5468
  348MOL0     C45850   6.825   9.741   2.576  0.2150 -0.1002 -0.2516
  348MOL0     O45851   7.080  10.003   2.667  0.1428 -0.2526  0.6041
  348MOL0     C45852   7.291   9.726   2.734 -0.1516  0.1658 -0.5645
  348MOL0     C45853   7.425   9.698   2.739  0.0613 -0.0486  0.4771
  348MOL0     N45854   8.165   9.933   3.165  0.9074  0.2621  0.2959
  348MOL0     N45855   8.275   9.993   3.174  0.2258  0.2234 -0.6399
  348MOL0     C45856   9.416  10.704   3.202  0.5506 -0.0832 -0.0774
  348MOL0     C45857   9.513  10.729   3.294  1.1763 -0.0433  0.9806
  348MOL0     C45858   9.851  10.715   3.558 -0.3091 -0.7145  0.2934
  348MOL0     C45859   9.847  10.819   3.651  0.2207 -0.1303 -0.1715
  348MOL0     C45860   9.971  10.875   3.695  0.0883 -0.8411  0.2831
  348MOL0     C45861  10.100  10.818   3.662  1.1635 -0.6493 -0.0376
  348MOL0     O45862  10.207  10.869   3.731  0.2632 -0.2877 -0.1772
  348MOL0     C45863  10.340  10.822   3.679  0.0294  0.0353  0.2257
  348MOL0     C45864  10.442  10.904   3.759  0.0810 -0.2634  0.2519
  348MOL0     C45865  10.445  10.876   3.912 -0.6197  0.0328  0.7212
  348MOL0     C45866  10.526  10.987   3.988  0.3130  0.2702  0.2991
  348MOL0     C45867  10.667  11.001   3.944  0.4605 -0.7841  0.4587
  348MOL0     C45868  10.786  11.008   3.900 -0.1825 -0.2804  0.0810
  348MOL0     C45869  10.092  10.715   3.561  0.0462 -0.8854 -0.2826
  348MOL0     C45870   9.971  10.678   3.512 -1.5939 -0.3995  0.5648
  348MOL0     H45871   9.378  10.603   3.586 -1.9483  5.0112  0.9037
  348MOL0     H45872   9.211  10.537   3.416 -0.5581  0.8868 -0.0759
  348MOL0     H45873   9.056  10.508   3.269 -0.0849  2.1028  0.8362
  348MOL0     H45874   9.181  10.409   3.183 -1.2108  0.0451  0.4464
  348MOL0     H45875   9.097  10.467   2.968  0.5611 -1.1323  0.7320
  348MOL0     H45876   8.976  10.580   3.028 -0.1140  0.4748  1.7953
  348MOL0     H45877   8.862  10.414   3.165 -0.9520  2.2392 -1.8519
  348MOL0     H45878   8.970  10.284   3.130 -1.2344 -0.4091  1.9114
  348MOL0     H45879   8.808  10.440   2.924 -1.2292 -0.6513 -0.7377
  348MOL0     H45880   8.869  10.285   2.884 -0.5329 -1.5163  0.1758
  348MOL0     H45881   8.678  10.299   3.121 -1.9771 -1.9370 -0.2383
  348MOL0     H45882   8.749  10.161   3.050  1.3241  0.1884  1.6634
  348MOL0     H45883   8.645  10.184   2.838 -5.3006 -1.2616 -0.7301
  348MOL0     H45884   8.572  10.344   2.875 -0.6603  0.8119  1.8723
  348MOL0     H45885   8.441  10.240   3.056 -2.7369 -1.6784  0.0556
  348MOL0     H45886   8.398  10.191   2.893 -1.6359  0.7567  1.1191
  348MOL0     H45887   8.549  10.012   3.091 -0.2807 -2.7335 -0.5408
  348MOL0     H45888   8.505   9.971   2.926  0.2006 -2.2319  1.2561
  348MOL0     H45889   8.271   9.947   2.853 -1.3631 -0.7178 -0.2301
  348MOL0     H45890   8.002   9.756   3.053  2.2411 -0.8087 -0.2344
  348MOL0     H45891   8.025   9.797   2.882 -2.2183 -0.8151  0.0151
  348MOL0     H45892   7.943  10.036   2.939  1.7781 -2.4038 -2.8029
  348MOL0     H45893   7.894   9.979   3.100 -0.7620  1.8661 -0.5331
  348MOL0     H45894   7.760   9.779   3.005 -0.1838 -0.9852 -1.6108
  348MOL0     H45895   7.689   9.943   2.983 -1.4829 -0.4225 -2.8871
  348MOL0     H45896   7.855   9.808   2.772 -0.6480 -0.2094 -1.2625
  348MOL0     H45897   7.750   9.937   2.745 -1.0209  0.6108 -0.0631
  348MOL0     H45898   7.540  10.012   2.797  0.7555 -0.0213 -0.7086
  348MOL0     H45899   7.312  10.065   2.757 -2.3065 -0.0854 -0.7115
  348MOL0     H45900   6.860   9.920   2.868  0.7215 -1.2948 -0.4235
  348MOL0     H45901   6.619   9.949   2.836  1.3344  1.0511  0.2949
  348MOL0     H45902   6.459  10.029   2.695 -0.0603  0.0170  0.3194
  348MOL0     H45903   6.380   9.904   2.792  0.6510  2.2873  1.5033
  348MOL0     H45904   6.186   9.957   2.706  1.2945 -2.5572  2.1448
  348MOL0     H45905   6.244   9.874   2.556  1.3660 -1.2178  1.5529
  348MOL0     H45906   6.315  10.096   2.456 -1.9563 -1.5608 -1.6737
  348MOL0     H45907   6.294  10.167   2.610 -0.8299  0.1964 -0.9652
  348MOL0     H45908   6.060  10.183   2.617 -0.8406 -1.4467  0.2381
  348MOL0     H45909   6.111  10.235   2.462 -1.3994 -0.0623 -0.1556
  348MOL0     H45910   5.998   9.959   2.514  0.9502  1.2775  1.1767
  348MOL0     H45911   6.075  10.018   2.367  1.3995 -2.9286  1.1890
  348MOL0     H45912   5.884  10.203   2.353 -1.1595 -1.4799 -2.6987
  348MOL0     H45913   5.837  10.161   2.505  0.9267  0.4621 -0.3448
  348MOL0     H45914   5.817  10.012   2.235 -0.1221  0.2267 -0.9752
  348MOL0     H45915   5.819   9.906   2.373 -1.9405  0.0323 -1.0873
  348MOL0     H45916   5.616  10.006   2.467 -2.3850 -0.5872 -0.2685
  348MOL0     H45917   5.592   9.972   2.298  0.9621  1.1558 -0.9072
  348MOL0     H45918   6.639   9.724   2.469  0.2723 -2.4686  1.2305
  348MOL0     H45919   6.879   9.677   2.508 -0.9536 -1.1336 -0.2512
  348MOL0     H45920   7.219   9.645   2.733 -0.8826  0.7830  0.1202
  348MOL0     H45921   7.450   9.593   2.747  1.6132  0.1001 -1.6573
  348MOL0     H45922   9.427  10.735   3.099 -1.6979 -1.3396 -0.7734
  348MOL0     H45923   9.605  10.774   3.257  0.2267 -0.3230 -2.0028
  348MOL0     H45924   9.754  10.851   3.697  0.7496  1.1989  0.0138
  348MOL0     H45925   9.976  10.944   3.779  3.2328 -0.8196  0.1997
  348MOL0     H45926  10.347  10.848   3.573  0.7223  1.3621  0.5693
  348MOL0     H45927  10.352  10.715   3.699  3.1787 -0.0236 -1.2860
  348MOL0     H45928  10.541  10.882   3.717 -1.4248 -3.2697 -2.1175
  348MOL0     H45929  10.416  11.010   3.751  1.1236  0.0548  0.9346
  348MOL0     H45930  10.503  10.784   3.931 -1.8661 -0.6247  1.5092
  348MOL0     H45931  10.345  10.856   3.950 -2.0209 -3.3240 -3.8978
  348MOL0     H45932  10.468  11.078   3.971 -3.0396 -1.1633  2.9299
  348MOL0     H45933  10.525  10.972   4.096  0.7552  0.6350  0.3592
  348MOL0     H45934  10.887  11.004   3.863 -1.4650  0.7984 -4.0781
  348MOL0     H45935  10.181  10.663   3.526 -0.5193 -2.1035  0.0438
  348MOL0     H45936   9.986  10.607   3.432 -1.0963  1.2903 -0.9191
  349MOL0     O45937   9.590   6.062   7.250 -0.1243  0.2836 -0.2173
  349MOL0     C45938   9.670   6.039   7.166 -0.2250  0.2053  0.5190
  349MOL0     O45939   9.645   6.007   7.035  0.7921  0.5364  0.3312
  349MOL0     C45940   9.516   5.983   7.004  0.3174  0.4587 -0.1584
  349MOL0     C45941   9.450   5.860   7.046 -0.1979  0.2013 -0.2441
  349MOL0     C45942   9.328   5.818   6.992 -0.1230 -0.7427 -0.3985
  349MOL0     C45943   9.260   5.898   6.896 -0.0008  0.9602  0.6062
  349MOL0     O45944   9.137   5.863   6.852  0.2568  0.2384 -0.3929
  349MOL0     C45945   9.039   5.958   6.788  0.7714  0.8198  0.9264
  349MOL0     C45946   8.908   5.907   6.797 -0.0905  0.8081  0.0059
  349MOL0     C45947   8.880   5.762   6.758  0.2023 -0.1710 -0.6108
  349MOL0     C45948   8.727   5.735   6.762  0.6667 -0.1150  0.6999
  349MOL0     C45949   8.717   5.590   6.704 -0.3195  0.4875 -0.6195
  349MOL0     C45950   8.584   5.539   6.697 -0.4522 -0.8931  0.2677
  349MOL0     C45951   8.551   5.401   6.644 -0.2315 -0.0049 -0.0567
  349MOL0     C45952   8.401   5.379   6.619 -0.2003 -0.3420  0.0869
  349MOL0     N45953   8.385   5.309   6.482  0.2964 -0.0414 -0.8521
  349MOL0     C45954   8.301   5.343   6.383  0.1486 -0.3917  0.1397
  349MOL0     C45955   8.287   5.228   6.309 -0.1683 -0.2421 -0.0553
  349MOL0     C45956   8.220   5.232   6.177 -0.9075  0.0684  0.0804
  349MOL0     C45957   8.073   5.195   6.201  0.0191  0.3193 -0.7085
  349MOL0     C45958   7.989   5.194   6.079 -0.4895  0.3944  0.5166
  349MOL0     C45959   7.847   5.241   6.117 -0.2026 -0.2826  0.5262
  349MOL0     O45960   7.784   5.163   6.221  0.2596 -0.1742  0.5997
  349MOL0     C45961   7.653   5.124   6.210 -0.3330  0.0284 -0.5095
  349MOL0     C45962   7.558   5.150   6.311 -0.6227 -1.3159  0.3538
  349MOL0     C45963   7.430   5.103   6.300  0.1423 -0.6251  0.3425
  349MOL0     C45964   7.397   5.015   6.205  0.4798  0.2311  0.0202
  349MOL0     C45965   7.269   4.946   6.202 -0.0503  0.1269 -0.3225
  349MOL0     O45966   7.187   4.966   6.312  0.6182 -0.3174  0.5017
  349MOL0     C45967   7.052   4.922   6.310  0.1634 -0.6471  0.1344
  349MOL0     C45968   7.002   4.876   6.437  0.4695  0.5368  0.4733
  349MOL0     C45969   6.868   4.828   6.447  1.3075 -0.3715 -0.2251
  349MOL0     C45970   6.784   4.849   6.337 -0.6725 -0.1995 -0.3682
  349MOL0     O45971   6.649   4.822   6.345 -0.5269  0.3165 -0.1569
  349MOL0     C45972   6.585   4.827   6.480 -0.3521 -0.0380 -0.0767
  349MOL0     C45973   6.426   4.813   6.466 -0.3694  0.4163  0.2869
  349MOL0     C45974   6.363   4.914   6.368 -0.4150 -0.1916  0.0182
  349MOL0     C45975   6.210   4.894   6.353  0.8776 -0.2644 -0.2978
  349MOL0     C45976   6.142   5.014   6.289 -0.5147 -0.0208 -0.5924
  349MOL0     C45977   5.995   5.001   6.297 -0.1859  0.1227 -0.2474
  349MOL0     C45978   5.931   4.919   6.178  0.5522  0.4145 -0.1990
  349MOL0     C45979   5.945   4.991   6.042  0.3287  0.4602  0.8072
  349MOL0    Cl45980   5.803   5.103   6.029 -0.0061  0.5429 -0.1369
  349MOL0     C45981   6.842   4.892   6.214  0.8673 -0.4996  1.3751
  349MOL0     C45982   6.974   4.927   6.197  0.0802  0.2382 -0.8056
  349MOL0     O45983   7.248   4.864   6.115  0.4745  0.5009  0.3526
  349MOL0     C45984   7.490   4.984   6.094  0.3800 -0.1197 -0.2049
  349MOL0     C45985   7.615   5.050   6.095 -0.7326  0.2224 -0.3324
  349MOL0     N45986   8.363   5.131   6.374 -0.0041  0.2706 -0.1050
  349MOL0     N45987   8.416   5.180   6.473  0.1856  0.1079 -0.5855
  349MOL0     C45988   9.314   6.026   6.873  0.0990  0.5573  1.0089
  349MOL0     C45989   9.446   6.064   6.919  0.2132  0.1245 -0.1615
  349MOL0     C45990   9.813   6.034   7.201  0.2376  0.2685 -0.4612
  349MOL0     C45991   9.912   5.997   7.107 -0.5685 -0.2077 -0.6000
  349MOL0     C45992  10.039   5.971   7.157 -0.1212  0.1258  0.1516
  349MOL0     C45993  10.077   6.006   7.280  0.1853  0.2016  0.8456
  349MOL0     O45994  10.197   5.985   7.326 -0.1041 -0.0118  0.4083
  349MOL0     C45995  10.302   6.050   7.255 -0.8904  0.5860  0.1991
  349MOL0     C45996  10.317   6.195   7.286 -0.1057 -0.0903 -0.5123
  349MOL0     C45997  10.446   6.261   7.250  0.3813  0.5539  0.2213
  349MOL0     C45998  10.456   6.416   7.279  0.8768 -1.0225  0.9181
  349MOL0     C45999  10.345   6.500   7.225  0.1049  0.0013  0.3316
  349MOL0     C46000  10.254   6.562   7.190  0.3213  1.1940 -0.5649
  349MOL0     C46001   9.989   6.055   7.376  0.0327 -1.0620  0.0198
  349MOL0     C46002   9.854   6.070   7.334 -0.1032 -0.4412  0.0484
  349MOL0     H46003   9.505   5.807   7.123  1.6404  2.0585 -0.1878
  349MOL0     H46004   9.285   5.721   7.015 -2.4334  0.0126 -1.3036
  349MOL0     H46005   9.060   5.973   6.682 -3.4974  0.1395 -0.1795
  349MOL0     H46006   9.045   6.055   6.839 -0.6996  1.1452  0.5273
  349MOL0     H46007   8.844   5.973   6.738 -0.4235 -1.0663 -1.8779
  349MOL0     H46008   8.874   5.905   6.901 -4.7331  0.3987 -1.2622
  349MOL0     H46009   8.928   5.685   6.820 -0.4964 -1.3429 -1.4683
  349MOL0     H46010   8.918   5.734   6.659 -0.3059 -1.6274 -0.4182
  349MOL0     H46011   8.687   5.750   6.863 -2.6528 -0.0410 -0.5108
  349MOL0     H46012   8.673   5.797   6.690  0.6648 -1.5728 -0.5942
  349MOL0     H46013   8.773   5.518   6.764 -1.2008 -0.2350 -0.6376
  349MOL0     H46014   8.760   5.584   6.604  1.6868 -1.6755  0.2600
  349MOL0     H46015   8.536   5.609   6.628  2.5753 -0.3136 -1.4267
  349MOL0     H46016   8.529   5.547   6.791 -0.4504  1.3251  0.1435
  349MOL0     H46017   8.606   5.402   6.550  0.6670 -1.0581  0.4258
  349MOL0     H46018   8.600   5.320   6.699  1.1773  0.4279 -0.6234
  349MOL0     H46019   8.354   5.478   6.618  0.8636  0.1869 -1.0740
  349MOL0     H46020   8.355   5.316   6.696  0.3019 -0.6928  0.1060
  349MOL0     H46021   8.269   5.442   6.353 -3.0163 -1.2560  0.2492
  349MOL0     H46022   8.273   5.160   6.113 -0.1788  1.6060 -1.0980
  349MOL0     H46023   8.228   5.329   6.127  4.2138  1.1084  2.2458
  349MOL0     H46024   8.029   5.274   6.262  0.7794  0.4605 -0.3243
  349MOL0     H46025   8.058   5.104   6.259 -1.1919  1.0170  0.1114
  349MOL0     H46026   8.020   5.251   5.991 -2.3111  2.1421  0.9191
  349MOL0     H46027   7.979   5.094   6.036 -2.0448  0.9233 -0.4038
  349MOL0     H46028   7.789   5.246   6.025 -0.0313 -1.4551  0.3326
  349MOL0     H46029   7.862   5.343   6.152  3.4916 -0.9437  1.2976
  349MOL0     H46030   7.593   5.210   6.394  0.9082 -1.0719 -0.4359
  349MOL0     H46031   7.356   5.136   6.372 -0.7694  1.7421 -1.5131
  349MOL0     H46032   7.052   4.874   6.534  1.8167 -1.5893 -0.2131
  349MOL0     H46033   6.837   4.785   6.541  2.1704 -0.5796 -0.0224
  349MOL0     H46034   6.609   4.918   6.535  2.1376  0.6548 -2.1034
  349MOL0     H46035   6.619   4.744   6.543 -1.7407  0.2762  1.1495
  349MOL0     H46036   6.395   4.838   6.568 -1.5789 -0.0665  0.0449
  349MOL0     H46037   6.418   4.711   6.427 -0.9402  1.3749 -2.2708
  349MOL0     H46038   6.413   4.905   6.270  3.3393  1.6909  1.5595
  349MOL0     H46039   6.387   5.018   6.393  0.7346 -0.8022  1.6116
  349MOL0     H46040   6.191   4.801   6.299 -0.2685  0.1196 -0.5798
  349MOL0     H46041   6.167   4.875   6.452 -2.3695  1.3083 -1.2827
  349MOL0     H46042   6.175   5.041   6.188  1.3573 -2.9485 -0.8776
  349MOL0     H46043   6.158   5.103   6.350 -1.4291  0.6132 -1.2497
  349MOL0     H46044   5.936   5.094   6.297  0.7537  0.7446 -1.3551
  349MOL0     H46045   5.958   4.949   6.386 -3.3193 -0.4267 -1.7070
  349MOL0     H46046   5.972   4.818   6.179  0.2717  0.2931  1.2434
  349MOL0     H46047   5.829   4.905   6.214  0.7216 -0.1561  0.0714
  349MOL0     H46048   5.943   4.909   5.969 -2.0032 -0.1561  1.4546
  349MOL0     H46049   6.038   5.045   6.022 -0.4068  1.2998 -0.5079
  349MOL0     H46050   6.782   4.928   6.131  3.1997 -2.5011 -1.4170
  349MOL0     H46051   7.000   4.976   6.104  2.4161 -1.7814 -1.2955
  349MOL0     H46052   7.464   4.909   6.020  2.3503 -1.5717  0.4737
  349MOL0     H46053   7.685   5.021   6.017  2.5758 -0.3751  2.5866
  349MOL0     H46054   9.254   6.101   6.822  0.6706  0.0316 -0.4964
  349MOL0     H46055   9.486   6.157   6.880 -1.1106  1.6725  1.9182
  349MOL0     H46056   9.878   5.968   7.008 -0.9146  0.2708 -0.6253
  349MOL0     H46057  10.103   5.929   7.080 -2.3215 -2.2091 -0.5687
  349MOL0     H46058  10.313   6.033   7.148 -0.2838 -1.2078  0.5055
  349MOL0     H46059  10.396   6.008   7.294  2.3362  2.1459 -4.9061
  349MOL0     H46060  10.233   6.245   7.239 -0.9048 -1.6322 -0.8047
  349MOL0     H46061  10.287   6.206   7.391 -0.6784 -2.9995 -0.2940
  349MOL0     H46062  10.453   6.249   7.141  0.1171  0.6189  0.1960
  349MOL0     H46063  10.522   6.204   7.304  1.4543  2.7213  1.0984
  349MOL0     H46064  10.465   6.430   7.388 -1.0092  1.1717  0.8764
  349MOL0     H46065  10.552   6.446   7.236  0.2492 -0.5044 -0.1312
  349MOL0     H46066  10.164   6.618   7.176  0.3228  0.8273 -2.3212
  349MOL0     H46067  10.012   6.097   7.473  0.7526 -0.4454 -0.4098
  349MOL0     H46068   9.787   6.100   7.414  0.8165  1.9153 -0.0039
  350MOL0     O46069   8.293   4.563   0.852  0.5438  0.1180  0.6009
  350MOL0     C46070   8.347   4.550   0.965 -0.8955 -0.8121 -0.1304
  350MOL0     O46071   8.295   4.491   1.074 -0.6295 -0.0358  0.4531
  350MOL0     C46072   8.189   4.411   1.066  0.1538  0.4739 -0.6413
  350MOL0     C46073   8.151   4.313   0.974 -1.1407 -0.4181  0.4346
  350MOL0     C46074   8.030   4.249   0.973  0.1394 -0.0431 -0.9691
  350MOL0     C46075   7.940   4.278   1.082 -0.8533 -0.0439  0.6689
  350MOL0     O46076   7.813   4.225   1.092 -0.4998  0.5221 -0.2628
  350MOL0     C46077   7.735   4.200   0.978  0.6047 -0.0638  0.0633
  350MOL0     C46078   7.727   4.045   0.954  0.2990  0.5361 -0.1569
  350MOL0     C46079   7.618   3.991   0.857  0.2314  0.5533  0.6959
  350MOL0     C46080   7.472   4.036   0.897  0.3332 -0.6594 -0.2654
  350MOL0     C46081   7.370   3.948   0.820 -0.6718 -0.1541 -0.4336
  350MOL0     C46082   7.401   3.795   0.840  0.5352 -0.7959 -0.7156
  350MOL0     C46083   7.275   3.716   0.804  0.6356 -0.1293  0.3477
  350MOL0     C46084   7.299   3.564   0.796 -0.1381 -0.4391 -0.0187
  350MOL0     N46085   7.170   3.498   0.791  0.3727 -0.5848  0.1092
  350MOL0     C46086   7.097   3.428   0.878 -0.0638 -0.0899 -0.8871
  350MOL0     C46087   6.973   3.412   0.834  0.2093 -0.4614 -0.1620
  350MOL0     C46088   6.868   3.347   0.916 -0.7975 -0.0251  0.3199
  350MOL0     C46089   6.759   3.452   0.944 -0.0267  0.0847  0.1163
  350MOL0     C46090   6.790   3.529   1.070 -0.0666 -0.3001 -0.1708
  350MOL0     C46091   6.692   3.653   1.112  0.2338 -0.1243 -0.2328
  350MOL0     O46092   6.562   3.629   1.062  0.1100 -0.0567 -0.4869
  350MOL0     C46093   6.486   3.534   1.123  0.1079  0.5511  0.2722
  350MOL0     C46094   6.371   3.491   1.052 -0.9295 -0.3419  0.3902
  350MOL0     C46095   6.290   3.389   1.104 -0.7864 -0.3977  0.1865
  350MOL0     C46096   6.318   3.333   1.234  0.1162  0.0714 -0.2757
  350MOL0     C46097   6.227   3.234   1.290  0.6162 -0.7891  0.5823
  350MOL0     O46098   6.135   3.180   1.206 -0.2695  0.2600 -0.7879
  350MOL0     C46099   6.024   3.111   1.247  1.0691  0.3346 -0.8493
  350MOL0     C46100   5.901   3.138   1.185 -0.1002 -0.0475 -0.0483
  350MOL0     C46101   5.782   3.065   1.221  0.0139 -0.1313 -0.5302
  350MOL0     C46102   5.789   2.970   1.322  0.0562 -0.5646 -0.1459
  350MOL0     O46103   5.685   2.898   1.367  0.3467  0.6611  1.0666
  350MOL0     C46104   5.568   2.910   1.284 -0.8103  1.0396 -0.5159
  350MOL0     C46105   5.460   2.812   1.336 -0.3716  0.0767  0.1519
  350MOL0     C46106   5.331   2.829   1.259 -0.3062 -0.3384 -0.0493
  350MOL0     C46107   5.213   2.752   1.310  0.7504  0.3793  0.3041
  350MOL0     C46108   5.074   2.787   1.251 -0.5102  0.6326  0.6994
  350MOL0     C46109   5.035   2.934   1.250 -0.2319 -0.8371 -0.3427
  350MOL0     C46110   4.900   2.953   1.177  0.0745  0.3387  0.1870
  350MOL0     C46111   4.782   2.898   1.264  0.3777  0.6649 -0.4429
  350MOL0    Cl46112   4.797   2.930   1.440 -0.2245  0.2648  0.1760
  350MOL0     C46113   5.904   2.954   1.391  0.1303 -0.1002 -0.4043
  350MOL0     C46114   6.021   3.020   1.354  0.5770  0.0768  0.8889
  350MOL0     O46115   6.231   3.215   1.412  0.3318  0.0778 -0.5425
  350MOL0     C46116   6.435   3.374   1.300  0.5966  0.3706 -0.7889
  350MOL0     C46117   6.523   3.471   1.240  0.4858  0.8268 -0.0260
  350MOL0     N46118   6.969   3.460   0.703 -0.2228 -0.4784 -0.1347
  350MOL0     N46119   7.092   3.517   0.684  0.3313  0.1101  0.5921
  350MOL0     C46120   7.982   4.353   1.190 -0.1187 -0.2951  0.5045
  350MOL0     C46121   8.102   4.417   1.178 -0.0825 -0.8090  0.1572
  350MOL0     C46122   8.468   4.626   0.979 -0.8641  0.1372  0.4792
  350MOL0     C46123   8.503   4.678   1.108 -0.1274 -0.1341  0.2725
  350MOL0     C46124   8.625   4.741   1.121  0.6054 -0.3049  0.1015
  350MOL0     C46125   8.718   4.761   1.017 -0.3328 -0.2213 -0.2435
  350MOL0     O46126   8.828   4.841   1.016  0.0745  0.2727  0.1831
  350MOL0     C46127   8.844   4.915   1.137 -0.5855 -0.5535  0.6282
  350MOL0     C46128   8.982   4.967   1.123  0.6938 -0.6344 -0.0305
  350MOL0     C46129   9.012   5.085   1.225 -0.1309  0.4161  0.9353
  350MOL0     C46130   9.158   5.118   1.223 -0.0341  0.0016 -0.3323
  350MOL0     C46131   9.193   5.194   1.342  0.0757 -0.5399 -0.0283
  350MOL0     C46132   9.222   5.247   1.450 -0.1716 -0.4688  0.1338
  350MOL0     C46133   8.680   4.707   0.901  0.0560  0.7453 -0.0703
  350MOL0     C46134   8.560   4.637   0.878 -0.1235  0.0751  0.3307
  350MOL0     H46135   8.219   4.301   0.890 -1.4150 -0.9477  0.2852
  350MOL0     H46136   8.007   4.177   0.895 -1.2329 -0.6806 -0.0291
  350MOL0     H46137   7.769   4.255   0.890  0.4128  1.1558  0.7216
  350MOL0     H46138   7.641   4.254   0.996  1.6174  2.7552 -2.3864
  350MOL0     H46139   7.714   3.998   1.051 -2.0709 -3.1084 -2.0308
  350MOL0     H46140   7.827   4.010   0.927  0.8795  0.9311  1.3703
  350MOL0     H46141   7.635   3.884   0.873  2.7867  0.8776  0.5536
  350MOL0     H46142   7.638   4.006   0.750 -1.7399 -4.8358 -0.7601
  350MOL0     H46143   7.451   4.015   1.002 -1.1967  3.0994  0.3320
  350MOL0     H46144   7.458   4.143   0.879 -0.4426 -0.5309  1.0143
  350MOL0     H46145   7.363   3.967   0.713  0.5912  1.6640 -0.2510
  350MOL0     H46146   7.274   3.981   0.862  0.8637  0.3179  3.0692
  350MOL0     H46147   7.441   3.772   0.940 -0.9236 -0.4701 -0.0266
  350MOL0     H46148   7.484   3.764   0.777  1.3222  1.8966 -1.1508
  350MOL0     H46149   7.211   3.739   0.890  0.8427  0.7976  0.2588
  350MOL0     H46150   7.228   3.746   0.710 -0.6763 -0.6118  0.8151
  350MOL0     H46151   7.355   3.534   0.886 -1.3637 -1.8341  0.3201
  350MOL0     H46152   7.357   3.538   0.707  1.8305  2.2650  0.3439
  350MOL0     H46153   7.127   3.384   0.973 -0.5327  1.2881 -0.0632
  350MOL0     H46154   6.909   3.312   1.011  1.8009 -0.0986 -0.7456
  350MOL0     H46155   6.829   3.256   0.868  1.5532 -0.9343  0.0089
  350MOL0     H46156   6.668   3.393   0.958  0.4751 -0.1901  2.5928
  350MOL0     H46157   6.737   3.520   0.861  0.7283 -1.0770 -1.0728
  350MOL0     H46158   6.800   3.453   1.148  1.1115  1.0448  1.0747
  350MOL0     H46159   6.892   3.567   1.075 -0.2368  0.1647  4.6994
  350MOL0     H46160   6.736   3.732   1.051  0.3123 -1.9028 -2.6379
  350MOL0     H46161   6.696   3.672   1.219  0.8638 -1.2131 -0.0525
  350MOL0     H46162   6.359   3.528   0.950  0.5839 -1.4338 -0.2238
  350MOL0     H46163   6.208   3.358   1.040  0.1089  0.0828 -1.2402
  350MOL0     H46164   5.890   3.212   1.106  1.5278 -0.8535 -1.0696
  350MOL0     H46165   5.695   3.101   1.168 -0.1628  0.9068  0.4347
  350MOL0     H46166   5.586   2.899   1.177 -1.7138  2.1163 -0.8032
  350MOL0     H46167   5.526   3.010   1.295 -2.7227  0.5052 -2.3801
  350MOL0     H46168   5.441   2.842   1.439  2.5004  1.2360  0.4449
  350MOL0     H46169   5.489   2.707   1.327  0.4903  0.3641 -0.5999
  350MOL0     H46170   5.352   2.788   1.159  0.9802 -2.8777  1.1590
  350MOL0     H46171   5.306   2.935   1.262 -1.3387 -0.5532 -0.5348
  350MOL0     H46172   5.230   2.648   1.281  0.8258  0.1471  1.1332
  350MOL0     H46173   5.203   2.752   1.419  0.6385  0.5258  0.2943
  350MOL0     H46174   4.997   2.728   1.301  1.5812 -1.1001  2.0216
  350MOL0     H46175   5.074   2.753   1.147 -1.3076 -1.5025  1.3586
  350MOL0     H46176   5.102   3.000   1.194 -0.5139  0.5145  0.8418
  350MOL0     H46177   5.044   2.970   1.353  4.1402 -0.6449 -0.5912
  350MOL0     H46178   4.883   3.062   1.175  1.6044  0.6280  1.4670
  350MOL0     H46179   4.896   2.910   1.076  1.7663  1.0671 -0.2206
  350MOL0     H46180   4.782   2.789   1.272 -1.1852  0.7720  2.4453
  350MOL0     H46181   4.684   2.928   1.226 -0.9213 -0.3569  1.9353
  350MOL0     H46182   5.916   2.869   1.459 -1.2069 -0.0906 -0.1259
  350MOL0     H46183   6.114   2.992   1.403  0.8027  1.0307  1.0299
  350MOL0     H46184   6.457   3.330   1.397 -2.7299 -3.7083 -1.5732
  350MOL0     H46185   6.609   3.499   1.300  1.7837  0.5573 -1.6841
  350MOL0     H46186   7.903   4.377   1.260 -2.1512 -0.3565 -1.6329
  350MOL0     H46187   8.133   4.485   1.257  2.0213 -1.1144 -0.3353
  350MOL0     H46188   8.437   4.669   1.194 -0.8006  2.7449  0.1580
  350MOL0     H46189   8.647   4.782   1.219  1.4368  0.2789 -0.3158
  350MOL0     H46190   8.838   4.855   1.228 -0.5852  0.4606  1.3035
  350MOL0     H46191   8.769   4.994   1.147 -1.0393 -0.8062 -0.5871
  350MOL0     H46192   9.055   4.887   1.139  1.7376  0.6978  2.5947
  350MOL0     H46193   9.009   5.013   1.028  0.6175  0.8376  0.6257
  350MOL0     H46194   9.000   5.046   1.327  1.5560  1.5519  1.6165
  350MOL0     H46195   8.946   5.168   1.201  1.1870  1.2034 -0.0834
  350MOL0     H46196   9.221   5.029   1.210  2.1957  1.1168  2.0259
  350MOL0     H46197   9.176   5.185   1.138  0.6083 -1.4585 -1.3885
  350MOL0     H46198   9.248   5.296   1.542  2.8488 -1.3655 -0.1259
  350MOL0     H46199   8.740   4.710   0.811  0.5874  2.7078  0.3160
  350MOL0     H46200   8.548   4.591   0.780 -1.5189 -2.6206  1.6602
  351MOL0     O46201  10.433   1.884   8.211  0.5032 -0.2614 -0.8937
  351MOL0     C46202  10.392   1.894   8.096  0.5512 -0.8285 -0.2302
  351MOL0     O46203  10.471   1.887   7.978  0.5010 -0.8753 -0.3772
  351MOL0     C46204  10.606   1.870   7.981  0.4710  0.5427 -0.4146
  351MOL0     C46205  10.683   1.946   8.075  0.2357 -0.2569 -0.0022
  351MOL0     C46206  10.821   1.948   8.053  0.0891 -0.0625  0.2359
  351MOL0     C46207  10.883   1.875   7.953  0.5228 -0.7607 -0.3271
  351MOL0     O46208  11.017   1.867   7.974 -0.4502 -0.7477 -0.4793
  351MOL0     C46209  11.100   1.798   7.876 -0.5064 -0.3749  0.2511
  351MOL0     C46210  11.135   1.898   7.753 -0.6135 -0.1016 -0.4540
  351MOL0     C46211  11.225   1.847   7.645  0.1238  0.0255  0.1621
  351MOL0     C46212  11.366   1.811   7.693 -1.5531  0.4486  0.2371
  351MOL0     C46213  11.448   1.914   7.778 -0.0752  0.2906  0.8825
  351MOL0     C46214  11.598   1.888   7.773 -0.4624 -0.1794  0.3712
  351MOL0     C46215  11.654   1.896   7.626 -0.2978 -0.9652 -0.2014
  351MOL0     C46216  11.808   1.874   7.628 -0.0474  0.2521 -0.5841
  351MOL0     N46217  11.862   1.850   7.498 -0.0608 -0.9389  0.5634
  351MOL0     C46218  11.834   1.926   7.383 -0.1863  0.6493 -0.6929
  351MOL0     C46219  11.919   1.888   7.291  0.0710  0.3282 -0.2790
  351MOL0     C46220  11.943   1.956   7.153  0.9170  0.1663  0.2251
  351MOL0     C46221  11.905   1.872   7.027  0.5247 -0.3249  0.6251
  351MOL0     C46222  11.967   1.731   7.021  0.1322 -0.0424 -0.9255
  351MOL0     C46223  11.982   1.670   6.885  0.2817 -0.2809 -0.3571
  351MOL0     O46224  11.875   1.575   6.862  0.0412 -0.0189 -0.4131
  351MOL0     C46225  11.749   1.617   6.832  0.6526 -0.2419  0.9016
  351MOL0     C46226  11.719   1.726   6.742 -1.0516  0.6942 -0.5876
  351MOL0     C46227  11.590   1.754   6.705 -0.3268 -1.2670 -0.2098
  351MOL0     C46228  11.483   1.675   6.751  0.2587 -0.6903 -1.0457
  351MOL0     C46229  11.344   1.709   6.718  0.2535 -0.4768  0.1476
  351MOL0     O46230  11.254   1.671   6.802  0.4570  0.0616 -0.2654
  351MOL0     C46231  11.127   1.640   6.778 -0.4211  0.0084  0.4737
  351MOL0     C46232  11.032   1.627   6.885  0.1608  0.1126  0.0093
  351MOL0     C46233  10.898   1.599   6.865 -0.3664  0.3873 -0.0015
  351MOL0     C46234  10.850   1.570   6.743 -1.0059  0.6011  1.4372
  351MOL0     O46235  10.720   1.551   6.709  0.2626  0.4955  0.3589
  351MOL0     C46236  10.628   1.535   6.808  1.2358 -0.3524  0.0888
  351MOL0     C46237  10.579   1.677   6.855  0.9071  0.5145  0.2053
  351MOL0     C46238  10.470   1.751   6.775 -0.1675 -0.0982  0.4176
  351MOL0     C46239  10.330   1.697   6.789  1.2511 -1.0771 -0.4761
  351MOL0     C46240  10.228   1.797   6.721  0.3842  0.8113 -0.0119
  351MOL0     C46241  10.102   1.730   6.760 -0.0678 -0.0929  0.3506
  351MOL0     C46242   9.976   1.820   6.731  0.3526 -0.0076 -0.1315
  351MOL0     C46243   9.859   1.756   6.788 -0.3169  0.7599 -0.1058
  351MOL0    Cl46244   9.716   1.834   6.735 -0.0465  0.1707  0.0502
  351MOL0     C46245  10.938   1.566   6.633  0.1596 -0.8056 -0.2583
  351MOL0     C46246  11.074   1.602   6.648 -0.0145 -0.4174 -0.1578
  351MOL0     O46247  11.315   1.786   6.628 -0.1851 -0.9160  0.2132
  351MOL0     C46248  11.509   1.569   6.846  0.3842  0.4928  0.6518
  351MOL0     C46249  11.642   1.539   6.882  0.4871  0.0955 -0.1073
  351MOL0     N46250  11.982   1.776   7.337 -0.2467  0.8872  0.3059
  351MOL0     N46251  11.937   1.745   7.455  0.5743  0.2381 -0.5854
  351MOL0     C46252  10.805   1.815   7.856 -0.0536  0.0074 -0.1383
  351MOL0     C46253  10.664   1.816   7.876 -0.1357  0.5135  0.3376
  351MOL0     C46254  10.245   1.914   8.082 -1.0051  0.0959 -0.0493
  351MOL0     C46255  10.186   1.903   7.956 -0.8713 -0.4960 -0.2447
  351MOL0     C46256  10.049   1.912   7.945 -0.5417  0.3717 -0.2558
  351MOL0     C46257   9.967   1.925   8.057 -0.2341  0.1117 -0.2159
  351MOL0     O46258   9.832   1.939   8.053  0.0109  0.2213  0.0610
  351MOL0     C46259   9.758   1.864   7.953 -0.2646  0.1551 -0.4361
  351MOL0     C46260   9.609   1.838   7.994 -0.5789 -0.9529  0.5213
  351MOL0     C46261   9.538   1.967   7.996  1.4615 -1.0175 -0.1524
  351MOL0     C46262   9.382   1.957   8.009  0.1249  0.5060 -0.4389
  351MOL0     C46263   9.333   1.850   7.920 -0.3984 -0.5862  0.9479
  351MOL0     C46264   9.288   1.759   7.852 -0.6323 -0.3365 -0.0622
  351MOL0     C46265  10.030   1.934   8.185  0.0403 -0.3432 -0.3587
  351MOL0     C46266  10.162   1.930   8.189 -0.0153 -0.1483 -0.9146
  351MOL0     H46267  10.650   1.980   8.173 -1.3677 -4.1337  0.9998
  351MOL0     H46268  10.890   2.001   8.118  0.2433 -0.7174  0.6181
  351MOL0     H46269  11.048   1.710   7.837  1.1206 -0.7409 -1.2107
  351MOL0     H46270  11.188   1.786   7.940 -1.2323  0.9213  1.5571
  351MOL0     H46271  11.186   1.986   7.793  1.7638 -0.4223 -2.4982
  351MOL0     H46272  11.044   1.942   7.710 -2.9493 -2.1662  2.0032
  351MOL0     H46273  11.241   1.920   7.566  2.0683  2.3758  2.5246
  351MOL0     H46274  11.178   1.762   7.595  0.2371 -0.9980  1.6931
  351MOL0     H46275  11.377   1.720   7.753  4.2972 -0.7269 -1.9459
  351MOL0     H46276  11.413   1.778   7.600 -2.9785 -1.3001  0.0722
  351MOL0     H46277  11.422   1.915   7.884 -2.5021 -2.9899  0.4928
  351MOL0     H46278  11.418   2.010   7.736 -3.8556 -0.6893  0.9696
  351MOL0     H46279  11.620   1.795   7.826  1.4385  0.2309  0.3832
  351MOL0     H46280  11.641   1.967   7.835 -1.3205  0.6705 -0.0934
  351MOL0     H46281  11.607   1.816   7.569 -0.2313 -1.2886  0.1883
  351MOL0     H46282  11.637   1.997   7.586 -0.1743 -0.4302  1.0359
  351MOL0     H46283  11.817   1.787   7.694  1.0702 -0.8589 -2.1274
  351MOL0     H46284  11.860   1.956   7.677 -1.5961  0.3733  0.9754
  351MOL0     H46285  11.775   2.017   7.381 -2.2703 -0.3703  3.4772
  351MOL0     H46286  12.052   1.968   7.154  1.2861 -2.5837  1.0300
  351MOL0     H46287  11.882   2.046   7.160  0.9779  0.2771 -0.5358
  351MOL0     H46288  11.927   1.929   6.936  0.3787 -0.6206  0.4020
  351MOL0     H46289  11.797   1.855   7.029  0.5326 -0.4913 -0.1686
  351MOL0     H46290  12.065   1.737   7.071  0.0298 -0.2994 -0.6913
  351MOL0     H46291  11.918   1.659   7.087  3.5760 -1.3536  0.4206
  351MOL0     H46292  12.075   1.614   6.895  0.3624 -0.4989 -2.0497
  351MOL0     H46293  11.997   1.737   6.800  2.3312  1.3235  1.1687
  351MOL0     H46294  11.804   1.786   6.711  0.1075 -1.1830 -1.2891
  351MOL0     H46295  11.577   1.844   6.645  0.3903 -1.2158 -0.3055
  351MOL0     H46296  11.050   1.653   6.989 -1.6846 -0.0442  0.3876
  351MOL0     H46297  10.834   1.605   6.952  3.0589  1.8105  2.6399
  351MOL0     H46298  10.671   1.479   6.890  1.8981  0.9997  0.7018
  351MOL0     H46299  10.541   1.481   6.768 -0.1730  2.0626 -0.3290
  351MOL0     H46300  10.668   1.740   6.867  2.0643 -1.1941  0.9760
  351MOL0     H46301  10.533   1.663   6.953 -0.0509  0.5756 -0.2246
  351MOL0     H46302  10.500   1.750   6.670  0.9086 -0.4289  0.7092
  351MOL0     H46303  10.478   1.856   6.804 -0.8815  1.1082 -3.2656
  351MOL0     H46304  10.322   1.595   6.749  1.8899 -1.1879 -0.3337
  351MOL0     H46305  10.301   1.684   6.893  0.2317 -0.6074 -0.6916
  351MOL0     H46306  10.252   1.794   6.614  2.5374  0.2790  0.4317
  351MOL0     H46307  10.234   1.892   6.775 -1.3086  0.6871  0.4280
  351MOL0     H46308  10.092   1.701   6.865  0.9511 -2.1124 -0.0627
  351MOL0     H46309  10.091   1.636   6.704 -1.4076  0.4309 -0.3285
  351MOL0     H46310   9.980   1.912   6.789 -1.2202 -0.0030 -0.0087
  351MOL0     H46311   9.952   1.854   6.630 -0.7082  1.4403  0.5826
  351MOL0     H46312   9.856   1.750   6.897 -2.7525 -1.1079 -0.1757
  351MOL0     H46313   9.851   1.653   6.752  0.6812  0.6202  0.0416
  351MOL0     H46314  10.903   1.532   6.536 -0.8733 -2.2173  0.5797
  351MOL0     H46315  11.129   1.601   6.554  0.9625  0.7278  0.3734
  351MOL0     H46316  11.434   1.506   6.892  1.3438  0.2467  1.9317
  351MOL0     H46317  11.657   1.451   6.944 -1.2213  0.4862  0.9413
  351MOL0     H46318  10.845   1.764   7.769  1.3571 -1.3060  1.2023
  351MOL0     H46319  10.600   1.777   7.797 -3.5834  3.7111  1.2630
  351MOL0     H46320  10.250   1.891   7.869  0.7494  0.0521  0.8313
  351MOL0     H46321  10.000   1.906   7.848 -2.8689 -0.6778  0.9054
  351MOL0     H46322   9.802   1.764   7.942  1.6676  1.1763 -2.9768
  351MOL0     H46323   9.773   1.923   7.862  1.7561  3.9728  2.1398
  351MOL0     H46324   9.564   1.764   7.927  0.8899 -4.1571  2.8131
  351MOL0     H46325   9.608   1.799   8.096 -2.4962 -1.9947  0.1482
  351MOL0     H46326   9.555   2.025   7.905  0.6594 -0.7805 -0.1627
  351MOL0     H46327   9.570   2.027   8.081 -0.9703 -0.0831  0.1808
  351MOL0     H46328   9.365   1.943   8.117 -1.3260 -1.0616 -0.8215
  351MOL0     H46329   9.335   2.053   7.987  1.9189  1.0100 -2.3478
  351MOL0     H46330   9.252   1.680   7.791 -2.5788  0.5780 -0.1669
  351MOL0     H46331   9.978   1.958   8.277  0.2176 -1.0361 -0.0710
  351MOL0     H46332  10.200   1.956   8.288 -2.6048  4.1228 -0.7710
  352MOL0     O46333   2.739   6.918   4.860 -0.0935 -0.2338 -0.1076
  352MOL0     C46334   2.767   6.846   4.763  0.5225 -0.4977  0.1792
  352MOL0     O46335   2.679   6.783   4.681  0.4361  0.3944  0.0931
  352MOL0     C46336   2.538   6.795   4.708 -0.2611  0.3156 -0.0297
  352MOL0     C46337   2.476   6.820   4.830 -0.2410 -0.2397  0.0918
  352MOL0     C46338   2.339   6.837   4.841  0.0724 -0.0770  0.1580
  352MOL0     C46339   2.257   6.819   4.721 -0.6214  0.7927 -0.7599
  352MOL0     O46340   2.121   6.829   4.737  0.4401 -0.2378 -0.0288
  352MOL0     C46341   2.040   6.836   4.621  1.4467 -0.0680  0.2013
  352MOL0     C46342   1.895   6.825   4.676 -0.1725 -0.5510  0.9150
  352MOL0     C46343   1.798   6.925   4.613 -0.3038 -0.1226 -0.3000
  352MOL0     C46344   1.680   6.944   4.713 -0.9494 -0.7300  0.5560
  352MOL0     C46345   1.549   7.002   4.647 -0.4115 -0.6339  0.9236
  352MOL0     C46346   1.475   7.080   4.756  0.0707  0.1097 -0.2796
  352MOL0     C46347   1.336   7.112   4.699 -0.2150  0.0250 -1.2674
  352MOL0     C46348   1.239   7.184   4.791  0.2891 -0.5802  0.0115
  352MOL0     N46349   1.205   7.106   4.911  0.5673  0.7858 -0.2986
  352MOL0     C46350   1.112   7.005   4.903 -0.7150  0.7132 -0.1818
  352MOL0     C46351   1.079   6.966   5.035  0.1372  0.3563 -0.1867
  352MOL0     C46352   0.977   6.867   5.081  0.7911  0.1105  0.6902
  352MOL0     C46353   0.868   6.944   5.157  0.1875 -0.2969  0.5447
  352MOL0     C46354   0.766   6.838   5.202  0.1513  1.1786  0.4194
  352MOL0     C46355   0.660   6.885   5.299  0.1124  0.3411 -0.0758
  352MOL0     O46356   0.570   6.980   5.241  0.1163  0.7030  0.0682
  352MOL0     C46357   0.458   6.990   5.319  0.8095  0.1384 -0.7371
  352MOL0     C46358   0.368   6.881   5.331  0.1854 -0.0859  0.1744
  352MOL0     C46359   0.248   6.897   5.398  0.4133 -0.2913  0.0060
  352MOL0     C46360   0.217   7.029   5.449  0.4490 -0.1284 -0.8619
  352MOL0     C46361   0.087   7.055   5.512 -0.1507 -0.1776  0.6097
  352MOL0     O46362   0.051   7.183   5.527  0.1866 -0.3550 -0.7530
  352MOL0     C46363  -0.054   7.211   5.611 -0.7938  0.5003 -0.5881
  352MOL0     C46364  -0.017   7.294   5.719 -0.6587  0.6784 -0.5842
  352MOL0     C46365  -0.116   7.327   5.810 -0.3790  0.2111 -0.8817
  352MOL0     C46366  -0.247   7.275   5.804  0.0565 -0.3053 -0.6910
  352MOL0     O46367  -0.353   7.304   5.883 -0.1315 -0.9842 -0.4355
  352MOL0     C46368  -0.360   7.384   5.995 -0.3228  0.3603  0.0311
  352MOL0     C46369  -0.450   7.311   6.087  0.1389  1.4421 -0.4080
  352MOL0     C46370  -0.496   7.387   6.210  0.6076 -1.0523  0.4306
  352MOL0     C46371  -0.617   7.477   6.167  0.0776 -0.4388  0.3820
  352MOL0     C46372  -0.696   7.510   6.291  0.8798  0.2843  0.0781
  352MOL0     C46373  -0.822   7.585   6.260  0.1093 -0.7069  0.6679
  352MOL0     C46374  -0.951   7.531   6.329 -0.4241 -0.5131  0.2034
  352MOL0     C46375  -1.071   7.541   6.240 -0.6379  0.7070 -0.1373
  352MOL0    Cl46376  -1.092   7.714   6.223  0.2040 -0.1815  0.1704
  352MOL0     C46377  -0.283   7.207   5.683 -0.0956  0.3680 -0.3024
  352MOL0     C46378  -0.184   7.174   5.592 -0.1531  0.7402  0.2321
  352MOL0     O46379   0.008   6.963   5.527  0.2056  0.6156 -0.1184
  352MOL0     C46380   0.313   7.140   5.444  0.1379  0.0532  0.4755
  352MOL0     C46381   0.434   7.112   5.381  0.0713 -0.1514 -0.0447
  352MOL0     N46382   1.141   7.056   5.118  0.0953  0.3333  0.3181
  352MOL0     N46383   1.217   7.136   5.046  0.0539 -0.5918  0.3366
  352MOL0     C46384   2.315   6.767   4.601  0.4961 -0.3337 -0.5054
  352MOL0     C46385   2.457   6.754   4.599  1.0927  0.1042  0.3231
  352MOL0     C46386   2.908   6.817   4.733  0.6682  0.0758 -0.0625
  352MOL0     C46387   2.951   6.720   4.638 -0.0284 -0.1230  0.0682
  352MOL0     C46388   3.088   6.704   4.612  0.4114  0.0869 -0.8671
  352MOL0     C46389   3.181   6.761   4.694  0.5504  0.0145  0.1540
  352MOL0     O46390   3.319   6.743   4.684  0.1596 -0.0591  0.1976
  352MOL0     C46391   3.372   6.656   4.584 -0.7952  0.0113 -0.0010
  352MOL0     C46392   3.524   6.645   4.589  0.3335 -0.4480 -0.4107
  352MOL0     C46393   3.597   6.787   4.585  0.0023 -0.5684  0.8725
  352MOL0     C46394   3.747   6.770   4.615 -0.4175  0.1648  0.3963
  352MOL0     C46395   3.794   6.682   4.508 -0.3437 -0.6021  0.1524
  352MOL0     C46396   3.804   6.599   4.417 -0.5192  0.2367 -0.1918
  352MOL0     C46397   3.142   6.844   4.796  0.8934 -0.3950  0.8378
  352MOL0     C46398   3.001   6.878   4.815  0.3536  0.2175  0.6495
  352MOL0     H46399   2.528   6.840   4.923 -2.0742  0.9071  0.9365
  352MOL0     H46400   2.296   6.877   4.932  2.8112  3.1141  0.2305
  352MOL0     H46401   2.062   6.759   4.546  0.2664 -0.8561  0.6517
  352MOL0     H46402   2.058   6.932   4.571 -0.3064 -0.8976 -2.1920
  352MOL0     H46403   1.902   6.847   4.783  1.0643 -2.7029  1.3256
  352MOL0     H46404   1.852   6.725   4.671 -1.6150  0.1031 -1.0028
  352MOL0     H46405   1.776   6.877   4.517  2.0765 -1.4881 -0.2553
  352MOL0     H46406   1.841   7.024   4.594 -3.3915  1.6775  1.2420
  352MOL0     H46407   1.658   6.847   4.759  2.6260 -1.5577  0.8075
  352MOL0     H46408   1.707   7.008   4.798  0.9474  0.7888 -1.1127
  352MOL0     H46409   1.489   6.922   4.604  1.2921 -1.9650  0.8982
  352MOL0     H46410   1.583   7.070   4.568  0.4388 -1.2178  0.7727
  352MOL0     H46411   1.533   7.169   4.780  1.2749 -1.3057  2.5347
  352MOL0     H46412   1.470   7.018   4.846  2.3196 -2.4559 -1.7518
  352MOL0     H46413   1.346   7.174   4.609  0.5494  1.1430 -0.4357
  352MOL0     H46414   1.289   7.017   4.674  1.2099 -0.4491 -2.2941
  352MOL0     H46415   1.148   7.195   4.732 -0.7223  1.6017  1.8122
  352MOL0     H46416   1.279   7.281   4.823 -0.0461  0.0649 -1.4653
  352MOL0     H46417   1.099   6.956   4.807 -0.3519 -1.7169  0.9294
  352MOL0     H46418   1.027   6.790   5.141  1.0847 -0.2525 -0.0131
  352MOL0     H46419   0.930   6.820   4.994 -1.1441  1.8151  0.7302
  352MOL0     H46420   0.810   7.012   5.094  3.3776  0.9969 -1.2297
  352MOL0     H46421   0.895   7.012   5.238 -2.1047  1.3626  0.0245
  352MOL0     H46422   0.714   6.798   5.115  2.1501 -2.0658  0.5653
  352MOL0     H46423   0.825   6.756   5.244 -0.5213 -1.9262 -3.9590
  352MOL0     H46424   0.703   6.918   5.394 -0.4100 -0.4674  0.4553
  352MOL0     H46425   0.613   6.788   5.316  1.2288 -0.3125 -0.5258
  352MOL0     H46426   0.394   6.784   5.290 -0.6153  0.7103 -2.4196
  352MOL0     H46427   0.174   6.818   5.406  0.6981 -0.4209  2.0684
  352MOL0     H46428   0.086   7.320   5.738 -0.8727  2.0903 -1.2901
  352MOL0     H46429  -0.083   7.394   5.889  2.0499  1.5896 -2.9193
  352MOL0     H46430  -0.407   7.475   5.956 -0.8719 -0.4157 -1.1847
  352MOL0     H46431  -0.261   7.406   6.035 -0.0235 -2.9675  1.4528
  352MOL0     H46432  -0.406   7.218   6.125 -0.5019  2.1385  2.2751
  352MOL0     H46433  -0.541   7.273   6.040 -1.4612  2.3719  1.7586
  352MOL0     H46434  -0.418   7.446   6.258  1.4075 -0.4564 -1.5003
  352MOL0     H46435  -0.534   7.317   6.285 -0.1940 -1.6910 -0.5495
  352MOL0     H46436  -0.578   7.567   6.119  0.1481 -0.1911  0.9025
  352MOL0     H46437  -0.681   7.419   6.099 -1.0938 -1.1940  2.0632
  352MOL0     H46438  -0.634   7.539   6.377  0.5682 -1.7550  1.0416
  352MOL0     H46439  -0.731   7.412   6.324  0.9989 -0.4097 -1.7284
  352MOL0     H46440  -0.827   7.587   6.151 -0.6876 -2.5706  0.6208
  352MOL0     H46441  -0.811   7.687   6.299 -2.8524  0.1255 -0.3582
  352MOL0     H46442  -0.944   7.424   6.353 -1.0260 -0.4432  0.7122
  352MOL0     H46443  -0.971   7.591   6.418 -1.2587 -1.0707  0.4064
  352MOL0     H46444  -1.157   7.494   6.289 -0.0598  0.6929  0.9016
  352MOL0     H46445  -1.062   7.502   6.138 -2.6852  1.8489 -0.8077
  352MOL0     H46446  -0.387   7.181   5.664  0.0500  0.1347 -0.7944
  352MOL0     H46447  -0.210   7.142   5.492  0.4024 -1.3216  0.6953
  352MOL0     H46448   0.289   7.234   5.492 -0.8099 -0.3011  0.6997
  352MOL0     H46449   0.511   7.188   5.369 -1.5746  1.3506 -1.9517
  352MOL0     H46450   2.259   6.754   4.509  1.8156  3.3747 -1.9959
  352MOL0     H46451   2.507   6.716   4.510  0.0547  1.1447 -0.7296
  352MOL0     H46452   2.894   6.651   4.577  1.2195 -2.0610  0.9718
  352MOL0     H46453   3.119   6.645   4.526 -0.2065  0.1778 -1.1531
  352MOL0     H46454   3.345   6.688   4.483  0.7271 -1.3475 -0.8917
  352MOL0     H46455   3.323   6.560   4.605 -3.1723  1.1969  0.2330
  352MOL0     H46456   3.555   6.588   4.677 -0.4327  0.8162  0.7110
  352MOL0     H46457   3.542   6.588   4.497 -0.4408  0.4927 -1.1602
  352MOL0     H46458   3.546   6.851   4.659  1.6530  1.0617  0.6748
  352MOL0     H46459   3.588   6.827   4.484  1.3080 -0.6085  0.7235
  352MOL0     H46460   3.804   6.862   4.624  1.1742 -0.9981  3.7961
  352MOL0     H46461   3.752   6.724   4.714 -0.6023  1.7747  1.1867
  352MOL0     H46462   3.813   6.517   4.349 -2.6996 -2.5535  2.5819
  352MOL0     H46463   3.216   6.898   4.855  0.1283  0.4879  0.9973
  352MOL0     H46464   2.978   6.937   4.903  0.8737  0.2464  0.7717
  353MOL0     O46465   6.653   8.640   0.207 -0.0078 -0.1784  0.2123
  353MOL0     C46466   6.772   8.659   0.187 -0.1414 -0.6101  0.3808
  353MOL0     O46467   6.820   8.785   0.145 -0.2461  0.2430  0.5311
  353MOL0     C46468   6.733   8.886   0.130 -0.3565  0.3378 -0.4778
  353MOL0     C46469   6.668   8.948   0.240 -0.7269 -0.6365  0.2268
  353MOL0     C46470   6.562   9.047   0.209 -0.3191 -0.0429  0.0403
  353MOL0     C46471   6.533   9.086   0.079 -1.2392  0.0429 -0.1626
  353MOL0     O46472   6.440   9.180   0.039  0.1237 -0.7218  0.4296
  353MOL0     C46473   6.353   9.240   0.143  0.9711  1.3080 -0.8809
  353MOL0     C46474   6.275   9.351   0.078 -0.4460  0.5073  0.5654
  353MOL0     C46475   6.208   9.442   0.188  0.0798  0.3664 -0.3498
  353MOL0     C46476   6.132   9.557   0.123 -1.2848 -0.2078 -0.2289
  353MOL0     C46477   6.045   9.624   0.230 -0.5936 -0.4563  0.7065
  353MOL0     C46478   5.934   9.710   0.162 -0.1982  0.1634  0.7047
  353MOL0     C46479   5.990   9.819   0.073 -0.6981  0.2511  0.1752
  353MOL0     C46480   5.890   9.934   0.060  1.1540 -0.3134  0.4262
  353MOL0     N46481   5.896  10.013   0.187 -0.4596 -0.1521  0.2728
  353MOL0     C46482   6.014  10.081   0.224  0.0419 -0.1359  0.2081
  353MOL0     C46483   5.968  10.167   0.320 -0.1767 -0.1157 -0.5401
  353MOL0     C46484   6.050  10.261   0.406  0.8661 -0.4774  0.1391
  353MOL0     C46485   6.179  10.306   0.336 -0.2075  0.1761  0.4804
  353MOL0     C46486   6.262  10.398   0.435 -0.3763 -0.2081 -0.2987
  353MOL0     C46487   6.381  10.464   0.367 -0.2888 -0.0694 -0.6436
  353MOL0     O46488   6.339  10.545   0.257 -0.1384  0.0780  0.1302
  353MOL0     C46489   6.438  10.626   0.201  0.8911 -0.0264  0.5468
  353MOL0     C46490   6.573  10.623   0.235 -0.3861  1.0606  0.2938
  353MOL0     C46491   6.663  10.719   0.201  0.1940  0.0794  0.6130
  353MOL0     C46492   6.616  10.827   0.118  0.5301 -0.9039 -0.6512
  353MOL0     C46493   6.694  10.946   0.079  0.2101 -0.3420  0.5707
  353MOL0     O46494   6.826  10.944   0.083  0.6469 -0.1982 -0.4074
  353MOL0     C46495   6.905  11.058   0.081 -0.0833  0.9679 -0.4220
  353MOL0     C46496   6.883  11.172   0.164 -0.4303  0.1991 -0.4508
  353MOL0     C46497   6.975  11.282   0.165 -0.2055  0.5784 -0.0504
  353MOL0     C46498   7.093  11.271   0.093  1.0184  0.8220  0.2348
  353MOL0     O46499   7.174  11.378   0.093  0.4708  0.2115 -0.0648
  353MOL0     C46500   7.299  11.385   0.036  0.0319 -0.6947  0.6557
  353MOL0     C46501   7.375  11.501   0.113 -0.2466  0.8370 -0.0311
  353MOL0     C46502   7.520  11.533   0.067  0.2591  0.0893 -0.4739
  353MOL0     C46503   7.561  11.661   0.133 -0.8781  0.0635  0.0217
  353MOL0     C46504   7.703  11.688   0.094 -1.0867 -0.1643  0.7354
  353MOL0     C46505   7.762  11.830   0.120  0.0063  0.6318 -0.0376
  353MOL0     C46506   7.899  11.834   0.048 -0.1488 -0.5186  0.1323
  353MOL0     C46507   7.949  11.979   0.045 -0.4514  0.0928 -0.1018
  353MOL0    Cl46508   7.963  12.041   0.214  0.2416  0.4184 -0.5096
  353MOL0     C46509   7.124  11.157   0.020  0.1154  1.6679 -0.0878
  353MOL0     C46510   7.031  11.045   0.024  0.2021 -0.0433 -0.6442
  353MOL0     O46511   6.626  11.042   0.044  0.1461  0.1757 -0.2086
  353MOL0     C46512   6.482  10.821   0.068  1.1228 -0.4804 -0.2103
  353MOL0     C46513   6.395  10.719   0.111 -0.1575  0.1078  0.1277
  353MOL0     N46514   5.826  10.154   0.335  0.5299 -0.1619  0.1807
  353MOL0     N46515   5.788  10.071   0.243  1.1403  0.3002 -0.3179
  353MOL0     C46516   6.604   9.024  -0.024  1.0905  0.0766 -0.0823
  353MOL0     C46517   6.696   8.925  -0.003  0.2900  0.4339 -0.7926
  353MOL0     C46518   6.870   8.550   0.207  0.4662 -0.5322  0.1877
  353MOL0     C46519   7.005   8.567   0.191 -0.1439 -0.6508 -0.6051
  353MOL0     C46520   7.091   8.459   0.223  0.8016  0.3437  0.4354
  353MOL0     C46521   7.046   8.334   0.263  0.9842  0.3834 -0.0900
  353MOL0     O46522   7.133   8.233   0.278 -0.1001 -0.0351  0.1422
  353MOL0     C46523   7.088   8.099   0.319  0.0809  0.3965 -0.4444
  353MOL0     C46524   7.213   7.997   0.324 -0.0629  0.7132  0.7518
  353MOL0     C46525   7.309   8.012   0.201 -0.2656 -0.1178 -0.0911
  353MOL0     C46526   7.422   7.900   0.189  0.3649  1.0495 -0.6289
  353MOL0     C46527   7.480   7.889   0.053  0.1302  0.6847  0.7498
  353MOL0     C46528   7.515   7.875  -0.059 -0.2877 -0.0776  0.1603
  353MOL0     C46529   6.908   8.327   0.293  0.8811  0.2661 -0.3428
  353MOL0     C46530   6.831   8.432   0.269 -0.2609 -0.2191  0.7853
  353MOL0     H46531   6.681   8.903   0.338 -3.3464 -1.8654  0.1020
  353MOL0     H46532   6.513   9.080   0.301 -0.1373  2.5507 -0.7056
  353MOL0     H46533   6.414   9.269   0.229  2.5876 -1.6889 -0.8994
  353MOL0     H46534   6.281   9.160   0.162  2.0822  0.2121 -1.1483
  353MOL0     H46535   6.200   9.315   0.007 -2.1597  2.5226  1.2538
  353MOL0     H46536   6.352   9.405   0.022 -0.3384 -0.7630 -0.5573
  353MOL0     H46537   6.281   9.474   0.262 -0.7856  2.5755 -0.3858
  353MOL0     H46538   6.129   9.386   0.240  0.5307  0.4001  0.3768
  353MOL0     H46539   6.205   9.626   0.079 -1.0301 -0.4509 -0.1928
  353MOL0     H46540   6.066   9.519   0.045 -0.9610  3.1477 -2.3206
  353MOL0     H46541   6.102   9.695   0.291 -2.7115  0.7672  1.3515
  353MOL0     H46542   5.999   9.554   0.300 -0.5962  1.8212  3.1675
  353MOL0     H46543   5.881   9.759   0.244 -1.1386  1.8175 -0.8047
  353MOL0     H46544   5.862   9.645   0.111 -1.1288  1.8530 -0.2537
  353MOL0     H46545   6.088   9.858   0.103  0.3593 -1.8270 -0.3615
  353MOL0     H46546   6.009   9.778  -0.027  0.4420  3.2338 -0.9634
  353MOL0     H46547   5.788   9.900   0.041  1.1193 -0.1236  0.2743
  353MOL0     H46548   5.908  10.001  -0.025 -1.3272 -0.9167 -0.6449
  353MOL0     H46549   6.115  10.077   0.185  0.1389 -1.5332  0.5472
  353MOL0     H46550   6.077  10.203   0.494 -1.8221 -2.6134 -0.2958
  353MOL0     H46551   5.990  10.346   0.438  0.5988 -0.7049  0.2451
  353MOL0     H46552   6.161  10.375   0.254 -0.4236  1.8437  1.8652
  353MOL0     H46553   6.247  10.225   0.309  0.8251  0.5488  1.8475
  353MOL0     H46554   6.196  10.477   0.473  1.5224  0.1508  2.4937
  353MOL0     H46555   6.294  10.331   0.515 -1.3439  0.8273  1.0062
  353MOL0     H46556   6.457  10.390   0.339  2.0936  1.8073  0.4913
  353MOL0     H46557   6.437  10.529   0.435  2.4730 -2.1272 -0.7722
  353MOL0     H46558   6.612  10.541   0.295  0.3563  1.2473  0.0824
  353MOL0     H46559   6.769  10.719   0.224  0.7008  1.9106 -1.3697
  353MOL0     H46560   6.792  11.197   0.217  1.4682  2.0999  2.2281
  353MOL0     H46561   6.955  11.371   0.225 -2.4144 -0.8414  1.4955
  353MOL0     H46562   7.293  11.403  -0.071  0.2530 -3.1424  0.1796
  353MOL0     H46563   7.357  11.294   0.053  1.1788  0.2571  2.1113
  353MOL0     H46564   7.375  11.479   0.220  0.9783 -1.6257 -0.4657
  353MOL0     H46565   7.320  11.596   0.106 -1.9080 -0.1185 -0.2818
  353MOL0     H46566   7.521  11.535  -0.042 -2.7670 -0.6030 -0.5953
  353MOL0     H46567   7.585  11.449   0.094  1.5066  1.2709  0.3549
  353MOL0     H46568   7.495  11.740   0.096 -1.0141  0.3854  0.9232
  353MOL0     H46569   7.551  11.643   0.240  0.5044 -0.3996  0.1041
  353MOL0     H46570   7.710  11.672  -0.014  2.5691  0.3979  0.7598
  353MOL0     H46571   7.771  11.618   0.144 -1.2491 -1.5790 -0.9153
  353MOL0     H46572   7.756  11.861   0.224  0.5238  0.2669  0.1072
  353MOL0     H46573   7.694  11.893   0.063 -1.8351 -0.7828  0.5168
  353MOL0     H46574   7.967  11.769   0.104 -1.2021 -3.9766 -2.2201
  353MOL0     H46575   7.888  11.792  -0.053 -2.4049  0.3583 -0.0353
  353MOL0     H46576   7.894  12.038  -0.029 -0.6991  0.9514  0.7362
  353MOL0     H46577   8.050  11.976   0.004 -1.3017 -1.6273 -2.2613
  353MOL0     H46578   7.218  11.151  -0.032 -0.5872  2.2964 -1.4816
  353MOL0     H46579   7.062  10.947  -0.012  1.0250  0.9964 -2.9241
  353MOL0     H46580   6.440  10.889  -0.005  1.5388  0.1009  0.0842
  353MOL0     H46581   6.289  10.726   0.090  0.0316 -3.6102 -3.0331
  353MOL0     H46582   6.577   9.055  -0.124  1.4920 -0.0537 -0.2359
  353MOL0     H46583   6.733   8.874  -0.091 -2.6466 -1.2004 -1.2036
  353MOL0     H46584   7.050   8.662   0.165  0.3955 -0.5655  0.5780
  353MOL0     H46585   7.195   8.485   0.202  1.8243 -3.6561 -0.2636
  353MOL0     H46586   7.005   8.063   0.258 -2.2530  0.5711  2.4179
  353MOL0     H46587   7.044   8.107   0.418 -3.0846  3.9051 -1.8797
  353MOL0     H46588   7.272   8.004   0.415 -1.1168  1.7143  1.3913
  353MOL0     H46589   7.174   7.895   0.321  0.9864  0.2970 -1.9902
  353MOL0     H46590   7.361   8.108   0.209 -1.0710  0.2188  1.3980
  353MOL0     H46591   7.253   8.005   0.107 -2.3530 -1.2050  1.1505
  353MOL0     H46592   7.507   7.922   0.254  0.1505 -0.7078  0.3110
  353MOL0     H46593   7.372   7.805   0.214 -0.3864  0.9772 -2.2663
  353MOL0     H46594   7.556   7.866  -0.157  1.9304 -2.3039  1.1738
  353MOL0     H46595   6.866   8.234   0.330  0.2904  0.3507 -0.7926
  353MOL0     H46596   6.725   8.419   0.290 -0.0944 -2.6104  0.4389
  354MOL0     O46597   0.935   7.045   6.737 -0.4820  0.5411 -0.1727
  354MOL0     C46598   0.998   7.146   6.712 -1.0625 -0.3049 -0.9037
  354MOL0     O46599   0.947   7.258   6.645  0.0725  0.0792  0.0865
  354MOL0     C46600   0.810   7.276   6.653 -0.0948 -0.4997  0.7184
  354MOL0     C46601   0.721   7.233   6.751  0.7381  0.0578 -0.1247
  354MOL0     C46602   0.587   7.283   6.766 -0.6603  0.2747  1.0960
  354MOL0     C46603   0.528   7.362   6.668  0.3066 -0.3460  0.7803
  354MOL0     O46604   0.399   7.406   6.672  0.2649  0.4281 -0.0021
  354MOL0     C46605   0.387   7.550   6.692  0.0798  0.2077  0.4582
  354MOL0     C46606   0.247   7.601   6.722  0.7237 -0.3397  0.1148
  354MOL0     C46607   0.141   7.567   6.610  0.4892  0.3631 -0.0583
  354MOL0     C46608   0.015   7.647   6.639  0.0536 -0.2131 -0.1796
  354MOL0     C46609  -0.091   7.613   6.540  0.0478  0.1260 -0.8821
  354MOL0     C46610  -0.163   7.487   6.575 -0.8435  1.1655 -1.0487
  354MOL0     C46611  -0.266   7.432   6.477  0.7477 -0.4336  0.0947
  354MOL0     C46612  -0.286   7.278   6.481  0.1852 -0.6476 -0.0425
  354MOL0     N46613  -0.400   7.250   6.567 -0.2709 -0.0974  0.3048
  354MOL0     C46614  -0.411   7.267   6.702 -0.7200  0.0284  0.3480
  354MOL0     C46615  -0.531   7.213   6.733 -0.8996  0.3316 -0.0441
  354MOL0     C46616  -0.589   7.195   6.872 -0.4684 -0.8811 -0.7708
  354MOL0     C46617  -0.669   7.320   6.904 -0.7589 -0.6857 -0.4858
  354MOL0     C46618  -0.775   7.367   6.794 -0.3897  0.0028 -0.1477
  354MOL0     C46619  -0.891   7.267   6.777 -0.5808 -0.3833 -0.5413
  354MOL0     O46620  -0.986   7.325   6.689 -0.0462  0.3536  0.7593
  354MOL0     C46621  -1.117   7.283   6.681  0.2224  1.2505  0.1658
  354MOL0     C46622  -1.216   7.377   6.648  0.1775  0.4505  0.4924
  354MOL0     C46623  -1.351   7.332   6.624 -0.3420  0.3909  0.1917
  354MOL0     C46624  -1.386   7.200   6.654  0.9897  0.3151  1.4299
  354MOL0     C46625  -1.518   7.152   6.629 -0.0671  0.1049  1.0576
  354MOL0     O46626  -1.608   7.243   6.594  0.7118  0.1446 -0.1857
  354MOL0     C46627  -1.738   7.218   6.570 -0.2731 -0.1069  0.0434
  354MOL0     C46628  -1.816   7.102   6.557 -0.9121 -0.0187  0.5596
  354MOL0     C46629  -1.954   7.096   6.547 -0.0613 -0.0398  0.3966
  354MOL0     C46630  -2.021   7.216   6.557 -1.0070  0.1115  0.4773
  354MOL0     O46631  -2.160   7.210   6.548  0.6900  0.0837 -0.7134
  354MOL0     C46632  -2.240   7.324   6.529 -0.4435 -0.5623 -0.4594
  354MOL0     C46633  -2.384   7.290   6.574 -0.4997 -0.1868  0.5510
  354MOL0     C46634  -2.487   7.394   6.532 -0.0007  0.2369 -1.1303
  354MOL0     C46635  -2.622   7.371   6.610 -0.3318 -0.5711 -0.2097
  354MOL0     C46636  -2.740   7.422   6.524  0.8520 -0.0219 -0.6997
  354MOL0     C46637  -2.877   7.429   6.598 -0.4957  0.2208 -0.1620
  354MOL0     C46638  -2.983   7.495   6.510  0.1321  0.0339  1.1216
  354MOL0     C46639  -3.010   7.417   6.383 -0.1291 -0.6763 -0.8706
  354MOL0    Cl46640  -2.914   7.464   6.242 -0.1039  0.0206 -0.6162
  354MOL0     C46641  -1.946   7.342   6.559 -0.8904 -0.3416 -0.7236
  354MOL0     C46642  -1.812   7.335   6.574  0.2209 -0.4842  0.7355
  354MOL0     O46643  -1.540   7.035   6.628 -0.0915 -0.4415  0.3873
  354MOL0     C46644  -1.286   7.110   6.700 -0.0118  0.1363  0.5287
  354MOL0     C46645  -1.152   7.149   6.713 -0.2693  0.4197  0.1288
  354MOL0     N46646  -0.588   7.169   6.618  0.6923 -0.2146 -0.8165
  354MOL0     N46647  -0.507   7.185   6.520  0.0478  0.1413  0.0520
  354MOL0     C46648   0.617   7.407   6.568 -0.5812  0.3118 -0.2211
  354MOL0     C46649   0.755   7.361   6.562 -0.1116 -0.2583 -0.0837
  354MOL0     C46650   1.145   7.142   6.735  0.4062 -0.2811 -0.0825
  354MOL0     C46651   1.209   7.019   6.776  0.6458 -0.0052  0.8415
  354MOL0     C46652   1.346   7.011   6.795  0.1369  0.5058  0.3577
  354MOL0     C46653   1.425   7.119   6.771  0.4229 -0.7987 -0.1752
  354MOL0     O46654   1.565   7.111   6.793 -0.4549  0.6060 -0.2341
  354MOL0     C46655   1.646   7.213   6.731  0.3239  0.3874 -0.2592
  354MOL0     C46656   1.788   7.202   6.781 -0.4884 -0.2762 -0.1887
  354MOL0     C46657   1.852   7.080   6.716 -0.1906 -0.3289 -0.8048
  354MOL0     C46658   2.006   7.084   6.722  0.9338  0.0900  0.7782
  354MOL0     C46659   2.060   7.086   6.856  0.9744 -0.5907 -0.8791
  354MOL0     C46660   2.116   7.083   6.965  0.4960  0.4373 -0.3288
  354MOL0     C46661   1.364   7.234   6.727  0.1904 -0.6261 -0.1798
  354MOL0     C46662   1.223   7.250   6.710  0.1620  0.3801  0.1456
  354MOL0     H46663   0.753   7.166   6.830  1.6764  0.9207  0.2367
  354MOL0     H46664   0.524   7.245   6.845 -2.1249 -0.7308 -0.4710
  354MOL0     H46665   0.434   7.604   6.610  2.3027 -0.1294  1.4305
  354MOL0     H46666   0.442   7.569   6.785 -0.5618  0.8521  0.7076
  354MOL0     H46667   0.253   7.710   6.726  0.1394 -0.0062 -3.9463
  354MOL0     H46668   0.219   7.553   6.816  0.6359  2.9754  1.9300
  354MOL0     H46669   0.124   7.459   6.606  1.1435  0.2932 -1.1905
  354MOL0     H46670   0.178   7.595   6.511  1.2457 -0.2922  0.0225
  354MOL0     H46671  -0.024   7.645   6.741 -4.3446  0.6337 -1.6281
  354MOL0     H46672   0.041   7.748   6.606 -0.1291  0.0797  0.5687
  354MOL0     H46673  -0.053   7.608   6.438  0.1587  1.5967 -0.9329
  354MOL0     H46674  -0.161   7.697   6.541 -1.6408 -1.2100  0.8284
  354MOL0     H46675  -0.214   7.501   6.670 -2.3771 -1.2695 -1.4176
  354MOL0     H46676  -0.081   7.417   6.593  0.4085  3.1999  1.9328
  354MOL0     H46677  -0.363   7.483   6.483  1.2970  0.4890  1.7012
  354MOL0     H46678  -0.220   7.455   6.380 -0.4908  0.8329 -0.2359
  354MOL0     H46679  -0.190   7.235   6.510  1.2737  2.5756  1.7769
  354MOL0     H46680  -0.309   7.235   6.384 -0.1129 -1.3675  0.3427
  354MOL0     H46681  -0.330   7.312   6.759  0.1355  1.0225 -1.5404
  354MOL0     H46682  -0.515   7.179   6.951 -0.8422 -0.6826 -0.3814
  354MOL0     H46683  -0.643   7.099   6.876  0.0806 -1.1736  2.4791
  354MOL0     H46684  -0.603   7.406   6.921 -3.4642  1.5786 -0.7674
  354MOL0     H46685  -0.718   7.305   7.001 -2.0106 -0.1660 -1.0212
  354MOL0     H46686  -0.799   7.470   6.821  0.0390  1.2425 -3.8339
  354MOL0     H46687  -0.728   7.378   6.696  1.6709  4.3271  1.0898
  354MOL0     H46688  -0.925   7.245   6.878  0.5795 -0.4185 -0.1370
  354MOL0     H46689  -0.847   7.177   6.732 -2.4701 -2.4192  1.4071
  354MOL0     H46690  -1.204   7.484   6.634 -1.8227  0.7891  1.0257
  354MOL0     H46691  -1.436   7.398   6.610  0.0789  1.1333  0.9780
  354MOL0     H46692  -1.769   7.004   6.561  0.7687  0.5919 -1.9381
  354MOL0     H46693  -2.015   7.008   6.531 -0.8722  0.8067 -1.5161
  354MOL0     H46694  -2.247   7.356   6.425 -1.5054  0.8537  0.0066
  354MOL0     H46695  -2.207   7.410   6.589  2.4507 -2.5726  1.0767
  354MOL0     H46696  -2.384   7.275   6.683  1.8605  2.1282  0.9742
  354MOL0     H46697  -2.396   7.191   6.530  2.4159 -0.0381 -0.8179
  354MOL0     H46698  -2.511   7.390   6.425 -1.0383  0.0283 -0.8993
  354MOL0     H46699  -2.460   7.497   6.557 -1.9373  0.5886 -0.3314
  354MOL0     H46700  -2.638   7.266   6.633 -0.8219 -0.7411 -1.2530
  354MOL0     H46701  -2.617   7.425   6.705  0.7516 -3.1496  1.2965
  354MOL0     H46702  -2.755   7.356   6.438  3.7947  1.5537 -2.5966
  354MOL0     H46703  -2.717   7.517   6.476  0.9281 -0.1433 -0.9062
  354MOL0     H46704  -2.875   7.499   6.683  1.9741  0.2122 -0.1563
  354MOL0     H46705  -2.911   7.333   6.640 -1.4131  1.8580  3.2295
  354MOL0     H46706  -3.075   7.490   6.569 -1.7121  1.5415 -1.4330
  354MOL0     H46707  -2.964   7.601   6.489  0.1265 -0.5346 -2.4346
  354MOL0     H46708  -3.113   7.422   6.346  0.2683 -1.1529 -2.1041
  354MOL0     H46709  -3.008   7.312   6.411 -1.6407  0.3713  3.9881
  354MOL0     H46710  -1.990   7.441   6.560  1.4483  0.7648 -0.0946
  354MOL0     H46711  -1.763   7.431   6.587 -0.8033  0.0496  0.7510
  354MOL0     H46712  -1.324   7.011   6.724 -0.2780 -0.0196 -0.4738
  354MOL0     H46713  -1.080   7.073   6.742 -0.1188 -0.2893 -1.8909
  354MOL0     H46714   0.583   7.464   6.482 -0.7790 -0.2166 -0.4970
  354MOL0     H46715   0.825   7.418   6.501  2.3802 -0.5000  2.3225
  354MOL0     H46716   1.147   6.934   6.803 -1.2773  1.5167  1.4602
  354MOL0     H46717   1.393   6.917   6.820 -1.6071 -0.6053 -0.4059
  354MOL0     H46718   1.616   7.315   6.755 -0.6123 -0.0397  0.4338
  354MOL0     H46719   1.637   7.199   6.623  1.4190  2.0625 -0.6121
  354MOL0     H46720   1.839   7.288   6.737 -0.8450  0.0116 -0.0353
  354MOL0     H46721   1.796   7.196   6.890 -1.5414 -2.2217 -0.1609
  354MOL0     H46722   1.826   7.067   6.610  2.9830 -0.4572 -1.6536
  354MOL0     H46723   1.808   6.993   6.767 -0.7840  0.4820  0.1027
  354MOL0     H46724   2.042   6.997   6.667 -3.3979 -1.0682 -0.6420
  354MOL0     H46725   2.044   7.168   6.663  0.7953  0.7215  1.5738
  354MOL0     H46726   2.163   7.065   7.059 -0.1210 -2.5872 -0.4889
  354MOL0     H46727   1.411   7.330   6.707 -1.6844  0.4354  0.2416
  354MOL0     H46728   1.189   7.346   6.673  2.0471  0.3158 -1.9323
  355MOL0     O46729   6.988   5.191  10.226  0.0678  0.4891 -0.4582
  355MOL0     C46730   6.944   5.084  10.266 -0.5388 -0.9095  0.0902
  355MOL0     O46731   7.022   4.977  10.305 -0.6155 -0.6204  0.3708
  355MOL0     C46732   7.156   5.005  10.322 -0.1661  0.2423 -0.2378
  355MOL0     C46733   7.192   5.082  10.428 -0.3897 -0.5055 -0.0024
  355MOL0     C46734   7.325   5.089  10.468 -0.7855  0.2068  0.1963
  355MOL0     C46735   7.426   5.025  10.394  0.3280 -0.2574  0.5784
  355MOL0     O46736   7.554   5.049  10.442  0.8055  0.3608  0.1122
  355MOL0     C46737   7.635   4.931  10.442 -0.7855 -0.1003  0.8848
  355MOL0     C46738   7.772   4.968  10.489 -0.3496  0.2049 -0.6593
  355MOL0     C46739   7.859   4.845  10.500 -0.3730  0.4136  0.2579
  355MOL0     C46740   8.004   4.894  10.551 -0.2847 -0.0412  0.2580
  355MOL0     C46741   8.095   4.778  10.574 -0.5444  0.7704  0.7522
  355MOL0     C46742   8.226   4.833  10.632  0.2447 -0.0642  0.2571
  355MOL0     C46743   8.330   4.730  10.663 -0.8741  0.3281  0.1338
  355MOL0     C46744   8.467   4.792  10.702  0.3445  0.4143 -0.5144
  355MOL0     N46745   8.578   4.697  10.728  0.0031  0.2713 -0.9548
  355MOL0     C46746   8.676   4.721  10.819 -1.2650 -0.9822 -0.3502
  355MOL0     C46747   8.755   4.605  10.818  0.3108  0.4996  0.2883
  355MOL0     C46748   8.888   4.584  10.898  0.9384 -1.1755  0.2252
  355MOL0     C46749   8.998   4.672  10.838  0.3785 -0.1483  0.2341
  355MOL0     C46750   9.127   4.631  10.902  0.6882  0.1228  0.0589
  355MOL0     C46751   9.252   4.688  10.829  0.0541  0.3490 -0.0618
  355MOL0     O46752   9.359   4.604  10.875  0.8228 -0.0744 -0.1059
  355MOL0     C46753   9.481   4.658  10.851 -0.3899 -0.5194  0.1462
  355MOL0     C46754   9.513   4.779  10.784  0.3854  0.4984  0.4824
  355MOL0     C46755   9.644   4.815  10.768 -0.1432  0.0414  0.2615
  355MOL0     C46756   9.754   4.730  10.806 -0.0671 -0.6507 -0.2619
  355MOL0     C46757   9.897   4.751  10.786 -0.4581 -0.3543  0.1952
  355MOL0     O46758   9.983   4.656  10.839 -0.9112 -0.1682 -0.1450
  355MOL0     C46759  10.121   4.675  10.813 -1.2039  0.0952 -0.9815
  355MOL0     C46760  10.192   4.783  10.856 -0.5266  0.2976 -0.7005
  355MOL0     C46761  10.322   4.805  10.837 -0.4267 -0.1156  0.1005
  355MOL0     C46762  10.395   4.712  10.770 -0.4860 -0.5829  0.4107
  355MOL0     O46763  10.519   4.739  10.740 -0.7410 -0.8293 -0.3956
  355MOL0     C46764  10.547   4.782  10.605 -0.2074 -0.0715  0.0545
  355MOL0     C46765  10.693   4.840  10.591  0.3031  0.5875  0.2102
  355MOL0     C46766  10.800   4.735  10.616 -1.0615  0.4085 -0.0023
  355MOL0     C46767  10.931   4.814  10.619  0.5839  0.4097  0.0008
  355MOL0     C46768  11.049   4.727  10.648  0.3459  0.1164  0.5535
  355MOL0     C46769  11.177   4.811  10.650 -0.5166  0.4354 -0.6489
  355MOL0     C46770  11.204   4.871  10.796  0.7697  0.3538  0.5112
  355MOL0     C46771  11.343   4.924  10.807 -1.0913 -0.0478 -0.0599
  355MOL0    Cl46772  11.371   4.948  10.980  0.0447 -0.0196 -0.3888
  355MOL0     C46773  10.335   4.585  10.742  0.5637 -0.2264  0.2366
  355MOL0     C46774  10.195   4.563  10.767 -0.2715  0.9689  0.8631
  355MOL0     O46775   9.938   4.848  10.726 -0.1830 -0.8218 -0.0867
  355MOL0     C46776   9.723   4.608  10.881  0.2223  0.2566  0.4294
  355MOL0     C46777   9.587   4.582  10.897 -0.5923 -0.2027 -0.2249
  355MOL0     N46778   8.703   4.515  10.727  0.1936  0.1412  0.2065
  355MOL0     N46779   8.592   4.572  10.683 -1.0549 -0.2712 -0.0449
  355MOL0     C46780   7.388   4.940  10.288  0.2347  0.0506 -0.0130
  355MOL0     C46781   7.255   4.936  10.252 -0.2725  1.1828 -0.1372
  355MOL0     C46782   6.797   5.078  10.283  0.5448  0.0904  0.6360
  355MOL0     C46783   6.714   5.191  10.288  0.6186 -0.4460 -0.4822
  355MOL0     C46784   6.579   5.182  10.270  0.7524 -0.1772  0.1337
  355MOL0     C46785   6.514   5.062  10.245  0.0323  0.7463  0.0119
  355MOL0     O46786   6.376   5.039  10.229  0.0448  0.0502 -0.4081
  355MOL0     C46787   6.290   5.157  10.238  0.3956  0.7638  0.4566
  355MOL0     C46788   6.141   5.100  10.236  0.4992 -0.0036  0.3040
  355MOL0     C46789   6.045   5.208  10.186  0.1001 -0.3054 -0.2405
  355MOL0     C46790   5.899   5.167  10.203  1.1245 -0.5092 -0.0210
  355MOL0     C46791   5.816   5.278  10.136 -0.2908 -0.4886  0.1030
  355MOL0     C46792   5.773   5.382  10.078 -0.3804 -0.1750 -1.2789
  355MOL0     C46793   6.595   4.948  10.241 -0.8294  0.0894  0.2272
  355MOL0     C46794   6.731   4.952  10.267 -0.6322 -1.1469  0.2233
  355MOL0     H46795   7.116   5.145  10.473 -2.2178 -1.3817 -1.6947
  355MOL0     H46796   7.342   5.137  10.563  0.2314 -0.6160  0.4485
  355MOL0     H46797   7.644   4.897  10.338  1.4636 -0.5712  1.1843
  355MOL0     H46798   7.599   4.852  10.508  0.1669  0.0224  1.5583
  355MOL0     H46799   7.774   5.026  10.582  5.8691 -0.8060  0.2494
  355MOL0     H46800   7.813   5.042  10.420 -1.4555  1.3649 -0.1131
  355MOL0     H46801   7.865   4.795  10.404 -0.1531 -0.7423  0.8611
  355MOL0     H46802   7.817   4.773  10.570  0.3170 -0.5875 -0.3433
  355MOL0     H46803   8.058   4.955  10.477  1.1737 -1.4890  0.0734
  355MOL0     H46804   7.996   4.942  10.649 -0.6613  0.8959 -0.2211
  355MOL0     H46805   8.115   4.726  10.480 -1.8001  3.0446 -0.8579
  355MOL0     H46806   8.048   4.712  10.647 -0.4492  1.5623  1.5418
  355MOL0     H46807   8.195   4.881  10.725 -1.0802 -1.3515  0.5055
  355MOL0     H46808   8.264   4.906  10.560 -1.8704  0.1451 -0.6981
  355MOL0     H46809   8.301   4.659  10.740 -0.2063  0.8403  0.8811
  355MOL0     H46810   8.345   4.678  10.568  0.3780 -0.1493  0.5634
  355MOL0     H46811   8.472   4.857  10.790  1.6216 -1.8210  1.1538
  355MOL0     H46812   8.497   4.854  10.617  1.4350  1.0365  0.2942
  355MOL0     H46813   8.702   4.804  10.883  3.1716 -1.4582 -1.2399
  355MOL0     H46814   8.915   4.478  10.899  1.2424 -1.1009  0.8014
  355MOL0     H46815   8.861   4.623  10.997  0.6320  3.0883 -1.3265
  355MOL0     H46816   8.979   4.780  10.849 -2.6394 -0.7446  2.0950
  355MOL0     H46817   8.998   4.649  10.731  0.1802 -1.2258  0.4612
  355MOL0     H46818   9.119   4.664  11.006  0.4443 -0.8306  0.3490
  355MOL0     H46819   9.135   4.522  10.908 -0.5712  0.0768  2.3348
  355MOL0     H46820   9.259   4.790  10.866  0.1776  0.7814 -1.2526
  355MOL0     H46821   9.235   4.666  10.724  2.1498 -4.1175  0.2516
  355MOL0     H46822   9.430   4.845  10.761  0.3715 -0.3298 -2.0984
  355MOL0     H46823   9.652   4.919  10.736  1.5708  0.1198  0.8382
  355MOL0     H46824  10.147   4.853  10.926  0.3522 -0.4325  0.6314
  355MOL0     H46825  10.362   4.897  10.876 -0.8512 -0.1549  0.6352
  355MOL0     H46826  10.478   4.860  10.571 -0.1644  0.1137  0.3910
  355MOL0     H46827  10.542   4.694  10.541 -0.1582 -0.4979  0.6348
  355MOL0     H46828  10.705   4.923  10.660 -1.8751  1.5879 -0.5280
  355MOL0     H46829  10.714   4.876  10.489  1.2499  0.6366  0.4103
  355MOL0     H46830  10.809   4.658  10.538 -1.6394  0.5404 -0.2044
  355MOL0     H46831  10.786   4.682  10.711  0.5986 -1.1677 -0.5876
  355MOL0     H46832  10.948   4.861  10.521  2.1612  0.0882  0.0875
  355MOL0     H46833  10.939   4.886  10.701  0.5663 -0.9552  1.2316
  355MOL0     H46834  11.059   4.650  10.571  1.7466  1.9815 -1.2439
  355MOL0     H46835  11.041   4.665  10.738 -1.1570 -1.7940 -0.8250
  355MOL0     H46836  11.173   4.900  10.586 -2.8149  0.9305  0.0603
  355MOL0     H46837  11.252   4.739  10.617 -0.9284  0.3355 -1.4123
  355MOL0     H46838  11.139   4.952  10.827 -0.3031  0.6507 -2.1937
  355MOL0     H46839  11.181   4.796  10.872  1.7781  2.4619  3.0379
  355MOL0     H46840  11.359   5.017  10.752 -1.6597  0.0810 -0.0144
  355MOL0     H46841  11.421   4.857  10.769  1.0367  0.5576  2.8505
  355MOL0     H46842  10.400   4.520  10.685 -0.1311  0.0132 -0.8541
  355MOL0     H46843  10.135   4.478  10.736 -1.3937  1.8410  0.5376
  355MOL0     H46844   9.793   4.534  10.919  0.0648 -0.1090  0.0223
  355MOL0     H46845   9.565   4.485  10.942  0.7518 -0.2807  0.2903
  355MOL0     H46846   7.459   4.881  10.231  1.2916  1.8802 -0.6783
  355MOL0     H46847   7.218   4.861  10.183 -0.0557 -0.1106  1.1001
  355MOL0     H46848   6.762   5.286  10.309  0.2017 -0.7332  2.0883
  355MOL0     H46849   6.512   5.267  10.276 -1.1853 -1.6464  0.4952
  355MOL0     H46850   6.298   5.212  10.144 -0.3042 -1.5633 -1.0527
  355MOL0     H46851   6.317   5.222  10.322  0.6239  1.2007  0.0480
  355MOL0     H46852   6.141   5.022  10.159  0.4041 -2.4025  2.6095
  355MOL0     H46853   6.105   5.053  10.328 -1.6214 -4.1083 -2.2925
  355MOL0     H46854   6.060   5.231  10.080  1.0009 -0.7411 -0.2203
  355MOL0     H46855   6.058   5.292  10.254 -0.8708 -0.3536  0.0177
  355MOL0     H46856   5.874   5.068  10.166  1.7874 -0.9760  0.7503
  355MOL0     H46857   5.861   5.155  10.305 -0.8734 -0.5617 -0.7212
  355MOL0     H46858   5.744   5.475  10.034 -1.0544  0.7827  1.0122
  355MOL0     H46859   6.560   4.848  10.218 -0.4396  0.6107 -3.2146
  355MOL0     H46860   6.796   4.865  10.265 -1.0735 -1.5128  1.1231
  356MOL0     O46861   6.176   6.490   0.560  0.6102 -0.5361  0.4729
  356MOL0     C46862   6.079   6.429   0.602 -0.6425 -0.5361 -1.0918
  356MOL0     O46863   5.952   6.483   0.606 -0.1148 -0.7170 -0.1609
  356MOL0     C46864   5.924   6.611   0.563  0.2292  0.5315 -0.5963
  356MOL0     C46865   5.790   6.638   0.528  0.1700 -0.5885  0.3238
  356MOL0     C46866   5.757   6.766   0.468  0.7177 -0.1075 -0.4997
  356MOL0     C46867   5.843   6.874   0.470  0.0465 -0.1322  0.4914
  356MOL0     O46868   5.805   7.004   0.447 -0.9346  0.5811 -0.6241
  356MOL0     C46869   5.780   7.025   0.305 -0.3558  0.8567 -0.4942
  356MOL0     C46870   5.705   7.161   0.282 -0.1784  0.2609 -0.3871
  356MOL0     C46871   5.568   7.160   0.343 -0.3732 -0.3529 -0.6435
  356MOL0     C46872   5.511   7.300   0.339  0.2654 -0.4274 -0.5372
  356MOL0     C46873   5.468   7.351   0.201 -0.2450  0.7018 -0.8219
  356MOL0     C46874   5.359   7.467   0.203  0.0595 -0.5598 -0.4299
  356MOL0     C46875   5.403   7.587   0.274 -0.1502  0.5382 -0.2981
  356MOL0     C46876   5.293   7.692   0.275 -0.4928 -0.0839 -0.3438
  356MOL0     N46877   5.245   7.724   0.144 -0.3381 -0.0319  0.7505
  356MOL0     C46878   5.288   7.822   0.054  0.1746 -0.2669 -0.7829
  356MOL0     C46879   5.188   7.832  -0.033  0.1828 -0.7222 -0.4802
  356MOL0     C46880   5.187   7.933  -0.141 -0.4979 -0.2524 -0.1394
  356MOL0     C46881   5.149   8.073  -0.096  0.5517  0.3088 -0.9151
  356MOL0     C46882   5.164   8.164  -0.217  0.0353  0.2879 -0.0039
  356MOL0     C46883   5.085   8.301  -0.195  0.0811 -0.3052 -1.0887
  356MOL0     O46884   5.133   8.370  -0.075 -0.6007  0.2543  0.1989
  356MOL0     C46885   5.141   8.507  -0.071  0.5424  0.0773 -0.2902
  356MOL0     C46886   5.045   8.599  -0.120  0.7259  0.3751  0.1149
  356MOL0     C46887   5.069   8.734  -0.122  0.3987 -0.8954  0.2574
  356MOL0     C46888   5.190   8.789  -0.065 -0.0106 -0.2568 -0.2289
  356MOL0     C46889   5.227   8.932  -0.071  0.0199 -0.0260  0.0027
  356MOL0     O46890   5.350   8.971  -0.040 -0.0090  1.0622 -0.1336
  356MOL0     C46891   5.373   9.100  -0.002  1.0594 -0.5947 -0.2644
  356MOL0     C46892   5.287   9.186   0.069  0.0603 -0.4283  0.1959
  356MOL0     C46893   5.312   9.331   0.081  0.0349  0.7611 -0.3697
  356MOL0     C46894   5.427   9.381   0.025  0.5033 -0.3158  0.4196
  356MOL0     O46895   5.439   9.515   0.029 -0.2831 -0.1487 -0.5533
  356MOL0     C46896   5.549   9.591  -0.014  0.0910 -0.9519  0.5411
  356MOL0     C46897   5.524   9.744   0.016  0.0361 -0.3991  0.4721
  356MOL0     C46898   5.544   9.757   0.168  0.1486 -0.0389 -0.2031
  356MOL0     C46899   5.499   9.893   0.196  0.8054 -0.9626 -0.5791
  356MOL0     C46900   5.483   9.929   0.348  0.2369 -0.3781  0.1490
  356MOL0     C46901   5.365   9.867   0.427 -0.1835 -0.1176  0.3365
  356MOL0     C46902   5.372   9.900   0.582  1.3320 -0.5093 -0.3159
  356MOL0     C46903   5.477   9.832   0.671  0.8432 -0.1121  0.5794
  356MOL0    Cl46904   5.415   9.681   0.742  0.1804  0.0196 -0.2735
  356MOL0     C46905   5.513   9.296  -0.051 -0.0934  0.2220 -0.0707
  356MOL0     C46906   5.483   9.162  -0.068  0.2768  1.3705  0.0287
  356MOL0     O46907   5.137   9.008  -0.108  0.4847  0.1253  0.2313
  356MOL0     C46908   5.275   8.700  -0.004  0.3273 -0.2461 -0.5216
  356MOL0     C46909   5.249   8.567  -0.010 -0.4412 -0.3551 -0.7697
  356MOL0     N46910   5.087   7.744  -0.011  0.1610 -0.8286  0.2657
  356MOL0     N46911   5.126   7.678   0.093  1.0981 -0.4888 -0.3942
  356MOL0     C46912   5.973   6.850   0.511 -0.3355  0.3717  0.0266
  356MOL0     C46913   6.006   6.725   0.559 -0.8358  0.8220  0.0454
  356MOL0     C46914   6.093   6.288   0.659  0.7676 -0.7203  0.4979
  356MOL0     C46915   5.980   6.214   0.701  0.9911 -0.0791  0.5489
  356MOL0     C46916   5.995   6.093   0.769 -0.6485  0.4584 -0.1176
  356MOL0     C46917   6.125   6.040   0.787  0.2266 -0.0363 -0.4464
  356MOL0     O46918   6.135   5.911   0.840  0.8277 -0.7925 -0.2639
  356MOL0     C46919   6.261   5.849   0.864  0.7297 -0.0092  0.2865
  356MOL0     C46920   6.256   5.731   0.963  0.1024  0.6633  0.3946
  356MOL0     C46921   6.202   5.610   0.877 -0.8566  0.2606 -0.3151
  356MOL0     C46922   6.198   5.468   0.951  0.5569  0.1581  0.1339
  356MOL0     C46923   6.330   5.404   0.945 -0.4376  0.1413 -0.3768
  356MOL0     C46924   6.434   5.344   0.936 -0.4818  0.3893 -0.6560
  356MOL0     C46925   6.231   6.108   0.732 -0.3789  0.1721  0.0180
  356MOL0     C46926   6.222   6.235   0.672  0.0029 -0.0912  0.4456
  356MOL0     H46927   5.721   6.555   0.543  0.1979 -0.1308  4.1439
  356MOL0     H46928   5.650   6.772   0.448  0.6197 -3.2176 -1.4735
  356MOL0     H46929   5.722   6.941   0.266  2.3444 -1.3877 -0.0053
  356MOL0     H46930   5.875   7.040   0.254 -0.5500 -1.3746 -1.6093
  356MOL0     H46931   5.694   7.190   0.177  0.4061  0.7657 -0.3121
  356MOL0     H46932   5.767   7.235   0.334 -1.0311  1.3304 -0.8561
  356MOL0     H46933   5.559   7.127   0.446 -3.7033 -1.4037 -1.1442
  356MOL0     H46934   5.506   7.085   0.292  0.7371 -2.2436  0.6809
  356MOL0     H46935   5.423   7.299   0.404  0.3745 -1.9901 -0.3650
  356MOL0     H46936   5.572   7.379   0.384 -1.2834 -0.4096  1.6597
  356MOL0     H46937   5.428   7.268   0.143  0.4681  0.5724 -1.1435
  356MOL0     H46938   5.551   7.391   0.142  0.7863 -1.9293 -1.2869
  356MOL0     H46939   5.268   7.432   0.252  0.9289 -1.2196  0.7486
  356MOL0     H46940   5.340   7.496   0.099  0.1396 -0.7557 -0.4990
  356MOL0     H46941   5.418   7.544   0.374  0.1006 -0.2641 -0.6655
  356MOL0     H46942   5.500   7.625   0.241 -0.3014  2.3066  1.1727
  356MOL0     H46943   5.323   7.785   0.324 -1.3625 -1.7521  3.8076
  356MOL0     H46944   5.208   7.661   0.337  0.4747 -1.1975  0.4760
  356MOL0     H46945   5.379   7.881   0.063  0.1088 -0.2374 -0.2459
  356MOL0     H46946   5.119   7.897  -0.219  1.3544 -0.6082 -1.6804
  356MOL0     H46947   5.282   7.940  -0.194 -0.9868  5.2386 -0.8835
  356MOL0     H46948   5.213   8.104  -0.013  0.2979 -2.2850  0.3614
  356MOL0     H46949   5.046   8.083  -0.062  0.9411  1.3722 -0.0054
  356MOL0     H46950   5.268   8.186  -0.243 -0.8828  1.5361 -3.1387
  356MOL0     H46951   5.136   8.114  -0.310 -0.0733 -0.5374  0.4640
  356MOL0     H46952   4.977   8.288  -0.187 -0.2700  2.4251 -0.6461
  356MOL0     H46953   5.107   8.358  -0.286 -1.2543 -0.0005 -1.2304
  356MOL0     H46954   4.961   8.570  -0.182 -0.0196  0.4000  1.0868
  356MOL0     H46955   4.997   8.789  -0.182 -0.4724 -3.3242 -1.0503
  356MOL0     H46956   5.200   9.150   0.122 -0.1336  0.6934  0.6714
  356MOL0     H46957   5.237   9.404   0.110 -4.1904 -3.3901  0.2982
  356MOL0     H46958   5.565   9.581  -0.122 -1.0368 -0.1300  0.2871
  356MOL0     H46959   5.644   9.556   0.028  0.2278 -2.9128 -1.2197
  356MOL0     H46960   5.422   9.766  -0.017 -0.0738  1.9504  2.0716
  356MOL0     H46961   5.599   9.800  -0.041  1.9463 -1.9970  1.2932
  356MOL0     H46962   5.649   9.737   0.194 -0.2815 -2.5662 -0.1497
  356MOL0     H46963   5.491   9.678   0.223 -1.7016  1.2541 -0.0755
  356MOL0     H46964   5.577   9.960   0.159  0.0227  1.5568  1.9972
  356MOL0     H46965   5.403   9.920   0.152  0.2897 -0.0733  1.0277
  356MOL0     H46966   5.472  10.038   0.345 -3.2449 -0.5813  1.0836
  356MOL0     H46967   5.574   9.911   0.405  0.6303 -0.6583 -0.5511
  356MOL0     H46968   5.369   9.761   0.401  2.3375  0.6098 -2.9279
  356MOL0     H46969   5.270   9.908   0.393 -0.3914  0.4776  1.5835
  356MOL0     H46970   5.389  10.008   0.592 -0.6991 -0.1660 -0.1309
  356MOL0     H46971   5.273   9.893   0.628 -0.5521  2.2395 -3.4759
  356MOL0     H46972   5.502   9.895   0.757 -0.7612 -1.0725  1.7938
  356MOL0     H46973   5.563   9.808   0.608 -0.6360  0.5407 -1.8397
  356MOL0     H46974   5.604   9.333  -0.097  1.3664 -1.9617  0.8997
  356MOL0     H46975   5.550   9.101  -0.128 -1.4588 -2.6070  1.7700
  356MOL0     H46976   5.371   8.722   0.041 -1.3170  2.4143  2.1069
  356MOL0     H46977   5.322   8.498   0.031 -2.2054  0.0368  3.5384
  356MOL0     H46978   6.040   6.935   0.518 -0.1979  0.3517 -0.9451
  356MOL0     H46979   6.100   6.720   0.614 -0.6277  1.6829 -0.2072
  356MOL0     H46980   5.882   6.256   0.682 -0.6894 -4.2613 -1.3191
  356MOL0     H46981   5.908   6.036   0.801  0.1983 -0.9955 -0.3262
  356MOL0     H46982   6.335   5.915   0.910  1.5353 -1.5285  1.2525
  356MOL0     H46983   6.308   5.827   0.768 -2.5744  1.7718 -1.9330
  356MOL0     H46984   6.358   5.698   0.984 -0.4298 -0.5608  1.2015
  356MOL0     H46985   6.199   5.753   1.053 -1.3211 -3.3666  0.7037
  356MOL0     H46986   6.271   5.594   0.793 -2.1543  0.1802 -1.3959
  356MOL0     H46987   6.104   5.639   0.839 -1.2491  1.0080  1.2146
  356MOL0     H46988   6.177   5.483   1.057 -1.5669 -0.3769 -0.1707
  356MOL0     H46989   6.118   5.410   0.906 -0.3760  0.2982  1.5601
  356MOL0     H46990   6.521   5.282   0.931 -2.2872 -2.2449 -1.0403
  356MOL0     H46991   6.328   6.059   0.739  0.5942  2.2171  2.0398
  356MOL0     H46992   6.308   6.286   0.630 -0.7797 -1.7150 -3.5482
  357MOL0     O46993   3.164   5.389  10.304  0.2420 -0.1172  0.0846
  357MOL0     C46994   3.196   5.374  10.186 -0.1651  0.8802  0.2610
  357MOL0     O46995   3.139   5.283  10.096 -0.2729 -0.3325 -0.2811
  357MOL0     C46996   3.019   5.230  10.138  0.3139 -0.1925  0.8088
  357MOL0     C46997   3.012   5.098  10.185 -0.2647 -0.3227 -0.9875
  357MOL0     C46998   2.887   5.044  10.216  0.4088  0.2796 -0.0163
  357MOL0     C46999   2.770   5.115  10.198 -0.0671 -0.6952 -0.3885
  357MOL0     O47000   2.651   5.054  10.233  0.4591 -0.1398  0.6334
  357MOL0     C47001   2.624   4.927  10.183  0.4667 -0.3741  0.6530
  357MOL0     C47002   2.471   4.906  10.175  0.4225  0.3669  0.1630
  357MOL0     C47003   2.403   4.910  10.314 -0.4282 -0.8942  0.3668
  357MOL0     C47004   2.268   4.824  10.319 -0.2221  0.2010 -0.0915
  357MOL0     C47005   2.203   4.837  10.461  0.4216 -0.6876 -0.1947
  357MOL0     C47006   2.102   4.721  10.478  0.7793  0.0779  0.3463
  357MOL0     C47007   2.028   4.737  10.616  0.5301 -0.0598 -0.5662
  357MOL0     C47008   1.944   4.859  10.627 -0.1766 -0.2098 -0.6639
  357MOL0     N47009   1.795   4.830  10.640  0.1115 -0.3683  0.6609
  357MOL0     C47010   1.719   4.784  10.536  0.4293  0.3153 -0.9918
  357MOL0     C47011   1.600   4.761  10.589 -0.3493  0.1427  0.2604
  357MOL0     C47012   1.483   4.719  10.508  0.3745 -0.4619  0.3576
  357MOL0     C47013   1.435   4.843  10.424  0.3103 -0.0671 -0.1669
  357MOL0     C47014   1.306   4.803  10.344 -0.2296 -0.0281  0.2976
  357MOL0     C47015   1.246   4.920  10.262 -0.0856  0.6555 -0.2838
  357MOL0     O47016   1.203   5.022  10.353 -0.9030  0.0273 -0.1876
  357MOL0     C47017   1.080   5.007  10.412 -0.0488  0.0050  0.1765
  357MOL0     C47018   1.049   5.118  10.485 -0.7790  0.3259  0.0733
  357MOL0     C47019   0.934   5.132  10.562 -0.0002 -0.2351  0.9782
  357MOL0     C47020   0.845   5.025  10.570  0.1084  0.1466 -0.1401
  357MOL0     C47021   0.726   5.050  10.649  0.0353 -1.0581 -0.1307
  357MOL0     O47022   0.734   5.164  10.728  0.1264 -0.1263  0.0548
  357MOL0     C47023   0.634   5.194  10.820 -0.2552  0.2223 -0.5520
  357MOL0     C47024   0.534   5.109  10.872 -0.4222  0.5179 -0.1747
  357MOL0     C47025   0.433   5.153  10.962  0.1920  0.2520 -0.1338
  357MOL0     C47026   0.434   5.288  11.002  1.0877  0.3074 -0.2520
  357MOL0     O47027   0.329   5.336  11.078 -0.0888  0.7018  0.0790
  357MOL0     C47028   0.359   5.445  11.164 -0.0605  0.4906 -0.4771
  357MOL0     C47029   0.264   5.451  11.282  0.2124 -0.0581  0.9694
  357MOL0     C47030   0.118   5.409  11.254  0.1538 -0.2758  0.2747
  357MOL0     C47031   0.043   5.402  11.388  0.2323  0.2399 -0.1967
  357MOL0     C47032  -0.110   5.380  11.372 -0.3267  0.4342  0.1535
  357MOL0     C47033  -0.185   5.358  11.505 -0.5565 -0.1591 -0.7782
  357MOL0     C47034  -0.324   5.305  11.468 -0.3660  0.1435 -0.3111
  357MOL0     C47035  -0.355   5.157  11.479  0.5127 -0.2061 -1.0535
  357MOL0    Cl47036  -0.520   5.140  11.402 -0.2919 -0.1676 -0.0731
  357MOL0     C47037   0.535   5.378  10.958  0.2340  0.2735  0.1338
  357MOL0     C47038   0.635   5.325  10.871  0.0910  0.5263  0.5244
  357MOL0     O47039   0.631   4.962  10.635  0.4619 -0.7810 -0.8104
  357MOL0     C47040   0.877   4.905  10.498 -0.1215 -0.3056  0.5672
  357MOL0     C47041   0.991   4.900  10.415 -0.9370  0.2614  1.2862
  357MOL0     N47042   1.597   4.794  10.723 -0.8907  0.0844  0.1230
  357MOL0     N47043   1.718   4.842  10.753  0.1829 -0.0013  0.2893
  357MOL0     C47044   2.775   5.257  10.177 -0.7093 -0.9734 -0.1542
  357MOL0     C47045   2.905   5.308  10.132  0.2979  0.4412  0.0705
  357MOL0     C47046   3.315   5.431  10.130 -0.1581  0.6966 -0.1374
  357MOL0     C47047   3.334   5.428   9.991  0.2288 -0.3438 -0.1267
  357MOL0     C47048   3.446   5.486   9.937 -0.2547  0.7723  0.6219
  357MOL0     C47049   3.560   5.539  10.010 -0.3403  0.7638 -0.3996
  357MOL0     O47050   3.674   5.576   9.944  0.1737 -0.1675  0.3528
  357MOL0     C47051   3.781   5.616  10.027 -0.4660 -0.3517  0.5634
  357MOL0     C47052   3.900   5.676   9.947  0.1611 -0.0785  0.5970
  357MOL0     C47053   3.847   5.767   9.835  0.1792  0.4513  0.3994
  357MOL0     C47054   3.955   5.852   9.768 -0.5164 -0.4770  0.1786
  357MOL0     C47055   4.068   5.766   9.712  0.7783 -0.2912  0.0224
  357MOL0     C47056   4.151   5.692   9.667  0.6586  0.1528 -0.3589
  357MOL0     C47057   3.543   5.545  10.150  0.1241 -0.0626 -0.5873
  357MOL0     C47058   3.418   5.489  10.204  0.0378  0.1383  0.0621
  357MOL0     H47059   3.092   5.027  10.204 -0.4096 -0.0351  0.8653
  357MOL0     H47060   2.885   4.942  10.254  2.3473 -0.1795 -1.0478
  357MOL0     H47061   2.662   4.852  10.253  0.3564 -1.2867 -0.2589
  357MOL0     H47062   2.668   4.910  10.085 -0.1258 -2.0525  0.6458
  357MOL0     H47063   2.453   4.802  10.145  1.1007  0.3755 -0.2709
  357MOL0     H47064   2.416   4.975  10.110 -2.8852 -0.8292  1.4400
  357MOL0     H47065   2.380   5.013  10.340 -1.0699 -0.5850 -1.2915
  357MOL0     H47066   2.469   4.880  10.396 -0.1142  0.2350  0.5368
  357MOL0     H47067   2.199   4.864  10.244  0.4278 -0.0932 -0.8635
  357MOL0     H47068   2.294   4.720  10.295  1.1546  1.0973 -2.9703
  357MOL0     H47069   2.149   4.931  10.475 -3.5998 -3.1477  3.5783
  357MOL0     H47070   2.285   4.835  10.534 -0.0877 -1.7824  0.3704
  357MOL0     H47071   2.150   4.623  10.474  1.6546  0.5320 -0.9860
  357MOL0     H47072   2.037   4.731  10.391  0.5081  3.3574  0.8002
  357MOL0     H47073   1.964   4.648  10.621 -0.7562  0.8456 -0.2255
  357MOL0     H47074   2.100   4.727  10.698  0.1877  2.0015  0.0446
  357MOL0     H47075   1.961   4.921  10.538 -2.3774 -0.8518 -1.5920
  357MOL0     H47076   1.962   4.924  10.713 -3.4554  1.6746 -1.2429
  357MOL0     H47077   1.750   4.765  10.434  2.6743 -0.8648 -0.1700
  357MOL0     H47078   1.407   4.683  10.578  0.6583 -0.6792  0.5555
  357MOL0     H47079   1.495   4.626  10.451 -3.2936  0.4437 -2.2648
  357MOL0     H47080   1.508   4.875  10.349 -1.8186 -0.2873 -2.4895
  357MOL0     H47081   1.422   4.935  10.481  1.7969  0.9065 -1.3181
  357MOL0     H47082   1.329   4.718  10.279 -3.5108 -0.5191 -0.3613
  357MOL0     H47083   1.232   4.781  10.421 -0.5934  0.7744  0.1845
  357MOL0     H47084   1.166   4.874  10.204 -0.2970 -0.4368  0.8371
  357MOL0     H47085   1.314   4.964  10.188 -0.4716  1.8805  0.0635
  357MOL0     H47086   1.125   5.195  10.485  0.4504 -0.8365  0.2461
  357MOL0     H47087   0.921   5.228  10.610 -0.7619  0.5814 -0.7771
  357MOL0     H47088   0.536   5.002  10.859 -2.9531  0.3235  0.4693
  357MOL0     H47089   0.361   5.099  11.021  0.2414  0.0973 -0.2150
  357MOL0     H47090   0.336   5.538  11.114 -1.5105  1.6810  2.1968
  357MOL0     H47091   0.464   5.455  11.194 -0.0986  1.0259 -0.5234
  357MOL0     H47092   0.271   5.553  11.320 -0.2685 -0.5775  2.5256
  357MOL0     H47093   0.303   5.395  11.368 -0.2900 -1.2985  0.4203
  357MOL0     H47094   0.111   5.310  11.209 -3.9444 -0.0419  0.0684
  357MOL0     H47095   0.083   5.493  11.193 -1.2917  0.2274  1.7260
  357MOL0     H47096   0.090   5.321  11.444  0.1114  0.7941  0.7280
  357MOL0     H47097   0.059   5.492  11.448 -1.6020  1.7455 -1.8178
  357MOL0     H47098  -0.106   5.293  11.306  0.0347  0.6431 -0.1033
  357MOL0     H47099  -0.153   5.465  11.318 -1.9208 -0.5612 -0.2145
  357MOL0     H47100  -0.207   5.455  11.551 -0.7453 -0.4776 -0.1773
  357MOL0     H47101  -0.128   5.284  11.561 -0.9493 -0.8257 -1.2380
  357MOL0     H47102  -0.391   5.350  11.542  0.6137 -1.4929  1.6708
  357MOL0     H47103  -0.340   5.341  11.366  0.7964  2.8009  0.3466
  357MOL0     H47104  -0.361   5.122  11.582  0.7850  1.1671 -0.5384
  357MOL0     H47105  -0.284   5.088  11.434  1.0394 -1.2387  1.2031
  357MOL0     H47106   0.525   5.484  10.981  0.3513  0.7818 -1.9474
  357MOL0     H47107   0.704   5.391  10.819  0.4420 -1.7937 -2.2577
  357MOL0     H47108   0.817   4.815  10.495  0.1323 -0.4643  0.1568
  357MOL0     H47109   1.018   4.813  10.356 -3.4375  0.3011 -0.0088
  357MOL0     H47110   2.686   5.319  10.171 -1.9874 -2.8481 -1.6700
  357MOL0     H47111   2.906   5.412  10.102  1.8779 -0.1168 -2.0249
  357MOL0     H47112   3.262   5.381   9.925  0.5917  0.6861 -1.3001
  357MOL0     H47113   3.466   5.470   9.832 -0.6200  0.2956  0.6199
  357MOL0     H47114   3.809   5.531  10.091 -0.6281 -1.5852 -0.9304
  357MOL0     H47115   3.754   5.706  10.084  3.4783  0.9927  0.5819
  357MOL0     H47116   3.960   5.723  10.025 -0.1386  3.7587 -1.2846
  357MOL0     H47117   3.956   5.593   9.903  0.0224  1.2009 -2.1625
  357MOL0     H47118   3.775   5.837   9.878  0.4932  0.2414  1.2763
  357MOL0     H47119   3.792   5.700   9.767 -0.6090  0.2031  1.2633
  357MOL0     H47120   3.900   5.907   9.690 -2.2359  0.5564  2.0228
  357MOL0     H47121   3.995   5.924   9.840  1.8096 -0.1731 -1.3072
  357MOL0     H47122   4.226   5.635   9.617  0.7661  2.3008 -2.8684
  357MOL0     H47123   3.623   5.586  10.212  0.6962  4.4821 -3.8283
  357MOL0     H47124   3.415   5.493  10.313 -1.1572  1.2473  0.0110
  358MOL0     O47125   6.779   2.116   3.371 -0.0285  0.1525  0.0211
  358MOL0     C47126   6.754   2.116   3.251 -0.0201 -0.1697 -0.1068
  358MOL0     O47127   6.638   2.070   3.205 -0.5312  0.2610 -0.2750
  358MOL0     C47128   6.534   2.042   3.291 -0.1111 -0.0219 -0.7759
  358MOL0     C47129   6.535   1.933   3.382  1.3855  0.1165 -0.8605
  358MOL0     C47130   6.414   1.901   3.447  0.4438 -0.6291 -0.2459
  358MOL0     C47131   6.290   1.954   3.405  0.0333 -0.7954  0.3813
  358MOL0     O47132   6.175   1.925   3.464  0.9269  0.2629 -0.1077
  358MOL0     C47133   6.176   1.830   3.567 -0.2631 -0.7625  0.2482
  358MOL0     C47134   6.025   1.833   3.615 -0.5125  0.6899  0.4582
  358MOL0     C47135   6.022   1.745   3.743  0.2921 -1.1661 -0.0289
  358MOL0     C47136   5.877   1.732   3.799 -0.7524  0.4770  0.5020
  358MOL0     C47137   5.866   1.617   3.904  0.1840  0.1225 -0.4676
  358MOL0     C47138   5.744   1.612   3.996 -0.0376 -0.8755  0.1704
  358MOL0     C47139   5.616   1.624   3.917 -0.5831  0.1651  0.3593
  358MOL0     C47140   5.496   1.604   4.008  0.2593 -0.0069  0.5730
  358MOL0     N47141   5.490   1.463   4.049  0.1404 -0.4546  0.3527
  358MOL0     C47142   5.467   1.363   3.959  0.5929  0.0458 -0.9794
  358MOL0     C47143   5.477   1.248   4.031  0.2511 -1.1870 -0.4705
  358MOL0     C47144   5.452   1.120   3.961 -0.2040  0.5931 -0.3654
  358MOL0     C47145   5.361   1.032   4.043  0.0392 -0.0894 -0.1062
  358MOL0     C47146   5.222   1.093   4.057 -0.1724 -0.3213  0.3867
  358MOL0     C47147   5.107   0.992   4.072 -0.2738 -0.7051  0.3193
  358MOL0     O47148   4.997   1.067   4.101 -0.1670 -0.2481 -0.2771
  358MOL0     C47149   4.865   1.010   4.116  0.3735 -1.0012  0.7698
  358MOL0     C47150   4.832   0.880   4.080  0.8994 -0.3690  0.4688
  358MOL0     C47151   4.703   0.824   4.112  0.2451  0.4236 -0.3520
  358MOL0     C47152   4.606   0.890   4.181 -0.2156 -0.1491 -0.0663
  358MOL0     C47153   4.485   0.820   4.214  0.1144  0.1628 -0.4535
  358MOL0     O47154   4.399   0.883   4.303  0.0913  0.4309 -0.0802
  358MOL0     C47155   4.266   0.849   4.328  0.5295 -0.1958  0.2561
  358MOL0     C47156   4.212   0.908   4.445 -0.0351 -0.0465  0.5543
  358MOL0     C47157   4.092   0.873   4.492 -0.8095  0.4676 -0.2842
  358MOL0     C47158   4.013   0.777   4.433  0.4486  0.1724  0.1016
  358MOL0     O47159   3.887   0.765   4.496  0.2996  0.7636  0.5621
  358MOL0     C47160   3.799   0.674   4.421  0.6271 -0.0096 -0.9139
  358MOL0     C47161   3.677   0.639   4.508 -1.2855 -0.3148  0.3497
  358MOL0     C47162   3.571   0.749   4.505 -0.6543 -0.4133 -0.4710
  358MOL0     C47163   3.469   0.739   4.621 -0.5839  0.5358 -0.0454
  358MOL0     C47164   3.336   0.819   4.599 -0.7890 -0.0579 -0.3476
  358MOL0     C47165   3.251   0.815   4.725 -0.8247  0.6163  0.1612
  358MOL0     C47166   3.114   0.864   4.690 -0.7175 -0.6199  0.6475
  358MOL0     C47167   3.102   1.013   4.631 -0.6855  0.4480 -0.0816
  358MOL0    Cl47168   2.934   1.062   4.639 -0.0462  0.0518 -0.4098
  358MOL0     C47169   4.060   0.709   4.320 -0.3650  0.0119  0.5825
  358MOL0     C47170   4.189   0.744   4.269  0.6741  0.1231  0.6253
  358MOL0     O47171   4.469   0.711   4.157  0.0964  0.2454 -0.4356
  358MOL0     C47172   4.639   1.017   4.219 -0.1523  0.5494  0.4876
  358MOL0     C47173   4.762   1.082   4.185  0.2716 -0.6363 -0.3482
  358MOL0     N47174   5.500   1.285   4.165 -0.2189 -0.3055  0.5238
  358MOL0     N47175   5.505   1.419   4.177 -0.4218  0.3040 -0.2343
  358MOL0     C47176   6.290   2.056   3.319 -0.7497 -0.7822  0.1209
  358MOL0     C47177   6.409   2.100   3.262  0.0375 -0.1035  0.6378
  358MOL0     C47178   6.861   2.169   3.161  0.8394  0.8046 -1.3433
  358MOL0     C47179   6.994   2.185   3.214  0.2892  0.4852  0.3321
  358MOL0     C47180   7.085   2.250   3.138 -0.6686 -0.3715 -0.6871
  358MOL0     C47181   7.058   2.286   3.007  0.6014 -0.5480 -0.5034
  358MOL0     O47182   7.156   2.351   2.945  0.0588  0.6040  0.1449
  358MOL0     C47183   7.130   2.412   2.817  0.4157 -0.3015  0.1457
  358MOL0     C47184   7.264   2.462   2.774 -0.3484  0.4118  0.7354
  358MOL0     C47185   7.269   2.484   2.618  0.5374  0.9547  0.2660
  358MOL0     C47186   7.409   2.490   2.545  0.4806 -0.2337  0.6594
  358MOL0     C47187   7.475   2.357   2.554  0.6846 -0.1225  0.4871
  358MOL0     C47188   7.532   2.252   2.582  1.3362 -0.7329  0.7138
  358MOL0     C47189   6.923   2.265   2.955  0.0451 -0.2607  0.7228
  358MOL0     C47190   6.833   2.206   3.034 -0.3055  0.7305  0.1785
  358MOL0     H47191   6.627   1.878   3.399  1.3388  0.0968 -0.6646
  358MOL0     H47192   6.421   1.824   3.524 -1.6154  0.3509  1.0121
  358MOL0     H47193   6.241   1.860   3.649 -0.2169  2.2173 -0.7493
  358MOL0     H47194   6.200   1.730   3.530  1.8414  0.2403 -1.3314
  358MOL0     H47195   5.958   1.799   3.535  1.8333 -1.8190 -0.5812
  358MOL0     H47196   5.999   1.937   3.637  0.6196  0.8760  0.9894
  358MOL0     H47197   6.085   1.782   3.824 -0.2293 -0.9543  0.2906
  358MOL0     H47198   6.058   1.647   3.712 -0.4585 -1.8929  1.3127
  358MOL0     H47199   5.851   1.827   3.847 -0.8683  0.2964  0.8007
  358MOL0     H47200   5.815   1.725   3.710  2.6989  1.7292 -2.2487
  358MOL0     H47201   5.948   1.622   3.976  2.2178 -1.3725 -2.5282
  358MOL0     H47202   5.891   1.518   3.865 -0.1139 -0.3597  0.5451
  358MOL0     H47203   5.743   1.694   4.069  0.5167 -0.8238  0.1231
  358MOL0     H47204   5.753   1.517   4.049 -0.7685 -1.1922 -0.2594
  358MOL0     H47205   5.607   1.729   3.888  0.7306  0.8227  2.1382
  358MOL0     H47206   5.621   1.558   3.830 -2.9801  0.2629  0.0684
  358MOL0     H47207   5.409   1.628   3.946 -0.9968 -2.6901  1.1446
  358MOL0     H47208   5.500   1.660   4.102  0.3231  1.1643 -0.1099
  358MOL0     H47209   5.436   1.371   3.856 -2.9168  0.3423 -0.0167
  358MOL0     H47210   5.550   1.072   3.970  0.4659  2.0455  0.6167
  358MOL0     H47211   5.415   1.127   3.858 -1.9638 -0.0584  0.1887
  358MOL0     H47212   5.419   1.010   4.134  1.4252  2.6543 -0.2031
  358MOL0     H47213   5.348   0.936   3.992  0.1645 -1.0071  1.5077
  358MOL0     H47214   5.224   1.152   4.149  0.5152 -0.3642  0.4044
  358MOL0     H47215   5.197   1.156   3.971  0.3963 -1.4357 -0.6189
  358MOL0     H47216   5.136   0.926   4.154  1.3097  0.7440  0.9778
  358MOL0     H47217   5.090   0.931   3.982  1.4530 -2.1487  0.9045
  358MOL0     H47218   4.916   0.818   4.048  3.2958  2.2231  1.3177
  358MOL0     H47219   4.697   0.716   4.099  0.7009  0.3156  0.2567
  358MOL0     H47220   4.271   0.976   4.506 -0.8885  0.1020  1.2373
  358MOL0     H47221   4.061   0.934   4.577 -1.9428  0.7346 -0.8705
  358MOL0     H47222   3.851   0.578   4.418  0.3919 -0.1138 -3.4180
  358MOL0     H47223   3.777   0.705   4.319  3.5035  2.2232 -0.9617
  358MOL0     H47224   3.729   0.623   4.603  1.5207  2.3691 -0.5637
  358MOL0     H47225   3.634   0.542   4.482  2.3829 -1.6611 -1.3433
  358MOL0     H47226   3.523   0.756   4.407 -0.3577  2.9482 -0.5015
  358MOL0     H47227   3.623   0.844   4.514 -0.9499 -0.2362 -0.6150
  358MOL0     H47228   3.455   0.634   4.647 -0.8346  0.4693 -0.4521
  358MOL0     H47229   3.511   0.789   4.709 -0.9814 -0.5467  0.7819
  358MOL0     H47230   3.284   0.776   4.513 -2.0942 -0.7541  0.7600
  358MOL0     H47231   3.358   0.922   4.570  2.3292 -0.0443  1.5515
  358MOL0     H47232   3.287   0.878   4.807 -1.2034 -1.9364  2.4669
  358MOL0     H47233   3.262   0.712   4.762  1.0578  0.6115 -0.3247
  358MOL0     H47234   3.070   0.797   4.616  1.5375 -1.0570 -0.3932
  358MOL0     H47235   3.064   0.865   4.787 -1.5827  0.2924  0.2169
  358MOL0     H47236   3.138   1.025   4.528  2.8978  2.8157  1.2539
  358MOL0     H47237   3.166   1.073   4.697  1.3920  0.9081 -2.3601
  358MOL0     H47238   3.992   0.640   4.270 -0.9823 -0.0228  1.4360
  358MOL0     H47239   4.226   0.688   4.184 -1.5204 -1.9592  0.9453
  358MOL0     H47240   4.566   1.064   4.285  1.5638  0.5696  2.4660
  358MOL0     H47241   4.787   1.175   4.236 -0.8903 -0.2116 -0.5209
  358MOL0     H47242   6.196   2.098   3.285 -2.0048 -3.2746  0.2872
  358MOL0     H47243   6.410   2.174   3.183 -0.8220  0.0382  0.7468
  358MOL0     H47244   7.015   2.162   3.318 -0.4244  0.8486  0.5661
  358MOL0     H47245   7.179   2.271   3.188 -1.5341  3.7874 -0.4512
  358MOL0     H47246   7.062   2.496   2.831  2.0609  0.9196  1.1330
  358MOL0     H47247   7.090   2.344   2.742 -0.8318 -1.4390  1.7741
  358MOL0     H47248   7.295   2.552   2.828  0.0545 -0.7567  2.5631
  358MOL0     H47249   7.332   2.380   2.801  0.6182  0.7892 -0.4993
  358MOL0     H47250   7.228   2.583   2.598  3.0061  2.0970  0.5227
  358MOL0     H47251   7.216   2.401   2.570 -1.1420  1.1964  1.5994
  358MOL0     H47252   7.386   2.519   2.442  0.1466  1.4974  1.1848
  358MOL0     H47253   7.463   2.575   2.590  0.9068  0.3029 -0.8187
  358MOL0     H47254   7.577   2.159   2.611  1.4760 -0.3477  1.8043
  358MOL0     H47255   6.897   2.294   2.853  0.6909 -1.3468  0.2270
  358MOL0     H47256   6.738   2.167   2.998  0.3102 -2.2830  1.5702
  359MOL0     O47257   2.816   6.051   8.911 -0.4221  0.1883  0.2680
  359MOL0     C47258   2.820   6.141   8.822 -0.0564 -0.1588  0.1333
  359MOL0     O47259   2.714   6.183   8.744  0.2310  0.0157 -0.4418
  359MOL0     C47260   2.596   6.108   8.772 -1.3462  0.4088  0.0008
  359MOL0     C47261   2.500   6.156   8.861  0.8580  0.3157  0.1233
  359MOL0     C47262   2.381   6.084   8.888 -0.4203 -0.4047 -0.4937
  359MOL0     C47263   2.348   5.962   8.824  0.0772 -0.3942 -0.2412
  359MOL0     O47264   2.236   5.885   8.847  0.2444  0.1350  0.0784
  359MOL0     C47265   2.115   5.950   8.882  0.2270  0.4275  0.3129
  359MOL0     C47266   2.003   5.846   8.865 -0.2899  0.6670  0.0063
  359MOL0     C47267   1.870   5.890   8.915 -0.2966 -0.3874  0.5025
  359MOL0     C47268   1.781   5.765   8.909 -0.7041 -0.6876 -0.4812
  359MOL0     C47269   1.648   5.800   8.975 -0.2574 -0.0806  0.2168
  359MOL0     C47270   1.554   5.681   8.969 -0.2280  0.2369 -0.8650
  359MOL0     C47271   1.418   5.725   9.025 -0.3166  0.6337 -0.2127
  359MOL0     C47272   1.428   5.722   9.178  0.0361  0.7634  0.6683
  359MOL0     N47273   1.311   5.790   9.244  0.1223  0.6045 -0.3294
  359MOL0     C47274   1.195   5.724   9.289 -0.0986 -0.1625  0.3180
  359MOL0     C47275   1.131   5.818   9.353  0.6103  0.8390  0.1599
  359MOL0     C47276   1.002   5.782   9.427 -0.0170 -0.6415 -0.1440
  359MOL0     C47277   0.876   5.790   9.351  0.3694 -0.1759 -0.5135
  359MOL0     C47278   0.752   5.742   9.429 -0.5514  1.2623  0.0989
  359MOL0     C47279   0.697   5.848   9.529  0.2990 -0.2417 -0.1131
  359MOL0     O47280   0.625   5.943   9.454  0.2901 -0.2295 -0.2655
  359MOL0     C47281   0.592   6.067   9.505 -1.1944  0.6656  0.2372
  359MOL0     C47282   0.565   6.090   9.635 -0.3539  0.1432  0.2411
  359MOL0     C47283   0.537   6.218   9.683 -0.8559  0.2286 -1.1309
  359MOL0     C47284   0.541   6.324   9.599  0.0581  0.1373  0.0041
  359MOL0     C47285   0.514   6.456   9.643 -0.0869  0.0818 -0.0316
  359MOL0     O47286   0.436   6.466   9.762 -0.4111  0.0951  0.2172
  359MOL0     C47287   0.431   6.584   9.831 -0.3325 -0.2918 -0.0207
  359MOL0     C47288   0.474   6.589   9.967  0.3777  0.0035 -0.3162
  359MOL0     C47289   0.480   6.715  10.028  0.3387 -0.4006  0.0705
  359MOL0     C47290   0.438   6.834   9.959 -0.0876  0.2101  0.0299
  359MOL0     O47291   0.445   6.955  10.022 -0.7861 -0.0443 -0.1628
  359MOL0     C47292   0.534   7.043   9.949 -0.0401  0.3095  0.5014
  359MOL0     C47293   0.476   7.184   9.951 -0.2829  0.1214  0.0071
  359MOL0     C47294   0.345   7.196   9.875  0.0258  0.4784  0.1152
  359MOL0     C47295   0.288   7.337   9.908  1.0400 -0.2980 -0.2850
  359MOL0     C47296   0.131   7.336   9.903  0.0654  0.3869  0.2748
  359MOL0     C47297   0.064   7.462   9.965 -0.3187  0.4600 -0.2394
  359MOL0     C47298   0.148   7.591   9.955  0.2923 -0.1718 -0.1996
  359MOL0     C47299   0.070   7.709  10.024  0.2103 -0.0480  0.0782
  359MOL0    Cl47300   0.061   7.675  10.200 -0.1611  0.0790  0.0874
  359MOL0     C47301   0.389   6.822   9.832 -0.7899 -0.1558  0.7602
  359MOL0     C47302   0.385   6.701   9.763  0.1748 -0.8099 -0.2183
  359MOL0     O47303   0.572   6.547   9.580  0.1011 -0.7869 -0.1814
  359MOL0     C47304   0.577   6.304   9.466  0.6952  0.3171 -0.3019
  359MOL0     C47305   0.590   6.173   9.421 -0.4979 -0.5619 -0.6845
  359MOL0     N47306   1.205   5.933   9.362  0.4110  0.0074 -0.0536
  359MOL0     N47307   1.310   5.916   9.289  0.2444  0.1262  0.2408
  359MOL0     C47308   2.448   5.924   8.733  0.7582 -0.0329  1.1353
  359MOL0     C47309   2.568   5.996   8.698 -0.7847  0.4708 -0.1018
  359MOL0     C47310   2.958   6.196   8.801 -0.0622  0.7067 -0.7313
  359MOL0     C47311   3.071   6.129   8.852  0.5020  0.2189  0.3042
  359MOL0     C47312   3.195   6.178   8.827  0.1874  0.2469 -0.1902
  359MOL0     C47313   3.224   6.289   8.753 -0.4370 -0.7378  0.2489
  359MOL0     O47314   3.347   6.348   8.744  0.1966  0.0091 -1.1083
  359MOL0     C47315   3.457   6.262   8.742  0.7558  0.7153 -0.0709
  359MOL0     C47316   3.563   6.326   8.664  0.0577 -0.1896  0.1753
  359MOL0     C47317   3.683   6.238   8.689  0.2775 -0.3762 -0.5712
  359MOL0     C47318   3.806   6.336   8.664  0.1148  0.1113  0.7979
  359MOL0     C47319   3.921   6.247   8.672  0.5341 -1.1116 -0.3277
  359MOL0     C47320   4.016   6.173   8.657  0.6139  0.0522 -0.2976
  359MOL0     C47321   3.111   6.358   8.713 -0.4768 -0.2131 -0.2585
  359MOL0     C47322   2.985   6.317   8.739  0.4541  0.5488 -0.3249
  359MOL0     H47323   2.527   6.247   8.914  3.5503  0.6548 -1.6403
  359MOL0     H47324   2.323   6.132   8.965 -1.3239 -1.5819 -0.4037
  359MOL0     H47325   2.094   6.033   8.813  0.9524 -0.7439 -1.3768
  359MOL0     H47326   2.125   5.979   8.987 -1.9865 -2.5626  1.4634
  359MOL0     H47327   2.033   5.758   8.923  1.2453  1.4688  0.4910
  359MOL0     H47328   1.993   5.815   8.761 -1.6300 -0.6055  0.4755
  359MOL0     H47329   1.840   5.969   8.846 -0.0637  0.4516  1.3357
  359MOL0     H47330   1.880   5.931   9.016 -0.9220 -0.7254  0.7074
  359MOL0     H47331   1.769   5.750   8.801 -1.7420  1.8638 -0.7873
  359MOL0     H47332   1.828   5.675   8.950  3.5675  2.0389  1.1304
  359MOL0     H47333   1.598   5.887   8.933 -0.8540  0.2237  1.4864
  359MOL0     H47334   1.665   5.826   9.080 -0.7388 -1.7092  0.7332
  359MOL0     H47335   1.591   5.595   9.025  1.1400  1.5497  0.3362
  359MOL0     H47336   1.548   5.653   8.863  0.8879 -0.1564 -0.8362
  359MOL0     H47337   1.385   5.823   8.992  2.3423  1.1942 -1.4551
  359MOL0     H47338   1.335   5.658   8.999 -0.7073  0.7403  0.7129
  359MOL0     H47339   1.512   5.773   9.225 -1.5627  3.0303  1.1939
  359MOL0     H47340   1.432   5.614   9.199  3.1255  0.2765 -1.6840
  359MOL0     H47341   1.161   5.626   9.259 -0.1058 -0.0289 -0.1111
  359MOL0     H47342   0.987   5.840   9.519 -0.8563  0.0467 -0.6986
  359MOL0     H47343   1.010   5.676   9.452 -0.9821 -1.0649 -1.5224
  359MOL0     H47344   0.880   5.737   9.256 -0.6527 -0.8518 -0.1996
  359MOL0     H47345   0.859   5.895   9.323 -0.2603  0.0129  0.5068
  359MOL0     H47346   0.675   5.711   9.357  2.0203  0.0873 -2.3189
  359MOL0     H47347   0.774   5.646   9.476 -1.8698  0.4835 -0.7960
  359MOL0     H47348   0.777   5.908   9.573 -1.5972  2.2282  0.2565
  359MOL0     H47349   0.644   5.791   9.606  0.7399 -2.2578 -1.2476
  359MOL0     H47350   0.559   6.011   9.709 -1.0780 -0.6973 -0.6908
  359MOL0     H47351   0.513   6.229   9.788 -0.5885 -0.7323 -0.9623
  359MOL0     H47352   0.505   6.502  10.022 -2.2149 -1.2115 -0.6469
  359MOL0     H47353   0.514   6.723  10.130 -1.8993 -1.9086  1.0073
  359MOL0     H47354   0.554   7.006   9.848  1.8288  0.6128  0.7226
  359MOL0     H47355   0.631   7.053   9.998 -0.1828  1.2430  0.6038
  359MOL0     H47356   0.554   7.251   9.913  0.5393 -0.1094  1.1953
  359MOL0     H47357   0.470   7.212  10.057 -2.2165 -0.1777  0.0018
  359MOL0     H47358   0.275   7.118   9.906  0.2140  0.3126  0.1257
  359MOL0     H47359   0.355   7.181   9.767  0.5424 -2.6947  0.5337
  359MOL0     H47360   0.315   7.375  10.007 -1.5797  3.3147 -0.7692
  359MOL0     H47361   0.323   7.404   9.829 -0.9906 -0.1293 -1.1178
  359MOL0     H47362   0.084   7.248   9.947  0.6273 -0.6743 -1.1603
  359MOL0     H47363   0.095   7.339   9.799  1.8679  0.4956 -0.3741
  359MOL0     H47364   0.072   7.440  10.072  2.9925 -0.5066 -0.5576
  359MOL0     H47365  -0.040   7.473   9.932 -0.1657 -0.4955 -1.0874
  359MOL0     H47366   0.236   7.580  10.019 -0.1121 -1.0517  0.2153
  359MOL0     H47367   0.181   7.613   9.853 -0.1904 -2.4775 -0.8983
  359MOL0     H47368  -0.029   7.729   9.982 -0.3507  0.7363  1.6654
  359MOL0     H47369   0.127   7.801  10.019  2.8995 -1.6513 -0.5869
  359MOL0     H47370   0.352   6.908   9.777  2.2418  0.2487 -0.9212
  359MOL0     H47371   0.341   6.682   9.665  0.5502 -3.2208  0.0069
  359MOL0     H47372   0.586   6.384   9.393  1.3003 -0.1023 -0.7047
  359MOL0     H47373   0.615   6.161   9.316 -0.1220 -0.4544 -0.6120
  359MOL0     H47374   2.430   5.831   8.679  1.4172  1.4085 -1.7433
  359MOL0     H47375   2.639   5.958   8.624  0.2040  0.4759  0.8197
  359MOL0     H47376   3.071   6.042   8.916  0.4819  0.2091  0.2910
  359MOL0     H47377   3.276   6.123   8.874  0.4855  1.5175  0.8610
  359MOL0     H47378   3.427   6.166   8.701 -2.1577 -0.3236  3.8728
  359MOL0     H47379   3.473   6.237   8.847 -1.2558  1.3985  0.4485
  359MOL0     H47380   3.539   6.331   8.557 -0.5179 -1.3318  0.2383
  359MOL0     H47381   3.585   6.431   8.686 -2.8026  1.1697 -2.5825
  359MOL0     H47382   3.692   6.157   8.615 -0.2769 -0.6047 -0.3967
  359MOL0     H47383   3.681   6.192   8.788  0.3735  1.9050  0.5448
  359MOL0     H47384   3.801   6.378   8.563  0.8800 -0.1721  0.6337
  359MOL0     H47385   3.807   6.417   8.737  2.9925 -0.7755  1.8973
  359MOL0     H47386   4.106   6.118   8.637  0.9893 -0.0315  1.4398
  359MOL0     H47387   3.122   6.463   8.688  0.5001  0.6372  3.1739
  359MOL0     H47388   2.909   6.376   8.689 -0.9285 -0.2763  0.7441
  360MOL0     O47389   5.638   3.720   2.505  0.8261 -0.3231  0.1659
  360MOL0     C47390   5.680   3.783   2.604  0.4516  0.2721  0.3325
  360MOL0     O47391   5.598   3.829   2.704 -0.1313 -0.0412 -0.0545
  360MOL0     C47392   5.463   3.808   2.679 -0.8538 -0.2454  0.0757
  360MOL0     C47393   5.377   3.917   2.691  0.6191  0.3013 -0.2914
  360MOL0     C47394   5.232   3.903   2.683 -0.4345  0.6993 -0.1227
  360MOL0     C47395   5.182   3.781   2.660  0.2780  0.3658 -1.3814
  360MOL0     O47396   5.043   3.752   2.646 -0.3743  0.4078 -0.1180
  360MOL0     C47397   4.957   3.819   2.739  0.2995 -0.6411  0.3271
  360MOL0     C47398   4.888   3.715   2.822  0.4309  0.3554 -1.0901
  360MOL0     C47399   4.973   3.653   2.934  0.4847  0.4360 -0.0287
  360MOL0     C47400   4.907   3.536   3.004 -0.5940  0.2148  0.2475
  360MOL0     C47401   4.985   3.460   3.109 -0.3067  0.2774 -0.0678
  360MOL0     C47402   4.971   3.535   3.243 -0.0457 -0.0921 -0.2740
  360MOL0     C47403   5.042   3.447   3.347  0.1816 -0.5053 -0.3525
  360MOL0     C47404   5.072   3.511   3.486  0.1191  0.2139  0.7238
  360MOL0     N47405   5.158   3.629   3.485 -0.0027 -0.1336  0.2796
  360MOL0     C47406   5.252   3.661   3.396  0.0072 -0.6637  0.3893
  360MOL0     C47407   5.319   3.767   3.449 -0.0889 -0.4974  0.6318
  360MOL0     C47408   5.432   3.847   3.379 -0.2839  0.5287  0.0295
  360MOL0     C47409   5.571   3.802   3.412  0.5709 -0.4697 -0.2218
  360MOL0     C47410   5.674   3.902   3.358 -0.1810  0.5600 -0.5651
  360MOL0     C47411   5.811   3.852   3.386  0.0972  0.5695 -0.2819
  360MOL0     O47412   5.910   3.932   3.324 -0.1775 -0.1423  1.3236
  360MOL0     C47413   6.025   3.967   3.398 -0.3368 -0.1358  0.8808
  360MOL0     C47414   6.101   3.882   3.470  0.0788 -0.6755 -0.6206
  360MOL0     C47415   6.217   3.934   3.533  0.9748  0.9486  0.2078
  360MOL0     C47416   6.257   4.071   3.528  0.6396 -0.0121  0.9396
  360MOL0     C47417   6.371   4.122   3.603 -0.2709 -0.4547  0.4350
  360MOL0     O47418   6.367   4.259   3.622 -0.1484 -0.6051  0.8456
  360MOL0     C47419   6.472   4.328   3.683  0.2121  0.7911 -0.6313
  360MOL0     C47420   6.442   4.413   3.791 -0.2381 -0.6416 -0.1057
  360MOL0     C47421   6.539   4.479   3.865  0.0825 -0.0785  0.0098
  360MOL0     C47422   6.674   4.470   3.828  0.4083 -0.4908 -0.9293
  360MOL0     O47423   6.772   4.537   3.904 -0.0352  0.6605  0.5843
  360MOL0     C47424   6.732   4.624   4.012  0.0978  0.1136  0.1982
  360MOL0     C47425   6.863   4.702   4.057 -0.0687 -0.3277 -0.7459
  360MOL0     C47426   6.930   4.779   3.944 -0.5013 -0.2101  0.6456
  360MOL0     C47427   7.057   4.836   3.994 -0.2039 -0.7229  0.2656
  360MOL0     C47428   7.117   4.924   3.879 -0.4576 -0.9413 -0.5192
  360MOL0     C47429   7.261   4.955   3.894 -0.5819 -1.0902  0.0682
  360MOL0     C47430   7.315   5.050   3.782  0.8845  0.6338  0.7614
  360MOL0     C47431   7.453   5.108   3.810 -0.1403 -0.1836  0.5583
  360MOL0    Cl47432   7.587   4.996   3.768 -0.3591  0.2891  0.3570
  360MOL0     C47433   6.706   4.394   3.720 -0.2117  0.9280  0.6497
  360MOL0     C47434   6.607   4.324   3.641 -0.7158 -0.2665 -0.1470
  360MOL0     O47435   6.453   4.041   3.651 -0.3411 -0.0675  0.1267
  360MOL0     C47436   6.173   4.153   3.449  0.5653  0.3106 -0.3203
  360MOL0     C47437   6.066   4.101   3.382 -0.8295  0.3236  1.3055
  360MOL0     N47438   5.266   3.795   3.575  0.3294  0.5840  0.2895
  360MOL0     N47439   5.172   3.714   3.593  0.3571  0.4297  0.1336
  360MOL0     C47440   5.272   3.672   2.647 -1.1405 -0.4042  0.7246
  360MOL0     C47441   5.407   3.687   2.668  0.2855  0.6921  0.0526
  360MOL0     C47442   5.825   3.819   2.621 -0.2556  0.1378 -0.6553
  360MOL0     C47443   5.867   3.884   2.731  0.5514 -0.1712 -0.2405
  360MOL0     C47444   6.000   3.916   2.761 -1.2838  0.3533  0.5988
  360MOL0     C47445   6.104   3.880   2.666 -0.2642 -0.6665  0.7174
  360MOL0     O47446   6.234   3.921   2.702 -0.0154 -0.2956  0.2200
  360MOL0     C47447   6.338   3.864   2.623  0.1011  0.6868  0.5365
  360MOL0     C47448   6.469   3.878   2.699  0.2286 -0.0776 -0.0617
  360MOL0     C47449   6.528   4.020   2.692  0.0116 -0.4083 -0.7578
  360MOL0     C47450   6.666   4.021   2.760 -0.7717  0.4717 -0.5368
  360MOL0     C47451   6.708   4.162   2.786 -0.3442  0.3978  0.0032
  360MOL0     C47452   6.728   4.280   2.820 -0.0184 -0.1281  0.8625
  360MOL0     C47453   6.062   3.814   2.547 -0.4015  0.6172  0.0868
  360MOL0     C47454   5.927   3.777   2.528  0.5291 -0.0883  0.5057
  360MOL0     H47455   5.416   4.018   2.698  0.3145  0.3463  1.0126
  360MOL0     H47456   5.168   3.991   2.688 -1.5260 -0.1023  3.9789
  360MOL0     H47457   4.875   3.864   2.682  1.3341  1.5345  0.4521
  360MOL0     H47458   4.998   3.897   2.804 -1.6217  0.5390  0.1996
  360MOL0     H47459   4.842   3.638   2.759 -1.3835 -1.5201  2.2448
  360MOL0     H47460   4.802   3.756   2.877  0.7748  1.9302 -1.6800
  360MOL0     H47461   4.990   3.727   3.013  1.5136 -0.8838  1.0113
  360MOL0     H47462   5.064   3.626   2.880 -1.0163 -1.3615 -1.8151
  360MOL0     H47463   4.810   3.573   3.039 -0.2771  0.3754  0.9583
  360MOL0     H47464   4.888   3.466   2.921 -2.2492  2.0800 -1.0376
  360MOL0     H47465   5.093   3.454   3.090  0.4546 -0.7619  3.5909
  360MOL0     H47466   4.948   3.357   3.108 -0.5712  0.3192  1.5590
  360MOL0     H47467   4.864   3.542   3.263 -0.4865 -3.3399 -0.9100
  360MOL0     H47468   5.021   3.632   3.236  2.1648 -1.1626 -0.2880
  360MOL0     H47469   4.975   3.369   3.384  0.6744  0.8659  3.9247
  360MOL0     H47470   5.135   3.407   3.304  0.0980  0.3388 -1.3577
  360MOL0     H47471   5.112   3.438   3.557  0.0065 -0.5646  0.0055
  360MOL0     H47472   4.980   3.540   3.539 -0.8759 -1.7837  0.1891
  360MOL0     H47473   5.271   3.616   3.299  1.4028  1.4854 -0.4101
  360MOL0     H47474   5.427   3.951   3.413  2.2131  0.7468 -0.1499
  360MOL0     H47475   5.427   3.840   3.270 -1.0639  2.6234 -0.1304
  360MOL0     H47476   5.583   3.701   3.370  0.0804 -0.8267  0.4775
  360MOL0     H47477   5.597   3.782   3.517  1.9162 -1.8267 -0.7623
  360MOL0     H47478   5.669   3.933   3.253 -1.7868  0.9278 -0.4103
  360MOL0     H47479   5.667   3.998   3.409 -2.6031 -0.0376  0.3634
  360MOL0     H47480   5.821   3.750   3.346 -2.2381 -0.2870  1.1156
  360MOL0     H47481   5.811   3.854   3.495 -1.9601  1.6452 -0.2418
  360MOL0     H47482   6.076   3.776   3.475 -6.2906  0.4529 -0.6420
  360MOL0     H47483   6.271   3.857   3.587 -0.5009 -2.6601 -2.9867
  360MOL0     H47484   6.336   4.427   3.808 -0.0680  2.5184 -1.0423
  360MOL0     H47485   6.501   4.535   3.949  0.1318  1.1935 -0.7941
  360MOL0     H47486   6.695   4.567   4.098 -0.5276 -2.4760 -1.6568
  360MOL0     H47487   6.652   4.686   3.972 -0.9431 -2.1682 -1.4555
  360MOL0     H47488   6.927   4.624   4.098  0.3672 -0.2719 -1.3186
  360MOL0     H47489   6.835   4.759   4.147  0.4193 -3.1295  1.3187
  360MOL0     H47490   6.869   4.861   3.906  0.8039  0.4831 -0.0147
  360MOL0     H47491   6.945   4.699   3.871  0.1637  0.6987 -0.2382
  360MOL0     H47492   7.042   4.900   4.081  2.4772 -0.4154  0.5758
  360MOL0     H47493   7.125   4.755   4.022 -1.1171 -1.4993  0.2880
  360MOL0     H47494   7.045   5.006   3.866 -0.4674 -0.9709 -0.6614
  360MOL0     H47495   7.118   4.884   3.777  0.1272  0.3993 -1.0677
  360MOL0     H47496   7.327   4.869   3.907  1.0476  0.1892  0.6588
  360MOL0     H47497   7.265   5.019   3.982 -1.0497  0.9422 -1.3264
  360MOL0     H47498   7.311   4.990   3.690  0.2669 -0.6579  1.6022
  360MOL0     H47499   7.243   5.128   3.756 -0.2658 -0.2101  1.3317
  360MOL0     H47500   7.466   5.126   3.917  2.5561 -3.2447  0.8906
  360MOL0     H47501   7.464   5.202   3.755  0.2407  0.9513  2.5057
  360MOL0     H47502   6.810   4.394   3.689 -0.0981 -0.6234  0.9634
  360MOL0     H47503   6.640   4.253   3.566 -1.0317 -1.0143  0.4102
  360MOL0     H47504   6.201   4.258   3.445  0.5149  0.3760  0.6810
  360MOL0     H47505   5.993   4.151   3.320  0.0694 -0.1291 -0.1772
  360MOL0     H47506   5.234   3.571   2.627 -0.2119 -0.4536 -0.9651
  360MOL0     H47507   5.480   3.606   2.670  1.8875  2.0293  3.2767
  360MOL0     H47508   5.796   3.918   2.806  1.6374  1.3242  0.1532
  360MOL0     H47509   6.038   3.951   2.856 -0.4858 -0.6127  0.6609
  360MOL0     H47510   6.343   3.927   2.534  1.8842 -0.3469 -0.1657
  360MOL0     H47511   6.338   3.760   2.590  0.8250  1.2876 -1.5146
  360MOL0     H47512   6.450   3.840   2.800  0.0017 -1.9329 -0.7681
  360MOL0     H47513   6.541   3.804   2.663 -0.1927 -2.3243  3.2106
  360MOL0     H47514   6.471   4.096   2.746  0.7561 -0.8432  0.7217
  360MOL0     H47515   6.537   4.048   2.587 -0.3010  0.9561 -0.4380
  360MOL0     H47516   6.641   3.974   2.856 -3.4696  3.4749  0.4493
  360MOL0     H47517   6.740   3.964   2.704 -1.5128  1.2594 -2.4118
  360MOL0     H47518   6.771   4.372   2.854 -0.0039 -0.7257  2.5454
  360MOL0     H47519   6.129   3.780   2.468 -0.7602  1.4559 -0.5897
  360MOL0     H47520   5.887   3.718   2.446 -0.1293 -1.7289  1.9387
  361MOL0     O47521   6.680   8.526   5.348 -0.5550 -0.2672  0.5516
  361MOL0     C47522   6.744   8.489   5.248  0.4846  0.3885  0.0658
  361MOL0     O47523   6.709   8.393   5.157  0.8975  0.1062 -0.3713
  361MOL0     C47524   6.585   8.339   5.172 -0.0145 -0.0186  0.1149
  361MOL0     C47525   6.472   8.420   5.161  0.2604 -0.2343  0.1783
  361MOL0     C47526   6.342   8.372   5.169 -0.4498  0.5509  0.0247
  361MOL0     C47527   6.319   8.229   5.199 -0.5087 -0.0644  0.1141
  361MOL0     O47528   6.194   8.167   5.227 -0.3754  0.8975 -0.2781
  361MOL0     C47529   6.089   8.257   5.220 -0.0261 -0.5270 -0.5000
  361MOL0     C47530   5.959   8.172   5.232  0.2912  0.4209  0.2131
  361MOL0     C47531   5.836   8.252   5.199  0.1945  0.1341  0.8917
  361MOL0     C47532   5.717   8.155   5.207  0.3027 -0.3075 -0.4295
  361MOL0     C47533   5.585   8.221   5.151 -0.2610  0.4980  0.6431
  361MOL0     C47534   5.563   8.197   4.999  0.0663  0.0032  0.5255
  361MOL0     C47535   5.447   8.280   4.948  0.0734  0.0049 -0.0113
  361MOL0     C47536   5.450   8.281   4.798 -0.0193 -0.4199  0.4173
  361MOL0     N47537   5.340   8.345   4.724 -0.6354  0.1448 -0.0022
  361MOL0     C47538   5.330   8.475   4.680 -0.7382  0.9246 -0.5310
  361MOL0     C47539   5.201   8.478   4.633  0.3063 -0.1465 -0.8476
  361MOL0     C47540   5.135   8.604   4.585 -0.4382  0.1681 -0.2240
  361MOL0     C47541   4.980   8.596   4.563 -0.0833 -0.3479 -0.9139
  361MOL0     C47542   4.926   8.723   4.489  0.1390  0.5987 -0.0822
  361MOL0     C47543   4.778   8.718   4.498  0.1113 -0.1857 -0.3224
  361MOL0     O47544   4.713   8.679   4.624  0.1658  0.3973 -0.1920
  361MOL0     C47545   4.577   8.694   4.640 -0.4537  0.3763 -0.3619
  361MOL0     C47546   4.488   8.745   4.547 -0.0432 -0.0540 -0.0992
  361MOL0     C47547   4.346   8.757   4.570 -0.0024 -0.2722  0.5184
  361MOL0     C47548   4.285   8.705   4.687 -0.0420 -0.5356  0.5550
  361MOL0     C47549   4.143   8.709   4.707 -0.2801  0.4062  0.2642
  361MOL0     O47550   4.061   8.713   4.595 -0.7695  0.3467 -0.1883
  361MOL0     C47551   3.920   8.713   4.620 -0.9125 -0.8867  0.7894
  361MOL0     C47552   3.830   8.809   4.564  0.8566  0.1813  0.5907
  361MOL0     C47553   3.694   8.800   4.581 -0.6610 -0.2004  0.3877
  361MOL0     C47554   3.636   8.697   4.650  0.3260  0.1697  0.6367
  361MOL0     O47555   3.500   8.678   4.661 -1.2677 -0.1288 -0.3444
  361MOL0     C47556   3.411   8.787   4.639  0.3446  0.5882  0.1810
  361MOL0     C47557   3.269   8.736   4.671 -0.5134  0.3151 -0.6983
  361MOL0     C47558   3.163   8.832   4.603 -0.1200  0.1434  0.4982
  361MOL0     C47559   3.028   8.795   4.654 -0.3036  0.4401 -0.1576
  361MOL0     C47560   2.918   8.883   4.590  0.1285  0.1380  0.0029
  361MOL0     C47561   2.773   8.851   4.622  0.6429 -0.6800  0.3266
  361MOL0     C47562   2.687   8.954   4.553  0.0470  0.3704 -0.2015
  361MOL0     C47563   2.540   8.937   4.599  0.2933  0.2319  0.5726
  361MOL0    Cl47564   2.460   8.804   4.518  0.3516  0.1694  0.0786
  361MOL0     C47565   3.716   8.594   4.700  0.5614  0.4646  0.1137
  361MOL0     C47566   3.853   8.600   4.681 -0.2340 -0.3184 -0.2374
  361MOL0     O47567   4.104   8.700   4.824  0.3334 -0.8447  0.4733
  361MOL0     C47568   4.371   8.659   4.790 -0.1540 -0.3199 -0.1129
  361MOL0     C47569   4.516   8.658   4.759  0.1542 -1.4654 -0.7348
  361MOL0     N47570   5.148   8.357   4.637 -0.3890 -0.5814  0.1033
  361MOL0     N47571   5.231   8.269   4.685 -0.3511  0.3669 -0.2853
  361MOL0     C47572   6.433   8.144   5.194  0.6637  0.0167 -0.1148
  361MOL0     C47573   6.567   8.201   5.174  0.1872  0.2726 -0.1359
  361MOL0     C47574   6.882   8.539   5.241 -0.2556 -0.3798  0.5431
  361MOL0     C47575   6.933   8.639   5.326  1.0264  0.2631 -0.7093
  361MOL0     C47576   7.063   8.685   5.310  0.2754  0.2712  0.0024
  361MOL0     C47577   7.156   8.631   5.224  0.6798 -0.2707 -0.6275
  361MOL0     O47578   7.281   8.681   5.244 -0.3787 -0.7127  0.0736
  361MOL0     C47579   7.380   8.661   5.139  0.4527 -0.8034 -0.6226
  361MOL0     C47580   7.525   8.665   5.197 -0.3761 -0.2082 -0.8761
  361MOL0     C47581   7.644   8.645   5.100  0.0793  0.3618  0.2365
  361MOL0     C47582   7.777   8.622   5.176  0.2158 -0.0086 -0.0627
  361MOL0     C47583   7.895   8.686   5.111  0.4281  0.5430  0.5472
  361MOL0     C47584   7.983   8.753   5.055 -0.4039 -0.2777  0.4593
  361MOL0     C47585   7.106   8.542   5.135  0.3173 -0.3159 -0.5817
  361MOL0     C47586   6.972   8.487   5.145 -0.7425 -0.3663 -0.6523
  361MOL0     H47587   6.481   8.527   5.146  0.0961 -0.0642  1.2577
  361MOL0     H47588   6.263   8.447   5.178 -0.2748  1.0603 -2.0984
  361MOL0     H47589   6.084   8.309   5.124 -5.0073 -0.3306 -0.3580
  361MOL0     H47590   6.094   8.332   5.299  1.7383 -0.3486 -0.7268
  361MOL0     H47591   5.944   8.124   5.329 -1.0489 -1.0621 -0.6930
  361MOL0     H47592   5.965   8.092   5.157 -0.4477  0.0587  0.5404
  361MOL0     H47593   5.848   8.294   5.099  0.7641  0.8731  1.2602
  361MOL0     H47594   5.818   8.343   5.257 -0.8583 -0.2008  1.1181
  361MOL0     H47595   5.748   8.065   5.154  2.6430  0.1877 -0.0138
  361MOL0     H47596   5.699   8.125   5.311  1.5433 -1.2719 -0.4731
  361MOL0     H47597   5.575   8.324   5.187 -1.9571  1.0011 -1.0793
  361MOL0     H47598   5.511   8.159   5.203 -0.7853 -1.6733 -2.4361
  361MOL0     H47599   5.546   8.092   4.975  0.0488 -0.4508  2.3754
  361MOL0     H47600   5.646   8.231   4.936 -0.1057  0.5433  0.5880
  361MOL0     H47601   5.359   8.224   4.980  2.1472 -2.6527  1.4167
  361MOL0     H47602   5.445   8.377   4.999 -0.7963 -1.0615  2.0913
  361MOL0     H47603   5.439   8.176   4.771  2.8386 -0.9147  0.9177
  361MOL0     H47604   5.549   8.314   4.767  0.1583 -1.4729 -0.1816
  361MOL0     H47605   5.409   8.550   4.680 -0.6298  0.8807 -2.7037
  361MOL0     H47606   5.171   8.635   4.486 -1.5999  0.8022 -0.4628
  361MOL0     H47607   5.158   8.690   4.649  0.4566 -0.1181 -0.1426
  361MOL0     H47608   4.934   8.590   4.662 -0.2959 -1.5454 -1.0803
  361MOL0     H47609   4.955   8.507   4.506 -0.0534 -1.2825  0.4759
  361MOL0     H47610   4.969   8.807   4.545  5.5452 -2.0014  0.3760
  361MOL0     H47611   4.958   8.729   4.384  0.7969 -1.8827 -0.0776
  361MOL0     H47612   4.748   8.643   4.424  0.1486 -0.4186 -0.1034
  361MOL0     H47613   4.743   8.818   4.473 -0.8475 -0.1800  0.9599
  361MOL0     H47614   4.528   8.785   4.454  0.5138 -0.8004 -0.1895
  361MOL0     H47615   4.269   8.793   4.503 -0.0929  1.4465  1.4892
  361MOL0     H47616   3.854   8.897   4.505 -1.8318  1.5399  1.3512
  361MOL0     H47617   3.642   8.887   4.544  1.3267  2.2815  2.9837
  361MOL0     H47618   3.412   8.817   4.534  0.0369  0.4577  0.1406
  361MOL0     H47619   3.432   8.871   4.706  3.9664 -1.6386  2.1946
  361MOL0     H47620   3.246   8.746   4.778 -0.4514 -0.0615 -0.6502
  361MOL0     H47621   3.260   8.629   4.650 -1.4507 -0.0935  1.4639
  361MOL0     H47622   3.162   8.821   4.495 -0.2372 -3.0221  0.7437
  361MOL0     H47623   3.175   8.937   4.632  0.6722  0.6878 -1.6254
  361MOL0     H47624   3.011   8.689   4.635  0.0902  0.3873 -0.2314
  361MOL0     H47625   3.020   8.812   4.762 -2.1481  2.0320 -0.4925
  361MOL0     H47626   2.944   8.876   4.484  2.2706  4.0624  0.0702
  361MOL0     H47627   2.953   8.984   4.613 -0.3001  0.2198  0.2919
  361MOL0     H47628   2.763   8.862   4.731  1.0385 -0.1055  0.3109
  361MOL0     H47629   2.744   8.753   4.583  3.2029 -0.0116 -3.8626
  361MOL0     H47630   2.718   9.055   4.582 -0.2796  0.6385 -0.7673
  361MOL0     H47631   2.684   8.942   4.445 -2.9860 -1.3220 -0.0572
  361MOL0     H47632   2.481   9.025   4.574  0.8546 -0.0707 -2.0749
  361MOL0     H47633   2.538   8.918   4.707 -0.2864  0.2215  0.5614
  361MOL0     H47634   3.680   8.509   4.757  0.4423  0.7269  0.4379
  361MOL0     H47635   3.910   8.520   4.727  2.1820  1.7841  0.6960
  361MOL0     H47636   4.332   8.604   4.875 -0.9500 -0.3465 -0.4895
  361MOL0     H47637   4.572   8.619   4.844 -0.5396 -1.7076 -0.3782
  361MOL0     H47638   6.413   8.037   5.203 -1.9290  0.5795  1.9942
  361MOL0     H47639   6.655   8.141   5.152 -0.9210 -0.5850 -2.6587
  361MOL0     H47640   6.866   8.677   5.403  1.3469 -2.3883  1.0059
  361MOL0     H47641   7.094   8.770   5.371 -3.3301  1.1721  0.8084
  361MOL0     H47642   7.365   8.731   5.056 -0.5396 -1.3098 -0.8827
  361MOL0     H47643   7.368   8.561   5.099 -0.3171 -1.4471  1.1122
  361MOL0     H47644   7.532   8.761   5.249 -0.0675 -0.4041 -0.5518
  361MOL0     H47645   7.523   8.589   5.276  1.2866  1.4129  0.8268
  361MOL0     H47646   7.662   8.732   5.037  1.1632 -0.2013 -0.2681
  361MOL0     H47647   7.624   8.560   5.033  1.3941 -0.3868  0.7463
  361MOL0     H47648   7.771   8.666   5.276  1.9068  1.0734 -0.4013
  361MOL0     H47649   7.807   8.517   5.189  0.4585  0.2069  1.2962
  361MOL0     H47650   8.061   8.801   5.000  1.1819 -1.4659  1.5939
  361MOL0     H47651   7.169   8.498   5.058  0.3681 -1.2947 -0.0039
  361MOL0     H47652   6.943   8.412   5.073  0.1543 -2.4193  1.0302
  362MOL0     O47653   5.115   3.170   6.531  0.3177  0.8778 -0.3247
  362MOL0     C47654   5.112   3.086   6.433  0.3095 -0.0820 -0.2106
  362MOL0     O47655   5.021   3.083   6.338 -0.0718  0.7212  0.7228
  362MOL0     C47656   4.935   3.186   6.319  0.1187  0.0729  0.1093
  362MOL0     C47657   4.954   3.326   6.351 -0.2799  0.0235 -0.6114
  362MOL0     C47658   4.856   3.417   6.339 -0.1528  1.0052  0.6607
  362MOL0     C47659   4.728   3.384   6.297 -0.7918  0.6714 -0.3644
  362MOL0     O47660   4.624   3.468   6.297 -0.3165  0.3903  0.0214
  362MOL0     C47661   4.626   3.586   6.370 -0.4353  0.1695 -0.0352
  362MOL0     C47662   4.497   3.663   6.340 -0.5128 -0.7935  0.5242
  362MOL0     C47663   4.385   3.599   6.425 -0.2276 -0.6658 -0.1609
  362MOL0     C47664   4.257   3.669   6.383  0.4478  0.1981  0.4618
  362MOL0     C47665   4.139   3.628   6.471 -0.0325  0.4273  0.1634
  362MOL0     C47666   4.002   3.703   6.455 -0.4691 -0.1956  0.5804
  362MOL0     C47667   3.934   3.675   6.325  0.1122  0.1630 -0.4147
  362MOL0     C47668   3.800   3.749   6.327  0.5049 -1.0220 -0.4576
  362MOL0     N47669   3.710   3.687   6.425 -0.2877  0.1638 -0.6684
  362MOL0     C47670   3.652   3.566   6.406 -0.8942 -0.0937  0.5847
  362MOL0     C47671   3.560   3.551   6.505 -0.1770 -0.2933  0.3950
  362MOL0     C47672   3.466   3.434   6.507  0.2618 -0.4449 -0.3938
  362MOL0     C47673   3.495   3.334   6.621 -0.7638 -0.0218  0.1593
  362MOL0     C47674   3.451   3.395   6.755  0.0877  0.0119 -0.4141
  362MOL0     C47675   3.463   3.301   6.872 -0.6035 -0.0026 -0.5731
  362MOL0     O47676   3.361   3.201   6.859  0.1763 -0.3368 -0.5893
  362MOL0     C47677   3.240   3.222   6.913  0.2137  0.4214 -0.4845
  362MOL0     C47678   3.193   3.338   6.978 -0.9803  1.0409  0.1144
  362MOL0     C47679   3.062   3.340   7.013  0.5275  0.5386  0.0318
  362MOL0     C47680   2.970   3.240   6.986  0.2047  0.1918 -1.0802
  362MOL0     C47681   2.828   3.253   7.031  0.3467  0.3177 -0.6053
  362MOL0     O47682   2.732   3.175   6.978  0.3635 -0.1600 -0.0522
  362MOL0     C47683   2.605   3.183   7.035  0.2964  0.4330 -0.5853
  362MOL0     C47684   2.521   3.295   7.034  0.5120  0.9139  0.2021
  362MOL0     C47685   2.386   3.290   7.084  0.1498 -0.5535  0.0877
  362MOL0     C47686   2.339   3.183   7.142 -0.4268  0.6339  0.2719
  362MOL0     O47687   2.210   3.198   7.183  0.1516  0.0874 -0.4883
  362MOL0     C47688   2.181   3.133   7.308  0.0520 -0.5166  0.6428
  362MOL0     C47689   2.033   3.155   7.326 -0.4725 -0.6160  0.2428
  362MOL0     C47690   2.002   3.293   7.379 -0.0878  0.3487  0.4950
  362MOL0     C47691   1.858   3.289   7.423 -0.4834  0.7426  0.4979
  362MOL0     C47692   1.803   3.426   7.469  0.4239 -0.0210 -0.8922
  362MOL0     C47693   1.656   3.397   7.510  0.3709 -0.5466  0.3124
  362MOL0     C47694   1.584   3.532   7.540 -0.1949  0.5517 -0.8102
  362MOL0     C47695   1.441   3.498   7.589  0.3449  0.1729  0.1440
  362MOL0    Cl47696   1.355   3.629   7.670  0.0290 -0.3532  0.1148
  362MOL0     C47697   2.424   3.071   7.148  0.4468 -0.0226 -0.1121
  362MOL0     C47698   2.556   3.071   7.097 -0.2724  0.1066  0.8684
  362MOL0     O47699   2.812   3.341   7.113  0.0281 -0.6735 -0.6558
  362MOL0     C47700   3.019   3.123   6.936 -0.1548 -0.4024  0.2423
  362MOL0     C47701   3.154   3.116   6.889 -0.1339 -0.3142 -0.0325
  362MOL0     N47702   3.556   3.669   6.571  0.6608 -0.8622 -0.9747
  362MOL0     N47703   3.642   3.755   6.521  0.1686 -0.5718 -0.4096
  362MOL0     C47704   4.708   3.249   6.257  0.4115  0.3800  0.5435
  362MOL0     C47705   4.811   3.152   6.266 -0.4921 -0.1116 -0.2061
  362MOL0     C47706   5.217   2.981   6.431 -1.1622 -0.0370 -0.4729
  362MOL0     C47707   5.304   2.954   6.546  0.1046  0.1759 -0.6327
  362MOL0     C47708   5.393   2.846   6.547  0.2890 -0.2867 -0.4081
  362MOL0     C47709   5.420   2.783   6.429 -1.1504 -0.0900  0.2612
  362MOL0     O47710   5.509   2.678   6.431  0.8131 -0.8018  0.4594
  362MOL0     C47711   5.529   2.579   6.334 -0.0796  0.3307 -0.1599
  362MOL0     C47712   5.663   2.600   6.269 -0.4831 -0.5130  0.0164
  362MOL0     C47713   5.773   2.542   6.368  0.8717  0.2558  0.4600
  362MOL0     C47714   5.905   2.589   6.321 -0.0043  0.0753  0.2942
  362MOL0     C47715   6.004   2.528   6.401 -0.2046  0.6658 -0.0672
  362MOL0     C47716   6.080   2.470   6.479  0.3853 -0.1203  0.1234
  362MOL0     C47717   5.339   2.815   6.319 -0.1863 -0.1890  0.8906
  362MOL0     C47718   5.238   2.905   6.318 -0.2032  0.9616  0.0552
  362MOL0     H47719   5.055   3.351   6.384  0.8263 -0.5809 -3.2158
  362MOL0     H47720   4.866   3.523   6.356  1.1492  1.3421 -1.8037
  362MOL0     H47721   4.707   3.649   6.333 -0.5011 -0.3023 -1.0272
  362MOL0     H47722   4.635   3.569   6.477 -0.4794  2.3863  0.3691
  362MOL0     H47723   4.488   3.655   6.231  0.0118 -3.5553  0.6107
  362MOL0     H47724   4.524   3.764   6.368 -1.4418 -0.3447 -0.1267
  362MOL0     H47725   4.407   3.607   6.532  1.0580 -0.7022 -0.4167
  362MOL0     H47726   4.375   3.491   6.411  1.7811 -0.9168  0.1247
  362MOL0     H47727   4.259   3.778   6.393 -1.2384  0.0614  3.6166
  362MOL0     H47728   4.230   3.638   6.281 -1.6995 -0.4859  1.1690
  362MOL0     H47729   4.174   3.640   6.574 -2.0220  1.4510  0.7509
  362MOL0     H47730   4.116   3.521   6.477  1.3993  0.1175  0.6676
  362MOL0     H47731   4.007   3.812   6.462 -2.7274 -0.0543  1.0300
  362MOL0     H47732   3.943   3.680   6.545 -4.1334 -0.2518 -1.5973
  362MOL0     H47733   3.991   3.711   6.238 -1.5572  2.7849 -0.5573
  362MOL0     H47734   3.914   3.568   6.327  0.9711 -0.0218 -0.9561
  362MOL0     H47735   3.760   3.761   6.227 -1.5875  0.9011  0.5288
  362MOL0     H47736   3.816   3.847   6.375 -0.5186 -1.6614  1.3030
  362MOL0     H47737   3.671   3.495   6.326 -1.3438  2.5955 -2.0961
  362MOL0     H47738   3.481   3.376   6.416 -0.1532 -1.5260  0.1975
  362MOL0     H47739   3.362   3.466   6.516  1.5363  3.9639  1.9857
  362MOL0     H47740   3.604   3.326   6.616 -0.6084  2.0435 -0.2288
  362MOL0     H47741   3.447   3.242   6.585 -0.3623  0.3698 -1.4494
  362MOL0     H47742   3.516   3.478   6.782  1.0786  0.0116 -2.5504
  362MOL0     H47743   3.354   3.447   6.754  0.7611  1.3237 -1.5615
  362MOL0     H47744   3.461   3.353   6.969 -0.5038 -1.5111  0.2690
  362MOL0     H47745   3.562   3.255   6.870  0.9480  3.0415  0.5724
  362MOL0     H47746   3.254   3.424   7.006  0.6076  0.1322 -0.4590
  362MOL0     H47747   3.025   3.429   7.063  2.4079  1.2264  0.3030
  362MOL0     H47748   2.556   3.384   6.984  0.4986 -0.5656 -2.6371
  362MOL0     H47749   2.324   3.379   7.078  2.0458  0.7020 -3.6395
  362MOL0     H47750   2.240   3.183   7.385 -1.2500  0.2093  1.2181
  362MOL0     H47751   2.208   3.027   7.307 -1.8805 -1.0535  0.4211
  362MOL0     H47752   2.005   3.081   7.402 -1.0531 -0.0284  0.6097
  362MOL0     H47753   1.981   3.120   7.237 -0.6395  1.4031 -0.5008
  362MOL0     H47754   2.010   3.371   7.302 -2.4712 -1.1116 -1.3907
  362MOL0     H47755   2.063   3.320   7.465 -0.2462  1.6456  0.2272
  362MOL0     H47756   1.801   3.243   7.341  0.0834 -0.6277  0.8375
  362MOL0     H47757   1.842   3.211   7.498 -1.1674 -1.6281 -1.9310
  362MOL0     H47758   1.804   3.503   7.391 -1.9276 -0.7394 -1.7032
  362MOL0     H47759   1.859   3.451   7.559 -2.0995 -0.9465  1.0427
  362MOL0     H47760   1.644   3.327   7.593 -1.6162  0.9696  1.3956
  362MOL0     H47761   1.601   3.355   7.425  3.5364  0.5205 -2.4894
  362MOL0     H47762   1.631   3.592   7.618 -0.7752 -0.1840  0.1303
  362MOL0     H47763   1.580   3.588   7.445  1.2137 -0.9091 -1.7884
  362MOL0     H47764   1.444   3.408   7.652  0.7077 -0.3497 -0.6034
  362MOL0     H47765   1.394   3.472   7.494  3.5353 -2.7762 -0.8490
  362MOL0     H47766   2.379   2.982   7.191 -1.1040  0.2567 -1.0706
  362MOL0     H47767   2.621   2.985   7.104  1.2838  0.9117 -1.9360
  362MOL0     H47768   2.968   3.027   6.935  2.2014 -1.7367 -0.6080
  362MOL0     H47769   3.197   3.023   6.854  3.2675  0.8449  0.6913
  362MOL0     H47770   4.614   3.219   6.214  0.0842  2.7241 -0.5156
  362MOL0     H47771   4.801   3.047   6.243  0.3487  0.1327 -1.8669
  362MOL0     H47772   5.286   3.007   6.639 -1.2057 -0.3393 -0.5812
  362MOL0     H47773   5.451   2.842   6.638  0.5024 -0.7564 -0.5627
  362MOL0     H47774   5.449   2.563   6.261 -0.1499 -1.3102  0.2356
  362MOL0     H47775   5.532   2.491   6.398 -0.7189  2.0220  2.3078
  362MOL0     H47776   5.671   2.555   6.170  4.0168  1.5704 -0.8255
  362MOL0     H47777   5.695   2.702   6.247  1.0929 -1.5519 -3.2021
  362MOL0     H47778   5.765   2.433   6.375  2.0326  0.1560  0.3636
  362MOL0     H47779   5.752   2.581   6.468 -0.6179 -0.7175  0.5553
  362MOL0     H47780   5.917   2.563   6.216  0.0232  1.3184 -0.0260
  362MOL0     H47781   5.909   2.698   6.328  3.3072  0.0205  0.8262
  362MOL0     H47782   6.134   2.437   6.566  0.5071  2.3998  1.0914
  362MOL0     H47783   5.343   2.747   6.234  1.6217 -0.5165  1.1834
  362MOL0     H47784   5.169   2.921   6.236  0.6392  1.0747 -0.6391
  363MOL0     O47785   5.257   8.249   1.818 -0.5828 -0.1055 -0.2147
  363MOL0     C47786   5.278   8.205   1.703  0.4290  0.0331  0.8441
  363MOL0     O47787   5.179   8.176   1.606 -0.1663  0.0567  0.4521
  363MOL0     C47788   5.047   8.197   1.625 -0.3419 -0.0494  0.7705
  363MOL0     C47789   4.976   8.199   1.743 -0.5705 -0.2011  0.4766
  363MOL0     C47790   4.841   8.238   1.736  0.8483 -0.4705 -0.9590
  363MOL0     C47791   4.780   8.265   1.619  1.4275 -0.2105 -0.5462
  363MOL0     O47792   4.645   8.310   1.616  0.9434  0.1936  0.7198
  363MOL0     C47793   4.573   8.339   1.742 -0.0349 -0.5790 -0.7665
  363MOL0     C47794   4.436   8.400   1.705 -0.5492 -0.7212 -0.3879
  363MOL0     C47795   4.312   8.379   1.802 -0.7651  0.2396 -0.1217
  363MOL0     C47796   4.194   8.428   1.725  0.3269 -0.3509 -0.9939
  363MOL0     C47797   4.076   8.443   1.828  1.5054 -0.6900 -0.2301
  363MOL0     C47798   3.953   8.505   1.755 -0.0377 -0.3195 -0.0309
  363MOL0     C47799   3.835   8.514   1.842  0.6386 -0.0119 -0.7099
  363MOL0     C47800   3.708   8.499   1.763 -0.2055  0.8809 -0.1327
  363MOL0     N47801   3.592   8.483   1.851  0.3042 -1.2031 -0.5775
  363MOL0     C47802   3.474   8.553   1.858  0.3323  0.7391 -0.0990
  363MOL0     C47803   3.392   8.486   1.938 -0.7568 -0.1027 -0.8067
  363MOL0     C47804   3.260   8.516   1.982  0.9050 -0.9000  0.5386
  363MOL0     C47805   3.270   8.616   2.096  0.3575  0.5326 -0.7385
  363MOL0     C47806   3.134   8.681   2.135 -0.7271  0.0179  0.2554
  363MOL0     C47807   3.032   8.583   2.181  0.3270  0.2602 -0.3939
  363MOL0     O47808   2.913   8.658   2.199  0.0471  0.1930 -0.2754
  363MOL0     C47809   2.803   8.577   2.231  0.0860 -0.6786  0.0777
  363MOL0     C47810   2.807   8.445   2.291  0.0698 -0.4571  0.1460
  363MOL0     C47811   2.688   8.377   2.297  0.5132 -0.1050 -0.3443
  363MOL0     C47812   2.568   8.429   2.239  0.4755 -0.2315 -0.3266
  363MOL0     C47813   2.446   8.342   2.239  0.8648  0.3320  0.5669
  363MOL0     O47814   2.452   8.209   2.264  0.0111 -0.2751 -0.0304
  363MOL0     C47815   2.343   8.125   2.253  0.4427 -0.7546  0.0685
  363MOL0     C47816   2.351   8.010   2.323 -0.9011 -0.2465 -0.1049
  363MOL0     C47817   2.245   7.919   2.319 -1.0254  0.7181 -0.7765
  363MOL0     C47818   2.136   7.939   2.232  0.1876  0.2298  0.6282
  363MOL0     O47819   2.048   7.842   2.212  0.0322  0.2093 -0.2987
  363MOL0     C47820   2.074   7.744   2.112  0.1988 -0.1226 -0.4105
  363MOL0     C47821   1.951   7.713   2.030 -0.1415  0.3331  0.6169
  363MOL0     C47822   1.829   7.663   2.114 -0.1869  0.1591  1.1283
  363MOL0     C47823   1.683   7.661   2.046  0.0477 -0.0008  0.0684
  363MOL0     C47824   1.571   7.641   2.148  0.2691  0.3665  0.3898
  363MOL0     C47825   1.447   7.679   2.074  0.7963 -0.2332 -0.1354
  363MOL0     C47826   1.319   7.613   2.131 -0.1904  0.0312  0.2905
  363MOL0     C47827   1.325   7.465   2.152 -0.4836 -0.1722  0.5873
  363MOL0    Cl47828   1.160   7.386   2.163 -0.3979  0.0251 -0.2629
  363MOL0     C47829   2.128   8.051   2.152  0.2124 -1.0518 -0.4477
  363MOL0     C47830   2.230   8.142   2.166 -0.5849 -0.2587  0.1856
  363MOL0     O47831   2.342   8.406   2.220 -0.1859 -0.0192 -0.4638
  363MOL0     C47832   2.569   8.557   2.194  0.1774 -0.5960 -0.7354
  363MOL0     C47833   2.687   8.632   2.189  0.2854  0.2924  0.3278
  363MOL0     N47834   3.460   8.367   1.986 -0.2100 -0.6428  0.7560
  363MOL0     N47835   3.577   8.371   1.925  0.3332 -0.2426 -0.0715
  363MOL0     C47836   4.850   8.250   1.499  0.4183 -0.2587 -0.4032
  363MOL0     C47837   4.979   8.213   1.503  0.3196  0.1638  0.2487
  363MOL0     C47838   5.419   8.177   1.669 -0.1944  0.3300  0.6949
  363MOL0     C47839   5.521   8.200   1.761  0.7035 -0.0618 -0.4773
  363MOL0     C47840   5.649   8.194   1.719 -0.3233  0.2283 -0.8789
  363MOL0     C47841   5.680   8.163   1.589 -0.2165  0.4157 -0.4850
  363MOL0     O47842   5.810   8.162   1.536 -0.1112  0.4690  0.4863
  363MOL0     C47843   5.918   8.207   1.620  0.2017 -0.2822 -0.2210
  363MOL0     C47844   6.045   8.176   1.555 -0.8656  0.6172  0.0768
  363MOL0     C47845   6.070   8.279   1.445  0.2915  0.5967  0.6071
  363MOL0     C47846   6.197   8.259   1.366  0.1406 -0.3678 -0.0347
  363MOL0     C47847   6.223   8.372   1.276  0.6107  0.3676  0.1303
  363MOL0     C47848   6.245   8.471   1.207  0.2359 -0.3372 -0.9410
  363MOL0     C47849   5.584   8.107   1.503  0.1471  1.0189 -0.0202
  363MOL0     C47850   5.450   8.120   1.545  0.3967  0.9606  0.0580
  363MOL0     H47851   5.016   8.189   1.843  0.8784 -0.3954 -0.0974
  363MOL0     H47852   4.791   8.256   1.831  0.2696  2.9634 -1.7946
  363MOL0     H47853   4.630   8.410   1.802  0.7160 -2.9538  1.5384
  363MOL0     H47854   4.573   8.253   1.809  1.3067  1.1664  1.6298
  363MOL0     H47855   4.398   8.344   1.619 -2.7263  0.3249 -0.1785
  363MOL0     H47856   4.457   8.500   1.665  0.9930 -0.8183  0.1326
  363MOL0     H47857   4.323   8.436   1.894  1.1448 -0.1877 -0.0490
  363MOL0     H47858   4.296   8.279   1.842 -0.2625  0.8502  1.6722
  363MOL0     H47859   4.222   8.523   1.680 -0.2179 -0.3023 -1.2372
  363MOL0     H47860   4.166   8.362   1.643 -1.8512  0.9277 -1.3388
  363MOL0     H47861   4.110   8.518   1.899  1.8120 -0.4107 -0.6645
  363MOL0     H47862   4.045   8.349   1.873 -0.3756 -1.6378 -3.1595
  363MOL0     H47863   3.925   8.446   1.668 -1.1030 -0.6010  0.4879
  363MOL0     H47864   3.978   8.597   1.701  0.2120 -1.5174 -2.0426
  363MOL0     H47865   3.833   8.435   1.917 -1.5781 -0.0612 -0.7526
  363MOL0     H47866   3.840   8.609   1.895  1.2072  0.2624 -1.2405
  363MOL0     H47867   3.726   8.418   1.691  0.8418  3.7362 -3.3590
  363MOL0     H47868   3.696   8.584   1.694 -3.5530  1.1561  0.6590
  363MOL0     H47869   3.448   8.644   1.804 -0.1194  0.5982 -0.1170
  363MOL0     H47870   3.201   8.427   2.006  0.7482 -2.1988 -3.8093
  363MOL0     H47871   3.211   8.571   1.902 -0.7344 -1.3431  1.2055
  363MOL0     H47872   3.337   8.700   2.075 -1.1782  2.1227  0.3471
  363MOL0     H47873   3.301   8.561   2.184  0.0517  0.0034 -0.9541
  363MOL0     H47874   3.151   8.760   2.210 -1.3911  1.1349 -0.7310
  363MOL0     H47875   3.087   8.728   2.048 -0.8940  1.7737  1.2367
  363MOL0     H47876   3.066   8.525   2.268 -3.6100  1.2220  2.0677
  363MOL0     H47877   3.003   8.519   2.097  1.5697  2.2235 -2.4062
  363MOL0     H47878   2.891   8.396   2.340  0.9819  1.0305  0.1186
  363MOL0     H47879   2.692   8.273   2.329 -2.2125  0.3357  1.8072
  363MOL0     H47880   2.434   8.002   2.393 -0.3448  2.3644 -0.3495
  363MOL0     H47881   2.262   7.833   2.383  1.3684  1.7149  0.0322
  363MOL0     H47882   2.120   7.659   2.163  3.0229  2.7569  2.3281
  363MOL0     H47883   2.151   7.770   2.038  1.4908  1.6319  1.4342
  363MOL0     H47884   1.971   7.647   1.946 -0.9859  0.3119  0.4258
  363MOL0     H47885   1.911   7.807   1.993 -1.4052  1.4403  4.3729
  363MOL0     H47886   1.821   7.714   2.210  0.3720  0.4288  1.0324
  363MOL0     H47887   1.859   7.561   2.140  0.0166 -0.3643 -0.9594
  363MOL0     H47888   1.667   7.761   2.005 -3.2856 -0.1548  0.7236
  363MOL0     H47889   1.694   7.583   1.970  2.1233  1.1585 -0.9137
  363MOL0     H47890   1.583   7.698   2.241  0.4234  2.1343 -0.6653
  363MOL0     H47891   1.580   7.538   2.182  1.7966  0.3735  0.0816
  363MOL0     H47892   1.456   7.639   1.972  3.6081  2.7812 -1.2577
  363MOL0     H47893   1.434   7.787   2.063 -0.9325 -0.0868  2.5694
  363MOL0     H47894   1.302   7.670   2.223  2.7166  1.9301 -0.2186
  363MOL0     H47895   1.232   7.640   2.070 -0.1674  0.0890  0.2825
  363MOL0     H47896   1.368   7.443   2.250  0.2997 -0.2911  0.2265
  363MOL0     H47897   1.392   7.418   2.079  1.5527  0.6415  1.8347
  363MOL0     H47898   2.048   8.071   2.081  0.8637 -2.3543 -1.6044
  363MOL0     H47899   2.223   8.234   2.108 -1.9285 -1.1509 -1.1749
  363MOL0     H47900   2.483   8.609   2.152  0.6433  0.4026 -0.4951
  363MOL0     H47901   2.700   8.736   2.161 -0.0197  0.8274  2.1051
  363MOL0     H47902   4.798   8.260   1.404 -1.0341  3.2324  0.5979
  363MOL0     H47903   5.035   8.211   1.410 -0.6834  1.2253 -0.3954
  363MOL0     H47904   5.503   8.220   1.867  1.6654  1.5806 -0.5825
  363MOL0     H47905   5.729   8.215   1.789 -0.5328  0.3489 -0.6722
  363MOL0     H47906   5.917   8.157   1.717 -2.1247  0.6039  0.2501
  363MOL0     H47907   5.912   8.315   1.634  1.4593  0.0980 -2.1796
  363MOL0     H47908   6.124   8.198   1.627 -1.9720 -1.3173  2.0044
  363MOL0     H47909   6.050   8.072   1.521  1.1160  1.2018 -1.5611
  363MOL0     H47910   6.070   8.384   1.476  0.0847  1.5054 -2.1794
  363MOL0     H47911   5.989   8.263   1.374  0.7333  0.1918  0.1844
  363MOL0     H47912   6.280   8.252   1.438 -0.4542 -0.4508  0.6515
  363MOL0     H47913   6.190   8.165   1.312 -0.0485  0.1349 -0.9001
  363MOL0     H47914   6.264   8.557   1.146 -0.7943 -0.4129 -1.3828
  363MOL0     H47915   5.608   8.069   1.404  0.1617  1.6445 -0.2643
  363MOL0     H47916   5.368   8.083   1.483 -0.9142  3.9197 -0.1535
  364MOL0     O47917  10.914   0.869   0.046  0.1035  0.1744 -0.0948
  364MOL0     C47918  11.000   0.797   0.006 -0.2587 -0.2185 -0.1702
  364MOL0     O47919  10.989   0.659  -0.009 -0.1538 -1.1434  0.1499
  364MOL0     C47920  10.861   0.602   0.001 -0.0888 -0.1109  0.7324
  364MOL0     C47921  10.815   0.541   0.118  0.4572 -0.1715 -0.3461
  364MOL0     C47922  10.690   0.470   0.119 -0.5287  0.1044  0.1016
  364MOL0     C47923  10.618   0.462   0.000  0.6505  0.0542  0.3407
  364MOL0     O47924  10.492   0.392   0.018  0.0625 -0.0073  0.2527
  364MOL0     C47925  10.408   0.394  -0.097 -0.4331  0.1741 -0.2814
  364MOL0     C47926  10.285   0.304  -0.065 -0.3322  1.1313  0.6810
  364MOL0     C47927  10.184   0.321  -0.177  0.6417  0.5953  0.7227
  364MOL0     C47928  10.067   0.210  -0.160 -0.2526  0.6800  0.0173
  364MOL0     C47929   9.951   0.231  -0.261 -0.8538  0.6547 -0.2414
  364MOL0     C47930   9.864   0.331  -0.213  0.8042 -0.0177 -0.1338
  364MOL0     C47931   9.743   0.346  -0.310  0.5105  0.4813 -0.3296
  364MOL0     C47932   9.639   0.232  -0.310 -0.3156  0.9145 -0.4902
  364MOL0     N47933   9.524   0.271  -0.392  0.4126  0.2881 -0.3175
  364MOL0     C47934   9.423   0.354  -0.350  0.0823  0.3249  0.3419
  364MOL0     C47935   9.313   0.315  -0.416  0.6003 -0.2105 -0.7686
  364MOL0     C47936   9.179   0.379  -0.393 -0.0544  0.6959 -0.1248
  364MOL0     C47937   9.079   0.365  -0.509  0.1582  0.0233 -0.1701
  364MOL0     C47938   8.950   0.448  -0.487 -0.6504 -0.0356  1.1818
  364MOL0     C47939   8.829   0.416  -0.580 -1.0609  0.2562 -0.0009
  364MOL0     O47940   8.780   0.286  -0.553 -0.4303 -0.1947  0.3291
  364MOL0     C47941   8.644   0.267  -0.569 -0.2667  0.1984  0.6557
  364MOL0     C47942   8.576   0.179  -0.493 -0.8092  0.1432 -0.3020
  364MOL0     C47943   8.444   0.149  -0.498 -0.2477 -0.3847  0.0153
  364MOL0     C47944   8.364   0.211  -0.595 -0.2286 -0.2729 -0.2690
  364MOL0     C47945   8.214   0.186  -0.599 -0.2061  0.2424  0.1015
  364MOL0     O47946   8.143   0.283  -0.657 -0.0748 -0.7342  0.1009
  364MOL0     C47947   8.007   0.301  -0.642  0.0496 -0.1735  0.2686
  364MOL0     C47948   7.959   0.423  -0.605 -0.6898  0.2923  0.0147
  364MOL0     C47949   7.825   0.440  -0.557 -0.2199  0.7347 -0.6677
  364MOL0     C47950   7.727   0.335  -0.568 -0.2155  0.1360 -0.4773
  364MOL0     O47951   7.594   0.335  -0.527 -0.0594 -0.1637 -0.0395
  364MOL0     C47952   7.538   0.460  -0.498 -0.2430  0.3527  0.7780
  364MOL0     C47953   7.541   0.490  -0.342 -0.0601  0.3777  0.6290
  364MOL0     C47954   7.464   0.622  -0.317 -0.5121  0.0936 -0.0743
  364MOL0     C47955   7.507   0.685  -0.188 -0.4709  0.6514  0.1328
  364MOL0     C47956   7.455   0.825  -0.172 -0.9704  0.0230  0.0849
  364MOL0     C47957   7.305   0.855  -0.182  0.2888 -0.1655 -0.4549
  364MOL0     C47958   7.276   1.006  -0.155  0.7226 -0.0180 -0.3776
  364MOL0     C47959   7.129   1.028  -0.158 -0.0777 -0.2809 -0.3642
  364MOL0    Cl47960   7.072   1.196  -0.169  0.4306  0.4561 -0.4284
  364MOL0     C47961   7.782   0.213  -0.619  0.4282 -1.1658  0.4875
  364MOL0     C47962   7.919   0.199  -0.653  0.1871  0.0304  0.0859
  364MOL0     O47963   8.165   0.078  -0.559 -0.2474  0.0155  0.0728
  364MOL0     C47964   8.431   0.305  -0.674 -0.1248 -0.5209  0.8494
  364MOL0     C47965   8.569   0.327  -0.663  0.4218 -0.0497  0.0990
  364MOL0     N47966   9.352   0.221  -0.510 -0.1088  0.5057 -0.6057
  364MOL0     N47967   9.475   0.189  -0.498  0.2274  0.4923  0.6616
  364MOL0     C47968  10.669   0.515  -0.127 -0.5023  0.8325 -0.7604
  364MOL0     C47969  10.788   0.584  -0.120 -0.1228  0.2599  0.0151
  364MOL0     C47970  11.140   0.857  -0.015  0.8120 -0.7226 -0.3169
  364MOL0     C47971  11.159   0.996   0.015 -0.1681 -0.6557 -0.1598
  364MOL0     C47972  11.287   1.053   0.014  0.4703 -0.3215 -0.4953
  364MOL0     C47973  11.402   0.973  -0.010  0.6212  0.2121 -0.3473
  364MOL0     O47974  11.528   1.018   0.001  0.3508 -0.2994  0.0259
  364MOL0     C47975  11.551   1.154   0.045  0.2763  0.9673  0.5576
  364MOL0     C47976  11.705   1.173   0.053 -0.6384 -0.6025 -0.6851
  364MOL0     C47977  11.748   1.324   0.077 -0.2616  0.6427  0.9938
  364MOL0     C47978  11.893   1.302   0.126  0.7255  0.1766 -0.2221
  364MOL0     C47979  11.980   1.272   0.013  0.0104 -0.2035  0.7445
  364MOL0     C47980  12.050   1.253  -0.079  0.1668 -0.3979  0.2195
  364MOL0     C47981  11.377   0.836  -0.051  0.6615  0.5663 -0.6978
  364MOL0     C47982  11.251   0.774  -0.044  0.1086  0.0600  0.1399
  364MOL0     H47983  10.868   0.553   0.212 -0.3387  4.4558 -0.2472
  364MOL0     H47984  10.641   0.425   0.205 -4.5145  0.4949 -1.7231
  364MOL0     H47985  10.461   0.364  -0.188 -0.7782  1.2582 -0.8533
  364MOL0     H47986  10.362   0.492  -0.111  0.1416  0.3947 -0.6653
  364MOL0     H47987  10.236   0.333   0.029  1.2561  0.5719  1.7184
  364MOL0     H47988  10.318   0.200  -0.061  0.1236  1.2069 -0.6652
  364MOL0     H47989  10.223   0.309  -0.278  0.0329 -3.2355  0.7863
  364MOL0     H47990  10.138   0.419  -0.162 -1.6325 -0.2737 -0.2388
  364MOL0     H47991  10.104   0.107  -0.172  0.4551  0.7770  1.2100
  364MOL0     H47992  10.029   0.209  -0.057  1.4542  1.2783  0.6888
  364MOL0     H47993   9.896   0.137  -0.265  0.9675 -0.5755  1.7970
  364MOL0     H47994   9.997   0.249  -0.358  0.6867 -3.3348 -0.4282
  364MOL0     H47995   9.913   0.428  -0.198  1.7483 -0.6620  1.1391
  364MOL0     H47996   9.838   0.315  -0.108  0.4907  1.7452  0.0994
  364MOL0     H47997   9.698   0.441  -0.278  0.8078  1.2543 -2.0941
  364MOL0     H47998   9.781   0.363  -0.411  1.8348  0.8324  0.2145
  364MOL0     H47999   9.599   0.207  -0.211 -3.9122  4.5864 -0.7480
  364MOL0     H48000   9.685   0.147  -0.361 -0.8863 -1.2781  2.3529
  364MOL0     H48001   9.428   0.420  -0.264 -1.9292 -0.9046  1.4625
  364MOL0     H48002   9.185   0.487  -0.377  0.8035  0.7872 -1.0313
  364MOL0     H48003   9.133   0.341  -0.301  0.5730  0.4997  0.1112
  364MOL0     H48004   9.044   0.262  -0.521 -0.4144  0.2391 -0.4016
  364MOL0     H48005   9.119   0.399  -0.605 -0.3078 -2.4469 -1.3320
  364MOL0     H48006   8.920   0.443  -0.381  0.9066 -3.4310  1.5946
  364MOL0     H48007   8.965   0.555  -0.502 -2.5395  0.1159  0.0885
  364MOL0     H48008   8.868   0.424  -0.682 -1.1814 -0.5379 -0.1169
  364MOL0     H48009   8.751   0.491  -0.566 -3.6784 -2.1792 -0.5421
  364MOL0     H48010   8.639   0.136  -0.415 -1.9120 -0.1717  0.4335
  364MOL0     H48011   8.393   0.077  -0.435  0.8755 -0.4621  0.8532
  364MOL0     H48012   8.042   0.493  -0.602  0.1585 -0.7070  0.8426
  364MOL0     H48013   7.795   0.534  -0.512  1.2872  0.8324  0.2168
  364MOL0     H48014   7.434   0.454  -0.531  0.6940  0.0769 -2.4234
  364MOL0     H48015   7.576   0.544  -0.556 -0.8106  0.2028  0.1852
  364MOL0     H48016   7.642   0.504  -0.302  0.2183  0.0965  0.0286
  364MOL0     H48017   7.499   0.401  -0.293 -1.2960  0.3063 -0.5054
  364MOL0     H48018   7.357   0.603  -0.303 -0.5713  1.6623  2.1329
  364MOL0     H48019   7.472   0.688  -0.404  1.4090 -2.4927 -2.0059
  364MOL0     H48020   7.471   0.629  -0.101 -1.1220 -3.8426 -2.6906
  364MOL0     H48021   7.616   0.684  -0.192 -0.5146 -0.7299 -1.9640
  364MOL0     H48022   7.511   0.877  -0.250 -2.1340 -0.2563 -0.9637
  364MOL0     H48023   7.485   0.854  -0.071  1.6564  0.0422 -0.6124
  364MOL0     H48024   7.259   0.798  -0.101  0.0571  1.6193  0.7311
  364MOL0     H48025   7.265   0.825  -0.279 -1.1514  0.7702 -0.1907
  364MOL0     H48026   7.301   1.030  -0.051 -2.2932 -0.4384  0.5530
  364MOL0     H48027   7.329   1.067  -0.229  1.8959 -1.5920 -0.8767
  364MOL0     H48028   7.087   0.977  -0.070 -4.0194  1.9428 -0.7071
  364MOL0     H48029   7.086   0.975  -0.243 -0.1026  0.5975 -0.9069
  364MOL0     H48030   7.727   0.121  -0.636  0.2724 -0.8038 -1.1303
  364MOL0     H48031   7.964   0.108  -0.692 -0.4087 -0.1339 -0.2180
  364MOL0     H48032   8.382   0.367  -0.749 -0.5434 -0.7547  0.9280
  364MOL0     H48033   8.623   0.394  -0.729  0.6435  0.9281  1.2325
  364MOL0     H48034  10.617   0.503  -0.221  1.0137  1.0669 -1.6496
  364MOL0     H48035  10.834   0.609  -0.215 -0.3331  1.2401  0.1526
  364MOL0     H48036  11.079   1.058   0.053  1.9774  1.1980  1.5651
  364MOL0     H48037  11.294   1.157   0.043 -1.4953 -0.2837 -0.0181
  364MOL0     H48038  11.496   1.186   0.135 -2.3451  0.3228 -0.7132
  364MOL0     H48039  11.520   1.218  -0.038  1.5553 -1.0833 -1.6142
  364MOL0     H48040  11.737   1.104   0.132  2.7331  0.6850 -0.7905
  364MOL0     H48041  11.752   1.131  -0.036  0.9784 -2.4838  0.9782
  364MOL0     H48042  11.690   1.371   0.157 -1.9129  1.8240 -0.8209
  364MOL0     H48043  11.758   1.385  -0.013 -0.6572 -0.4280  0.2098
  364MOL0     H48044  11.925   1.392   0.180 -0.1817 -0.3207  1.2107
  364MOL0     H48045  11.901   1.225   0.204  0.6442  0.2913 -0.0999
  364MOL0     H48046  12.129   1.253  -0.152 -0.8970  0.8503 -0.9953
  364MOL0     H48047  11.459   0.766  -0.062 -1.3056 -2.8909  3.5458
  364MOL0     H48048  11.252   0.665  -0.040  0.5497  0.0881  1.2972
  365MOL0     O48049   0.117   6.594   7.214 -0.7922 -0.2180 -0.1427
  365MOL0     C48050   0.155   6.710   7.243  0.1291  0.9457  0.1035
  365MOL0     O48051   0.081   6.827   7.242  0.2513 -0.4079 -0.3083
  365MOL0     C48052  -0.029   6.814   7.162 -0.4628  0.7779 -1.0149
  365MOL0     C48053  -0.159   6.808   7.224 -0.2718  0.3466 -0.7484
  365MOL0     C48054  -0.270   6.810   7.148  0.0297  0.2121 -0.3183
  365MOL0     C48055  -0.270   6.831   7.012  0.1040  0.2629 -0.4378
  365MOL0     O48056  -0.397   6.840   6.954  0.4323  0.3376  0.4069
  365MOL0     C48057  -0.401   6.855   6.814  0.2440  0.4358  0.2995
  365MOL0     C48058  -0.544   6.819   6.768  0.3539  0.1579 -0.0403
  365MOL0     C48059  -0.574   6.664   6.786  0.2522 -0.2427  0.7946
  365MOL0     C48060  -0.708   6.619   6.740  0.4708 -0.5731 -0.4191
  365MOL0     C48061  -0.715   6.468   6.721  0.0543 -0.2591 -0.6667
  365MOL0     C48062  -0.755   6.385   6.853 -0.2391 -1.4621  0.8548
  365MOL0     C48063  -0.774   6.238   6.810 -0.2569  0.0354  0.4586
  365MOL0     C48064  -0.867   6.205   6.697 -0.1914  0.3928  0.3309
  365MOL0     N48065  -1.008   6.211   6.747 -0.4166  0.6372 -0.6177
  365MOL0     C48066  -1.105   6.314   6.741  0.4597  0.3548 -0.5436
  365MOL0     C48067  -1.224   6.260   6.786  0.2977 -0.5400  0.2179
  365MOL0     C48068  -1.349   6.336   6.825  0.1966  0.5384 -0.2623
  365MOL0     C48069  -1.451   6.346   6.719  0.8759  0.6449 -0.2877
  365MOL0     C48070  -1.504   6.205   6.675 -0.2958  0.7209 -0.5046
  365MOL0     C48071  -1.630   6.215   6.591  0.0009 -0.3668 -0.1156
  365MOL0     O48072  -1.733   6.287   6.663 -0.9651 -0.0100 -0.4430
  365MOL0     C48073  -1.864   6.288   6.628  0.2423  0.2799 -0.1842
  365MOL0     C48074  -1.916   6.241   6.500 -0.1973  0.7081 -0.0333
  365MOL0     C48075  -2.058   6.235   6.479  0.0080 -0.0365  0.3852
  365MOL0     C48076  -2.146   6.281   6.568  0.1088 -1.1668  1.0003
  365MOL0     C48077  -2.292   6.276   6.552  0.5543 -0.0365 -0.2884
  365MOL0     O48078  -2.363   6.305   6.664 -0.3174 -0.2086 -0.6466
  365MOL0     C48079  -2.499   6.306   6.667 -0.2662 -0.0066 -0.7556
  365MOL0     C48080  -2.549   6.382   6.773 -0.5256  0.3603 -0.6446
  365MOL0     C48081  -2.681   6.405   6.793 -0.4976  0.9673  0.1966
  365MOL0     C48082  -2.774   6.345   6.703  0.3584  0.1940 -0.4011
  365MOL0     O48083  -2.906   6.380   6.708 -0.3047  0.2686  0.1824
  365MOL0     C48084  -2.932   6.476   6.601 -0.3693  0.3703  0.3027
  365MOL0     C48085  -3.082   6.491   6.585 -0.2065 -0.3411  0.5188
  365MOL0     C48086  -3.159   6.358   6.564 -0.0264  0.8963 -0.1610
  365MOL0     C48087  -3.309   6.370   6.541  0.3035  0.1517 -0.0002
  365MOL0     C48088  -3.370   6.227   6.521 -0.2942  0.0962 -0.2380
  365MOL0     C48089  -3.521   6.242   6.496 -0.0138 -0.8151 -0.2626
  365MOL0     C48090  -3.592   6.112   6.486  0.0019 -0.1150  0.8340
  365MOL0     C48091  -3.563   6.028   6.357  0.3216  0.1409  0.6561
  365MOL0    Cl48092  -3.659   5.866   6.362  0.1576  0.4065  0.7365
  365MOL0     C48093  -2.723   6.269   6.602 -0.3593 -0.2112  0.7558
  365MOL0     C48094  -2.586   6.247   6.580 -0.6573 -0.4763  0.1299
  365MOL0     O48095  -2.339   6.256   6.441 -0.1712 -0.0972 -0.2279
  365MOL0     C48096  -2.089   6.347   6.675 -0.0963  0.4343 -0.8360
  365MOL0     C48097  -1.954   6.349   6.708  0.4766 -0.8660 -0.2123
  365MOL0     N48098  -1.198   6.128   6.819  0.4571  0.4373 -0.1406
  365MOL0     N48099  -1.073   6.100   6.797  0.4151 -0.0943 -0.6384
  365MOL0     C48100  -0.148   6.841   6.947  0.7364  0.0128 -0.3636
  365MOL0     C48101  -0.032   6.832   7.021 -0.4716 -0.6106  1.3061
  365MOL0     C48102   0.296   6.723   7.294  0.5481 -0.6496  0.0278
  365MOL0     C48103   0.390   6.638   7.246  0.0056  0.4044  0.5166
  365MOL0     C48104   0.523   6.637   7.296 -0.3691 -0.4724  0.9684
  365MOL0     C48105   0.550   6.725   7.404  0.4398 -0.0289  0.2505
  365MOL0     O48106   0.672   6.729   7.473 -0.4175 -0.0727 -0.3122
  365MOL0     C48107   0.766   6.621   7.448  0.6311  0.2486 -0.2510
  365MOL0     C48108   0.858   6.601   7.560 -0.6750 -0.2139  0.5235
  365MOL0     C48109   0.955   6.485   7.543  0.0148 -0.2721  0.3089
  365MOL0     C48110   1.085   6.498   7.633  0.4219 -0.3370 -0.0213
  365MOL0     C48111   1.171   6.601   7.588 -0.3584 -0.1867 -0.0321
  365MOL0     C48112   1.234   6.686   7.538 -0.8158  0.0713  0.2288
  365MOL0     C48113   0.448   6.825   7.440  0.6335 -0.2410  0.5777
  365MOL0     C48114   0.323   6.823   7.384 -0.2830 -0.9013 -0.2064
  365MOL0     H48115  -0.163   6.789   7.331  0.5085 -0.3541 -0.8256
  365MOL0     H48116  -0.370   6.806   7.189  0.3297  4.2694  1.2594
  365MOL0     H48117  -0.335   6.787   6.760  0.0462 -0.2850  0.9406
  365MOL0     H48118  -0.390   6.959   6.781 -0.9386 -0.0243 -1.6945
  365MOL0     H48119  -0.569   6.847   6.666 -0.9586 -1.3913 -0.1722
  365MOL0     H48120  -0.622   6.871   6.825 -1.4620 -0.4185 -1.8864
  365MOL0     H48121  -0.561   6.637   6.891  0.6255 -0.3170  0.7314
  365MOL0     H48122  -0.498   6.610   6.728 -0.6505 -1.6607  0.8822
  365MOL0     H48123  -0.786   6.650   6.810 -1.9569 -1.4509 -2.5367
  365MOL0     H48124  -0.739   6.662   6.644 -1.6385  0.1064  0.5131
  365MOL0     H48125  -0.631   6.424   6.668  0.1154 -0.1797 -0.6381
  365MOL0     H48126  -0.802   6.449   6.657 -0.6714 -3.2536  1.0137
  365MOL0     H48127  -0.851   6.409   6.900 -1.8388 -1.6606 -2.0733
  365MOL0     H48128  -0.680   6.406   6.930 -0.0273  0.6526  0.1473
  365MOL0     H48129  -0.676   6.192   6.794 -0.1012  0.5956 -0.2497
  365MOL0     H48130  -0.808   6.188   6.901  1.4001 -1.2198  0.4454
  365MOL0     H48131  -0.832   6.108   6.663 -1.3549 -0.3730  1.2327
  365MOL0     H48132  -0.859   6.275   6.613 -0.3901 -2.0667 -1.8374
  365MOL0     H48133  -1.086   6.411   6.696  3.6303  0.3185  0.4536
  365MOL0     H48134  -1.337   6.441   6.855  0.6686  0.4586 -0.1631
  365MOL0     H48135  -1.394   6.277   6.906 -1.9244  0.2205 -1.6003
  365MOL0     H48136  -1.419   6.397   6.627  1.5212 -1.1614 -1.1347
  365MOL0     H48137  -1.529   6.401   6.771 -1.7099 -1.8667 -1.2064
  365MOL0     H48138  -1.441   6.153   6.602 -1.9428  0.3507 -1.7017
  365MOL0     H48139  -1.515   6.144   6.765  2.6146 -1.6881 -1.6124
  365MOL0     H48140  -1.665   6.116   6.561 -2.4387  1.0338 -2.2903
  365MOL0     H48141  -1.611   6.270   6.499 -3.3129 -0.9189 -1.2727
  365MOL0     H48142  -1.855   6.204   6.418 -2.4461  0.7828 -1.8574
  365MOL0     H48143  -2.099   6.183   6.394 -2.8601 -0.5374  1.9474
  365MOL0     H48144  -2.485   6.429   6.847  1.5634 -0.9815 -1.5086
  365MOL0     H48145  -2.718   6.479   6.863 -2.0989  1.7434 -1.3873
  365MOL0     H48146  -2.896   6.451   6.501 -2.6581  3.5145 -1.4994
  365MOL0     H48147  -2.892   6.577   6.618 -0.7103  0.7252 -0.8654
  365MOL0     H48148  -3.105   6.562   6.505 -0.0431  0.3679  1.0940
  365MOL0     H48149  -3.123   6.539   6.674 -2.1615 -1.3344  0.2040
  365MOL0     H48150  -3.149   6.296   6.653 -1.8471  1.0106  0.1531
  365MOL0     H48151  -3.120   6.297   6.482  3.6682  1.1222  1.2197
  365MOL0     H48152  -3.358   6.418   6.626 -0.4554 -1.7218  0.6792
  365MOL0     H48153  -3.328   6.437   6.457 -0.6464 -0.8769 -0.6286
  365MOL0     H48154  -3.354   6.166   6.610  0.1278  0.8099  0.1823
  365MOL0     H48155  -3.325   6.181   6.433  0.7196 -1.2114  0.9219
  365MOL0     H48156  -3.546   6.312   6.416  0.7130  0.9224  0.9515
  365MOL0     H48157  -3.555   6.294   6.586  1.1618 -0.4631  0.0070
  365MOL0     H48158  -3.549   6.061   6.572  4.2152 -0.2827 -1.0805
  365MOL0     H48159  -3.701   6.114   6.496 -0.2230 -1.0532 -0.9938
  365MOL0     H48160  -3.459   6.000   6.341 -0.4821 -2.0573 -1.6199
  365MOL0     H48161  -3.602   6.085   6.272  0.2918 -0.1862  0.4437
  365MOL0     H48162  -2.793   6.232   6.527 -0.9095  2.1605 -0.0081
  365MOL0     H48163  -2.565   6.184   6.495  2.1192  1.3416 -0.6656
  365MOL0     H48164  -2.149   6.398   6.749  0.5906 -0.1051  0.1121
  365MOL0     H48165  -1.918   6.397   6.799  0.1839 -0.4515 -0.3127
  365MOL0     H48166  -0.137   6.847   6.839 -1.3218 -1.1335 -0.6858
  365MOL0     H48167   0.063   6.822   6.969 -0.2948 -1.1017  1.7105
  365MOL0     H48168   0.368   6.561   7.172 -1.4156  2.1434 -0.9728
  365MOL0     H48169   0.602   6.581   7.246 -0.4426  0.0832  0.2136
  365MOL0     H48170   0.811   6.648   7.352 -1.0895  0.7007 -0.9658
  365MOL0     H48171   0.715   6.525   7.433  0.4125  0.2092  0.6969
  365MOL0     H48172   0.920   6.690   7.571  0.6660 -0.8640 -1.4322
  365MOL0     H48173   0.799   6.579   7.650 -0.1590 -0.0346  0.9069
  365MOL0     H48174   0.988   6.494   7.439  0.5336 -0.2172  0.4780
  365MOL0     H48175   0.903   6.394   7.576 -2.3780  0.6498 -0.6746
  365MOL0     H48176   1.057   6.502   7.739 -1.1892 -0.8839 -0.3961
  365MOL0     H48177   1.139   6.403   7.622  1.5663  0.3865 -0.8564
  365MOL0     H48178   1.289   6.771   7.503 -0.3624 -1.1727 -2.2673
  365MOL0     H48179   0.468   6.896   7.519  1.7466 -2.5493  2.5037
  365MOL0     H48180   0.247   6.892   7.419 -0.7151 -2.1878  1.5315
  366MOL0     O48181   4.638   3.622   4.844 -0.8775  0.3756 -0.6086
  366MOL0     C48182   4.656   3.522   4.919 -0.1511  0.3904  0.0176
  366MOL0     O48183   4.569   3.451   4.992 -0.5081 -0.2990  0.1635
  366MOL0     C48184   4.439   3.496   4.979 -1.0425  0.3131 -0.8499
  366MOL0     C48185   4.369   3.495   5.099  0.1578 -0.7916 -0.0997
  366MOL0     C48186   4.235   3.528   5.106  0.1911 -0.3183 -0.5296
  366MOL0     C48187   4.179   3.573   4.991 -0.1039  0.0679 -0.3308
  366MOL0     O48188   4.053   3.634   5.008  0.2074 -0.0009 -0.0306
  366MOL0     C48189   3.936   3.596   4.930 -0.4858  0.0577 -0.4905
  366MOL0     C48190   3.811   3.556   5.004 -0.3471  0.3530 -0.2711
  366MOL0     C48191   3.847   3.453   5.116  0.1214  0.2896 -0.6236
  366MOL0     C48192   3.911   3.318   5.059  0.9631 -0.2664 -0.0894
  366MOL0     C48193   3.798   3.241   4.981 -0.2978 -0.1670  0.3209
  366MOL0     C48194   3.764   3.098   5.036 -0.0576  0.1076  0.4978
  366MOL0     C48195   3.679   3.103   5.155  0.1279  0.0903 -0.7852
  366MOL0     C48196   3.535   3.151   5.140 -0.4432 -0.2085  0.1754
  366MOL0     N48197   3.470   3.152   5.268 -0.0907 -0.3401 -0.3802
  366MOL0     C48198   3.405   3.046   5.335  0.9639  0.3705 -0.2054
  366MOL0     C48199   3.322   3.101   5.424  0.3305 -0.0623 -0.1545
  366MOL0     C48200   3.232   3.024   5.515  0.9358 -0.5771  0.3525
  366MOL0     C48201   3.086   3.067   5.496  0.2440  0.0696 -0.1573
  366MOL0     C48202   3.045   3.198   5.564  0.3243 -1.4462 -0.5781
  366MOL0     C48203   2.893   3.198   5.593 -0.6422 -1.0825  0.2346
  366MOL0     O48204   2.814   3.160   5.477 -0.1936  0.4627 -0.1060
  366MOL0     C48205   2.680   3.209   5.466 -0.7827 -0.6069  0.1337
  366MOL0     C48206   2.601   3.215   5.578 -0.4703  0.5602  0.2631
  366MOL0     C48207   2.471   3.258   5.566  1.2751  1.0051  0.3305
  366MOL0     C48208   2.417   3.306   5.444  0.3744 -0.4208  0.0163
  366MOL0     C48209   2.281   3.352   5.439  0.5466 -0.2128  0.5374
  366MOL0     O48210   2.208   3.374   5.556  0.4669  0.9166  0.1170
  366MOL0     C48211   2.074   3.397   5.555 -0.3220 -0.0221 -0.1698
  366MOL0     C48212   1.997   3.308   5.625  0.6135 -0.3069  0.6917
  366MOL0     C48213   1.857   3.325   5.625  0.4753  0.1520  0.4894
  366MOL0     C48214   1.800   3.424   5.549  0.1579 -0.8259  0.8288
  366MOL0     O48215   1.664   3.457   5.538  0.0209  0.5824  0.4871
  366MOL0     C48216   1.574   3.405   5.642  1.0153  0.2542 -0.0798
  366MOL0     C48217   1.470   3.518   5.645  0.0666 -0.7320  0.0643
  366MOL0     C48218   1.367   3.473   5.760  0.0231  0.3789  0.3571
  366MOL0     C48219   1.227   3.554   5.751  0.0067 -0.8453  1.3862
  366MOL0     C48220   1.116   3.472   5.810  0.2134  0.5658 -0.1068
  366MOL0     C48221   0.992   3.553   5.786  0.4394  0.1998 -0.4335
  366MOL0     C48222   0.865   3.486   5.856 -0.8305  0.0459 -0.2578
  366MOL0     C48223   0.751   3.588   5.871  0.3140  0.1036  0.4846
  366MOL0    Cl48224   0.615   3.531   5.974  0.4512  0.1701  0.1237
  366MOL0     C48225   1.885   3.502   5.467  0.7878  0.3421 -0.6507
  366MOL0     C48226   2.019   3.487   5.469  0.3418  0.0674 -0.5474
  366MOL0     O48227   2.232   3.350   5.325 -0.4606 -0.0703  0.8878
  366MOL0     C48228   2.508   3.307   5.333 -0.0161 -0.4716 -0.0827
  366MOL0     C48229   2.635   3.253   5.346  0.3806 -0.7117  0.1080
  366MOL0     N48230   3.345   3.237   5.421 -0.8156  0.4325 -0.0232
  366MOL0     N48231   3.440   3.264   5.331 -0.0011 -0.6479 -0.2169
  366MOL0     C48232   4.250   3.582   4.869  0.8869  0.1373 -0.4054
  366MOL0     C48233   4.383   3.537   4.864  0.0885 -0.1153  0.9736
  366MOL0     C48234   4.794   3.466   4.929 -0.0014 -0.4282  0.0945
  366MOL0     C48235   4.903   3.514   4.860 -0.2620  0.2167 -0.0844
  366MOL0     C48236   5.032   3.456   4.869  0.1924 -0.3126  0.2721
  366MOL0     C48237   5.061   3.354   4.953  1.0232 -0.2768 -0.2209
  366MOL0     O48238   5.189   3.323   4.975  0.3989  0.2674 -0.3062
  366MOL0     C48239   5.209   3.224   5.079  0.8355  0.4478  0.3064
  366MOL0     C48240   5.365   3.225   5.108 -0.0345  0.7818  0.0948
  366MOL0     C48241   5.434   3.168   4.979 -0.8703  0.1193  0.2998
  366MOL0     C48242   5.524   3.046   5.021  1.1054 -0.3020 -0.1230
  366MOL0     C48243   5.641   3.077   5.106  0.8243  0.1266  0.1335
  366MOL0     C48244   5.731   3.100   5.179 -0.3869 -0.4256  0.0954
  366MOL0     C48245   4.950   3.286   5.001  0.3289  0.2254 -0.1573
  366MOL0     C48246   4.819   3.342   4.990  0.1597  0.4117 -0.7038
  366MOL0     H48247   4.424   3.475   5.191 -2.9127 -1.9508  1.6348
  366MOL0     H48248   4.186   3.522   5.203  2.8680 -0.5204  0.9059
  366MOL0     H48249   3.969   3.519   4.860 -0.4708  0.4061 -0.8722
  366MOL0     H48250   3.906   3.683   4.870  1.7636  0.6456 -0.8930
  366MOL0     H48251   3.748   3.511   4.927 -0.3040 -1.5483  0.7532
  366MOL0     H48252   3.763   3.640   5.056  0.3376 -0.4440  1.7101
  366MOL0     H48253   3.758   3.435   5.176  1.2092  1.0383  1.3071
  366MOL0     H48254   3.910   3.497   5.193 -0.0329 -0.4510 -0.0611
  366MOL0     H48255   3.991   3.346   4.989 -0.2272  0.3382 -1.2551
  366MOL0     H48256   3.947   3.263   5.146  0.0258 -2.2995 -0.9325
  366MOL0     H48257   3.822   3.230   4.875  0.9326 -1.7188  0.7336
  366MOL0     H48258   3.706   3.300   4.991 -0.2028  0.3877 -1.7601
  366MOL0     H48259   3.857   3.047   5.061  2.3965  2.8022 -2.2424
  366MOL0     H48260   3.709   3.048   4.956 -0.2221  0.9545  0.0662
  366MOL0     H48261   3.671   3.010   5.212 -1.4291 -0.1491 -1.3218
  366MOL0     H48262   3.726   3.173   5.225 -0.3862 -0.8079  0.5107
  366MOL0     H48263   3.484   3.074   5.081 -0.6037  1.4379 -1.9590
  366MOL0     H48264   3.524   3.251   5.097  2.6732 -0.0039 -0.3957
  366MOL0     H48265   3.397   2.943   5.303 -0.7359  0.3798  0.1025
  366MOL0     H48266   3.267   3.023   5.619  2.3896 -2.7548 -0.1037
  366MOL0     H48267   3.235   2.923   5.473 -0.2522 -0.1878 -0.7371
  366MOL0     H48268   3.027   2.983   5.536  0.3119  0.8913  1.7889
  366MOL0     H48269   3.074   3.075   5.388  2.4067 -0.6559 -0.4956
  366MOL0     H48270   3.080   3.213   5.667 -3.3296  1.0847  0.4866
  366MOL0     H48271   3.074   3.276   5.493 -3.2930 -0.6929 -1.3876
  366MOL0     H48272   2.872   3.298   5.631 -0.0369 -0.3235 -1.3317
  366MOL0     H48273   2.881   3.126   5.674  1.7756  0.7219  2.3444
  366MOL0     H48274   2.647   3.200   5.675  1.3308  0.6936 -0.5289
  366MOL0     H48275   2.408   3.284   5.651  0.2871  4.4602 -1.2457
  366MOL0     H48276   2.046   3.236   5.690  0.3605  0.4675  1.7656
  366MOL0     H48277   1.799   3.252   5.681  0.5391 -0.9800 -0.8614
  366MOL0     H48278   1.608   3.380   5.743 -0.4902 -1.3245  0.0911
  366MOL0     H48279   1.523   3.317   5.601 -1.0640  1.1598  0.4382
  366MOL0     H48280   1.417   3.537   5.552  3.2843  1.2503 -1.5253
  366MOL0     H48281   1.518   3.612   5.673 -0.7148 -0.1612 -0.4820
  366MOL0     H48282   1.413   3.491   5.857  0.6719 -3.5227  0.9342
  366MOL0     H48283   1.348   3.366   5.749  0.4775  0.5245 -2.4265
  366MOL0     H48284   1.224   3.657   5.785 -3.1380 -0.9148  1.5720
  366MOL0     H48285   1.220   3.564   5.642  1.4516  1.1066  1.4173
  366MOL0     H48286   1.137   3.461   5.917 -0.1921 -3.0408 -0.2750
  366MOL0     H48287   1.096   3.372   5.769 -0.2954 -0.2479  1.9587
  366MOL0     H48288   0.970   3.559   5.679  0.3671 -1.7944 -0.5689
  366MOL0     H48289   0.995   3.654   5.826  0.0961 -0.8291  2.4559
  366MOL0     H48290   0.830   3.400   5.798  0.4101 -0.0408 -0.9156
  366MOL0     H48291   0.902   3.459   5.955  1.9828 -0.1297 -1.2537
  366MOL0     H48292   0.713   3.615   5.772 -2.8524  2.3913  2.1506
  366MOL0     H48293   0.791   3.676   5.922  1.2758  0.2120 -0.4244
  366MOL0     H48294   1.847   3.575   5.397  2.5966  1.1800 -0.8101
  366MOL0     H48295   2.076   3.558   5.411  0.0174  1.5568  0.8925
  366MOL0     H48296   2.486   3.352   5.237 -0.7859 -0.9260 -0.1221
  366MOL0     H48297   2.701   3.248   5.259  1.2151  3.6259  0.2263
  366MOL0     H48298   4.216   3.625   4.775  1.6862 -3.6841 -2.6463
  366MOL0     H48299   4.433   3.547   4.769 -0.6299 -0.0507  0.5959
  366MOL0     H48300   4.890   3.601   4.795  0.2001  0.8574  0.6618
  366MOL0     H48301   5.113   3.506   4.817 -0.3668 -1.4495 -1.7790
  366MOL0     H48302   5.174   3.125   5.047  1.3895  1.1763 -2.7909
  366MOL0     H48303   5.150   3.263   5.163 -1.6846 -1.0332 -0.6650
  366MOL0     H48304   5.396   3.329   5.123  0.3507  0.2386  3.9459
  366MOL0     H48305   5.399   3.169   5.195  0.9119  1.9858  0.5203
  366MOL0     H48306   5.497   3.251   4.944  0.2889 -0.5733  0.6632
  366MOL0     H48307   5.369   3.145   4.894 -0.6230 -0.1408  0.1768
  366MOL0     H48308   5.465   2.972   5.076  1.4995 -0.0522  0.6485
  366MOL0     H48309   5.570   3.009   4.929  1.0786 -0.2196 -0.1700
  366MOL0     H48310   5.820   3.118   5.237 -0.5462 -0.8530  0.4739
  366MOL0     H48311   4.948   3.195   5.061  0.9705  1.2690  1.5168
  366MOL0     H48312   4.745   3.277   5.035  0.6912  0.9546  1.0349
  367MOL0     O48313   5.428   4.300   2.404 -0.1303  0.8086  0.0782
  367MOL0     C48314   5.513   4.219   2.379  0.0108 -0.6417  0.8092
  367MOL0     O48315   5.501   4.091   2.329 -0.2757 -0.2776 -0.1987
  367MOL0     C48316   5.371   4.053   2.304 -0.1344  0.6154 -0.6473
  367MOL0     C48317   5.263   4.068   2.395  0.2781 -0.5201 -0.4525
  367MOL0     C48318   5.134   4.011   2.370  0.3895  0.6202  0.0543
  367MOL0     C48319   5.112   3.937   2.251  0.1629 -0.5413  0.0505
  367MOL0     O48320   4.990   3.887   2.217 -1.0479 -0.2242 -0.1154
  367MOL0     C48321   4.922   3.821   2.321 -1.1089  0.3975 -0.1695
  367MOL0     C48322   4.809   3.904   2.381 -0.5969  0.3988 -0.8215
  367MOL0     C48323   4.699   3.948   2.289 -0.0124  0.2531  0.9029
  367MOL0     C48324   4.582   4.008   2.374 -0.7966 -0.0767  0.5469
  367MOL0     C48325   4.449   3.987   2.299 -0.1199 -0.6835 -0.4071
  367MOL0     C48326   4.338   4.036   2.389 -0.4213 -0.4963  0.1521
  367MOL0     C48327   4.195   4.007   2.335 -0.5890 -0.3943  0.3473
  367MOL0     C48328   4.088   4.102   2.398 -1.0955  0.8585 -0.2481
  367MOL0     N48329   3.962   4.072   2.347 -0.0265  0.4040  0.6306
  367MOL0     C48330   3.857   4.015   2.415 -0.1877  0.3171  0.2945
  367MOL0     C48331   3.746   4.034   2.339 -0.8086  0.6024  0.4061
  367MOL0     C48332   3.607   3.973   2.368  0.9510  0.5380  0.0659
  367MOL0     C48333   3.525   4.081   2.448 -1.1553 -0.3738  1.3320
  367MOL0     C48334   3.387   4.023   2.486 -0.0386  0.1546  1.0365
  367MOL0     C48335   3.297   4.008   2.368  0.0052 -0.5542  0.5733
  367MOL0     O48336   3.180   3.949   2.419 -0.0287  1.6218  0.6648
  367MOL0     C48337   3.060   4.008   2.410  0.3203  0.1782  0.3169
  367MOL0     C48338   3.025   4.111   2.327  0.0857  0.3676 -0.2085
  367MOL0     C48339   2.891   4.156   2.319 -0.3622 -0.4565  0.0728
  367MOL0     C48340   2.793   4.102   2.406 -0.0422  0.8157  0.3678
  367MOL0     C48341   2.650   4.141   2.417  0.7463 -0.2791 -0.5479
  367MOL0     O48342   2.586   4.100   2.528  1.0344  0.3558  0.7073
  367MOL0     C48343   2.454   4.133   2.550  0.0005 -0.7013 -0.1567
  367MOL0     C48344   2.355   4.072   2.482 -0.0117  0.5984 -0.6517
  367MOL0     C48345   2.215   4.093   2.505 -0.8572 -0.6746 -0.0976
  367MOL0     C48346   2.179   4.182   2.609  0.0965 -0.6631  0.2166
  367MOL0     O48347   2.057   4.215   2.664  0.3690  0.3990  0.0926
  367MOL0     C48348   1.951   4.115   2.645  0.0976 -0.2635 -0.4626
  367MOL0     C48349   1.825   4.164   2.714 -0.3426  0.4013 -0.2877
  367MOL0     C48350   1.712   4.052   2.694 -0.0949  0.1727  0.5207
  367MOL0     C48351   1.579   4.096   2.734  0.6799  0.5028  0.6097
  367MOL0     C48352   1.466   4.001   2.686 -0.5954  0.2848  0.2335
  367MOL0     C48353   1.472   3.865   2.763  0.5214 -0.0383 -0.5943
  367MOL0     C48354   1.343   3.777   2.763  0.3589 -0.6993  0.4209
  367MOL0     C48355   1.231   3.853   2.830 -0.5542  0.7247 -0.2607
  367MOL0    Cl48356   1.105   3.752   2.876 -0.1559 -0.2845 -0.3426
  367MOL0     C48357   2.285   4.243   2.680  0.5059  0.1857  0.2860
  367MOL0     C48358   2.420   4.223   2.650  0.1477 -0.2548  0.9707
  367MOL0     O48359   2.600   4.196   2.320  0.1816 -0.4034  0.0346
  367MOL0     C48360   2.834   4.005   2.497  0.3589 -1.4354  0.2072
  367MOL0     C48361   2.964   3.952   2.495 -0.5817  0.5143  0.5297
  367MOL0     N48362   3.786   4.099   2.223  0.2594 -0.0100  0.6382
  367MOL0     N48363   3.912   4.129   2.233 -0.0250 -0.1007 -0.1026
  367MOL0     C48364   5.216   3.937   2.163 -0.5880 -0.2937  0.6476
  367MOL0     C48365   5.340   3.992   2.188  0.5060 -0.7966  0.0799
  367MOL0     C48366   5.646   4.266   2.421  0.5159 -0.0424  0.4639
  367MOL0     C48367   5.681   4.403   2.421  0.6955 -0.2817  0.1835
  367MOL0     C48368   5.810   4.431   2.463  0.0600  0.3377  0.0222
  367MOL0     C48369   5.904   4.335   2.503  0.1589 -0.0385  0.0405
  367MOL0     O48370   6.029   4.373   2.542 -0.2768 -0.6052  0.1378
  367MOL0     C48371   6.131   4.363   2.445 -0.0188  0.3696 -0.1814
  367MOL0     C48372   6.244   4.448   2.491  0.0619  0.8288 -0.9667
  367MOL0     C48373   6.337   4.492   2.381 -0.5652  0.8786  0.0714
  367MOL0     C48374   6.482   4.431   2.391  0.4613  0.3116 -0.3667
  367MOL0     C48375   6.498   4.288   2.387  0.4553 -0.1230 -0.0227
  367MOL0     C48376   6.512   4.174   2.355  0.1711  0.3033 -0.8807
  367MOL0     C48377   5.868   4.203   2.503  0.8611  0.6109  0.6412
  367MOL0     C48378   5.744   4.170   2.455  0.4152 -0.1316 -0.4365
  367MOL0     H48379   5.290   4.107   2.493 -0.4525 -1.5029  0.1631
  367MOL0     H48380   5.058   4.029   2.446 -1.2666 -1.5374 -0.9923
  367MOL0     H48381   4.990   3.787   2.400 -0.2699 -0.7846 -1.3570
  367MOL0     H48382   4.884   3.729   2.277 -1.2583  0.7552 -0.7938
  367MOL0     H48383   4.845   3.991   2.437  0.0309  0.6385 -1.5833
  367MOL0     H48384   4.769   3.831   2.452  1.0408 -0.0791 -0.3459
  367MOL0     H48385   4.655   3.869   2.227 -2.9156  1.3138  1.4165
  367MOL0     H48386   4.732   4.018   2.212 -4.1706 -2.0070 -3.5357
  367MOL0     H48387   4.574   3.946   2.463 -2.1893  0.7623  1.0282
  367MOL0     H48388   4.607   4.111   2.399 -1.8581  0.7122 -1.3948
  367MOL0     H48389   4.436   3.884   2.264 -1.3292  0.1696 -2.7300
  367MOL0     H48390   4.450   4.063   2.220  1.4647 -1.4037 -1.1070
  367MOL0     H48391   4.359   4.140   2.416  1.3020 -0.8033  0.0896
  367MOL0     H48392   4.341   3.988   2.487  2.5705 -0.7908  0.0014
  367MOL0     H48393   4.187   4.029   2.229 -2.1373 -1.4958  0.1972
  367MOL0     H48394   4.170   3.903   2.358  0.7636 -0.6585  0.7372
  367MOL0     H48395   4.120   4.204   2.376  1.5342  0.4936  1.4235
  367MOL0     H48396   4.091   4.097   2.507 -1.6927 -0.2424 -0.2699
  367MOL0     H48397   3.876   3.984   2.518 -1.1634  0.7830  0.6326
  367MOL0     H48398   3.624   3.876   2.417  0.4258 -0.2851 -1.3277
  367MOL0     H48399   3.567   3.937   2.273  1.0687 -2.5775  1.0917
  367MOL0     H48400   3.526   4.178   2.398  1.0416 -0.4720  1.0910
  367MOL0     H48401   3.587   4.101   2.537  2.2176  2.3505 -1.3446
  367MOL0     H48402   3.395   3.925   2.533 -3.4966 -0.6006  0.2978
  367MOL0     H48403   3.343   4.090   2.560  2.2694  0.9738  1.7670
  367MOL0     H48404   3.343   3.943   2.293  1.4040  1.4464 -0.4209
  367MOL0     H48405   3.290   4.107   2.322 -0.3281 -1.2267 -0.8678
  367MOL0     H48406   3.114   4.146   2.275  1.4752  0.0459  1.8212
  367MOL0     H48407   2.859   4.231   2.247 -0.6925 -2.4016 -1.9131
  367MOL0     H48408   2.375   3.990   2.414  2.5828 -0.0280  0.7584
  367MOL0     H48409   2.148   4.033   2.443 -0.5485  0.6916 -1.8122
  367MOL0     H48410   1.975   4.018   2.689 -3.0744  0.2272  2.9163
  367MOL0     H48411   1.929   4.108   2.538 -1.4096 -3.3473 -0.0756
  367MOL0     H48412   1.800   4.255   2.660  1.0320  0.8330 -0.2315
  367MOL0     H48413   1.853   4.186   2.817 -0.7742 -0.5618  0.0526
  367MOL0     H48414   1.742   3.953   2.731 -0.0086  0.2380  0.6266
  367MOL0     H48415   1.706   4.042   2.585  1.0659 -3.5173  0.6606
  367MOL0     H48416   1.578   4.098   2.844  0.3126 -0.5402  0.6405
  367MOL0     H48417   1.570   4.199   2.698  1.6602 -0.0923 -1.4821
  367MOL0     H48418   1.473   3.986   2.578  1.0516  1.0252  0.2053
  367MOL0     H48419   1.369   4.049   2.704 -0.8816  0.3946 -1.4600
  367MOL0     H48420   1.496   3.880   2.868 -4.4460 -0.4097  0.8190
  367MOL0     H48421   1.554   3.816   2.710  2.4176  0.4688  1.7053
  367MOL0     H48422   1.308   3.763   2.660 -0.3617  1.5119  0.3228
  367MOL0     H48423   1.363   3.681   2.812  1.5006 -0.1830  1.0207
  367MOL0     H48424   1.191   3.941   2.777  0.9656  0.7504 -1.4347
  367MOL0     H48425   1.271   3.886   2.926 -0.5404  2.8204 -0.9330
  367MOL0     H48426   2.262   4.320   2.753 -2.3432  2.1456 -2.4033
  367MOL0     H48427   2.503   4.272   2.699 -0.1135  0.6592  0.5252
  367MOL0     H48428   2.765   3.972   2.574  0.8692 -0.3755  1.1371
  367MOL0     H48429   2.989   3.870   2.562 -1.4562  2.5897  3.6328
  367MOL0     H48430   5.201   3.882   2.070 -0.8974  2.4687 -1.0415
  367MOL0     H48431   5.418   3.993   2.113 -0.1215  1.8665 -0.6296
  367MOL0     H48432   5.608   4.479   2.396  1.1694 -0.3786 -1.6959
  367MOL0     H48433   5.831   4.538   2.469 -3.5058  1.1059  0.9499
  367MOL0     H48434   6.094   4.401   2.349  0.4679  0.5094 -0.3170
  367MOL0     H48435   6.163   4.259   2.439  0.4556  0.6067 -2.8572
  367MOL0     H48436   6.221   4.538   2.549  1.8193 -0.9771  2.8749
  367MOL0     H48437   6.291   4.384   2.566 -0.5416 -0.9420 -2.0482
  367MOL0     H48438   6.335   4.602   2.385 -2.0572  0.8511  0.8584
  367MOL0     H48439   6.292   4.470   2.284  0.9282  4.7109 -1.7068
  367MOL0     H48440   6.544   4.478   2.314  1.3578 -2.8772 -1.7675
  367MOL0     H48441   6.514   4.471   2.488 -0.0146  0.1829 -0.1488
  367MOL0     H48442   6.529   4.072   2.324  2.1565  0.2656  0.1843
  367MOL0     H48443   5.936   4.125   2.535 -1.1080 -1.6505 -0.3853
  367MOL0     H48444   5.715   4.065   2.458  1.2130 -0.3501 -0.0832
  368MOL0     O48445   1.403   7.667  11.041  0.1975  0.1802  0.3392
  368MOL0     C48446   1.432   7.654  10.922  0.1921  0.1075 -0.1070
  368MOL0     O48447   1.349   7.697  10.819 -0.5506 -0.0420 -0.3610
  368MOL0     C48448   1.239   7.774  10.846  0.0759  0.2477 -0.3716
  368MOL0     C48449   1.225   7.900  10.796 -0.8122 -0.3605  0.1513
  368MOL0     C48450   1.111   7.982  10.816  0.5310  0.5206 -0.1673
  368MOL0     C48451   0.999   7.925  10.875  0.5034  0.4976  0.3311
  368MOL0     O48452   0.891   8.007  10.871  0.7600  0.3420  0.2993
  368MOL0     C48453   0.812   8.006  10.988  1.1662 -0.0313 -0.1835
  368MOL0     C48454   0.679   7.941  10.956 -0.1935  0.0541  0.0565
  368MOL0     C48455   0.589   7.922  11.089 -0.3235 -0.0257  1.3931
  368MOL0     C48456   0.526   8.052  11.130 -0.9912 -0.0916 -0.3222
  368MOL0     C48457   0.415   8.034  11.232  1.0822  1.3910 -0.0802
  368MOL0     C48458   0.340   8.166  11.249 -0.7004 -0.6929 -0.5394
  368MOL0     C48459   0.256   8.154  11.375 -0.0164  0.6540 -0.1828
  368MOL0     C48460   0.120   8.095  11.341  0.1276  0.3556  0.7472
  368MOL0     N48461   0.050   8.056  11.466  0.3248  0.1597  1.0552
  368MOL0     C48462  -0.054   8.121  11.522  0.2349  0.9321  0.3017
  368MOL0     C48463  -0.080   8.039  11.636 -0.3095  0.8295  0.3294
  368MOL0     C48464  -0.184   8.068  11.746  0.1551  0.5201  0.6009
  368MOL0     C48465  -0.326   8.016  11.713  0.0595  0.3243  0.2750
  368MOL0     C48466  -0.395   7.978  11.839  0.0103  0.2061  0.4809
  368MOL0     C48467  -0.528   7.896  11.826  0.4734 -0.0778  0.0588
  368MOL0     O48468  -0.597   7.885  11.950  0.0727 -0.4959  0.8401
  368MOL0     C48469  -0.703   7.803  11.958  0.1516 -0.1680 -0.0853
  368MOL0     C48470  -0.777   7.746  11.853  0.0210  0.4837  0.0163
  368MOL0     C48471  -0.892   7.664  11.878 -0.2535  0.8041 -0.1300
  368MOL0     C48472  -0.934   7.638  12.009 -0.7078  0.7965 -0.0289
  368MOL0     C48473  -1.061   7.570  12.032  0.1717 -0.0979 -0.8101
  368MOL0     O48474  -1.090   7.538  12.165  0.2565 -0.2322 -0.8395
  368MOL0     C48475  -1.202   7.486  12.214 -0.5106  0.4284  0.2482
  368MOL0     C48476  -1.188   7.454  12.349 -0.5551  0.8790  0.3549
  368MOL0     C48477  -1.301   7.402  12.419  0.2598  0.2423  0.1671
  368MOL0     C48478  -1.422   7.365  12.349 -0.3215 -0.2650 -1.0125
  368MOL0     O48479  -1.536   7.326  12.418  0.2471  0.3887 -0.4175
  368MOL0     C48480  -1.627   7.249  12.343  0.2663  0.2787 -0.5916
  368MOL0     C48481  -1.707   7.182  12.436  0.5200 -0.0983 -1.3379
  368MOL0     C48482  -1.815   7.095  12.381 -0.2222  0.0870  0.6388
  368MOL0     C48483  -1.920   7.047  12.479  0.5013 -0.0727 -0.5600
  368MOL0     C48484  -2.029   6.955  12.418  0.1497  0.5393  0.3094
  368MOL0     C48485  -2.131   6.892  12.512 -0.7063 -0.1258  0.4707
  368MOL0     C48486  -2.257   6.848  12.437  0.2245 -0.0595 -0.6605
  368MOL0     C48487  -2.317   6.725  12.512  0.1570  0.2922  0.1711
  368MOL0    Cl48488  -2.201   6.585  12.501 -0.0812 -0.0685  0.5604
  368MOL0     C48489  -1.429   7.396  12.207  0.7855  0.5238 -0.2388
  368MOL0     C48490  -1.313   7.445  12.144 -0.2669 -0.2567 -0.3551
  368MOL0     O48491  -1.134   7.547  11.940  0.1384  0.0632 -0.1615
  368MOL0     C48492  -0.858   7.689  12.109  0.5748 -0.5026 -0.6007
  368MOL0     C48493  -0.751   7.771  12.090  0.7020 -0.9949  0.1115
  368MOL0     N48494   0.010   7.931  11.645  0.9919 -0.8036  0.0359
  368MOL0     N48495   0.088   7.954  11.543  0.0296 -0.0445 -0.2768
  368MOL0     C48496   1.002   7.794  10.915 -0.9616 -0.0322 -0.0910
  368MOL0     C48497   1.127   7.722  10.911 -0.0399 -0.4602  0.3866
  368MOL0     C48498   1.559   7.582  10.893  0.0944  0.1501 -0.3989
  368MOL0     C48499   1.586   7.510  10.781  0.1196 -0.0145 -0.8321
  368MOL0     C48500   1.702   7.439  10.760 -0.7799  0.2140  0.5413
  368MOL0     C48501   1.803   7.436  10.856  0.1258 -0.9397 -0.0715
  368MOL0     O48502   1.918   7.366  10.859 -0.2693 -0.1652 -0.1446
  368MOL0     C48503   1.945   7.288  10.744  0.0019  0.0518 -0.5856
  368MOL0     C48504   1.981   7.370  10.616 -0.2227  0.3260 -0.0436
  368MOL0     C48505   2.121   7.435  10.619  0.4620 -0.6756 -0.1309
  368MOL0     C48506   2.151   7.488  10.478  0.2893  0.1399  0.5268
  368MOL0     C48507   2.291   7.520  10.467 -0.0067  0.1964  0.5000
  368MOL0     C48508   2.409   7.547  10.466 -0.1795  0.2263  0.3208
  368MOL0     C48509   1.787   7.514  10.973 -0.0152  0.4593  0.1514
  368MOL0     C48510   1.664   7.582  10.990 -0.0734  0.3727 -0.4322
  368MOL0     H48511   1.306   7.934  10.732 -3.0777  1.3300 -1.9954
  368MOL0     H48512   1.106   8.080  10.770  0.5058  1.2739  1.4170
  368MOL0     H48513   0.794   8.110  11.017  1.4817 -0.8798  3.5887
  368MOL0     H48514   0.860   7.947  11.067 -1.5279 -2.5371 -0.2820
  368MOL0     H48515   0.696   7.844  10.908  3.5150  1.2908 -1.4717
  368MOL0     H48516   0.616   8.000  10.888 -4.9233  0.6394  4.3184
  368MOL0     H48517   0.657   7.880  11.163 -0.1603 -1.5859  0.4169
  368MOL0     H48518   0.508   7.849  11.073 -1.5049  1.3528  0.9122
  368MOL0     H48519   0.608   8.116  11.164 -1.1197  0.0892 -0.3514
  368MOL0     H48520   0.492   8.101  11.038  2.7915  2.3941 -0.6031
  368MOL0     H48521   0.470   7.996  11.319  1.0513 -0.3280 -0.7905
  368MOL0     H48522   0.346   7.953  11.206  2.3310 -1.7694  4.9580
  368MOL0     H48523   0.275   8.181  11.162 -3.0060  1.8304  1.4286
  368MOL0     H48524   0.416   8.245  11.258 -1.2624 -0.2031  0.0036
  368MOL0     H48525   0.310   8.088  11.443 -1.1338  0.4921  0.5828
  368MOL0     H48526   0.237   8.241  11.439  4.0586  1.8530 -0.3229
  368MOL0     H48527   0.141   8.008  11.277  2.5543  1.2758  0.1893
  368MOL0     H48528   0.056   8.158  11.280 -0.9836  0.1444  1.6502
  368MOL0     H48529  -0.100   8.215  11.492 -0.0275  1.6712  2.8236
  368MOL0     H48530  -0.191   8.176  11.759  0.5067  0.5037  0.9299
  368MOL0     H48531  -0.139   8.031  11.838  4.6074  0.9218 -1.1621
  368MOL0     H48532  -0.322   7.934  11.640  0.7809  1.4987 -1.0493
  368MOL0     H48533  -0.379   8.088  11.651 -0.1386 -1.9339 -2.3923
  368MOL0     H48534  -0.326   7.912  11.891  0.6263  0.5772  0.1379
  368MOL0     H48535  -0.414   8.068  11.898  2.1842  1.5659 -0.7966
  368MOL0     H48536  -0.501   7.796  11.791 -3.5812 -1.2005 -0.3381
  368MOL0     H48537  -0.600   7.949  11.763  0.2627 -0.5787 -0.1227
  368MOL0     H48538  -0.753   7.762  11.748 -1.6277 -0.2632 -0.5010
  368MOL0     H48539  -0.937   7.616  11.791  1.2343 -1.5745  0.3280
  368MOL0     H48540  -1.098   7.483  12.402 -1.1752 -0.4902  2.2822
  368MOL0     H48541  -1.307   7.396  12.527 -2.0629  0.6261  0.0967
  368MOL0     H48542  -1.572   7.176  12.282  0.3289 -0.9464  0.8808
  368MOL0     H48543  -1.688   7.314  12.279 -2.2508  2.9393  4.0232
  368MOL0     H48544  -1.741   7.266  12.498  4.0787  1.5558 -1.3229
  368MOL0     H48545  -1.644   7.122  12.503  1.1856  3.2826  1.4172
  368MOL0     H48546  -1.760   7.008  12.344  1.4063  1.7514 -1.0870
  368MOL0     H48547  -1.874   7.144  12.303 -0.6798 -1.6360 -0.1421
  368MOL0     H48548  -1.877   7.003  12.569  0.9924 -0.9430 -1.2047
  368MOL0     H48549  -1.969   7.137  12.517  0.6756 -0.2928  0.2036
  368MOL0     H48550  -1.977   6.874  12.365 -1.9018 -2.1634  2.1564
  368MOL0     H48551  -2.086   7.001  12.336 -2.1020 -2.4651  0.0394
  368MOL0     H48552  -2.161   6.954  12.597 -0.1931  1.2788 -0.3341
  368MOL0     H48553  -2.076   6.805  12.550 -1.0469 -0.2176  0.7537
  368MOL0     H48554  -2.327   6.933  12.436  0.5928  0.3888  2.1760
  368MOL0     H48555  -2.238   6.814  12.335  0.0364 -2.4743  0.0579
  368MOL0     H48556  -2.408   6.700  12.457 -0.2683 -0.8105  1.3432
  368MOL0     H48557  -2.351   6.756  12.611 -0.9255 -1.6631  0.4738
  368MOL0     H48558  -1.513   7.361  12.148 -0.5275 -0.3196  1.9994
  368MOL0     H48559  -1.317   7.443  12.035 -2.0682  3.8526 -0.5770
  368MOL0     H48560  -0.876   7.661  12.213  3.9523 -0.8590  0.0028
  368MOL0     H48561  -0.696   7.818  12.171  2.2739 -0.2504 -1.3272
  368MOL0     H48562   0.918   7.734  10.950 -0.0480 -2.1189 -1.2991
  368MOL0     H48563   1.128   7.617  10.939  1.0678 -1.0981 -1.8773
  368MOL0     H48564   1.513   7.498  10.702  1.7031  2.1086 -2.7639
  368MOL0     H48565   1.702   7.382  10.668 -0.0654 -0.3501  0.8883
  368MOL0     H48566   1.854   7.233  10.720  0.2610 -0.0412 -1.3912
  368MOL0     H48567   2.020   7.213  10.770 -1.6024 -1.3807  0.1049
  368MOL0     H48568   1.971   7.308  10.526  0.3512  0.5267 -0.2508
  368MOL0     H48569   1.900   7.441  10.595 -0.9021 -1.1244 -2.8973
  368MOL0     H48570   2.202   7.367  10.647  2.7390  0.8246 -2.6308
  368MOL0     H48571   2.125   7.518  10.690  0.5485 -1.3749  0.6935
  368MOL0     H48572   2.123   7.423  10.395  1.1144  0.4558 -0.0032
  368MOL0     H48573   2.095   7.580  10.458  0.0955 -0.0933 -0.0266
  368MOL0     H48574   2.512   7.572  10.450 -0.1248 -0.5851 -0.7462
  368MOL0     H48575   1.847   7.500  11.063 -1.7295 -0.4448  1.2277
  368MOL0     H48576   1.655   7.631  11.087  0.4282  1.4572 -0.9188
  369MOL0     O48577   2.697   8.849   7.369 -0.1119  0.1206 -0.4571
  369MOL0     C48578   2.674   8.763   7.277  0.7843  0.8674  0.1894
  369MOL0     O48579   2.548   8.725   7.229  0.5849  0.2154 -0.5418
  369MOL0     C48580   2.429   8.758   7.291  0.0715  0.5553  0.8736
  369MOL0     C48581   2.312   8.767   7.212  0.3244  0.1034 -0.7380
  369MOL0     C48582   2.182   8.791   7.266 -1.6072  0.1516  0.3661
  369MOL0     C48583   2.171   8.812   7.407  0.7462 -0.0848  0.3628
  369MOL0     O48584   2.051   8.819   7.479 -0.1410 -0.7308 -0.0910
  369MOL0     C48585   1.926   8.794   7.411  0.8665  0.1902 -0.5118
  369MOL0     C48586   1.798   8.845   7.478  0.0227  0.4619 -0.6783
  369MOL0     C48587   1.762   8.798   7.620  1.0777  0.1038 -0.5977
  369MOL0     C48588   1.617   8.840   7.637  0.6958 -1.0736  0.2249
  369MOL0     C48589   1.576   8.824   7.784  0.3762 -0.2914  0.3667
  369MOL0     C48590   1.427   8.848   7.808  0.7546  0.3376 -0.0264
  369MOL0     C48591   1.381   8.841   7.952  0.3548 -0.7624 -0.3872
  369MOL0     C48592   1.248   8.910   7.967 -0.2583 -0.7799 -0.0304
  369MOL0     N48593   1.133   8.820   7.974 -0.5074  0.2797  1.0297
  369MOL0     C48594   1.057   8.811   8.086  0.7018 -0.0850 -0.4333
  369MOL0     C48595   0.957   8.731   8.034  0.7825 -0.3799 -0.5649
  369MOL0     C48596   0.836   8.706   8.120  0.3896 -0.0272 -0.4587
  369MOL0     C48597   0.735   8.610   8.060 -0.5718  0.4439  0.0705
  369MOL0     C48598   0.594   8.634   8.114  0.0188  0.9379 -0.2319
  369MOL0     C48599   0.522   8.745   8.038  0.1396 -0.3341 -0.2005
  369MOL0     O48600   0.387   8.748   8.103  0.1049 -0.0451 -0.3112
  369MOL0     C48601   0.291   8.816   8.034 -0.0088  0.0034  0.3129
  369MOL0     C48602   0.315   8.926   7.940  0.6741 -0.4141 -0.1390
  369MOL0     C48603   0.211   8.997   7.876  0.3250  0.4570  0.1643
  369MOL0     C48604   0.075   8.956   7.893 -0.2168  0.0905 -0.4333
  369MOL0     C48605  -0.038   9.010   7.820 -0.0976  0.0292  0.2776
  369MOL0     O48606  -0.151   8.939   7.822  0.6507 -0.4682  0.4831
  369MOL0     C48607  -0.277   8.993   7.826  0.0985 -1.2932  0.6383
  369MOL0     C48608  -0.385   8.911   7.799  0.8298  0.0685  0.0323
  369MOL0     C48609  -0.515   8.960   7.774  0.2165  0.1046 -0.7158
  369MOL0     C48610  -0.541   9.098   7.790  0.5349  0.7038 -0.0662
  369MOL0     O48611  -0.667   9.144   7.775  0.1587 -0.0809  0.0980
  369MOL0     C48612  -0.706   9.243   7.869 -0.6452  0.3612 -0.0313
  369MOL0     C48613  -0.736   9.373   7.811  0.1933 -0.3813 -0.1800
  369MOL0     C48614  -0.841   9.362   7.703  0.3006 -0.2592 -0.8399
  369MOL0     C48615  -0.981   9.341   7.754  0.7867 -0.3259 -0.5647
  369MOL0     C48616  -1.098   9.357   7.663  0.3281 -0.3902  0.8006
  369MOL0     C48617  -1.228   9.311   7.726 -0.5273 -0.1346 -0.0023
  369MOL0     C48618  -1.355   9.386   7.674 -0.1808  0.2063  0.7320
  369MOL0     C48619  -1.476   9.326   7.738  1.0683  0.2901  0.1231
  369MOL0    Cl48620  -1.472   9.361   7.912 -0.3589 -0.1939  0.5206
  369MOL0     C48621  -0.432   9.191   7.823  0.5118 -0.1243  0.7290
  369MOL0     C48622  -0.300   9.134   7.840  0.2487  0.0632  0.1741
  369MOL0     O48623  -0.021   9.119   7.770 -0.1915  0.2235 -0.3767
  369MOL0     C48624   0.054   8.851   7.982 -0.6117  0.0602 -0.2071
  369MOL0     C48625   0.155   8.788   8.046 -0.7048 -0.6790  0.8114
  369MOL0     N48626   0.978   8.692   7.901  0.4061  0.5125  1.2252
  369MOL0     N48627   1.087   8.759   7.860  0.0126 -0.3552 -0.0453
  369MOL0     C48628   2.286   8.816   7.487  0.4927 -0.0976 -1.0572
  369MOL0     C48629   2.411   8.795   7.425  0.2373 -0.2854 -0.8764
  369MOL0     C48630   2.793   8.686   7.233  0.0438 -1.0633  0.0909
  369MOL0     C48631   2.917   8.750   7.230  0.2996 -0.5982  0.0353
  369MOL0     C48632   3.031   8.677   7.193  0.0089 -0.3351  0.5062
  369MOL0     C48633   3.025   8.549   7.166 -0.6545  0.3909  0.3792
  369MOL0     O48634   3.129   8.474   7.125  0.3596  0.7968 -0.8097
  369MOL0     C48635   3.264   8.523   7.142 -0.0632 -0.9490 -0.2912
  369MOL0     C48636   3.334   8.391   7.142 -0.4214 -0.6407  0.5206
  369MOL0     C48637   3.486   8.420   7.131  0.2664 -0.8220 -0.6293
  369MOL0     C48638   3.560   8.291   7.091  0.3413 -0.2396  0.2955
  369MOL0     C48639   3.600   8.203   7.204  0.0405  0.2135 -0.2824
  369MOL0     C48640   3.630   8.122   7.293 -0.1318  0.0600  0.2708
  369MOL0     C48641   2.900   8.482   7.168  0.5051 -0.2630 -0.7810
  369MOL0     C48642   2.785   8.553   7.205  0.5384  0.6414  0.2924
  369MOL0     H48643   2.318   8.755   7.104  0.2965 -1.0425 -0.6326
  369MOL0     H48644   2.102   8.815   7.197 -0.1003  3.8443 -0.3404
  369MOL0     H48645   1.916   8.685   7.403 -2.4945  0.2825  0.7620
  369MOL0     H48646   1.925   8.846   7.314 -0.2366  1.0775 -0.0467
  369MOL0     H48647   1.722   8.801   7.413 -1.9885  1.9104  0.5665
  369MOL0     H48648   1.803   8.952   7.456  1.1365  0.4180 -0.6935
  369MOL0     H48649   1.815   8.849   7.701 -2.4550 -0.6401  2.4504
  369MOL0     H48650   1.768   8.690   7.635  1.0002  0.1266 -0.3968
  369MOL0     H48651   1.599   8.947   7.622  1.0385 -0.9902  0.3954
  369MOL0     H48652   1.561   8.782   7.563  0.3051  2.9523 -3.0321
  369MOL0     H48653   1.634   8.903   7.834  0.4956  0.5424 -1.0228
  369MOL0     H48654   1.602   8.723   7.816  0.0595  0.3747  2.9551
  369MOL0     H48655   1.365   8.778   7.753  1.1718 -0.8209  0.9309
  369MOL0     H48656   1.394   8.945   7.770 -1.0894  0.2145  1.1076
  369MOL0     H48657   1.373   8.735   7.978  0.4016 -0.9307 -1.0429
  369MOL0     H48658   1.456   8.887   8.017  1.7544 -2.8976 -0.3619
  369MOL0     H48659   1.229   8.985   7.889  0.2834 -1.2942 -0.6771
  369MOL0     H48660   1.245   8.968   8.060 -0.8218  1.8594 -1.5805
  369MOL0     H48661   1.067   8.862   8.181 -2.6897 -1.1129  0.5847
  369MOL0     H48662   0.786   8.803   8.111  2.4040  0.9558 -2.2104
  369MOL0     H48663   0.862   8.690   8.225  0.1364  2.8564  0.1167
  369MOL0     H48664   0.759   8.508   8.090 -0.3197 -0.6556 -3.4063
  369MOL0     H48665   0.743   8.623   7.952 -0.6481  1.3905  0.1697
  369MOL0     H48666   0.529   8.547   8.100 -0.8964  1.5912 -0.1170
  369MOL0     H48667   0.606   8.653   8.221 -2.1259 -1.9179  0.6308
  369MOL0     H48668   0.513   8.727   7.931  2.1375  0.0583 -0.4687
  369MOL0     H48669   0.574   8.840   8.056 -1.7803  1.0082 -1.3789
  369MOL0     H48670   0.416   8.964   7.928  1.3517 -0.9072  3.0594
  369MOL0     H48671   0.230   9.079   7.808  1.1900  2.2986  2.4948
  369MOL0     H48672  -0.372   8.803   7.793 -2.6840 -0.4641 -0.1177
  369MOL0     H48673  -0.601   8.897   7.755 -1.1201  1.8592 -0.7143
  369MOL0     H48674  -0.629   9.265   7.943 -0.4997 -0.7374  0.1516
  369MOL0     H48675  -0.787   9.208   7.933  0.5302  0.3742  1.5259
  369MOL0     H48676  -0.648   9.408   7.756  1.2563 -2.6357 -0.0232
  369MOL0     H48677  -0.770   9.430   7.897  1.9361 -0.6229  0.7089
  369MOL0     H48678  -0.821   9.279   7.635  0.7481 -1.1208  0.3180
  369MOL0     H48679  -0.840   9.454   7.643  0.3636 -0.4114 -1.0742
  369MOL0     H48680  -0.975   9.243   7.802  4.4084 -0.4240 -0.9587
  369MOL0     H48681  -0.995   9.408   7.839  2.2402 -1.6020  0.7525
  369MOL0     H48682  -1.087   9.307   7.567  0.0516  1.9488 -0.5159
  369MOL0     H48683  -1.105   9.464   7.642 -0.7082 -0.7205 -0.6374
  369MOL0     H48684  -1.213   9.331   7.832 -0.9543 -1.1691  0.2744
  369MOL0     H48685  -1.226   9.202   7.717  1.4430 -0.2585  1.3579
  369MOL0     H48686  -1.357   9.492   7.700 -0.7542  0.8292 -1.5868
  369MOL0     H48687  -1.343   9.373   7.566  0.7257  1.8100  0.6037
  369MOL0     H48688  -1.478   9.217   7.723  0.1426  0.4125 -0.7218
  369MOL0     H48689  -1.565   9.374   7.698  1.5579  0.6114 -0.6183
  369MOL0     H48690  -0.455   9.295   7.841  0.8759 -0.4213  3.3155
  369MOL0     H48691  -0.226   9.205   7.875 -1.8412  2.5389 -0.1154
  369MOL0     H48692  -0.047   8.813   7.995 -0.2889 -1.4346 -1.7766
  369MOL0     H48693   0.120   8.712   8.116  1.6654 -0.6451  2.1308
  369MOL0     H48694   2.282   8.849   7.590  1.2014 -0.9896 -0.7325
  369MOL0     H48695   2.495   8.801   7.493 -2.0479 -2.0388  2.3694
  369MOL0     H48696   2.924   8.856   7.253 -1.4975 -0.7748  1.6104
  369MOL0     H48697   3.128   8.726   7.200 -0.3043  0.7144 -1.5897
  369MOL0     H48698   3.280   8.578   7.235 -0.1228 -1.8203  0.2449
  369MOL0     H48699   3.288   8.600   7.068 -2.0302  0.6208  0.5907
  369MOL0     H48700   3.318   8.336   7.235 -0.8752  2.2118  2.2594
  369MOL0     H48701   3.308   8.333   7.053 -1.7414 -2.4522  2.0090
  369MOL0     H48702   3.527   8.457   7.225 -0.9078 -0.7806 -0.1261
  369MOL0     H48703   3.503   8.487   7.046 -0.7298 -1.1328 -1.0748
  369MOL0     H48704   3.509   8.235   7.011  3.2430 -2.5294 -0.1345
  369MOL0     H48705   3.653   8.338   7.058  0.7545  1.5190  3.5965
  369MOL0     H48706   3.656   8.059   7.376  0.5082 -0.6774 -0.4693
  369MOL0     H48707   2.885   8.378   7.139  1.0588  0.1655 -2.7166
  369MOL0     H48708   2.688   8.508   7.223 -0.3670  2.2156 -0.5162
  370MOL0     O48709  10.582   3.470   3.156 -0.6619  0.6063  0.2621
  370MOL0     C48710  10.477   3.441   3.093 -0.1827  1.2403  0.6425
  370MOL0     O48711  10.447   3.496   2.976  0.2217 -0.7294  0.5446
  370MOL0     C48712  10.536   3.591   2.920  0.0717 -0.2283  1.1755
  370MOL0     C48713  10.470   3.697   2.860  0.5342  0.5971  0.1650
  370MOL0     C48714  10.540   3.788   2.782 -0.3955 -0.0077 -0.1566
  370MOL0     C48715  10.678   3.771   2.760 -0.2188  0.6748  0.4726
  370MOL0     O48716  10.746   3.868   2.696  0.1890  0.4226  0.0595
  370MOL0     C48717  10.879   3.845   2.634  0.1626 -0.2249 -0.7763
  370MOL0     C48718  10.934   3.970   2.565  0.2442 -0.8969  0.5571
  370MOL0     C48719  10.970   4.071   2.676 -0.1968  0.2005 -0.1251
  370MOL0     C48720  11.006   4.214   2.619 -0.5096 -0.3759 -0.3194
  370MOL0     C48721  11.087   4.291   2.727 -0.3638  0.4572  0.0080
  370MOL0     C48722  11.130   4.436   2.685 -0.0981 -0.3810 -0.4132
  370MOL0     C48723  11.168   4.434   2.537  0.3007 -0.4635  0.0911
  370MOL0     C48724  11.233   4.571   2.504 -0.1318  0.1240 -0.3884
  370MOL0     N48725  11.234   4.601   2.359 -0.0783  0.4410  0.1581
  370MOL0     C48726  11.121   4.628   2.286 -0.2908  0.6995 -0.0139
  370MOL0     C48727  11.157   4.618   2.153 -0.5166 -0.2082 -0.9327
  370MOL0     C48728  11.083   4.647   2.040  0.1788 -0.1181 -0.0261
  370MOL0     C48729  10.940   4.582   2.039  0.1572 -1.0609 -0.0194
  370MOL0     C48730  10.946   4.458   1.946 -0.2117 -0.8309 -0.0384
  370MOL0     C48731  10.837   4.366   1.970  0.6963 -0.2790  0.7430
  370MOL0     O48732  10.716   4.433   1.929  0.7542 -0.3163 -0.1568
  370MOL0     C48733  10.596   4.385   1.961 -0.1513 -0.2581  0.0377
  370MOL0     C48734  10.568   4.257   2.009 -0.3299 -0.1783 -0.2707
  370MOL0     C48735  10.436   4.214   2.042 -0.6593  1.0218  0.0269
  370MOL0     C48736  10.330   4.302   2.022 -0.0446  0.0061 -0.0880
  370MOL0     C48737  10.196   4.260   2.062  0.9413  0.3075 -0.4925
  370MOL0     O48738  10.189   4.134   2.125 -0.3247  0.0770  0.6934
  370MOL0     C48739  10.077   4.066   2.137 -0.2224 -0.4720 -0.0512
  370MOL0     C48740  10.068   3.939   2.090  0.0718 -0.1775  1.0707
  370MOL0     C48741   9.950   3.863   2.098 -0.7386  0.4558  1.1447
  370MOL0     C48742   9.836   3.919   2.172 -0.4447 -0.1066 -0.5110
  370MOL0     O48743   9.727   3.838   2.184 -0.4086 -0.9547  0.1631
  370MOL0     C48744   9.612   3.880   2.109 -0.0947  0.9801 -0.1435
  370MOL0     C48745   9.509   3.775   2.123 -0.4266 -0.4716  0.0469
  370MOL0     C48746   9.439   3.752   2.256 -0.2594  0.0951 -0.1071
  370MOL0     C48747   9.318   3.848   2.271  0.7135  0.7088 -0.2042
  370MOL0     C48748   9.248   3.815   2.411 -0.0775 -0.0157 -0.3596
  370MOL0     C48749   9.190   3.672   2.432  0.2752  0.2008 -0.0878
  370MOL0     C48750   9.099   3.641   2.306 -0.3361  0.3828  0.9708
  370MOL0     C48751   9.038   3.496   2.313  0.7191  0.3222 -0.1897
  370MOL0    Cl48752   9.168   3.370   2.306  0.3566 -0.2725 -0.4146
  370MOL0     C48753   9.855   4.037   2.240  0.4735 -0.3788  0.1539
  370MOL0     C48754   9.972   4.113   2.219 -1.0073 -1.0356  0.0817
  370MOL0     O48755  10.101   4.331   2.028 -0.3838 -0.5890  0.0027
  370MOL0     C48756  10.360   4.434   1.976  0.2235  0.3997  0.1780
  370MOL0     C48757  10.487   4.469   1.949 -0.7432  0.0539  0.1940
  370MOL0     N48758  11.290   4.595   2.148  0.1733 -0.1018  0.1383
  370MOL0     N48759  11.335   4.586   2.266 -0.2104 -0.7751 -0.3065
  370MOL0     C48760  10.749   3.665   2.829  0.1360 -0.3301 -0.5644
  370MOL0     C48761  10.678   3.575   2.908  0.1896  0.4471 -0.0876
  370MOL0     C48762  10.389   3.345   3.167 -0.5270  0.3341 -0.0858
  370MOL0     C48763  10.434   3.314   3.294 -0.5130  0.4647 -0.1590
  370MOL0     C48764  10.357   3.236   3.381  0.5702  0.5696 -0.0601
  370MOL0     C48765  10.234   3.190   3.346  0.4343 -0.3444  0.5395
  370MOL0     O48766  10.168   3.104   3.426 -0.2293 -0.0191 -0.0054
  370MOL0     C48767  10.022   3.101   3.411 -0.2716  0.9530 -0.7262
  370MOL0     C48768   9.962   2.998   3.509 -0.1934 -0.1915  1.1389
  370MOL0     C48769  10.023   2.857   3.513 -0.6780 -0.3376 -0.8591
  370MOL0     C48770  10.005   2.797   3.656 -0.0185 -0.6031  0.7314
  370MOL0     C48771  10.045   2.657   3.675  0.5158 -0.4553  0.1435
  370MOL0     C48772  10.073   2.540   3.702 -0.3933 -0.9032  0.1100
  370MOL0     C48773  10.188   3.215   3.212 -0.4181 -0.5952  0.0353
  370MOL0     C48774  10.259   3.299   3.124 -1.2489  0.1858 -1.4910
  370MOL0     H48775  10.362   3.704   2.868  0.7448  1.7897  2.8073
  370MOL0     H48776  10.494   3.871   2.730 -1.2273  1.2543  2.4093
  370MOL0     H48777  10.871   3.771   2.553 -0.4629 -1.7592  0.6119
  370MOL0     H48778  10.941   3.816   2.719 -0.2914  0.5873 -0.1554
  370MOL0     H48779  10.862   4.008   2.492  0.8191 -2.0387 -0.6295
  370MOL0     H48780  11.024   3.952   2.505  0.1614 -1.7661  0.6868
  370MOL0     H48781  11.060   4.031   2.723  0.2942  0.7505 -0.5738
  370MOL0     H48782  10.903   4.079   2.761 -0.9682  0.2921 -0.7249
  370MOL0     H48783  11.075   4.195   2.536  1.1268  1.3322  0.5687
  370MOL0     H48784  10.925   4.280   2.586 -0.2197  0.4921  0.6637
  370MOL0     H48785  11.175   4.239   2.764 -0.1316  1.3485  0.7653
  370MOL0     H48786  11.030   4.301   2.820  1.9813  0.6757  1.5323
  370MOL0     H48787  11.217   4.475   2.739 -0.1518  1.4061 -1.5603
  370MOL0     H48788  11.051   4.506   2.713 -0.3863 -0.2110 -1.6124
  370MOL0     H48789  11.241   4.356   2.515 -0.7820 -1.4559 -0.0777
  370MOL0     H48790  11.081   4.420   2.471  0.1438  3.0608 -0.6781
  370MOL0     H48791  11.334   4.569   2.546 -0.1015  0.9456 -0.4062
  370MOL0     H48792  11.179   4.651   2.556  0.1703  0.4092 -0.5157
  370MOL0     H48793  11.025   4.652   2.332 -0.7534 -0.7859 -0.1590
  370MOL0     H48794  11.140   4.623   1.950  0.6006 -0.6176  0.3649
  370MOL0     H48795  11.064   4.754   2.025  0.4156  0.0482  0.7921
  370MOL0     H48796  10.867   4.647   1.989  1.8541  0.2458 -0.9059
  370MOL0     H48797  10.916   4.561   2.143  0.1198 -1.6443 -0.1435
  370MOL0     H48798  10.952   4.487   1.840  2.0175  0.9182  0.4757
  370MOL0     H48799  11.044   4.414   1.966  0.2955 -0.0322 -0.6426
  370MOL0     H48800  10.838   4.340   2.076 -0.8212 -1.0743  0.6013
  370MOL0     H48801  10.842   4.277   1.906 -1.4019  2.7452 -4.1791
  370MOL0     H48802  10.655   4.193   2.022  0.8428  1.5216  0.5975
  370MOL0     H48803  10.423   4.110   2.071  4.7152  0.5759  1.9235
  370MOL0     H48804  10.152   3.880   2.053  0.7543 -0.4640  2.9534
  370MOL0     H48805   9.946   3.760   2.064 -0.8030 -0.3059  3.2946
  370MOL0     H48806   9.641   3.894   2.004 -1.3284  1.1054 -0.4819
  370MOL0     H48807   9.573   3.978   2.140 -0.2362  0.5294  1.1515
  370MOL0     H48808   9.567   3.684   2.107  1.0537  0.7627 -2.1393
  370MOL0     H48809   9.443   3.789   2.037  1.0797 -0.3802 -1.1399
  370MOL0     H48810   9.508   3.757   2.341  0.3933 -0.9417 -0.5562
  370MOL0     H48811   9.407   3.648   2.247  0.3450 -0.2555  1.3969
  370MOL0     H48812   9.340   3.955   2.268 -0.7285  1.0415 -0.1087
  370MOL0     H48813   9.242   3.819   2.197  0.9700 -1.9502  0.4685
  370MOL0     H48814   9.167   3.888   2.412  1.6104  2.0133 -1.5369
  370MOL0     H48815   9.311   3.843   2.497  0.3096 -0.1493 -0.5955
  370MOL0     H48816   9.137   3.669   2.527  1.8132 -0.2235  0.7966
  370MOL0     H48817   9.272   3.599   2.432 -0.6628 -0.8844  0.6864
  370MOL0     H48818   9.021   3.715   2.289  0.2473  0.6590 -0.6265
  370MOL0     H48819   9.154   3.632   2.212  2.5189 -0.8280  2.6147
  370MOL0     H48820   8.962   3.485   2.235 -2.3021  1.2121  2.4142
  370MOL0     H48821   8.975   3.487   2.402  0.5775 -0.0856 -0.3284
  370MOL0     H48822   9.770   4.076   2.295  0.6036 -1.3498  1.0630
  370MOL0     H48823   9.980   4.208   2.271 -3.1319 -0.6191 -0.2612
  370MOL0     H48824  10.279   4.503   1.957  1.0827  1.1672 -0.7952
  370MOL0     H48825  10.500   4.567   1.904 -0.9840 -0.5759 -1.2759
  370MOL0     H48826  10.855   3.643   2.818  0.3975  1.2159 -1.3566
  370MOL0     H48827  10.724   3.484   2.944 -0.1936  0.9308  1.7361
  370MOL0     H48828  10.526   3.351   3.339 -0.6724  3.1535 -1.8206
  370MOL0     H48829  10.396   3.210   3.479  0.0102  0.5481  0.1591
  370MOL0     H48830   9.984   3.067   3.314 -1.6821  2.7004 -0.8461
  370MOL0     H48831   9.989   3.204   3.428 -0.6832  0.7503 -0.3114
  370MOL0     H48832   9.964   3.050   3.605  2.0822  1.0546  0.5021
  370MOL0     H48833   9.855   2.986   3.490 -0.2409  0.1707  1.1555
  370MOL0     H48834  10.131   2.856   3.497 -0.4967 -0.4470  0.3053
  370MOL0     H48835   9.970   2.793   3.442 -3.5427  1.7823 -0.8222
  370MOL0     H48836  10.058   2.859   3.728 -4.6678  3.3887  1.2499
  370MOL0     H48837   9.901   2.808   3.688 -0.5543 -1.0037 -0.7858
  370MOL0     H48838  10.088   2.438   3.731 -3.3093 -1.7902 -1.1548
  370MOL0     H48839  10.093   3.184   3.171 -0.4344  2.2713 -2.4500
  370MOL0     H48840  10.213   3.326   3.030 -2.7779  0.5445 -0.6714
  371MOL0     O48841   6.654   3.721   9.180 -0.4485 -0.1090 -0.1864
  371MOL0     C48842   6.726   3.807   9.119  0.0459  0.0823  0.6106
  371MOL0     O48843   6.688   3.938   9.092 -0.1495  0.3358  0.8309
  371MOL0     C48844   6.560   3.983   9.114  0.3426 -0.0148 -0.6486
  371MOL0     C48845   6.469   3.940   9.209 -0.1091  0.0019 -0.5181
  371MOL0     C48846   6.347   4.007   9.220  1.0226  0.0556  0.8171
  371MOL0     C48847   6.312   4.115   9.134 -0.3675 -0.4590 -0.1731
  371MOL0     O48848   6.186   4.169   9.151 -0.9021 -0.6066 -0.0723
  371MOL0     C48849   6.157   4.300   9.088  0.2007  0.7727 -0.1664
  371MOL0     C48850   6.236   4.417   9.140  0.1962  0.2710 -1.0837
  371MOL0     C48851   6.184   4.552   9.097  0.1287  0.3696 -0.3060
  371MOL0     C48852   6.049   4.597   9.160  0.7339 -0.1398 -0.4153
  371MOL0     C48853   5.996   4.732   9.104  0.3614 -0.2325 -0.3322
  371MOL0     C48854   6.092   4.845   9.132  0.1648 -0.0602  0.0547
  371MOL0     C48855   6.061   4.969   9.046 -0.6911 -0.6357  0.6955
  371MOL0     C48856   6.162   5.078   9.069 -0.3592  0.0244 -0.1808
  371MOL0     N48857   6.119   5.171   9.170 -0.2635  0.6594  0.0315
  371MOL0     C48858   6.020   5.274   9.154  0.2875 -0.0638  0.2852
  371MOL0     C48859   6.012   5.327   9.283  0.1912 -0.0764 -0.3556
  371MOL0     C48860   5.929   5.436   9.328 -0.2531  0.0973 -0.6459
  371MOL0     C48861   5.783   5.439   9.274 -0.3296  0.2656  0.6999
  371MOL0     C48862   5.719   5.574   9.303 -0.3641 -0.1253  0.0143
  371MOL0     C48863   5.576   5.598   9.252  0.1747 -0.0252  0.4514
  371MOL0     O48864   5.491   5.506   9.316  0.0660  0.4150  0.2426
  371MOL0     C48865   5.351   5.520   9.303 -0.4888 -0.2952 -0.7191
  371MOL0     C48866   5.266   5.405   9.303  0.4504 -0.1663 -0.2963
  371MOL0     C48867   5.128   5.409   9.325 -0.0197  0.5180  1.5972
  371MOL0     C48868   5.064   5.529   9.353 -0.0013 -0.2421  0.1667
  371MOL0     C48869   4.918   5.539   9.363  0.6022  0.1283  0.0490
  371MOL0     O48870   4.855   5.651   9.381 -0.0280  0.0185 -0.5027
  371MOL0     C48871   4.717   5.665   9.370 -0.5571 -0.5212 -0.4813
  371MOL0     C48872   4.672   5.769   9.285 -0.0404  0.8600 -0.2428
  371MOL0     C48873   4.532   5.790   9.275  0.2333 -0.1524 -0.1444
  371MOL0     C48874   4.443   5.720   9.360  0.6255 -0.7533  0.6532
  371MOL0     O48875   4.308   5.750   9.362  0.1247 -0.4638  0.1508
  371MOL0     C48876   4.258   5.879   9.313 -0.2408 -0.7824 -0.1080
  371MOL0     C48877   4.104   5.892   9.347  0.3163  0.0271 -0.7811
  371MOL0     C48878   4.016   5.834   9.238  0.1543 -0.1949 -0.0339
  371MOL0     C48879   3.868   5.862   9.258  0.4281 -0.5276  0.7219
  371MOL0     C48880   3.810   5.814   9.387  0.8307  0.5993 -0.3641
  371MOL0     C48881   3.654   5.824   9.369  0.4400 -0.4954  0.3029
  371MOL0     C48882   3.583   5.848   9.507  0.4604  0.8118 -0.2790
  371MOL0     C48883   3.498   5.732   9.552 -0.0377 -0.1527 -0.0920
  371MOL0    Cl48884   3.603   5.606   9.632  0.0276  0.0044  0.1077
  371MOL0     C48885   4.492   5.627   9.454 -0.5112  0.1107 -0.4282
  371MOL0     C48886   4.630   5.591   9.446  0.4076 -0.2254 -0.1408
  371MOL0     O48887   4.865   5.426   9.357  0.0988 -0.1485 -0.5936
  371MOL0     C48888   5.153   5.643   9.359 -0.2857 -0.3054  0.1900
  371MOL0     C48889   5.290   5.633   9.331  0.4052 -0.2196  0.3838
  371MOL0     N48890   6.096   5.252   9.365  0.7343 -0.5323 -0.1928
  371MOL0     N48891   6.168   5.168   9.294 -0.3610  0.6358  0.0708
  371MOL0     C48892   6.402   4.151   9.039  0.2405  0.3060 -0.1209
  371MOL0     C48893   6.528   4.089   9.028  0.1104 -0.0986 -0.2111
  371MOL0     C48894   6.862   3.769   9.074  0.4523  0.3900 -0.3287
  371MOL0     C48895   6.911   3.635   9.080  0.6613 -0.1105  0.5536
  371MOL0     C48896   7.026   3.597   9.010 -0.1430  0.2764 -0.7907
  371MOL0     C48897   7.114   3.693   8.952  0.6821 -0.0012 -0.4067
  371MOL0     O48898   7.238   3.652   8.914  0.1270  0.6205  0.2975
  371MOL0     C48899   7.258   3.628   8.771 -0.0607 -0.7977 -0.1040
  371MOL0     C48900   7.248   3.486   8.735 -0.0609  0.1966  0.3769
  371MOL0     C48901   7.335   3.402   8.820  0.2776  0.5406 -0.3021
  371MOL0     C48902   7.480   3.400   8.782  0.3149 -0.3880  0.8115
  371MOL0     C48903   7.555   3.284   8.832 -0.5595 -0.4719  0.4839
  371MOL0     C48904   7.639   3.204   8.870 -0.2280 -0.7668  0.1602
  371MOL0     C48905   7.077   3.825   8.951  0.5930 -0.2453 -0.4019
  371MOL0     C48906   6.949   3.865   9.006  0.3790  0.6799  0.3379
  371MOL0     H48907   6.490   3.858   9.277  1.0735  0.6479 -0.0683
  371MOL0     H48908   6.272   3.984   9.295 -1.4182  0.1614 -1.4414
  371MOL0     H48909   6.049   4.312   9.104 -0.1426 -3.8313  2.8785
  371MOL0     H48910   6.180   4.291   8.981  2.0301 -1.0224  0.3218
  371MOL0     H48911   6.339   4.405   9.104 -0.2851 -0.0892 -2.4002
  371MOL0     H48912   6.239   4.410   9.249  1.1610 -1.5108 -1.1792
  371MOL0     H48913   6.173   4.550   8.988 -0.5351  0.2427 -0.2412
  371MOL0     H48914   6.270   4.616   9.117 -0.2677  0.7287  0.2818
  371MOL0     H48915   5.966   4.528   9.140  0.9012 -1.0556  1.7606
  371MOL0     H48916   6.064   4.616   9.266 -3.5711  1.3709  0.1436
  371MOL0     H48917   5.896   4.753   9.144  0.6240 -0.1224  0.2715
  371MOL0     H48918   5.991   4.725   8.995  0.0919 -0.5462 -0.3004
  371MOL0     H48919   6.192   4.807   9.112  0.1539  0.9586 -2.3228
  371MOL0     H48920   6.092   4.873   9.238  2.4664  0.4692 -0.0193
  371MOL0     H48921   6.054   4.929   8.944  0.9254  2.0599 -0.6012
  371MOL0     H48922   5.965   5.012   9.075 -0.0260  1.5518 -0.1026
  371MOL0     H48923   6.179   5.130   8.974  2.5917 -0.2977  0.0834
  371MOL0     H48924   6.261   5.036   9.088 -1.5523 -2.2853  1.3676
  371MOL0     H48925   5.962   5.297   9.066 -0.1230 -0.7043  0.3765
  371MOL0     H48926   5.980   5.529   9.304 -2.1260  1.0161 -1.2520
  371MOL0     H48927   5.922   5.424   9.437 -2.8274 -0.1905 -0.7686
  371MOL0     H48928   5.728   5.360   9.326  0.4255 -1.1038 -0.4972
  371MOL0     H48929   5.772   5.411   9.169 -1.2071 -1.8304  1.2901
  371MOL0     H48930   5.725   5.590   9.410 -0.6355  2.1600 -0.2774
  371MOL0     H48931   5.783   5.650   9.258 -1.5961  0.7815 -0.2513
  371MOL0     H48932   5.567   5.594   9.143 -1.0656 -1.2095  0.5753
  371MOL0     H48933   5.550   5.702   9.276 -0.9445 -0.4245  1.0322
  371MOL0     H48934   5.314   5.308   9.299 -0.7319 -0.9318  2.0790
  371MOL0     H48935   5.081   5.313   9.303  1.7654 -0.4745  1.8991
  371MOL0     H48936   4.742   5.818   9.218  0.0527 -0.1774 -0.9329
  371MOL0     H48937   4.498   5.859   9.198 -1.7464  1.1116  1.7442
  371MOL0     H48938   4.270   5.899   9.206 -0.0883 -0.3441 -0.0125
  371MOL0     H48939   4.307   5.963   9.363  0.0224 -0.5002 -0.8229
  371MOL0     H48940   4.082   5.999   9.349 -0.5968 -0.1116 -2.1892
  371MOL0     H48941   4.088   5.849   9.447  1.2403 -0.8487 -0.9982
  371MOL0     H48942   4.030   5.725   9.248  0.0342 -0.3641 -1.4798
  371MOL0     H48943   4.042   5.863   9.136 -1.1377  1.0426 -0.0314
  371MOL0     H48944   3.852   5.971   9.261 -0.9760 -0.6415 -0.9798
  371MOL0     H48945   3.816   5.820   9.171  1.7123 -0.1235 -0.2793
  371MOL0     H48946   3.844   5.866   9.477 -0.2261 -0.3986  0.6535
  371MOL0     H48947   3.830   5.707   9.397 -0.0716  0.5401  1.1219
  371MOL0     H48948   3.621   5.729   9.325  3.3808 -2.0310  1.1505
  371MOL0     H48949   3.632   5.915   9.313  0.6081  1.7821  3.6320
  371MOL0     H48950   3.656   5.868   9.586  0.6457  0.0498 -0.2521
  371MOL0     H48951   3.514   5.932   9.501  2.8377  3.0827  1.6468
  371MOL0     H48952   3.435   5.707   9.467 -2.2179  1.9012  0.7990
  371MOL0     H48953   3.427   5.761   9.631 -0.1251 -2.8219  0.9495
  371MOL0     H48954   4.436   5.576   9.532  1.6934  0.5012  1.5399
  371MOL0     H48955   4.657   5.513   9.516  1.0351 -0.4771 -0.6616
  371MOL0     H48956   5.106   5.739   9.380 -1.0987 -0.7239  0.3142
  371MOL0     H48957   5.334   5.732   9.336 -1.8922  0.8313  4.3461
  371MOL0     H48958   6.373   4.233   8.975 -0.5460  2.1414  2.4052
  371MOL0     H48959   6.597   4.114   8.949  0.0461  0.8687  0.0265
  371MOL0     H48960   6.854   3.565   9.141  0.6382 -1.7538 -1.2636
  371MOL0     H48961   7.054   3.492   9.008  1.4104  0.6142  0.4405
  371MOL0     H48962   7.354   3.670   8.739 -0.6348  0.5315 -0.1321
  371MOL0     H48963   7.175   3.666   8.710  0.0636  2.4764  1.5275
  371MOL0     H48964   7.147   3.444   8.740  0.6159 -1.4756  0.9907
  371MOL0     H48965   7.272   3.485   8.629 -0.3196 -1.3660  0.3062
  371MOL0     H48966   7.289   3.303   8.813 -2.7208  1.6575  1.6661
  371MOL0     H48967   7.316   3.422   8.926 -1.4386 -2.8185  0.1777
  371MOL0     H48968   7.498   3.407   8.675  2.5397 -0.6188  1.1203
  371MOL0     H48969   7.531   3.488   8.821  0.5571  0.9137 -2.1949
  371MOL0     H48970   7.708   3.136   8.915  1.4421  0.0807 -1.0465
  371MOL0     H48971   7.146   3.902   8.917 -1.6536  1.9655 -0.2742
  371MOL0     H48972   6.930   3.970   8.987 -0.6159  0.0173 -3.0436
  372MOL0     O48973   3.642   8.170   9.105 -0.0731 -0.0999  0.1452
  372MOL0     C48974   3.626   8.253   9.197 -0.4112  0.5899 -0.4270
  372MOL0     O48975   3.512   8.264   9.274 -0.0339 -0.4611  0.6340
  372MOL0     C48976   3.392   8.209   9.230 -0.1684  0.3151  0.2025
  372MOL0     C48977   3.352   8.189   9.097  0.0665 -0.0428 -0.0095
  372MOL0     C48978   3.233   8.120   9.079 -0.4364 -0.1300 -0.4244
  372MOL0     C48979   3.143   8.084   9.179  0.6301  0.3262 -0.0215
  372MOL0     O48980   3.019   8.032   9.159  0.5173 -0.1980 -0.1749
  372MOL0     C48981   2.955   8.033   9.029  0.5453 -0.2729  0.9069
  372MOL0     C48982   2.820   7.968   9.052 -0.0281  0.4718  0.2462
  372MOL0     C48983   2.719   8.045   9.141  0.9661  0.1902 -0.7378
  372MOL0     C48984   2.594   7.969   9.152 -0.4530  0.2858  0.2720
  372MOL0     C48985   2.483   8.019   9.231 -0.7237 -0.8876 -0.1930
  372MOL0     C48986   2.380   7.906   9.258 -0.3169  0.0430  0.4624
  372MOL0     C48987   2.409   7.841   9.401 -0.6721  0.2689 -0.1715
  372MOL0     C48988   2.341   7.706   9.412 -0.8648  0.3976  0.1832
  372MOL0     N48989   2.199   7.734   9.454  0.0276 -0.2646  0.3205
  372MOL0     C48990   2.092   7.756   9.375 -0.1985 -0.0479 -0.0855
  372MOL0     C48991   1.988   7.770   9.460 -0.3500 -0.2300  0.4152
  372MOL0     C48992   1.852   7.795   9.408  0.1032 -0.4447 -0.3208
  372MOL0     C48993   1.805   7.944   9.431 -0.0789  0.4939  0.6686
  372MOL0     C48994   1.666   7.971   9.386 -0.0443 -0.1471  0.1674
  372MOL0     C48995   1.556   7.907   9.473 -0.2061 -0.4072  0.5730
  372MOL0     O48996   1.434   7.967   9.437 -0.1663 -0.0333  0.8069
  372MOL0     C48997   1.322   7.941   9.511 -0.7352  0.0617  0.4218
  372MOL0     C48998   1.322   7.845   9.617 -0.6444  0.1804  0.6268
  372MOL0     C48999   1.202   7.815   9.684  0.0140 -0.3779 -0.5574
  372MOL0     C49000   1.083   7.900   9.653 -0.5284 -0.2692 -0.2987
  372MOL0     C49001   0.961   7.872   9.736  0.0414  0.2630 -0.6663
  372MOL0     O49002   0.849   7.945   9.708  0.0699 -0.2910  0.6918
  372MOL0     C49003   0.717   7.905   9.735 -0.2528 -0.7371 -0.4043
  372MOL0     C49004   0.625   8.005   9.716 -0.4934 -0.7970 -0.3736
  372MOL0     C49005   0.486   7.977   9.712 -0.4636  0.3627 -0.2973
  372MOL0     C49006   0.439   7.842   9.732 -0.7330  0.4619  0.9719
  372MOL0     O49007   0.307   7.806   9.725  0.1965 -0.2468 -0.6001
  372MOL0     C49008   0.208   7.887   9.668 -0.1474 -0.1312  1.0774
  372MOL0     C49009   0.127   7.972   9.761  0.0742 -0.7215 -0.9369
  372MOL0     C49010   0.019   8.053   9.701  0.4593  0.3213  0.5006
  372MOL0     C49011  -0.098   7.963   9.649 -0.2924  0.6469 -0.1277
  372MOL0     C49012  -0.222   8.050   9.624  0.6215 -0.3896 -0.4020
  372MOL0     C49013  -0.202   8.164   9.521 -0.1682 -0.4741 -0.0859
  372MOL0     C49014  -0.338   8.233   9.495 -0.8484 -0.1660 -0.8170
  372MOL0     C49015  -0.328   8.331   9.384  0.7703 -0.5578 -0.0468
  372MOL0    Cl49016  -0.273   8.256   9.230  0.0261  0.3727 -0.1748
  372MOL0     C49017   0.531   7.750   9.760 -0.0765 -0.3755  0.3534
  372MOL0     C49018   0.669   7.777   9.755  0.3253  0.1680 -0.5137
  372MOL0     O49019   0.980   7.798   9.833 -0.1762 -0.2415  0.2356
  372MOL0     C49020   1.092   8.008   9.558  0.4510  0.2486 -0.5018
  372MOL0     C49021   1.214   8.026   9.489 -0.4363  0.2192 -0.3159
  372MOL0     N49022   2.029   7.745   9.586  0.5221 -0.0597 -0.1842
  372MOL0     N49023   2.149   7.710   9.580 -0.7086 -0.1230  0.4964
  372MOL0     C49024   3.182   8.109   9.306  0.2773 -0.5983 -0.1294
  372MOL0     C49025   3.308   8.175   9.333 -0.3029 -0.2613  0.8391
  372MOL0     C49026   3.744   8.320   9.252  0.7485  0.9531 -0.5369
  372MOL0     C49027   3.870   8.307   9.200  0.0126 -0.0643  0.5846
  372MOL0     C49028   3.975   8.381   9.241 -0.7552 -0.1192  0.2908
  372MOL0     C49029   3.969   8.471   9.344  0.5043  0.3309  0.1930
  372MOL0     O49030   4.088   8.531   9.381  0.1256  0.4348  0.6547
  372MOL0     C49031   4.100   8.622   9.488  0.4142 -0.0313 -0.3072
  372MOL0     C49032   4.045   8.758   9.456 -0.4967  0.2035 -0.4172
  372MOL0     C49033   4.066   8.859   9.567 -0.7917 -0.1081  0.7963
  372MOL0     C49034   4.008   8.988   9.529  0.1851  0.1104 -0.1033
  372MOL0     C49035   4.027   9.046   9.395 -0.1798 -0.0816 -0.0782
  372MOL0     C49036   4.070   9.092   9.289  0.8798  0.5383  0.1108
  372MOL0     C49037   3.838   8.496   9.400 -1.1809  1.2114  0.9452
  372MOL0     C49038   3.731   8.416   9.349  0.3175  0.6106  0.3923
  372MOL0     H49039   3.417   8.227   9.019  1.0396  0.8663  1.2037
  372MOL0     H49040   3.185   8.115   8.981  0.5205 -1.5274 -0.8512
  372MOL0     H49041   3.017   7.976   8.960  1.6963 -0.7437  2.2807
  372MOL0     H49042   2.955   8.138   8.997 -0.3604 -0.3639  0.5670
  372MOL0     H49043   2.831   7.864   9.085  0.3369  0.2128 -0.6590
  372MOL0     H49044   2.772   7.969   8.954 -3.2720 -1.1751  1.6535
  372MOL0     H49045   2.698   8.146   9.103  1.6140  1.6596  2.4851
  372MOL0     H49046   2.767   8.054   9.238 -1.3343 -0.0850  0.5027
  372MOL0     H49047   2.545   7.935   9.060  0.5082 -2.7375  0.7456
  372MOL0     H49048   2.613   7.865   9.181  2.0421  0.0513 -1.8598
  372MOL0     H49049   2.440   8.106   9.181  0.9706  1.7734  2.6036
  372MOL0     H49050   2.519   8.055   9.328 -1.6987 -1.1092  0.2565
  372MOL0     H49051   2.385   7.836   9.174 -2.1644  0.0197  0.3266
  372MOL0     H49052   2.277   7.944   9.259  0.7319  3.6109 -2.5615
  372MOL0     H49053   2.515   7.815   9.411 -1.2035 -1.9101  0.2430
  372MOL0     H49054   2.381   7.914   9.478  0.3292  1.7848 -1.1836
  372MOL0     H49055   2.396   7.647   9.487 -1.0293  0.5563  0.4303
  372MOL0     H49056   2.344   7.652   9.317  0.1147  0.4888  0.1528
  372MOL0     H49057   2.093   7.767   9.267  1.5011 -2.2338 -0.3669
  372MOL0     H49058   1.778   7.737   9.463 -0.5261  2.2394  1.9063
  372MOL0     H49059   1.836   7.760   9.305  0.8503 -0.7987 -0.3270
  372MOL0     H49060   1.858   8.007   9.359 -1.5314  0.0007 -0.9039
  372MOL0     H49061   1.820   7.975   9.535 -0.3798  2.1314  0.2503
  372MOL0     H49062   1.643   8.078   9.389 -0.5791 -0.2156 -1.1084
  372MOL0     H49063   1.653   7.937   9.283  1.0604  0.1324 -0.0772
  372MOL0     H49064   1.574   7.925   9.579 -3.3343 -0.4498  1.2065
  372MOL0     H49065   1.565   7.800   9.453 -2.5751 -0.7827  1.2760
  372MOL0     H49066   1.416   7.795   9.638  1.5383  2.9660 -1.6796
  372MOL0     H49067   1.202   7.750   9.771 -1.0441 -1.1620 -1.1163
  372MOL0     H49068   0.671   8.101   9.695  1.8156 -1.3197  1.7716
  372MOL0     H49069   0.415   8.054   9.683 -0.3245  1.1529  1.3745
  372MOL0     H49070   0.139   7.817   9.621  0.3710 -0.8890  1.4304
  372MOL0     H49071   0.247   7.956   9.593 -1.6595 -0.6876 -0.2945
  372MOL0     H49072   0.196   8.034   9.819  2.0048 -0.6302 -3.1645
  372MOL0     H49073   0.082   7.905   9.835 -0.5138 -2.3342 -2.6860
  372MOL0     H49074   0.065   8.105   9.616 -0.5028 -0.9797 -0.8748
  372MOL0     H49075  -0.025   8.116   9.778 -1.0293  0.7717 -0.6717
  372MOL0     H49076  -0.077   7.906   9.558 -2.1728  0.7555 -0.6782
  372MOL0     H49077  -0.122   7.893   9.730 -0.7231  1.0183  0.0698
  372MOL0     H49078  -0.259   8.098   9.716  0.1956  0.2627 -0.9088
  372MOL0     H49079  -0.308   7.987   9.599  0.0300 -0.7789  2.2557
  372MOL0     H49080  -0.156   8.118   9.433 -0.5332 -1.7262  0.3624
  372MOL0     H49081  -0.125   8.231   9.559  1.2047 -2.6563  1.2056
  372MOL0     H49082  -0.404   8.151   9.465  1.3781 -2.0683 -0.8118
  372MOL0     H49083  -0.371   8.296   9.579  0.5893  1.7719 -1.6374
  372MOL0     H49084  -0.262   8.411   9.418 -1.4822  1.1829  0.4293
  372MOL0     H49085  -0.425   8.379   9.370 -0.0050 -2.0175  0.1282
  372MOL0     H49086   0.497   7.648   9.768  0.1152 -0.6010 -1.3692
  372MOL0     H49087   0.743   7.699   9.765  1.2851  1.1897  0.8282
  372MOL0     H49088   1.010   8.077   9.541  0.6542  0.5428 -0.2893
  372MOL0     H49089   1.225   8.103   9.413 -1.5448  0.6281 -0.0851
  372MOL0     H49090   3.124   8.084   9.395  1.1504 -0.3757  0.5068
  372MOL0     H49091   3.323   8.212   9.434 -0.0267 -2.1817  1.5433
  372MOL0     H49092   3.887   8.248   9.110 -2.7710 -0.4321  0.2066
  372MOL0     H49093   4.073   8.371   9.196 -0.6404  1.5933  0.0654
  372MOL0     H49094   4.200   8.644   9.528 -0.7537  1.1994  2.1015
  372MOL0     H49095   4.041   8.570   9.564 -0.6043  0.0191 -1.0530
  372MOL0     H49096   4.097   8.793   9.366 -2.0986  2.6182 -0.4925
  372MOL0     H49097   3.938   8.755   9.437 -0.3780  1.5039 -1.4384
  372MOL0     H49098   4.173   8.882   9.574 -0.3169 -1.1026 -1.9568
  372MOL0     H49099   4.028   8.826   9.664  0.7657 -0.2595  1.3846
  372MOL0     H49100   3.902   8.969   9.548  0.4021 -0.6468  0.4067
  372MOL0     H49101   4.045   9.064   9.598 -3.7896  0.2860  2.1516
  372MOL0     H49102   4.105   9.146   9.204 -0.0648 -0.1550 -0.7566
  372MOL0     H49103   3.825   8.568   9.481 -2.3266  0.2593  1.6467
  372MOL0     H49104   3.631   8.413   9.393  1.1281 -2.0055  2.3384
  373MOL0     O49105   9.218   7.502   9.627  0.0725  0.0137 -0.1360
  373MOL0     C49106   9.258   7.593   9.692 -0.9820  0.9948 -0.4719
  373MOL0     O49107   9.218   7.628   9.812 -0.1947  0.4977 -0.5101
  373MOL0     C49108   9.108   7.561   9.855  0.0611 -0.1587 -0.2423
  373MOL0     C49109   8.984   7.570   9.791 -0.5346  0.3426  0.5816
  373MOL0     C49110   8.865   7.512   9.840  0.2827  0.9122 -0.6910
  373MOL0     C49111   8.860   7.451   9.965 -0.4423  0.6478 -0.2202
  373MOL0     O49112   8.742   7.410  10.027  0.0990 -0.7444 -0.8701
  373MOL0     C49113   8.624   7.370   9.946 -0.1585  0.2814 -0.6943
  373MOL0     C49114   8.528   7.278  10.034  0.3785  0.6357 -0.1993
  373MOL0     C49115   8.448   7.365  10.139 -1.1243  0.5935  0.1395
  373MOL0     C49116   8.339   7.279  10.202  0.2725 -0.5849 -0.2626
  373MOL0     C49117   8.228   7.356  10.274 -0.2950 -0.1060  0.0912
  373MOL0     C49118   8.087   7.318  10.231  0.4031  0.1049 -0.0930
  373MOL0     C49119   7.971   7.395  10.307 -0.1786  0.1212 -0.4186
  373MOL0     C49120   7.833   7.362  10.253  0.7463  0.4699  0.5409
  373MOL0     N49121   7.722   7.393  10.344  0.0896 -0.7196 -0.4559
  373MOL0     C49122   7.703   7.515  10.400 -0.1776 -0.7393 -0.2851
  373MOL0     C49123   7.589   7.510  10.473 -0.2339  0.4162  0.1665
  373MOL0     C49124   7.534   7.596  10.579 -0.6093  0.5120  0.3736
  373MOL0     C49125   7.397   7.647  10.546  0.2243 -0.3453 -0.1773
  373MOL0     C49126   7.356   7.768  10.638  0.8015  0.4075  0.5956
  373MOL0     C49127   7.353   7.738  10.792  0.3768  0.4008  0.2367
  373MOL0     O49128   7.236   7.661  10.820  0.0511  0.1166 -0.1059
  373MOL0     C49129   7.111   7.720  10.813 -0.8073 -0.6457 -0.4093
  373MOL0     C49130   7.080   7.852  10.825  0.8366 -0.3938  0.7171
  373MOL0     C49131   6.948   7.904  10.817 -0.3170 -0.2920 -0.2210
  373MOL0     C49132   6.843   7.817  10.808 -0.2933 -0.8364  0.4441
  373MOL0     C49133   6.704   7.866  10.804  0.0440 -0.8236  0.3529
  373MOL0     O49134   6.681   8.004  10.794 -0.1831 -0.2478  0.0413
  373MOL0     C49135   6.550   8.054  10.807  0.4188  0.1455  0.5611
  373MOL0     C49136   6.521   8.114  10.924  0.2573 -0.5657  0.1965
  373MOL0     C49137   6.398   8.177  10.943 -0.2293  0.3108  1.8838
  373MOL0     C49138   6.293   8.173  10.846 -0.0390 -0.4238  0.3120
  373MOL0     O49139   6.174   8.245  10.870 -0.1123 -0.2880  0.6087
  373MOL0     C49140   6.162   8.364  10.795 -0.6725  0.0232 -0.2036
  373MOL0     C49141   6.017   8.407  10.798 -0.3123 -0.0897  0.3859
  373MOL0     C49142   6.001   8.546  10.735 -0.4328 -0.5918 -0.0872
  373MOL0     C49143   5.856   8.581  10.706 -0.1458  0.1934  0.2439
  373MOL0     C49144   5.829   8.728  10.693  0.2603  0.5694 -0.3297
  373MOL0     C49145   5.894   8.792  10.569 -0.1323 -0.6621 -0.6948
  373MOL0     C49146   5.831   8.931  10.540 -0.1010 -0.1371  0.2342
  373MOL0     C49147   5.874   8.990  10.406  0.3670 -0.3763  0.1223
  373MOL0    Cl49148   5.829   8.862  10.279  0.7269  0.1593 -0.0489
  373MOL0     C49149   6.319   8.108  10.720 -0.4183  0.1870 -0.4285
  373MOL0     C49150   6.450   8.053  10.706 -0.6588 -0.1977  0.2630
  373MOL0     O49151   6.612   7.789  10.823 -0.1973  0.0205  0.7341
  373MOL0     C49152   6.865   7.681  10.796 -0.5917 -0.4640  0.0249
  373MOL0     C49153   7.004   7.634  10.792  0.0483 -0.5815 -0.7645
  373MOL0     N49154   7.525   7.392  10.436 -0.7054  0.2590  0.1536
  373MOL0     N49155   7.603   7.327  10.362 -0.8077  0.2851  1.0044
  373MOL0     C49156   8.980   7.453  10.035 -0.3476  0.3325 -0.4120
  373MOL0     C49157   9.099   7.502   9.980  0.6234 -0.3752 -0.6270
  373MOL0     C49158   9.391   7.638   9.654 -0.2340  0.7594 -0.7923
  373MOL0     C49159   9.440   7.595   9.527 -0.3053 -0.1660  0.1353
  373MOL0     C49160   9.562   7.643   9.477 -0.9985 -0.1296 -0.2779
  373MOL0     C49161   9.643   7.731   9.555  0.2041  0.0891 -0.4961
  373MOL0     O49162   9.764   7.773   9.502  0.1349  0.6032 -0.1054
  373MOL0     C49163   9.819   7.890   9.551 -0.4185  0.0901  0.2298
  373MOL0     C49164   9.937   7.923   9.451  0.9135  0.0121  0.0183
  373MOL0     C49165  10.023   7.803   9.451 -0.7280  0.5866 -0.2489
  373MOL0     C49166  10.162   7.831   9.406 -0.0126  0.0539  0.3958
  373MOL0     C49167  10.248   7.707   9.396 -0.5115 -0.7455 -1.0127
  373MOL0     C49168  10.309   7.606   9.380  0.0987 -0.2125 -0.3118
  373MOL0     C49169   9.599   7.764   9.683  0.1548  0.3738 -0.5078
  373MOL0     C49170   9.470   7.726   9.730  0.6517  0.0065 -0.1582
  373MOL0     H49171   8.986   7.602   9.687 -0.7647 -2.4767 -0.3778
  373MOL0     H49172   8.776   7.528   9.779  0.0038 -0.8185 -0.7805
  373MOL0     H49173   8.651   7.310   9.859 -0.0822  0.3337 -0.7073
  373MOL0     H49174   8.567   7.460   9.921 -0.3950  0.2272 -0.3651
  373MOL0     H49175   8.587   7.200  10.082  2.0344  2.2334  0.5029
  373MOL0     H49176   8.457   7.241   9.960  0.1574  0.6590  0.0020
  373MOL0     H49177   8.414   7.457  10.092  0.6782  1.7650  1.0309
  373MOL0     H49178   8.517   7.400  10.216  1.8319  1.6230 -2.7168
  373MOL0     H49179   8.298   7.216  10.123 -1.9210 -0.2891  0.5698
  373MOL0     H49180   8.391   7.222  10.280  1.7024 -0.3035 -0.9675
  373MOL0     H49181   8.259   7.461  10.275  4.1596 -1.1721 -1.8315
  373MOL0     H49182   8.237   7.331  10.381 -0.4452  0.8431  0.3321
  373MOL0     H49183   8.063   7.212  10.242 -0.6678  0.5825  4.1617
  373MOL0     H49184   8.064   7.339  10.126 -1.3396 -1.6193 -0.1242
  373MOL0     H49185   7.974   7.368  10.413  0.2258  1.1739 -0.1530
  373MOL0     H49186   7.982   7.503  10.296  1.2725 -0.1814 -2.4876
  373MOL0     H49187   7.805   7.256  10.243 -2.2754  1.0019  2.0729
  373MOL0     H49188   7.816   7.418  10.160  0.3070 -0.1592  0.2312
  373MOL0     H49189   7.768   7.602  10.400  0.4035 -0.9911  3.6421
  373MOL0     H49190   7.606   7.678  10.581 -1.0827  1.0183 -1.5877
  373MOL0     H49191   7.520   7.550  10.677 -1.3012  1.0168  0.5233
  373MOL0     H49192   7.329   7.561  10.550 -0.6466  0.3486  0.5140
  373MOL0     H49193   7.389   7.676  10.440 -1.9311 -1.8306 -0.5059
  373MOL0     H49194   7.425   7.853  10.626  0.5928  0.5650  0.5158
  373MOL0     H49195   7.258   7.809  10.612  0.2862  0.3800  2.3091
  373MOL0     H49196   7.357   7.825  10.857  1.0218  0.7783 -0.2890
  373MOL0     H49197   7.436   7.679  10.831 -0.6593 -0.2720  1.4916
  373MOL0     H49198   7.166   7.918  10.832 -0.0787  0.8072  0.8004
  373MOL0     H49199   6.915   8.008  10.822 -1.4024 -0.4173 -2.8197
  373MOL0     H49200   6.592   8.121  11.006 -4.0852  0.9637  4.2599
  373MOL0     H49201   6.386   8.219  11.043 -0.7156  1.8819  1.1933
  373MOL0     H49202   6.189   8.352  10.690 -2.5317  1.8657 -0.9689
  373MOL0     H49203   6.228   8.444  10.833 -0.9131  0.6794 -1.1405
  373MOL0     H49204   5.985   8.413  10.903  0.0110 -1.6606  0.6007
  373MOL0     H49205   5.946   8.336  10.755  0.3782 -1.1280  0.9107
  373MOL0     H49206   6.058   8.553  10.642 -0.8515  2.4711 -0.2116
  373MOL0     H49207   6.036   8.616  10.812 -0.4077 -3.5319  2.8206
  373MOL0     H49208   5.822   8.533  10.614  1.1677  0.0843 -0.2007
  373MOL0     H49209   5.789   8.542  10.784  0.7651 -1.7573  0.1044
  373MOL0     H49210   5.861   8.790  10.777  0.2417  0.2758 -0.1033
  373MOL0     H49211   5.720   8.736  10.690  0.0835 -1.6331 -1.9644
  373MOL0     H49212   5.871   8.722  10.489 -2.4398  1.4547 -2.0216
  373MOL0     H49213   6.000   8.801  10.593 -0.0667 -2.2014 -0.2959
  373MOL0     H49214   5.723   8.915  10.540 -0.3761  0.9545 -3.0617
  373MOL0     H49215   5.870   8.999  10.616 -0.9708 -0.0987  0.6524
  373MOL0     H49216   5.979   9.021  10.400 -0.1336  1.4605  0.2625
  373MOL0     H49217   5.815   9.077  10.377  0.3017 -0.6439 -0.5791
  373MOL0     H49218   6.251   8.114  10.636 -0.2865 -0.8621 -0.6282
  373MOL0     H49219   6.475   8.005  10.612 -0.7572 -2.4206  1.3286
  373MOL0     H49220   6.787   7.607  10.781  0.9316 -1.9021 -1.0944
  373MOL0     H49221   7.030   7.532  10.765  0.8919 -0.2765 -1.1450
  373MOL0     H49222   8.985   7.417  10.137  0.1217  1.3192 -0.0759
  373MOL0     H49223   9.188   7.517  10.041  1.2251 -0.6812 -1.4130
  373MOL0     H49224   9.387   7.529   9.459 -1.8168 -1.0080  2.0292
  373MOL0     H49225   9.594   7.625   9.375  1.1787 -2.7954  0.7452
  373MOL0     H49226   9.862   7.893   9.651  1.1379 -1.0245 -0.3549
  373MOL0     H49227   9.742   7.968   9.547  2.1848  2.7949 -1.3167
  373MOL0     H49228   9.891   7.938   9.354  1.8715  0.3168 -0.4064
  373MOL0     H49229   9.986   8.015   9.483 -2.7953  1.6590  1.5233
  373MOL0     H49230   9.973   7.728   9.389  0.8543 -0.0692 -0.8138
  373MOL0     H49231  10.033   7.763   9.552 -0.3920  1.4442  0.0577
  373MOL0     H49232  10.182   7.875   9.308  1.9322  0.8182  1.0793
  373MOL0     H49233  10.207   7.901   9.477  0.2938  0.3679 -0.0992
  373MOL0     H49234  10.364   7.523   9.339  2.0799  0.7416  0.2533
  373MOL0     H49235   9.651   7.837   9.745  1.6959 -0.0967 -1.1964
  373MOL0     H49236   9.426   7.756   9.824  0.5492 -0.2323 -0.1282
  374MOL0     O49237   4.734   4.220   4.063 -0.7020  0.1099 -0.1825
  374MOL0     C49238   4.782   4.138   4.141  0.2358 -1.0684  0.2306
  374MOL0     O49239   4.708   4.033   4.189  0.2382 -0.4575 -0.4583
  374MOL0     C49240   4.577   4.019   4.142  0.3880 -0.1966 -0.4602
  374MOL0     C49241   4.483   4.019   4.242  0.1248 -0.0717 -0.2865
  374MOL0     C49242   4.352   3.996   4.196  0.7513 -0.4544 -0.0436
  374MOL0     C49243   4.312   3.979   4.060 -0.4821 -0.9082 -0.1396
  374MOL0     O49244   4.184   3.968   4.005 -0.5315 -0.4001 -0.1865
  374MOL0     C49245   4.069   4.001   4.077  0.2102 -0.0679  0.2867
  374MOL0     C49246   4.016   3.909   4.184 -0.6556  0.5082 -0.6379
  374MOL0     C49247   3.878   3.971   4.232 -0.1429  0.0413 -0.1333
  374MOL0     C49248   3.797   3.892   4.333  0.0562  0.0194 -1.0406
  374MOL0     C49249   3.666   3.979   4.347 -0.2548  0.6015 -0.2328
  374MOL0     C49250   3.563   3.920   4.443  0.2603  0.5567 -0.5679
  374MOL0     C49251   3.447   4.023   4.450 -0.3443 -0.1381 -0.3122
  374MOL0     C49252   3.334   3.928   4.493 -0.2946 -0.3385 -0.4874
  374MOL0     N49253   3.225   4.011   4.559 -0.2711 -0.2756  0.6982
  374MOL0     C49254   3.142   4.108   4.500  0.1685  0.0031  0.4249
  374MOL0     C49255   3.031   4.106   4.574  0.0931 -0.0868 -0.6238
  374MOL0     C49256   2.913   4.196   4.561  0.0297  0.3241  0.3234
  374MOL0     C49257   2.776   4.133   4.511 -0.4850  0.0698 -0.2521
  374MOL0     C49258   2.655   4.229   4.531 -0.3459 -0.7781 -0.1404
  374MOL0     C49259   2.519   4.168   4.505  0.0436 -0.4276 -0.1044
  374MOL0     O49260   2.489   4.064   4.608 -0.2154 -0.6823 -0.0832
  374MOL0     C49261   2.413   4.106   4.711  1.3429  0.4752  0.8697
  374MOL0     C49262   2.469   4.100   4.841  0.0737  0.7260 -0.2001
  374MOL0     C49263   2.389   4.135   4.951  0.6586  0.4872  0.1583
  374MOL0     C49264   2.258   4.179   4.931  0.4913  0.2833  0.2455
  374MOL0     C49265   2.178   4.211   5.044 -0.5946 -0.3093 -0.4295
  374MOL0     O49266   2.066   4.289   5.030 -0.1594 -0.2983 -0.3407
  374MOL0     C49267   1.974   4.307   5.129  0.7310  0.3457  0.4681
  374MOL0     C49268   1.921   4.438   5.133 -0.1866 -0.5011 -0.2076
  374MOL0     C49269   1.808   4.476   5.206  0.5230  0.0434 -0.1548
  374MOL0     C49270   1.741   4.375   5.273 -0.1293  0.1040  0.0938
  374MOL0     O49271   1.627   4.409   5.342 -0.5213 -0.9180  0.4296
  374MOL0     C49272   1.505   4.333   5.333  0.1805 -0.0381  0.4121
  374MOL0     C49273   1.387   4.405   5.394  0.0244  0.6452 -0.7140
  374MOL0     C49274   1.264   4.309   5.414  0.1751  0.0146  0.0587
  374MOL0     C49275   1.146   4.373   5.466  0.4785  0.3923  0.0999
  374MOL0     C49276   1.039   4.273   5.487  0.7344 -0.4475 -0.4607
  374MOL0     C49277   0.900   4.324   5.517 -0.0390 -0.3523  0.8055
  374MOL0     C49278   0.883   4.441   5.622 -0.0725 -0.5990 -0.3795
  374MOL0     C49279   0.766   4.527   5.584  0.0972  0.1115  0.1218
  374MOL0    Cl49280   0.616   4.425   5.572  0.2770 -0.3448 -0.3600
  374MOL0     C49281   1.788   4.243   5.269  0.8304 -0.0178  0.4045
  374MOL0     C49282   1.896   4.208   5.188  0.2653  0.0823 -0.5373
  374MOL0     O49283   2.219   4.171   5.153  0.1678 -0.4097 -0.1848
  374MOL0     C49284   2.195   4.174   4.802  0.3916 -0.1899  0.4690
  374MOL0     C49285   2.275   4.126   4.694 -0.1438  0.2438 -0.4528
  374MOL0     N49286   3.049   4.014   4.677  0.4929 -0.7900  0.0228
  374MOL0     N49287   3.165   3.957   4.665 -0.4737  0.0423  0.4419
  374MOL0     C49288   4.412   3.989   3.966 -0.6867 -0.3172  0.0677
  374MOL0     C49289   4.545   4.006   4.013  0.9728 -0.8825  0.2174
  374MOL0     C49290   4.925   4.136   4.172 -0.4539 -0.3747 -0.1736
  374MOL0     C49291   4.987   4.020   4.204 -0.0938  1.0972 -0.3680
  374MOL0     C49292   5.115   4.017   4.255 -1.0776 -0.8529  0.0461
  374MOL0     C49293   5.197   4.133   4.249  0.7162 -0.5578 -0.2122
  374MOL0     O49294   5.326   4.108   4.280  0.2978  0.3761 -0.0618
  374MOL0     C49295   5.411   4.224   4.281  0.8462  0.2231  0.1257
  374MOL0     C49296   5.532   4.198   4.367  0.0779  0.2762  1.2018
  374MOL0     C49297   5.629   4.093   4.328 -0.2260 -0.1942 -0.7468
  374MOL0     C49298   5.749   4.088   4.424  0.1984 -0.3033 -0.0367
  374MOL0     C49299   5.783   3.952   4.467  0.0415  0.4186  0.4173
  374MOL0     C49300   5.809   3.836   4.505  0.5996 -0.4757  0.6200
  374MOL0     C49301   5.138   4.255   4.208 -0.2948  1.0853 -0.1878
  374MOL0     C49302   5.007   4.254   4.169 -0.7581  0.7392 -0.7041
  374MOL0     H49303   4.505   4.031   4.347  3.4571 -2.3291 -0.5926
  374MOL0     H49304   4.274   3.997   4.272 -1.5180  0.2917 -2.2351
  374MOL0     H49305   3.992   4.017   4.001  2.0879  0.4162 -1.6342
  374MOL0     H49306   4.083   4.099   4.125 -0.6291  1.1767 -1.8432
  374MOL0     H49307   4.091   3.903   4.262 -1.0673 -0.2716 -0.2946
  374MOL0     H49308   3.992   3.808   4.150 -3.6067  0.0537  2.2615
  374MOL0     H49309   3.813   3.977   4.144  1.4490 -1.5963 -1.5002
  374MOL0     H49310   3.897   4.073   4.268  0.0330 -1.0894  3.2699
  374MOL0     H49311   3.777   3.787   4.307  1.5279 -0.7462  0.7354
  374MOL0     H49312   3.847   3.893   4.430 -0.2071  0.3266 -0.9059
  374MOL0     H49313   3.615   3.972   4.251 -0.2109  1.0281 -0.2915
  374MOL0     H49314   3.677   4.086   4.368  0.4629  0.5659 -0.3836
  374MOL0     H49315   3.613   3.891   4.536  0.3725 -1.7616 -1.3040
  374MOL0     H49316   3.524   3.827   4.401 -0.5820 -0.8521  2.9921
  374MOL0     H49317   3.458   4.104   4.522 -1.5985 -1.7927  1.8911
  374MOL0     H49318   3.432   4.057   4.347  2.2729 -1.3934 -1.1995
  374MOL0     H49319   3.359   3.859   4.574 -5.0664 -0.2138  1.4366
  374MOL0     H49320   3.294   3.873   4.407 -1.0206  2.1705 -1.8495
  374MOL0     H49321   3.151   4.166   4.409 -2.0578  2.2171  1.5152
  374MOL0     H49322   2.944   4.271   4.488  3.3574  0.2347  1.4951
  374MOL0     H49323   2.901   4.238   4.661  4.0267 -1.1240  1.5649
  374MOL0     H49324   2.756   4.051   4.580  0.1065 -1.4045 -1.7870
  374MOL0     H49325   2.787   4.098   4.408 -1.8944 -0.8161 -0.1285
  374MOL0     H49326   2.667   4.282   4.626  2.5033 -1.2896 -0.1205
  374MOL0     H49327   2.661   4.303   4.451 -0.8912 -0.2820  0.2638
  374MOL0     H49328   2.525   4.122   4.406  3.0999  0.0927 -0.2604
  374MOL0     H49329   2.442   4.245   4.509 -1.0979 -1.5716  1.4676
  374MOL0     H49330   2.571   4.066   4.862 -0.9409 -0.5848  3.3997
  374MOL0     H49331   2.435   4.133   5.049  2.1022 -1.8849 -0.4711
  374MOL0     H49332   1.971   4.515   5.076  1.6667 -0.2258  1.6733
  374MOL0     H49333   1.765   4.575   5.207 -1.2945 -0.7157  0.3241
  374MOL0     H49334   1.513   4.234   5.380  0.0934 -1.0002 -1.5246
  374MOL0     H49335   1.471   4.320   5.230  0.2848  2.8236 -0.0520
  374MOL0     H49336   1.364   4.494   5.334 -0.3571 -0.7735 -2.7462
  374MOL0     H49337   1.433   4.425   5.492  3.9112 -4.1417 -1.1542
  374MOL0     H49338   1.297   4.230   5.482  0.6867  0.0590 -0.1331
  374MOL0     H49339   1.253   4.264   5.314 -0.5243 -1.9836  0.9905
  374MOL0     H49340   1.167   4.435   5.553 -2.0859  1.0499  0.3154
  374MOL0     H49341   1.101   4.451   5.404  1.1191  0.8699  0.2223
  374MOL0     H49342   1.075   4.206   5.566  4.1020 -0.0064 -1.4798
  374MOL0     H49343   1.025   4.214   5.396 -0.1312  2.3807 -2.2710
  374MOL0     H49344   0.845   4.234   5.547 -0.8310  0.3869  1.6509
  374MOL0     H49345   0.864   4.352   5.418 -0.8174 -2.2320  0.5017
  374MOL0     H49346   0.861   4.400   5.721 -0.2601 -2.4488 -1.1521
  374MOL0     H49347   0.974   4.499   5.639 -0.3828 -0.3178  0.3755
  374MOL0     H49348   0.793   4.584   5.494 -0.4070  0.6562  0.3082
  374MOL0     H49349   0.744   4.592   5.670  0.3803  0.5458 -0.1286
  374MOL0     H49350   1.746   4.154   5.315 -0.4813 -0.3707 -1.3475
  374MOL0     H49351   1.923   4.105   5.170  0.5503  0.1578 -0.5533
  374MOL0     H49352   2.090   4.201   4.794  1.1102  2.7775  0.0497
  374MOL0     H49353   2.222   4.087   4.607  0.9242 -3.1582  0.2677
  374MOL0     H49354   4.393   3.995   3.859 -1.7514 -2.7406  0.0588
  374MOL0     H49355   4.628   3.998   3.944  1.5390 -1.2248  0.9340
  374MOL0     H49356   4.929   3.929   4.197  1.2860  0.1383  0.3305
  374MOL0     H49357   5.165   3.925   4.284  0.0687 -0.1138  0.4958
  374MOL0     H49358   5.357   4.304   4.332 -1.1811 -1.2422  0.4303
  374MOL0     H49359   5.445   4.257   4.183 -1.1894  1.8208 -0.1166
  374MOL0     H49360   5.587   4.292   4.363  0.5247  0.2174 -6.2156
  374MOL0     H49361   5.493   4.189   4.469 -2.5006  1.7459  0.4327
  374MOL0     H49362   5.664   4.107   4.225 -2.3351 -0.8191 -1.6085
  374MOL0     H49363   5.575   3.998   4.330  1.3422 -1.1452  2.2480
  374MOL0     H49364   5.839   4.137   4.383  1.4799 -0.9243  1.8824
  374MOL0     H49365   5.734   4.147   4.515 -1.2154  1.1049 -1.1349
  374MOL0     H49366   5.832   3.741   4.548  0.3166 -1.0358 -0.4287
  374MOL0     H49367   5.197   4.346   4.198 -1.5447  1.7654 -1.8423
  374MOL0     H49368   4.950   4.344   4.146 -2.2134  0.4360  1.3999
  375MOL0     O49369   7.930   5.757   0.804  0.4331  0.3994 -0.4639
  375MOL0     C49370   7.998   5.860   0.823  0.5258 -0.2158 -0.0958
  375MOL0     O49371   7.949   5.972   0.893  0.3477 -0.0341 -0.4102
  375MOL0     C49372   7.822   5.971   0.949 -0.2956  0.0903  0.6275
  375MOL0     C49373   7.701   5.934   0.874 -0.1146  0.3295 -0.6076
  375MOL0     C49374   7.581   5.942   0.939 -0.0266  0.3260  0.5861
  375MOL0     C49375   7.571   5.994   1.064 -0.6728  0.3581  0.0787
  375MOL0     O49376   7.449   6.000   1.121  0.3711 -0.1109 -0.3508
  375MOL0     C49377   7.373   5.878   1.144  0.0768  0.0078 -0.2758
  375MOL0     C49378   7.223   5.900   1.138  0.1149  0.6133 -0.3568
  375MOL0     C49379   7.173   5.894   0.993  0.0149  0.0755 -0.6133
  375MOL0     C49380   7.019   5.926   0.996  0.2150  0.0182 -0.5526
  375MOL0     C49381   6.994   6.074   0.992 -0.6084  0.0157 -0.4288
  375MOL0     C49382   6.870   6.094   0.913 -0.4245 -0.0603 -0.2323
  375MOL0     C49383   6.831   6.239   0.921 -0.1614 -1.1488 -0.4864
  375MOL0     C49384   6.683   6.279   0.889  0.1194 -0.0637  0.0348
  375MOL0     N49385   6.657   6.275   0.744  0.0350  0.4651 -0.6055
  375MOL0     C49386   6.679   6.372   0.653 -1.2335  0.9055  0.4484
  375MOL0     C49387   6.642   6.311   0.540 -0.3000  0.1428  0.3570
  375MOL0     C49388   6.637   6.391   0.404  0.6336 -0.3884  0.1521
  375MOL0     C49389   6.485   6.414   0.369 -0.3327 -0.0664  0.2853
  375MOL0     C49390   6.452   6.444   0.223 -0.4997 -0.6508 -0.3916
  375MOL0     C49391   6.313   6.505   0.209 -0.0028 -0.3557 -0.6251
  375MOL0     O49392   6.288   6.542   0.075 -0.3772  0.0389 -1.3441
  375MOL0     C49393   6.164   6.609   0.053  0.0048  0.5399  0.2243
  375MOL0     C49394   6.128   6.626  -0.085  0.0356  0.0069 -0.3559
  375MOL0     C49395   6.005   6.687  -0.120 -0.4148 -0.3938  0.2915
  375MOL0     C49396   5.912   6.720  -0.022  0.8476  0.2533 -0.9337
  375MOL0     C49397   5.778   6.778  -0.060  0.9117 -0.9116  0.3411
  375MOL0     O49398   5.739   6.884   0.022  0.1650 -0.1280  0.6048
  375MOL0     C49399   5.611   6.932  -0.008  0.3246  0.1170 -0.8643
  375MOL0     C49400   5.485   6.924   0.067 -0.4890 -0.3900 -0.7419
  375MOL0     C49401   5.372   6.992   0.023 -0.7140  0.2133 -0.5734
  375MOL0     C49402   5.374   7.064  -0.098  0.4266 -0.6781 -0.2796
  375MOL0     O49403   5.246   7.113  -0.133 -0.8971 -0.3637 -0.2047
  375MOL0     C49404   5.248   7.239  -0.188 -0.5276  0.3233 -0.3682
  375MOL0     C49405   5.114   7.282  -0.231  0.4144 -0.0998 -0.0280
  375MOL0     C49406   5.053   7.185  -0.333 -0.2585  0.3798 -0.2524
  375MOL0     C49407   4.911   7.226  -0.370 -0.0292 -0.3352  0.0427
  375MOL0     C49408   4.859   7.138  -0.489  0.3306 -0.8065 -0.3729
  375MOL0     C49409   4.712   7.171  -0.513 -0.5331 -0.1325  0.3148
  375MOL0     C49410   4.627   7.093  -0.414 -0.6377  0.9121 -0.1227
  375MOL0     C49411   4.477   7.124  -0.419 -0.1748 -0.1193 -0.3586
  375MOL0    Cl49412   4.448   7.256  -0.314 -0.0973  0.0396 -0.0343
  375MOL0     C49413   5.492   7.070  -0.176 -0.2370 -0.4555 -0.4271
  375MOL0     C49414   5.607   7.003  -0.122  0.5768 -0.2462 -0.5130
  375MOL0     O49415   5.718   6.735  -0.162 -0.3793 -0.2267  0.4379
  375MOL0     C49416   5.942   6.698   0.115 -0.4491 -0.8852  0.5546
  375MOL0     C49417   6.066   6.636   0.149  0.5863 -0.2422  0.2640
  375MOL0     N49418   6.615   6.176   0.564 -0.6868 -0.4301 -0.5647
  375MOL0     N49419   6.625   6.153   0.694  0.8368 -0.2345  0.3107
  375MOL0     C49420   7.679   6.044   1.136 -0.6678  0.0284  0.6738
  375MOL0     C49421   7.802   6.040   1.068 -0.9517 -0.7234  0.9617
  375MOL0     C49422   8.136   5.863   0.782 -0.0744 -0.0333  0.1592
  375MOL0     C49423   8.198   5.755   0.716 -0.1770  0.1558  0.5969
  375MOL0     C49424   8.330   5.752   0.674  0.0303 -0.3090 -0.1625
  375MOL0     C49425   8.412   5.867   0.694  0.5843 -0.9090 -0.1497
  375MOL0     O49426   8.548   5.885   0.653  0.0111 -0.5958  0.5465
  375MOL0     C49427   8.614   5.770   0.607 -0.2551 -0.3121  0.1836
  375MOL0     C49428   8.762   5.796   0.614  0.3673 -0.6995 -0.1397
  375MOL0     C49429   8.822   5.821   0.749  0.2912  0.0975  0.3463
  375MOL0     C49430   8.961   5.883   0.753  0.7156  0.0581 -0.9407
  375MOL0     C49431   9.018   5.887   0.893  0.0861 -0.2234 -0.0389
  375MOL0     C49432   9.068   5.887   1.009  0.5918  0.7512  0.4290
  375MOL0     C49433   8.352   5.984   0.758  0.4275  0.8336  0.2625
  375MOL0     C49434   8.218   5.980   0.804  0.3414  0.6520  0.2100
  375MOL0     H49435   7.699   5.901   0.770  0.7648  0.3528 -0.6428
  375MOL0     H49436   7.490   5.914   0.888  0.9413  2.6397 -2.6587
  375MOL0     H49437   7.395   5.842   1.245  4.5913  0.6164 -0.8244
  375MOL0     H49438   7.398   5.791   1.082 -4.1466 -0.8941 -1.0248
  375MOL0     H49439   7.204   6.000   1.178 -4.8959 -1.1695  2.5555
  375MOL0     H49440   7.172   5.821   1.193  0.6631 -0.7852 -1.7751
  375MOL0     H49441   7.183   5.789   0.961 -2.1500 -0.2690 -0.3221
  375MOL0     H49442   7.219   5.960   0.919  3.4832 -0.2820  1.0095
  375MOL0     H49443   6.982   5.882   0.903 -0.5676  0.7249 -0.5873
  375MOL0     H49444   6.976   5.884   1.088  0.2871  1.0257 -0.0442
  375MOL0     H49445   7.073   6.120   0.931 -1.2298 -0.4718 -1.6280
  375MOL0     H49446   6.984   6.120   1.090 -0.3114  0.5181 -0.6268
  375MOL0     H49447   6.787   6.037   0.958 -0.4242  0.9529  1.0901
  375MOL0     H49448   6.881   6.068   0.807 -2.2482  0.4618 -0.5862
  375MOL0     H49449   6.847   6.269   1.025 -3.8158  0.7873 -0.3191
  375MOL0     H49450   6.887   6.307   0.856 -0.5958 -2.6963 -2.6169
  375MOL0     H49451   6.672   6.386   0.910 -0.2333  0.1349 -1.1019
  375MOL0     H49452   6.625   6.224   0.963  2.9829  0.2164  2.7316
  375MOL0     H49453   6.708   6.474   0.675  1.3416 -0.0323  1.8116
  375MOL0     H49454   6.693   6.329   0.333  0.5063  0.7300 -0.9598
  375MOL0     H49455   6.688   6.487   0.420 -1.0102  0.3062  1.5150
  375MOL0     H49456   6.450   6.503   0.422 -1.9991  0.3970 -1.4713
  375MOL0     H49457   6.423   6.325   0.385 -0.0593 -0.7897 -2.3176
  375MOL0     H49458   6.529   6.518   0.202  0.8862 -2.6137 -2.6619
  375MOL0     H49459   6.467   6.360   0.156 -3.0070 -0.0642 -1.8267
  375MOL0     H49460   6.313   6.592   0.274  2.6455 -1.2866  0.7407
  375MOL0     H49461   6.235   6.438   0.247 -0.9519  1.0543  0.0089
  375MOL0     H49462   6.193   6.590  -0.164 -1.2127 -0.2209 -1.3216
  375MOL0     H49463   5.988   6.721  -0.222 -1.9618  0.7933  0.9186
  375MOL0     H49464   5.494   6.871   0.161 -2.0782 -0.9265 -0.8697
  375MOL0     H49465   5.279   6.997   0.080  0.3859  3.1138  1.1852
  375MOL0     H49466   5.324   7.235  -0.267  2.2432  2.0263  1.9876
  375MOL0     H49467   5.287   7.313  -0.118 -0.0601  0.9159 -1.2350
  375MOL0     H49468   5.121   7.376  -0.285 -1.5939 -0.6719 -1.4300
  375MOL0     H49469   5.039   7.282  -0.151 -2.1536  0.7672 -2.2879
  375MOL0     H49470   5.048   7.086  -0.286  2.1367  1.4151  2.5021
  375MOL0     H49471   5.120   7.181  -0.420  1.0407 -1.1311  0.7506
  375MOL0     H49472   4.851   7.205  -0.281 -0.0963 -1.7117 -0.3012
  375MOL0     H49473   4.897   7.332  -0.390  0.9408  0.5018  3.2881
  375MOL0     H49474   4.884   7.033  -0.470  2.6059 -0.1095  0.8463
  375MOL0     H49475   4.918   7.170  -0.575 -3.5847  2.0917 -2.2568
  375MOL0     H49476   4.685   7.139  -0.614 -3.7322  2.9723  0.0158
  375MOL0     H49477   4.696   7.279  -0.511 -1.2292 -0.2479  1.4098
  375MOL0     H49478   4.650   6.989  -0.439 -0.8864  1.1687 -1.4756
  375MOL0     H49479   4.661   7.111  -0.312  1.8961 -2.5102 -0.1489
  375MOL0     H49480   4.421   7.039  -0.379  1.8273 -0.6702  1.5009
  375MOL0     H49481   4.450   7.150  -0.522  0.2524  0.5059 -0.3197
  375MOL0     H49482   5.488   7.128  -0.268 -1.0390  2.6114  1.3913
  375MOL0     H49483   5.702   7.035  -0.166  0.6139  1.4875  0.7074
  375MOL0     H49484   5.873   6.729   0.193  0.2970 -0.4726  1.0523
  375MOL0     H49485   6.090   6.629   0.255 -0.5242  1.3591  0.6647
  375MOL0     H49486   7.678   6.091   1.233  0.8775  0.6761  0.3968
  375MOL0     H49487   7.892   6.084   1.109 -1.2303  0.5895  0.2073
  375MOL0     H49488   8.132   5.670   0.702 -2.6427  1.6938  2.1375
  375MOL0     H49489   8.366   5.659   0.630  2.7237 -0.5201  2.1534
  375MOL0     H49490   8.585   5.740   0.506 -0.6585 -1.8272  0.7338
  375MOL0     H49491   8.598   5.687   0.676 -1.5863 -0.8667 -0.7504
  375MOL0     H49492   8.809   5.717   0.555 -3.3729 -3.0181 -0.3070
  375MOL0     H49493   8.780   5.885   0.552 -2.1515  0.5174  0.7733
  375MOL0     H49494   8.822   5.728   0.808 -3.2443  1.3387  2.6537
  375MOL0     H49495   8.758   5.898   0.794 -1.3215 -0.7738 -0.3694
  375MOL0     H49496   9.030   5.820   0.697  1.5506  2.7296 -3.1367
  375MOL0     H49497   8.967   5.985   0.713 -0.1762  1.0426  1.2380
  375MOL0     H49498   9.100   5.871   1.110  2.5489 -1.4494 -0.4375
  375MOL0     H49499   8.417   6.063   0.794  2.7546 -1.6316  1.8214
  375MOL0     H49500   8.206   6.062   0.874  2.3850 -0.6948  2.2967
  376MOL0     O49501   6.768   6.680   0.627  0.2446 -0.9008 -0.7064
  376MOL0     C49502   6.777   6.794   0.580 -0.5761  0.2762  0.2909
  376MOL0     O49503   6.890   6.858   0.531 -0.2167 -0.5301  0.1813
  376MOL0     C49504   7.013   6.800   0.523 -0.6932  0.5164  0.0444
  376MOL0     C49505   7.127   6.874   0.551  0.5054 -0.4961 -1.0837
  376MOL0     C49506   7.255   6.821   0.557 -0.2395 -0.3466 -0.2838
  376MOL0     C49507   7.269   6.680   0.538  0.2451 -0.5020 -0.5396
  376MOL0     O49508   7.396   6.632   0.557  0.0708 -0.4471  0.4467
  376MOL0     C49509   7.436   6.492   0.554 -0.3456  0.1693  0.9434
  376MOL0     C49510   7.367   6.420   0.666  0.1973  0.6404 -0.3174
  376MOL0     C49511   7.427   6.277   0.694  0.2423  0.0696 -0.6447
  376MOL0     C49512   7.429   6.186   0.570  0.2292 -0.5892  0.5189
  376MOL0     C49513   7.285   6.162   0.512 -0.3419  0.5393  0.2245
  376MOL0     C49514   7.198   6.082   0.608 -0.3404 -0.3846  0.3389
  376MOL0     C49515   7.072   6.026   0.542 -0.1474 -0.2789 -0.5578
  376MOL0     C49516   6.970   6.129   0.505  0.6003 -0.5607  0.1215
  376MOL0     N49517   6.991   6.195   0.377 -0.0442  0.4374 -0.1184
  376MOL0     C49518   6.976   6.132   0.253  1.0585 -0.6113  0.2049
  376MOL0     C49519   6.989   6.227   0.158 -0.3209 -0.6193 -0.2982
  376MOL0     C49520   6.952   6.213   0.013 -0.2429 -0.4237  0.2969
  376MOL0     C49521   6.807   6.254  -0.020  0.3667  0.2986 -0.2421
  376MOL0     C49522   6.779   6.217  -0.164 -0.6047  0.5501  0.1821
  376MOL0     C49523   6.667   6.292  -0.229 -0.5199  0.0337 -0.1233
  376MOL0     O49524   6.548   6.291  -0.154  0.1062 -0.5591 -0.2423
  376MOL0     C49525   6.426   6.324  -0.209 -0.4666 -0.2865  0.3623
  376MOL0     C49526   6.322   6.287  -0.121 -0.6278  0.4278 -0.6726
  376MOL0     C49527   6.185   6.293  -0.153  0.4721 -0.0842  0.3192
  376MOL0     C49528   6.143   6.339  -0.271 -0.2609 -0.2424  0.7044
  376MOL0     C49529   5.996   6.367  -0.298  0.1102  0.4465 -0.2615
  376MOL0     O49530   5.959   6.391  -0.421  0.3470 -0.2774  0.2831
  376MOL0     C49531   5.830   6.418  -0.462  0.5808 -0.0196 -0.1978
  376MOL0     C49532   5.729   6.481  -0.390  0.0911  0.2238 -0.7601
  376MOL0     C49533   5.601   6.498  -0.436 -0.1257 -0.4444 -0.3097
  376MOL0     C49534   5.579   6.456  -0.565  0.6312 -0.8588 -0.7918
  376MOL0     O49535   5.448   6.471  -0.606 -0.1643 -0.7016  0.3442
  376MOL0     C49536   5.388   6.356  -0.674  0.1261  0.1189 -0.5626
  376MOL0     C49537   5.230   6.362  -0.686  0.3034  0.3234 -0.1417
  376MOL0     C49538   5.179   6.487  -0.753  0.7509  1.1113 -0.7041
  376MOL0     C49539   5.031   6.489  -0.767 -0.0333  0.2108  0.4289
  376MOL0     C49540   4.972   6.379  -0.842  0.2895  0.2324 -0.4290
  376MOL0     C49541   4.826   6.408  -0.876 -0.2158  0.2807 -0.7491
  376MOL0     C49542   4.765   6.275  -0.924  1.0139  0.4495 -0.3522
  376MOL0     C49543   4.628   6.295  -0.976 -0.1472 -0.4160  0.2749
  376MOL0    Cl49544   4.512   6.343  -0.857 -0.0428 -0.0094  0.0117
  376MOL0     C49545   5.680   6.400  -0.649  0.5794  0.1849  0.4641
  376MOL0     C49546   5.802   6.378  -0.596  0.2874  0.7192 -0.7498
  376MOL0     O49547   5.921   6.342  -0.205 -0.0937 -0.4921  0.2386
  376MOL0     C49548   6.243   6.376  -0.362  0.2960 -1.0229  0.1752
  376MOL0     C49549   6.381   6.374  -0.334 -0.7939  0.3035  0.1165
  376MOL0     N49550   7.001   6.349   0.220 -0.5723 -0.0065 -0.1252
  376MOL0     N49551   6.999   6.329   0.355 -0.6107 -0.2090  0.3406
  376MOL0     C49552   7.153   6.610   0.492 -0.7895  0.4065  0.8772
  376MOL0     C49553   7.030   6.665   0.480 -0.1269 -0.2955 -0.0741
  376MOL0     C49554   6.652   6.870   0.584 -0.1459  0.0418 -0.2610
  376MOL0     C49555   6.531   6.815   0.589 -0.0138  0.0471  0.3197
  376MOL0     C49556   6.412   6.887   0.562 -0.7281  0.2235  0.2106
  376MOL0     C49557   6.408   7.023   0.543 -0.1339 -0.3056 -0.3455
  376MOL0     O49558   6.290   7.091   0.529  0.0873 -0.0111  0.0410
  376MOL0     C49559   6.296   7.219   0.589  0.4318  0.3837 -0.1260
  376MOL0     C49560   6.153   7.258   0.606  0.0543  0.1851  0.3542
  376MOL0     C49561   6.105   7.356   0.500 -0.8764 -0.8415  0.7198
  376MOL0     C49562   5.957   7.365   0.512 -0.8285 -0.2012  0.6825
  376MOL0     C49563   5.894   7.478   0.439 -0.2541  0.2741  0.1304
  376MOL0     C49564   5.826   7.558   0.383 -0.2193  0.1476  0.4464
  376MOL0     C49565   6.536   7.082   0.539  0.1470 -0.5991  0.3374
  376MOL0     C49566   6.655   7.008   0.565  0.5027 -0.1997  1.0266
  376MOL0     H49567   7.112   6.979   0.575  0.9236 -0.5176 -0.7000
  376MOL0     H49568   7.343   6.876   0.587  0.9684 -1.8453 -0.8998
  376MOL0     H49569   7.542   6.487   0.580 -0.3349  0.0740  0.8855
  376MOL0     H49570   7.418   6.444   0.457 -0.0153  1.2324  0.3409
  376MOL0     H49571   7.258   6.411   0.661  0.3068 -1.5333  0.1447
  376MOL0     H49572   7.382   6.485   0.753 -0.3867  2.6642 -1.6526
  376MOL0     H49573   7.365   6.230   0.771 -0.2066  2.6920  0.7478
  376MOL0     H49574   7.527   6.285   0.738 -0.7166 -2.1144  2.3233
  376MOL0     H49575   7.487   6.240   0.494  0.6687  0.9322  1.8913
  376MOL0     H49576   7.483   6.092   0.585  1.1094 -0.4032 -1.1365
  376MOL0     H49577   7.295   6.108   0.418  4.0046  1.5849 -0.1306
  376MOL0     H49578   7.236   6.257   0.490  3.3976  2.9514  1.4782
  376MOL0     H49579   7.174   6.145   0.694 -0.9715  0.0910 -0.1753
  376MOL0     H49580   7.249   5.993   0.648 -0.9408 -0.3716  1.1565
  376MOL0     H49581   7.091   5.966   0.453  1.0742 -3.9566  1.9444
  376MOL0     H49582   7.027   5.952   0.610 -2.2858  1.3637 -0.0653
  376MOL0     H49583   6.958   6.206   0.581  0.7852  2.4467 -2.6797
  376MOL0     H49584   6.871   6.082   0.512  0.8644 -1.0363  0.7737
  376MOL0     H49585   6.951   6.028   0.232  1.4188 -0.2832 -2.0896
  376MOL0     H49586   6.979   6.112  -0.018  0.0718 -0.1563 -0.3113
  376MOL0     H49587   7.024   6.280  -0.034  3.1300 -4.8754 -1.6292
  376MOL0     H49588   6.798   6.358   0.012 -3.1014 -0.1711  0.7190
  376MOL0     H49589   6.736   6.206   0.049 -1.1150  0.1502 -1.8151
  376MOL0     H49590   6.872   6.238  -0.217  0.0174  0.0641  1.0501
  376MOL0     H49591   6.754   6.111  -0.177  4.9949 -0.9983 -0.5747
  376MOL0     H49592   6.653   6.254  -0.331 -1.7188 -2.7354  0.9773
  376MOL0     H49593   6.711   6.390  -0.251  0.7730 -0.3903  0.4711
  376MOL0     H49594   6.345   6.235  -0.028 -1.0158  0.0309 -0.7956
  376MOL0     H49595   6.117   6.271  -0.071 -0.1362  2.1625  0.4848
  376MOL0     H49596   5.751   6.514  -0.289  0.7869 -0.2065 -0.7646
  376MOL0     H49597   5.523   6.530  -0.367  0.0063  1.7548 -1.1050
  376MOL0     H49598   5.426   6.263  -0.632 -0.9427 -0.1364 -0.1374
  376MOL0     H49599   5.417   6.346  -0.779  2.1382 -2.5175  0.1347
  376MOL0     H49600   5.183   6.370  -0.588 -2.3577  1.8178 -1.4539
  376MOL0     H49601   5.192   6.276  -0.741  0.8820  0.0165 -0.0753
  376MOL0     H49602   5.227   6.488  -0.851 -0.3364  1.5831 -1.2509
  376MOL0     H49603   5.208   6.578  -0.698 -1.1815  2.1966 -1.3840
  376MOL0     H49604   4.984   6.491  -0.668 -0.8647  0.6322  0.0360
  376MOL0     H49605   5.013   6.587  -0.812 -1.1048 -0.2293 -0.1190
  376MOL0     H49606   4.974   6.285  -0.787 -3.5783 -1.1899 -2.3544
  376MOL0     H49607   5.022   6.350  -0.935  2.4072 -0.3182  0.7959
  376MOL0     H49608   4.828   6.478  -0.960  0.7052  1.3127  0.1187
  376MOL0     H49609   4.784   6.443  -0.782  1.5120  1.7541 -0.4681
  376MOL0     H49610   4.830   6.235  -1.002  0.3338  1.2604 -1.3565
  376MOL0     H49611   4.753   6.201  -0.844 -1.0000  1.0843 -0.0138
  376MOL0     H49612   4.596   6.199  -1.017  0.1733  0.4169 -2.0569
  376MOL0     H49613   4.637   6.360  -1.063  0.0682 -0.1061  0.5267
  376MOL0     H49614   5.658   6.382  -0.754 -2.2657  0.7583  0.8820
  376MOL0     H49615   5.880   6.322  -0.647 -0.7406 -1.4129 -0.1042
  376MOL0     H49616   6.207   6.416  -0.456  2.0012  0.5283  0.1191
  376MOL0     H49617   6.452   6.409  -0.407 -1.5884  2.3251  0.2563
  376MOL0     H49618   7.174   6.506   0.468  1.6838  1.3839 -1.6759
  376MOL0     H49619   6.957   6.605   0.427 -0.3413  2.6779 -3.5398
  376MOL0     H49620   6.524   6.707   0.596 -1.1094 -0.0358 -1.4454
  376MOL0     H49621   6.321   6.827   0.564 -0.3765 -0.3715 -0.8439
  376MOL0     H49622   6.350   7.280   0.515  3.4088 -1.0615  0.6924
  376MOL0     H49623   6.347   7.226   0.685  0.7002  2.2229 -0.3633
  376MOL0     H49624   6.086   7.171   0.601  0.1899 -0.0890  2.2904
  376MOL0     H49625   6.140   7.297   0.707 -0.5180  0.3822  0.2072
  376MOL0     H49626   6.135   7.320   0.401 -3.9761  1.5011 -1.2558
  376MOL0     H49627   6.147   7.456   0.508 -1.2415 -0.6436  0.1625
  376MOL0     H49628   5.905   7.277   0.474 -2.3454  1.4309 -1.2620
  376MOL0     H49629   5.943   7.363   0.621  0.7194  1.4486  0.9776
  376MOL0     H49630   5.759   7.622   0.329 -0.9102 -2.0543 -1.5149
  376MOL0     H49631   6.547   7.189   0.549 -1.4128 -0.6357  4.4968
  376MOL0     H49632   6.740   7.072   0.541 -1.1449  0.9461 -2.4742
  377MOL0     O49633   1.426   5.471   4.117  0.0422  0.3924  0.3631
  377MOL0     C49634   1.471   5.550   4.197  0.1429 -0.5032  0.5607
  377MOL0     O49635   1.402   5.638   4.276 -0.1380  0.0593 -0.0959
  377MOL0     C49636   1.270   5.627   4.263  0.3912  0.0023 -0.6604
  377MOL0     C49637   1.198   5.745   4.224 -1.0629  0.2211 -0.1964
  377MOL0     C49638   1.063   5.739   4.204 -0.4081  0.5735 -1.0031
  377MOL0     C49639   0.983   5.629   4.231 -0.4001 -0.7465  0.1270
  377MOL0     O49640   0.843   5.632   4.207  0.5408 -0.3943 -0.1831
  377MOL0     C49641   0.778   5.714   4.311 -0.2232  0.9203 -0.5383
  377MOL0     C49642   0.621   5.697   4.320  0.0931  0.4324 -0.6576
  377MOL0     C49643   0.589   5.557   4.367  0.0756 -0.2928 -1.0119
  377MOL0     C49644   0.450   5.557   4.430 -0.4603  0.1817 -0.5369
  377MOL0     C49645   0.460   5.580   4.583  0.1560 -0.8105  1.1893
  377MOL0     C49646   0.318   5.614   4.635  0.6713  0.1047 -0.8241
  377MOL0     C49647   0.332   5.650   4.781  0.0507  0.4082 -0.2880
  377MOL0     C49648   0.191   5.667   4.846 -0.2454  0.9336 -0.2833
  377MOL0     N49649   0.071   5.581   4.824 -0.5499  1.1698 -0.2799
  377MOL0     C49650   0.027   5.508   4.714 -0.9390 -0.3870 -1.1085
  377MOL0     C49651  -0.057   5.415   4.751 -0.3286  0.4181  0.7236
  377MOL0     C49652  -0.117   5.310   4.660 -0.3467  0.4362  0.3519
  377MOL0     C49653  -0.263   5.364   4.641 -0.5583  0.0230  0.5691
  377MOL0     C49654  -0.341   5.271   4.543 -0.8179  0.4167 -0.4329
  377MOL0     C49655  -0.486   5.285   4.545  0.4403 -0.6609  0.4614
  377MOL0     O49656  -0.537   5.267   4.680 -0.6948  0.6940 -0.1522
  377MOL0     C49657  -0.665   5.308   4.719 -0.0978 -0.1328 -0.9100
  377MOL0     C49658  -0.668   5.365   4.849  0.4708  0.3158 -0.2227
  377MOL0     C49659  -0.791   5.390   4.916  0.0578 -0.1456  0.6743
  377MOL0     C49660  -0.907   5.349   4.850  0.6930 -0.1948 -0.1044
  377MOL0     C49661  -1.037   5.356   4.917  0.6500 -0.3420 -0.0142
  377MOL0     O49662  -1.045   5.403   5.047  0.8890  0.6417  0.3364
  377MOL0     C49663  -1.167   5.412   5.107 -0.7455  0.9635  0.4493
  377MOL0     C49664  -1.184   5.370   5.237  0.3714 -0.4246  0.0728
  377MOL0     C49665  -1.304   5.394   5.309  0.2217  0.8705  0.4831
  377MOL0     C49666  -1.421   5.443   5.244  0.3541 -0.2865  0.1397
  377MOL0     O49667  -1.542   5.440   5.314 -0.6987 -0.4071  1.1326
  377MOL0     C49668  -1.653   5.374   5.249  0.0462  0.0173  0.7677
  377MOL0     C49669  -1.685   5.253   5.331  0.0189  0.0666 -0.5964
  377MOL0     C49670  -1.772   5.149   5.266  0.0541  0.0090  0.1308
  377MOL0     C49671  -1.896   5.205   5.193 -0.4936  1.0079 -0.0641
  377MOL0     C49672  -1.976   5.109   5.114 -0.0003  0.3099 -0.2913
  377MOL0     C49673  -2.087   5.032   5.188  0.7904 -0.2259 -0.8663
  377MOL0     C49674  -2.179   5.120   5.274 -0.0007 -0.8408  0.9830
  377MOL0     C49675  -2.308   5.046   5.305 -0.5278 -0.4783 -0.2864
  377MOL0    Cl49676  -2.277   4.946   5.455 -0.0718  0.6183  0.4529
  377MOL0     C49677  -1.402   5.498   5.114 -0.7497  0.1439  0.0107
  377MOL0     C49678  -1.280   5.475   5.055  0.7992  0.7331  1.0158
  377MOL0     O49679  -1.140   5.323   4.857  0.1613  0.7725  0.0928
  377MOL0     C49680  -0.901   5.317   4.707 -0.3242 -0.2510 -0.8310
  377MOL0     C49681  -0.778   5.291   4.651 -0.1428  0.0718  0.1221
  377MOL0     N49682  -0.085   5.440   4.880  0.2731  0.7570  0.5498
  377MOL0     N49683  -0.008   5.539   4.926 -0.1076 -0.0420 -0.3813
  377MOL0     C49684   1.043   5.516   4.284 -0.7530  0.0434 -0.4625
  377MOL0     C49685   1.187   5.508   4.295 -0.0504 -0.3178  0.1799
  377MOL0     C49686   1.620   5.551   4.215 -0.2678  1.0230  0.0504
  377MOL0     C49687   1.697   5.472   4.131  0.1473  0.5343  0.0164
  377MOL0     C49688   1.835   5.465   4.135 -0.0098  0.3313 -0.3827
  377MOL0     C49689   1.902   5.534   4.242  0.1492  0.1352  0.4943
  377MOL0     O49690   2.038   5.512   4.252 -0.6617 -0.1669  0.0214
  377MOL0     C49691   2.109   5.617   4.326  0.0464 -0.0598 -0.0652
  377MOL0     C49692   2.260   5.599   4.306 -0.6135 -0.0446  0.5408
  377MOL0     C49693   2.310   5.489   4.410 -0.3175 -0.2152 -0.0758
  377MOL0     C49694   2.435   5.421   4.359  0.5723  0.2349 -0.7035
  377MOL0     C49695   2.540   5.516   4.338 -0.4027  0.2948  0.0541
  377MOL0     C49696   2.631   5.590   4.318 -0.1968 -0.2488 -1.5060
  377MOL0     C49697   1.826   5.609   4.338  1.4622 -0.6726 -0.3407
  377MOL0     C49698   1.683   5.627   4.316 -0.4097 -0.4486  0.1361
  377MOL0     H49699   1.257   5.835   4.217  1.2925 -1.2178  0.1118
  377MOL0     H49700   1.012   5.830   4.174 -1.2654  0.3064 -0.3710
  377MOL0     H49701   0.805   5.819   4.296  1.1776  0.6549 -0.0500
  377MOL0     H49702   0.818   5.685   4.409  1.9190 -1.1241 -1.9098
  377MOL0     H49703   0.572   5.716   4.224 -0.0793 -0.5523 -0.7724
  377MOL0     H49704   0.582   5.766   4.396 -0.1254 -1.4127  0.9816
  377MOL0     H49705   0.664   5.524   4.439 -0.2129 -3.3956 -1.9646
  377MOL0     H49706   0.607   5.481   4.291  2.3354  0.3508 -1.1960
  377MOL0     H49707   0.381   5.628   4.383 -3.4412 -0.6470  2.1778
  377MOL0     H49708   0.409   5.456   4.422 -0.6108  0.1767  0.2015
  377MOL0     H49709   0.525   5.662   4.613  1.6579 -1.1193 -1.0044
  377MOL0     H49710   0.491   5.482   4.620 -0.1130 -0.4658  2.3675
  377MOL0     H49711   0.251   5.528   4.632  0.2081  0.4021  0.3951
  377MOL0     H49712   0.278   5.701   4.580  0.9348  0.5648 -0.2985
  377MOL0     H49713   0.396   5.572   4.823  2.4351  2.7718  0.7347
  377MOL0     H49714   0.390   5.741   4.798  0.2968 -0.0041  1.1819
  377MOL0     H49715   0.152   5.766   4.820 -2.0490  0.0611 -1.1125
  377MOL0     H49716   0.203   5.672   4.954  1.4582  0.6019 -0.4364
  377MOL0     H49717   0.055   5.541   4.615  3.0628 -0.1241 -0.0663
  377MOL0     H49718  -0.116   5.207   4.697 -0.4628  0.4273  0.3315
  377MOL0     H49719  -0.073   5.321   4.560 -3.6157  1.5082 -1.1155
  377MOL0     H49720  -0.254   5.461   4.592  0.0338 -0.4455 -0.2750
  377MOL0     H49721  -0.310   5.376   4.740 -0.8696  2.2974  0.2079
  377MOL0     H49722  -0.303   5.292   4.443  2.9170  0.0661  0.7197
  377MOL0     H49723  -0.323   5.166   4.567 -0.9988  0.5749  0.4604
  377MOL0     H49724  -0.529   5.214   4.474  0.8536  1.0964 -1.6846
  377MOL0     H49725  -0.513   5.383   4.504 -0.6876 -0.9606  0.4685
  377MOL0     H49726  -0.577   5.388   4.904  0.6489  0.4379 -0.5660
  377MOL0     H49727  -0.801   5.443   5.010 -0.4102  2.1910 -0.5859
  377MOL0     H49728  -1.098   5.327   5.287  0.7852 -0.7817 -0.9409
  377MOL0     H49729  -1.319   5.351   5.407 -3.4817  0.8791  0.0573
  377MOL0     H49730  -1.630   5.341   5.147  1.6658 -0.0124  1.1209
  377MOL0     H49731  -1.737   5.442   5.233 -1.0719 -1.7966 -2.0392
  377MOL0     H49732  -1.720   5.279   5.431  3.5324  0.1295  0.7724
  377MOL0     H49733  -1.589   5.207   5.359  1.2117  2.4593 -0.4809
  377MOL0     H49734  -1.797   5.074   5.341  1.7472 -2.3137 -1.4839
  377MOL0     H49735  -1.713   5.091   5.195 -0.6479 -0.7588  0.1670
  377MOL0     H49736  -1.962   5.254   5.265  0.5743 -1.2540  2.5970
  377MOL0     H49737  -1.870   5.293   5.133 -0.0301  2.5386  2.2505
  377MOL0     H49738  -1.908   5.039   5.065 -1.9073 -1.2946 -0.7932
  377MOL0     H49739  -2.022   5.163   5.031  2.0166  0.3996 -1.4337
  377MOL0     H49740  -2.037   4.968   5.261 -0.0036 -0.6034 -0.6472
  377MOL0     H49741  -2.145   4.965   5.124  0.6563  0.0959 -1.0855
  377MOL0     H49742  -2.127   5.131   5.370 -1.8738  0.1814  1.9305
  377MOL0     H49743  -2.203   5.212   5.221  0.7853 -0.3432  1.4668
  377MOL0     H49744  -2.344   4.982   5.224 -0.5631  1.3336 -1.7885
  377MOL0     H49745  -2.380   5.126   5.328  1.3637  0.9426  1.1055
  377MOL0     H49746  -1.486   5.553   5.073 -0.8786  1.1267  1.5146
  377MOL0     H49747  -1.284   5.523   4.958 -1.7683  0.2393  0.7972
  377MOL0     H49748  -0.988   5.304   4.643 -0.3277 -1.2008 -0.6617
  377MOL0     H49749  -0.766   5.255   4.549 -2.1978 -0.1259 -0.1105
  377MOL0     H49750   0.985   5.430   4.317 -3.1026  2.0901  1.0773
  377MOL0     H49751   1.235   5.421   4.339  0.8645  0.1739  0.1709
  377MOL0     H49752   1.647   5.404   4.063  1.5251  0.3515 -0.8615
  377MOL0     H49753   1.893   5.402   4.068  0.1435 -1.9689  1.7325
  377MOL0     H49754   2.087   5.617   4.433  2.2156  1.3174  0.4560
  377MOL0     H49755   2.066   5.710   4.289 -0.7179 -0.1255  0.6332
  377MOL0     H49756   2.272   5.561   4.204 -1.3505 -2.0417  1.1467
  377MOL0     H49757   2.314   5.694   4.319  0.0491 -0.6281  2.2915
  377MOL0     H49758   2.243   5.404   4.422  1.2741 -1.5283 -0.0343
  377MOL0     H49759   2.332   5.526   4.510 -1.8924 -0.4760  0.3902
  377MOL0     H49760   2.465   5.347   4.433  2.4288  0.5163 -1.1189
  377MOL0     H49761   2.407   5.378   4.263 -0.2245 -0.8199 -0.0207
  377MOL0     H49762   2.714   5.654   4.293  0.0112  0.2908  0.4084
  377MOL0     H49763   1.860   5.666   4.424  0.5759  0.7988 -0.9135
  377MOL0     H49764   1.626   5.680   4.392  1.3635 -1.9528  2.6445
  378MOL0     O49765   7.988   1.996   4.669 -0.3067 -0.3722  0.9548
  378MOL0     C49766   8.002   1.952   4.783  0.0152 -0.8076  0.7201
  378MOL0     O49767   7.903   1.931   4.876  0.3155 -0.3657 -0.3055
  378MOL0     C49768   7.774   1.968   4.854 -0.4058  0.5328  0.2686
  378MOL0     C49769   7.676   1.902   4.938 -0.2248  0.4794 -0.3022
  378MOL0     C49770   7.537   1.911   4.916 -0.5057 -0.2118 -0.2537
  378MOL0     C49771   7.486   1.983   4.807 -0.6235 -0.1908  0.2430
  378MOL0     O49772   7.346   1.998   4.790  0.7346  0.7269  0.4457
  378MOL0     C49773   7.268   2.016   4.908 -0.8940 -0.1597  0.0354
  378MOL0     C49774   7.121   2.030   4.894  0.2176  0.0298  0.0273
  378MOL0     C49775   7.081   2.153   4.813 -0.2442 -0.3870  0.5636
  378MOL0     C49776   6.926   2.183   4.826 -0.2621 -0.1343 -0.5306
  378MOL0     C49777   6.890   2.292   4.723  0.1506 -0.0442  0.2049
  378MOL0     C49778   6.751   2.340   4.739  0.0032  0.2901  0.2524
  378MOL0     C49779   6.719   2.463   4.642 -0.5407  0.1528 -0.2054
  378MOL0     C49780   6.754   2.437   4.480 -0.0833 -0.0647 -0.3922
  378MOL0     N49781   6.645   2.466   4.393  0.2137  0.1280  0.3884
  378MOL0     C49782   6.600   2.591   4.369 -0.6831  0.2857 -0.6472
  378MOL0     C49783   6.505   2.585   4.272 -0.0658  0.2641 -0.8523
  378MOL0     C49784   6.413   2.693   4.221 -0.1210  0.0174  0.8586
  378MOL0     C49785   6.269   2.643   4.217  0.6942  0.1560 -0.4255
  378MOL0     C49786   6.181   2.755   4.155 -0.6254 -0.0242  0.1121
  378MOL0     C49787   6.036   2.729   4.165 -0.1957  0.1264 -0.0687
  378MOL0     O49788   6.001   2.720   4.304 -0.2572  0.7593 -0.3904
  378MOL0     C49789   5.872   2.722   4.340  1.3330  0.4294 -1.2094
  378MOL0     C49790   5.841   2.742   4.476  0.1595 -0.8533  0.1966
  378MOL0     C49791   5.711   2.764   4.523 -0.2895  0.3344 -0.7659
  378MOL0     C49792   5.604   2.748   4.431  0.0878  0.0450 -0.3820
  378MOL0     C49793   5.463   2.736   4.481 -0.2492  0.0344 -0.6196
  378MOL0     O49794   5.451   2.768   4.617  0.3659  0.4548 -0.3273
  378MOL0     C49795   5.330   2.752   4.683 -0.5220 -0.1169  0.4947
  378MOL0     C49796   5.296   2.864   4.763 -0.2882 -0.1828  0.7258
  378MOL0     C49797   5.180   2.862   4.828 -0.3505  0.5099 -0.4652
  378MOL0     C49798   5.104   2.740   4.839  0.5374  0.6666 -1.0607
  378MOL0     O49799   4.980   2.734   4.907  0.4226 -0.1752  0.2809
  378MOL0     C49800   4.962   2.830   5.009 -0.4430  0.2246  0.1178
  378MOL0     C49801   4.862   2.789   5.109 -0.3037  0.1637 -0.0537
  378MOL0     C49802   4.719   2.800   5.037 -0.5960 -0.3054 -0.3394
  378MOL0     C49803   4.678   2.945   5.036  0.5365 -0.6513 -0.7917
  378MOL0     C49804   4.538   2.946   4.969  0.0630 -0.2237 -0.5214
  378MOL0     C49805   4.454   3.068   5.000  1.0534 -0.7822  0.2859
  378MOL0     C49806   4.321   3.076   4.917 -0.5448 -0.3936  0.1273
  378MOL0     C49807   4.315   3.173   4.804 -0.0829  0.7964  0.0623
  378MOL0    Cl49808   4.421   3.135   4.674  0.4073 -0.6395 -0.0081
  378MOL0     C49809   5.147   2.627   4.768 -0.4058  0.1696  0.0516
  378MOL0     C49810   5.258   2.629   4.686  0.3152  0.9077 -0.2386
  378MOL0     O49811   5.375   2.702   4.403 -0.4826 -0.5120 -0.1951
  378MOL0     C49812   5.629   2.716   4.297 -0.3360 -0.0874 -0.0822
  378MOL0     C49813   5.763   2.703   4.255  0.0704  0.8228 -0.0396
  378MOL0     N49814   6.501   2.447   4.243 -0.3686  0.1158  0.0497
  378MOL0     N49815   6.586   2.380   4.312 -0.2906  0.7419  0.1170
  378MOL0     C49816   7.577   2.034   4.714  0.5560 -0.4658 -0.5410
  378MOL0     C49817   7.717   2.031   4.741 -0.1746  0.7160 -0.1450
  378MOL0     C49818   8.139   1.945   4.836  0.1087  0.1933 -0.1518
  378MOL0     C49819   8.240   1.996   4.767  0.1221 -0.1538  0.3924
  378MOL0     C49820   8.371   1.986   4.814  0.0446 -0.0931  0.2956
  378MOL0     C49821   8.404   1.926   4.932  0.6938  0.1605 -0.2385
  378MOL0     O49822   8.531   1.909   4.989 -0.3047 -0.3702  0.0472
  378MOL0     C49823   8.646   1.968   4.926  1.1489 -0.9883  0.3440
  378MOL0     C49824   8.671   2.111   4.961  0.2323 -0.5509  0.1530
  378MOL0     C49825   8.664   2.144   5.112 -0.4414  1.3994  0.1364
  378MOL0     C49826   8.663   2.298   5.143  0.6723 -0.5270  0.2612
  378MOL0     C49827   8.533   2.374   5.117 -0.9079 -1.1332 -1.3238
  378MOL0     C49828   8.430   2.435   5.116  0.1068  0.3051 -0.3218
  378MOL0     C49829   8.300   1.884   5.008 -0.4655 -0.2637  0.4739
  378MOL0     C49830   8.163   1.888   4.963  0.7117  0.2394 -0.1926
  378MOL0     H49831   7.715   1.841   5.019  1.4250  2.7902  0.7684
  378MOL0     H49832   7.468   1.850   4.974 -2.9915  0.6294 -2.1877
  378MOL0     H49833   7.308   2.106   4.957  1.7647 -1.0719 -0.2526
  378MOL0     H49834   7.270   1.932   4.978  1.0692  1.2804  1.8484
  378MOL0     H49835   7.068   2.035   4.990 -1.4704  1.0508 -0.9095
  378MOL0     H49836   7.077   1.954   4.829 -0.0060  1.8265 -2.0455
  378MOL0     H49837   7.116   2.150   4.710 -2.0075  2.1040 -0.1827
  378MOL0     H49838   7.134   2.237   4.859  1.0364 -0.6389 -0.4164
  378MOL0     H49839   6.875   2.089   4.803 -1.5826  0.1861  0.9516
  378MOL0     H49840   6.908   2.217   4.928  4.5254  1.5255  0.0265
  378MOL0     H49841   6.903   2.248   4.624 -0.4261 -1.2429  0.6429
  378MOL0     H49842   6.956   2.378   4.736  0.0230  0.1940 -0.6781
  378MOL0     H49843   6.735   2.368   4.843  0.6428  1.5416  0.0258
  378MOL0     H49844   6.680   2.262   4.709 -1.1843  1.5009 -0.2334
  378MOL0     H49845   6.614   2.491   4.651 -0.7719 -1.2103  2.5473
  378MOL0     H49846   6.779   2.547   4.678 -0.5592  0.4927 -0.9464
  378MOL0     H49847   6.802   2.341   4.459  3.6601  1.9200 -1.9211
  378MOL0     H49848   6.829   2.513   4.455 -1.3835  2.0586  1.7164
  378MOL0     H49849   6.629   2.684   4.416  0.9843  1.4516 -3.6587
  378MOL0     H49850   6.444   2.719   4.120  0.8475  0.3435  1.2284
  378MOL0     H49851   6.416   2.781   4.286  2.2226 -0.6043  1.7097
  378MOL0     H49852   6.230   2.614   4.315  1.8919 -2.6919 -0.6688
  378MOL0     H49853   6.275   2.555   4.152  1.7697  0.3818 -0.6486
  378MOL0     H49854   6.204   2.857   4.187  3.0340  0.0681 -2.2456
  378MOL0     H49855   6.209   2.769   4.050 -0.2577 -0.0536  0.2032
  378MOL0     H49856   6.022   2.639   4.105  0.6995 -0.8023  1.0499
  378MOL0     H49857   5.988   2.817   4.122  1.5772  1.8472  1.2803
  378MOL0     H49858   5.925   2.752   4.543  0.0058 -1.3810  0.4763
  378MOL0     H49859   5.703   2.797   4.626 -0.3874  3.2015 -1.5954
  378MOL0     H49860   5.351   2.957   4.763 -0.4214 -0.1049  0.4609
  378MOL0     H49861   5.152   2.947   4.889  1.2441  0.6767  0.0885
  378MOL0     H49862   4.947   2.932   4.971  4.3901  1.8827  1.8162
  378MOL0     H49863   5.057   2.843   5.063 -0.1498 -0.3255 -0.2620
  378MOL0     H49864   4.856   2.857   5.194 -2.6934 -0.0469  0.0330
  378MOL0     H49865   4.882   2.687   5.142 -0.2534  0.8563  2.1991
  378MOL0     H49866   4.646   2.741   5.093 -1.6128  0.3610 -0.9402
  378MOL0     H49867   4.715   2.759   4.935 -3.2931 -1.6457  0.2118
  378MOL0     H49868   4.660   2.969   5.141 -3.1018 -1.4565 -1.0943
  378MOL0     H49869   4.739   3.018   4.983 -0.2546  0.2613 -0.4782
  378MOL0     H49870   4.482   2.856   4.993  2.2447 -1.8316 -1.1114
  378MOL0     H49871   4.547   2.933   4.861 -1.6266 -0.0393 -0.7118
  378MOL0     H49872   4.522   3.148   4.971  2.7411 -2.0783  0.5255
  378MOL0     H49873   4.439   3.066   5.108  0.4997 -1.0839  0.2128
  378MOL0     H49874   4.308   2.977   4.871  1.5425 -0.4995 -0.3422
  378MOL0     H49875   4.243   3.092   4.991  1.0577  2.0470  1.4197
  378MOL0     H49876   4.342   3.275   4.834 -0.2418  0.8162  0.1416
  378MOL0     H49877   4.212   3.173   4.766  0.3598  0.5070 -1.1869
  378MOL0     H49878   5.101   2.530   4.784  0.0750  0.1345  1.3275
  378MOL0     H49879   5.297   2.540   4.638 -5.6759 -1.5332 -1.4023
  378MOL0     H49880   5.548   2.703   4.225 -1.4044  0.0734  1.0600
  378MOL0     H49881   5.782   2.677   4.152  1.0533 -2.5586  0.8900
  378MOL0     H49882   7.543   2.074   4.619 -2.4102  0.1598  0.6714
  378MOL0     H49883   7.762   2.065   4.649 -0.9728 -1.6064 -1.4571
  378MOL0     H49884   8.230   2.049   4.672 -0.1992 -0.4578  0.2521
  378MOL0     H49885   8.458   2.012   4.754  0.4501 -0.4477  0.7255
  378MOL0     H49886   8.646   1.935   4.822 -2.8058 -5.2303  1.3268
  378MOL0     H49887   8.732   1.914   4.968  1.3691 -0.2603  0.8425
  378MOL0     H49888   8.764   2.136   4.910 -0.2180  1.7173  0.3288
  378MOL0     H49889   8.590   2.157   4.903 -0.5264 -2.2704 -0.2267
  378MOL0     H49890   8.753   2.096   5.154 -0.0598  0.9854 -1.1315
  378MOL0     H49891   8.579   2.094   5.160 -0.1243 -1.0122 -1.6619
  378MOL0     H49892   8.691   2.313   5.248 -3.2882  1.5841  1.2340
  378MOL0     H49893   8.737   2.348   5.080  0.3092 -1.0881 -0.6212
  378MOL0     H49894   8.349   2.505   5.113  0.0615  0.3383  1.1342
  378MOL0     H49895   8.325   1.845   5.106 -0.8664 -1.0807  0.2592
  378MOL0     H49896   8.091   1.849   5.034  1.7365 -0.5793  0.4240
  379MOL0     O49897   7.234   8.276   4.928  0.0418 -0.0239  0.2189
  379MOL0     C49898   7.243   8.317   4.813  0.1067 -0.2576 -0.3844
  379MOL0     O49899   7.135   8.331   4.727  0.3829 -0.0232  0.0925
  379MOL0     C49900   7.004   8.293   4.756  0.6145 -0.0850  0.5057
  379MOL0     C49901   6.907   8.386   4.793  0.7811 -0.2756 -0.4790
  379MOL0     C49902   6.772   8.351   4.825  0.4131  0.0551  0.3345
  379MOL0     C49903   6.736   8.214   4.798 -0.7448  0.1536  0.8782
  379MOL0     O49904   6.614   8.149   4.805 -0.1691 -0.7404  0.4571
  379MOL0     C49905   6.492   8.232   4.832  0.5794 -0.1084  0.3848
  379MOL0     C49906   6.371   8.135   4.845 -0.1461  0.4274 -0.2393
  379MOL0     C49907   6.229   8.202   4.826 -0.4559  0.1332 -0.0631
  379MOL0     C49908   6.122   8.089   4.836 -1.2618 -0.7875 -0.0674
  379MOL0     C49909   5.980   8.148   4.833 -0.1874 -0.2133  0.3121
  379MOL0     C49910   5.865   8.043   4.846  0.4503  0.6420 -0.4071
  379MOL0     C49911   5.887   7.914   4.773  0.1498  0.2167  0.2580
  379MOL0     C49912   5.807   7.794   4.836  0.2508 -0.9575  0.1410
  379MOL0     N49913   5.667   7.824   4.873  0.5845  1.0193 -0.2180
  379MOL0     C49914   5.626   7.853   4.998 -0.8227 -1.4513  0.4416
  379MOL0     C49915   5.495   7.839   5.000 -0.1208  0.2845 -0.4562
  379MOL0     C49916   5.414   7.851   5.127 -0.2068 -0.3984  0.6966
  379MOL0     C49917   5.275   7.802   5.127 -0.5286 -0.1760 -1.2992
  379MOL0     C49918   5.185   7.876   5.017  0.2547 -0.0686 -0.5654
  379MOL0     C49919   5.043   7.897   5.078 -0.2696 -0.4087 -0.8151
  379MOL0     O49920   4.970   7.773   5.083  0.2043 -0.0809  0.1473
  379MOL0     C49921   4.836   7.784   5.108 -0.2045 -0.9921  0.4438
  379MOL0     C49922   4.771   7.893   5.164 -0.1584  0.3777 -0.0202
  379MOL0     C49923   4.633   7.888   5.182  0.9567  0.6954 -0.3061
  379MOL0     C49924   4.551   7.784   5.137 -0.0321 -0.5787  0.4919
  379MOL0     C49925   4.408   7.771   5.151 -0.5589 -0.0758 -0.7286
  379MOL0     O49926   4.343   7.887   5.168  0.2670  0.7481 -0.3152
  379MOL0     C49927   4.206   7.888   5.176 -0.2374  0.0845  0.3356
  379MOL0     C49928   4.127   7.918   5.063  0.7207  0.0166  0.5963
  379MOL0     C49929   3.996   7.923   5.081 -0.0124 -0.3278  0.6893
  379MOL0     C49930   3.936   7.899   5.203 -0.1354 -0.6390  0.8023
  379MOL0     O49931   3.800   7.886   5.207 -0.3782  0.3911 -0.3932
  379MOL0     C49932   3.734   7.995   5.138  0.0444  0.8062  0.1855
  379MOL0     C49933   3.588   7.984   5.171  0.1020  0.4000 -0.0353
  379MOL0     C49934   3.529   8.093   5.248 -0.2114  0.2328 -0.7685
  379MOL0     C49935   3.376   8.067   5.256  0.5677 -0.1345 -0.5077
  379MOL0     C49936   3.294   8.169   5.346 -0.0451 -0.3435  0.1135
  379MOL0     C49937   3.148   8.133   5.319  0.3657 -0.7017  0.2793
  379MOL0     C49938   3.048   8.215   5.404  0.3120  0.0507 -0.2479
  379MOL0     C49939   2.903   8.186   5.384 -1.0992 -0.1207 -0.1225
  379MOL0    Cl49940   2.860   8.008   5.407  0.1786  0.2622  0.3274
  379MOL0     C49941   4.012   7.865   5.314  0.0889 -0.8074 -1.0549
  379MOL0     C49942   4.152   7.871   5.301 -0.7548 -0.2213  0.7505
  379MOL0     O49943   4.366   7.661   5.165  0.2986 -0.1030  0.0265
  379MOL0     C49944   4.623   7.673   5.091 -0.6487  0.8964 -0.2125
  379MOL0     C49945   4.762   7.670   5.071  0.0251  0.4878 -1.0587
  379MOL0     N49946   5.457   7.804   4.876  0.4426 -0.1991  0.8003
  379MOL0     N49947   5.557   7.794   4.795 -0.5762  0.1735 -0.3682
  379MOL0     C49948   6.828   8.124   4.741 -0.7455  0.5979 -0.4491
  379MOL0     C49949   6.960   8.162   4.732  0.7443  0.4029  0.9091
  379MOL0     C49950   7.373   8.348   4.759 -0.0272  1.5007  0.9029
  379MOL0     C49951   7.485   8.351   4.839  0.9368  0.4934  0.1320
  379MOL0     C49952   7.605   8.402   4.787  0.2132 -0.5504 -0.2905
  379MOL0     C49953   7.632   8.414   4.648 -0.1864  0.6717  0.4287
  379MOL0     O49954   7.761   8.440   4.602 -0.2596 -0.2359  0.1799
  379MOL0     C49955   7.771   8.562   4.523  0.0517  0.3420  0.7749
  379MOL0     C49956   7.916   8.600   4.523  0.1516  0.5206  0.9383
  379MOL0     C49957   7.948   8.660   4.660  0.0185 -0.0992  0.7140
  379MOL0     C49958   8.097   8.681   4.669 -0.5427 -0.4011 -0.2240
  379MOL0     C49959   8.157   8.768   4.568 -0.0486  0.6922  0.6279
  379MOL0     C49960   8.224   8.811   4.474  0.3086  1.4586  1.0481
  379MOL0     C49961   7.516   8.408   4.566  0.0916  0.3150  1.3660
  379MOL0     C49962   7.387   8.387   4.620  0.2237 -0.6804 -0.0344
  379MOL0     H49963   6.938   8.490   4.795 -0.9118  0.2370  0.4094
  379MOL0     H49964   6.705   8.426   4.867  2.8878  1.9539  1.1302
  379MOL0     H49965   6.483   8.295   4.743  0.5515  1.5306  1.5032
  379MOL0     H49966   6.502   8.303   4.914 -0.9329 -0.4225  0.8842
  379MOL0     H49967   6.372   8.093   4.946 -4.2224  0.9499  0.1802
  379MOL0     H49968   6.386   8.059   4.768 -0.6877  2.1668 -2.1681
  379MOL0     H49969   6.231   8.255   4.730  0.2937  0.8067  0.3055
  379MOL0     H49970   6.213   8.284   4.897  1.4726  0.4988 -0.0044
  379MOL0     H49971   6.138   8.016   4.755  1.4037 -0.0138 -0.3560
  379MOL0     H49972   6.131   8.031   4.928  0.9981 -0.6498 -0.1412
  379MOL0     H49973   5.984   8.196   4.734  0.6321  0.1433  0.5088
  379MOL0     H49974   5.964   8.228   4.906 -0.9510 -0.6347  0.6198
  379MOL0     H49975   5.777   8.089   4.801 -1.9832 -1.7393  1.5655
  379MOL0     H49976   5.851   8.021   4.953  1.5744 -3.5171 -0.9282
  379MOL0     H49977   5.846   7.943   4.676  2.4479  3.3536  0.0619
  379MOL0     H49978   5.993   7.890   4.758  0.3999  1.3149  0.1726
  379MOL0     H49979   5.855   7.745   4.922  0.0473 -2.2677 -0.4723
  379MOL0     H49980   5.798   7.723   4.753 -1.4475  0.5435 -1.0253
  379MOL0     H49981   5.690   7.886   5.079 -1.2383  1.2903 -0.2598
  379MOL0     H49982   5.414   7.957   5.155 -3.5909 -0.2453  0.5260
  379MOL0     H49983   5.458   7.797   5.211 -2.7668  0.7487  2.9413
  379MOL0     H49984   5.245   7.834   5.227  0.6620 -0.8246 -0.7065
  379MOL0     H49985   5.277   7.693   5.136  4.9176 -0.1732  4.6428
  379MOL0     H49986   5.233   7.974   5.004 -0.9903  0.6167 -0.1153
  379MOL0     H49987   5.180   7.826   4.920  3.3940  2.8996 -2.5221
  379MOL0     H49988   4.993   7.966   5.010 -0.0690 -0.4700 -1.0260
  379MOL0     H49989   5.046   7.945   5.176  0.3355 -3.3755  0.7086
  379MOL0     H49990   4.819   7.990   5.174 -2.0651  1.4511 -0.6275
  379MOL0     H49991   4.568   7.972   5.204  0.4929  0.9214 -2.3689
  379MOL0     H49992   4.170   7.920   4.963  1.1293  0.0012  0.7699
  379MOL0     H49993   3.942   7.944   4.990  1.0418 -2.2122 -0.4260
  379MOL0     H49994   3.746   7.992   5.029 -2.7674 -1.1215 -0.1906
  379MOL0     H49995   3.765   8.090   5.181  1.9688  0.6473 -0.7440
  379MOL0     H49996   3.560   7.890   5.220 -2.8947  0.5210 -1.3193
  379MOL0     H49997   3.540   7.980   5.073  1.9261 -1.6650 -0.9203
  379MOL0     H49998   3.545   8.190   5.199  1.1996  1.0590  1.1873
  379MOL0     H49999   3.570   8.095   5.349 -0.2561  2.5700 -0.7304
  379MOL0     H50000   3.333   8.069   5.156  1.0227 -1.6075 -0.7614
  379MOL0     H50001   3.367   7.964   5.293  0.3643  0.2184  0.4601
  379MOL0     H50002   3.316   8.273   5.318  0.8523 -0.7132 -0.6182
  379MOL0     H50003   3.303   8.147   5.453 -1.0674 -0.5194  0.1714
  379MOL0     H50004   3.136   8.027   5.341  1.2784 -0.3525  2.6695
  379MOL0     H50005   3.126   8.153   5.213  0.3116  0.2399  0.4585
  379MOL0     H50006   3.067   8.204   5.511  2.9816  0.3777 -0.6208
  379MOL0     H50007   3.053   8.323   5.382  0.9210  0.1346  0.2677
  379MOL0     H50008   2.863   8.234   5.294  0.1034  0.1169 -0.5477
  379MOL0     H50009   2.847   8.234   5.465 -0.8168 -0.7613  0.4585
  379MOL0     H50010   3.964   7.849   5.410  1.3173  3.6934  0.6078
  379MOL0     H50011   4.221   7.864   5.384 -0.2459  1.2175  0.4846
  379MOL0     H50012   4.564   7.584   5.072  0.2308  0.1239  0.6192
  379MOL0     H50013   4.811   7.578   5.041 -2.0634 -1.3358  0.7756
  379MOL0     H50014   6.793   8.022   4.724 -1.5804  0.2987  2.4171
  379MOL0     H50015   7.036   8.091   4.699  0.5791 -0.0610  1.5019
  379MOL0     H50016   7.473   8.332   4.945  0.6732  0.1043  0.0341
  379MOL0     H50017   7.685   8.410   4.859  0.5009  1.6977 -0.8033
  379MOL0     H50018   7.709   8.644   4.561 -1.0866 -1.0592  2.0665
  379MOL0     H50019   7.750   8.545   4.417  4.0294 -0.8073  0.0103
  379MOL0     H50020   7.970   8.508   4.498  1.1511  1.4474 -0.4658
  379MOL0     H50021   7.931   8.682   4.452  0.1743 -0.5991 -0.4052
  379MOL0     H50022   7.908   8.604   4.746  0.8232 -1.6248  0.1238
  379MOL0     H50023   7.903   8.760   4.661  0.0379 -0.0921  1.0111
  379MOL0     H50024   8.128   8.731   4.761  0.2679 -0.3507 -0.5235
  379MOL0     H50025   8.148   8.585   4.672 -1.5035 -0.9145  0.2873
  379MOL0     H50026   8.287   8.846   4.395 -0.6938 -0.2640 -0.6114
  379MOL0     H50027   7.533   8.434   4.462 -1.9266  0.3598  1.0049
  379MOL0     H50028   7.304   8.405   4.554  0.3948  1.3826  0.2499
  380MOL0     O50029   2.863   7.081   8.301 -0.1198  0.6456  0.1194
  380MOL0     C50030   2.788   6.990   8.260 -0.1385 -0.8035  0.5754
  380MOL0     O50031   2.824   6.897   8.168  0.1562  0.6143  0.0710
  380MOL0     C50032   2.944   6.917   8.106 -0.3993  0.1214 -0.3909
  380MOL0     C50033   3.047   6.833   8.151 -0.5855  0.6585  0.6600
  380MOL0     C50034   3.179   6.845   8.094  0.8865 -1.1863 -0.2293
  380MOL0     C50035   3.200   6.940   7.995  0.3480  0.3201 -0.2881
  380MOL0     O50036   3.320   6.984   7.948 -0.6342 -0.2658  0.4604
  380MOL0     C50037   3.434   6.915   7.990  0.3019 -0.3629 -0.6609
  380MOL0     C50038   3.564   7.000   7.972  0.2744  0.7720  0.2226
  380MOL0     C50039   3.685   6.912   8.021 -0.3340  0.0291  0.1396
  380MOL0     C50040   3.815   6.996   7.981 -0.9514  0.7966 -0.3361
  380MOL0     C50041   3.948   6.921   7.972  0.2597  0.7972 -0.7197
  380MOL0     C50042   4.073   7.004   7.939 -0.0069 -0.5621  0.1357
  380MOL0     C50043   4.198   6.911   7.951  1.3609  0.4752  1.3401
  380MOL0     C50044   4.306   6.977   7.859 -0.3760  0.1026 -0.3310
  380MOL0     N50045   4.434   6.900   7.875  0.3046  0.0904  0.7968
  380MOL0     C50046   4.438   6.773   7.816 -0.5961 -0.0134 -0.3114
  380MOL0     C50047   4.567   6.727   7.844  1.6513 -0.6155 -0.0149
  380MOL0     C50048   4.632   6.596   7.812  0.5557  0.1629 -0.8668
  380MOL0     C50049   4.659   6.522   7.947 -0.6708 -0.4190  0.0171
  380MOL0     C50050   4.540   6.471   8.035 -0.1978  0.1492  0.1972
  380MOL0     C50051   4.585   6.436   8.183 -0.5292  0.2281 -0.0027
  380MOL0     O50052   4.484   6.372   8.270 -0.8852  0.7122  0.1283
  380MOL0     C50053   4.374   6.443   8.298  0.3291  0.4648  0.2584
  380MOL0     C50054   4.271   6.371   8.349  0.1869  0.2333  0.1321
  380MOL0     C50055   4.149   6.436   8.387  0.1898  0.6296  0.1101
  380MOL0     C50056   4.132   6.577   8.365 -0.5978 -0.6521  0.3041
  380MOL0     C50057   4.005   6.646   8.378  0.1972 -0.6150  0.8411
  380MOL0     O50058   3.920   6.598   8.474  0.4912 -0.4720 -0.0256
  380MOL0     C50059   3.790   6.650   8.473  0.3823 -0.0944 -0.0053
  380MOL0     C50060   3.720   6.695   8.583 -0.2833 -0.5585  0.1502
  380MOL0     C50061   3.590   6.745   8.574  0.0980 -0.1361 -0.3220
  380MOL0     C50062   3.516   6.748   8.456  0.3568 -0.0669  0.1720
  380MOL0     O50063   3.385   6.790   8.441 -0.5107 -0.2572 -0.1808
  380MOL0     C50064   3.300   6.785   8.561 -0.4981 -0.6393  0.0273
  380MOL0     C50065   3.150   6.802   8.524 -0.5886  0.6257  0.6948
  380MOL0     C50066   3.061   6.803   8.647 -0.3755 -0.1432  0.1607
  380MOL0     C50067   2.928   6.739   8.618  0.4766 -0.3118 -0.1094
  380MOL0     C50068   2.843   6.727   8.747  0.0092  0.0675 -0.8655
  380MOL0     C50069   2.730   6.623   8.726 -0.0916  0.1735  0.2142
  380MOL0     C50070   2.625   6.617   8.833 -0.2313  0.0037 -1.0610
  380MOL0     C50071   2.516   6.526   8.781  0.5647 -0.4763 -0.4052
  380MOL0    Cl50072   2.393   6.519   8.909 -0.4867  0.3289 -0.1578
  380MOL0     C50073   3.584   6.700   8.342 -0.0408 -0.4710  0.1254
  380MOL0     C50074   3.717   6.655   8.348 -0.8715  0.4774  0.3849
  380MOL0     O50075   3.979   6.736   8.298 -0.3036  0.1939  0.5338
  380MOL0     C50076   4.244   6.651   8.320 -0.1588 -0.6075 -0.4285
  380MOL0     C50077   4.370   6.587   8.300 -0.2433  0.0541 -0.1812
  380MOL0     N50078   4.636   6.832   7.907 -0.8228  0.9185  0.2058
  380MOL0     N50079   4.559   6.929   7.929  0.0217 -0.5586 -1.1240
  380MOL0     C50080   3.098   7.022   7.954  0.0320  0.8639  0.0520
  380MOL0     C50081   2.976   7.018   8.011 -0.4664  0.5423  0.3403
  380MOL0     C50082   2.652   6.975   8.319 -0.0525 -0.2543  0.9461
  380MOL0     C50083   2.540   6.984   8.233 -0.2053 -0.4834  0.1505
  380MOL0     C50084   2.419   6.941   8.293  0.1224  0.3755 -0.3437
  380MOL0     C50085   2.406   6.913   8.434 -0.4455  0.4328  0.3992
  380MOL0     O50086   2.288   6.856   8.478 -0.2962 -0.2620  0.2767
  380MOL0     C50087   2.278   6.752   8.571  0.0382 -0.8216  0.0935
  380MOL0     C50088   2.129   6.715   8.595  0.3768 -0.4935  0.2260
  380MOL0     C50089   2.050   6.655   8.486 -0.0111 -0.0582 -0.1344
  380MOL0     C50090   1.914   6.598   8.521  0.7234  0.4244  0.8791
  380MOL0     C50091   1.905   6.499   8.624  0.0443  0.5954 -1.0045
  380MOL0     C50092   1.899   6.422   8.719 -0.6820 -0.0309  1.0807
  380MOL0     C50093   2.520   6.933   8.514 -0.3099  0.1763 -0.2010
  380MOL0     C50094   2.640   6.963   8.449 -0.5312  0.3049 -0.2787
  380MOL0     H50095   3.031   6.761   8.230 -1.7082 -0.9575 -0.9530
  380MOL0     H50096   3.257   6.774   8.121  1.1792  0.2280  3.0665
  380MOL0     H50097   3.448   6.823   7.933  0.9983 -3.2709  3.6911
  380MOL0     H50098   3.431   6.897   8.098  0.2666  1.5288 -0.3087
  380MOL0     H50099   3.558   7.086   8.039  0.7204 -1.1754  2.9590
  380MOL0     H50100   3.579   7.025   7.866 -0.2211  0.0813 -0.0165
  380MOL0     H50101   3.701   6.818   7.966 -1.7431 -1.1647  1.6707
  380MOL0     H50102   3.683   6.891   8.128 -0.4640  0.5567  0.2376
  380MOL0     H50103   3.799   7.055   7.891 -1.5942  1.2085  0.0393
  380MOL0     H50104   3.833   7.074   8.055  1.2419 -1.4910  1.7290
  380MOL0     H50105   3.933   6.838   7.901 -0.8057 -1.6639  2.1589
  380MOL0     H50106   3.963   6.877   8.071  1.6505  1.7593 -0.4831
  380MOL0     H50107   4.088   7.087   8.009 -1.3107 -1.7343  1.8932
  380MOL0     H50108   4.065   7.049   7.840 -4.5120 -0.9926  0.0986
  380MOL0     H50109   4.229   6.886   8.053  1.5038  0.5405  1.3129
  380MOL0     H50110   4.177   6.816   7.902  2.4692  0.9436 -0.1316
  380MOL0     H50111   4.325   7.080   7.890 -0.0584  0.0494 -0.3460
  380MOL0     H50112   4.265   6.972   7.758 -0.8699 -1.7317 -0.0690
  380MOL0     H50113   4.356   6.719   7.770  1.5162 -2.2078 -1.7714
  380MOL0     H50114   4.726   6.616   7.759  1.8606  0.8666  1.5793
  380MOL0     H50115   4.567   6.536   7.748  1.8010  1.1120 -3.1531
  380MOL0     H50116   4.727   6.588   8.002 -1.8265  1.7665 -1.0521
  380MOL0     H50117   4.705   6.427   7.918 -3.3054 -1.5860 -0.7102
  380MOL0     H50118   4.457   6.543   8.031  0.4743  1.1818  2.5879
  380MOL0     H50119   4.511   6.374   7.993  1.9268  0.8285 -3.2266
  380MOL0     H50120   4.624   6.523   8.237  0.9037 -0.9240  0.8913
  380MOL0     H50121   4.672   6.370   8.177 -0.4364  0.4629 -1.7670
  380MOL0     H50122   4.288   6.265   8.366  0.7058  0.3452  0.3161
  380MOL0     H50123   4.076   6.364   8.425  2.0421 -1.5129 -0.1658
  380MOL0     H50124   3.764   6.684   8.682 -3.9359 -1.4055  1.8983
  380MOL0     H50125   3.535   6.784   8.659  0.0828 -1.5843  0.3667
  380MOL0     H50126   3.323   6.876   8.618 -1.8116  1.0518 -2.0007
  380MOL0     H50127   3.317   6.695   8.621 -0.3471 -2.4568 -2.5882
  380MOL0     H50128   3.119   6.725   8.454  1.6738 -0.1102  0.4130
  380MOL0     H50129   3.147   6.900   8.475  1.3005  0.8165  0.8761
  380MOL0     H50130   3.056   6.904   8.689  0.2299 -0.2856  0.5897
  380MOL0     H50131   3.104   6.740   8.726  2.2223 -1.7308 -2.2741
  380MOL0     H50132   2.869   6.800   8.550  0.0444  0.1589  0.6760
  380MOL0     H50133   2.954   6.643   8.572 -0.8347 -0.0041 -1.5588
  380MOL0     H50134   2.823   6.828   8.784  2.4438  0.0852  0.6279
  380MOL0     H50135   2.913   6.690   8.823  0.3444 -0.7430 -1.5516
  380MOL0     H50136   2.765   6.523   8.699  1.2182  0.9065 -0.8974
  380MOL0     H50137   2.677   6.657   8.637 -1.2981  1.7795  1.4793
  380MOL0     H50138   2.677   6.572   8.918  1.7880 -0.3640 -2.4491
  380MOL0     H50139   2.577   6.712   8.859  0.3231  0.1683 -0.6279
  380MOL0     H50140   2.563   6.428   8.773  0.2337 -1.0375  2.8648
  380MOL0     H50141   2.479   6.542   8.680  0.4489  1.8800 -0.0424
  380MOL0     H50142   3.531   6.692   8.248 -0.4208  0.1101  0.2847
  380MOL0     H50143   3.757   6.611   8.258 -2.2735 -0.2867  0.0998
  380MOL0     H50144   4.248   6.759   8.319  0.1479 -0.5870 -3.0966
  380MOL0     H50145   4.452   6.657   8.285 -1.4473  1.3309 -1.0758
  380MOL0     H50146   3.122   7.097   7.880  0.2972  1.2713  0.5444
  380MOL0     H50147   2.908   7.093   7.972  2.5623  2.3222 -2.0365
  380MOL0     H50148   2.553   6.995   8.125 -1.5460  0.2042  0.0316
  380MOL0     H50149   2.329   6.926   8.235 -0.0185 -0.3469  0.0487
  380MOL0     H50150   2.310   6.777   8.673  1.0969 -0.8428 -0.2255
  380MOL0     H50151   2.328   6.662   8.535  0.0611  0.0586 -2.2635
  380MOL0     H50152   2.131   6.637   8.671 -0.1691  0.7184  1.5213
  380MOL0     H50153   2.071   6.802   8.629  2.3760  0.5515  1.1642
  380MOL0     H50154   2.105   6.575   8.436  0.0262  0.3838 -0.8266
  380MOL0     H50155   2.036   6.730   8.407  1.6644 -1.2328 -1.6048
  380MOL0     H50156   1.844   6.676   8.550 -1.1317 -2.0509  3.5580
  380MOL0     H50157   1.873   6.556   8.429 -3.7525 -0.4575  3.0201
  380MOL0     H50158   1.899   6.357   8.805  0.2139  0.9172  1.8195
  380MOL0     H50159   2.506   6.932   8.622 -0.5561  0.3856 -0.2299
  380MOL0     H50160   2.734   6.980   8.501  0.8871  0.7283 -2.8116
  381MOL0     O50161   5.003  10.747   7.086 -0.4031 -0.1166  0.1715
  381MOL0     C50162   5.112  10.802   7.077  0.3998 -0.0034 -0.1060
  381MOL0     O50163   5.128  10.931   7.065  0.3506 -0.7135  0.0523
  381MOL0     C50164   5.028  11.024   7.083  0.5796  0.5222 -0.2204
  381MOL0     C50165   4.907  11.009   7.160 -0.1588  0.1955  1.0556
  381MOL0     C50166   4.818  11.116   7.168  0.5200  0.4344 -0.0087
  381MOL0     C50167   4.840  11.237   7.108 -0.6097 -0.2250  0.0989
  381MOL0     O50168   4.759  11.350   7.120  0.0027 -0.3698  0.0873
  381MOL0     C50169   4.656  11.358   7.209 -0.3410  0.0323 -0.3715
  381MOL0     C50170   4.575  11.489   7.162 -1.2171  0.4421  0.1065
  381MOL0     C50171   4.460  11.517   7.260  0.5224  1.2324  0.8954
  381MOL0     C50172   4.390  11.648   7.224  0.0648  0.3192  0.1506
  381MOL0     C50173   4.295  11.624   7.099 -0.1150  0.6277  0.0171
  381MOL0     C50174   4.167  11.706   7.128 -0.3517  0.8272 -0.3588
  381MOL0     C50175   4.186  11.857   7.113 -0.5517 -0.1986 -0.6983
  381MOL0     C50176   4.075  11.951   7.158  0.0395  0.1345  0.1549
  381MOL0     N50177   3.955  11.918   7.081 -0.4392  0.1966 -0.7987
  381MOL0     C50178   3.907  11.973   6.965 -0.5349  0.5324 -0.7041
  381MOL0     C50179   3.791  11.906   6.934  0.2662 -0.1185 -0.6608
  381MOL0     C50180   3.707  11.917   6.808  0.1367 -0.0790  0.4309
  381MOL0     C50181   3.677  12.064   6.774 -0.0611  0.8593 -0.1334
  381MOL0     C50182   3.617  12.094   6.630  0.1296 -0.1178 -0.1491
  381MOL0     C50183   3.511  11.997   6.583  0.1308  0.5347  0.0238
  381MOL0     O50184   3.498  11.999   6.435  0.9475 -0.2703  0.7814
  381MOL0     C50185   3.418  12.097   6.373 -0.2055  0.1410  0.4144
  381MOL0     C50186   3.418  12.098   6.236  0.4362  0.0395  0.3034
  381MOL0     C50187   3.351  12.198   6.160  0.3316 -0.3558  0.4749
  381MOL0     C50188   3.279  12.298   6.233  0.2868  1.0429 -0.6452
  381MOL0     C50189   3.181  12.384   6.160 -0.1656  0.8326 -0.9239
  381MOL0     O50190   3.141  12.355   6.034 -0.1245  0.0327  0.7049
  381MOL0     C50191   3.068  12.459   5.984  0.3034 -0.1224 -0.0956
  381MOL0     C50192   2.930  12.454   5.982  0.0694 -0.6202 -0.9890
  381MOL0     C50193   2.866  12.569   5.949  0.5890  0.6629  0.8325
  381MOL0     C50194   2.930  12.690   5.901 -0.2683 -0.0301 -0.1219
  381MOL0     O50195   2.854  12.797   5.880  0.3782  0.1655 -0.5331
  381MOL0     C50196   2.735  12.770   5.793 -0.0695 -0.8050  0.7142
  381MOL0     C50197   2.635  12.887   5.794  0.1695  0.3940  0.9237
  381MOL0     C50198   2.689  13.029   5.808 -0.9123 -0.5765 -0.1213
  381MOL0     C50199   2.572  13.128   5.834 -0.3716 -0.4593 -0.4750
  381MOL0     C50200   2.626  13.269   5.871  0.5087  0.0841  0.1317
  381MOL0     C50201   2.534  13.384   5.828 -0.6767  0.1030 -0.3022
  381MOL0     C50202   2.591  13.533   5.862 -0.7482 -0.4932  0.3441
  381MOL0     C50203   2.724  13.574   5.781  0.1543  0.3097 -0.2618
  381MOL0    Cl50204   2.776  13.725   5.868  0.2153 -0.3384  0.0889
  381MOL0     C50205   3.064  12.701   5.915  0.6516  0.0933 -0.1289
  381MOL0     C50206   3.136  12.582   5.948 -0.1351  0.1487  0.3558
  381MOL0     O50207   3.137  12.476   6.227 -0.5316  0.2925  0.8269
  381MOL0     C50208   3.282  12.293   6.369  0.3203 -0.6418 -0.4550
  381MOL0     C50209   3.357  12.197   6.445 -0.0099 -0.3886  0.2564
  381MOL0     N50210   3.766  11.827   7.041 -0.1183  0.1065  0.0600
  381MOL0     N50211   3.861  11.830   7.126 -0.0407 -0.0060  0.1664
  381MOL0     C50212   4.962  11.255   7.036 -0.3472 -0.2448 -0.6147
  381MOL0     C50213   5.049  11.150   7.028 -0.1063  0.3358  0.1685
  381MOL0     C50214   5.224  10.718   7.086 -0.0594 -0.4640  0.3901
  381MOL0     C50215   5.220  10.584   7.059  0.5125  0.3788 -0.5305
  381MOL0     C50216   5.329  10.504   7.070 -0.1450 -0.6178 -0.1327
  381MOL0     C50217   5.449  10.553   7.123 -0.3595 -0.4224  0.1034
  381MOL0     O50218   5.548  10.457   7.132  0.1664  0.5793  0.0823
  381MOL0     C50219   5.670  10.497   7.181 -0.3100  0.5442 -0.5512
  381MOL0     C50220   5.746  10.378   7.230 -0.6349  0.6406 -0.2006
  381MOL0     C50221   5.883  10.412   7.286  0.2542 -0.5183 -0.0644
  381MOL0     C50222   5.948  10.284   7.344  0.3317 -0.2872  0.0684
  381MOL0     C50223   6.094  10.278   7.356  0.5234 -0.6037 -0.3834
  381MOL0     C50224   6.215  10.288   7.365  0.8003  0.4575  0.2737
  381MOL0     C50225   5.457  10.696   7.151 -0.4061  0.7003  0.0041
  381MOL0     C50226   5.345  10.770   7.137 -0.1882 -0.6666 -0.2810
  381MOL0     H50227   4.881  10.913   7.203  0.2361 -0.4205 -0.0362
  381MOL0     H50228   4.724  11.107   7.221  0.5418 -2.1284 -0.2479
  381MOL0     H50229   4.705  11.368   7.306 -1.2616  1.5760 -0.0243
  381MOL0     H50230   4.585  11.275   7.199 -0.1400 -0.3598  1.2366
  381MOL0     H50231   4.536  11.492   7.060 -1.7372  4.0742  0.3032
  381MOL0     H50232   4.646  11.571   7.162 -2.0901  1.2154 -0.1694
  381MOL0     H50233   4.500  11.535   7.360 -2.3774  0.9452  2.2041
  381MOL0     H50234   4.384  11.439   7.275  1.1703 -0.1549 -2.2013
  381MOL0     H50235   4.329  11.683   7.308 -2.4798 -1.3398 -0.8809
  381MOL0     H50236   4.461  11.729   7.204  1.5611 -0.9540  0.1819
  381MOL0     H50237   4.267  11.518   7.089 -0.0659 -0.2472  5.8915
  381MOL0     H50238   4.336  11.667   7.008 -2.0343  0.2131 -1.1057
  381MOL0     H50239   4.123  11.679   7.224  0.0324  3.3763  0.6214
  381MOL0     H50240   4.096  11.666   7.054 -1.7197 -0.7713  1.7099
  381MOL0     H50241   4.272  11.896   7.167 -1.7481 -0.4117  1.4779
  381MOL0     H50242   4.213  11.878   7.009 -1.5728 -3.1579 -1.6553
  381MOL0     H50243   4.095  12.056   7.137 -1.8454  0.4881 -0.1159
  381MOL0     H50244   4.059  11.928   7.264 -0.5009 -1.1018 -0.1670
  381MOL0     H50245   3.956  12.029   6.886 -3.0949 -0.7378 -3.3592
  381MOL0     H50246   3.611  11.870   6.829  0.6329 -1.3980 -0.1851
  381MOL0     H50247   3.757  11.862   6.728  3.0957 -0.4622  2.3843
  381MOL0     H50248   3.775  12.108   6.794  0.6429 -1.7002  2.7012
  381MOL0     H50249   3.610  12.092   6.856 -0.3606 -0.3130  0.0429
  381MOL0     H50250   3.571  12.194   6.630  0.5531  0.3213  4.6703
  381MOL0     H50251   3.693  12.104   6.552  0.2084 -1.7727 -0.3065
  381MOL0     H50252   3.414  12.016   6.631  1.2371  2.0815  1.7732
  381MOL0     H50253   3.537  11.896   6.615 -0.3620  1.3671  3.4668
  381MOL0     H50254   3.466  12.019   6.181  1.7587  0.0795  1.3639
  381MOL0     H50255   3.367  12.197   6.052  2.8154  0.2523  0.7805
  381MOL0     H50256   2.869  12.369   6.013 -0.3095  0.2954  0.9281
  381MOL0     H50257   2.758  12.562   5.957  0.4627  0.9029 -0.5058
  381MOL0     H50258   2.677  12.682   5.823 -2.5644  0.8498  1.0708
  381MOL0     H50259   2.773  12.746   5.693 -0.5059 -1.8542  0.7895
  381MOL0     H50260   2.565  12.851   5.869 -2.1077 -1.4462 -1.8520
  381MOL0     H50261   2.584  12.886   5.697  1.8009  0.9019  0.0286
  381MOL0     H50262   2.735  13.059   5.713 -0.6004 -2.9160 -0.7542
  381MOL0     H50263   2.761  13.034   5.889 -1.4891  0.0450  0.3673
  381MOL0     H50264   2.506  13.143   5.749 -1.6750  3.1663  0.9656
  381MOL0     H50265   2.514  13.088   5.918 -0.4274 -1.0780 -0.8112
  381MOL0     H50266   2.726  13.283   5.830  0.0171  1.0536 -0.7712
  381MOL0     H50267   2.642  13.268   5.979  3.7267 -2.4334 -0.1926
  381MOL0     H50268   2.441  13.359   5.879 -0.1938 -1.6050 -0.1998
  381MOL0     H50269   2.523  13.380   5.719 -0.7910 -0.9840 -0.2642
  381MOL0     H50270   2.517  13.608   5.831  1.4403  1.2861 -0.9017
  381MOL0     H50271   2.603  13.532   5.971 -0.0975 -1.1704  0.2732
  381MOL0     H50272   2.715  13.593   5.674  2.0337  0.9916 -0.3407
  381MOL0     H50273   2.796  13.493   5.797 -0.0690 -0.0916 -1.2007
  381MOL0     H50274   3.114  12.796   5.901 -0.9851  1.0052 -0.1130
  381MOL0     H50275   3.244  12.575   5.947 -0.2102 -1.6757 -1.5699
  381MOL0     H50276   3.234  12.371   6.427 -0.7112 -2.6350  1.5784
  381MOL0     H50277   3.362  12.215   6.552  1.4691 -0.4326  0.2226
  381MOL0     H50278   4.971  11.351   6.986 -0.5860  0.9304  1.4874
  381MOL0     H50279   5.135  11.150   6.962 -0.8984  0.1640 -0.8937
  381MOL0     H50280   5.128  10.537   7.025  0.6429  0.6199 -1.2528
  381MOL0     H50281   5.324  10.396   7.066  0.6169 -0.7208  1.1163
  381MOL0     H50282   5.660  10.560   7.270  0.8179 -0.6149  0.4341
  381MOL0     H50283   5.729  10.549   7.105 -0.2964  0.3389 -0.6814
  381MOL0     H50284   5.691  10.322   7.307  1.5708 -0.6331  0.5569
  381MOL0     H50285   5.763  10.306   7.150 -0.0564  1.3720 -0.7410
  381MOL0     H50286   5.885  10.497   7.354 -1.0150  1.4745 -2.3634
  381MOL0     H50287   5.946  10.439   7.201  0.2866 -1.6645 -0.4250
  381MOL0     H50288   5.902  10.275   7.442 -0.3144  0.0448 -0.2016
  381MOL0     H50289   5.915  10.200   7.282 -1.6599 -0.6785  1.5776
  381MOL0     H50290   6.321  10.283   7.378  0.9973 -0.6664 -1.4936
  381MOL0     H50291   5.538  10.754   7.194 -0.0054  2.2799 -2.6523
  381MOL0     H50292   5.332  10.871   7.175 -2.0798 -0.9739 -0.0185
  382MOL0     O50293   3.989  10.729  10.124 -0.5860 -0.3570  0.0686
  382MOL0     C50294   4.072  10.692  10.210 -0.3219  0.4351 -0.1420
  382MOL0     O50295   4.047  10.656  10.335 -0.0607  0.4667 -0.2097
  382MOL0     C50296   3.919  10.625  10.375 -0.0813 -0.2174  0.2148
  382MOL0     C50297   3.882  10.491  10.390  0.1449 -0.5160  0.7074
  382MOL0     C50298   3.750  10.466  10.429 -0.7492 -0.3070  0.4025
  382MOL0     C50299   3.654  10.570  10.450  0.0493 -0.0888 -0.9458
  382MOL0     O50300   3.534  10.536  10.499 -0.4028  0.1134  0.1183
  382MOL0     C50301   3.451  10.434  10.435  0.0824 -0.1531  0.1938
  382MOL0     C50302   3.313  10.457  10.485 -1.0429  0.4732  0.1109
  382MOL0     C50303   3.224  10.355  10.424  0.1835  0.6751  0.5123
  382MOL0     C50304   3.090  10.351  10.486 -1.4678  0.3011 -0.3248
  382MOL0     C50305   2.998  10.248  10.413  0.8146 -0.1601 -0.7350
  382MOL0     C50306   2.856  10.255  10.477 -0.3033 -0.0282 -0.4183
  382MOL0     C50307   2.755  10.161  10.393 -0.2740  0.2554 -0.1216
  382MOL0     C50308   2.667  10.083  10.490 -0.0366  0.2692  0.0920
  382MOL0     N50309   2.584  10.166  10.589 -0.8536  0.3730  0.3298
  382MOL0     C50310   2.454  10.130  10.611  0.1765  0.5001 -0.6098
  382MOL0     C50311   2.402  10.230  10.679 -0.6225 -1.0770 -0.1729
  382MOL0     C50312   2.271  10.223  10.744 -0.0174 -0.9357  0.4937
  382MOL0     C50313   2.163  10.249  10.636  0.2045 -0.1188  0.1574
  382MOL0     C50314   2.021  10.249  10.694  0.4678 -0.0658 -0.2240
  382MOL0     C50315   1.978  10.104  10.732 -0.0917  0.0670 -0.7572
  382MOL0     O50316   1.893  10.054  10.624 -0.4898  0.5754 -0.5120
  382MOL0     C50317   1.761  10.038  10.657  0.3514 -0.6061  0.3887
  382MOL0     C50318   1.683  10.144  10.705  0.1704 -0.5117  0.5934
  382MOL0     C50319   1.551  10.128  10.728 -0.8640  0.2343  0.1893
  382MOL0     C50320   1.484  10.004  10.707  0.3750 -0.3911 -0.3771
  382MOL0     C50321   1.344   9.990  10.753  0.3519  0.1602 -0.1324
  382MOL0     O50322   1.310   9.865  10.795 -0.1703  0.7383  0.1409
  382MOL0     C50323   1.186   9.836  10.835 -0.2752 -0.5958 -0.5170
  382MOL0     C50324   1.073   9.859  10.754  0.0254  0.4234  0.9342
  382MOL0     C50325   0.948   9.859  10.806  0.3728  0.8547 -0.2836
  382MOL0     C50326   0.925   9.813  10.935 -0.9390 -1.1753 -0.3867
  382MOL0     O50327   0.788   9.797  10.957 -0.0633  0.2483  0.1935
  382MOL0     C50328   0.754   9.733  11.078 -0.3859 -0.1190  0.4044
  382MOL0     C50329   0.604   9.716  11.074 -0.7245 -0.1297  0.2498
  382MOL0     C50330   0.536   9.699  11.205  0.1689  0.8294 -0.3045
  382MOL0     C50331   0.383   9.673  11.188  1.3334  0.7459 -0.0152
  382MOL0     C50332   0.321   9.659  11.328 -0.1745 -0.4550 -0.3040
  382MOL0     C50333   0.196   9.576  11.311 -0.2564  0.4067  0.5408
  382MOL0     C50334   0.093   9.613  11.422 -0.9461  0.3849 -0.1263
  382MOL0     C50335  -0.042   9.542  11.405  0.3371  0.3011 -0.0011
  382MOL0    Cl50336  -0.154   9.600  11.275 -0.2946  0.3537  0.1498
  382MOL0     C50337   1.033   9.796  11.023 -0.3594 -0.6874  0.1236
  382MOL0     C50338   1.162   9.809  10.969 -0.5299  0.0317  0.1228
  382MOL0     O50339   1.276  10.091  10.765  0.2191  0.0571 -0.0510
  382MOL0     C50340   1.553   9.898  10.647 -0.5968  0.0020 -0.1238
  382MOL0     C50341   1.688   9.922  10.614 -0.8160  0.2507  0.4588
  382MOL0     N50342   2.505  10.314  10.723  0.1513 -0.2361 -0.2063
  382MOL0     N50343   2.617  10.274  10.671  0.3419 -0.3847 -0.2142
  382MOL0     C50344   3.696  10.700  10.425  0.7612 -0.3692  0.2084
  382MOL0     C50345   3.827  10.729  10.400 -0.0199  0.1829  0.0484
  382MOL0     C50346   4.220  10.707  10.183 -0.0063  0.8981 -0.4471
  382MOL0     C50347   4.316  10.642  10.266  0.1933  0.2190  0.7198
  382MOL0     C50348   4.451  10.651  10.228 -0.4929 -0.8923  0.2287
  382MOL0     C50349   4.498  10.729  10.124 -0.5255 -0.1988  0.2627
  382MOL0     O50350   4.624  10.741  10.087  0.1165 -0.3406  0.7795
  382MOL0     C50351   4.730  10.686  10.158 -0.0167  0.2183  0.2535
  382MOL0     C50352   4.867  10.724  10.098  0.2853  0.0108 -0.5811
  382MOL0     C50353   4.889  10.874  10.107  0.4981 -0.2870 -0.4634
  382MOL0     C50354   5.005  10.921  10.023 -0.4149 -0.3093  0.3239
  382MOL0     C50355   5.005  11.067  10.029 -0.4217  0.5381 -0.8606
  382MOL0     C50356   5.008  11.188  10.041  0.5535  0.0346  0.0497
  382MOL0     C50357   4.405  10.797  10.048  0.0999  0.4085 -0.8182
  382MOL0     C50358   4.263  10.785  10.074 -0.1703 -0.5462 -0.9668
  382MOL0     H50359   3.950  10.410  10.366  0.4953 -0.8973  2.8054
  382MOL0     H50360   3.730  10.360  10.443  1.1519 -0.6640  0.7443
  382MOL0     H50361   3.477  10.329  10.450  1.0770  0.0132 -0.2671
  382MOL0     H50362   3.457  10.451  10.327 -1.7742 -0.5332 -0.0030
  382MOL0     H50363   3.284  10.556  10.447 -1.3118  0.8669  1.3199
  382MOL0     H50364   3.310  10.458  10.594 -0.4768  2.2533  0.1327
  382MOL0     H50365   3.273  10.258  10.414 -2.2244 -0.6373  0.7798
  382MOL0     H50366   3.201  10.391  10.324 -0.9962  0.9048  0.8518
  382MOL0     H50367   3.099  10.322  10.591 -1.5300  2.3466  0.2825
  382MOL0     H50368   3.041  10.449  10.484 -0.1428  0.9945  0.3682
  382MOL0     H50369   3.032  10.144  10.412  0.2445 -0.3528 -2.3377
  382MOL0     H50370   2.980  10.278  10.310  0.5685  1.3117 -0.2918
  382MOL0     H50371   2.815  10.356  10.472  2.0951  0.9781 -1.1904
  382MOL0     H50372   2.855  10.229  10.583 -0.5141 -0.1093 -0.4405
  382MOL0     H50373   2.693  10.233  10.338 -1.0905  0.4584  1.0296
  382MOL0     H50374   2.804  10.099  10.317 -1.6204  0.1057 -0.9069
  382MOL0     H50375   2.730  10.024  10.557 -1.6768  0.5741  1.9652
  382MOL0     H50376   2.597  10.020  10.434 -0.1250  1.2572 -0.9652
  382MOL0     H50377   2.401  10.038  10.586  0.0550  1.0712 -2.7036
  382MOL0     H50378   2.261  10.298  10.823 -3.6573 -0.4200 -0.2450
  382MOL0     H50379   2.263  10.119  10.778  2.0807 -1.7107 -1.1272
  382MOL0     H50380   2.163  10.179  10.551  3.3007  1.0353 -0.9187
  382MOL0     H50381   2.187  10.345  10.590  0.7890  0.2930  1.3024
  382MOL0     H50382   2.024  10.308  10.786 -0.3366  0.4511 -0.5205
  382MOL0     H50383   1.943  10.294  10.632 -1.2382  1.1808  2.5949
  382MOL0     H50384   1.931  10.099  10.831  0.6136 -1.7363 -0.4747
  382MOL0     H50385   2.063  10.037  10.744 -0.5552 -0.1698  1.8074
  382MOL0     H50386   1.722  10.244  10.720 -0.0914 -0.2888 -0.1587
  382MOL0     H50387   1.512  10.220  10.772  3.7820  3.1783 -1.1670
  382MOL0     H50388   1.092   9.883  10.650 -0.0528 -1.2883  0.4972
  382MOL0     H50389   0.858   9.877  10.747  0.6818  2.9945 -0.1851
  382MOL0     H50390   0.779   9.813  11.149 -0.8465  0.9725 -0.6262
  382MOL0     H50391   0.819   9.646  11.091  0.1795  0.4629  1.7704
  382MOL0     H50392   0.587   9.631  11.007 -2.8643  0.0808  0.4677
  382MOL0     H50393   0.555   9.803  11.028 -0.1457 -1.1312 -2.4961
  382MOL0     H50394   0.558   9.785  11.270  1.0676  0.0955  0.3880
  382MOL0     H50395   0.586   9.612  11.249 -3.1507 -0.0089  2.2902
  382MOL0     H50396   0.332   9.753  11.133 -0.7319 -0.9832 -0.8076
  382MOL0     H50397   0.364   9.582  11.130  0.1282  0.0113  1.4562
  382MOL0     H50398   0.298   9.756  11.374  1.0886  0.0200 -0.6275
  382MOL0     H50399   0.381   9.622  11.411 -0.2270  0.9195  0.3890
  382MOL0     H50400   0.220   9.469  11.314 -2.9428 -0.2530  0.5508
  382MOL0     H50401   0.154   9.601  11.213 -0.2716  0.3768  0.5397
  382MOL0     H50402   0.141   9.584  11.516  0.3401 -1.7407 -1.3545
  382MOL0     H50403   0.080   9.722  11.420  0.7982  0.6778  1.3050
  382MOL0     H50404  -0.102   9.552  11.496 -1.2633 -1.7702 -0.7534
  382MOL0     H50405  -0.029   9.434  11.397 -1.1678  0.1215 -0.2682
  382MOL0     H50406   1.021   9.778  11.129  3.6597  1.7983  1.1866
  382MOL0     H50407   1.246   9.787  11.034 -0.9690 -1.3804  0.2489
  382MOL0     H50408   1.507   9.806  10.613 -1.0966  0.0210  0.4892
  382MOL0     H50409   1.746   9.843  10.567 -0.5155  0.5045  0.3991
  382MOL0     H50410   3.630  10.784  10.446 -0.8099 -0.9952 -1.7974
  382MOL0     H50411   3.869  10.829  10.404  0.3726  0.1423 -1.9275
  382MOL0     H50412   4.290  10.580  10.350  3.2621 -0.4075  1.3425
  382MOL0     H50413   4.521  10.594  10.288 -1.3433 -0.7058  1.4081
  382MOL0     H50414   4.716  10.577  10.157 -0.3498  0.2617 -0.3997
  382MOL0     H50415   4.738  10.724  10.261 -0.3225 -3.2027  1.6905
  382MOL0     H50416   4.945  10.665  10.148  0.3032 -1.0826 -1.8510
  382MOL0     H50417   4.869  10.694   9.993  1.5863 -0.2928 -0.4958
  382MOL0     H50418   4.901  10.917  10.207  3.4826 -0.9333 -0.4485
  382MOL0     H50419   4.797  10.912  10.061 -0.2955 -2.0613 -0.4092
  382MOL0     H50420   5.102  10.882  10.054  0.2214 -0.7303 -1.9741
  382MOL0     H50421   4.997  10.880   9.922 -0.7073  0.7422 -0.0920
  382MOL0     H50422   5.007  11.295  10.045  0.1267  0.1106 -1.4864
  382MOL0     H50423   4.443  10.863   9.970  2.1439 -0.3375 -0.4918
  382MOL0     H50424   4.185  10.831  10.014 -0.3673  0.1132 -0.2089
  383MOL0     O50425   5.209   2.224   9.661 -0.0469 -0.4982 -0.1058
  383MOL0     C50426   5.269   2.323   9.620 -0.2786  0.3264  0.0650
  383MOL0     O50427   5.224   2.408   9.517 -0.2965 -0.4080  0.0205
  383MOL0     C50428   5.095   2.406   9.469 -0.4577 -0.2163 -0.0514
  383MOL0     C50429   4.984   2.380   9.554 -0.3631 -0.1820  0.7225
  383MOL0     C50430   4.856   2.379   9.505 -0.0843  1.0685  0.1011
  383MOL0     C50431   4.824   2.408   9.375 -0.2489 -0.4300  0.2203
  383MOL0     O50432   4.693   2.405   9.352 -0.4709 -0.0538 -0.1848
  383MOL0     C50433   4.641   2.501   9.256  0.2701 -0.8038  0.7258
  383MOL0     C50434   4.633   2.445   9.119  0.0352 -1.1415  0.2180
  383MOL0     C50435   4.503   2.358   9.124 -0.0823  0.6992  0.3251
  383MOL0     C50436   4.470   2.283   8.992  0.3312 -1.2150 -0.3807
  383MOL0     C50437   4.576   2.180   8.966  0.3921 -0.5063  0.4988
  383MOL0     C50438   4.527   2.103   8.848 -0.1708 -0.9548  0.2985
  383MOL0     C50439   4.619   1.989   8.814  0.7651 -0.5662  1.7483
  383MOL0     C50440   4.567   1.915   8.696  0.6206 -0.8555 -0.4071
  383MOL0     N50441   4.669   1.833   8.635 -0.2696  0.0153  0.3535
  383MOL0     C50442   4.780   1.876   8.562 -0.0621 -0.0063  0.1437
  383MOL0     C50443   4.825   1.767   8.497 -0.2712 -0.1156 -0.3143
  383MOL0     C50444   4.931   1.765   8.389  0.2288 -0.9545 -0.1061
  383MOL0     C50445   4.880   1.695   8.260 -0.4525 -0.8777 -0.3177
  383MOL0     C50446   4.990   1.686   8.152  0.0870 -0.4630 -0.0216
  383MOL0     C50447   5.029   1.826   8.092 -0.0326  0.5051 -0.1741
  383MOL0     O50448   5.103   1.800   7.974 -0.1010  0.2760 -0.2931
  383MOL0     C50449   5.187   1.901   7.923 -0.3001  0.3763 -0.0885
  383MOL0     C50450   5.194   2.027   7.976 -0.2612 -0.2004  0.4987
  383MOL0     C50451   5.268   2.127   7.918  0.5878 -1.2880 -0.2093
  383MOL0     C50452   5.338   2.100   7.800  0.5956  0.4309 -0.5363
  383MOL0     C50453   5.420   2.202   7.726 -0.5331  0.9582  0.7400
  383MOL0     O50454   5.483   2.152   7.611 -0.5003 -0.3885 -0.8753
  383MOL0     C50455   5.561   2.243   7.544  0.4733  0.5276 -0.1428
  383MOL0     C50456   5.531   2.278   7.415 -0.5502 -0.1027 -0.2888
  383MOL0     C50457   5.597   2.373   7.344  0.3966  0.5221 -0.6312
  383MOL0     C50458   5.702   2.445   7.408  0.4079  0.3963  0.4021
  383MOL0     O50459   5.769   2.534   7.327 -0.3154 -0.1892  0.9839
  383MOL0     C50460   5.914   2.547   7.344  0.4299 -1.4087  0.3134
  383MOL0     C50461   5.988   2.428   7.300  0.3371  0.6837  0.2084
  383MOL0     C50462   6.132   2.472   7.284 -0.9610 -0.1697  0.2255
  383MOL0     C50463   6.219   2.370   7.216  0.0202 -0.4812 -0.8976
  383MOL0     C50464   6.365   2.395   7.231 -0.7432 -0.2498 -0.4138
  383MOL0     C50465   6.407   2.534   7.178  0.9247 -0.0470  0.0131
  383MOL0     C50466   6.556   2.551   7.187  0.5341 -0.2724  0.2248
  383MOL0     C50467   6.596   2.704   7.185  0.2004  0.2268 -0.7806
  383MOL0    Cl50468   6.767   2.732   7.142  0.2103  0.4494 -0.3849
  383MOL0     C50469   5.733   2.417   7.546 -0.3430  0.3438 -0.4161
  383MOL0     C50470   5.661   2.315   7.610  0.4428 -0.3276 -0.3658
  383MOL0     O50471   5.410   2.311   7.771  0.0788  0.2557 -0.6895
  383MOL0     C50472   5.340   1.971   7.754 -0.8011  0.9132  0.4484
  383MOL0     C50473   5.267   1.872   7.816  0.0121  0.5981 -0.1500
  383MOL0     N50474   4.750   1.660   8.535  0.9480 -0.6678 -0.1367
  383MOL0     N50475   4.645   1.710   8.596 -0.1207 -0.4371 -0.2520
  383MOL0     C50476   4.932   2.447   9.288  0.1754 -0.2560 -0.0810
  383MOL0     C50477   5.062   2.443   9.337  0.2398 -0.0893 -0.3338
  383MOL0     C50478   5.396   2.347   9.682 -0.1950  0.2876  0.1297
  383MOL0     C50479   5.441   2.290   9.799 -0.3628 -0.5671 -0.3004
  383MOL0     C50480   5.570   2.308   9.856  0.0946  0.5097 -0.2687
  383MOL0     C50481   5.661   2.390   9.789  0.8528 -0.5077 -0.7748
  383MOL0     O50482   5.795   2.412   9.833 -0.4852  0.8971  0.2394
  383MOL0     C50483   5.847   2.366   9.965 -0.1576 -0.0889 -0.4872
  383MOL0     C50484   5.993   2.398   9.975 -0.1045  0.3957 -0.2173
  383MOL0     C50485   6.045   2.535   9.937  0.3017 -0.4518  0.0176
  383MOL0     C50486   6.193   2.546   9.942 -0.2421 -0.6797 -0.2234
  383MOL0     C50487   6.240   2.598  10.071 -0.3530 -0.1400  0.3663
  383MOL0     C50488   6.286   2.632  10.180  0.1366  0.3590  0.1656
  383MOL0     C50489   5.618   2.441   9.667  0.8051 -0.8863 -0.1487
  383MOL0     C50490   5.491   2.421   9.607  0.5426 -0.3167 -0.2514
  383MOL0     H50491   4.991   2.353   9.659  0.0799 -3.9065 -0.1172
  383MOL0     H50492   4.779   2.348   9.575  0.3857 -0.4065 -0.0012
  383MOL0     H50493   4.701   2.591   9.266  1.1917 -0.9043 -2.6067
  383MOL0     H50494   4.541   2.534   9.284 -0.0740 -0.6328 -0.6362
  383MOL0     H50495   4.724   2.392   9.090 -0.7169 -2.7077  0.6159
  383MOL0     H50496   4.622   2.530   9.052  0.7516 -1.3871 -0.2148
  383MOL0     H50497   4.418   2.423   9.149  1.3246  2.6707  0.2031
  383MOL0     H50498   4.516   2.277   9.197  1.7391 -1.9119 -2.6815
  383MOL0     H50499   4.377   2.231   9.014 -1.1151  0.8794 -1.1683
  383MOL0     H50500   4.458   2.347   8.904  0.4324 -1.7520 -0.7912
  383MOL0     H50501   4.587   2.113   9.051 -1.9751 -0.4883  0.8836
  383MOL0     H50502   4.677   2.218   8.950  0.4648 -1.1506 -0.7074
  383MOL0     H50503   4.523   2.176   8.767  0.0102  1.3820  2.2881
  383MOL0     H50504   4.428   2.062   8.871 -0.1027 -1.2362  0.1033
  383MOL0     H50505   4.714   2.033   8.783 -0.4771  1.4934  0.6155
  383MOL0     H50506   4.635   1.929   8.904 -1.0268 -0.3662  2.2473
  383MOL0     H50507   4.529   1.989   8.625  0.5172  0.0566  0.5843
  383MOL0     H50508   4.479   1.853   8.717 -0.8889  0.9509 -1.1368
  383MOL0     H50509   4.818   1.978   8.559  2.6409 -0.8985 -3.7111
  383MOL0     H50510   5.017   1.709   8.426 -2.2831 -4.2707  1.2318
  383MOL0     H50511   4.955   1.871   8.375 -3.2363 -0.0241  0.0022
  383MOL0     H50512   4.791   1.740   8.217 -0.2127 -0.8528 -0.8006
  383MOL0     H50513   4.859   1.596   8.301 -2.1725  0.4536  2.2814
  383MOL0     H50514   5.078   1.639   8.197 -0.3268 -1.5345 -0.3272
  383MOL0     H50515   4.933   1.628   8.080 -1.5950  0.1120  0.7860
  383MOL0     H50516   5.084   1.887   8.165  2.7659  1.1255 -2.6081
  383MOL0     H50517   4.940   1.879   8.058 -0.0714 -0.3327 -1.4572
  383MOL0     H50518   5.136   2.064   8.060  0.8949  0.1780  1.1399
  383MOL0     H50519   5.268   2.232   7.948  0.0948 -1.2269 -0.4076
  383MOL0     H50520   5.440   2.238   7.370 -1.2261  0.8886  0.1480
  383MOL0     H50521   5.569   2.404   7.244  1.4629 -3.8182 -2.4871
  383MOL0     H50522   5.937   2.583   7.444  1.0645 -0.5129 -0.1467
  383MOL0     H50523   5.951   2.632   7.286  3.4021 -2.1224  0.9711
  383MOL0     H50524   5.953   2.385   7.205  3.6132 -0.6841 -0.5166
  383MOL0     H50525   5.982   2.351   7.378  1.3889  0.4058  0.0313
  383MOL0     H50526   6.167   2.488   7.386 -0.7675 -0.3350  0.1841
  383MOL0     H50527   6.145   2.561   7.221  0.5880 -0.9774 -0.6528
  383MOL0     H50528   6.189   2.271   7.254 -4.3853  0.8669 -0.2757
  383MOL0     H50529   6.202   2.354   7.109  1.5214 -1.9728 -0.9537
  383MOL0     H50530   6.411   2.320   7.167 -1.1309  0.1525 -1.1688
  383MOL0     H50531   6.405   2.374   7.331  1.1381 -1.2861 -1.3247
  383MOL0     H50532   6.348   2.602   7.240 -3.9566 -2.9725 -0.8951
  383MOL0     H50533   6.380   2.545   7.072 -1.8718 -2.1809  0.3794
  383MOL0     H50534   6.597   2.514   7.282 -3.3196  0.2991  2.2848
  383MOL0     H50535   6.603   2.491   7.108 -0.0317  1.1841 -1.2703
  383MOL0     H50536   6.573   2.743   7.284 -0.4865 -1.1148 -0.3731
  383MOL0     H50537   6.534   2.761   7.115 -2.0427  0.2717  1.1355
  383MOL0     H50538   5.813   2.466   7.601  1.1898 -1.8027 -0.5916
  383MOL0     H50539   5.685   2.295   7.714  4.1723  1.3389 -0.7633
  383MOL0     H50540   5.406   1.935   7.676 -0.0669 -0.4614  1.6590
  383MOL0     H50541   5.277   1.771   7.778  2.9690  0.4504  0.7766
  383MOL0     H50542   4.909   2.487   9.189  1.6650 -1.6617 -1.0519
  383MOL0     H50543   5.138   2.484   9.271  0.3360 -1.1439 -0.8962
  383MOL0     H50544   5.382   2.214   9.850  0.3162 -2.7661 -2.6209
  383MOL0     H50545   5.594   2.267   9.954 -0.5069  1.3802  0.2562
  383MOL0     H50546   5.834   2.259   9.979  0.4631  0.0523  1.4186
  383MOL0     H50547   5.779   2.418  10.033 -2.8208 -0.3654 -2.7274
  383MOL0     H50548   6.026   2.379  10.077  0.6802 -1.8564 -0.8239
  383MOL0     H50549   6.046   2.327   9.911  3.4116  1.0131  1.7522
  383MOL0     H50550   5.994   2.605  10.003  0.2100 -1.2113  0.7618
  383MOL0     H50551   6.026   2.550   9.830  3.9850  0.2228 -0.6858
  383MOL0     H50552   6.242   2.454   9.910  1.2327 -0.0717  0.1909
  383MOL0     H50553   6.225   2.625   9.874  0.7766  1.8332  2.9551
  383MOL0     H50554   6.339   2.665  10.267 -0.1178  0.8584  0.1303
  383MOL0     H50555   5.696   2.495   9.616 -1.6005  0.6267 -2.5093
  383MOL0     H50556   5.466   2.462   9.510 -0.7464 -0.8879 -0.1831
  384MOL0     O50557   8.298   5.423   0.542 -0.0183 -0.1427 -0.0196
  384MOL0     C50558   8.353   5.322   0.491  0.1546 -0.5385 -0.9955
  384MOL0     O50559   8.286   5.216   0.436  0.1315  0.4312  0.3671
  384MOL0     C50560   8.151   5.206   0.423  0.4481  0.4279 -0.6005
  384MOL0     C50561   8.099   5.078   0.368  0.4949  0.1405  0.1230
  384MOL0     C50562   7.961   5.057   0.353  0.2981  0.0786  0.1285
  384MOL0     C50563   7.871   5.159   0.376 -0.1772 -0.2295  0.6145
  384MOL0     O50564   7.741   5.124   0.347  0.2739 -0.0937 -0.0066
  384MOL0     C50565   7.637   5.220   0.359 -0.6064 -0.1861 -0.7936
  384MOL0     C50566   7.506   5.156   0.307 -1.1745 -1.0861  0.5061
  384MOL0     C50567   7.385   5.225   0.379 -0.1291  0.1052  0.2321
  384MOL0     C50568   7.259   5.147   0.352  0.4433  0.3244  0.6164
  384MOL0     C50569   7.129   5.227   0.395 -0.4806  0.0438 -0.5630
  384MOL0     C50570   6.992   5.167   0.360 -0.5489 -0.2379  0.7294
  384MOL0     C50571   6.877   5.270   0.389 -0.6546 -0.7077 -0.1654
  384MOL0     C50572   6.735   5.227   0.345 -0.6938 -0.1465 -0.0445
  384MOL0     N50573   6.635   5.257   0.438 -0.3413 -0.1257 -0.0710
  384MOL0     C50574   6.528   5.175   0.472  0.3062  0.0408  0.6175
  384MOL0     C50575   6.461   5.245   0.561 -0.6501 -0.5581  0.7958
  384MOL0     C50576   6.351   5.191   0.640  0.8797 -0.1411 -0.0935
  384MOL0     C50577   6.229   5.282   0.609  0.4086 -0.0700 -0.0342
  384MOL0     C50578   6.105   5.224   0.678  0.3724  0.1537  0.6387
  384MOL0     C50579   5.978   5.299   0.658  0.4625  0.7144  0.6732
  384MOL0     O50580   5.984   5.435   0.698  0.5763  0.1261 -0.2735
  384MOL0     C50581   5.881   5.526   0.666 -0.5413  0.0938 -0.2711
  384MOL0     C50582   5.748   5.477   0.657  0.4819  0.3829  0.7503
  384MOL0     C50583   5.640   5.567   0.619 -0.1203  0.3156  0.7682
  384MOL0     C50584   5.672   5.700   0.593  0.0016  0.0087 -0.8742
  384MOL0     C50585   5.567   5.791   0.546 -0.7775  0.4219  0.3039
  384MOL0     O50586   5.583   5.927   0.553  0.2376  0.3553 -0.6571
  384MOL0     C50587   5.485   5.998   0.494  0.0381 -0.4637 -0.3007
  384MOL0     C50588   5.377   6.043   0.582  0.2170  0.2902  0.3340
  384MOL0     C50589   5.273   6.117   0.541  0.1172 -0.0734 -0.1472
  384MOL0     C50590   5.272   6.178   0.411 -0.0638  0.4270 -0.1521
  384MOL0     O50591   5.174   6.246   0.354 -0.4520 -0.0189  0.3294
  384MOL0     C50592   5.067   6.286   0.446  0.6487  0.9290  0.3894
  384MOL0     C50593   4.965   6.370   0.371 -0.0447  0.2688  0.6617
  384MOL0     C50594   5.012   6.499   0.324  0.5173 -0.1878  0.1268
  384MOL0     C50595   4.935   6.550   0.207  0.1464 -0.5525 -0.1325
  384MOL0     C50596   4.995   6.686   0.159  0.4164 -0.1151 -0.5354
  384MOL0     C50597   4.907   6.754   0.047 -0.3416  0.3684 -0.3075
  384MOL0     C50598   4.977   6.883   0.003  0.2322 -0.5072  0.1182
  384MOL0     C50599   4.881   6.996  -0.050 -1.2515 -0.0172  0.2146
  384MOL0    Cl50600   4.770   7.057   0.088 -0.3117 -0.4339  0.1849
  384MOL0     C50601   5.385   6.152   0.331  0.2660  0.0802  0.8904
  384MOL0     C50602   5.481   6.057   0.368 -0.4548  0.0086  0.1132
  384MOL0     O50603   5.465   5.734   0.503 -0.3424 -0.3533  0.6015
  384MOL0     C50604   5.801   5.752   0.617  0.3143  0.4392  0.0165
  384MOL0     C50605   5.907   5.662   0.641  0.4028 -0.5117 -0.6199
  384MOL0     N50606   6.537   5.362   0.584  0.1436  0.7286 -0.7840
  384MOL0     N50607   6.636   5.373   0.513  0.7527  0.3929  0.6643
  384MOL0     C50608   7.917   5.281   0.439  0.6771  0.3873  0.2873
  384MOL0     C50609   8.053   5.300   0.467  0.2620  1.0472 -0.0067
  384MOL0     C50610   8.501   5.328   0.478 -0.7139 -1.0362 -0.0840
  384MOL0     C50611   8.568   5.242   0.392 -0.0344  0.4030  0.7902
  384MOL0     C50612   8.706   5.239   0.374 -0.0903  0.2478 -0.5929
  384MOL0     C50613   8.787   5.325   0.450 -0.2053 -0.3975 -0.1471
  384MOL0     O50614   8.927   5.326   0.420  0.0056 -0.4975 -0.2201
  384MOL0     C50615   9.017   5.402   0.497  0.2305 -0.4472  0.0824
  384MOL0     C50616   9.147   5.380   0.430  0.2338 -0.2351  0.0353
  384MOL0     C50617   9.264   5.446   0.502  0.3636  0.9582  0.6702
  384MOL0     C50618   9.250   5.582   0.573 -0.3156 -0.0071 -0.0701
  384MOL0     C50619   9.195   5.685   0.484  0.9080 -0.5872  0.6230
  384MOL0     C50620   9.150   5.767   0.399 -0.3029  0.9625 -0.2984
  384MOL0     C50621   8.716   5.405   0.543  0.4131 -0.1772  0.2039
  384MOL0     C50622   8.585   5.416   0.557  0.1460  0.4120 -0.1834
  384MOL0     H50623   8.171   5.002   0.340  1.5303  1.3946 -0.7320
  384MOL0     H50624   7.932   4.955   0.328  1.7657 -0.0416 -1.2005
  384MOL0     H50625   7.658   5.311   0.303 -1.7127  0.4059 -0.2971
  384MOL0     H50626   7.625   5.235   0.467  1.9446 -1.1519 -0.3021
  384MOL0     H50627   7.513   5.049   0.330  3.6462 -1.2092 -0.3754
  384MOL0     H50628   7.491   5.173   0.200 -0.2281  0.3437  0.5726
  384MOL0     H50629   7.383   5.330   0.348  1.7059  0.1210  0.0326
  384MOL0     H50630   7.396   5.222   0.488  0.4451 -1.3688  0.1664
  384MOL0     H50631   7.252   5.126   0.245  0.5284 -2.8217  1.1505
  384MOL0     H50632   7.266   5.050   0.401  1.3069 -0.1107 -0.3401
  384MOL0     H50633   7.146   5.323   0.346 -0.9696  0.6808  0.4923
  384MOL0     H50634   7.131   5.247   0.503 -1.2093 -2.1473 -0.0908
  384MOL0     H50635   6.974   5.078   0.420  1.8368  1.0618  3.6578
  384MOL0     H50636   6.994   5.135   0.255 -1.5758  3.4148 -0.5580
  384MOL0     H50637   6.894   5.283   0.496  1.0880 -1.7138 -0.2867
  384MOL0     H50638   6.905   5.364   0.342  0.0065 -0.3301  0.9613
  384MOL0     H50639   6.743   5.119   0.335  0.0219  0.0263 -1.6368
  384MOL0     H50640   6.714   5.269   0.246 -0.2914 -0.6693 -0.3526
  384MOL0     H50641   6.490   5.078   0.442 -0.8387  0.8734 -0.7770
  384MOL0     H50642   6.367   5.203   0.747  0.5293 -0.6157  0.0131
  384MOL0     H50643   6.338   5.085   0.615  0.2739 -0.2095  0.5102
  384MOL0     H50644   6.219   5.285   0.500 -3.1890  0.9220  0.1930
  384MOL0     H50645   6.239   5.387   0.640 -0.4552  0.7080 -2.1980
  384MOL0     H50646   6.095   5.121   0.641 -3.1018  0.1766  1.1664
  384MOL0     H50647   6.127   5.234   0.785 -0.2148 -1.0798  0.8923
  384MOL0     H50648   5.903   5.242   0.714 -0.6416  1.5409  0.0750
  384MOL0     H50649   5.939   5.281   0.557 -1.8174  0.3274  1.5430
  384MOL0     H50650   5.716   5.374   0.671  0.1242  0.1000 -1.7383
  384MOL0     H50651   5.538   5.529   0.620 -0.4211  1.1087  1.5962
  384MOL0     H50652   5.362   5.990   0.676 -1.6351  0.5167  0.1974
  384MOL0     H50653   5.193   6.113   0.614  0.8061 -4.1633  0.6070
  384MOL0     H50654   5.116   6.339   0.528 -0.2248  2.0943  0.1717
  384MOL0     H50655   5.010   6.202   0.485 -0.9101  2.7431  2.2393
  384MOL0     H50656   4.880   6.390   0.436 -0.7373  4.3127 -1.1768
  384MOL0     H50657   4.936   6.312   0.283  0.0741  0.0399  0.7714
  384MOL0     H50658   5.111   6.484   0.279  0.0761  0.3095 -1.0384
  384MOL0     H50659   5.020   6.560   0.415  0.4146 -1.8715  1.3094
  384MOL0     H50660   4.940   6.483   0.122  1.9396 -1.5019  0.6707
  384MOL0     H50661   4.833   6.575   0.239 -0.4283  1.9299 -3.3513
  384MOL0     H50662   5.089   6.665   0.108  0.6870 -2.7585  0.8592
  384MOL0     H50663   5.020   6.752   0.242  1.5369 -0.8107 -0.2977
  384MOL0     H50664   4.811   6.776   0.093 -0.3276 -0.1958 -0.0054
  384MOL0     H50665   4.899   6.683  -0.036  1.7261  0.1372 -0.3550
  384MOL0     H50666   5.031   6.931   0.085  1.7860 -3.1564  0.7593
  384MOL0     H50667   5.043   6.854  -0.080 -2.3970 -1.0066 -1.9246
  384MOL0     H50668   4.820   6.952  -0.129 -0.4615  0.6100 -0.7604
  384MOL0     H50669   4.944   7.072  -0.096 -2.5810  0.1083 -1.5115
  384MOL0     H50670   5.395   6.212   0.241 -1.3574 -0.3090  0.4195
  384MOL0     H50671   5.569   6.041   0.307 -1.2867  2.0896 -1.7554
  384MOL0     H50672   5.813   5.860   0.616 -4.1422  1.1459  0.3527
  384MOL0     H50673   6.011   5.694   0.651 -0.1328  1.3196 -0.4431
  384MOL0     H50674   7.851   5.362   0.467 -0.1548  0.3673 -1.4953
  384MOL0     H50675   8.083   5.396   0.507 -1.6364  1.0681  1.5056
  384MOL0     H50676   8.501   5.178   0.335  0.8266 -0.2947  0.5449
  384MOL0     H50677   8.756   5.167   0.311 -0.7811  1.1826 -2.2718
  384MOL0     H50678   9.010   5.355   0.596 -4.4464 -1.1513 -0.3563
  384MOL0     H50679   8.982   5.505   0.494 -1.4611 -0.9864  0.0952
  384MOL0     H50680   9.168   5.274   0.419 -0.1834 -0.1229 -2.1693
  384MOL0     H50681   9.137   5.418   0.328  0.7897 -1.5032 -0.5023
  384MOL0     H50682   9.345   5.447   0.429 -1.1891  0.1696 -1.1395
  384MOL0     H50683   9.293   5.378   0.584 -0.5095  1.5396  1.4742
  384MOL0     H50684   9.202   5.584   0.671  0.1347 -1.6999  0.2170
  384MOL0     H50685   9.352   5.616   0.594 -0.4670  0.7993 -0.5630
  384MOL0     H50686   9.128   5.838   0.323  0.0549 -0.1290 -1.4566
  384MOL0     H50687   8.769   5.478   0.603  0.4320 -0.9736  1.1838
  384MOL0     H50688   8.533   5.486   0.623 -4.2538  0.6674 -3.4920
  385MOL0     O50689   5.875   6.014   0.420  0.1904 -0.3859 -0.4092
  385MOL0     C50690   5.979   6.064   0.380 -0.5543 -0.5940 -0.3672
  385MOL0     O50691   5.985   6.195   0.325  0.2020 -0.5405  0.0680
  385MOL0     C50692   5.876   6.272   0.290 -0.1427  0.1862  0.1683
  385MOL0     C50693   5.872   6.322   0.158  0.4151 -0.3665  0.0466
  385MOL0     C50694   5.767   6.400   0.118  0.3373 -0.2403  0.5899
  385MOL0     C50695   5.660   6.425   0.206  0.7057  0.0910 -0.0487
  385MOL0     O50696   5.544   6.487   0.177  0.3901 -0.4640 -0.7463
  385MOL0     C50697   5.508   6.514   0.039 -0.1037  0.2372 -0.3367
  385MOL0     C50698   5.367   6.575   0.042  0.5081  0.1088 -0.1608
  385MOL0     C50699   5.305   6.576  -0.100 -0.9582  0.3907 -0.7509
  385MOL0     C50700   5.280   6.440  -0.166  0.0976 -0.4398 -0.5567
  385MOL0     C50701   5.193   6.455  -0.289 -0.3583  0.6041  0.1922
  385MOL0     C50702   5.050   6.488  -0.251 -0.1105  0.3706  0.9432
  385MOL0     C50703   4.959   6.492  -0.376  0.1285 -0.0044  0.2567
  385MOL0     C50704   4.876   6.615  -0.399 -0.4631  0.4083 -0.0088
  385MOL0     N50705   4.962   6.710  -0.469  0.2920  0.6927 -0.5605
  385MOL0     C50706   5.060   6.781  -0.410  0.3755  0.4358 -0.1022
  385MOL0     C50707   5.124   6.853  -0.506  0.3086  0.5447 -0.5106
  385MOL0     C50708   5.256   6.920  -0.491  0.0851 -0.3599 -1.0195
  385MOL0     C50709   5.374   6.826  -0.522 -0.4172 -0.0170  0.1578
  385MOL0     C50710   5.492   6.921  -0.539  0.1080 -1.3419  0.4898
  385MOL0     C50711   5.620   6.859  -0.481 -0.9246 -1.3164  0.0772
  385MOL0     O50712   5.725   6.956  -0.509 -0.5326  0.2649 -0.0285
  385MOL0     C50713   5.856   6.909  -0.510 -0.5635  0.6906  0.6919
  385MOL0     C50714   5.964   6.977  -0.451  0.0273  0.3372  0.2767
  385MOL0     C50715   6.091   6.930  -0.431 -0.9455  0.0088  0.1843
  385MOL0     C50716   6.127   6.812  -0.493  0.7306 -0.3472 -0.4442
  385MOL0     C50717   6.257   6.757  -0.461  0.2911 -0.0196 -0.7287
  385MOL0     O50718   6.319   6.807  -0.347 -0.3229  0.7766 -0.2236
  385MOL0     C50719   6.454   6.773  -0.338 -0.2437  0.0722 -0.0507
  385MOL0     C50720   6.483   6.699  -0.225  0.9916 -0.0457  0.3524
  385MOL0     C50721   6.615   6.644  -0.207  0.0134  0.1006 -0.1864
  385MOL0     C50722   6.714   6.678  -0.302  0.3913  0.6484 -0.9269
  385MOL0     O50723   6.840   6.625  -0.275 -1.0992  0.1700  0.5854
  385MOL0     C50724   6.937   6.658  -0.365 -0.5513 -0.8551  0.2108
  385MOL0     C50725   7.058   6.593  -0.324 -0.5319 -0.0717 -0.4409
  385MOL0     C50726   7.108   6.629  -0.185  0.0885  0.0969  0.6320
  385MOL0     C50727   7.265   6.606  -0.173 -0.3899 -1.2508  0.7895
  385MOL0     C50728   7.357   6.693  -0.266  0.0574  0.6101  0.0538
  385MOL0     C50729   7.513   6.659  -0.240 -0.4386 -0.5981 -0.7478
  385MOL0     C50730   7.598   6.761  -0.321  0.0703  0.3676  0.5624
  385MOL0     C50731   7.746   6.712  -0.359  0.0995  0.1125  0.4402
  385MOL0    Cl50732   7.866   6.724  -0.219  0.2992  0.0509  0.2562
  385MOL0     C50733   6.686   6.758  -0.407  0.5740 -0.4451 -0.0507
  385MOL0     C50734   6.557   6.797  -0.431  0.7897 -0.8918  0.0740
  385MOL0     O50735   6.300   6.667  -0.536 -0.2550  0.2323  0.4506
  385MOL0     C50736   6.028   6.735  -0.560 -1.4661 -0.3146  0.0049
  385MOL0     C50737   5.893   6.785  -0.560  0.8181 -0.2479 -0.3236
  385MOL0     N50738   5.044   6.841  -0.613 -0.2699  0.9433 -0.1158
  385MOL0     N50739   4.964   6.748  -0.598  0.4825 -0.8962  0.6491
  385MOL0     C50740   5.663   6.373   0.337  1.4378 -0.2246  0.2560
  385MOL0     C50741   5.764   6.298   0.372 -1.0347 -0.3794  0.1327
  385MOL0     C50742   6.107   5.997   0.410 -0.2969  0.4362  0.2354
  385MOL0     C50743   6.227   6.068   0.407  0.2261  0.5339  0.8490
  385MOL0     C50744   6.343   5.993   0.435 -0.4370 -0.0862  0.2929
  385MOL0     C50745   6.346   5.855   0.469  0.3057 -0.2151  0.2480
  385MOL0     O50746   6.473   5.793   0.485 -0.4354  0.2348  0.4637
  385MOL0     C50747   6.545   5.819   0.609 -0.3762  0.3261  0.6665
  385MOL0     C50748   6.570   5.691   0.686 -0.0710  0.2896  0.0098
  385MOL0     C50749   6.639   5.719   0.820 -0.2963 -0.3248  0.2899
  385MOL0     C50750   6.692   5.594   0.884 -0.3314  0.5273 -0.4045
  385MOL0     C50751   6.749   5.631   1.015  0.0219 -0.4344 -0.3127
  385MOL0     C50752   6.800   5.649   1.118  0.2102 -0.2073  0.0450
  385MOL0     C50753   6.235   5.790   0.467  0.5640  0.5425  0.1076
  385MOL0     C50754   6.111   5.863   0.444 -0.3762 -0.8991  0.0216
  385MOL0     H50755   5.954   6.298   0.091  2.3719  0.7575  1.9190
  385MOL0     H50756   5.762   6.447   0.021 -2.6950 -0.3462  0.6069
  385MOL0     H50757   5.515   6.423  -0.020 -1.3507 -0.9885  1.2985
  385MOL0     H50758   5.584   6.583   0.004  1.6162 -2.4365 -2.2323
  385MOL0     H50759   5.371   6.676   0.082 -1.7893  1.0226 -2.0215
  385MOL0     H50760   5.294   6.527   0.107 -5.9707  2.3949 -4.6910
  385MOL0     H50761   5.358   6.640  -0.171  1.2301  0.5201  0.8865
  385MOL0     H50762   5.205   6.618  -0.087 -1.7789 -1.8221  0.8038
  385MOL0     H50763   5.380   6.401  -0.189  0.3266 -2.4333  3.0987
  385MOL0     H50764   5.241   6.363  -0.098 -1.8141  1.1478  0.2296
  385MOL0     H50765   5.191   6.377  -0.365  0.5405  0.9403 -0.1924
  385MOL0     H50766   5.235   6.541  -0.343  1.3550 -0.6575 -0.5644
  385MOL0     H50767   5.045   6.588  -0.206  3.4572  0.9248  0.4297
  385MOL0     H50768   5.012   6.420  -0.175  0.5150 -2.0579 -0.8104
  385MOL0     H50769   5.020   6.477  -0.465 -0.8487  4.3685 -1.4339
  385MOL0     H50770   4.877   6.420  -0.364 -1.1509  1.4408  0.4891
  385MOL0     H50771   4.844   6.656  -0.303  0.9233 -1.9037  1.5309
  385MOL0     H50772   4.785   6.586  -0.453 -1.0362  1.9554  0.0714
  385MOL0     H50773   5.091   6.767  -0.307 -1.1026  4.0592  0.9663
  385MOL0     H50774   5.272   6.965  -0.393 -1.0497 -2.3790  0.1405
  385MOL0     H50775   5.247   6.992  -0.573 -3.5080  1.2124  0.5592
  385MOL0     H50776   5.356   6.762  -0.608 -1.1120 -0.2015  0.4301
  385MOL0     H50777   5.387   6.767  -0.431  2.7370  3.5080  2.2763
  385MOL0     H50778   5.503   6.942  -0.646  4.7907 -0.3142  0.9493
  385MOL0     H50779   5.485   7.020  -0.493  1.4696 -0.5711 -0.8447
  385MOL0     H50780   5.644   6.759  -0.519  1.7796 -0.4989 -0.5761
  385MOL0     H50781   5.624   6.857  -0.372 -0.3227  0.3391  0.1174
  385MOL0     H50782   5.936   7.073  -0.410  2.7725  1.0728  0.6062
  385MOL0     H50783   6.155   6.988  -0.366 -1.2241  0.2534  0.2393
  385MOL0     H50784   6.408   6.685  -0.148 -0.9085 -1.9139 -1.7080
  385MOL0     H50785   6.635   6.585  -0.118 -1.4418 -1.5850 -0.9135
  385MOL0     H50786   6.946   6.767  -0.363 -0.2766 -0.7707 -2.2159
  385MOL0     H50787   6.917   6.622  -0.466 -1.0988 -3.0489  1.0564
  385MOL0     H50788   7.141   6.620  -0.389  2.6560 -1.0161  2.9170
  385MOL0     H50789   7.050   6.484  -0.331  0.1807 -0.1864  0.4195
  385MOL0     H50790   7.053   6.565  -0.115 -0.5957  2.1847  2.1118
  385MOL0     H50791   7.084   6.733  -0.162  2.9827  1.3713 -1.5976
  385MOL0     H50792   7.300   6.636  -0.074  2.5078  0.0704 -0.5213
  385MOL0     H50793   7.291   6.502  -0.194  1.0276 -0.9349  0.8730
  385MOL0     H50794   7.338   6.800  -0.255  1.8805  1.7570 -5.0717
  385MOL0     H50795   7.334   6.657  -0.367 -1.7061 -3.1234  1.6151
  385MOL0     H50796   7.536   6.560  -0.279 -1.3538 -1.1346  0.0268
  385MOL0     H50797   7.546   6.672  -0.137  0.1694 -1.5797 -0.8073
  385MOL0     H50798   7.542   6.788  -0.411  0.7026  0.5720  0.2213
  385MOL0     H50799   7.607   6.858  -0.270  1.8873 -0.0122  1.0633
  385MOL0     H50800   7.780   6.743  -0.458 -1.5484 -2.1954 -0.9373
  385MOL0     H50801   7.741   6.604  -0.378  1.6639  0.3532 -1.5916
  385MOL0     H50802   6.761   6.798  -0.474 -1.5853  3.5782 -0.4033
  385MOL0     H50803   6.548   6.865  -0.515 -2.3573  0.1311  1.0815
  385MOL0     H50804   6.056   6.646  -0.616  0.3919 -0.5843  1.2657
  385MOL0     H50805   5.823   6.717  -0.607 -0.1275  0.8132 -0.5024
  385MOL0     H50806   5.584   6.384   0.410  1.8037  2.9308  0.3116
  385MOL0     H50807   5.763   6.250   0.470  0.8060  0.9416  0.8671
  385MOL0     H50808   6.224   6.173   0.380 -0.1209  0.5146  0.8025
  385MOL0     H50809   6.436   6.048   0.441 -0.4730 -0.0762  0.7591
  385MOL0     H50810   6.495   5.894   0.671 -0.8125  1.1523 -0.6522
  385MOL0     H50811   6.642   5.862   0.583 -0.9354  1.3298  0.1889
  385MOL0     H50812   6.474   5.641   0.705  0.7592 -1.0842  0.7397
  385MOL0     H50813   6.630   5.628   0.620  0.8595  1.3703 -0.2110
  385MOL0     H50814   6.569   5.770   0.887 -1.8092 -2.1899  0.1910
  385MOL0     H50815   6.725   5.785   0.801 -0.5369  0.1547  0.8339
  385MOL0     H50816   6.623   5.513   0.910  0.2975  0.1346  0.0687
  385MOL0     H50817   6.769   5.544   0.825 -0.1889 -1.4815  1.3789
  385MOL0     H50818   6.864   5.663   1.203  1.1372  0.3692 -0.7278
  385MOL0     H50819   6.232   5.682   0.469 -1.8511  0.5565  1.2429
  385MOL0     H50820   6.021   5.803   0.448  0.1153 -1.6552 -0.0138
  386MOL0     O50821   6.833   4.969   5.589  0.3396  0.1855 -0.2152
  386MOL0     C50822   6.926   4.982   5.672  1.0484  0.0905 -0.5141
  386MOL0     O50823   6.953   4.904   5.781  0.3116  0.4116 -0.2233
  386MOL0     C50824   6.873   4.802   5.819 -0.2997 -0.4705 -0.4756
  386MOL0     C50825   6.733   4.799   5.797  0.0954 -0.3091  0.8572
  386MOL0     C50826   6.659   4.681   5.821 -0.7406 -0.0881 -0.2942
  386MOL0     C50827   6.705   4.569   5.885 -0.2285 -0.1808 -0.0281
  386MOL0     O50828   6.630   4.462   5.920  0.1530 -0.0979 -0.1083
  386MOL0     C50829   6.572   4.391   5.810 -0.7990  0.2684  0.2068
  386MOL0     C50830   6.440   4.328   5.859 -0.2167  0.1794 -0.6510
  386MOL0     C50831   6.380   4.254   5.735 -0.1823 -0.6013  0.5904
  386MOL0     C50832   6.289   4.348   5.653 -0.0206  0.3459 -0.3313
  386MOL0     C50833   6.198   4.266   5.555  0.3480  0.1430  0.2885
  386MOL0     C50834   6.116   4.347   5.458 -0.1978  0.1553  0.4692
  386MOL0     C50835   5.993   4.274   5.408  0.9523 -1.1277  0.8746
  386MOL0     C50836   5.876   4.262   5.501  0.2603 -0.4909 -0.1053
  386MOL0     N50837   5.846   4.395   5.560  0.6498  0.1591  0.4033
  386MOL0     C50838   5.764   4.490   5.507  0.5372 -0.3997 -0.8414
  386MOL0     C50839   5.773   4.590   5.601 -0.1635  0.2774  0.5727
  386MOL0     C50840   5.689   4.714   5.605 -0.5070  0.1607  0.6122
  386MOL0     C50841   5.586   4.703   5.711  0.2414 -0.3993 -0.4649
  386MOL0     C50842   5.511   4.835   5.731 -0.7271 -0.6718  0.4537
  386MOL0     C50843   5.423   4.858   5.859 -0.0801 -0.3869  0.7209
  386MOL0     O50844   5.467   4.982   5.927 -0.2255  0.2468 -1.1516
  386MOL0     C50845   5.376   5.021   6.020 -0.4329 -0.0895 -0.0003
  386MOL0     C50846   5.277   4.940   6.077  0.4577 -0.5537  0.3741
  386MOL0     C50847   5.192   4.995   6.176  0.0718  1.2923 -0.5278
  386MOL0     C50848   5.210   5.120   6.225  0.2108  0.8793 -0.1344
  386MOL0     C50849   5.120   5.160   6.337  0.0662  0.6275  0.2414
  386MOL0     O50850   5.039   5.059   6.396 -0.4413 -0.7761 -0.5792
  386MOL0     C50851   4.967   5.057   6.510 -0.4238 -1.4533  0.2449
  386MOL0     C50852   4.867   4.961   6.526 -0.2619  0.6393 -0.1395
  386MOL0     C50853   4.792   4.952   6.637  0.2982  0.1141  0.0216
  386MOL0     C50854   4.795   5.053   6.741 -0.3578 -0.2101  0.6275
  386MOL0     O50855   4.700   5.056   6.841  0.3786  0.8566 -0.5929
  386MOL0     C50856   4.763   5.100   6.965  0.5832  0.4789 -0.4191
  386MOL0     C50857   4.687   5.074   7.090 -0.6019  0.2398 -0.6480
  386MOL0     C50858   4.752   5.152   7.199 -0.1991 -0.1809 -0.1106
  386MOL0     C50859   4.669   5.148   7.328  0.6325  0.0545 -0.8411
  386MOL0     C50860   4.583   5.271   7.340  0.1510  0.0020 -0.4059
  386MOL0     C50861   4.509   5.256   7.476 -0.0587  0.1391  0.6249
  386MOL0     C50862   4.442   5.395   7.513 -0.1163  0.1403 -0.2338
  386MOL0     C50863   4.367   5.380   7.649 -0.1217 -0.6651  0.3399
  386MOL0    Cl50864   4.276   5.533   7.688 -0.1386 -0.2280  0.0276
  386MOL0     C50865   4.896   5.154   6.726  0.0146 -0.0272  0.2943
  386MOL0     C50866   4.983   5.153   6.619 -0.3607  0.3970 -1.1383
  386MOL0     O50867   5.121   5.279   6.377  0.9478  0.6312 -0.3358
  386MOL0     C50868   5.320   5.199   6.191 -0.1737 -0.2857 -0.2674
  386MOL0     C50869   5.400   5.147   6.083  0.4565  0.4229  0.4774
  386MOL0     N50870   5.845   4.545   5.707  0.4278 -0.3258  0.1651
  386MOL0     N50871   5.899   4.436   5.678  0.3959  0.3335  0.5064
  386MOL0     C50872   6.848   4.574   5.906 -0.0223  0.4392  0.7130
  386MOL0     C50873   6.929   4.684   5.876  0.4292  0.4063 -0.0577
  386MOL0     C50874   7.024   5.078   5.635  0.3087 -0.3638 -0.1332
  386MOL0     C50875   7.028   5.139   5.514  0.0256 -0.2274 -0.4286
  386MOL0     C50876   7.123   5.239   5.492 -0.1890  0.3440  1.0004
  386MOL0     C50877   7.225   5.266   5.575  1.1496  0.2349 -0.0618
  386MOL0     O50878   7.326   5.361   5.552 -0.0572 -0.2954 -0.9289
  386MOL0     C50879   7.340   5.436   5.429 -0.0645  0.2286  0.7207
  386MOL0     C50880   7.453   5.534   5.449  0.3504  0.3498 -0.1534
  386MOL0     C50881   7.597   5.474   5.436  0.5483  0.0066 -0.0609
  386MOL0     C50882   7.679   5.587   5.377  0.1045 -0.0954  0.3933
  386MOL0     C50883   7.809   5.534   5.332  0.3902 -0.8401 -0.0841
  386MOL0     C50884   7.916   5.487   5.299 -0.2448  0.5515  0.4100
  386MOL0     C50885   7.227   5.193   5.696 -1.3808 -0.1381  0.2591
  386MOL0     C50886   7.130   5.106   5.733 -0.2997  0.6580  0.1542
  386MOL0     H50887   6.682   4.885   5.755 -0.4771 -0.8904  0.3480
  386MOL0     H50888   6.553   4.693   5.799 -0.4737  2.8158 -0.4056
  386MOL0     H50889   6.646   4.316   5.781  0.2950  1.3620  0.0490
  386MOL0     H50890   6.553   4.462   5.729  1.3140  0.1236 -0.4902
  386MOL0     H50891   6.373   4.397   5.912  1.2770  0.2277  1.2890
  386MOL0     H50892   6.464   4.256   5.938  0.6505  1.1376 -0.0269
  386MOL0     H50893   6.333   4.160   5.765  1.6558 -1.5698  0.5971
  386MOL0     H50894   6.460   4.212   5.673 -0.5325  0.3708 -0.5648
  386MOL0     H50895   6.230   4.404   5.726  0.3851  0.2768  0.0551
  386MOL0     H50896   6.358   4.416   5.602 -1.4350  1.7016 -0.5199
  386MOL0     H50897   6.121   4.223   5.620  1.5255 -0.0814  1.5778
  386MOL0     H50898   6.263   4.197   5.500  1.6767  1.4204  0.2077
  386MOL0     H50899   6.181   4.368   5.373 -2.1911  0.7124 -0.9862
  386MOL0     H50900   6.101   4.443   5.508  0.3210  1.0402 -1.0172
  386MOL0     H50901   5.957   4.330   5.322  1.9576 -0.1306  1.0865
  386MOL0     H50902   6.015   4.174   5.369  1.3769 -0.6482 -0.1535
  386MOL0     H50903   5.890   4.194   5.586 -1.0862 -0.3644  0.2504
  386MOL0     H50904   5.792   4.227   5.440  2.2517 -3.2904 -1.4200
  386MOL0     H50905   5.710   4.487   5.413  1.1473  2.1695 -1.3323
  386MOL0     H50906   5.649   4.737   5.505  2.1889  0.9347 -0.3603
  386MOL0     H50907   5.759   4.791   5.638  2.2672 -1.1759 -1.7002
  386MOL0     H50908   5.637   4.669   5.802 -0.8032 -0.4383  0.1326
  386MOL0     H50909   5.521   4.619   5.684  2.0646 -1.8598 -0.5217
  386MOL0     H50910   5.579   4.921   5.733  0.1804 -1.3036 -1.2533
  386MOL0     H50911   5.454   4.851   5.639  0.2337 -0.8072 -0.1843
  386MOL0     H50912   5.436   4.779   5.933  1.3467  0.5584  1.5221
  386MOL0     H50913   5.315   4.858   5.840 -0.0914 -3.4048  0.3897
  386MOL0     H50914   5.256   4.840   6.042  0.6372 -0.9399  1.3591
  386MOL0     H50915   5.114   4.938   6.226 -1.4957  2.4165 -1.6232
  386MOL0     H50916   4.852   4.900   6.438  2.1267 -0.9253  0.4474
  386MOL0     H50917   4.709   4.883   6.625  1.1033 -0.9110  0.2653
  386MOL0     H50918   4.769   5.209   6.955 -3.0149  0.8107 -0.5699
  386MOL0     H50919   4.860   5.051   6.977  0.4142  0.3663  0.5710
  386MOL0     H50920   4.685   4.966   7.109  1.9843  0.5498  2.0871
  386MOL0     H50921   4.588   5.122   7.090 -0.1567  1.2182  0.9951
  386MOL0     H50922   4.773   5.252   7.160 -0.3460  0.2529  0.8920
  386MOL0     H50923   4.847   5.103   7.223  0.1912 -0.5873 -2.2672
  386MOL0     H50924   4.595   5.068   7.327  0.0864  0.5032 -3.0991
  386MOL0     H50925   4.742   5.130   7.407 -0.1197 -2.5838 -0.6553
  386MOL0     H50926   4.513   5.286   7.258 -0.9486  0.5753  0.6188
  386MOL0     H50927   4.652   5.356   7.349 -1.1587  0.8894  2.1063
  386MOL0     H50928   4.586   5.234   7.552  0.8004  0.5974 -0.0882
  386MOL0     H50929   4.434   5.177   7.470  1.1450 -1.2594  2.6677
  386MOL0     H50930   4.525   5.466   7.523  0.7279 -0.7451 -0.7957
  386MOL0     H50931   4.382   5.428   7.428  2.1490  0.3361 -1.8681
  386MOL0     H50932   4.439   5.362   7.729  0.3159  3.2217  1.0360
  386MOL0     H50933   4.292   5.300   7.642  0.3966 -0.9978 -4.0223
  386MOL0     H50934   4.909   5.243   6.786  0.5068 -0.0663  0.2496
  386MOL0     H50935   5.061   5.228   6.614  0.3751 -0.3237 -0.7077
  386MOL0     H50936   5.354   5.290   6.239  1.4649  0.6492 -2.9958
  386MOL0     H50937   5.483   5.196   6.034  0.9201 -0.3626  0.4480
  386MOL0     H50938   6.905   4.491   5.947  1.2358  1.2095  0.5966
  386MOL0     H50939   7.034   4.664   5.892  0.1399 -2.6077 -1.2047
  386MOL0     H50940   6.959   5.116   5.434 -1.5809 -1.5001  1.2371
  386MOL0     H50941   7.110   5.293   5.400 -2.8243  1.3841  1.8949
  386MOL0     H50942   7.252   5.495   5.403 -0.7084 -1.9230 -2.6521
  386MOL0     H50943   7.362   5.361   5.352  1.1035  1.1380  0.1484
  386MOL0     H50944   7.438   5.608   5.370  1.2433  0.2545 -0.4276
  386MOL0     H50945   7.442   5.575   5.550 -1.3114 -3.2372  1.2687
  386MOL0     H50946   7.593   5.395   5.361 -0.7806 -0.1247  0.1258
  386MOL0     H50947   7.635   5.432   5.530  0.0104 -1.0213 -0.2843
  386MOL0     H50948   7.627   5.636   5.295 -2.0883  0.2954  1.9406
  386MOL0     H50949   7.699   5.659   5.457 -1.3054 -0.2389  0.8919
  386MOL0     H50950   8.019   5.467   5.274 -0.6954  0.6648 -1.6829
  386MOL0     H50951   7.314   5.213   5.758 -0.0898  2.6835 -2.1682
  386MOL0     H50952   7.134   5.063   5.832 -1.8354 -1.1572 -0.5209
  387MOL0     O50953   5.358   4.982   8.517  0.1692 -0.1753  0.0564
  387MOL0     C50954   5.395   4.885   8.447  0.6583  0.6704  0.6894
  387MOL0     O50955   5.339   4.842   8.328  0.1866 -0.1637  0.2415
  387MOL0     C50956   5.226   4.906   8.292  0.0115  0.5915  0.3211
  387MOL0     C50957   5.213   4.960   8.165 -0.0445 -0.1729  0.4380
  387MOL0     C50958   5.089   4.996   8.112 -0.3631 -0.2237  0.0983
  387MOL0     C50959   4.977   5.007   8.203 -0.4204 -0.5078  0.8176
  387MOL0     O50960   4.862   5.069   8.152  0.7965  0.7014 -0.7359
  387MOL0     C50961   4.767   5.102   8.253 -0.1089  0.5760 -0.0468
  387MOL0     C50962   4.639   5.169   8.191 -0.1922  1.0554 -0.2827
  387MOL0     C50963   4.529   5.162   8.304  0.6730  0.3015  0.4506
  387MOL0     C50964   4.401   5.235   8.256 -0.7449  0.5333 -0.5140
  387MOL0     C50965   4.291   5.215   8.364  0.4865  0.3765 -0.1045
  387MOL0     C50966   4.167   5.295   8.346  0.5470 -0.6559 -0.2256
  387MOL0     C50967   4.053   5.240   8.428 -0.1181  0.3301  0.7748
  387MOL0     C50968   4.083   5.272   8.575 -0.4060  0.0713 -0.2554
  387MOL0     N50969   3.966   5.270   8.660  0.3802  0.0811 -0.0274
  387MOL0     C50970   3.869   5.175   8.662 -1.2841  0.2216 -0.1114
  387MOL0     C50971   3.768   5.225   8.747 -1.3563  0.0658 -0.0199
  387MOL0     C50972   3.646   5.152   8.796  0.3964 -0.1155  0.7086
  387MOL0     C50973   3.514   5.182   8.722 -0.8224  0.2281  0.4302
  387MOL0     C50974   3.403   5.115   8.808 -0.1438 -1.0792  0.0484
  387MOL0     C50975   3.271   5.097   8.725 -0.0089  0.0589 -0.0251
  387MOL0     O50976   3.176   5.023   8.804  0.2499 -0.2168  0.0835
  387MOL0     C50977   3.057   5.070   8.848  1.1977  0.6395 -0.1550
  387MOL0     C50978   2.987   4.990   8.933 -0.1723 -0.4646  0.3340
  387MOL0     C50979   2.852   5.010   8.969  0.2130  0.5535  0.6779
  387MOL0     C50980   2.792   5.129   8.937 -0.7390  0.2694 -0.4357
  387MOL0     C50981   2.669   5.173   8.994  0.6632 -0.0034 -0.7837
  387MOL0     O50982   2.594   5.074   9.053  0.1681 -0.3186  0.5084
  387MOL0     C50983   2.479   5.120   9.121 -0.4235 -0.1807  0.5370
  387MOL0     C50984   2.352   5.089   9.081 -0.1811 -0.2576 -0.1703
  387MOL0     C50985   2.237   5.129   9.150 -0.3564 -0.7880 -0.5200
  387MOL0     C50986   2.246   5.192   9.273 -0.3915  0.0232 -0.3625
  387MOL0     O50987   2.137   5.226   9.343 -0.1253  0.6125  0.8914
  387MOL0     C50988   2.139   5.256   9.485  0.1923  0.5284 -0.1803
  387MOL0     C50989   2.146   5.133   9.580  0.2757  0.2645  0.1048
  387MOL0     C50990   2.027   5.038   9.558  0.9624 -0.3033  0.3712
  387MOL0     C50991   2.016   4.936   9.676 -0.5462  0.0192  0.1957
  387MOL0     C50992   1.875   4.874   9.693  0.1329  0.8936  0.1617
  387MOL0     C50993   1.759   4.969   9.707  0.6825  0.1841 -0.2269
  387MOL0     C50994   1.630   4.891   9.725 -0.2287  0.3403 -0.1047
  387MOL0     C50995   1.505   4.983   9.730 -0.6941  0.6966 -0.7599
  387MOL0    Cl50996   1.524   5.113   9.852  0.3162  0.3280  0.0433
  387MOL0     C50997   2.379   5.217   9.321 -0.3284 -0.7799 -0.7350
  387MOL0     C50998   2.492   5.182   9.243  1.2337 -0.0579  0.9693
  387MOL0     O50999   2.640   5.292   8.995  0.3893  0.3579  0.0151
  387MOL0     C51000   2.865   5.221   8.857  0.5827 -0.3923 -0.3094
  387MOL0     C51001   2.995   5.187   8.809 -0.5717 -0.4738 -0.0590
  387MOL0     N51002   3.810   5.349   8.791 -1.3300 -0.2145  0.4152
  387MOL0     N51003   3.925   5.375   8.742  0.3981  0.2502  0.2332
  387MOL0     C51004   4.992   4.960   8.337 -0.0277  0.9228 -0.0105
  387MOL0     C51005   5.120   4.904   8.374  0.2836 -0.1857  0.4478
  387MOL0     C51006   5.523   4.818   8.480 -1.0682 -0.6569  0.4823
  387MOL0     C51007   5.597   4.865   8.595 -0.4228  0.3848 -0.2077
  387MOL0     C51008   5.711   4.800   8.630 -0.1446 -0.3769 -0.4932
  387MOL0     C51009   5.773   4.700   8.546  0.6741  0.4132  0.0517
  387MOL0     O51010   5.894   4.636   8.571  0.4757 -0.4806  0.6838
  387MOL0     C51011   5.941   4.634   8.704 -0.0177  0.5416 -0.3999
  387MOL0     C51012   6.018   4.505   8.719  0.3851 -0.8884 -0.2839
  387MOL0     C51013   6.154   4.497   8.640  0.4595 -0.3365  0.1874
  387MOL0     C51014   6.233   4.372   8.688  0.1056  0.0625 -0.0387
  387MOL0     C51015   6.339   4.359   8.590  0.9672 -0.6210 -0.7301
  387MOL0     C51016   6.434   4.345   8.516 -0.4709  0.0993 -0.2192
  387MOL0     C51017   5.690   4.652   8.439 -0.8395  0.1220  0.2350
  387MOL0     C51018   5.570   4.711   8.409  0.3971 -0.2901 -0.0315
  387MOL0     H51019   5.297   4.955   8.096 -1.9631 -0.7329 -2.0116
  387MOL0     H51020   5.083   5.020   8.006  0.9036 -2.7269 -0.6141
  387MOL0     H51021   4.819   5.179   8.311 -0.3047  0.0011  0.9171
  387MOL0     H51022   4.733   5.026   8.323  0.5014  0.0325 -0.3308
  387MOL0     H51023   4.615   5.109   8.103 -2.0681 -0.5031  1.2117
  387MOL0     H51024   4.668   5.268   8.155  0.8683  0.7984 -0.1813
  387MOL0     H51025   4.572   5.215   8.390 -1.3170  1.3477  0.8665
  387MOL0     H51026   4.512   5.061   8.341  4.3574 -0.3412  0.7304
  387MOL0     H51027   4.423   5.342   8.264 -0.5415  0.3815  1.3102
  387MOL0     H51028   4.375   5.220   8.151 -0.8143  0.2825 -0.4618
  387MOL0     H51029   4.318   5.227   8.469 -0.4429 -2.3148  0.5182
  387MOL0     H51030   4.260   5.111   8.355  2.2657 -0.4299  2.2531
  387MOL0     H51031   4.144   5.287   8.239 -2.4443 -1.8930  0.3866
  387MOL0     H51032   4.175   5.401   8.371  0.1317 -0.6223 -0.2121
  387MOL0     H51033   3.964   5.301   8.410 -0.2675  0.8857  3.0536
  387MOL0     H51034   4.048   5.131   8.415  0.3183  0.1330  2.1083
  387MOL0     H51035   4.133   5.368   8.586 -0.5411  0.0324  0.8660
  387MOL0     H51036   4.141   5.189   8.616 -0.2443  0.7017  0.8268
  387MOL0     H51037   3.872   5.076   8.619  0.1223 -0.1375  0.7524
  387MOL0     H51038   3.632   5.190   8.898 -0.1960  0.6827  0.3459
  387MOL0     H51039   3.647   5.044   8.811 -3.5616 -0.3700  0.2329
  387MOL0     H51040   3.514   5.132   8.624  1.1901  1.8717 -0.4819
  387MOL0     H51041   3.485   5.286   8.709  1.3572  0.6635 -1.6506
  387MOL0     H51042   3.428   5.013   8.838  1.2311 -1.3306 -1.7116
  387MOL0     H51043   3.392   5.184   8.892  0.9332 -1.1005  0.2270
  387MOL0     H51044   3.283   5.051   8.627 -0.2676  0.5953 -0.3126
  387MOL0     H51045   3.233   5.196   8.695  1.1336 -0.1205 -2.2444
  387MOL0     H51046   3.025   4.893   8.964 -1.3678 -1.0094  0.1269
  387MOL0     H51047   2.799   4.937   9.029 -1.1337  0.5195 -0.4847
  387MOL0     H51048   2.331   5.041   8.986  1.7239 -0.3046 -0.6134
  387MOL0     H51049   2.141   5.096   9.112 -1.2656  2.4281 -1.3364
  387MOL0     H51050   2.046   5.314   9.488 -0.2658 -0.0496 -2.0720
  387MOL0     H51051   2.217   5.327   9.513 -0.2421  0.8590  0.2097
  387MOL0     H51052   2.132   5.174   9.680 -0.2225  0.7190 -0.1461
  387MOL0     H51053   2.240   5.077   9.575  1.2648  1.6187  2.3525
  387MOL0     H51054   2.031   4.988   9.461 -2.6642  1.6311 -0.9703
  387MOL0     H51055   1.948   5.114   9.559 -0.0358 -1.2858 -0.8804
  387MOL0     H51056   2.088   4.854   9.662 -1.8418 -1.7158  2.8222
  387MOL0     H51057   2.033   4.984   9.773  3.3860 -0.6170 -0.0111
  387MOL0     H51058   1.891   4.808   9.778 -0.6281 -0.0517 -0.4037
  387MOL0     H51059   1.859   4.812   9.604  1.1034  0.1595  0.4916
  387MOL0     H51060   1.739   5.028   9.617 -1.1353  3.8236  2.3278
  387MOL0     H51061   1.771   5.034   9.794 -1.6496  1.9290 -1.1132
  387MOL0     H51062   1.610   4.814   9.650 -0.3053 -0.2045  0.4658
  387MOL0     H51063   1.645   4.836   9.819 -1.2889 -0.5074 -0.4077
  387MOL0     H51064   1.421   4.916   9.754  0.3366 -0.5810 -0.6359
  387MOL0     H51065   1.493   5.025   9.630 -0.4777 -0.8009 -1.4296
  387MOL0     H51066   2.404   5.261   9.417 -1.7467  0.9632 -1.1228
  387MOL0     H51067   2.595   5.205   9.270  1.5035 -0.1936  0.0933
  387MOL0     H51068   2.829   5.321   8.834  0.1344 -0.8364 -1.6110
  387MOL0     H51069   3.042   5.264   8.748 -2.1140  0.3833 -0.2056
  387MOL0     H51070   4.915   4.969   8.413  0.0286  1.2026  0.0168
  387MOL0     H51071   5.130   4.876   8.479  0.3776  1.9474  1.0663
  387MOL0     H51072   5.575   4.949   8.660 -2.3370 -1.4691  1.7014
  387MOL0     H51073   5.765   4.840   8.715  0.9275 -2.1327 -0.2806
  387MOL0     H51074   5.860   4.636   8.778  0.4010 -1.5759  0.1937
  387MOL0     H51075   6.002   4.723   8.719  0.1190  0.1357  1.8019
  387MOL0     H51076   6.038   4.497   8.826  2.0520  1.5202 -0.3337
  387MOL0     H51077   5.959   4.418   8.687 -0.9058  0.0620 -0.5596
  387MOL0     H51078   6.222   4.581   8.657 -1.3201  1.0158  1.0489
  387MOL0     H51079   6.136   4.487   8.533  2.9236 -0.1561 -0.2985
  387MOL0     H51080   6.280   4.392   8.785 -1.9595  0.0110  1.0317
  387MOL0     H51081   6.170   4.283   8.681 -0.3812  0.0640  2.8660
  387MOL0     H51082   6.518   4.326   8.452 -0.9098 -0.9819 -0.5153
  387MOL0     H51083   5.731   4.570   8.380  0.2013  0.9937 -0.2718
  387MOL0     H51084   5.514   4.684   8.321 -0.6159 -1.9664  1.0725
  388MOL0     O51085   9.840   1.023   2.474 -0.1256  0.0849  0.2167
  388MOL0     C51086   9.791   1.132   2.442 -0.4549  0.0705 -0.4967
  388MOL0     O51087   9.663   1.158   2.438  0.0415  0.2204  0.4976
  388MOL0     C51088   9.567   1.062   2.460  0.7128 -0.0146  0.4664
  388MOL0     C51089   9.483   1.012   2.360 -0.0785 -0.9429  0.3195
  388MOL0     C51090   9.395   0.909   2.379  0.9721 -0.2981 -0.0970
  388MOL0     C51091   9.377   0.865   2.507  0.5669 -0.7685 -0.2933
  388MOL0     O51092   9.293   0.759   2.514  0.3561 -0.3114 -1.0934
  388MOL0     C51093   9.218   0.756   2.636  0.3394 -0.1870 -0.2134
  388MOL0     C51094   9.102   0.654   2.638 -0.3831 -0.4331 -0.0912
  388MOL0     C51095   8.983   0.695   2.552  0.4527  0.6617  0.1361
  388MOL0     C51096   8.876   0.580   2.546 -0.5540  0.3689 -0.3419
  388MOL0     C51097   8.760   0.623   2.448 -0.5304 -0.0387  0.3969
  388MOL0     C51098   8.646   0.524   2.451 -0.1247  0.5017  0.7806
  388MOL0     C51099   8.529   0.584   2.370  0.1311  0.2697 -0.0640
  388MOL0     C51100   8.407   0.497   2.388  0.0552 -0.5083  0.2093
  388MOL0     N51101   8.411   0.362   2.347 -0.1455  0.8227  0.0613
  388MOL0     C51102   8.341   0.302   2.247  0.5329  0.2228 -0.2562
  388MOL0     C51103   8.358   0.172   2.269  0.0633  0.4644  0.8479
  388MOL0     C51104   8.306   0.057   2.186 -0.1471  0.0113 -0.1945
  388MOL0     C51105   8.151   0.055   2.185 -0.6680 -0.4759 -0.8456
  388MOL0     C51106   8.095   0.057   2.326  0.6918 -0.6842  0.6558
  388MOL0     C51107   7.947   0.061   2.325 -0.3669  0.7029 -0.2260
  388MOL0     O51108   7.906  -0.072   2.274 -0.5939  0.5373 -0.8824
  388MOL0     C51109   7.780  -0.113   2.320 -0.0382  0.2260  0.1181
  388MOL0     C51110   7.669  -0.033   2.330 -0.3304 -0.0210  0.6172
  388MOL0     C51111   7.548  -0.095   2.361  0.0638 -0.1889 -0.7922
  388MOL0     C51112   7.528  -0.235   2.379  1.0116 -0.4017  1.1571
  388MOL0     C51113   7.391  -0.293   2.405  0.8763  0.0532 -0.4056
  388MOL0     O51114   7.290  -0.197   2.392  0.5143 -0.4541 -0.8852
  388MOL0     C51115   7.159  -0.238   2.415 -0.5525 -0.5264  0.4637
  388MOL0     C51116   7.100  -0.360   2.397 -0.3316 -0.7700 -0.5027
  388MOL0     C51117   6.968  -0.383   2.421 -0.9563  0.4130  0.8314
  388MOL0     C51118   6.883  -0.276   2.459  0.4282  0.3673  0.3255
  388MOL0     O51119   6.746  -0.302   2.471  0.2128 -0.1853  0.2613
  388MOL0     C51120   6.666  -0.210   2.548 -0.5108  0.8655 -0.4689
  388MOL0     C51121   6.528  -0.247   2.538 -0.7551  0.1171 -0.7387
  388MOL0     C51122   6.433  -0.151   2.623  0.0909 -0.2597 -0.3437
  388MOL0     C51123   6.288  -0.201   2.632 -0.7741 -0.9000  0.2847
  388MOL0     C51124   6.200  -0.122   2.725 -0.3821  0.0552 -0.2806
  388MOL0     C51125   6.060  -0.185   2.722  0.6034  0.9894 -0.2156
  388MOL0     C51126   5.970  -0.122   2.820  0.9968  0.1287 -0.2529
  388MOL0     C51127   5.893   0.005   2.790 -0.3081 -0.7479 -0.2197
  388MOL0    Cl51128   5.819   0.079   2.929  0.5067 -0.0583 -0.2973
  388MOL0     C51129   6.947  -0.151   2.477  0.9496  0.1542 -0.2260
  388MOL0     C51130   7.081  -0.136   2.458  0.2822 -0.1725 -0.4682
  388MOL0     O51131   7.372  -0.401   2.462 -0.2387  0.1204  0.1491
  388MOL0     C51132   7.640  -0.315   2.372  0.4080 -0.3390  0.6853
  388MOL0     C51133   7.768  -0.251   2.346 -0.0293  0.0950 -0.2202
  388MOL0     N51134   8.435   0.154   2.382 -0.3608  0.0704  0.5865
  388MOL0     N51135   8.476   0.268   2.426  0.2193  0.2162  0.6593
  388MOL0     C51136   9.445   0.916   2.617  0.4648  0.1208  0.1397
  388MOL0     C51137   9.530   1.025   2.589 -0.0787  1.1245  0.6801
  388MOL0     C51138   9.885   1.249   2.429  0.3628  0.7449  0.2167
  388MOL0     C51139  10.018   1.224   2.394  0.0608 -0.3366 -0.4765
  388MOL0     C51140  10.098   1.336   2.360 -0.2203 -0.5683  1.1065
  388MOL0     C51141  10.047   1.468   2.370  0.1272  0.4704  0.5344
  388MOL0     O51142  10.121   1.580   2.347  0.0953 -0.2803 -0.1252
  388MOL0     C51143  10.255   1.563   2.302  0.0238  0.0794 -0.1697
  388MOL0     C51144  10.329   1.698   2.288 -1.2472  0.8403 -0.2056
  388MOL0     C51145  10.475   1.687   2.261  0.5852  0.3806  0.2665
  388MOL0     C51146  10.545   1.814   2.210 -0.6509  1.0207  0.3974
  388MOL0     C51147  10.529   1.924   2.298  0.6342 -0.5355 -0.0912
  388MOL0     C51148  10.507   2.019   2.371 -0.4916  0.3032  0.0554
  388MOL0     C51149   9.920   1.490   2.395 -0.0456  0.8844 -1.0130
  388MOL0     C51150   9.836   1.379   2.420 -0.5189  0.6244 -0.3905
  388MOL0     H51151   9.509   1.047   2.261 -1.3225  0.1311  0.3495
  388MOL0     H51152   9.344   0.870   2.292  2.0923 -0.9556 -0.4829
  388MOL0     H51153   9.172   0.851   2.666  0.1190 -0.9810  2.1664
  388MOL0     H51154   9.285   0.724   2.717  0.1895  0.0221 -0.0041
  388MOL0     H51155   9.061   0.641   2.738  0.0508 -1.1859 -0.0071
  388MOL0     H51156   9.147   0.558   2.610 -1.2544 -0.0974 -3.0255
  388MOL0     H51157   9.015   0.723   2.451 -2.4361 -1.1176 -1.4284
  388MOL0     H51158   8.942   0.784   2.601 -1.2474  0.2892 -0.5300
  388MOL0     H51159   8.911   0.489   2.497 -1.0942  0.5148 -1.0288
  388MOL0     H51160   8.842   0.560   2.648 -1.1840  1.1444 -0.3912
  388MOL0     H51161   8.803   0.639   2.348 -0.3321 -0.7768  0.3571
  388MOL0     H51162   8.723   0.720   2.483 -0.0303  0.1477  0.4174
  388MOL0     H51163   8.613   0.507   2.554 -2.3338  0.0534  0.0399
  388MOL0     H51164   8.684   0.430   2.410 -0.2805  0.9156 -0.3380
  388MOL0     H51165   8.504   0.680   2.416  0.6080  0.6774 -0.6411
  388MOL0     H51166   8.558   0.586   2.264  0.3276 -1.5321 -0.0663
  388MOL0     H51167   8.314   0.541   2.349 -1.1199 -0.4000  2.9167
  388MOL0     H51168   8.395   0.499   2.497  2.5977 -1.6083  0.5728
  388MOL0     H51169   8.291   0.353   2.164 -1.9739 -1.2998  0.2047
  388MOL0     H51170   8.333  -0.044   2.218 -1.6336 -0.8770 -1.6194
  388MOL0     H51171   8.346   0.071   2.085 -1.5656  1.1710 -0.6265
  388MOL0     H51172   8.129  -0.041   2.136  0.0172 -0.6248 -0.8749
  388MOL0     H51173   8.120   0.143   2.129  0.3380  2.3046  2.6250
  388MOL0     H51174   8.137  -0.026   2.384  0.8482 -2.2950 -1.6464
  388MOL0     H51175   8.131   0.151   2.368  0.3820  0.6460 -1.8830
  388MOL0     H51176   7.904   0.138   2.261 -1.2928  0.9142  0.6277
  388MOL0     H51177   7.904   0.079   2.423  1.7458  0.1459  0.8740
  388MOL0     H51178   7.670   0.073   2.306 -2.0611  0.1382  1.1144
  388MOL0     H51179   7.464  -0.026   2.356  0.2999  0.1301 -0.4403
  388MOL0     H51180   7.165  -0.437   2.357  1.4760 -0.4036  1.5428
  388MOL0     H51181   6.918  -0.479   2.413  0.9478 -0.5101 -1.0359
  388MOL0     H51182   6.682  -0.110   2.509  2.1241  1.1165  1.0391
  388MOL0     H51183   6.693  -0.218   2.654 -0.4819 -3.6642 -0.6165
  388MOL0     H51184   6.514  -0.349   2.576  1.2662  1.2338  3.6126
  388MOL0     H51185   6.504  -0.243   2.431 -2.0679  0.7400 -0.4401
  388MOL0     H51186   6.429  -0.044   2.599  1.8083  0.6275  2.6724
  388MOL0     H51187   6.479  -0.137   2.722  0.6294  0.3046 -0.6619
  388MOL0     H51188   6.239  -0.196   2.534 -5.1174 -1.9964  2.1525
  388MOL0     H51189   6.304  -0.306   2.660  0.2610 -1.1964 -1.3137
  388MOL0     H51190   6.206  -0.015   2.704 -0.0602 -0.3014 -2.1945
  388MOL0     H51191   6.237  -0.128   2.828 -1.3928 -2.3641  0.0026
  388MOL0     H51192   6.082  -0.291   2.738  1.0431  0.7016 -2.4295
  388MOL0     H51193   6.013  -0.179   2.624  0.1369  3.9968  0.0936
  388MOL0     H51194   5.893  -0.199   2.827 -1.3995  2.3405 -0.6707
  388MOL0     H51195   6.011  -0.111   2.921 -0.4781  2.1564  0.1939
  388MOL0     H51196   5.812  -0.006   2.717 -0.4180  3.2254 -0.9100
  388MOL0     H51197   5.952   0.084   2.744 -2.1051  1.0909  0.4992
  388MOL0     H51198   6.896  -0.064   2.517 -1.4322 -1.6168  0.8511
  388MOL0     H51199   7.125  -0.038   2.470  1.4634 -0.8066  0.6410
  388MOL0     H51200   7.652  -0.421   2.390  0.9930 -0.8675 -2.2952
  388MOL0     H51201   7.856  -0.314   2.343 -1.1358 -1.4839 -0.4677
  388MOL0     H51202   9.445   0.874   2.717  1.2559  1.9682  0.9658
  388MOL0     H51203   9.582   1.073   2.671 -2.9893  1.2287  2.5756
  388MOL0     H51204  10.057   1.123   2.402 -1.6986 -0.9606  1.2371
  388MOL0     H51205  10.201   1.322   2.327 -0.4256 -0.5008  0.4231
  388MOL0     H51206  10.259   1.500   2.212  0.4793 -3.8827  2.3591
  388MOL0     H51207  10.309   1.500   2.373  0.1175  0.6436  0.2666
  388MOL0     H51208  10.280   1.760   2.212 -3.2947  1.4182  1.4851
  388MOL0     H51209  10.317   1.759   2.378  2.0248  2.3037 -0.6158
  388MOL0     H51210  10.491   1.610   2.185 -3.2261  0.8593 -1.2186
  388MOL0     H51211  10.525   1.644   2.349 -1.0456  0.2576  1.1645
  388MOL0     H51212  10.654   1.804   2.208 -0.2230  4.4034 -1.0886
  388MOL0     H51213  10.509   1.838   2.110 -2.6957  2.2944  1.3785
  388MOL0     H51214  10.475   2.090   2.444 -0.7886 -0.2492  0.4750
  388MOL0     H51215   9.879   1.590   2.406  3.2517  2.0428  3.8786
  388MOL0     H51216   9.730   1.396   2.433 -1.4550 -1.0422 -4.5651
  389MOL0     O51217   4.655   5.512   3.537 -0.7346  0.6344  0.1657
  389MOL0     C51218   4.660   5.478   3.418  0.5822 -0.6951  0.5441
  389MOL0     O51219   4.556   5.417   3.347  0.1799 -0.0616 -0.3339
  389MOL0     C51220   4.442   5.390   3.427 -0.1369 -1.1826  0.2073
  389MOL0     C51221   4.353   5.489   3.484 -0.0518 -0.2392 -0.1956
  389MOL0     C51222   4.234   5.447   3.542  1.0521  0.5492 -0.1397
  389MOL0     C51223   4.201   5.312   3.579 -1.0221  0.3524  0.1369
  389MOL0     O51224   4.091   5.270   3.640  0.7816  0.3573 -0.4481
  389MOL0     C51225   3.971   5.341   3.639  1.1094  0.9982 -0.2388
  389MOL0     C51226   3.845   5.255   3.659  0.2402 -0.8848 -0.2870
  389MOL0     C51227   3.722   5.355   3.668  0.6180  0.5854  0.1983
  389MOL0     C51228   3.586   5.283   3.696 -0.0960 -0.1280  0.7163
  389MOL0     C51229   3.469   5.381   3.717  0.7170 -0.3070 -0.4369
  389MOL0     C51230   3.340   5.313   3.755 -0.2966  0.2916 -0.0831
  389MOL0     C51231   3.228   5.397   3.810 -0.1867  0.5973  0.1728
  389MOL0     C51232   3.218   5.537   3.757  0.0393 -0.8131 -1.1867
  389MOL0     N51233   3.085   5.586   3.792 -0.1184  0.0543 -0.0990
  389MOL0     C51234   3.035   5.592   3.917 -0.3047  1.1302  0.6345
  389MOL0     C51235   2.898   5.619   3.907  0.1251 -0.1461  0.3183
  389MOL0     C51236   2.800   5.639   4.021 -0.1611 -0.0416 -0.1533
  389MOL0     C51237   2.680   5.733   3.984  0.2393 -1.1280  0.4245
  389MOL0     C51238   2.579   5.676   3.883  0.7925  0.0851 -0.4974
  389MOL0     C51239   2.435   5.684   3.936  0.2543  0.2075 -0.2931
  389MOL0     O51240   2.400   5.824   3.934  0.0107 -0.2468  0.4965
  389MOL0     C51241   2.276   5.872   3.980  0.1782  0.3967 -1.0578
  389MOL0     C51242   2.180   5.785   4.032 -0.1075  0.7643 -1.3983
  389MOL0     C51243   2.051   5.842   4.066  0.1211 -0.3616 -0.2328
  389MOL0     C51244   2.029   5.981   4.049  0.8681 -0.6455  0.2360
  389MOL0     C51245   1.889   6.037   4.058  0.2416  0.1642  0.6633
  389MOL0     O51246   1.793   5.949   4.097 -0.4254 -0.5814  0.0476
  389MOL0     C51247   1.662   5.999   4.105  0.0224 -0.1404  0.7883
  389MOL0     C51248   1.630   6.093   4.198 -0.2488  0.3411  0.0796
  389MOL0     C51249   1.495   6.130   4.227  0.4578 -0.1705  0.0578
  389MOL0     C51250   1.389   6.072   4.158  0.1186  0.1310 -0.0092
  389MOL0     O51251   1.259   6.100   4.169  1.4712  0.4673  0.1935
  389MOL0     C51252   1.224   6.214   4.247  0.2119 -0.0063  0.0531
  389MOL0     C51253   1.077   6.238   4.287  0.1819  0.1887 -0.9368
  389MOL0     C51254   0.995   6.116   4.336 -0.3065  0.3630 -0.2868
  389MOL0     C51255   1.030   6.066   4.474  0.3533 -0.5562  0.0242
  389MOL0     C51256   0.905   6.000   4.552  0.7273  0.4306  0.6149
  389MOL0     C51257   0.949   5.937   4.684 -0.5522  0.0545  0.5474
  389MOL0     C51258   0.832   5.844   4.730 -0.3827  0.0510  0.1957
  389MOL0     C51259   0.700   5.917   4.764 -0.1897  1.2821 -0.1109
  389MOL0    Cl51260   0.595   5.934   4.630  0.8547 -0.0473 -0.6050
  389MOL0     C51261   1.424   5.978   4.059 -0.9687  0.4647  0.3215
  389MOL0     C51262   1.560   5.942   4.035  0.1228  0.4137 -0.7876
  389MOL0     O51263   1.875   6.158   4.057  0.2879 -0.6976  0.4976
  389MOL0     C51264   2.135   6.063   4.004 -0.2468  0.0155 -0.4476
  389MOL0     C51265   2.255   6.010   3.968 -0.5684  0.3788  0.1790
  389MOL0     N51266   2.877   5.615   3.769 -0.0386  0.3955 -0.0080
  389MOL0     N51267   2.990   5.610   3.699  0.0578  0.5697 -0.4158
  389MOL0     C51268   4.298   5.224   3.533 -0.4941  0.3892  0.3892
  389MOL0     C51269   4.409   5.261   3.460  0.3457  0.3946 -0.2250
  389MOL0     C51270   4.795   5.478   3.358  0.4703  0.1359 -0.3556
  389MOL0     C51271   4.820   5.431   3.230 -0.1722 -0.4137 -0.8695
  389MOL0     C51272   4.950   5.417   3.179 -0.5685  0.5498 -0.2192
  389MOL0     C51273   5.058   5.426   3.265  0.3143 -0.3070  0.4296
  389MOL0     O51274   5.182   5.395   3.220  0.6706 -0.4804  0.6987
  389MOL0     C51275   5.260   5.319   3.306 -0.8241 -0.6348 -0.0009
  389MOL0     C51276   5.366   5.258   3.211 -0.1807  0.2292  0.6037
  389MOL0     C51277   5.310   5.173   3.092 -0.7525 -0.5020 -0.6370
  389MOL0     C51278   5.424   5.108   3.013 -0.1128 -0.7980  0.0173
  389MOL0     C51279   5.491   5.219   2.947 -0.5057 -0.5775  0.4907
  389MOL0     C51280   5.549   5.307   2.877 -0.2555 -0.2507 -0.2416
  389MOL0     C51281   5.035   5.470   3.392 -0.4153  0.3608 -0.0335
  389MOL0     C51282   4.907   5.495   3.441  0.1063  0.7928 -0.3173
  389MOL0     H51283   4.360   5.596   3.466 -1.8639  0.1377  1.1615
  389MOL0     H51284   4.174   5.531   3.576  1.2575 -0.2842  2.5175
  389MOL0     H51285   3.964   5.399   3.546 -0.8058  1.0129 -0.1266
  389MOL0     H51286   3.968   5.409   3.725 -0.5226  1.5801 -0.7241
  389MOL0     H51287   3.848   5.193   3.748  0.5063 -0.4045  0.0424
  389MOL0     H51288   3.832   5.184   3.577 -1.7583 -0.8807 -0.0226
  389MOL0     H51289   3.705   5.410   3.575 -2.0846 -0.3105  0.0700
  389MOL0     H51290   3.742   5.427   3.748 -0.3527  1.5690 -0.4223
  389MOL0     H51291   3.561   5.215   3.614  1.4212 -0.3168  0.3876
  389MOL0     H51292   3.607   5.222   3.785  0.5701  0.0975  0.7236
  389MOL0     H51293   3.442   5.441   3.630 -0.5255  1.1196  0.8659
  389MOL0     H51294   3.495   5.454   3.794  2.1700 -0.5089 -0.7069
  389MOL0     H51295   3.355   5.238   3.833  0.7676  1.1286  0.5453
  389MOL0     H51296   3.295   5.269   3.665 -1.0018 -2.7111  1.6155
  389MOL0     H51297   3.133   5.348   3.787  1.0262 -0.9066 -1.9708
  389MOL0     H51298   3.235   5.408   3.919  1.7316  1.6758 -0.0192
  389MOL0     H51299   3.232   5.545   3.649  1.7924 -1.2107 -1.0164
  389MOL0     H51300   3.294   5.596   3.808 -0.1940  0.3273 -2.1110
  389MOL0     H51301   3.090   5.594   4.011 -0.4921  1.2200  0.7434
  389MOL0     H51302   2.862   5.687   4.097 -1.9564  2.0936  0.0543
  389MOL0     H51303   2.748   5.546   4.048 -3.3556  1.3854 -0.9727
  389MOL0     H51304   2.711   5.825   3.932 -2.1165 -0.8027 -0.5024
  389MOL0     H51305   2.641   5.751   4.085  0.7607  0.8709  0.3243
  389MOL0     H51306   2.582   5.740   3.794 -1.7098  0.8650 -0.0858
  389MOL0     H51307   2.592   5.571   3.856 -4.7843 -0.6996 -1.2815
  389MOL0     H51308   2.420   5.635   4.033  0.9038 -1.6625 -1.0766
  389MOL0     H51309   2.372   5.631   3.864  1.8638  0.5736 -2.0537
  389MOL0     H51310   2.174   5.678   4.045  1.2595  0.8313  0.0514
  389MOL0     H51311   1.966   5.782   4.099  0.6720 -1.6239 -1.0366
  389MOL0     H51312   1.709   6.144   4.252 -0.6471 -0.7205  1.7665
  389MOL0     H51313   1.479   6.213   4.295 -0.2700 -1.2549  1.2538
  389MOL0     H51314   1.255   6.302   4.191  0.5827  0.6842  1.2842
  389MOL0     H51315   1.281   6.210   4.341  0.2552 -0.4357  0.0102
  389MOL0     H51316   1.038   6.285   4.196 -0.0759  2.1252  0.1098
  389MOL0     H51317   1.070   6.315   4.365  3.5561  3.5621 -3.5829
  389MOL0     H51318   1.001   6.031   4.268 -2.1924 -0.5010  0.5652
  389MOL0     H51319   0.890   6.146   4.328 -0.0406  1.0982 -1.2991
  389MOL0     H51320   1.112   5.995   4.466 -1.3008 -2.5957  0.3958
  389MOL0     H51321   1.055   6.157   4.529 -0.6261  0.5334 -1.2343
  389MOL0     H51322   0.859   5.926   4.485 -0.4910  2.8082 -1.3283
  389MOL0     H51323   0.829   6.077   4.566 -0.6286 -0.6265 -0.5912
  389MOL0     H51324   0.971   6.008   4.765 -2.9108 -1.7142  2.8937
  389MOL0     H51325   1.040   5.880   4.662  1.1749  2.4316  1.0111
  389MOL0     H51326   0.805   5.769   4.655  1.1034  0.0638 -0.3735
  389MOL0     H51327   0.863   5.788   4.818 -1.1283 -0.1954  0.3084
  389MOL0     H51328   0.720   6.013   4.811  0.4292  1.2144 -0.2280
  389MOL0     H51329   0.639   5.871   4.842 -0.8532  1.6941 -0.3771
  389MOL0     H51330   1.350   5.927   3.998  2.3286 -1.1585 -2.7178
  389MOL0     H51331   1.585   5.857   3.973  1.2951  2.0373 -2.6170
  389MOL0     H51332   2.121   6.169   3.989  1.5647  0.1654 -1.2921
  389MOL0     H51333   2.327   6.077   3.923  2.1757 -0.6317  2.6694
  389MOL0     H51334   4.261   5.122   3.541  1.8605 -0.6786 -1.2290
  389MOL0     H51335   4.475   5.186   3.418  0.2301 -0.4194  0.9984
  389MOL0     H51336   4.744   5.401   3.158  1.1865 -1.6282 -1.8540
  389MOL0     H51337   4.969   5.380   3.078  0.7155  2.5439 -0.7629
  389MOL0     H51338   5.203   5.243   3.361  2.4259 -1.8438  2.0431
  389MOL0     H51339   5.313   5.386   3.375  0.4794  0.6354 -2.1502
  389MOL0     H51340   5.429   5.339   3.173  1.6532 -0.4923  1.9539
  389MOL0     H51341   5.429   5.199   3.279 -0.6641  0.9083  1.6712
  389MOL0     H51342   5.243   5.227   3.025  1.1892  0.2621 -2.0340
  389MOL0     H51343   5.254   5.090   3.136  1.2997 -2.3050 -1.3000
  389MOL0     H51344   5.506   5.065   3.072 -0.0410 -0.6379  0.0321
  389MOL0     H51345   5.379   5.038   2.941  0.5875  1.3028 -2.6002
  389MOL0     H51346   5.600   5.377   2.814  0.8934 -1.8017 -1.1112
  389MOL0     H51347   5.116   5.478   3.463  0.0658 -3.8616  0.1462
  389MOL0     H51348   4.910   5.528   3.544  1.8925 -0.0580 -0.0627
  390MOL0     O51349   9.464  10.282   5.448  0.9118 -0.2964 -0.2908
  390MOL0     C51350   9.488  10.170   5.480  0.5443  0.2889 -0.8862
  390MOL0     O51351   9.400  10.072   5.507  0.0972  1.0855  0.2552
  390MOL0     C51352   9.271  10.088   5.521  0.2085  1.0723  0.3920
  390MOL0     C51353   9.215   9.965   5.559 -0.7293 -0.5663 -0.1170
  390MOL0     C51354   9.083   9.950   5.575  0.0728 -1.0540 -0.0249
  390MOL0     C51355   8.995  10.054   5.549  1.1375  0.0458  0.6053
  390MOL0     O51356   8.852  10.047   5.549 -1.1857  0.0832 -0.0161
  390MOL0     C51357   8.802   9.919   5.579 -0.4955  0.3116 -0.0706
  390MOL0     C51358   8.657   9.905   5.560 -0.0804 -0.1886  0.6358
  390MOL0     C51359   8.619   9.761   5.610  0.3681  0.0797 -0.7631
  390MOL0     C51360   8.466   9.741   5.639 -0.2905  0.2789  0.0961
  390MOL0     C51361   8.436   9.587   5.666 -0.2108  0.7676  0.3607
  390MOL0     C51362   8.293   9.560   5.627 -0.3277 -0.5688 -0.3171
  390MOL0     C51363   8.197   9.630   5.721 -0.3118  0.4131  0.3408
  390MOL0     C51364   8.221   9.616   5.871  0.0519 -0.1259  0.6360
  390MOL0     N51365   8.193   9.472   5.914  0.7584 -0.3033 -0.3085
  390MOL0     C51366   8.077   9.405   5.898 -0.1109 -1.1094  0.1891
  390MOL0     C51367   8.089   9.295   5.981  0.2835 -0.3890 -0.5690
  390MOL0     C51368   7.995   9.176   5.993  0.6045 -0.2296 -0.5119
  390MOL0     C51369   7.849   9.214   6.004  0.8443 -0.3849  0.5708
  390MOL0     C51370   7.760   9.098   6.065  0.3390 -0.1675 -0.2145
  390MOL0     C51371   7.612   9.087   6.014  0.5573  0.4392  0.3540
  390MOL0     O51372   7.523   9.184   6.075 -0.3799  0.4208 -0.0582
  390MOL0     C51373   7.390   9.163   6.068  0.0930  0.4003  0.8903
  390MOL0     C51374   7.309   9.216   6.165 -0.2707  1.4549  0.6656
  390MOL0     C51375   7.174   9.200   6.175 -0.2276 -0.3791 -0.4424
  390MOL0     C51376   7.109   9.123   6.076 -0.5153 -0.1422 -0.1802
  390MOL0     C51377   6.966   9.091   6.094  0.3523 -0.3663  0.7206
  390MOL0     O51378   6.890   9.177   6.173 -0.6960  0.0326  0.4070
  390MOL0     C51379   6.754   9.163   6.170 -0.9081  0.4755  0.6319
  390MOL0     C51380   6.673   9.149   6.054  0.3016 -0.3604 -0.2368
  390MOL0     C51381   6.534   9.149   6.069 -0.4389 -0.9286  1.0287
  390MOL0     C51382   6.478   9.155   6.199 -0.0049 -0.1524  0.1208
  390MOL0     O51383   6.344   9.153   6.237 -0.1275 -0.4458 -0.1153
  390MOL0     C51384   6.255   9.152   6.127 -0.2430 -0.2908  0.0298
  390MOL0     C51385   6.111   9.149   6.186  0.4310 -0.0916 -0.5189
  390MOL0     C51386   6.007   9.167   6.076  0.3360  0.4831  0.5673
  390MOL0     C51387   5.871   9.146   6.134  0.1763  0.4278  0.5616
  390MOL0     C51388   5.763   9.106   6.029 -0.4879  0.5268 -0.3694
  390MOL0     C51389   5.637   9.075   6.104  0.6072  0.3910  0.2959
  390MOL0     C51390   5.511   9.048   6.013 -1.4487  0.0861 -0.1319
  390MOL0     C51391   5.379   9.057   6.090 -0.0689  0.9368 -0.0646
  390MOL0    Cl51392   5.247   9.107   5.966  0.0377  0.1381 -0.5595
  390MOL0     C51393   6.561   9.150   6.315 -0.3484  0.2139  0.9588
  390MOL0     C51394   6.698   9.159   6.300  0.3325  0.3326 -0.1931
  390MOL0     O51395   6.920   9.005   6.021 -0.4083  0.1561  0.2600
  390MOL0     C51396   7.188   9.060   5.973  0.2461  0.6858  0.4437
  390MOL0     C51397   7.325   9.080   5.970  0.1038 -0.2748  0.0836
  390MOL0     N51398   8.204   9.307   6.053 -0.6765  0.0353 -0.4345
  390MOL0     N51399   8.265   9.411   6.019  0.5675 -0.5702  0.3441
  390MOL0     C51400   9.045  10.180   5.515  0.4664 -0.9522  1.1734
  390MOL0     C51401   9.184  10.201   5.506 -0.2166  0.8321 -0.0012
  390MOL0     C51402   9.632  10.142   5.493 -0.4813  0.7143  1.1939
  390MOL0     C51403   9.665  10.014   5.547 -0.0154 -0.3288  0.2593
  390MOL0     C51404   9.796   9.985   5.576  0.3543 -0.2393 -0.1457
  390MOL0     C51405   9.895  10.078   5.545  0.2044  0.0447  0.1797
  390MOL0     O51406  10.029  10.053   5.553 -0.7760  0.2358  0.3219
  390MOL0     C51407  10.077   9.936   5.616  0.4647  0.3149  0.2325
  390MOL0     C51408  10.229   9.954   5.645 -0.5256  0.0431  0.4027
  390MOL0     C51409  10.302   9.817   5.674  0.0154 -0.3141 -0.4252
  390MOL0     C51410  10.455   9.831   5.694 -0.0555  0.3052  0.6564
  390MOL0     C51411  10.484   9.874   5.832  0.4000 -0.1575 -0.4671
  390MOL0     C51412  10.529   9.928   5.928  0.4099 -1.2587 -0.4095
  390MOL0     C51413   9.866  10.205   5.492  0.1566  0.2441 -0.1444
  390MOL0     C51414   9.730  10.239   5.474 -0.2493 -0.7944 -0.2978
  390MOL0     H51415   9.272   9.873   5.565 -1.1657 -0.7705  1.4723
  390MOL0     H51416   9.044   9.862   5.625 -1.7063  0.0304  0.6037
  390MOL0     H51417   8.817   9.905   5.687  1.5357 -0.8621 -0.4617
  390MOL0     H51418   8.859   9.849   5.518  1.2432  0.1724  1.6198
  390MOL0     H51419   8.624   9.912   5.457 -0.9014  0.9238  0.9651
  390MOL0     H51420   8.610   9.980   5.623 -1.1568 -0.4457  0.1599
  390MOL0     H51421   8.671   9.726   5.700  1.0709 -1.5808 -1.7632
  390MOL0     H51422   8.653   9.690   5.534 -1.3701 -3.2940  1.3164
  390MOL0     H51423   8.424   9.786   5.730 -0.5416 -0.9703  0.6184
  390MOL0     H51424   8.408   9.771   5.552 -2.3411 -1.3721  0.7949
  390MOL0     H51425   8.449   9.560   5.771 -2.8333 -0.2723  0.5142
  390MOL0     H51426   8.501   9.523   5.606 -1.0684 -0.0630  0.2744
  390MOL0     H51427   8.277   9.452   5.637 -2.0347 -0.5558 -2.2417
  390MOL0     H51428   8.268   9.597   5.527  1.3275 -0.2341 -0.6305
  390MOL0     H51429   8.189   9.736   5.696 -0.8441  0.3680  0.2924
  390MOL0     H51430   8.097   9.593   5.694  0.2911 -0.9184 -0.1375
  390MOL0     H51431   8.157   9.686   5.927  1.6707  1.1496  0.9546
  390MOL0     H51432   8.322   9.644   5.901  0.2973  1.6171 -1.5216
  390MOL0     H51433   7.998   9.445   5.834  2.1959  0.1675 -2.0354
  390MOL0     H51434   8.018   9.131   6.090 -1.7138 -0.0295  0.1961
  390MOL0     H51435   8.008   9.118   5.901 -2.0207 -0.6566 -0.6753
  390MOL0     H51436   7.806   9.248   5.910  1.1562  1.5110  1.0733
  390MOL0     H51437   7.837   9.303   6.067  1.7416  1.7403 -2.0708
  390MOL0     H51438   7.806   9.003   6.036 -0.5715  0.3253 -3.7141
  390MOL0     H51439   7.763   9.106   6.174  0.9594 -2.2634 -0.0264
  390MOL0     H51440   7.575   8.985   6.026  0.1609  0.0237 -3.1585
  390MOL0     H51441   7.619   9.103   5.906  2.1304 -0.3057  0.3099
  390MOL0     H51442   7.361   9.278   6.237  1.5926 -0.2626  0.9156
  390MOL0     H51443   7.118   9.238   6.260  0.6279  1.1498 -0.5270
  390MOL0     H51444   6.720   9.152   5.956  2.4325 -1.9983  0.6488
  390MOL0     H51445   6.478   9.138   5.977  0.3601  1.4144  0.2072
  390MOL0     H51446   6.274   9.065   6.063  1.7407 -0.3467  0.6230
  390MOL0     H51447   6.273   9.240   6.064 -1.5759 -1.6597 -2.4265
  390MOL0     H51448   6.113   9.229   6.260  0.3667  1.1966 -1.8711
  390MOL0     H51449   6.091   9.056   6.241  1.6699 -0.2310 -0.2735
  390MOL0     H51450   6.016   9.095   5.994 -2.0281  0.7876 -0.0522
  390MOL0     H51451   6.015   9.266   6.031  2.3853 -0.1463 -0.5872
  390MOL0     H51452   5.876   9.073   6.215 -1.0626 -0.2062  0.0874
  390MOL0     H51453   5.834   9.237   6.182 -0.3436  0.0048  0.9651
  390MOL0     H51454   5.790   9.017   5.972 -1.4694 -1.7487  2.5067
  390MOL0     H51455   5.743   9.194   5.967 -1.8440  2.3976  2.4995
  390MOL0     H51456   5.611   9.156   6.173 -0.7050  0.2250  0.0322
  390MOL0     H51457   5.656   8.982   6.158  0.3113 -0.0029 -0.2643
  390MOL0     H51458   5.507   9.121   5.932 -1.2914  1.0453  0.7074
  390MOL0     H51459   5.512   8.951   5.963 -2.2391 -0.5000  0.9566
  390MOL0     H51460   5.383   9.136   6.165 -1.4274 -1.2859  2.5192
  390MOL0     H51461   5.356   8.957   6.126  2.5090 -0.9784 -3.1976
  390MOL0     H51462   6.516   9.159   6.413  2.0644 -0.2391  2.1929
  390MOL0     H51463   6.762   9.168   6.388  0.2025 -1.5801  0.1411
  390MOL0     H51464   7.139   8.990   5.906  1.9439  0.2187 -0.3391
  390MOL0     H51465   7.367   9.038   5.879  0.5146 -2.7035  1.3042
  390MOL0     H51466   8.983  10.268   5.505  2.8905  1.0393  2.2217
  390MOL0     H51467   9.220  10.293   5.461  2.7914 -1.4355 -2.6724
  390MOL0     H51468   9.593   9.935   5.563 -0.7069  0.3703  0.6962
  390MOL0     H51469   9.812   9.891   5.628 -3.3229  0.4536  2.6089
  390MOL0     H51470  10.060   9.856   5.544 -1.3687 -0.5434  1.5493
  390MOL0     H51471  10.024   9.907   5.707 -1.6425  1.0495 -0.6973
  390MOL0     H51472  10.262  10.002   5.553 -1.1339  1.1394  0.7355
  390MOL0     H51473  10.248  10.023   5.728  0.5744  0.3827 -0.1204
  390MOL0     H51474  10.270   9.743   5.600 -0.8870 -0.6453  0.2768
  390MOL0     H51475  10.255   9.776   5.764  1.8836 -0.6142  0.4530
  390MOL0     H51476  10.495   9.729   5.686 -0.3699 -0.2491  4.3537
  390MOL0     H51477  10.487   9.895   5.612 -4.4616  1.0716 -0.7128
  390MOL0     H51478  10.559   9.975   6.020  0.1690 -1.8003 -0.0516
  390MOL0     H51479   9.943  10.279   5.471 -0.0322  0.8199  1.0800
  390MOL0     H51480   9.723  10.334   5.423 -2.8309 -0.5701  0.3611
  391MOL0     O51481   1.638   5.294   0.087 -0.5339  0.7592 -0.2205
  391MOL0     C51482   1.660   5.221  -0.012  0.2885  1.1884  0.4993
  391MOL0     O51483   1.567   5.160  -0.094  0.0475 -0.3340 -0.3839
  391MOL0     C51484   1.448   5.143  -0.045 -0.3280  1.1712 -0.3339
  391MOL0     C51485   1.421   5.049   0.056 -0.1965  0.3182 -0.4910
  391MOL0     C51486   1.288   5.032   0.093 -0.1700  0.6958 -0.0292
  391MOL0     C51487   1.177   5.100   0.034 -0.0296 -0.1515 -0.1027
  391MOL0     O51488   1.055   5.079   0.094 -0.3706 -0.5637 -0.5388
  391MOL0     C51489   0.940   5.160   0.054  0.7999 -0.3271 -0.1816
  391MOL0     C51490   0.823   5.137   0.154 -0.4896 -0.5263  0.8245
  391MOL0     C51491   0.703   5.223   0.110 -0.5313  0.3020 -1.0287
  391MOL0     C51492   0.607   5.239   0.226  0.2490 -1.4925 -0.3724
  391MOL0     C51493   0.653   5.337   0.340  0.7601 -0.2993 -0.4436
  391MOL0     C51494   0.548   5.367   0.443 -0.4978 -0.7273 -0.5874
  391MOL0     C51495   0.520   5.251   0.531  0.0861 -0.3435 -0.2563
  391MOL0     C51496   0.637   5.205   0.617  0.3064  0.6572 -0.4787
  391MOL0     N51497   0.603   5.082   0.697 -0.9636 -0.6630 -1.4264
  391MOL0     C51498   0.516   5.081   0.802 -0.0634  0.0348 -0.2162
  391MOL0     C51499   0.521   4.959   0.854 -0.9890  0.4461  0.1135
  391MOL0     C51500   0.452   4.911   0.980  0.2174 -0.4591 -0.4156
  391MOL0     C51501   0.302   4.904   0.959  0.1716  0.3281 -0.3980
  391MOL0     C51502   0.253   4.794   0.859 -0.6677 -0.2533  0.0962
  391MOL0     C51503   0.111   4.817   0.810 -0.9490 -1.3103  0.7589
  391MOL0     O51504   0.024   4.810   0.918 -0.7353 -0.2312 -0.6182
  391MOL0     C51505  -0.104   4.777   0.905  0.6584  0.1040 -0.2153
  391MOL0     C51506  -0.171   4.766   1.023 -0.9651 -0.1306 -0.6015
  391MOL0     C51507  -0.306   4.739   1.035  0.2793 -0.3471 -0.2269
  391MOL0     C51508  -0.386   4.709   0.922  0.3762 -0.1384  0.8267
  391MOL0     C51509  -0.525   4.656   0.921 -0.2475  0.1779 -0.8084
  391MOL0     O51510  -0.594   4.659   0.810 -0.1676  0.5814  0.3949
  391MOL0     C51511  -0.724   4.672   0.821  0.8500  0.1292  0.3264
  391MOL0     C51512  -0.812   4.570   0.871 -0.1665  0.4611  0.3582
  391MOL0     C51513  -0.953   4.593   0.874 -0.3557  0.4780  0.0098
  391MOL0     C51514  -1.007   4.712   0.818  0.6096  0.2567 -0.2556
  391MOL0     O51515  -1.141   4.722   0.806  0.9530  0.3035  0.0650
  391MOL0     C51516  -1.190   4.746   0.673 -0.9398 -0.1674 -0.6460
  391MOL0     C51517  -1.338   4.724   0.666 -0.2701 -0.1589 -0.5025
  391MOL0     C51518  -1.405   4.759   0.530 -0.1493  0.2584  0.2986
  391MOL0     C51519  -1.559   4.779   0.547  0.2533 -0.5192  0.3502
  391MOL0     C51520  -1.619   4.655   0.610  0.3970 -0.0155 -0.5579
  391MOL0     C51521  -1.764   4.664   0.658  0.2765  0.2104 -0.2614
  391MOL0     C51522  -1.853   4.663   0.536 -0.0988 -1.0892 -0.4500
  391MOL0     C51523  -1.994   4.609   0.579 -0.1370 -0.2743  0.1537
  391MOL0    Cl51524  -2.105   4.648   0.449  0.2498  0.2180 -0.4390
  391MOL0     C51525  -0.913   4.804   0.760  0.0712  0.4679 -0.4991
  391MOL0     C51526  -0.778   4.787   0.770 -0.2298 -0.1102  0.3502
  391MOL0     O51527  -0.574   4.638   1.034  0.2286 -0.4235  0.0905
  391MOL0     C51528  -0.323   4.730   0.789  0.2568  0.9670 -0.7079
  391MOL0     C51529  -0.185   4.753   0.784 -0.9720  0.1057 -0.2968
  391MOL0     N51530   0.612   4.889   0.780  0.1578  0.2126  0.0539
  391MOL0     N51531   0.673   4.965   0.694  0.6466 -0.2652  1.1222
  391MOL0     C51532   1.207   5.185  -0.079 -0.1625 -0.3778 -0.0498
  391MOL0     C51533   1.340   5.200  -0.114 -0.1747  0.2895  0.1999
  391MOL0     C51534   1.801   5.211  -0.054 -0.3191 -0.5981 -1.0112
  391MOL0     C51535   1.900   5.299  -0.007 -0.5509 -0.0425  0.3322
  391MOL0     C51536   2.039   5.291  -0.049 -0.2006  0.0772 -0.0139
  391MOL0     C51537   2.082   5.174  -0.112 -0.5289  0.0850 -0.6435
  391MOL0     O51538   2.209   5.127  -0.136 -0.2010 -0.5370 -0.4639
  391MOL0     C51539   2.307   5.180  -0.039 -0.7303  0.5755  0.2468
  391MOL0     C51540   2.425   5.087  -0.035 -0.6420 -0.4627 -0.0130
  391MOL0     C51541   2.554   5.145   0.046  0.1327  0.4684 -0.3567
  391MOL0     C51542   2.672   5.043   0.035 -0.5597  0.3131 -0.4263
  391MOL0     C51543   2.773   5.072   0.132  0.3744  0.4321 -0.3100
  391MOL0     C51544   2.851   5.098   0.224 -0.4754 -0.0172  0.4378
  391MOL0     C51545   1.979   5.092  -0.171  0.2464  0.5412  0.3892
  391MOL0     C51546   1.843   5.109  -0.143  0.2922  0.1813 -0.0005
  391MOL0     H51547   1.514   5.012   0.098  0.0683 -1.6844 -2.6377
  391MOL0     H51548   1.262   4.971   0.179  1.6388  0.4170  0.3620
  391MOL0     H51549   0.900   5.139  -0.046 -1.4041 -1.9450  0.9687
  391MOL0     H51550   0.962   5.268   0.051 -1.2269  0.1485  0.4616
  391MOL0     H51551   0.852   5.175   0.253 -1.6222 -0.7722  1.2802
  391MOL0     H51552   0.794   5.033   0.169 -1.6042 -0.0524  2.2728
  391MOL0     H51553   0.653   5.184   0.021 -3.0873 -5.8263  2.4559
  391MOL0     H51554   0.747   5.319   0.083  1.0035  0.6357  2.1283
  391MOL0     H51555   0.514   5.273   0.181  1.0629  2.8880  0.8590
  391MOL0     H51556   0.590   5.141   0.271  0.9866 -2.0983 -1.3569
  391MOL0     H51557   0.682   5.439   0.315  0.6524  0.2222  1.3572
  391MOL0     H51558   0.745   5.297   0.383 -0.1870 -1.2406  0.7994
  391MOL0     H51559   0.459   5.396   0.385 -1.1546 -1.8933 -0.1837
  391MOL0     H51560   0.568   5.453   0.507 -2.9099  0.5258 -1.3745
  391MOL0     H51561   0.438   5.270   0.601  0.4708 -2.9750  1.0696
  391MOL0     H51562   0.491   5.159   0.480  0.2070  0.9483 -2.8054
  391MOL0     H51563   0.662   5.293   0.677  1.0721 -1.3491  2.3635
  391MOL0     H51564   0.727   5.187   0.558  1.8940  0.6074  1.8285
  391MOL0     H51565   0.465   5.173   0.827  1.1200  0.1980  1.7863
  391MOL0     H51566   0.473   4.983   1.059 -2.1326 -1.6354  1.4374
  391MOL0     H51567   0.496   4.818   1.017  4.6925  1.0544 -1.4129
  391MOL0     H51568   0.273   5.004   0.926 -1.8129  0.1506  0.6148
  391MOL0     H51569   0.252   4.888   1.056  1.4305  2.3901  0.6562
  391MOL0     H51570   0.329   4.779   0.781 -1.2226 -0.8618 -0.3413
  391MOL0     H51571   0.262   4.705   0.922  0.2763 -0.5774 -0.4613
  391MOL0     H51572   0.074   4.750   0.733 -2.0403  0.3423 -0.2239
  391MOL0     H51573   0.109   4.922   0.780 -0.1974 -1.0363  1.6121
  391MOL0     H51574  -0.121   4.792   1.115 -0.3320  3.2800 -1.7543
  391MOL0     H51575  -0.355   4.732   1.132 -0.6395 -0.1617 -0.6693
  391MOL0     H51576  -0.768   4.475   0.901 -0.9605  0.5897  2.0499
  391MOL0     H51577  -1.016   4.518   0.921  0.5237 -0.1035  0.2773
  391MOL0     H51578  -1.139   4.689   0.595  0.0108 -2.9338  1.8144
  391MOL0     H51579  -1.170   4.853   0.663  2.6675 -0.7963 -1.4374
  391MOL0     H51580  -1.384   4.777   0.750 -1.1128 -0.9042 -0.4690
  391MOL0     H51581  -1.348   4.618   0.692  0.1760 -0.4867 -1.6435
  391MOL0     H51582  -1.386   4.686   0.451 -0.3867 -0.7771  1.1887
  391MOL0     H51583  -1.367   4.853   0.487 -0.7363  1.3107  2.0038
  391MOL0     H51584  -1.563   4.864   0.616 -0.1830 -0.2354 -0.0216
  391MOL0     H51585  -1.614   4.800   0.455 -0.1950  0.6182  0.8623
  391MOL0     H51586  -1.558   4.625   0.695  0.7230  1.0857 -0.3906
  391MOL0     H51587  -1.606   4.568   0.545  1.7049 -0.3376  0.1046
  391MOL0     H51588  -1.782   4.750   0.723  0.5638  1.3230 -1.5890
  391MOL0     H51589  -1.781   4.568   0.707 -0.2246  0.8044  0.7440
  391MOL0     H51590  -1.860   4.767   0.504  0.0221 -1.2625 -1.0561
  391MOL0     H51591  -1.819   4.608   0.448 -2.2606  1.1199 -2.8387
  391MOL0     H51592  -2.023   4.657   0.672  0.2629  0.0634  0.1073
  391MOL0     H51593  -1.986   4.502   0.602  4.4464 -0.4320 -1.0084
  391MOL0     H51594  -0.948   4.892   0.707  0.2210  1.7441  1.3972
  391MOL0     H51595  -0.706   4.859   0.731 -0.4725  0.8111  1.5349
  391MOL0     H51596  -0.374   4.716   0.694  0.9908 -0.3289 -0.9386
  391MOL0     H51597  -0.139   4.751   0.686 -2.4870  0.8647 -1.0544
  391MOL0     H51598   1.129   5.228  -0.140 -0.8825 -0.5668  0.7179
  391MOL0     H51599   1.354   5.275  -0.191  0.8616  1.6161  1.6013
  391MOL0     H51600   1.872   5.386   0.052  3.0371  2.4974 -1.2556
  391MOL0     H51601   2.110   5.367  -0.017 -0.8029  1.3631 -1.6244
  391MOL0     H51602   2.277   5.183   0.066 -1.5495 -0.7944  0.0774
  391MOL0     H51603   2.330   5.281  -0.075 -1.4027  1.5921  2.4881
  391MOL0     H51604   2.389   4.992   0.005  2.8464 -2.2931 -0.8162
  391MOL0     H51605   2.469   5.072  -0.135 -0.2389 -1.5781  0.3164
  391MOL0     H51606   2.530   5.157   0.152  1.5169 -2.3394  0.3670
  391MOL0     H51607   2.583   5.242   0.005  0.8964  1.5087  2.4025
  391MOL0     H51608   2.636   4.942   0.057  1.8718 -0.6614 -0.6921
  391MOL0     H51609   2.719   5.041  -0.064  0.1299  0.1410 -0.0999
  391MOL0     H51610   2.920   5.129   0.300  1.4519  0.2745 -1.3304
  391MOL0     H51611   2.020   5.012  -0.232  0.1677 -0.9329  2.1585
  391MOL0     H51612   1.778   5.037  -0.193 -0.4325  2.1679 -2.0864
  392MOL0     O51613   3.716   4.610   0.515 -0.0586 -0.1860 -0.7345
  392MOL0     C51614   3.807   4.612   0.597 -0.8906 -0.2773  0.2413
  392MOL0     O51615   3.837   4.517   0.687  0.4085  0.1296  0.5347
  392MOL0     C51616   3.739   4.437   0.738 -0.9698 -0.2440  0.1383
  392MOL0     C51617   3.615   4.479   0.771  0.7946 -1.3037  0.2862
  392MOL0     C51618   3.518   4.396   0.839  0.5830 -0.2688  0.7591
  392MOL0     C51619   3.554   4.267   0.875 -0.5781 -0.2688 -0.4407
  392MOL0     O51620   3.479   4.184   0.941  0.8940 -0.5689  0.0039
  392MOL0     C51621   3.338   4.214   0.960 -0.0104  0.4118  0.2783
  392MOL0     C51622   3.264   4.089   0.999  0.4658 -0.0072  0.2109
  392MOL0     C51623   3.111   4.099   1.014 -0.1402  0.1647 -0.0495
  392MOL0     C51624   3.048   3.960   1.025  0.3927 -0.4820 -0.1097
  392MOL0     C51625   2.893   3.988   1.036 -0.4510  0.0513 -0.0579
  392MOL0     C51626   2.831   3.852   1.079  0.3347 -0.4207  0.1700
  392MOL0     C51627   2.679   3.844   1.072  1.1467 -0.6512 -0.3608
  392MOL0     C51628   2.615   3.712   1.059  0.0023  0.3450  0.4439
  392MOL0     N51629   2.588   3.645   1.185 -0.6410 -0.2038  0.9722
  392MOL0     C51630   2.675   3.555   1.243 -0.0729  0.6698 -0.0753
  392MOL0     C51631   2.591   3.498   1.342  0.5491  0.7899  0.5050
  392MOL0     C51632   2.643   3.410   1.450  0.4179  0.1226 -0.2023
  392MOL0     C51633   2.799   3.421   1.478 -0.2753 -0.1386  0.1573
  392MOL0     C51634   2.869   3.287   1.475  0.6181  0.2595  0.1657
  392MOL0     C51635   3.021   3.310   1.508  1.2245  0.1118 -0.8320
  392MOL0     O51636   3.075   3.393   1.404 -0.0910 -0.4826  0.1010
  392MOL0     C51637   3.208   3.437   1.417  0.0227 -0.0515  0.3260
  392MOL0     C51638   3.238   3.559   1.356  0.2629  0.0957  0.6313
  392MOL0     C51639   3.369   3.616   1.352  0.9448  0.0929  0.4752
  392MOL0     C51640   3.462   3.549   1.430  0.0810  0.0856 -0.3619
  392MOL0     C51641   3.587   3.603   1.454  0.9859  0.4624 -0.0531
  392MOL0     O51642   3.632   3.693   1.359 -0.0239 -0.0719  0.5350
  392MOL0     C51643   3.745   3.764   1.394  0.1226  0.4198  0.4868
  392MOL0     C51644   3.865   3.733   1.332 -0.0733  0.0649 -0.2054
  392MOL0     C51645   3.982   3.814   1.360  0.4003  0.8085  0.6145
  392MOL0     C51646   3.976   3.922   1.450 -0.3120 -0.0644 -0.1133
  392MOL0     O51647   4.088   3.989   1.500  0.0579  0.4042 -0.1397
  392MOL0     C51648   4.223   3.963   1.440  0.5251 -0.4977 -0.5017
  392MOL0     C51649   4.244   4.038   1.311  0.4711 -0.5085 -0.3736
  392MOL0     C51650   4.369   3.999   1.240 -0.7854 -0.3776 -0.0520
  392MOL0     C51651   4.374   4.079   1.110 -1.1364 -0.0454  0.5043
  392MOL0     C51652   4.516   4.081   1.054 -0.4169  0.8131  1.5866
  392MOL0     C51653   4.512   4.124   0.903  0.0061  0.2667 -0.2616
  392MOL0     C51654   4.655   4.136   0.843 -0.4591 -0.1391  0.0602
  392MOL0     C51655   4.657   4.209   0.718 -0.3504  0.0509  0.4633
  392MOL0    Cl51656   4.810   4.164   0.631 -0.4368  0.1397  0.1043
  392MOL0     C51657   3.852   3.945   1.506 -0.3688 -0.2198 -0.8512
  392MOL0     C51658   3.740   3.872   1.480  0.6731 -0.2977  0.0834
  392MOL0     O51659   3.645   3.576   1.558  0.7258  0.4935  0.2209
  392MOL0     C51660   3.430   3.429   1.501  0.4300 -0.4823 -0.0222
  392MOL0     C51661   3.306   3.376   1.492  0.0618  0.6514  0.2099
  392MOL0     N51662   2.455   3.542   1.328 -0.0503  0.4640 -0.0430
  392MOL0     N51663   2.461   3.631   1.232  0.3152 -0.2509 -0.4793
  392MOL0     C51664   3.677   4.225   0.838 -0.7905  0.6918  0.1795
  392MOL0     C51665   3.774   4.305   0.771  0.6879  0.2982 -0.8008
  392MOL0     C51666   3.922   4.702   0.564  0.3208  0.3543  0.0173
  392MOL0     C51667   3.923   4.798   0.457  0.5686 -0.2513 -1.1290
  392MOL0     C51668   4.023   4.884   0.446  0.0822 -0.3984 -0.9150
  392MOL0     C51669   4.133   4.874   0.536 -0.1921  0.2907 -0.5265
  392MOL0     O51670   4.231   4.964   0.511  0.0355  0.9234 -0.1989
  392MOL0     C51671   4.335   4.997   0.605 -0.7266 -0.1262 -0.6111
  392MOL0     C51672   4.291   5.071   0.736  0.5928 -0.5204 -0.6461
  392MOL0     C51673   4.307   5.220   0.718  0.3264 -0.8562 -0.1962
  392MOL0     C51674   4.427   5.275   0.799  0.4989 -0.7789 -0.7453
  392MOL0     C51675   4.556   5.248   0.730  0.2891  0.3865 -1.5140
  392MOL0     C51676   4.663   5.226   0.673 -0.0188  0.1144  0.0696
  392MOL0     C51677   4.138   4.778   0.643 -0.3197 -0.1257 -0.2550
  392MOL0     C51678   4.040   4.685   0.646  0.2592  0.3689  0.3627
  392MOL0     H51679   3.578   4.581   0.765  0.5712 -1.4203 -0.6152
  392MOL0     H51680   3.422   4.434   0.873 -0.5448 -0.3676 -2.0296
  392MOL0     H51681   3.295   4.264   0.873  0.0538  2.0977  1.1615
  392MOL0     H51682   3.330   4.289   1.040 -0.6938  2.5196 -1.6271
  392MOL0     H51683   3.315   4.044   1.085  1.1632 -0.8458 -0.6107
  392MOL0     H51684   3.281   4.011   0.924 -1.3283 -1.8287  1.5721
  392MOL0     H51685   3.062   4.162   0.939 -0.0533  0.1059 -0.1556
  392MOL0     H51686   3.091   4.156   1.106 -3.8087  2.3918 -1.9800
  392MOL0     H51687   3.060   3.898   0.936 -3.1016  0.6911 -1.5648
  392MOL0     H51688   3.086   3.906   1.113 -1.1608  2.0847  2.2823
  392MOL0     H51689   2.869   4.008   0.931  5.0845 -1.0170 -1.8543
  392MOL0     H51690   2.862   4.072   1.098 -0.7703 -1.8596  2.5483
  392MOL0     H51691   2.865   3.833   1.181  1.7621  2.1884  0.2659
  392MOL0     H51692   2.872   3.775   1.012  0.3350  1.2015 -1.7881
  392MOL0     H51693   2.636   3.894   1.159 -1.3123  1.8673 -2.8072
  392MOL0     H51694   2.657   3.911   0.989  0.8175 -0.5933 -0.2266
  392MOL0     H51695   2.657   3.640   0.987 -0.9048 -0.2637  0.5067
  392MOL0     H51696   2.513   3.738   1.028 -0.9884 -0.8196  2.5526
  392MOL0     H51697   2.775   3.526   1.212 -1.5811 -3.8477 -1.4221
  392MOL0     H51698   2.624   3.308   1.414 -0.2369  0.1166  0.1467
  392MOL0     H51699   2.596   3.424   1.548 -0.6951 -1.6955 -0.4328
  392MOL0     H51700   2.813   3.463   1.579  0.1008 -1.1453  0.5323
  392MOL0     H51701   2.846   3.482   1.401 -0.8652  0.9262  0.6154
  392MOL0     H51702   2.816   3.216   1.539  0.5132 -1.7274 -1.9981
  392MOL0     H51703   2.866   3.233   1.380 -2.0693  1.7444 -0.6934
  392MOL0     H51704   3.067   3.211   1.512 -1.9914 -1.4950 -0.1171
  392MOL0     H51705   3.028   3.361   1.605 -5.0804 -0.8888  0.5367
  392MOL0     H51706   3.153   3.597   1.300  1.5254  0.6352 -1.0049
  392MOL0     H51707   3.392   3.706   1.297  1.6369 -0.9866 -1.1015
  392MOL0     H51708   3.866   3.640   1.276 -1.4706 -1.3724  2.0077
  392MOL0     H51709   4.081   3.801   1.316  0.0788 -1.5538  0.4108
  392MOL0     H51710   4.239   3.856   1.427 -0.8618 -1.0187  1.5338
  392MOL0     H51711   4.299   3.994   1.513  0.7352 -0.3401 -0.7827
  392MOL0     H51712   4.238   4.146   1.327  0.6225 -0.6589  0.7596
  392MOL0     H51713   4.162   4.004   1.247  0.3288 -0.7382 -0.0704
  392MOL0     H51714   4.380   3.891   1.226  2.3752  0.0399 -1.4488
  392MOL0     H51715   4.450   4.038   1.302 -1.6620  0.6469  0.4858
  392MOL0     H51716   4.309   4.020   1.045 -0.3776  0.3695 -0.6729
  392MOL0     H51717   4.333   4.181   1.112  1.1889  0.9464  1.2514
  392MOL0     H51718   4.551   3.978   1.066 -1.1964  0.1517 -1.1995
  392MOL0     H51719   4.583   4.144   1.114  1.4982 -0.0508  0.4398
  392MOL0     H51720   4.458   4.217   0.885  0.6199  0.5199 -0.8262
  392MOL0     H51721   4.454   4.053   0.844 -0.9119 -0.9008  1.9227
  392MOL0     H51722   4.725   4.181   0.914  2.9195 -1.5402 -2.1045
  392MOL0     H51723   4.702   4.038   0.829  1.2938  0.1618  3.0175
  392MOL0     H51724   4.664   4.316   0.740  0.1493  0.4059 -1.2864
  392MOL0     H51725   4.563   4.202   0.662  0.3196  0.9206 -0.8129
  392MOL0     H51726   3.841   4.028   1.575 -0.4334 -1.7542  1.0589
  392MOL0     H51727   3.650   3.899   1.534  0.4883  2.4376 -1.4214
  392MOL0     H51728   3.500   3.366   1.554 -0.9019 -1.9949  0.0089
  392MOL0     H51729   3.284   3.291   1.556 -1.3298  1.5027  0.8949
  392MOL0     H51730   3.712   4.131   0.880 -2.4144  0.0365  0.1435
  392MOL0     H51731   3.877   4.274   0.754  0.3930 -1.3024  0.1314
  392MOL0     H51732   3.846   4.809   0.381  0.2952  3.8401 -0.4803
  392MOL0     H51733   4.024   4.946   0.357 -0.5953  0.3867 -0.3806
  392MOL0     H51734   4.402   5.069   0.557 -0.6741  1.1390  1.2708
  392MOL0     H51735   4.400   4.911   0.624  1.3476  1.4156 -0.3315
  392MOL0     H51736   4.188   5.040   0.757  0.1593  0.6467 -0.9921
  392MOL0     H51737   4.350   5.030   0.819  0.4511  0.4381 -0.0561
  392MOL0     H51738   4.216   5.271   0.752  0.6477 -1.0905  1.0836
  392MOL0     H51739   4.303   5.247   0.612 -3.2443  0.2057  0.0905
  392MOL0     H51740   4.412   5.379   0.829 -1.7930 -1.3997  0.5707
  392MOL0     H51741   4.438   5.220   0.893 -2.3006 -0.8178 -0.3550
  392MOL0     H51742   4.746   5.218   0.605 -1.9868 -0.4018 -2.4081
  392MOL0     H51743   4.218   4.774   0.716 -2.6111  2.4893  2.6836
  392MOL0     H51744   4.053   4.599   0.710 -2.7037  0.5291  1.3299
  393MOL0     O51745   7.023  10.189   6.642  0.3799 -0.8753  0.3730
  393MOL0     C51746   7.097  10.094   6.617  0.6100 -0.5687 -0.0269
  393MOL0     O51747   7.056   9.976   6.569  0.3345 -0.1130 -0.0084
  393MOL0     C51748   6.916   9.953   6.554 -0.4172 -0.1567 -0.7336
  393MOL0     C51749   6.809  10.021   6.619 -0.4358  0.5337 -0.5570
  393MOL0     C51750   6.682   9.979   6.618  0.5217 -0.0837  0.4906
  393MOL0     C51751   6.643   9.872   6.544 -0.3737 -0.0227 -0.2212
  393MOL0     O51752   6.509   9.833   6.526 -0.4106  0.3216 -0.0294
  393MOL0     C51753   6.409   9.831   6.638 -0.1415  0.3066  1.1669
  393MOL0     C51754   6.270   9.832   6.567 -0.2351  0.2735  0.3015
  393MOL0     C51755   6.144   9.801   6.651 -0.0501 -0.7807 -0.1611
  393MOL0     C51756   6.007   9.836   6.589  0.5208  0.5947  0.5017
  393MOL0     C51757   5.901   9.797   6.696  0.4670 -0.4711 -0.2655
  393MOL0     C51758   5.782   9.884   6.669  0.0218 -0.3038  0.2443
  393MOL0     C51759   5.663   9.839   6.746  0.1458  0.5175  0.1783
  393MOL0     C51760   5.602   9.694   6.729  0.9849 -1.4484  0.0882
  393MOL0     N51761   5.470   9.677   6.782  0.2326 -0.0384 -0.5229
  393MOL0     C51762   5.432   9.691   6.918  0.0467  0.2301  0.4183
  393MOL0     C51763   5.305   9.639   6.926 -0.5457 -0.3269  0.6043
  393MOL0     C51764   5.232   9.622   7.060  0.7343  0.4535  0.1916
  393MOL0     C51765   5.108   9.704   7.059  0.4908  0.1082 -0.5184
  393MOL0     C51766   4.995   9.647   6.967  0.0398 -0.0964 -0.0298
  393MOL0     C51767   4.862   9.712   6.991 -0.1218 -0.3505 -0.5643
  393MOL0     O51768   4.860   9.848   6.938  0.1549  0.7130 -0.1971
  393MOL0     C51769   4.744   9.918   6.951 -0.2923  0.2345 -0.0977
  393MOL0     C51770   4.616   9.872   6.993  0.3937  0.0597  0.3081
  393MOL0     C51771   4.509   9.955   7.030 -0.4107  0.2884 -0.6841
  393MOL0     C51772   4.523  10.091   7.014 -0.9777 -0.5814 -1.0626
  393MOL0     C51773   4.405  10.181   7.059  1.1843 -0.6452  0.4992
  393MOL0     O51774   4.306  10.127   7.131  0.1721  0.2659  0.6747
  393MOL0     C51775   4.201  10.201   7.185 -0.5005  0.2227  0.1714
  393MOL0     C51776   4.072  10.176   7.141 -0.1700  0.5224  0.0144
  393MOL0     C51777   3.970  10.242   7.185  0.0516  0.1184 -0.6941
  393MOL0     C51778   3.988  10.351   7.268 -0.0520 -0.6355  0.4730
  393MOL0     O51779   3.890  10.444   7.301 -0.8302 -0.2556  0.0054
  393MOL0     C51780   3.756  10.418   7.266  0.6202 -0.6466  0.1782
  393MOL0     C51781   3.668  10.517   7.349 -0.1695 -0.4145  0.3357
  393MOL0     C51782   3.527  10.531   7.285 -0.0448 -0.1782  0.1600
  393MOL0     C51783   3.440  10.632   7.355  0.3701  0.2448 -0.1846
  393MOL0     C51784   3.395  10.584   7.495  0.1908 -0.0221  0.4568
  393MOL0     C51785   3.277  10.679   7.530 -0.1698 -0.6783  0.2076
  393MOL0     C51786   3.216  10.641   7.666 -0.0015  0.3524 -0.7621
  393MOL0     C51787   3.110  10.745   7.705 -0.0674 -0.3711 -0.9238
  393MOL0    Cl51788   2.959  10.746   7.599 -0.2690 -0.1872 -0.4705
  393MOL0     C51789   4.110  10.373   7.323 -0.2039 -0.1722  0.5956
  393MOL0     C51790   4.219  10.297   7.280 -0.3963  0.3003 -0.1705
  393MOL0     O51791   4.417  10.304   7.039  0.3967  0.3585 -0.3794
  393MOL0     C51792   4.646  10.140   6.955  0.2128 -0.3877  0.2419
  393MOL0     C51793   4.756  10.053   6.941  0.3127  0.6596 -0.2800
  393MOL0     N51794   5.259   9.607   6.799 -0.7560  0.5574  0.9803
  393MOL0     N51795   5.360   9.638   6.710  0.2585 -0.3355 -0.2902
  393MOL0     C51796   6.740   9.805   6.475 -0.3083  0.1224  0.2202
  393MOL0     C51797   6.877   9.838   6.489  0.0711 -0.5090  0.9595
  393MOL0     C51798   7.243  10.117   6.639  0.3614 -0.7232  0.5307
  393MOL0     C51799   7.289  10.242   6.690  0.5521 -0.0712  0.4560
  393MOL0     C51800   7.425  10.261   6.714  0.4373  0.6280 -0.4519
  393MOL0     C51801   7.511  10.151   6.690  0.3735  0.0384 -0.0591
  393MOL0     O51802   7.639  10.151   6.737 -0.5439  0.6294  0.6433
  393MOL0     C51803   7.680  10.244   6.839  0.9313 -0.0154 -0.4712
  393MOL0     C51804   7.820  10.222   6.897  0.2385  0.6466  0.1929
  393MOL0     C51805   7.832  10.088   6.976 -0.1467 -0.9720 -0.2158
  393MOL0     C51806   7.836  10.110   7.127 -0.8856  0.2198  0.4119
  393MOL0     C51807   7.722  10.183   7.181  0.6306  0.6011  1.7449
  393MOL0     C51808   7.622  10.236   7.231 -0.1810  0.3919  0.1151
  393MOL0     C51809   7.463  10.036   6.627 -0.8735  0.7899  0.6038
  393MOL0     C51810   7.328  10.014   6.603 -0.2754  0.5236  0.2778
  393MOL0     H51811   6.826  10.110   6.679  4.4120  0.1458 -0.9909
  393MOL0     H51812   6.605  10.045   6.658 -0.0654 -0.7301  0.4589
  393MOL0     H51813   6.434   9.905   6.714 -0.1403  2.8538 -1.1316
  393MOL0     H51814   6.422   9.733   6.685 -0.8304 -0.9823 -1.1422
  393MOL0     H51815   6.265   9.755   6.489  0.6317 -1.8203  2.2104
  393MOL0     H51816   6.250   9.931   6.524 -3.6794  0.0682  1.1130
  393MOL0     H51817   6.155   9.862   6.741 -0.0967 -2.6976  1.2029
  393MOL0     H51818   6.151   9.694   6.675  1.9009 -1.3303 -2.6987
  393MOL0     H51819   5.993   9.944   6.575 -0.7022  0.4096  0.1598
  393MOL0     H51820   5.986   9.784   6.496 -1.3499  0.7027  0.8305
  393MOL0     H51821   5.934   9.814   6.799  1.0717  0.7643 -0.6417
  393MOL0     H51822   5.884   9.689   6.690 -1.2030 -0.2261 -0.6425
  393MOL0     H51823   5.748   9.861   6.568  1.7787 -1.5365 -0.1159
  393MOL0     H51824   5.800   9.990   6.690 -0.0582 -0.5008  1.3755
  393MOL0     H51825   5.681   9.852   6.853 -2.5157 -2.3377  1.1242
  393MOL0     H51826   5.587   9.903   6.699  2.0949  1.4792 -1.8266
  393MOL0     H51827   5.679   9.632   6.775  1.6117  0.5549  1.8837
  393MOL0     H51828   5.590   9.660   6.625 -4.1970 -0.8485  0.2433
  393MOL0     H51829   5.502   9.721   6.995  1.8224 -0.0798 -1.0056
  393MOL0     H51830   5.298   9.656   7.140  0.4382 -0.1469  0.7019
  393MOL0     H51831   5.205   9.517   7.077 -2.7449  1.1651 -0.1665
  393MOL0     H51832   5.137   9.807   7.038  0.0157  0.2435 -0.5093
  393MOL0     H51833   5.071   9.708   7.162  0.6926  3.2523 -0.4745
  393MOL0     H51834   5.016   9.662   6.861 -0.9754 -1.6891 -0.4944
  393MOL0     H51835   4.983   9.539   6.983  1.7321 -0.2091  0.6169
  393MOL0     H51836   4.848   9.712   7.099 -0.7767 -2.5830 -0.5949
  393MOL0     H51837   4.789   9.648   6.941 -0.5651 -0.8656  0.6918
  393MOL0     H51838   4.609   9.767   7.016 -0.4308  0.3297  1.3816
  393MOL0     H51839   4.423   9.910   7.079  0.3786  0.6533  1.0986
  393MOL0     H51840   4.059  10.090   7.076 -0.1144 -0.1973  0.9221
  393MOL0     H51841   3.874  10.221   7.139  0.8851 -1.5964 -1.7521
  393MOL0     H51842   3.726  10.315   7.287  0.0723 -0.5347 -0.0466
  393MOL0     H51843   3.739  10.434   7.159  1.3306 -1.7559 -0.1187
  393MOL0     H51844   3.716  10.615   7.344  0.5596 -0.6740  1.9041
  393MOL0     H51845   3.660  10.494   7.456  2.1813  0.9475  0.8683
  393MOL0     H51846   3.474  10.435   7.278 -0.7107  0.2575 -1.1777
  393MOL0     H51847   3.547  10.562   7.182  1.0551 -0.5082  0.2651
  393MOL0     H51848   3.492  10.724   7.387 -1.7041  0.9432  1.3852
  393MOL0     H51849   3.359  10.661   7.288 -1.0400 -2.6233  0.1318
  393MOL0     H51850   3.478  10.580   7.567  0.8137 -1.4423 -0.2877
  393MOL0     H51851   3.360  10.481   7.483  0.9963 -0.3475  0.7636
  393MOL0     H51852   3.197  10.658   7.459 -1.1679 -3.3979  1.9488
  393MOL0     H51853   3.300  10.786   7.526 -2.6318 -0.0805  0.2296
  393MOL0     H51854   3.169  10.542   7.657  1.1514 -0.2204 -0.6879
  393MOL0     H51855   3.290  10.639   7.746 -0.5815  0.3884 -0.2103
  393MOL0     H51856   3.164  10.839   7.690  0.6277 -0.9915 -2.5424
  393MOL0     H51857   3.087  10.737   7.812  3.1335 -1.3804 -0.2048
  393MOL0     H51858   4.125  10.457   7.391  0.2781  0.0385  0.2385
  393MOL0     H51859   4.319  10.321   7.315  1.1232 -3.5335 -1.3181
  393MOL0     H51860   4.660  10.245   6.934 -0.2433  0.0168  1.8449
  393MOL0     H51861   4.854  10.091   6.912  0.1531  0.7237 -0.7562
  393MOL0     H51862   6.715   9.724   6.407 -1.4281  2.3357 -2.1783
  393MOL0     H51863   6.946   9.770   6.440 -2.5357 -3.3386  0.9055
  393MOL0     H51864   7.216  10.322   6.698  0.8969  0.2233  0.6579
  393MOL0     H51865   7.467  10.354   6.751  0.6902  1.3626 -2.4632
  393MOL0     H51866   7.606  10.242   6.920  0.8823 -2.1853 -0.5065
  393MOL0     H51867   7.669  10.342   6.791 -1.1712 -0.3986 -0.8842
  393MOL0     H51868   7.890  10.206   6.814  1.3654  0.6232  1.1231
  393MOL0     H51869   7.855  10.303   6.961 -0.1684 -0.6488  2.1256
  393MOL0     H51870   7.921  10.027   6.958  0.8160 -0.8486  3.4168
  393MOL0     H51871   7.748  10.021   6.955 -2.4080  1.3118  0.9486
  393MOL0     H51872   7.847  10.010   7.170 -0.3347 -0.7393 -1.8292
  393MOL0     H51873   7.925  10.164   7.162 -1.2782  0.0260  1.7487
  393MOL0     H51874   7.533  10.285   7.265  1.3588  3.0586  0.5673
  393MOL0     H51875   7.537   9.957   6.615 -0.3972  1.0726  1.6338
  393MOL0     H51876   7.287   9.922   6.564 -0.7817  1.7088 -2.1598
  394MOL0     O51877   5.267   6.451   0.687  0.1345 -0.3899  0.3248
  394MOL0     C51878   5.390   6.443   0.693 -0.1836  0.7273 -0.1000
  394MOL0     O51879   5.482   6.522   0.644  0.0735 -0.1417  0.0739
  394MOL0     C51880   5.429   6.615   0.555 -0.0616  0.0817 -0.4235
  394MOL0     C51881   5.376   6.595   0.432 -1.0780  0.0612  0.7028
  394MOL0     C51882   5.325   6.703   0.361  0.0044  0.2042 -0.3354
  394MOL0     C51883   5.329   6.832   0.413 -0.6943  0.3326  0.4723
  394MOL0     O51884   5.277   6.934   0.336  0.3548  0.5006  0.3450
  394MOL0     C51885   5.214   7.047   0.401  0.4515  0.0021 -0.3408
  394MOL0     C51886   5.136   7.129   0.300 -0.3173  0.4159 -0.2872
  394MOL0     C51887   5.039   7.216   0.379 -0.2906 -0.6446 -0.6510
  394MOL0     C51888   4.963   7.312   0.292  0.2594  0.6342  0.0298
  394MOL0     C51889   4.895   7.411   0.386  0.3920 -0.0757  0.9914
  394MOL0     C51890   4.875   7.551   0.321 -0.6343  0.1986  0.1361
  394MOL0     C51891   4.823   7.647   0.413  0.4634  0.2952 -0.3210
  394MOL0     C51892   4.673   7.626   0.448 -0.3505 -0.3798  0.0789
  394MOL0     N51893   4.620   7.735   0.534 -0.2264  0.3141 -1.2550
  394MOL0     C51894   4.675   7.789   0.648  0.0141 -0.7618 -0.0702
  394MOL0     C51895   4.587   7.888   0.683 -0.3017  0.4568  0.4044
  394MOL0     C51896   4.620   7.988   0.795 -0.6663 -0.3256  0.5650
  394MOL0     C51897   4.597   8.135   0.745  0.7366 -0.5128 -0.5682
  394MOL0     C51898   4.611   8.238   0.856 -0.2313  0.7693  0.6887
  394MOL0     C51899   4.588   8.383   0.809 -0.0125  0.7081  0.4079
  394MOL0     O51900   4.624   8.461   0.926 -0.3831  0.1812  0.5435
  394MOL0     C51901   4.538   8.495   1.021 -0.7044 -0.5168 -0.7644
  394MOL0     C51902   4.576   8.494   1.155 -0.1613 -0.0826 -0.0924
  394MOL0     C51903   4.474   8.527   1.252 -0.8221 -0.2428 -0.6158
  394MOL0     C51904   4.344   8.571   1.214 -0.3307  0.7097 -0.6783
  394MOL0     C51905   4.243   8.614   1.319 -0.1259  0.7907  0.1366
  394MOL0     O51906   4.129   8.673   1.264  0.3965 -0.3587  0.1135
  394MOL0     C51907   4.021   8.713   1.347 -0.1412  0.1093  0.7016
  394MOL0     C51908   4.037   8.820   1.429 -0.3080 -0.2285 -0.1134
  394MOL0     C51909   3.933   8.877   1.500 -0.5604  0.3363 -0.5978
  394MOL0     C51910   3.821   8.805   1.501  0.1982  0.0720  0.5273
  394MOL0     O51911   3.720   8.858   1.569 -0.1292 -0.3925 -0.1894
  394MOL0     C51912   3.605   8.898   1.503 -0.0936 -0.1082 -0.6140
  394MOL0     C51913   3.499   8.830   1.569 -0.4511  0.1953 -0.1456
  394MOL0     C51914   3.353   8.870   1.542 -0.9512 -0.1355  0.4699
  394MOL0     C51915   3.255   8.795   1.637  0.0305  0.3235 -0.3761
  394MOL0     C51916   3.130   8.882   1.659 -0.1829  0.4026 -0.0597
  394MOL0     C51917   3.030   8.798   1.733  0.2063 -0.1839  0.1676
  394MOL0     C51918   2.897   8.880   1.764 -0.4319  0.0934  1.4355
  394MOL0     C51919   2.804   8.802   1.857  0.1397 -0.0694 -0.6653
  394MOL0    Cl51920   2.667   8.913   1.873  0.0149 -0.1899 -0.2507
  394MOL0     C51921   3.795   8.687   1.423  0.1854  0.4990  0.0850
  394MOL0     C51922   3.896   8.642   1.347 -0.4071 -1.0683  0.9733
  394MOL0     O51923   4.268   8.588   1.439  0.1240 -0.5258 -0.2616
  394MOL0     C51924   4.312   8.569   1.077 -0.8487  0.0822  0.1953
  394MOL0     C51925   4.404   8.527   0.989  0.7006  0.1849  0.2707
  394MOL0     N51926   4.477   7.878   0.609 -0.3847  0.4350  0.3880
  394MOL0     N51927   4.494   7.786   0.525 -0.0120  0.3138  0.4014
  394MOL0     C51928   5.381   6.849   0.536 -0.3811  0.5350 -0.1220
  394MOL0     C51929   5.421   6.736   0.610  0.4539  0.7877  0.4405
  394MOL0     C51930   5.444   6.334   0.769  0.3500  0.4704  0.8798
  394MOL0     C51931   5.389   6.298   0.901  0.3423  0.6544 -0.1765
  394MOL0     C51932   5.444   6.194   0.972 -0.1998  0.4512 -1.0537
  394MOL0     C51933   5.556   6.123   0.936  1.3282 -0.0463  1.1039
  394MOL0     O51934   5.618   6.028   1.015 -0.6383  0.1428  0.2756
  394MOL0     C51935   5.631   5.897   0.953 -0.4490  0.1069 -0.2889
  394MOL0     C51936   5.699   5.797   1.055 -0.1092  0.3765 -0.5609
  394MOL0     C51937   5.708   5.653   1.010  0.1489  0.3221  0.4123
  394MOL0     C51938   5.764   5.557   1.117  0.4630  0.4083  0.0843
  394MOL0     C51939   5.788   5.423   1.056 -0.1723 -0.2076 -0.6802
  394MOL0     C51940   5.824   5.320   1.006  0.0316 -0.1833 -0.3644
  394MOL0     C51941   5.617   6.160   0.814  0.1340 -0.2528 -0.8755
  394MOL0     C51942   5.559   6.262   0.737 -0.2176 -0.5838 -0.3754
  394MOL0     H51943   5.376   6.496   0.388  2.2402 -0.5596  1.8572
  394MOL0     H51944   5.273   6.686   0.267 -0.5461  0.1378 -0.0240
  394MOL0     H51945   5.286   7.113   0.450  0.9675 -0.7659 -0.0358
  394MOL0     H51946   5.148   7.010   0.480 -0.9297  1.8433 -0.5864
  394MOL0     H51947   5.083   7.065   0.229 -0.3502 -0.4853  0.5292
  394MOL0     H51948   5.203   7.197   0.245 -3.3785  1.3554 -3.1960
  394MOL0     H51949   5.099   7.260   0.460 -2.6804 -1.4726  1.7011
  394MOL0     H51950   4.965   7.148   0.422 -1.3384  0.9709  0.1714
  394MOL0     H51951   5.036   7.357   0.224  1.1345 -0.0075  0.5282
  394MOL0     H51952   4.893   7.245   0.243  1.2076  0.1942 -0.7644
  394MOL0     H51953   4.962   7.416   0.472  3.2228 -1.3958 -0.9638
  394MOL0     H51954   4.793   7.378   0.406 -0.4054 -0.1678 -2.6061
  394MOL0     H51955   4.810   7.549   0.234  1.6985 -3.0618 -1.8015
  394MOL0     H51956   4.977   7.582   0.297  0.0269 -1.3321  0.8063
  394MOL0     H51957   4.878   7.656   0.507 -0.6460 -0.4580  0.4383
  394MOL0     H51958   4.830   7.743   0.361  1.1262  0.8524  0.7588
  394MOL0     H51959   4.660   7.530   0.498  2.5747 -0.5722  0.6784
  394MOL0     H51960   4.613   7.635   0.357  0.3246  0.1116 -0.3260
  394MOL0     H51961   4.771   7.764   0.693  0.4221  0.3428 -0.2889
  394MOL0     H51962   4.725   7.977   0.826 -0.1250 -2.0353 -1.6475
  394MOL0     H51963   4.551   7.962   0.875 -0.5588 -1.7723  0.2253
  394MOL0     H51964   4.499   8.151   0.698  0.1630 -0.8264  0.4768
  394MOL0     H51965   4.671   8.152   0.667 -1.4025 -0.8501 -2.8166
  394MOL0     H51966   4.541   8.214   0.936 -0.9634 -2.4172 -0.7650
  394MOL0     H51967   4.715   8.224   0.887 -0.8336 -1.1026  2.0001
  394MOL0     H51968   4.481   8.395   0.787 -0.5500 -1.6685  1.4057
  394MOL0     H51969   4.641   8.414   0.719 -0.2734  1.2157  0.4247
  394MOL0     H51970   4.674   8.458   1.186  0.3071  1.2765  0.0526
  394MOL0     H51971   4.516   8.532   1.352  0.0987 -0.5663 -0.9723
  394MOL0     H51972   4.141   8.854   1.433 -1.0135  2.1814 -0.4320
  394MOL0     H51973   3.944   8.969   1.556 -0.3384 -0.0926  0.0851
  394MOL0     H51974   3.616   8.890   1.395 -1.7638  1.1762 -0.9201
  394MOL0     H51975   3.599   9.005   1.528 -1.9179 -0.3475  0.1481
  394MOL0     H51976   3.513   8.838   1.677  0.4861 -1.0743 -0.1506
  394MOL0     H51977   3.512   8.725   1.541 -0.2956  0.3019 -0.4766
  394MOL0     H51978   3.328   8.858   1.436 -0.8468  0.0000  0.4308
  394MOL0     H51979   3.344   8.977   1.563  0.0247 -0.3652  2.3092
  394MOL0     H51980   3.237   8.701   1.584  0.7150  0.0735 -0.1738
  394MOL0     H51981   3.289   8.774   1.738 -2.3973  0.3377  0.5076
  394MOL0     H51982   3.093   8.925   1.566 -1.3124 -0.3827  0.0096
  394MOL0     H51983   3.158   8.967   1.722  1.4223  0.0563 -0.2486
  394MOL0     H51984   3.076   8.767   1.828 -0.0346 -1.6200 -0.1635
  394MOL0     H51985   3.013   8.704   1.680 -3.5295  1.1324 -1.2941
  394MOL0     H51986   2.914   8.979   1.808  0.1118  0.8744 -0.4355
  394MOL0     H51987   2.839   8.893   1.673 -0.3726 -2.3044  0.9926
  394MOL0     H51988   2.848   8.805   1.957 -1.5468  2.9029  0.1148
  394MOL0     H51989   2.768   8.704   1.822 -0.1036  0.2197 -1.2384
  394MOL0     H51990   3.701   8.634   1.435  1.0430 -1.0666  0.2006
  394MOL0     H51991   3.873   8.559   1.282 -0.5406  0.0912 -0.5288
  394MOL0     H51992   4.215   8.600   1.039  0.0883  3.2554  0.1087
  394MOL0     H51993   4.369   8.532   0.887 -0.0479  2.6365  0.5832
  394MOL0     H51994   5.371   6.945   0.586 -0.8032 -1.1859  3.4115
  394MOL0     H51995   5.468   6.744   0.707  0.8905  1.3759  0.1873
  394MOL0     H51996   5.296   6.337   0.941 -1.2876 -3.5799  0.7171
  394MOL0     H51997   5.391   6.170   1.064 -0.2920 -0.7850 -1.4112
  394MOL0     H51998   5.688   5.899   0.859  3.1369  0.7665  1.6966
  394MOL0     H51999   5.533   5.859   0.924 -0.5562 -0.3462  0.6618
  394MOL0     H52000   5.796   5.838   1.084 -0.8399  2.0655 -0.3855
  394MOL0     H52001   5.647   5.786   1.150  1.9683  0.8840  0.6853
  394MOL0     H52002   5.766   5.645   0.917  0.0973  1.4297  0.2768
  394MOL0     H52003   5.609   5.617   0.981  0.8568 -1.0580 -0.4182
  394MOL0     H52004   5.861   5.585   1.160  2.0406  0.3456 -3.1534
  394MOL0     H52005   5.694   5.543   1.201  1.5241 -1.2539  0.7388
  394MOL0     H52006   5.848   5.223   0.968  2.5238  1.3994 -3.2477
  394MOL0     H52007   5.704   6.110   0.773  0.9501  1.0095 -0.7509
  394MOL0     H52008   5.617   6.287   0.649 -1.7019  1.7800 -0.7790
  395MOL0     O52009   2.354   7.063   3.871  0.3315 -0.6231 -0.1683
  395MOL0     C52010   2.426   6.994   3.798 -0.3996 -0.0174  1.2186
  395MOL0     O52011   2.388   6.880   3.735  0.0023  0.3266  0.2135
  395MOL0     C52012   2.265   6.824   3.766 -0.0046  0.8042 -0.5513
  395MOL0     C52013   2.181   6.790   3.660  0.0134 -0.1916 -0.3560
  395MOL0     C52014   2.058   6.733   3.690  0.4436 -0.2673  0.1292
  395MOL0     C52015   2.011   6.728   3.824 -1.1117 -0.3707  0.3697
  395MOL0     O52016   1.885   6.688   3.836  0.1439 -0.0143  1.1269
  395MOL0     C52017   1.813   6.687   3.951  0.4145 -0.9336  0.3611
  395MOL0     C52018   1.675   6.658   3.910 -0.6785  0.1111 -0.0383
  395MOL0     C52019   1.650   6.534   3.824  1.0076  0.3304 -0.5194
  395MOL0     C52020   1.709   6.398   3.879  0.0433  0.1107  0.6390
  395MOL0     C52021   1.734   6.315   3.754  0.0822 -0.2437  0.0816
  395MOL0     C52022   1.606   6.280   3.682  0.0389  0.2961 -0.1108
  395MOL0     C52023   1.648   6.177   3.578 -0.0155 -0.1515  0.3063
  395MOL0     C52024   1.540   6.134   3.469  0.8526 -0.6950  0.3651
  395MOL0     N52025   1.407   6.119   3.517 -0.1231 -0.0208 -0.2274
  395MOL0     C52026   1.367   6.029   3.612 -0.1412  0.5847  0.0909
  395MOL0     C52027   1.236   6.032   3.616 -0.4365 -0.2134 -0.1793
  395MOL0     C52028   1.158   5.952   3.719 -1.1908  0.4205 -0.6617
  395MOL0     C52029   1.177   5.801   3.688  0.2608  0.0544  0.2386
  395MOL0     C52030   1.134   5.725   3.815  0.7555 -0.7194 -0.1977
  395MOL0     C52031   1.154   5.578   3.799 -0.2709  0.1864  0.1843
  395MOL0     O52032   1.042   5.525   3.736  0.4857 -0.6072  0.2651
  395MOL0     C52033   0.937   5.469   3.807  0.1425  0.7319  0.6522
  395MOL0     C52034   0.815   5.465   3.734 -0.2210 -0.4920  0.6701
  395MOL0     C52035   0.696   5.426   3.802 -0.0588  0.6130  0.4878
  395MOL0     C52036   0.701   5.382   3.936  0.5463  0.0285 -0.2528
  395MOL0     C52037   0.589   5.320   4.010  0.0276  0.0979 -0.4471
  395MOL0     O52038   0.466   5.335   3.954 -0.0788  0.5760 -0.6175
  395MOL0     C52039   0.349   5.323   4.018  0.4870  0.2954  0.1972
  395MOL0     C52040   0.320   5.320   4.155 -0.4837 -0.5056 -0.1425
  395MOL0     C52041   0.195   5.279   4.206  0.2399 -0.2515 -0.3539
  395MOL0     C52042   0.100   5.237   4.118 -0.0502  0.2545  0.4483
  395MOL0     O52043  -0.018   5.192   4.177 -0.0170 -0.1059 -0.0918
  395MOL0     C52044  -0.134   5.156   4.111 -0.9537 -0.7533  0.1847
  395MOL0     C52045  -0.254   5.183   4.201  0.7750  0.3463 -0.1628
  395MOL0     C52046  -0.375   5.120   4.134  0.0732 -0.5061  0.1399
  395MOL0     C52047  -0.495   5.096   4.229 -0.4315 -0.7335  0.2448
  395MOL0     C52048  -0.622   5.055   4.143  0.1871  0.3141  0.1414
  395MOL0     C52049  -0.748   5.086   4.220 -0.5100 -0.2878 -0.3881
  395MOL0     C52050  -0.876   5.050   4.149  0.2112 -0.0019  0.3483
  395MOL0     C52051  -0.989   5.083   4.248  0.0081  0.1596 -0.6060
  395MOL0    Cl52052  -0.997   5.252   4.289 -0.4442  0.3389  0.3020
  395MOL0     C52053   0.121   5.236   3.985 -0.2197 -0.4927  0.0180
  395MOL0     C52054   0.246   5.275   3.936 -0.0059 -0.8660 -0.3251
  395MOL0     O52055   0.607   5.265   4.119 -0.3655 -1.1143 -0.8782
  395MOL0     C52056   0.826   5.387   4.011  0.4249  0.4986  0.1217
  395MOL0     C52057   0.938   5.426   3.942  0.1553  0.1566  0.3397
  395MOL0     N52058   1.193   6.133   3.526 -0.6177  0.8087 -0.3145
  395MOL0     N52059   1.298   6.177   3.461  0.2425 -0.6170 -0.4470
  395MOL0     C52060   2.103   6.748   3.927 -0.6586 -0.1943 -1.0382
  395MOL0     C52061   2.229   6.797   3.897  0.0785  0.0935  0.8102
  395MOL0     C52062   2.570   7.040   3.795  0.8305 -0.3699 -0.1570
  395MOL0     C52063   2.600   7.172   3.807 -0.3008  0.8331 -1.4902
  395MOL0     C52064   2.742   7.206   3.802  0.0507 -0.4666  0.1730
  395MOL0     C52065   2.848   7.118   3.778  0.2143  0.0966  0.1417
  395MOL0     O52066   2.978   7.158   3.784  0.2024 -0.2349 -0.6260
  395MOL0     C52067   3.089   7.080   3.727 -0.8634  0.7888 -0.5318
  395MOL0     C52068   3.221   7.155   3.730  0.2840 -0.0137  0.0514
  395MOL0     C52069   3.223   7.288   3.651  0.3238  0.2199 -0.0461
  395MOL0     C52070   3.310   7.401   3.713 -0.3760 -0.0178 -0.1008
  395MOL0     C52071   3.450   7.370   3.721 -0.5795  0.4207 -0.8285
  395MOL0     C52072   3.572   7.353   3.716  0.5074 -0.8432 -0.0389
  395MOL0     C52073   2.803   6.986   3.764  0.1093 -0.0084 -0.4805
  395MOL0     C52074   2.669   6.945   3.781 -0.3110 -0.1651 -0.2006
  395MOL0     H52075   2.218   6.795   3.558  2.7542 -2.4440  0.4271
  395MOL0     H52076   1.998   6.696   3.607  0.1794 -2.5126  1.2366
  395MOL0     H52077   1.828   6.780   4.006 -1.1697  1.4932 -2.9516
  395MOL0     H52078   1.853   6.608   4.016  0.0347  0.0974  1.9000
  395MOL0     H52079   1.637   6.742   3.851 -2.5335 -1.8182 -1.7442
  395MOL0     H52080   1.609   6.636   3.995  0.1103  1.8152  1.0723
  395MOL0     H52081   1.685   6.555   3.723 -2.5004  0.9252 -1.7599
  395MOL0     H52082   1.542   6.519   3.814  1.1250 -0.2572 -0.9033
  395MOL0     H52083   1.799   6.419   3.937  1.4511 -0.0874 -1.3697
  395MOL0     H52084   1.637   6.345   3.941 -2.3255  1.3935 -0.8613
  395MOL0     H52085   1.784   6.223   3.785  0.9895  0.5359  1.0076
  395MOL0     H52086   1.803   6.380   3.699 -0.9992  2.5565  1.8421
  395MOL0     H52087   1.568   6.366   3.627 -0.0569 -0.6648 -1.6117
  395MOL0     H52088   1.525   6.240   3.743 -1.6470  0.8679 -1.8782
  395MOL0     H52089   1.728   6.228   3.523  1.2021 -1.1370  1.1086
  395MOL0     H52090   1.682   6.088   3.632 -0.5315 -0.6308 -0.1451
  395MOL0     H52091   1.577   6.039   3.430  0.9862 -0.5265  0.0807
  395MOL0     H52092   1.535   6.211   3.391 -4.5129  0.8479  1.7921
  395MOL0     H52093   1.438   5.978   3.676 -0.9151 -1.4725 -0.6080
  395MOL0     H52094   1.050   5.969   3.723 -1.3340 -0.4732 -0.3336
  395MOL0     H52095   1.198   5.974   3.819  4.1608  0.3142 -2.4569
  395MOL0     H52096   1.280   5.770   3.671  0.5216  1.7791 -1.7753
  395MOL0     H52097   1.117   5.779   3.599 -0.3197  1.9404  0.0985
  395MOL0     H52098   1.194   5.759   3.900  0.5579  3.0129 -1.3982
  395MOL0     H52099   1.032   5.744   3.848  0.9835  0.3959 -0.0971
  395MOL0     H52100   1.178   5.531   3.895 -1.0352 -0.2566  0.1685
  395MOL0     H52101   1.242   5.555   3.738 -0.5100  0.8026 -0.4126
  395MOL0     H52102   0.804   5.500   3.632  2.2242  0.9904  0.8215
  395MOL0     H52103   0.600   5.414   3.752 -0.7230 -1.2702  2.0819
  395MOL0     H52104   0.399   5.352   4.222  2.5272 -2.5947 -2.4344
  395MOL0     H52105   0.181   5.273   4.314  0.3053 -1.2417 -0.3865
  395MOL0     H52106  -0.114   5.049   4.095  2.7114 -0.5939  2.4124
  395MOL0     H52107  -0.136   5.211   4.017 -0.1379  1.0854  1.2061
  395MOL0     H52108  -0.276   5.288   4.221 -0.6676  0.2484 -1.0771
  395MOL0     H52109  -0.233   5.129   4.293  0.1283  0.3983  0.0136
  395MOL0     H52110  -0.354   5.028   4.079  2.0364 -0.6046  0.9778
  395MOL0     H52111  -0.403   5.191   4.056 -0.5880 -0.4442  0.4310
  395MOL0     H52112  -0.481   5.026   4.311 -0.7689 -1.2220 -0.1078
  395MOL0     H52113  -0.513   5.196   4.270  0.9574 -1.0073  1.5823
  395MOL0     H52114  -0.619   4.949   4.117  1.0500  0.6985 -1.4637
  395MOL0     H52115  -0.624   5.112   4.049  0.3963 -1.0843 -0.7412
  395MOL0     H52116  -0.736   5.193   4.240  2.4346 -1.1727  3.7006
  395MOL0     H52117  -0.743   5.040   4.318 -0.0620 -2.8845 -1.5537
  395MOL0     H52118  -0.892   5.119   4.066 -0.5181 -0.7479 -0.1454
  395MOL0     H52119  -0.878   4.946   4.115 -1.4562 -0.3088  1.2667
  395MOL0     H52120  -0.980   5.019   4.337 -0.8817 -0.7082 -1.1168
  395MOL0     H52121  -1.085   5.059   4.201 -1.0865  0.9104  1.1449
  395MOL0     H52122   0.047   5.199   3.915  0.5172 -0.8737 -0.5746
  395MOL0     H52123   0.263   5.275   3.829  0.5394  0.2500 -0.2580
  395MOL0     H52124   0.835   5.347   4.112 -2.8553 -2.4659 -0.5770
  395MOL0     H52125   1.033   5.428   3.994  1.0907  2.0127 -1.3205
  395MOL0     H52126   2.088   6.738   4.034  0.7913 -2.1547 -0.9583
  395MOL0     H52127   2.302   6.819   3.975 -0.7271  5.1660  0.5122
  395MOL0     H52128   2.519   7.242   3.820  0.0610  1.1301 -0.7693
  395MOL0     H52129   2.757   7.313   3.800  0.8703 -0.5805 -0.3878
  395MOL0     H52130   3.073   7.069   3.620 -0.4537  0.0702 -0.5235
  395MOL0     H52131   3.091   6.983   3.778 -0.8903  0.8282 -0.4535
  395MOL0     H52132   3.234   7.163   3.839 -1.1530 -0.2106  0.2493
  395MOL0     H52133   3.313   7.101   3.702  1.2994 -0.3109  3.4936
  395MOL0     H52134   3.123   7.332   3.663 -0.3785 -1.1825 -0.4813
  395MOL0     H52135   3.244   7.271   3.545 -2.5538  0.5863 -0.7773
  395MOL0     H52136   3.295   7.489   3.650  0.7973  0.4705  0.2759
  395MOL0     H52137   3.266   7.427   3.810 -3.9761 -1.5410 -1.1399
  395MOL0     H52138   3.673   7.332   3.686  0.3149 -1.0396 -0.5587
  395MOL0     H52139   2.873   6.905   3.750 -0.0118 -0.6906  2.2801
  395MOL0     H52140   2.634   6.842   3.776 -2.2472  0.3811  1.0528
  396MOL0     O52141   4.549   4.113   9.793 -0.2098  0.0552 -1.1380
  396MOL0     C52142   4.601   4.221   9.823  0.0232 -0.8656  0.2143
  396MOL0     O52143   4.533   4.336   9.845 -0.5356 -0.0223 -0.5997
  396MOL0     C52144   4.398   4.325   9.863  0.1282  0.1232  0.0552
  396MOL0     C52145   4.331   4.271   9.982  0.4139 -0.5911 -0.6256
  396MOL0     C52146   4.193   4.262   9.994 -0.2665 -0.0478 -0.2617
  396MOL0     C52147   4.121   4.284   9.875 -0.6280 -0.3790 -0.3821
  396MOL0     O52148   3.987   4.274   9.876  0.3550 -0.7352  0.0038
  396MOL0     C52149   3.908   4.295   9.995 -0.0759  0.2410 -0.5135
  396MOL0     C52150   3.764   4.316   9.968  0.5239 -0.1149 -0.7496
  396MOL0     C52151   3.681   4.188   9.983 -0.4101 -0.0539 -0.5662
  396MOL0     C52152   3.556   4.197   9.898  0.1004 -0.6476 -0.5480
  396MOL0     C52153   3.456   4.085   9.942 -0.0773  0.0661 -0.1468
  396MOL0     C52154   3.323   4.071   9.866  1.2668 -0.4266  0.4838
  396MOL0     C52155   3.213   4.155   9.943 -0.0219 -0.5739 -0.1417
  396MOL0     C52156   3.160   4.083  10.079 -0.8600 -0.2311 -0.4737
  396MOL0     N52157   3.021   4.088  10.109  0.1280  0.1412 -0.1211
  396MOL0     C52158   2.919   4.060  10.021 -0.3141  0.1667  0.6262
  396MOL0     C52159   2.807   4.107  10.077 -0.5726  0.2312  0.7464
  396MOL0     C52160   2.682   4.100  10.000  0.3630  0.0259  0.3253
  396MOL0     C52161   2.589   3.994  10.073 -0.4311 -0.0814 -0.3333
  396MOL0     C52162   2.509   4.037  10.196 -0.6277  1.6644 -0.0467
  396MOL0     C52163   2.392   4.123  10.173  0.3766 -0.1365 -0.4658
  396MOL0     O52164   2.313   4.132  10.286 -0.5532 -0.6777 -0.3348
  396MOL0     C52165   2.201   4.213  10.286  0.2117 -0.6313  0.1760
  396MOL0     C52166   2.176   4.312  10.188 -0.4810  0.1283 -0.1358
  396MOL0     C52167   2.064   4.397  10.190  1.0284  0.5762  0.4962
  396MOL0     C52168   1.961   4.377  10.290 -0.0342 -0.6030 -0.0988
  396MOL0     C52169   1.833   4.453  10.280 -0.4489 -0.0921  0.3132
  396MOL0     O52170   1.809   4.527  10.168 -0.0416 -0.5009  0.5198
  396MOL0     C52171   1.685   4.575  10.146  0.3975 -0.5126 -1.1308
  396MOL0     C52172   1.586   4.478  10.121  0.0184  0.0914  1.0225
  396MOL0     C52173   1.468   4.520  10.062 -0.4512  0.1069  0.3173
  396MOL0     C52174   1.448   4.663  10.033 -0.6270  0.4528 -0.8231
  396MOL0     O52175   1.335   4.720   9.973  0.1248  0.0761 -0.0635
  396MOL0     C52176   1.213   4.643   9.959 -0.0386 -0.0433  0.7764
  396MOL0     C52177   1.200   4.576   9.815 -0.5226 -0.2605  0.5525
  396MOL0     C52178   1.224   4.649   9.687  0.0444 -0.2314 -0.3433
  396MOL0     C52179   1.141   4.776   9.676  0.3382 -0.1522  0.0180
  396MOL0     C52180   1.168   4.844   9.536 -0.0509  0.1564  0.1671
  396MOL0     C52181   1.077   4.972   9.528 -0.1679 -0.1062 -0.6512
  396MOL0     C52182   1.096   5.030   9.393  0.0442  0.5032 -0.4162
  396MOL0     C52183   1.171   5.166   9.401  0.9836  0.1409  0.1714
  396MOL0    Cl52184   1.338   5.135   9.434 -0.0380 -0.3901  0.1620
  396MOL0     C52185   1.547   4.754  10.065  0.0128 -0.3648 -0.7850
  396MOL0     C52186   1.667   4.711  10.120 -0.9642  0.8802  0.4802
  396MOL0     O52187   1.752   4.436  10.372 -0.8505 -0.4509  0.8851
  396MOL0     C52188   1.991   4.288  10.389  0.4114 -0.1982 -1.0877
  396MOL0     C52189   2.108   4.209  10.392  0.1585  0.1366  0.2095
  396MOL0     N52190   2.828   4.150  10.205 -0.6491  0.2075 -0.0797
  396MOL0     N52191   2.959   4.136  10.225  0.9474  0.2562  0.1879
  396MOL0     C52192   4.185   4.340   9.759 -0.1270  1.1028 -0.0541
  396MOL0     C52193   4.317   4.372   9.765  0.7190 -0.2631  1.2749
  396MOL0     C52194   4.748   4.218   9.827 -0.4986  0.9639  0.5754
  396MOL0     C52195   4.821   4.342   9.832  0.3677  0.1961  0.2073
  396MOL0     C52196   4.957   4.345   9.834 -0.4996  0.1001  0.2032
  396MOL0     C52197   5.028   4.219   9.821 -0.2666 -0.4897  0.2447
  396MOL0     O52198   5.158   4.212   9.796  0.1235  0.6090 -0.1314
  396MOL0     C52199   5.245   4.223   9.908  0.2138  0.5731 -0.4932
  396MOL0     C52200   5.377   4.282   9.863 -0.5342  0.6524  0.6274
  396MOL0     C52201   5.455   4.210   9.745 -0.2726  0.6661  1.2551
  396MOL0     C52202   5.553   4.304   9.658  0.4233  0.0311 -0.9983
  396MOL0     C52203   5.652   4.374   9.743  0.0616  0.3757  0.4716
  396MOL0     C52204   5.731   4.440   9.796 -0.0422 -0.1081  0.1369
  396MOL0     C52205   4.960   4.101   9.813  0.3567  0.0404 -0.2251
  396MOL0     C52206   4.818   4.098   9.826  0.0347 -0.1373 -0.7939
  396MOL0     H52207   4.382   4.249  10.075  1.5242  1.7831 -0.5939
  396MOL0     H52208   4.149   4.222  10.084 -0.8173  1.2493  0.0652
  396MOL0     H52209   3.941   4.385  10.048 -2.7321  0.9798  0.0300
  396MOL0     H52210   3.912   4.208  10.062 -2.1129  0.4252 -0.0994
  396MOL0     H52211   3.752   4.357   9.868  1.4660 -2.0447 -1.7081
  396MOL0     H52212   3.730   4.386  10.045  0.4980 -1.8130  0.8673
  396MOL0     H52213   3.649   4.170  10.086 -2.2228 -1.0003 -1.2490
  396MOL0     H52214   3.738   4.104   9.943 -1.5620 -0.4064 -1.5282
  396MOL0     H52215   3.510   4.296   9.908 -0.3667 -1.0083  1.0462
  396MOL0     H52216   3.575   4.177   9.792  0.3014  0.1536 -0.6767
  396MOL0     H52217   3.437   4.107  10.047  1.8510 -1.0069  0.4714
  396MOL0     H52218   3.511   3.990   9.942 -1.1426 -0.5660  0.1669
  396MOL0     H52219   3.290   3.967   9.874  0.9840 -0.2392  2.2536
  396MOL0     H52220   3.333   4.104   9.762  1.8205 -1.9695  0.0214
  396MOL0     H52221   3.245   4.258   9.957  1.0519 -0.5500 -2.2570
  396MOL0     H52222   3.121   4.158   9.883 -0.6721 -1.1532  0.7947
  396MOL0     H52223   3.206   4.134  10.165 -1.4116  0.9041 -0.8307
  396MOL0     H52224   3.188   3.978  10.085  0.2539  0.1095  3.1174
  396MOL0     H52225   2.931   4.018   9.922  0.5285 -1.3053  1.3257
  396MOL0     H52226   2.689   4.084   9.892  1.8868  0.6327  0.3082
  396MOL0     H52227   2.633   4.198  10.007  0.1209 -0.1880  2.2734
  396MOL0     H52228   2.651   3.908  10.100 -1.1754 -1.2502 -2.1611
  396MOL0     H52229   2.521   3.949  10.000  2.8899 -1.8330 -2.6024
  396MOL0     H52230   2.476   3.943  10.241  1.6264 -0.5870 -2.7395
  396MOL0     H52231   2.583   4.082  10.262  1.5947 -2.9917  0.9967
  396MOL0     H52232   2.331   4.089  10.089 -0.4446  0.2030 -0.0098
  396MOL0     H52233   2.444   4.216  10.147  2.4232 -0.8129  0.9034
  396MOL0     H52234   2.255   4.326  10.115 -0.5713 -2.5773 -0.8541
  396MOL0     H52235   2.071   4.486  10.129  1.8465  0.1900  0.0043
  396MOL0     H52236   1.606   4.372  10.133  3.5015  0.6980  1.6505
  396MOL0     H52237   1.387   4.451  10.040 -0.0219 -0.0108 -1.0001
  396MOL0     H52238   1.129   4.711   9.975  0.9247  1.1458  0.9322
  396MOL0     H52239   1.205   4.569  10.039 -0.1437  0.5568  1.3293
  396MOL0     H52240   1.098   4.538   9.806 -0.6822  0.6184 -2.0676
  396MOL0     H52241   1.273   4.495   9.814  0.9955  1.0431  1.1570
  396MOL0     H52242   1.205   4.580   9.604  0.6453  1.1408 -1.6699
  396MOL0     H52243   1.328   4.680   9.688  0.2362 -0.6150  2.9238
  396MOL0     H52244   1.036   4.751   9.694  0.7274 -1.3943  0.6239
  396MOL0     H52245   1.171   4.849   9.751  2.6255  1.0401 -1.9186
  396MOL0     H52246   1.166   4.777   9.449  1.4298  2.0330 -1.4173
  396MOL0     H52247   1.274   4.870   9.537  0.6599 -2.0860 -2.8491
  396MOL0     H52248   1.113   5.035   9.611 -3.1369 -3.2898  3.4721
  396MOL0     H52249   0.971   4.951   9.546 -0.1035 -0.0020 -0.1327
  396MOL0     H52250   1.151   4.960   9.329  0.5729  2.3829 -2.1148
  396MOL0     H52251   0.994   5.043   9.358 -1.3489  0.1872  3.1090
  396MOL0     H52252   1.129   5.233   9.476 -2.4121 -0.2527 -1.2037
  396MOL0     H52253   1.167   5.218   9.305 -1.5525  2.9597  1.6123
  396MOL0     H52254   1.529   4.860  10.047  0.3353 -0.3773 -1.2213
  396MOL0     H52255   1.748   4.778  10.149 -0.1664 -0.2470  0.8887
  396MOL0     H52256   1.910   4.273  10.460  2.6055 -0.3228  1.5902
  396MOL0     H52257   2.129   4.136  10.469 -1.4486  0.1365  0.6655
  396MOL0     H52258   4.127   4.371   9.672  1.3557  0.2200 -1.4109
  396MOL0     H52259   4.357   4.427   9.680  1.8702 -2.2439  0.4708
  396MOL0     H52260   4.762   4.432   9.817  0.4294 -0.1054 -2.2526
  396MOL0     H52261   5.022   4.432   9.833 -2.3753  1.6240 -2.8478
  396MOL0     H52262   5.266   4.128   9.958  0.7674  2.9241  4.3542
  396MOL0     H52263   5.215   4.296   9.985  4.3030  2.3092 -0.2884
  396MOL0     H52264   5.366   4.383   9.823  1.9719  0.5182 -0.5978
  396MOL0     H52265   5.453   4.297   9.941 -0.2935  1.2812  0.2792
  396MOL0     H52266   5.390   4.167   9.668  0.7912 -0.5742  1.0024
  396MOL0     H52267   5.527   4.134   9.778  1.9495  0.9479 -2.2946
  396MOL0     H52268   5.603   4.243   9.582  2.2680 -0.1493  0.3053
  396MOL0     H52269   5.479   4.369   9.611  1.7807  1.4368 -1.2978
  396MOL0     H52270   5.801   4.508   9.839  2.0281 -0.3723 -2.5446
  396MOL0     H52271   5.024   4.014   9.805  1.2056  0.6443 -0.1186
  396MOL0     H52272   4.757   4.008   9.828 -1.7537  0.9828 -1.7066
  397MOL0     O52273   1.100   9.084   1.945  0.1983  0.0653 -0.4242
  397MOL0     C52274   1.143   9.077   2.062 -0.2653 -0.1961 -0.4149
  397MOL0     O52275   1.072   9.080   2.172  0.0079  0.3468 -0.6533
  397MOL0     C52276   0.933   9.090   2.176  0.6265 -0.0984  0.3325
  397MOL0     C52277   0.844   9.070   2.065 -0.9285 -0.2005  0.0161
  397MOL0     C52278   0.711   9.076   2.083 -0.5728 -0.4193  0.7951
  397MOL0     C52279   0.664   9.099   2.204  0.4383  0.6343 -0.8497
  397MOL0     O52280   0.530   9.108   2.207  0.0388 -0.0211 -0.1328
  397MOL0     C52281   0.466   9.170   2.315 -0.1061 -0.9081 -0.1012
  397MOL0     C52282   0.319   9.214   2.296 -0.2262 -0.0794 -0.8153
  397MOL0     C52283   0.215   9.100   2.339 -0.1618 -0.2317  0.1544
  397MOL0     C52284   0.182   8.999   2.229  0.6817  0.2121  0.0100
  397MOL0     C52285   0.089   9.053   2.121  0.2489  0.3083  0.4054
  397MOL0     C52286  -0.058   9.096   2.144  0.1324  0.6459  0.3320
  397MOL0     C52287  -0.131   9.164   2.027 -0.2512 -0.1974 -0.6433
  397MOL0     C52288  -0.274   9.219   2.073  0.4570  0.3878  0.3970
  397MOL0     N52289  -0.389   9.129   2.072  0.8375 -0.0844  0.5696
  397MOL0     C52290  -0.406   9.010   2.147  0.7771 -0.0890 -0.0899
  397MOL0     C52291  -0.536   8.980   2.127  0.3350 -0.9927  0.6543
  397MOL0     C52292  -0.606   8.863   2.200  0.5162  0.0409  0.4244
  397MOL0     C52293  -0.747   8.856   2.148  0.6144 -0.0729 -0.0713
  397MOL0     C52294  -0.840   8.966   2.206  0.0185 -0.0412 -0.6271
  397MOL0     C52295  -0.986   8.935   2.173  0.0543  0.3167  0.0474
  397MOL0     O52296  -1.064   9.048   2.184 -0.0095 -0.0048 -0.4465
  397MOL0     C52297  -1.194   9.013   2.204 -0.1653  0.5987  0.8338
  397MOL0     C52298  -1.267   8.894   2.162 -0.3075 -0.0212  0.4222
  397MOL0     C52299  -1.404   8.875   2.191 -0.2996  0.3215  0.1951
  397MOL0     C52300  -1.479   8.977   2.254  0.4465  0.6412 -0.7236
  397MOL0     C52301  -1.625   8.975   2.276  0.2384 -0.5296  0.1415
  397MOL0     O52302  -1.683   9.070   2.359  0.4024  0.0023 -0.0603
  397MOL0     C52303  -1.812   9.047   2.406  0.2153  0.2982 -0.0067
  397MOL0     C52304  -1.919   9.114   2.347  0.6159  0.0241  0.4279
  397MOL0     C52305  -2.044   9.093   2.403  0.3486  0.8707  0.2885
  397MOL0     C52306  -2.066   9.005   2.509  0.5373  0.0370  0.1732
  397MOL0     O52307  -2.190   8.961   2.550  0.3993 -0.1424 -0.4838
  397MOL0     C52308  -2.303   9.005   2.477  0.3986  0.1968 -0.0566
  397MOL0     C52309  -2.423   8.948   2.548 -0.5485  0.6419  0.2944
  397MOL0     C52310  -2.550   8.990   2.475  0.7242  0.1050  0.4228
  397MOL0     C52311  -2.672   8.961   2.565  0.6977 -0.4415  0.4696
  397MOL0     C52312  -2.802   8.938   2.482  0.5219 -0.2468  0.0489
  397MOL0     C52313  -2.936   8.945   2.566  0.9997  0.1181 -1.0148
  397MOL0     C52314  -3.075   8.940   2.497 -0.8942 -0.2050  0.0781
  397MOL0     C52315  -3.105   8.802   2.430 -0.7814  0.5769  0.3223
  397MOL0    Cl52316  -3.266   8.792   2.351 -0.4081 -0.1291 -0.0821
  397MOL0     C52317  -1.961   8.945   2.574 -0.9112  0.0199  0.1373
  397MOL0     C52318  -1.836   8.961   2.512  0.4651  0.1741  0.5179
  397MOL0     O52319  -1.687   8.882   2.221  0.2814 -0.3591  0.2264
  397MOL0     C52320  -1.404   9.084   2.310  0.2784  0.0649 -0.8801
  397MOL0     C52321  -1.264   9.104   2.283  0.7204  0.4285  1.1823
  397MOL0     N52322  -0.587   9.065   2.028 -0.2446  0.2059  0.6843
  397MOL0     N52323  -0.492   9.146   1.981 -0.6019 -0.8854 -0.2229
  397MOL0     C52324   0.742   9.126   2.317 -0.2157 -0.1053 -0.0760
  397MOL0     C52325   0.879   9.127   2.302 -0.2194 -1.0004 -0.7541
  397MOL0     C52326   1.291   9.070   2.080  0.1562 -0.0626  0.6711
  397MOL0     C52327   1.343   9.026   2.200 -0.5464  0.5506  0.0392
  397MOL0     C52328   1.483   9.009   2.212  0.4746 -0.2541  0.7997
  397MOL0     C52329   1.571   9.019   2.106  1.2010 -0.8917  0.2854
  397MOL0     O52330   1.702   8.983   2.104 -0.0376 -0.2636 -0.1093
  397MOL0     C52331   1.735   8.846   2.102 -0.2594 -0.0322  0.2243
  397MOL0     C52332   1.660   8.741   2.016  0.4108 -0.1770 -0.1788
  397MOL0     C52333   1.638   8.774   1.865  0.6992  0.9648 -0.1028
  397MOL0     C52334   1.770   8.811   1.802  0.6852  0.1914  0.1381
  397MOL0     C52335   1.773   8.773   1.661  0.1949  0.3860  0.6989
  397MOL0     C52336   1.766   8.736   1.545  0.2552 -0.2525  0.8666
  397MOL0     C52337   1.522   9.077   1.987  0.4122  0.0330 -0.2604
  397MOL0     C52338   1.378   9.097   1.969 -0.2482  0.2317 -0.2082
  397MOL0     H52339   0.885   9.037   1.970 -1.0645 -2.5652  0.7316
  397MOL0     H52340   0.652   9.082   1.992 -1.1565 -1.5114  1.0823
  397MOL0     H52341   0.525   9.262   2.319 -1.4556  0.2409 -3.3817
  397MOL0     H52342   0.478   9.113   2.407  1.2734  2.3376  1.9068
  397MOL0     H52343   0.308   9.229   2.188 -1.5154  0.0212 -0.6916
  397MOL0     H52344   0.296   9.303   2.355 -1.1970 -2.2083  2.2872
  397MOL0     H52345   0.124   9.146   2.378 -0.0113 -0.5492  0.9098
  397MOL0     H52346   0.257   9.056   2.430  1.7392  0.1991 -0.4657
  397MOL0     H52347   0.272   8.962   2.179  1.0273 -1.0367  1.4583
  397MOL0     H52348   0.141   8.908   2.275  1.3572 -1.2282 -2.1004
  397MOL0     H52349   0.085   8.986   2.034  0.5525  0.0123  0.6223
  397MOL0     H52350   0.150   9.133   2.077  0.6236 -0.9590 -1.4924
  397MOL0     H52351  -0.052   9.167   2.227 -4.8794  2.5458 -0.5273
  397MOL0     H52352  -0.111   9.003   2.169  1.0782 -0.9076 -2.9102
  397MOL0     H52353  -0.066   9.241   1.986 -1.2141  0.6407 -0.6253
  397MOL0     H52354  -0.134   9.090   1.946  1.7194 -1.0235 -0.0111
  397MOL0     H52355  -0.304   9.300   2.005 -0.2172 -1.7333 -1.9738
  397MOL0     H52356  -0.259   9.253   2.176  3.0256 -2.5119  1.1438
  397MOL0     H52357  -0.340   8.964   2.221 -0.9709 -1.8373  0.4774
  397MOL0     H52358  -0.606   8.876   2.309  1.3220 -0.2540  0.4684
  397MOL0     H52359  -0.559   8.770   2.168  0.3206  0.5412 -1.4466
  397MOL0     H52360  -0.773   8.756   2.183 -0.4415  0.7884  1.7422
  397MOL0     H52361  -0.754   8.846   2.039  0.1414  0.6040 -0.1107
  397MOL0     H52362  -0.827   8.982   2.313 -0.5894 -3.5385  0.0911
  397MOL0     H52363  -0.814   9.061   2.157  1.0311 -0.1586 -0.3442
  397MOL0     H52364  -1.022   8.860   2.244 -0.2891  1.2067  0.8387
  397MOL0     H52365  -0.993   8.886   2.075  0.5909 -2.1481  1.1703
  397MOL0     H52366  -1.215   8.827   2.094 -0.1816  1.5095 -1.0484
  397MOL0     H52367  -1.447   8.786   2.146  1.3783  0.3812 -1.6738
  397MOL0     H52368  -1.910   9.177   2.259  1.7679 -1.4496 -0.5597
  397MOL0     H52369  -2.133   9.130   2.353 -0.6159 -0.8522  0.6778
  397MOL0     H52370  -2.283   8.973   2.374  2.6514 -0.3323  0.4790
  397MOL0     H52371  -2.315   9.114   2.480  2.8295  0.5631 -1.2362
  397MOL0     H52372  -2.426   8.980   2.653 -0.1440 -1.0167  0.8297
  397MOL0     H52373  -2.415   8.840   2.561  1.6159  0.8751  1.2580
  397MOL0     H52374  -2.563   8.920   2.391 -2.6628  0.9156  0.1426
  397MOL0     H52375  -2.554   9.097   2.456 -2.2764  0.6239  3.0430
  397MOL0     H52376  -2.659   8.875   2.632 -3.2914 -1.0655  0.7464
  397MOL0     H52377  -2.689   9.049   2.627 -0.7211  0.3497 -0.9704
  397MOL0     H52378  -2.800   8.842   2.431 -1.1237 -0.8540  1.0677
  397MOL0     H52379  -2.810   9.024   2.415  1.5812  0.6342  1.0107
  397MOL0     H52380  -2.934   9.035   2.629  1.8166 -1.8847  2.0122
  397MOL0     H52381  -2.933   8.872   2.647 -0.6206  0.6063 -0.4768
  397MOL0     H52382  -3.160   8.964   2.560 -3.0085  1.4052 -3.1332
  397MOL0     H52383  -3.080   9.014   2.417 -1.5676 -1.2565 -0.8936
  397MOL0     H52384  -3.090   8.728   2.510  1.1435  2.1142  1.4650
  397MOL0     H52385  -3.022   8.782   2.361 -1.0158  0.0763  0.1747
  397MOL0     H52386  -1.972   8.884   2.662  1.7162 -0.2427  0.3600
  397MOL0     H52387  -1.748   8.909   2.550  0.1820 -0.8466 -0.1867
  397MOL0     H52388  -1.447   9.162   2.372 -0.7204 -1.8020  0.8732
  397MOL0     H52389  -1.204   9.187   2.318  0.9335  1.0313 -0.4929
  397MOL0     H52390   0.703   9.147   2.417  0.7847 -2.4971  0.9064
  397MOL0     H52391   0.944   9.149   2.386 -0.7068 -0.7530 -0.4422
  397MOL0     H52392   1.286   8.996   2.288  1.9182 -2.5962  0.7287
  397MOL0     H52393   1.525   8.982   2.308 -1.3125 -1.0433  1.3906
  397MOL0     H52394   1.732   8.814   2.206  1.9202 -2.0060 -0.2423
  397MOL0     H52395   1.842   8.832   2.083 -0.6221 -0.5217 -1.6376
  397MOL0     H52396   1.707   8.643   2.018  1.7553  0.4655  0.9307
  397MOL0     H52397   1.559   8.726   2.055 -0.5502 -1.9550 -2.9946
  397MOL0     H52398   1.574   8.862   1.857  0.7979  0.8911 -2.1341
  397MOL0     H52399   1.579   8.694   1.818 -2.8806  2.3261  1.6609
  397MOL0     H52400   1.781   8.920   1.798 -2.9675  0.6421 -2.4630
  397MOL0     H52401   1.858   8.764   1.848  0.2335 -1.8239 -0.9270
  397MOL0     H52402   1.768   8.700   1.444 -1.8652 -0.3301  0.8165
  397MOL0     H52403   1.585   9.078   1.899  2.1693  0.5076  0.9626
  397MOL0     H52404   1.346   9.131   1.872  0.2111 -1.6837 -1.0761
  398MOL0     O52405   0.572   3.183   4.006  0.0430 -0.3989  0.4412
  398MOL0     C52406   0.657   3.114   4.064  0.3413 -0.9897  0.8088
  398MOL0     O52407   0.625   3.013   4.150  0.5961  0.3374 -0.1043
  398MOL0     C52408   0.498   3.002   4.195  0.2340  0.0521  0.8523
  398MOL0     C52409   0.446   3.091   4.288 -0.3539 -0.2029 -0.5130
  398MOL0     C52410   0.310   3.075   4.334  0.4819 -0.3234  0.2932
  398MOL0     C52411   0.226   2.972   4.275 -0.8314  0.1055  0.5046
  398MOL0     O52412   0.098   2.961   4.320  0.1645 -0.2157  0.0801
  398MOL0     C52413   0.066   3.001   4.460 -1.0306 -0.5958  0.4092
  398MOL0     C52414  -0.072   2.947   4.482  0.9835  0.4247 -0.2933
  398MOL0     C52415  -0.124   2.983   4.623 -0.1966 -0.4608 -0.4376
  398MOL0     C52416  -0.275   2.966   4.629 -0.1615 -0.7999  0.3644
  398MOL0     C52417  -0.338   3.018   4.759 -0.6707  0.2389  0.3230
  398MOL0     C52418  -0.488   3.006   4.747 -0.2777  0.1858  0.7551
  398MOL0     C52419  -0.570   3.021   4.872 -0.4882 -0.2011  0.2808
  398MOL0     C52420  -0.531   2.935   4.994 -0.1925 -0.2106  0.1713
  398MOL0     N52421  -0.641   2.932   5.093 -0.2120 -0.2905 -0.1532
  398MOL0     C52422  -0.711   2.822   5.120 -0.4789  0.5871  0.5699
  398MOL0     C52423  -0.783   2.851   5.225  0.3359  0.2594  0.9115
  398MOL0     C52424  -0.874   2.766   5.300  0.6080 -0.2279  0.4455
  398MOL0     C52425  -0.987   2.720   5.225  0.1621 -0.1033 -0.5563
  398MOL0     C52426  -1.068   2.622   5.310 -0.0828  0.1592  0.5452
  398MOL0     C52427  -1.208   2.587   5.239 -0.5326  0.2457  0.0062
  398MOL0     O52428  -1.306   2.686   5.267 -0.1582  0.4503 -0.7647
  398MOL0     C52429  -1.433   2.671   5.212 -0.5588 -0.1814 -0.1941
  398MOL0     C52430  -1.482   2.547   5.169 -0.4110 -0.8325  0.0089
  398MOL0     C52431  -1.600   2.538   5.098 -0.5407  0.4517 -0.1862
  398MOL0     C52432  -1.690   2.651   5.096  0.2721 -0.5216 -0.3274
  398MOL0     C52433  -1.824   2.636   5.028  0.3611 -0.0312  1.5692
  398MOL0     O52434  -1.893   2.753   5.000 -0.1370 -0.1386  0.5324
  398MOL0     C52435  -2.007   2.769   4.921 -0.3705  0.5368 -0.5946
  398MOL0     C52436  -2.095   2.673   4.870 -1.2095  0.1292  0.4004
  398MOL0     C52437  -2.214   2.701   4.805 -0.1601 -0.1017  0.5727
  398MOL0     C52438  -2.250   2.836   4.781  0.2699 -0.0437 -1.1984
  398MOL0     O52439  -2.363   2.862   4.707 -0.3736  0.2047 -0.4483
  398MOL0     C52440  -2.389   2.994   4.662  0.1152 -0.7911  0.3084
  398MOL0     C52441  -2.470   2.991   4.531  0.4427  0.1275  0.0352
  398MOL0     C52442  -2.590   2.894   4.537  0.0879 -0.9204  0.9672
  398MOL0     C52443  -2.650   2.876   4.407  0.0878  0.2129  0.6048
  398MOL0     C52444  -2.742   2.754   4.404  0.2646  0.1625 -0.6523
  398MOL0     C52445  -2.864   2.739   4.495 -0.0677 -0.0240 -0.4645
  398MOL0     C52446  -2.956   2.865   4.503 -0.9892  0.9677  0.8086
  398MOL0     C52447  -3.099   2.826   4.553 -0.1921  0.2984 -0.5757
  398MOL0    Cl52448  -3.202   2.793   4.419  0.2743 -0.1845 -0.2653
  398MOL0     C52449  -2.167   2.938   4.835 -0.0367  1.0319  0.0120
  398MOL0     C52450  -2.049   2.898   4.900 -0.2383  0.7427 -0.6127
  398MOL0     O52451  -1.860   2.530   4.989 -0.0098  0.1972  0.0293
  398MOL0     C52452  -1.639   2.768   5.149 -0.0751  0.6656  0.1286
  398MOL0     C52453  -1.516   2.777   5.217  0.2106  1.0941  0.0478
  398MOL0     N52454  -0.759   2.981   5.262  0.1568 -0.3293  0.2448
  398MOL0     N52455  -0.675   3.035   5.176 -0.0668  0.0032 -0.6009
  398MOL0     C52456   0.288   2.890   4.173 -0.1586  0.0703  0.6267
  398MOL0     C52457   0.420   2.898   4.137  0.4168  0.2069 -0.1552
  398MOL0     C52458   0.792   3.122   4.001  0.0955 -0.2476  0.4546
  398MOL0     C52459   0.819   3.197   3.888 -0.9260 -0.2679 -0.0589
  398MOL0     C52460   0.951   3.215   3.841 -0.0321  0.7345  0.1494
  398MOL0     C52461   1.061   3.151   3.906 -0.1311  0.2721  0.5072
  398MOL0     O52462   1.198   3.168   3.878  0.2233  0.4254 -0.4153
  398MOL0     C52463   1.222   3.270   3.777 -0.0179 -0.6242  0.1624
  398MOL0     C52464   1.375   3.299   3.765 -0.5352  0.5544  0.5896
  398MOL0     C52465   1.465   3.192   3.699 -0.5997  0.1829  0.0214
  398MOL0     C52466   1.609   3.232   3.711 -0.0348 -0.3095 -0.0966
  398MOL0     C52467   1.665   3.247   3.851  0.0574 -0.2767  0.3567
  398MOL0     C52468   1.716   3.243   3.962 -0.4581 -0.1445 -0.8248
  398MOL0     C52469   1.027   3.063   4.010  1.2266  0.1693 -0.3238
  398MOL0     C52470   0.898   3.054   4.053 -0.0368 -0.1883 -0.5425
  398MOL0     H52471   0.508   3.162   4.343  0.3509 -2.6640  2.1275
  398MOL0     H52472   0.261   3.138   4.408 -1.5200 -1.3701 -0.0754
  398MOL0     H52473   0.074   3.109   4.473  3.1542 -0.7217  0.2597
  398MOL0     H52474   0.139   2.961   4.531 -0.3818  1.0095  0.6792
  398MOL0     H52475  -0.076   2.841   4.458  1.7327  0.1954  0.5604
  398MOL0     H52476  -0.131   3.000   4.406  0.4343  1.1744  0.6437
  398MOL0     H52477  -0.094   3.086   4.644  2.0784 -1.0593 -0.5611
  398MOL0     H52478  -0.078   2.913   4.692  0.2806  2.5916  2.6511
  398MOL0     H52479  -0.320   3.020   4.545 -0.7016 -2.0108 -0.1587
  398MOL0     H52480  -0.310   2.864   4.607 -0.8771 -0.5555  0.3206
  398MOL0     H52481  -0.304   3.121   4.769 -0.5369  0.4180 -1.4810
  398MOL0     H52482  -0.307   2.961   4.847  0.3805  1.7664  0.9881
  398MOL0     H52483  -0.509   2.907   4.706  3.2287  0.5422 -2.4718
  398MOL0     H52484  -0.522   3.070   4.665  1.5131  0.1404 -0.0707
  398MOL0     H52485  -0.557   3.127   4.895  1.5686 -0.3570  0.0469
  398MOL0     H52486  -0.677   3.025   4.848 -0.8814  0.9767  2.0062
  398MOL0     H52487  -0.448   2.992   5.038  1.6637 -1.7269 -1.1855
  398MOL0     H52488  -0.486   2.838   4.974 -2.3038 -1.4665  1.2533
  398MOL0     H52489  -0.703   2.723   5.075  2.2340  0.9471  0.0661
  398MOL0     H52490  -0.908   2.829   5.383  1.5250  1.4336 -0.3750
  398MOL0     H52491  -0.813   2.686   5.343  0.3183  1.4552  4.4157
  398MOL0     H52492  -0.947   2.668   5.138  2.1336  1.0868 -0.4368
  398MOL0     H52493  -1.053   2.802   5.197  0.0915  1.4373  3.4551
  398MOL0     H52494  -1.007   2.532   5.317 -0.4049 -0.5329 -3.3569
  398MOL0     H52495  -1.089   2.652   5.413  3.6659  0.2789  1.4072
  398MOL0     H52496  -1.230   2.488   5.280  1.4628  0.3980  1.6024
  398MOL0     H52497  -1.187   2.586   5.132 -0.7657  0.4129 -0.0434
  398MOL0     H52498  -1.419   2.461   5.148  0.6904 -0.2676  0.8836
  398MOL0     H52499  -1.605   2.439   5.053  1.7708  0.8012 -1.3412
  398MOL0     H52500  -2.068   2.570   4.892  1.8921  0.7280 -0.1844
  398MOL0     H52501  -2.267   2.618   4.759  0.5507  0.7432 -1.9189
  398MOL0     H52502  -2.297   3.052   4.643  0.7436 -1.6939  0.5403
  398MOL0     H52503  -2.446   3.055   4.732  0.4218 -0.0117 -0.1032
  398MOL0     H52504  -2.393   2.967   4.457 -1.2333  1.7834 -2.3940
  398MOL0     H52505  -2.511   3.091   4.512  1.1042  0.0352 -2.0602
  398MOL0     H52506  -2.661   2.933   4.611 -0.3419  0.1856  0.0083
  398MOL0     H52507  -2.558   2.795   4.571  0.1066 -0.4373  2.4001
  398MOL0     H52508  -2.721   2.953   4.375 -0.8466 -0.4321  1.0741
  398MOL0     H52509  -2.574   2.874   4.328  0.4934 -2.2318  0.9753
  398MOL0     H52510  -2.685   2.660   4.396 -1.1453 -0.9759  1.6927
  398MOL0     H52511  -2.797   2.754   4.309 -1.1304 -0.7022  0.1303
  398MOL0     H52512  -2.822   2.711   4.592 -0.2589 -1.6099 -0.8077
  398MOL0     H52513  -2.920   2.651   4.464  0.6992 -1.1610  1.2293
  398MOL0     H52514  -2.908   2.941   4.564  2.1475 -0.9662  0.9740
  398MOL0     H52515  -2.974   2.891   4.398 -0.4865  0.3069  0.5519
  398MOL0     H52516  -3.147   2.907   4.610 -4.7193 -0.7793 -2.4461
  398MOL0     H52517  -3.090   2.739   4.620 -0.6459  1.2392  0.7529
  398MOL0     H52518  -2.183   3.044   4.821  1.2201  1.3294  0.7282
  398MOL0     H52519  -2.000   2.984   4.946 -1.9006  0.6472  1.4949
  398MOL0     H52520  -1.707   2.853   5.149  0.7744  1.5080 -3.3226
  398MOL0     H52521  -1.500   2.867   5.276 -3.2161  2.0831 -0.3141
  398MOL0     H52522   0.230   2.814   4.121 -1.1754  1.5826 -0.5151
  398MOL0     H52523   0.458   2.843   4.052  1.0655  1.5542 -0.7839
  398MOL0     H52524   0.739   3.260   3.850  0.1258  1.0607 -0.1348
  398MOL0     H52525   0.964   3.280   3.755 -0.5048 -1.1190 -1.4008
  398MOL0     H52526   1.180   3.367   3.805  2.6319  1.2060 -1.7544
  398MOL0     H52527   1.174   3.263   3.679 -2.2259  0.0926  1.1121
  398MOL0     H52528   1.377   3.374   3.685  1.5350 -0.5295 -0.4448
  398MOL0     H52529   1.427   3.335   3.854  2.0673 -1.3766 -0.0428
  398MOL0     H52530   1.435   3.192   3.594 -1.5625  2.8658  0.2067
  398MOL0     H52531   1.446   3.094   3.744 -1.6118 -0.6822 -2.1068
  398MOL0     H52532   1.679   3.161   3.667  2.3125  0.5425  2.0418
  398MOL0     H52533   1.614   3.334   3.673 -1.1541 -0.0262  0.4624
  398MOL0     H52534   1.767   3.244   4.056 -0.1478  1.5814 -0.9704
  398MOL0     H52535   1.102   2.995   4.049  0.5546 -1.2049 -1.3506
  398MOL0     H52536   0.884   2.978   4.130  2.1207 -1.2168 -1.1004
  399MOL0     O52537   2.087   5.673   7.214  0.7327 -0.3158 -0.5979
  399MOL0     C52538   2.113   5.616   7.321 -0.3563  0.5267 -0.2910
  399MOL0     O52539   2.037   5.599   7.430  0.1923  0.6573  0.7031
  399MOL0     C52540   1.904   5.643   7.422 -0.2925 -0.2889 -0.5196
  399MOL0     C52541   1.877   5.778   7.449  0.4944  1.0021  0.0056
  399MOL0     C52542   1.748   5.821   7.418 -0.1843 -0.5930 -0.1781
  399MOL0     C52543   1.652   5.742   7.354 -0.3371 -0.2512 -0.3608
  399MOL0     O52544   1.528   5.801   7.340 -0.1586 -0.2057  0.6911
  399MOL0     C52545   1.422   5.729   7.274  0.3134 -0.6915  0.3477
  399MOL0     C52546   1.295   5.819   7.261 -0.1016 -0.4231 -0.3008
  399MOL0     C52547   1.178   5.744   7.197  0.4198 -0.2888  0.8336
  399MOL0     C52548   1.043   5.818   7.236 -1.2523  0.4249 -0.7237
  399MOL0     C52549   0.920   5.756   7.175 -0.1563 -0.6266 -0.0350
  399MOL0     C52550   0.807   5.853   7.211 -0.0081  0.3298 -0.4018
  399MOL0     C52551   0.675   5.816   7.133 -0.3637  0.4513 -1.2224
  399MOL0     C52552   0.617   5.673   7.160  0.2887  0.2639 -0.0057
  399MOL0     N52553   0.472   5.667   7.178  0.1339  0.3386  0.4665
  399MOL0     C52554   0.383   5.648   7.080  0.1124  0.2127 -0.8281
  399MOL0     C52555   0.263   5.671   7.145 -0.4879 -0.1308 -0.0911
  399MOL0     C52556   0.123   5.690   7.090 -0.1606 -0.2533 -0.3710
  399MOL0     C52557   0.018   5.586   7.125  0.1279 -0.4672 -0.0290
  399MOL0     C52558  -0.109   5.621   7.055  0.1277  0.1706 -0.1483
  399MOL0     C52559  -0.205   5.498   7.085 -0.1997  0.1850 -0.1614
  399MOL0     O52560  -0.338   5.548   7.050  0.6814 -0.1886 -0.0943
  399MOL0     C52561  -0.436   5.460   7.028  0.6971  0.1947  0.6518
  399MOL0     C52562  -0.549   5.501   6.956  0.2121  0.5375 -0.5433
  399MOL0     C52563  -0.654   5.420   6.943 -0.0288 -0.1881 -0.8158
  399MOL0     C52564  -0.652   5.280   6.973 -0.4023  0.3884 -0.6194
  399MOL0     C52565  -0.767   5.184   6.941 -0.2055  0.4560  0.1738
  399MOL0     O52566  -0.832   5.217   6.825  0.3335  0.0751  0.5133
  399MOL0     C52567  -0.959   5.175   6.812  0.8593 -0.2044  0.1700
  399MOL0     C52568  -1.059   5.212   6.902 -1.0097 -0.2103 -0.1559
  399MOL0     C52569  -1.190   5.188   6.868 -0.3941  0.0327  0.3910
  399MOL0     C52570  -1.220   5.130   6.736 -0.9027 -1.1303 -0.2046
  399MOL0     O52571  -1.344   5.118   6.692 -0.4082 -0.4849  0.2665
  399MOL0     C52572  -1.445   5.213   6.730 -0.1576 -0.5783 -0.8926
  399MOL0     C52573  -1.565   5.207   6.637 -0.0090 -0.8975 -0.2291
  399MOL0     C52574  -1.645   5.076   6.648 -0.0537  0.7778 -0.2027
  399MOL0     C52575  -1.770   5.072   6.556  0.1201  0.9865  0.8195
  399MOL0     C52576  -1.888   4.993   6.625  0.5317  0.3486 -0.4793
  399MOL0     C52577  -2.023   4.998   6.550 -0.2268  0.2751  0.5505
  399MOL0     C52578  -2.113   4.884   6.600  0.0309  0.4940 -0.2723
  399MOL0     C52579  -2.157   4.910   6.746  0.9101 -0.2501  0.3104
  399MOL0    Cl52580  -2.255   4.781   6.818  0.0216  0.2938  0.2430
  399MOL0     C52581  -1.118   5.082   6.651 -0.5941  0.7666 -0.8481
  399MOL0     C52582  -0.989   5.105   6.692  0.3086  0.4068 -0.0894
  399MOL0     O52583  -0.782   5.077   7.008 -0.4991  0.1132  0.1416
  399MOL0     C52584  -0.546   5.243   7.055 -0.7500  0.5930  0.2472
  399MOL0     C52585  -0.433   5.321   7.076 -0.0934 -0.2094 -0.2495
  399MOL0     N52586   0.291   5.677   7.283  0.5239  0.1538  0.2308
  399MOL0     N52587   0.419   5.684   7.301  0.2411 -0.3180  1.0051
  399MOL0     C52588   1.680   5.606   7.332  0.3894 -0.6178  0.2434
  399MOL0     C52589   1.806   5.553   7.371 -0.0361 -0.2119  0.9255
  399MOL0     C52590   2.245   5.544   7.332  0.5359 -0.1935 -0.2284
  399MOL0     C52591   2.268   5.451   7.431  1.3513  0.2337 -0.4842
  399MOL0     C52592   2.386   5.376   7.443  0.6644 -0.2433 -0.3042
  399MOL0     C52593   2.486   5.394   7.339  0.5686 -0.4377  0.2853
  399MOL0     O52594   2.603   5.328   7.336  0.9158  0.0419 -0.3210
  399MOL0     C52595   2.607   5.222   7.434  1.0494 -0.4720  0.6937
  399MOL0     C52596   2.745   5.149   7.421 -0.7000 -0.0118  0.0907
  399MOL0     C52597   2.753   5.035   7.522 -0.8353  0.6736 -0.7910
  399MOL0     C52598   2.894   4.974   7.545  0.0234  0.4188  0.0515
  399MOL0     C52599   2.946   4.929   7.413 -0.7813 -0.2495 -0.5020
  399MOL0     C52600   2.996   4.886   7.310  0.5414 -0.8544 -0.1430
  399MOL0     C52601   2.468   5.495   7.246 -0.2287 -0.0680 -0.1359
  399MOL0     C52602   2.350   5.565   7.234  0.0668  0.1628 -0.5254
  399MOL0     H52603   1.960   5.836   7.488  0.3990  0.2134  1.4671
  399MOL0     H52604   1.722   5.926   7.435 -0.7855 -0.6262 -0.8458
  399MOL0     H52605   1.394   5.638   7.328  0.4388 -0.0759  1.4720
  399MOL0     H52606   1.444   5.699   7.171 -2.1253 -0.6074 -0.2757
  399MOL0     H52607   1.322   5.892   7.184  0.7601 -1.7367 -1.2879
  399MOL0     H52608   1.275   5.865   7.358 -1.2816 -0.2109 -0.6255
  399MOL0     H52609   1.174   5.640   7.228 -1.6143 -1.4221 -2.6146
  399MOL0     H52610   1.194   5.753   7.089 -0.0360  0.2780  0.8042
  399MOL0     H52611   1.037   5.811   7.345  0.3947 -0.2003 -0.6427
  399MOL0     H52612   1.060   5.920   7.202  2.9428 -0.4980 -1.9843
  399MOL0     H52613   0.901   5.660   7.223  0.5635 -0.1062  1.3302
  399MOL0     H52614   0.926   5.743   7.066 -0.3926 -2.5796  0.1533
  399MOL0     H52615   0.834   5.952   7.172  0.2058 -0.2233 -1.7080
  399MOL0     H52616   0.795   5.858   7.320  0.8262  0.6566 -0.3187
  399MOL0     H52617   0.596   5.882   7.171 -0.1649 -0.9185  1.7859
  399MOL0     H52618   0.689   5.828   7.025 -1.5847 -2.5091 -1.8045
  399MOL0     H52619   0.662   5.632   7.252 -1.7741  1.8962  1.8562
  399MOL0     H52620   0.645   5.611   7.075  1.0431  1.0726 -0.3637
  399MOL0     H52621   0.407   5.635   6.975  1.0917  1.8705 -0.8550
  399MOL0     H52622   0.145   5.709   6.985  1.7406  3.0514  0.4784
  399MOL0     H52623   0.081   5.775   7.143 -1.1979 -1.3925  0.7105
  399MOL0     H52624   0.011   5.565   7.232  0.8474 -0.9467 -0.0643
  399MOL0     H52625   0.058   5.491   7.090  1.7383  0.2455 -0.2372
  399MOL0     H52626  -0.146   5.713   7.100 -0.9177 -0.8178  1.0978
  399MOL0     H52627  -0.096   5.646   6.949 -2.2736  1.7640 -0.1497
  399MOL0     H52628  -0.197   5.468   7.190  0.7542 -0.9156 -0.5241
  399MOL0     H52629  -0.170   5.413   7.025 -0.3413 -0.0298  0.0580
  399MOL0     H52630  -0.558   5.607   6.936 -0.7279  1.0734  2.3083
  399MOL0     H52631  -0.751   5.459   6.912  0.5163  0.9245 -1.1645
  399MOL0     H52632  -1.040   5.270   6.992  0.7459 -1.0584  0.0492
  399MOL0     H52633  -1.265   5.240   6.928  0.0568  1.2124 -0.0332
  399MOL0     H52634  -1.417   5.317   6.749  2.1023 -1.5886  2.1361
  399MOL0     H52635  -1.476   5.169   6.825 -2.7131 -0.0885 -1.4317
  399MOL0     H52636  -1.516   5.209   6.539 -1.5499 -2.3119 -1.0682
  399MOL0     H52637  -1.639   5.286   6.653 -1.3525 -2.5637  2.3159
  399MOL0     H52638  -1.682   5.050   6.748  0.6290 -0.0747 -0.1616
  399MOL0     H52639  -1.580   4.993   6.618  1.1770  2.1400 -1.4291
  399MOL0     H52640  -1.826   5.165   6.542 -2.8450 -0.9328 -1.3791
  399MOL0     H52641  -1.763   5.028   6.456  1.2146  0.9980  0.8711
  399MOL0     H52642  -1.899   5.047   6.719 -0.5968  2.4439 -1.7165
  399MOL0     H52643  -1.867   4.889   6.651 -1.4088  0.0714  0.1329
  399MOL0     H52644  -2.006   4.986   6.443 -0.0920 -1.1413  0.7042
  399MOL0     H52645  -2.070   5.096   6.557 -3.1432 -1.0110  0.6028
  399MOL0     H52646  -2.202   4.897   6.537 -0.8771  0.9985  1.0556
  399MOL0     H52647  -2.077   4.782   6.585 -3.1957 -0.9166  0.5025
  399MOL0     H52648  -2.215   5.002   6.748  0.9520 -0.2115 -0.2175
  399MOL0     H52649  -2.072   4.929   6.812 -0.2603  0.8175  1.5798
  399MOL0     H52650  -1.143   5.030   6.559  0.1578  0.6515 -0.9888
  399MOL0     H52651  -0.905   5.093   6.624 -1.2253 -2.2171 -1.7174
  399MOL0     H52652  -0.549   5.139   7.087  0.5162  0.8301  1.2151
  399MOL0     H52653  -0.360   5.275   7.141 -1.0034 -2.5827 -0.8212
  399MOL0     H52654   1.607   5.536   7.292  0.1513 -0.5585  0.5623
  399MOL0     H52655   1.847   5.458   7.337  0.5446 -0.4533  2.2182
  399MOL0     H52656   2.206   5.437   7.519 -1.7542  0.0338 -2.5588
  399MOL0     H52657   2.400   5.310   7.528 -0.5066  1.6817  1.4600
  399MOL0     H52658   2.528   5.146   7.426  1.0370 -0.4702  0.7937
  399MOL0     H52659   2.597   5.264   7.535  0.1939  0.9050  0.0615
  399MOL0     H52660   2.740   5.114   7.318 -2.3845  1.1102 -0.2522
  399MOL0     H52661   2.825   5.224   7.430 -0.6797 -0.1551  1.2369
  399MOL0     H52662   2.690   4.951   7.494  0.8157 -1.0871  0.5237
  399MOL0     H52663   2.717   5.065   7.621 -2.9803  0.4553 -1.4652
  399MOL0     H52664   2.957   5.048   7.596 -2.2839  2.1524  0.5285
  399MOL0     H52665   2.889   4.890   7.615  0.5808  0.5172  0.2198
  399MOL0     H52666   3.031   4.845   7.217 -0.9688  0.3627 -1.3008
  399MOL0     H52667   2.546   5.531   7.180  0.7193 -0.2335  0.8635
  399MOL0     H52668   2.336   5.643   7.160  1.1636 -0.9813 -1.9949
  400MOL0     O52669   0.001   7.747   4.002  0.5188 -0.4350 -0.0980
  400MOL0     C52670  -0.012   7.693   3.890  0.4783 -0.4919  0.3568
  400MOL0     O52671  -0.129   7.658   3.831 -0.5063 -0.2050 -0.1624
  400MOL0     C52672  -0.251   7.654   3.892 -0.3760 -0.2900  0.0292
  400MOL0     C52673  -0.277   7.662   4.033  0.1873 -0.1314  0.6577
  400MOL0     C52674  -0.409   7.650   4.071  0.7359 -0.8393 -0.2224
  400MOL0     C52675  -0.515   7.622   3.991 -0.0085  0.5610  0.3834
  400MOL0     O52676  -0.639   7.608   4.044 -0.1296 -0.0259 -0.7425
  400MOL0     C52677  -0.712   7.487   4.007 -0.0515  0.0969  0.2013
  400MOL0     C52678  -0.825   7.460   4.107 -0.3556 -0.0402  0.4150
  400MOL0     C52679  -0.920   7.340   4.070  0.0320 -0.8568  0.8912
  400MOL0     C52680  -1.058   7.334   4.142  0.8840  0.0307  0.1137
  400MOL0     C52681  -1.142   7.215   4.099 -0.1787  0.2614 -0.2277
  400MOL0     C52682  -1.270   7.205   4.192  0.0057 -0.1559 -0.4146
  400MOL0     C52683  -1.384   7.294   4.153 -0.1303 -0.4031  0.2795
  400MOL0     C52684  -1.489   7.295   4.264  0.7705 -0.2873  0.5047
  400MOL0     N52685  -1.586   7.403   4.246 -0.2851  0.3622  0.6290
  400MOL0     C52686  -1.562   7.534   4.264  0.2821  0.0747 -0.2120
  400MOL0     C52687  -1.676   7.594   4.218  1.4968  0.0685 -0.3157
  400MOL0     C52688  -1.713   7.745   4.218 -1.0971 -0.6510  0.3265
  400MOL0     C52689  -1.829   7.775   4.316  0.4749  0.2906  0.4340
  400MOL0     C52690  -1.959   7.700   4.272 -0.9931  0.4394 -0.0143
  400MOL0     C52691  -2.079   7.771   4.328 -0.2921  0.8456  0.5455
  400MOL0     O52692  -2.050   7.810   4.465 -0.1089  0.2901 -0.4056
  400MOL0     C52693  -2.154   7.859   4.544  0.1834 -0.5038  0.7687
  400MOL0     C52694  -2.116   7.892   4.673 -0.4014  0.5926 -0.3898
  400MOL0     C52695  -2.203   7.973   4.748  0.0663 -0.1707 -0.1854
  400MOL0     C52696  -2.325   8.024   4.703  0.0336  0.2403  0.4006
  400MOL0     C52697  -2.408   8.126   4.775 -0.8392  0.4231  0.4346
  400MOL0     O52698  -2.365   8.158   4.898 -0.8329  0.3020 -0.5098
  400MOL0     C52699  -2.416   8.253   4.971 -0.2213  0.3411 -0.1669
  400MOL0     C52700  -2.447   8.380   4.928  0.3714  0.6575  0.0511
  400MOL0     C52701  -2.464   8.485   5.024 -0.6796 -0.2883 -0.2317
  400MOL0     C52702  -2.452   8.465   5.158  0.1231  1.3176 -1.1077
  400MOL0     O52703  -2.457   8.580   5.232  0.4069  0.0202  0.1455
  400MOL0     C52704  -2.431   8.574   5.369  0.3466 -0.2258  0.8656
  400MOL0     C52705  -2.557   8.540   5.448  0.1061  0.1768  0.1062
  400MOL0     C52706  -2.528   8.546   5.598 -0.4847 -0.5754  0.1938
  400MOL0     C52707  -2.507   8.690   5.650  0.6540  0.6283 -0.3339
  400MOL0     C52708  -2.479   8.680   5.803 -0.1976 -0.2138  0.3531
  400MOL0     C52709  -2.424   8.813   5.854  0.1351  0.0432 -0.3910
  400MOL0     C52710  -2.530   8.906   5.919  0.2057 -0.6093  0.0445
  400MOL0     C52711  -2.494   9.052   5.957 -0.6424  0.7517 -0.5264
  400MOL0    Cl52712  -2.442   9.052   6.128 -0.0672  0.2033 -0.0185
  400MOL0     C52713  -2.426   8.333   5.201 -0.6008  0.1406 -0.2724
  400MOL0     C52714  -2.409   8.231   5.107  0.1659  0.7476 -0.2920
  400MOL0     O52715  -2.506   8.170   4.724  0.0213 -0.5395  0.1472
  400MOL0     C52716  -2.359   7.986   4.570  0.8856  0.0530  0.0191
  400MOL0     C52717  -2.279   7.902   4.493 -0.4479 -0.0910 -0.3573
  400MOL0     N52718  -1.764   7.501   4.167 -0.7141  0.2051 -0.1457
  400MOL0     N52719  -1.712   7.383   4.188 -0.9086  0.1572  0.4814
  400MOL0     C52720  -0.488   7.607   3.854 -0.4194  0.2835 -0.0836
  400MOL0     C52721  -0.359   7.616   3.805  0.3000  0.2232  0.3139
  400MOL0     C52722   0.109   7.643   3.823 -0.5323 -0.9107  0.5830
  400MOL0     C52723   0.237   7.665   3.878  0.0507  0.0591 -0.0981
  400MOL0     C52724   0.348   7.617   3.810  0.8454 -0.5668 -0.0459
  400MOL0     C52725   0.344   7.554   3.683  0.2632  0.3253 -0.7989
  400MOL0     O52726   0.463   7.518   3.636  0.2495 -0.4657 -0.0156
  400MOL0     C52727   0.462   7.448   3.512 -0.2288  0.6188 -0.2847
  400MOL0     C52728   0.600   7.397   3.484  0.8629  0.1306 -0.4641
  400MOL0     C52729   0.643   7.296   3.583 -0.1798  0.2054 -0.1448
  400MOL0     C52730   0.792   7.306   3.641 -0.0005 -0.4110 -0.1615
  400MOL0     C52731   0.891   7.325   3.535  0.2358 -0.4536  0.0201
  400MOL0     C52732   0.979   7.331   3.456 -0.4486 -0.3710  1.3357
  400MOL0     C52733   0.217   7.550   3.621 -0.7901 -0.0757 -0.3996
  400MOL0     C52734   0.100   7.591   3.692  0.0681 -0.0981 -0.7852
  400MOL0     H52735  -0.198   7.679   4.106 -0.4826 -1.1643  1.6683
  400MOL0     H52736  -0.444   7.669   4.173  0.8752 -0.3998 -0.2534
  400MOL0     H52737  -0.642   7.405   3.990  2.2111  1.9648 -0.0047
  400MOL0     H52738  -0.769   7.484   3.914 -2.0722 -3.7650  1.3022
  400MOL0     H52739  -0.887   7.550   4.106  0.3606  0.4719  0.9194
  400MOL0     H52740  -0.785   7.438   4.206 -0.6983 -1.5883  0.2441
  400MOL0     H52741  -0.856   7.252   4.080  1.5860 -0.0807 -1.3209
  400MOL0     H52742  -0.931   7.335   3.961 -1.2864  1.5544  0.8385
  400MOL0     H52743  -1.040   7.326   4.249  2.3641 -2.3365 -0.2521
  400MOL0     H52744  -1.115   7.425   4.121  1.7013  0.1546 -1.8669
  400MOL0     H52745  -1.079   7.126   4.105  1.2538  1.2946  0.6542
  400MOL0     H52746  -1.172   7.227   3.995  1.8782  1.0260 -0.7687
  400MOL0     H52747  -1.229   7.225   4.292 -0.1353 -2.4032  0.1299
  400MOL0     H52748  -1.306   7.102   4.195 -1.2111  0.2357  2.9057
  400MOL0     H52749  -1.356   7.394   4.116  1.3529 -1.0664 -0.4866
  400MOL0     H52750  -1.424   7.257   4.058  1.8528 -1.5120 -0.2013
  400MOL0     H52751  -1.448   7.308   4.364  0.1943  0.1124  0.6936
  400MOL0     H52752  -1.543   7.200   4.257 -1.4946  0.9548  0.0907
  400MOL0     H52753  -1.465   7.567   4.299  0.3412  0.5278 -0.7743
  400MOL0     H52754  -1.737   7.760   4.112 -0.1375 -5.0175 -0.7090
  400MOL0     H52755  -1.615   7.788   4.244  0.9037 -2.3838 -3.4636
  400MOL0     H52756  -1.838   7.883   4.302  3.5517  0.6834  0.6408
  400MOL0     H52757  -1.807   7.755   4.421  1.2485 -0.4571  0.1483
  400MOL0     H52758  -1.969   7.700   4.163  2.7278  0.1930 -0.4704
  400MOL0     H52759  -1.966   7.596   4.306 -3.9947  1.1574  1.9527
  400MOL0     H52760  -2.159   7.697   4.326  1.8076 -1.5605 -0.3105
  400MOL0     H52761  -2.105   7.856   4.264 -1.1254 -0.0437 -0.3403
  400MOL0     H52762  -2.018   7.871   4.716 -0.8044  3.0743  2.0389
  400MOL0     H52763  -2.171   8.017   4.842  1.2088  0.5339 -0.8749
  400MOL0     H52764  -2.452   8.406   4.823 -0.2084  1.3537  0.2398
  400MOL0     H52765  -2.487   8.587   4.991  0.7545  0.0407 -0.2710
  400MOL0     H52766  -2.400   8.676   5.397 -2.4022  1.9865 -3.1672
  400MOL0     H52767  -2.352   8.504   5.397 -0.2626 -0.8964  0.9416
  400MOL0     H52768  -2.578   8.436   5.423 -2.3415  0.9792 -1.6110
  400MOL0     H52769  -2.646   8.602   5.433  1.0813  1.6335  0.0693
  400MOL0     H52770  -2.441   8.484   5.621  0.4444  0.9057  0.8376
  400MOL0     H52771  -2.610   8.499   5.652 -2.5458 -0.1033 -2.3486
  400MOL0     H52772  -2.421   8.731   5.597  1.4007  0.6423  0.8437
  400MOL0     H52773  -2.593   8.754   5.629  0.6276  0.0813 -2.0242
  400MOL0     H52774  -2.396   8.609   5.817  0.8311  1.3338  2.7887
  400MOL0     H52775  -2.558   8.655   5.873 -0.1616  1.3649  1.0087
  400MOL0     H52776  -2.381   8.869   5.770 -2.7514  0.1197 -1.9234
  400MOL0     H52777  -2.350   8.792   5.932  0.5131 -0.2296 -0.8203
  400MOL0     H52778  -2.605   8.915   5.840 -0.6727  1.1329  1.0166
  400MOL0     H52779  -2.574   8.850   6.001 -1.0354 -3.0186 -2.1256
  400MOL0     H52780  -2.583   9.117   5.953 -0.2963  1.4170  1.4779
  400MOL0     H52781  -2.420   9.095   5.889 -0.3298 -0.0658 -0.7063
  400MOL0     H52782  -2.419   8.313   5.308 -1.6223  2.3941  0.2768
  400MOL0     H52783  -2.376   8.132   5.134  2.6424  1.6214  0.1777
  400MOL0     H52784  -2.449   8.030   4.529  0.6231  0.2843  0.8314
  400MOL0     H52785  -2.315   7.871   4.395 -0.9004 -0.1118 -0.1879
  400MOL0     H52786  -0.560   7.582   3.777 -0.8568  0.2670  0.3320
  400MOL0     H52787  -0.346   7.594   3.699 -1.4787 -2.0004  0.4861
  400MOL0     H52788   0.259   7.720   3.969  3.4944  1.2556 -1.4669
  400MOL0     H52789   0.444   7.617   3.860  0.3115  1.5710  1.0818
  400MOL0     H52790   0.421   7.511   3.433 -0.8005  0.4294 -0.1502
  400MOL0     H52791   0.395   7.361   3.510  0.4840  0.0500  0.2135
  400MOL0     H52792   0.594   7.343   3.389 -1.0631 -0.9869  0.2445
  400MOL0     H52793   0.673   7.478   3.477 -0.6285  1.7610  1.5334
  400MOL0     H52794   0.625   7.199   3.537 -1.9896  0.2414  0.3927
  400MOL0     H52795   0.583   7.299   3.675  0.4379 -2.4995  0.4414
  400MOL0     H52796   0.802   7.388   3.712 -0.5346  0.2998 -0.8907
  400MOL0     H52797   0.813   7.211   3.691  0.0538  0.7432  2.1684
  400MOL0     H52798   1.057   7.330   3.383 -2.9661 -0.0990 -1.5789
  400MOL0     H52799   0.206   7.504   3.523 -1.5711  0.6100 -0.6415
  400MOL0     H52800   0.004   7.592   3.642 -0.2327  0.6121 -0.2216
  401MOL0     O52801   2.312   3.201   7.803 -0.5989  0.2417 -0.8104
  401MOL0     C52802   2.317   3.261   7.695  0.3723 -1.0317 -0.9144
  401MOL0     O52803   2.229   3.367   7.671 -0.7818 -0.3605  0.0348
  401MOL0     C52804   2.123   3.388   7.755 -0.2287  0.6705 -0.9288
  401MOL0     C52805   2.115   3.492   7.849  0.3699  0.3683  0.0623
  401MOL0     C52806   1.993   3.515   7.928  0.1566  1.2510 -0.6096
  401MOL0     C52807   1.883   3.432   7.906 -0.6607  0.0756  0.5698
  401MOL0     O52808   1.767   3.463   7.973  0.4678  0.3349  0.8270
  401MOL0     C52809   1.644   3.448   7.902 -0.1523 -0.2941 -0.8616
  401MOL0     C52810   1.525   3.472   7.991  0.2925  0.3135 -0.2116
  401MOL0     C52811   1.523   3.367   8.104 -0.1933 -0.5457  0.0553
  401MOL0     C52812   1.402   3.369   8.203 -0.3388 -0.0185  0.1683
  401MOL0     C52813   1.411   3.259   8.309 -0.5272 -0.7979 -0.2099
  401MOL0     C52814   1.337   3.282   8.433  0.9992  0.0166 -0.5322
  401MOL0     C52815   1.184   3.305   8.401  0.3278  0.7265  0.6387
  401MOL0     C52816   1.097   3.293   8.525 -0.0096 -0.0459  0.8283
  401MOL0     N52817   1.081   3.155   8.572  0.1016 -0.5017  0.5632
  401MOL0     C52818   0.987   3.058   8.532 -0.0632  0.5634 -0.0504
  401MOL0     C52819   1.028   2.953   8.604 -1.3765  1.0292  0.2928
  401MOL0     C52820   0.954   2.817   8.601 -0.6633 -0.7103 -0.1365
  401MOL0     C52821   0.954   2.752   8.460  0.1535  0.1304  0.6918
  401MOL0     C52822   1.090   2.730   8.392  0.2030 -0.7002  0.7416
  401MOL0     C52823   1.187   2.643   8.474 -0.2824  0.3016  0.3530
  401MOL0     O52824   1.308   2.621   8.396  0.2443  0.1005  1.2218
  401MOL0     C52825   1.438   2.608   8.459 -0.1891  0.0374 -0.1079
  401MOL0     C52826   1.450   2.601   8.593 -0.1415  1.0858 -0.9433
  401MOL0     C52827   1.577   2.585   8.651  0.4188 -0.0447 -0.4079
  401MOL0     C52828   1.695   2.596   8.574 -0.2140 -0.4249 -0.6327
  401MOL0     C52829   1.825   2.578   8.648 -0.1395 -0.5651 -0.1721
  401MOL0     O52830   1.829   2.503   8.762 -0.0302 -0.0606 -0.2104
  401MOL0     C52831   1.953   2.463   8.814 -0.0626 -0.6398  0.1922
  401MOL0     C52832   1.978   2.483   8.950 -0.0149 -0.0704  0.2563
  401MOL0     C52833   2.104   2.460   9.002 -0.6515  0.1326  0.6283
  401MOL0     C52834   2.214   2.427   8.925 -0.2618  0.2603  0.2676
  401MOL0     O52835   2.333   2.421   8.994  0.2105 -0.9776 -0.5188
  401MOL0     C52836   2.443   2.363   8.928  0.5641 -0.3200  0.8695
  401MOL0     C52837   2.563   2.350   9.028 -0.0737 -0.0702 -0.4030
  401MOL0     C52838   2.685   2.268   8.978 -0.2770 -0.3135  0.2255
  401MOL0     C52839   2.768   2.213   9.100  0.4571 -0.0526 -0.3749
  401MOL0     C52840   2.905   2.173   9.041  0.3384 -0.2897  0.5488
  401MOL0     C52841   2.971   2.071   9.134 -1.7009 -0.3891 -1.1647
  401MOL0     C52842   3.005   2.131   9.272 -0.0221  0.8881  0.2854
  401MOL0     C52843   3.113   2.062   9.360 -0.3777 -0.7887 -0.5639
  401MOL0    Cl52844   3.275   2.094   9.295  0.2697 -0.0061  0.0692
  401MOL0     C52845   2.193   2.415   8.788  0.0950  0.0124  0.2442
  401MOL0     C52846   2.066   2.422   8.732  0.2654  1.0136  0.0223
  401MOL0     O52847   1.924   2.623   8.594 -0.0806 -0.7347 -0.3889
  401MOL0     C52848   1.677   2.620   8.435  0.8331  1.0296  0.9953
  401MOL0     C52849   1.550   2.618   8.376  0.9317 -0.1027  0.1990
  401MOL0     N52850   1.142   2.975   8.682  0.5609 -0.2973 -0.0886
  401MOL0     N52851   1.171   3.100   8.657 -0.2916  0.5340  0.1746
  401MOL0     C52852   1.895   3.327   7.813  0.0404 -0.2871  0.1921
  401MOL0     C52853   2.009   3.305   7.743  0.3062  0.5485  0.2352
  401MOL0     C52854   2.430   3.222   7.609  0.1737  0.1076  0.7773
  401MOL0     C52855   2.473   3.300   7.497 -1.3594 -0.0818  1.0186
  401MOL0     C52856   2.571   3.256   7.407  0.3359 -0.0943  0.4414
  401MOL0     C52857   2.645   3.144   7.441 -0.7478  0.4368  0.1100
  401MOL0     O52858   2.751   3.110   7.357  0.5595 -0.6697 -0.5299
  401MOL0     C52859   2.868   3.058   7.428  0.3926 -1.1569  0.6794
  401MOL0     C52860   2.965   3.027   7.312  0.3848  0.0660 -1.0840
  401MOL0     C52861   3.098   2.976   7.365 -0.5325  0.5851 -0.3991
  401MOL0     C52862   3.186   2.979   7.240  0.3687 -0.6660 -0.2752
  401MOL0     C52863   3.158   2.874   7.147 -0.1868 -0.3985  0.5358
  401MOL0     C52864   3.159   2.776   7.070 -0.0318  0.4810 -0.0894
  401MOL0     C52865   2.603   3.066   7.550 -0.0058  0.3711 -1.6870
  401MOL0     C52866   2.492   3.102   7.622  0.1237  0.3211  0.3149
  401MOL0     H52867   2.203   3.554   7.861  0.8054 -0.0590 -0.8428
  401MOL0     H52868   1.979   3.592   8.003 -0.9066  1.2536 -0.7929
  401MOL0     H52869   1.623   3.357   7.846 -1.3902 -0.8546  0.4545
  401MOL0     H52870   1.640   3.537   7.838  3.1453  0.1459 -0.6390
  401MOL0     H52871   1.433   3.478   7.933  0.3749 -1.0773 -0.5291
  401MOL0     H52872   1.533   3.566   8.047 -0.6877  0.1489  0.2281
  401MOL0     H52873   1.612   3.377   8.168 -0.7380 -0.8946  0.8909
  401MOL0     H52874   1.524   3.267   8.059  2.6828  0.4693 -2.4353
  401MOL0     H52875   1.406   3.470   8.246  0.6933 -0.0296  0.1109
  401MOL0     H52876   1.304   3.367   8.154 -0.1577  1.0919 -0.2687
  401MOL0     H52877   1.518   3.239   8.319 -0.4172 -0.3930 -0.5328
  401MOL0     H52878   1.376   3.167   8.261  0.9769 -1.2614 -0.4735
  401MOL0     H52879   1.371   3.361   8.500  1.1379 -0.4938  0.0048
  401MOL0     H52880   1.349   3.188   8.487 -0.3269  1.2053  2.0068
  401MOL0     H52881   1.169   3.406   8.363  0.8696 -0.1319 -2.1013
  401MOL0     H52882   1.159   3.231   8.324  1.6626  0.0397  0.8289
  401MOL0     H52883   1.008   3.344   8.488  2.3921  1.9132 -2.7557
  401MOL0     H52884   1.147   3.354   8.601 -1.3850  0.3452  1.4627
  401MOL0     H52885   0.894   3.068   8.477 -0.5635 -1.0424  0.4565
  401MOL0     H52886   0.854   2.853   8.625 -0.2044  1.7639 -1.5553
  401MOL0     H52887   0.996   2.745   8.672  0.4599 -0.0331 -0.0930
  401MOL0     H52888   0.891   2.817   8.399 -2.3194 -3.4560 -0.9823
  401MOL0     H52889   0.911   2.652   8.474 -1.0497  0.5718  0.2581
  401MOL0     H52890   1.074   2.684   8.294  1.2169  0.5313 -0.0363
  401MOL0     H52891   1.140   2.825   8.370 -0.8737 -0.4303 -0.7219
  401MOL0     H52892   1.132   2.550   8.496 -0.5787  0.2943 -0.4073
  401MOL0     H52893   1.205   2.698   8.567  2.0175  1.0769 -0.4872
  401MOL0     H52894   1.358   2.591   8.649  1.1100  0.7616  1.1872
  401MOL0     H52895   1.588   2.566   8.757  1.3691 -0.4889 -0.5805
  401MOL0     H52896   1.907   2.524   9.021  0.5501 -0.2772  0.9577
  401MOL0     H52897   2.123   2.473   9.108 -0.1023 -3.6843  1.1298
  401MOL0     H52898   2.465   2.423   8.839  0.6968 -1.3336  0.2043
  401MOL0     H52899   2.419   2.259   8.904  0.5626  0.0235 -0.7702
  401MOL0     H52900   2.525   2.296   9.115 -0.9612  0.2295 -0.5892
  401MOL0     H52901   2.595   2.448   9.065 -1.2072 -0.3152  1.3114
  401MOL0     H52902   2.752   2.331   8.919  1.6690  0.1769  2.7396
  401MOL0     H52903   2.647   2.187   8.916  0.4222  1.2459 -2.3704
  401MOL0     H52904   2.786   2.280   9.185 -0.7013 -0.9948  0.6430
  401MOL0     H52905   2.716   2.121   9.128 -0.2250  0.4923  0.1662
  401MOL0     H52906   2.968   2.260   9.021 -0.5061 -0.5346 -4.7611
  401MOL0     H52907   2.897   2.125   8.943 -2.2448 -1.1433  1.1034
  401MOL0     H52908   3.057   2.031   9.080 -0.6936  0.6609 -0.3784
  401MOL0     H52909   2.916   1.978   9.155 -0.1708 -1.0846  0.0511
  401MOL0     H52910   3.030   2.237   9.260 -2.1258  1.6577  1.9524
  401MOL0     H52911   2.909   2.121   9.325  1.4372 -0.8774  2.8577
  401MOL0     H52912   3.100   1.954   9.369  0.4683 -0.9353 -1.0107
  401MOL0     H52913   3.109   2.113   9.456 -0.6652 -1.2923 -0.3046
  401MOL0     H52914   2.269   2.395   8.713 -0.1756 -1.8181  0.4018
  401MOL0     H52915   2.056   2.406   8.625  0.2577  1.9254 -0.1235
  401MOL0     H52916   1.768   2.636   8.379  0.2352  2.1221  0.3083
  401MOL0     H52917   1.539   2.632   8.269 -0.1281  0.9251  0.4204
  401MOL0     H52918   1.807   3.267   7.793 -0.2099  0.2528 -0.3498
  401MOL0     H52919   1.992   3.232   7.665  0.6300  0.9552 -0.2250
  401MOL0     H52920   2.421   3.393   7.475  0.9594  1.0326 -0.2366
  401MOL0     H52921   2.602   3.322   7.326  0.5256  0.9777  1.3617
  401MOL0     H52922   2.848   2.964   7.482  2.3362 -2.6250 -1.0320
  401MOL0     H52923   2.905   3.139   7.492 -1.3913 -0.0533  0.4147
  401MOL0     H52924   2.911   2.954   7.251  1.4050 -1.3976 -0.2911
  401MOL0     H52925   2.983   3.112   7.245 -0.2062 -1.1550 -2.8616
  401MOL0     H52926   3.092   2.878   7.414  0.9705  0.3504 -0.6313
  401MOL0     H52927   3.128   3.041   7.448  2.3838 -1.7422  0.5407
  401MOL0     H52928   3.175   3.077   7.192 -0.7974  2.2687  5.1323
  401MOL0     H52929   3.291   2.968   7.269 -0.1646 -0.7542  1.8096
  401MOL0     H52930   3.165   2.683   7.017 -1.3142 -0.5073  1.4124
  401MOL0     H52931   2.661   2.980   7.581  2.9044  2.2914 -1.4487
  401MOL0     H52932   2.475   3.042   7.711  0.9046 -0.2447  0.0845
  402MOL0     O52933   2.583   9.795   2.687 -0.2486 -0.4407  1.1362
  402MOL0     C52934   2.658   9.735   2.763 -0.0057 -0.0746  0.2484
  402MOL0     O52935   2.659   9.739   2.901 -0.6760  0.2056 -0.0916
  402MOL0     C52936   2.556   9.807   2.959  0.1260 -0.4694 -0.0788
  402MOL0     C52937   2.533   9.947   2.936  0.1892  1.0578  0.3604
  402MOL0     C52938   2.447  10.012   3.022 -0.5401 -0.0611  0.4318
  402MOL0     C52939   2.356   9.948   3.103  0.4184 -0.2593  0.4454
  402MOL0     O52940   2.257  10.009   3.181 -0.6886  0.2651  0.2704
  402MOL0     C52941   2.172  10.093   3.101  0.6387  0.1757 -0.2341
  402MOL0     C52942   2.083  10.185   3.196 -0.4356  0.5967  0.1690
  402MOL0     C52943   2.183  10.267   3.290 -0.0259  0.2015  0.2565
  402MOL0     C52944   2.111  10.364   3.380 -0.3389  0.1349  0.4314
  402MOL0     C52945   2.198  10.411   3.494 -1.0682 -0.0464 -0.4960
  402MOL0     C52946   2.125  10.516   3.584  0.0491 -0.4415  0.2315
  402MOL0     C52947   2.238  10.572   3.683  0.0230  0.2003  0.3622
  402MOL0     C52948   2.181  10.672   3.787 -0.1838 -0.4368  0.3650
  402MOL0     N52949   2.105  10.603   3.886  0.0823 -0.2150 -0.1756
  402MOL0     C52950   2.151  10.552   4.005  0.6730  0.2954  0.6007
  402MOL0     C52951   2.050  10.503   4.068  0.0995 -0.2290 -1.3354
  402MOL0     C52952   2.037  10.435   4.204  0.0773 -0.0133  0.4218
  402MOL0     C52953   1.937  10.324   4.221 -0.3974  0.3593 -0.4893
  402MOL0     C52954   1.957  10.214   4.115 -0.3523  1.1800  0.0396
  402MOL0     C52955   1.860  10.102   4.139 -0.0331  0.1346 -0.1668
  402MOL0     O52956   1.732  10.160   4.123  0.4512  0.2394  0.3793
  402MOL0     C52957   1.623  10.077   4.111 -0.4848  0.2141  0.2176
  402MOL0     C52958   1.503  10.146   4.138  0.0808 -0.2608 -0.4546
  402MOL0     C52959   1.384  10.078   4.142  0.0029 -0.3510 -0.2082
  402MOL0     C52960   1.373   9.938   4.130  1.0156 -0.1595 -0.4118
  402MOL0     C52961   1.242   9.863   4.134  0.4258 -0.7469  0.9433
  402MOL0     O52962   1.136   9.950   4.153 -0.1721 -0.1365 -0.2357
  402MOL0     C52963   1.020   9.890   4.192 -0.1792 -0.5720  0.2725
  402MOL0     C52964   0.968   9.939   4.316  0.0758  0.0931 -0.7127
  402MOL0     C52965   0.852   9.875   4.364  0.5220  0.9272 -0.5106
  402MOL0     C52966   0.783   9.770   4.295 -0.2971 -0.0990  1.0612
  402MOL0     O52967   0.673   9.712   4.353  0.2600 -0.1199  0.0377
  402MOL0     C52968   0.572   9.650   4.268  0.1368  0.6077 -0.1747
  402MOL0     C52969   0.430   9.647   4.335 -0.1693 -0.5041 -0.7920
  402MOL0     C52970   0.318   9.577   4.253  1.1748 -0.5335 -0.9900
  402MOL0     C52971   0.352   9.440   4.204  0.1924  0.6717  0.1793
  402MOL0     C52972   0.238   9.354   4.150 -0.0871 -0.3606 -0.0991
  402MOL0     C52973   0.285   9.218   4.099 -0.1344 -0.1125  0.0819
  402MOL0     C52974   0.335   9.108   4.197  0.5313  1.0753 -0.3072
  402MOL0     C52975   0.217   9.062   4.281  0.4978  0.0423  0.1313
  402MOL0    Cl52976   0.274   8.941   4.399 -0.1634  0.3761  0.2472
  402MOL0     C52977   0.841   9.734   4.164  0.0689  0.5553  0.1835
  402MOL0     C52978   0.956   9.786   4.116 -0.2986 -0.2937  0.3328
  402MOL0     O52979   1.242   9.743   4.127  0.1353  0.2467 -0.0569
  402MOL0     C52980   1.496   9.862   4.122 -0.0291 -0.7181 -0.0019
  402MOL0     C52981   1.620   9.938   4.117  0.0225  0.7454 -0.1641
  402MOL0     N52982   1.938  10.535   3.991 -0.0936  0.4162 -0.1050
  402MOL0     N52983   1.972  10.587   3.880  0.1325 -0.6958 -0.3417
  402MOL0     C52984   2.375   9.809   3.115 -0.0769 -0.1155 -0.3173
  402MOL0     C52985   2.470   9.741   3.045  0.0953  0.0261  0.1515
  402MOL0     C52986   2.778   9.670   2.695  0.3622 -0.1567  0.1158
  402MOL0     C52987   2.900   9.631   2.761  0.4494  0.5378 -0.2484
  402MOL0     C52988   3.002   9.573   2.687  0.3897 -0.8826 -0.2163
  402MOL0     C52989   2.994   9.563   2.550 -1.2446  0.0898 -0.4402
  402MOL0     O52990   3.091   9.496   2.469 -0.0533  0.0902 -0.7745
  402MOL0     C52991   3.216   9.447   2.518  0.4055 -0.5893 -0.0876
  402MOL0     C52992   3.268   9.365   2.402  0.4325 -0.5412 -0.3567
  402MOL0     C52993   3.397   9.291   2.439  0.8106 -0.5520  0.1183
  402MOL0     C52994   3.457   9.223   2.319  0.9865 -0.8108  0.1650
  402MOL0     C52995   3.516   9.320   2.230  0.3642  0.4909  0.3546
  402MOL0     C52996   3.572   9.395   2.154 -0.2402  0.2731  0.2490
  402MOL0     C52997   2.886   9.608   2.488 -0.9281 -0.0995 -0.1139
  402MOL0     C52998   2.775   9.650   2.558 -0.0113  0.3972  0.1364
  402MOL0     H52999   2.589   9.989   2.852  2.0363  0.7474  1.3786
  402MOL0     H53000   2.436  10.117   2.997 -2.0980 -0.9223 -3.2755
  402MOL0     H53001   2.115  10.021   3.041  0.9795  0.6350 -1.1391
  402MOL0     H53002   2.237  10.158   3.041  1.6399 -0.5402  0.0598
  402MOL0     H53003   2.009  10.128   3.252 -1.1763  1.9927  0.6440
  402MOL0     H53004   2.031  10.252   3.127  0.2473 -1.0547 -2.0830
  402MOL0     H53005   2.245  10.333   3.229 -2.3681 -1.6606 -4.7295
  402MOL0     H53006   2.234  10.197   3.357 -0.3248 -0.4090 -0.1419
  402MOL0     H53007   2.084  10.449   3.317  0.2920  0.4275  0.5498
  402MOL0     H53008   2.014  10.322   3.410 -1.1655  3.2398  2.5570
  402MOL0     H53009   2.294  10.450   3.459 -0.6557 -0.2379  0.4068
  402MOL0     H53010   2.223  10.320   3.548  2.5224 -0.3927 -2.4324
  402MOL0     H53011   2.051  10.458   3.640  1.1075 -2.8827 -0.7882
  402MOL0     H53012   2.082  10.594   3.520  0.7895  0.8820  1.2971
  402MOL0     H53013   2.279  10.492   3.746 -0.3986 -2.0057 -2.0211
  402MOL0     H53014   2.321  10.614   3.625 -0.8827  2.6632  0.7338
  402MOL0     H53015   2.115  10.744   3.738 -0.5193 -1.5033 -0.7880
  402MOL0     H53016   2.263  10.725   3.836 -0.8897 -0.1414  1.2527
  402MOL0     H53017   2.253  10.550   4.043  1.2380  1.7720 -0.7300
  402MOL0     H53018   2.023  10.506   4.287  0.0366  2.0086 -1.2245
  402MOL0     H53019   2.134  10.389   4.222 -0.0490 -0.4937 -0.1075
  402MOL0     H53020   1.835  10.362   4.211 -1.0387 -0.8489  1.0668
  402MOL0     H53021   1.947  10.277   4.319  2.4372 -0.3188 -1.0310
  402MOL0     H53022   1.944  10.245   4.011 -1.5055 -2.2389 -0.9601
  402MOL0     H53023   2.057  10.173   4.132 -0.9755 -1.0509 -1.2443
  402MOL0     H53024   1.880  10.058   4.237 -0.9778 -1.3663 -0.6121
  402MOL0     H53025   1.871  10.023   4.064 -1.5953  0.7751 -1.1344
  402MOL0     H53026   1.508  10.255   4.139 -1.3162 -0.1748 -0.7329
  402MOL0     H53027   1.290  10.132   4.149 -0.0680 -0.5955  0.7837
  402MOL0     H53028   1.012  10.021   4.372  1.8104 -0.6007 -0.9847
  402MOL0     H53029   0.813   9.909   4.460  0.8013 -0.0687 -0.0318
  402MOL0     H53030   0.612   9.550   4.251 -0.4829  0.2624  0.3917
  402MOL0     H53031   0.570   9.701   4.171  1.7817  1.6253  0.2832
  402MOL0     H53032   0.414   9.754   4.349  2.5810 -0.2277  0.8618
  402MOL0     H53033   0.444   9.603   4.434 -0.6286 -1.8459 -1.2984
  402MOL0     H53034   0.289   9.638   4.168 -0.7474  0.7595  0.4953
  402MOL0     H53035   0.231   9.573   4.319  1.5080 -1.5321 -0.5834
  402MOL0     H53036   0.435   9.433   4.133  0.1731  0.4454  0.1803
  402MOL0     H53037   0.377   9.377   4.290 -2.1057 -2.1759 -1.0939
  402MOL0     H53038   0.197   9.425   4.078  2.0723  2.8451  1.5415
  402MOL0     H53039   0.166   9.327   4.228 -0.2659 -0.0474 -0.1545
  402MOL0     H53040   0.359   9.236   4.020  1.4393  0.3042  1.5979
  402MOL0     H53041   0.196   9.170   4.057  0.6137 -0.4935 -1.1408
  402MOL0     H53042   0.381   9.024   4.145  1.7374  1.1331  0.6166
  402MOL0     H53043   0.414   9.145   4.263  2.6793 -0.0450 -2.1509
  402MOL0     H53044   0.133   9.028   4.220  0.3418 -0.7594  0.7701
  402MOL0     H53045   0.180   9.149   4.336 -1.9823 -0.8445 -0.0289
  402MOL0     H53046   0.799   9.650   4.109  0.8351 -0.0493  0.5031
  402MOL0     H53047   0.998   9.757   4.021 -1.3169  0.4509 -0.3732
  402MOL0     H53048   1.494   9.753   4.130 -1.9968 -0.7150 -0.0609
  402MOL0     H53049   1.708   9.875   4.118 -0.7974 -0.4514 -0.4214
  402MOL0     H53050   2.310   9.754   3.182 -1.4794  0.7935 -0.8843
  402MOL0     H53051   2.482   9.634   3.044  0.0782  0.0259 -0.1287
  402MOL0     H53052   2.915   9.633   2.868 -1.0385  0.1227 -0.0078
  402MOL0     H53053   3.086   9.531   2.742  0.8032 -0.4145 -0.4809
  402MOL0     H53054   3.189   9.377   2.598  1.4120 -0.4495  0.3941
  402MOL0     H53055   3.281   9.529   2.549 -0.9175  1.1015 -1.5630
  402MOL0     H53056   3.186   9.294   2.386 -1.8308  1.4525  1.5789
  402MOL0     H53057   3.294   9.424   2.313  0.0150 -3.9040 -2.9148
  402MOL0     H53058   3.370   9.213   2.511  1.0782 -0.7790 -0.0248
  402MOL0     H53059   3.468   9.355   2.493 -1.8173  1.1963  1.7120
  402MOL0     H53060   3.535   9.149   2.340  1.0365 -0.5838  0.7847
  402MOL0     H53061   3.379   9.171   2.262  0.1667  1.7432 -1.2201
  402MOL0     H53062   3.610   9.479   2.100  1.7337 -0.5073  0.3315
  402MOL0     H53063   2.896   9.595   2.381  4.7236 -1.0811  0.2524
  402MOL0     H53064   2.699   9.692   2.493 -1.7135 -0.9274  1.1642
  403MOL0     O53065   0.612   1.793   1.595 -0.4656  0.6132 -0.2013
  403MOL0     C53066   0.642   1.897   1.649  0.4970  0.0427 -0.2076
  403MOL0     O53067   0.576   2.014   1.646 -0.2999 -0.4874 -0.0770
  403MOL0     C53068   0.467   2.029   1.565 -0.4493 -0.3572  0.9451
  403MOL0     C53069   0.342   2.028   1.616 -0.1780  1.1374  0.6629
  403MOL0     C53070   0.236   2.012   1.530  0.3162  0.3157  0.2418
  403MOL0     C53071   0.247   2.014   1.394 -0.5979  0.5049 -0.5740
  403MOL0     O53072   0.138   2.018   1.328  0.5559 -0.0623  1.0925
  403MOL0     C53073   0.139   1.971   1.193 -0.9947 -0.4996 -0.4008
  403MOL0     C53074   0.014   2.016   1.117 -0.2941 -1.2663 -1.0875
  403MOL0     C53075   0.001   1.974   0.978 -0.1677  0.0074  0.2013
  403MOL0     C53076  -0.132   2.010   0.922  0.8669 -0.6049 -0.4619
  403MOL0     C53077  -0.162   1.914   0.804 -0.5096 -0.4460 -0.5068
  403MOL0     C53078  -0.292   1.960   0.729  0.0356 -0.0986  0.2189
  403MOL0     C53079  -0.318   1.865   0.615  0.3245  0.2100 -0.6197
  403MOL0     C53080  -0.452   1.902   0.545  0.3984 -0.5827  0.0746
  403MOL0     N53081  -0.559   1.863   0.634  0.0916  0.9841 -0.7356
  403MOL0     C53082  -0.659   1.939   0.684  0.8540  0.0687  0.2300
  403MOL0     C53083  -0.747   1.857   0.748  1.0049 -0.1299 -0.2268
  403MOL0     C53084  -0.878   1.888   0.800 -0.1795 -0.0566  0.5220
  403MOL0     C53085  -0.992   1.805   0.742 -0.8193 -0.3763  0.4891
  403MOL0     C53086  -1.034   1.841   0.592 -0.4277  0.1843 -0.0751
  403MOL0     C53087  -1.125   1.727   0.545  0.4698  0.2391 -0.0722
  403MOL0     O53088  -1.174   1.762   0.409  0.7422  0.1315  0.0270
  403MOL0     C53089  -1.298   1.711   0.372  0.5526 -0.2069 -0.3717
  403MOL0     C53090  -1.365   1.604   0.435 -0.3542  0.3591  1.3815
  403MOL0     C53091  -1.501   1.588   0.395 -0.5494  0.2144 -0.3582
  403MOL0     C53092  -1.561   1.663   0.291 -0.5185  0.3389 -0.2652
  403MOL0     C53093  -1.702   1.633   0.247 -0.4865  0.0215 -0.6757
  403MOL0     O53094  -1.769   1.527   0.321  0.0701  0.0678  0.0665
  403MOL0     C53095  -1.900   1.490   0.314  0.1248  0.0485 -0.3481
  403MOL0     C53096  -1.938   1.389   0.404 -0.0810  0.6891 -1.0654
  403MOL0     C53097  -2.070   1.343   0.406 -0.4022 -0.3213  0.0745
  403MOL0     C53098  -2.172   1.416   0.332  0.0281  0.3434 -0.2416
  403MOL0     O53099  -2.303   1.389   0.340 -0.0686  0.1703 -0.2003
  403MOL0     C53100  -2.360   1.287   0.426  0.3737 -0.0423  0.1953
  403MOL0     C53101  -2.502   1.253   0.365 -0.6797 -0.1490 -1.0064
  403MOL0     C53102  -2.573   1.149   0.446 -0.4876  0.6199 -0.6308
  403MOL0     C53103  -2.693   1.101   0.361  0.5118 -0.0891  0.8498
  403MOL0     C53104  -2.719   0.947   0.388  0.1269  0.6462 -0.1587
  403MOL0     C53105  -2.824   0.881   0.303 -0.4472  0.7388 -0.7980
  403MOL0     C53106  -2.868   0.748   0.370 -0.2024 -0.2987  0.0308
  403MOL0     C53107  -2.803   0.635   0.298 -0.5741  0.1340  0.2347
  403MOL0    Cl53108  -2.927   0.588   0.178  0.1539 -0.4877  0.4964
  403MOL0     C53109  -2.129   1.523   0.255  0.3696  0.5042  0.3315
  403MOL0     C53110  -2.003   1.569   0.246  0.1318  0.1032 -0.1896
  403MOL0     O53111  -1.753   1.712   0.168  0.0085  0.4413  0.5296
  403MOL0     C53112  -1.485   1.764   0.231  0.4989  0.0024  0.4714
  403MOL0     C53113  -1.355   1.792   0.266 -0.2602 -0.0861 -0.3785
  403MOL0     N53114  -0.695   1.723   0.747  1.0601 -0.0537 -0.0437
  403MOL0     N53115  -0.585   1.733   0.676  0.1045  0.8109  0.1062
  403MOL0     C53116   0.378   2.026   1.342  0.0390  0.6120 -1.1197
  403MOL0     C53117   0.488   2.029   1.429  0.3903 -0.7536 -0.6385
  403MOL0     C53118   0.752   1.900   1.751  0.2414  0.5931  0.1923
  403MOL0     C53119   0.842   1.802   1.743 -0.0149 -0.3367 -0.3151
  403MOL0     C53120   0.948   1.803   1.831  0.4373  0.5849 -0.0013
  403MOL0     C53121   0.972   1.896   1.927  0.1379  0.4557  0.2397
  403MOL0     O53122   1.082   1.876   2.000 -0.2849 -0.1880 -0.5238
  403MOL0     C53123   1.156   1.992   2.027  0.0484  0.0774 -0.4327
  403MOL0     C53124   1.304   1.964   2.064  0.1099  0.0952 -0.2545
  403MOL0     C53125   1.408   1.925   1.957 -0.3513  0.3272 -0.7213
  403MOL0     C53126   1.407   1.782   1.925  0.1558  0.0970 -0.0686
  403MOL0     C53127   1.453   1.694   2.040  0.5301 -0.6203 -0.1928
  403MOL0     C53128   1.477   1.619   2.128 -0.1930 -0.8523  0.9458
  403MOL0     C53129   0.875   1.998   1.939  0.1623  0.3283 -0.7723
  403MOL0     C53130   0.767   1.998   1.844 -0.6609  0.4389  0.3384
  403MOL0     H53131   0.337   2.027   1.724  0.8297  0.5379  0.7097
  403MOL0     H53132   0.138   2.006   1.577  1.8207  0.1168  3.6531
  403MOL0     H53133   0.137   1.862   1.198  1.0159 -0.5261  1.7551
  403MOL0     H53134   0.228   2.001   1.137 -0.9692  1.5372  0.6485
  403MOL0     H53135  -0.001   2.125   1.117 -0.6782 -1.3148 -0.8353
  403MOL0     H53136  -0.073   1.981   1.175 -1.0726  1.7944 -0.1929
  403MOL0     H53137   0.017   1.867   0.962 -3.0786 -0.2500 -1.6606
  403MOL0     H53138   0.080   2.024   0.921  0.2559 -2.0444 -1.1054
  403MOL0     H53139  -0.213   1.992   0.993  1.6799 -0.6517  0.4662
  403MOL0     H53140  -0.142   2.114   0.891  1.4695 -0.6154 -0.7089
  403MOL0     H53141  -0.175   1.817   0.853 -2.5346  0.5624  1.1023
  403MOL0     H53142  -0.083   1.903   0.729 -0.4990  3.4640 -1.2718
  403MOL0     H53143  -0.280   2.063   0.694  0.5894  0.4207  1.8491
  403MOL0     H53144  -0.368   1.961   0.807 -0.7352  1.7640 -0.5082
  403MOL0     H53145  -0.241   1.885   0.540  1.2181  1.7989  0.6526
  403MOL0     H53146  -0.315   1.762   0.651  1.0600  0.0307 -1.1638
  403MOL0     H53147  -0.443   1.847   0.450  1.1900 -0.0570 -0.1760
  403MOL0     H53148  -0.461   2.009   0.524  3.0112 -0.2283  0.4030
  403MOL0     H53149  -0.671   2.042   0.653  0.4780  0.1233  0.5452
  403MOL0     H53150  -0.898   1.993   0.777  0.5045  0.2275  1.1774
  403MOL0     H53151  -0.876   1.878   0.909 -3.2304 -0.3560  0.6423
  403MOL0     H53152  -1.081   1.811   0.805 -0.8268 -1.3303  0.5796
  403MOL0     H53153  -0.960   1.701   0.747  0.3658 -0.1382 -1.1571
  403MOL0     H53154  -1.085   1.937   0.585  1.6807  1.2898 -1.5448
  403MOL0     H53155  -0.945   1.851   0.529  0.3124 -7.2837 -1.1823
  403MOL0     H53156  -1.212   1.728   0.612 -1.5938  5.0602 -2.3168
  403MOL0     H53157  -1.076   1.629   0.548 -0.5084 -0.2502  0.3888
  403MOL0     H53158  -1.315   1.566   0.523  2.3154  1.5224  0.4862
  403MOL0     H53159  -1.568   1.529   0.458 -0.8374 -0.1648 -1.0094
  403MOL0     H53160  -1.860   1.346   0.466 -1.3531  0.9225  0.7739
  403MOL0     H53161  -2.101   1.265   0.474  0.8991  1.4445  2.8437
  403MOL0     H53162  -2.372   1.332   0.525 -0.2381  2.2673 -0.8562
  403MOL0     H53163  -2.300   1.196   0.434 -0.9210 -1.0138 -0.6865
  403MOL0     H53164  -2.484   1.215   0.264  1.7424 -0.0299 -0.6928
  403MOL0     H53165  -2.562   1.344   0.363 -1.8604 -0.8902 -0.3871
  403MOL0     H53166  -2.606   1.175   0.547  0.2454 -0.3581 -0.1203
  403MOL0     H53167  -2.502   1.067   0.458 -0.5715  0.6184 -0.0988
  403MOL0     H53168  -2.777   1.165   0.390  0.7166  0.9267 -0.6826
  403MOL0     H53169  -2.673   1.105   0.253  1.1813 -2.5286  0.8299
  403MOL0     H53170  -2.749   0.945   0.493  0.3805  2.0776 -0.0334
  403MOL0     H53171  -2.623   0.896   0.375 -0.0952 -0.0246  0.6953
  403MOL0     H53172  -2.783   0.873   0.202  3.6484 -0.5660  0.7598
  403MOL0     H53173  -2.921   0.932   0.306 -0.4126  0.8235 -1.1688
  403MOL0     H53174  -2.843   0.740   0.476  2.5559  1.1796 -0.4017
  403MOL0     H53175  -2.976   0.737   0.358  0.2549 -4.1940 -2.0183
  403MOL0     H53176  -2.779   0.554   0.368 -0.2493  0.0826  0.0664
  403MOL0     H53177  -2.707   0.666   0.255 -0.3463 -0.4865  0.2834
  403MOL0     H53178  -2.201   1.573   0.190  0.0736 -0.3679 -0.0290
  403MOL0     H53179  -1.981   1.644   0.171 -2.8494  0.2923 -0.9877
  403MOL0     H53180  -1.536   1.821   0.154 -1.7930 -3.2433 -0.6288
  403MOL0     H53181  -1.298   1.868   0.215  2.9606 -1.6466  0.6503
  403MOL0     H53182   0.407   2.040   1.238 -1.9192  0.1713 -1.7525
  403MOL0     H53183   0.589   2.053   1.396  0.3420  0.4528  0.0296
  403MOL0     H53184   0.822   1.718   1.678  1.1617 -0.1214 -0.9787
  403MOL0     H53185   1.022   1.725   1.818  0.3704  0.5519 -0.1839
  403MOL0     H53186   1.109   2.035   2.115  1.6436 -0.0877  0.5454
  403MOL0     H53187   1.143   2.061   1.943 -2.2268 -2.0108 -1.9360
  403MOL0     H53188   1.342   2.058   2.104  0.7850 -0.8067  1.3404
  403MOL0     H53189   1.301   1.882   2.137  2.0447 -0.3618 -0.6354
  403MOL0     H53190   1.504   1.961   1.995 -0.6920 -0.9157  1.4835
  403MOL0     H53191   1.383   1.966   1.858 -0.0566 -2.2044 -1.9059
  403MOL0     H53192   1.304   1.763   1.892 -0.1760 -0.9294  1.4673
  403MOL0     H53193   1.476   1.770   1.841  3.5645  2.0177  2.2067
  403MOL0     H53194   1.526   1.555   2.199 -0.3503 -0.4069  1.4633
  403MOL0     H53195   0.888   2.068   2.021  2.3661 -2.0714  1.1181
  403MOL0     H53196   0.686   2.071   1.847 -0.1352  1.0010  1.3618
  404MOL0     O53197   9.470   1.959   2.025 -0.4030  0.6185  0.6758
  404MOL0     C53198   9.474   1.978   2.143  0.0031  0.1681 -0.8401
  404MOL0     O53199   9.430   1.888   2.241  0.0957  0.2666  0.5468
  404MOL0     C53200   9.364   1.781   2.186 -0.4624 -0.1365  0.3582
  404MOL0     C53201   9.238   1.791   2.115  0.3300  0.3156  0.1430
  404MOL0     C53202   9.170   1.668   2.081 -0.5922 -0.0434 -0.1173
  404MOL0     C53203   9.223   1.545   2.120  0.4438 -0.3561 -0.1282
  404MOL0     O53204   9.164   1.429   2.096  0.3959  0.3567  0.0517
  404MOL0     C53205   9.072   1.415   1.988  0.0081  0.2087  0.0844
  404MOL0     C53206   8.927   1.431   2.049 -0.3495 -0.3299  0.1092
  404MOL0     C53207   8.829   1.359   1.962 -0.3744  0.0587 -0.3466
  404MOL0     C53208   8.854   1.203   1.958  0.0573  0.7463 -0.8375
  404MOL0     C53209   8.740   1.132   1.892  0.4687 -0.3343  0.3067
  404MOL0     C53210   8.766   0.977   1.898 -0.1059 -0.0996  0.1690
  404MOL0     C53211   8.642   0.894   1.871  0.6115  0.3377 -0.4163
  404MOL0     C53212   8.564   0.843   1.988  0.0939 -0.7229 -0.0622
  404MOL0     N53213   8.468   0.731   1.969  0.1386 -0.0114  0.0534
  404MOL0     C53214   8.358   0.730   1.887 -0.2999  1.0352  0.2027
  404MOL0     C53215   8.313   0.597   1.902  0.4182  0.3867 -0.3458
  404MOL0     C53216   8.198   0.538   1.814  0.5933  0.8800 -0.7259
  404MOL0     C53217   8.057   0.564   1.881  0.2606 -0.3681  0.7720
  404MOL0     C53218   8.012   0.462   1.992 -0.1607 -0.1057 -0.4424
  404MOL0     C53219   7.879   0.495   2.055 -0.2904 -0.6212  0.5546
  404MOL0     O53220   7.783   0.453   1.960 -1.0178  0.3413 -0.6566
  404MOL0     C53221   7.643   0.469   1.977 -0.8771  0.5647 -0.1648
  404MOL0     C53222   7.577   0.546   2.073 -0.2398  0.6635  0.0741
  404MOL0     C53223   7.438   0.568   2.070  0.3755  0.1770 -0.8426
  404MOL0     C53224   7.362   0.516   1.972  0.2074  0.6237  1.0493
  404MOL0     C53225   7.211   0.545   1.965  0.0356  0.5878  0.7045
  404MOL0     O53226   7.132   0.465   1.885 -0.0499 -1.1301 -0.3631
  404MOL0     C53227   6.996   0.471   1.906 -0.4078 -0.5615 -0.2060
  404MOL0     C53228   6.946   0.357   1.981  0.3841 -0.3205  0.9279
  404MOL0     C53229   6.804   0.348   1.994  0.1807  0.1309  0.2012
  404MOL0     C53230   6.723   0.448   1.941 -0.5722  0.3575 -0.4796
  404MOL0     O53231   6.586   0.434   1.932 -0.1004  0.5156  0.8350
  404MOL0     C53232   6.522   0.304   1.936 -0.1446 -0.7419  0.3926
  404MOL0     C53233   6.378   0.326   1.940  0.0126 -0.3726  0.0273
  404MOL0     C53234   6.301   0.196   1.934  0.2592 -0.0466  0.2570
  404MOL0     C53235   6.166   0.215   1.995  0.8822 -0.1068 -0.3949
  404MOL0     C53236   6.069   0.296   1.904  0.5003 -0.2815  0.1500
  404MOL0     C53237   6.028   0.230   1.773 -0.0024  0.2589  0.7026
  404MOL0     C53238   5.905   0.300   1.707  0.3571 -0.9231 -0.5753
  404MOL0     C53239   5.770   0.291   1.782 -0.9632  1.1005  0.6668
  404MOL0    Cl53240   5.726   0.117   1.780 -0.2901 -0.0499  0.1347
  404MOL0     C53241   6.782   0.563   1.883 -0.4337 -0.2126 -0.3265
  404MOL0     C53242   6.923   0.571   1.853  0.4120 -0.5757 -0.7134
  404MOL0     O53243   7.169   0.633   2.042  0.7247  0.4611 -0.6238
  404MOL0     C53244   7.425   0.461   1.859 -0.6532  0.1554 -0.4532
  404MOL0     C53245   7.564   0.439   1.867 -0.4772  0.1171  0.0032
  404MOL0     N53246   8.385   0.534   2.005  0.0892  0.3305 -0.3177
  404MOL0     N53247   8.483   0.614   2.037  0.2138 -0.2119  0.6427
  404MOL0     C53248   9.349   1.542   2.187  1.0070 -0.7986 -0.4037
  404MOL0     C53249   9.413   1.660   2.221  0.6031  0.0119 -0.4957
  404MOL0     C53250   9.549   2.100   2.187  0.7322 -0.3343  0.6309
  404MOL0     C53251   9.604   2.193   2.096  0.8669  0.4642  0.6908
  404MOL0     C53252   9.656   2.308   2.143 -0.2468 -0.0005 -0.1416
  404MOL0     C53253   9.662   2.341   2.276 -0.3417 -0.3491  0.7368
  404MOL0     O53254   9.714   2.464   2.303 -0.2089 -0.0754  0.6028
  404MOL0     C53255   9.762   2.489   2.438 -0.8378  0.5362  0.7178
  404MOL0     C53256   9.829   2.630   2.444 -0.8889  0.0690  0.3264
  404MOL0     C53257   9.740   2.738   2.515  0.0251 -0.1893 -0.1563
  404MOL0     C53258   9.812   2.865   2.549  0.2165 -0.2873  1.0475
  404MOL0     C53259   9.903   2.837   2.658  0.2956 -0.3190 -0.3963
  404MOL0     C53260   9.960   2.810   2.762 -0.3546 -0.6716  0.9691
  404MOL0     C53261   9.623   2.245   2.369  0.1597  0.3247  0.4658
  404MOL0     C53262   9.565   2.125   2.331  0.6092  0.3909  0.8384
  404MOL0     H53263   9.198   1.891   2.099 -0.1547  0.6433  2.9720
  404MOL0     H53264   9.074   1.661   2.031 -0.0492 -2.0421 -0.9609
  404MOL0     H53265   9.080   1.318   1.940  1.0708  0.2491  0.1744
  404MOL0     H53266   9.082   1.484   1.903 -2.4791  0.8588  0.2323
  404MOL0     H53267   8.898   1.534   2.072  0.0640 -0.3235  0.6207
  404MOL0     H53268   8.936   1.382   2.146  2.3439 -3.4794 -1.5399
  404MOL0     H53269   8.854   1.390   1.860  0.5970 -4.6764 -1.7820
  404MOL0     H53270   8.725   1.378   1.991 -0.0139  0.1056  1.0051
  404MOL0     H53271   8.940   1.177   1.896 -2.1307 -1.8353 -3.0536
  404MOL0     H53272   8.859   1.174   2.063  1.4926  3.5066 -0.0508
  404MOL0     H53273   8.729   1.156   1.786  0.2980 -2.3184 -0.1747
  404MOL0     H53274   8.645   1.162   1.937  0.0274 -1.2531  0.0097
  404MOL0     H53275   8.814   0.939   1.988  2.7847 -0.0882 -1.2668
  404MOL0     H53276   8.835   0.953   1.817 -0.5359  2.8087 -1.1965
  404MOL0     H53277   8.576   0.943   1.799  1.0229 -1.0201 -1.7767
  404MOL0     H53278   8.673   0.801   1.823  0.8198 -1.1349  2.3494
  404MOL0     H53279   8.512   0.934   2.020 -1.8158 -1.3304 -1.2854
  404MOL0     H53280   8.630   0.811   2.069  0.3680  0.9389  0.4057
  404MOL0     H53281   8.312   0.802   1.820 -2.7769  0.7886  1.5395
  404MOL0     H53282   8.211   0.431   1.796 -0.2244  0.1557  2.4524
  404MOL0     H53283   8.195   0.583   1.715  0.2548  0.6320 -0.8281
  404MOL0     H53284   7.989   0.559   1.796  1.3947  0.8678 -0.2505
  404MOL0     H53285   8.066   0.668   1.913  0.1791 -0.1889  0.2205
  404MOL0     H53286   8.007   0.364   1.943 -0.5543 -1.0150  1.3414
  404MOL0     H53287   8.091   0.460   2.068 -1.1210 -0.1613  0.5856
  404MOL0     H53288   7.862   0.603   2.067 -0.0682 -0.4038 -0.9134
  404MOL0     H53289   7.860   0.452   2.154 -1.7907 -1.3191 -0.0020
  404MOL0     H53290   7.636   0.597   2.148 -1.2427  0.2823  1.1558
  404MOL0     H53291   7.392   0.622   2.153  0.9834  2.0419 -1.6654
  404MOL0     H53292   7.012   0.283   2.027  0.5232  0.1516  1.4995
  404MOL0     H53293   6.759   0.260   2.038 -2.9934  2.0450  1.1285
  404MOL0     H53294   6.543   0.266   2.037 -0.0216 -1.6283  0.0397
  404MOL0     H53295   6.553   0.232   1.859  1.8742  0.1494  0.2905
  404MOL0     H53296   6.354   0.396   1.859  0.7053 -1.9326 -1.6139
  404MOL0     H53297   6.345   0.390   2.022 -0.4017 -1.7144  0.9338
  404MOL0     H53298   6.355   0.122   1.995 -2.6918 -0.2958  2.8164
  404MOL0     H53299   6.304   0.153   1.834  1.3402 -1.3263  0.8038
  404MOL0     H53300   6.121   0.117   2.015  1.4346  0.1320  2.3516
  404MOL0     H53301   6.172   0.267   2.091  1.2545 -3.1252  1.3384
  404MOL0     H53302   6.109   0.396   1.885 -0.3671  0.2894  1.1787
  404MOL0     H53303   5.982   0.322   1.966 -1.0345 -1.7913 -1.2501
  404MOL0     H53304   5.998   0.126   1.791  1.6334 -0.4715 -0.4930
  404MOL0     H53305   6.111   0.235   1.701 -1.3041 -0.3477 -0.9157
  404MOL0     H53306   5.923   0.407   1.698 -2.0341 -0.4601 -0.3813
  404MOL0     H53307   5.888   0.258   1.607 -0.8782 -0.9163 -0.3854
  404MOL0     H53308   5.687   0.342   1.732 -1.4361  0.2959  0.6133
  404MOL0     H53309   5.771   0.332   1.883  0.1000 -2.4495  2.2603
  404MOL0     H53310   6.713   0.642   1.854 -0.9758 -0.6158 -0.1638
  404MOL0     H53311   6.960   0.659   1.802 -2.0592  0.2369 -1.2722
  404MOL0     H53312   7.373   0.409   1.778 -0.2606 -0.9514 -0.0087
  404MOL0     H53313   7.617   0.394   1.784 -1.0934  0.9493 -0.8620
  404MOL0     H53314   9.394   1.449   2.220  1.3675  0.1627  2.0268
  404MOL0     H53315   9.507   1.667   2.276  0.2053  3.2834 -0.0289
  404MOL0     H53316   9.595   2.177   1.989  1.6175 -0.9557  0.8106
  404MOL0     H53317   9.697   2.384   2.076 -1.6054  0.9612  0.0908
  404MOL0     H53318   9.837   2.415   2.468  0.8424  0.7074 -2.6028
  404MOL0     H53319   9.679   2.485   2.509 -1.5791 -0.0591 -0.1499
  404MOL0     H53320   9.928   2.620   2.489  0.8170  1.7492 -2.6962
  404MOL0     H53321   9.858   2.669   2.346  0.6575 -2.7264 -0.4037
  404MOL0     H53322   9.690   2.700   2.604 -0.3379 -0.1165 -0.3303
  404MOL0     H53323   9.660   2.754   2.442  0.3322  1.0898 -0.2425
  404MOL0     H53324   9.862   2.900   2.458 -1.8287  1.2084  0.4352
  404MOL0     H53325   9.743   2.943   2.581 -0.6026 -0.0227 -1.1853
  404MOL0     H53326   9.991   2.784   2.862  0.1823  0.3143  1.0682
  404MOL0     H53327   9.630   2.262   2.476  1.8382 -0.5013  0.5112
  404MOL0     H53328   9.533   2.058   2.410  0.0845 -0.6022 -0.1966
  405MOL0     O53329   4.871  10.731   8.357 -0.1012 -0.2066 -0.3498
  405MOL0     C53330   4.851  10.690   8.472  0.0961  0.6220  0.0252
  405MOL0     O53331   4.735  10.678   8.537  0.6724  0.4971  0.1815
  405MOL0     C53332   4.621  10.700   8.465 -0.6249  0.2780 -0.2462
  405MOL0     C53333   4.589  10.620   8.356  0.1217 -0.0235 -0.3886
  405MOL0     C53334   4.474  10.655   8.278  0.3664  0.1701 -0.2001
  405MOL0     C53335   4.383  10.765   8.312  0.3027  0.7851  0.0180
  405MOL0     O53336   4.279  10.790   8.225 -0.1635  0.2393  0.3610
  405MOL0     C53337   4.181  10.879   8.270  0.6232 -0.3289 -0.0114
  405MOL0     C53338   4.067  10.916   8.174  0.0316  0.1523 -0.2797
  405MOL0     C53339   4.006  10.797   8.100  0.2061  0.5926  0.3543
  405MOL0     C53340   3.873  10.821   8.029  0.5414 -0.2924 -0.0934
  405MOL0     C53341   3.765  10.865   8.126 -0.8445 -0.1003 -0.4648
  405MOL0     C53342   3.632  10.815   8.071  0.3355 -0.2120 -0.1317
  405MOL0     C53343   3.592  10.885   7.933  0.0322 -0.6370 -0.9654
  405MOL0     C53344   3.461  10.839   7.874 -0.9945 -0.4603 -0.2074
  405MOL0     N53345   3.347  10.855   7.965 -0.0317  0.1310 -0.7986
  405MOL0     C53346   3.262  10.963   7.966 -0.0463  0.6152  0.8131
  405MOL0     C53347   3.167  10.935   8.062  0.2988 -0.3761 -0.0970
  405MOL0     C53348   3.056  11.026   8.104  0.3199  0.0548 -0.1279
  405MOL0     C53349   2.973  11.085   7.983 -0.5503  0.0432  0.5131
  405MOL0     C53350   2.902  10.989   7.901  0.6254 -0.2829 -0.5246
  405MOL0     C53351   2.746  11.001   7.940 -0.8989  0.6586  0.2604
  405MOL0     O53352   2.670  10.937   7.840  0.2317  0.3772  0.1264
  405MOL0     C53353   2.529  10.930   7.863  0.4934  0.9921 -0.3808
  405MOL0     C53354   2.452  10.966   7.978 -0.0826  0.4204  0.2164
  405MOL0     C53355   2.309  10.952   7.974 -0.6885  0.7264  0.3981
  405MOL0     C53356   2.238  10.892   7.876  0.3216  1.0526  0.4649
  405MOL0     C53357   2.090  10.889   7.888  0.0564  0.0943 -1.2358
  405MOL0     O53358   2.019  10.898   7.771 -0.1208 -0.2868  0.0451
  405MOL0     C53359   1.885  10.906   7.762  0.4064 -1.0928 -0.1937
  405MOL0     C53360   1.792  10.932   7.866  0.0397  0.2585  0.6988
  405MOL0     C53361   1.661  10.958   7.833 -0.4468  0.8522  0.5640
  405MOL0     C53362   1.611  10.957   7.697 -0.0820 -0.0049 -0.1573
  405MOL0     O53363   1.482  10.998   7.660 -0.7956 -0.1806 -0.2827
  405MOL0     C53364   1.379  10.971   7.757 -0.4685 -0.3171 -0.4153
  405MOL0     C53365   1.237  10.997   7.714  0.2327  0.4421  0.6602
  405MOL0     C53366   1.143  11.009   7.835  0.5300 -0.1037  0.5611
  405MOL0     C53367   1.153  11.142   7.908 -0.5866  0.2348  0.4763
  405MOL0     C53368   1.063  11.255   7.841 -0.2244 -0.3173  0.2521
  405MOL0     C53369   0.905  11.225   7.847  0.0664 -0.2945 -0.2395
  405MOL0     C53370   0.839  11.218   7.986 -0.1486  0.1673  0.0371
  405MOL0     C53371   0.752  11.098   7.999  0.8163 -0.3519 -0.5226
  405MOL0    Cl53372   0.594  11.138   7.937 -0.3697 -0.1938  0.0254
  405MOL0     C53373   1.704  10.942   7.594  0.0224  0.0750  0.4039
  405MOL0     C53374   1.837  10.918   7.635 -0.1127  0.0669 -0.6266
  405MOL0     O53375   2.045  10.881   8.004 -0.2833 -0.2986 -0.0245
  405MOL0     C53376   2.314  10.842   7.763 -0.0919  0.3373 -0.6575
  405MOL0     C53377   2.455  10.871   7.756  0.0416  0.3109  0.6449
  405MOL0     N53378   3.204  10.818   8.125 -0.1770 -1.4698  0.2537
  405MOL0     N53379   3.311  10.782   8.073  0.0812  0.4597  0.0201
  405MOL0     C53380   4.415  10.831   8.434 -0.6633  0.4061  0.6105
  405MOL0     C53381   4.535  10.802   8.508 -0.0527  0.2603  0.3234
  405MOL0     C53382   4.970  10.665   8.555 -0.4455 -0.2164 -0.5587
  405MOL0     C53383   4.951  10.639   8.695 -0.2169  0.2406  0.9441
  405MOL0     C53384   5.063  10.624   8.784  0.7973  0.2932 -0.2306
  405MOL0     C53385   5.191  10.640   8.738  0.7797 -0.5338  1.5384
  405MOL0     O53386   5.300  10.628   8.820 -0.1968  0.2186  0.1029
  405MOL0     C53387   5.430  10.669   8.773 -0.8720  0.2016  0.3194
  405MOL0     C53388   5.530  10.682   8.882 -0.6239 -0.1539 -0.6130
  405MOL0     C53389   5.649  10.766   8.837 -0.2126  0.7211 -0.3289
  405MOL0     C53390   5.786  10.745   8.902  0.0216  0.1806 -0.7929
  405MOL0     C53391   5.826  10.609   8.907  0.4488  0.4725 -0.0637
  405MOL0     C53392   5.862  10.490   8.909  0.6220  0.1601  0.1115
  405MOL0     C53393   5.208  10.662   8.599 -0.2294  0.0882  0.4343
  405MOL0     C53394   5.102  10.672   8.510  0.3465  0.0946  0.4440
  405MOL0     H53395   4.646  10.528   8.345  1.8966  0.8492  1.0564
  405MOL0     H53396   4.446  10.599   8.189 -0.8411  1.1466 -0.4726
  405MOL0     H53397   4.217  10.976   8.305  0.9444 -0.6646  0.6139
  405MOL0     H53398   4.130  10.823   8.349  2.2809 -1.4138  0.3516
  405MOL0     H53399   4.105  10.989   8.102  0.4119  1.2212  0.9571
  405MOL0     H53400   3.994  10.972   8.233  0.0025  0.6465 -0.7804
  405MOL0     H53401   3.990  10.721   8.176  0.2894 -1.4493 -1.5803
  405MOL0     H53402   4.086  10.778   8.028  4.6617  2.1888  4.2866
  405MOL0     H53403   3.885  10.896   7.950 -3.3072 -0.1953 -0.7592
  405MOL0     H53404   3.840  10.730   7.979  2.1492 -0.6938 -0.4923
  405MOL0     H53405   3.774  10.971   8.150  1.5654 -0.9680  3.4464
  405MOL0     H53406   3.782  10.813   8.221 -1.1744 -2.6697 -1.7187
  405MOL0     H53407   3.549  10.843   8.136  0.3026  0.3742 -0.4176
  405MOL0     H53408   3.630  10.706   8.064  2.1439 -0.3825  1.2263
  405MOL0     H53409   3.574  10.991   7.953  2.1483 -0.5961  1.1288
  405MOL0     H53410   3.668  10.874   7.855 -1.0366  1.3162 -2.3576
  405MOL0     H53411   3.467  10.732   7.852 -2.9002 -0.4235 -1.0862
  405MOL0     H53412   3.442  10.904   7.788 -0.0799  1.4634  0.9600
  405MOL0     H53413   3.252  11.045   7.896  0.9618 -0.6407 -0.8590
  405MOL0     H53414   3.092  11.110   8.163 -0.1900  0.0949  0.1341
  405MOL0     H53415   2.990  10.966   8.167  0.4620 -3.0463 -2.6553
  405MOL0     H53416   3.050  11.127   7.918  0.2420 -0.0773  1.3710
  405MOL0     H53417   2.913  11.164   8.028  1.0373  1.5708  0.0693
  405MOL0     H53418   2.913  10.998   7.793  0.7357  2.2841 -0.3574
  405MOL0     H53419   2.932  10.887   7.926  2.3367  0.1558 -0.6597
  405MOL0     H53420   2.723  11.107   7.937 -0.0492  0.9204  1.9778
  405MOL0     H53421   2.733  10.955   8.038 -1.8723 -0.9984 -0.5947
  405MOL0     H53422   2.499  11.010   8.066  1.1627  0.5465 -0.4802
  405MOL0     H53423   2.257  10.978   8.065  1.7248 -1.3180  2.5274
  405MOL0     H53424   1.815  10.948   7.971 -0.1123 -0.0204  0.7749
  405MOL0     H53425   1.593  10.984   7.914 -1.5229 -0.4191  0.1126
  405MOL0     H53426   1.399  11.029   7.848 -4.2292  2.7433 -1.2870
  405MOL0     H53427   1.377  10.865   7.786  0.6562 -0.4112 -0.6326
  405MOL0     H53428   1.203  10.906   7.665 -1.0791  1.5850 -0.6528
  405MOL0     H53429   1.214  11.082   7.649 -3.0851 -1.7833 -1.3730
  405MOL0     H53430   1.157  10.921   7.899  0.2803 -0.8938 -0.4323
  405MOL0     H53431   1.041  10.996   7.797  0.9140  2.3427 -1.6173
  405MOL0     H53432   1.128  11.125   8.013 -1.6677 -0.8450  0.0603
  405MOL0     H53433   1.255  11.180   7.896 -0.2906 -1.0135 -1.4433
  405MOL0     H53434   1.093  11.265   7.736 -2.0718 -3.9232 -0.8006
  405MOL0     H53435   1.090  11.347   7.893 -0.0622  0.3580 -0.9948
  405MOL0     H53436   0.891  11.139   7.782  2.6795 -3.1330  2.5839
  405MOL0     H53437   0.853  11.304   7.792  1.0202  0.6539  0.1816
  405MOL0     H53438   0.920  11.213   8.060 -0.2691 -2.1274  0.0928
  405MOL0     H53439   0.781  11.306   8.015 -1.4019  0.1128 -2.0995
  405MOL0     H53440   0.760  11.084   8.107 -0.3018 -0.9154 -0.4985
  405MOL0     H53441   0.806  11.015   7.953  2.5653  1.1082 -1.2209
  405MOL0     H53442   1.677  10.975   7.494  2.1007  1.6286  0.2887
  405MOL0     H53443   1.917  10.919   7.561  0.4424 -0.9325 -0.0701
  405MOL0     H53444   2.276  10.783   7.680  0.1554 -0.5571 -0.1448
  405MOL0     H53445   2.513  10.839   7.671  1.0702 -1.4261  1.9233
  405MOL0     H53446   4.350  10.907   8.478  1.7715  1.9824  1.7116
  405MOL0     H53447   4.565  10.857   8.597  1.7289  0.2911 -0.2581
  405MOL0     H53448   4.847  10.631   8.724 -1.0891 -0.8015 -2.0643
  405MOL0     H53449   5.040  10.607   8.889  0.7397  0.3090 -0.2406
  405MOL0     H53450   5.420  10.773   8.741 -1.1923  0.3698  0.9463
  405MOL0     H53451   5.464  10.613   8.685  0.9483 -0.8142  1.6087
  405MOL0     H53452   5.487  10.745   8.961 -0.7853 -0.0252 -0.8020
  405MOL0     H53453   5.558  10.580   8.909 -0.0300  0.3914  0.9798
  405MOL0     H53454   5.635  10.871   8.863 -0.5211  1.2509 -2.4766
  405MOL0     H53455   5.652  10.755   8.728 -0.1721 -1.9004 -0.1311
  405MOL0     H53456   5.861  10.808   8.854  0.6894 -0.2832 -0.3815
  405MOL0     H53457   5.777  10.776   9.007 -0.4729 -2.4746  0.0512
  405MOL0     H53458   5.887  10.386   8.915 -2.1401 -0.4939  2.3386
  405MOL0     H53459   5.306  10.665   8.553 -0.4371  0.0532 -0.0245
  405MOL0     H53460   5.123  10.692   8.405 -1.7303 -2.0118 -0.4785
  406MOL0     O53461   8.200   7.705   3.364 -1.0113  0.1533  0.0025
  406MOL0     C53462   8.238   7.822   3.374 -0.0278  0.1427  1.3155
  406MOL0     O53463   8.160   7.926   3.419 -0.2022 -0.1174  0.1585
  406MOL0     C53464   8.020   7.915   3.423  0.6508 -0.1540 -0.4087
  406MOL0     C53465   7.939   8.008   3.501  0.0175  0.5810  0.0057
  406MOL0     C53466   7.804   8.006   3.494 -0.2797 -0.7439  0.8462
  406MOL0     C53467   7.731   7.920   3.411  0.5669 -0.3147  0.1260
  406MOL0     O53468   7.596   7.935   3.399 -0.0604  0.3415  0.3024
  406MOL0     C53469   7.557   7.948   3.262 -0.4718 -0.1252  0.1535
  406MOL0     C53470   7.416   8.007   3.236 -0.4094  0.6832 -0.7086
  406MOL0     C53471   7.325   7.954   3.343  0.8704 -0.6537  0.1079
  406MOL0     C53472   7.177   7.987   3.310 -0.0700  0.4263  0.3697
  406MOL0     C53473   7.086   7.975   3.431  0.6080  0.3186 -0.1707
  406MOL0     C53474   6.948   7.958   3.376 -0.2315 -0.2736  0.3411
  406MOL0     C53475   6.842   7.942   3.482  0.3648  1.0142 -0.3590
  406MOL0     C53476   6.830   7.799   3.545 -0.2249  0.3114 -0.1624
  406MOL0     N53477   6.697   7.786   3.607 -0.3240 -0.6293  0.9035
  406MOL0     C53478   6.659   7.829   3.729  0.1594  0.5698 -0.6657
  406MOL0     C53479   6.531   7.819   3.741  0.3474  0.2036  0.2998
  406MOL0     C53480   6.446   7.869   3.859 -0.2659  0.3456  0.5594
  406MOL0     C53481   6.314   7.795   3.870  0.6935  0.4170 -0.9018
  406MOL0     C53482   6.208   7.851   3.780  0.4656  0.0360  0.6971
  406MOL0     C53483   6.084   7.763   3.801  0.3978  0.6644 -0.7564
  406MOL0     O53484   5.973   7.853   3.771  0.8492  0.7561  0.0249
  406MOL0     C53485   5.844   7.804   3.764 -0.2658  0.3342 -0.6131
  406MOL0     C53486   5.747   7.882   3.699 -0.4303  0.1758 -0.7380
  406MOL0     C53487   5.615   7.839   3.702  0.3594 -0.1067 -0.2041
  406MOL0     C53488   5.573   7.721   3.765  0.7560  0.2871 -0.7318
  406MOL0     C53489   5.433   7.671   3.779 -0.9167  0.4283  0.2572
  406MOL0     O53490   5.408   7.559   3.849  0.2147  0.2015 -0.1183
  406MOL0     C53491   5.277   7.522   3.879  0.1115  0.5709  0.0699
  406MOL0     C53492   5.192   7.474   3.783 -0.1951 -0.4867  0.0305
  406MOL0     C53493   5.054   7.450   3.816  0.8330  0.5289 -0.8791
  406MOL0     C53494   5.010   7.468   3.951 -1.0554  0.3287 -0.3933
  406MOL0     O53495   4.886   7.444   4.001 -0.0548 -0.1829 -0.1380
  406MOL0     C53496   4.774   7.438   3.915 -0.2324  0.2828  0.5407
  406MOL0     C53497   4.660   7.365   3.993  0.0476  0.3518 -0.0940
  406MOL0     C53498   4.531   7.338   3.908  0.3730  0.2769 -0.1041
  406MOL0     C53499   4.415   7.285   3.992 -0.7277  0.7032 -1.0856
  406MOL0     C53500   4.295   7.284   3.907  0.7375  0.3245 -0.9455
  406MOL0     C53501   4.188   7.194   3.961  0.0304 -0.2558  0.6706
  406MOL0     C53502   4.054   7.201   3.886  0.7478  0.1127  0.0011
  406MOL0     C53503   4.078   7.202   3.731  0.3013  0.6608 -0.1406
  406MOL0    Cl53504   3.932   7.186   3.637 -0.0386 -0.0846 -0.3812
  406MOL0     C53505   5.099   7.512   4.047 -0.0643 -0.8843  0.0482
  406MOL0     C53506   5.225   7.540   4.005 -0.8054 -0.5854 -0.2983
  406MOL0     O53507   5.349   7.750   3.741 -0.1703  0.1840 -0.0992
  406MOL0     C53508   5.672   7.646   3.824 -0.6484  0.1878 -1.0261
  406MOL0     C53509   5.802   7.685   3.827 -0.1668  0.3627  0.3829
  406MOL0     N53510   6.480   7.773   3.615 -0.7834 -0.1834 -0.6363
  406MOL0     N53511   6.585   7.763   3.538 -1.2335 -0.0400  0.8764
  406MOL0     C53512   7.798   7.832   3.333 -0.8466 -0.0273  1.0886
  406MOL0     C53513   7.944   7.832   3.335  0.1592  0.0254  0.2937
  406MOL0     C53514   8.387   7.852   3.344  0.1435 -0.2733  0.4698
  406MOL0     C53515   8.436   7.979   3.348 -0.1008 -0.2983 -0.1180
  406MOL0     C53516   8.562   8.013   3.321 -0.5873 -0.0120 -0.0442
  406MOL0     C53517   8.658   7.913   3.288 -0.1480  0.7432  0.7910
  406MOL0     O53518   8.791   7.944   3.284  0.1555  0.3313 -0.0909
  406MOL0     C53519   8.823   8.073   3.217 -0.0819  0.2973  0.0707
  406MOL0     C53520   8.947   8.046   3.126  0.1282  0.0487 -0.4593
  406MOL0     C53521   9.059   7.985   3.204  0.2290 -0.2443 -0.5324
  406MOL0     C53522   9.180   7.975   3.119  0.4647  0.2575  0.3327
  406MOL0     C53523   9.187   7.850   3.041 -0.6967 -0.0686  0.5554
  406MOL0     C53524   9.206   7.750   2.978 -0.3232  0.3686 -0.3871
  406MOL0     C53525   8.607   7.781   3.278 -0.4042  0.1120 -0.4026
  406MOL0     C53526   8.475   7.746   3.319 -0.5852  0.0096 -0.2982
  406MOL0     H53527   7.996   8.082   3.556 -1.0046  2.7664 -1.7115
  406MOL0     H53528   7.747   8.045   3.578 -2.2636 -2.8513  0.6121
  406MOL0     H53529   7.557   7.844   3.228  1.0938 -0.2499  0.4492
  406MOL0     H53530   7.635   8.002   3.208  1.3157 -0.3388  2.3759
  406MOL0     H53531   7.377   7.996   3.134 -0.9953  1.7854 -0.6228
  406MOL0     H53532   7.434   8.114   3.252 -3.3898  1.3896 -1.4364
  406MOL0     H53533   7.357   8.002   3.435  3.2767  1.6953 -1.7892
  406MOL0     H53534   7.334   7.845   3.353  4.7983 -0.6302 -1.3023
  406MOL0     H53535   7.181   8.092   3.278  4.6963  0.3024 -0.2047
  406MOL0     H53536   7.140   7.927   3.225 -4.8738  3.4715 -0.0820
  406MOL0     H53537   7.089   8.069   3.488  0.6019 -0.8976  1.9436
  406MOL0     H53538   7.123   7.888   3.486 -0.1228  0.3569  0.3910
  406MOL0     H53539   6.945   7.881   3.299  0.6412  1.9756 -2.0921
  406MOL0     H53540   6.926   8.047   3.317  1.8885 -1.4802 -2.4679
  406MOL0     H53541   6.863   8.012   3.563  0.9253  2.8454 -2.0048
  406MOL0     H53542   6.743   7.965   3.441  0.3848 -0.0557 -1.0542
  406MOL0     H53543   6.904   7.791   3.625  1.0903  1.1270 -1.2653
  406MOL0     H53544   6.847   7.723   3.468 -2.1155 -0.5118  0.1548
  406MOL0     H53545   6.730   7.859   3.805 -0.7653 -0.8133  0.8207
  406MOL0     H53546   6.429   7.977   3.870 -1.3183  0.3332 -0.6865
  406MOL0     H53547   6.510   7.850   3.946 -1.2571  1.4373  1.5744
  406MOL0     H53548   6.281   7.808   3.973  0.7816 -0.3560 -0.7709
  406MOL0     H53549   6.315   7.686   3.862 -0.1916  0.0679  2.4176
  406MOL0     H53550   6.175   7.947   3.821  1.0560 -0.1652  1.6753
  406MOL0     H53551   6.243   7.868   3.678  0.2510  0.3393  0.6717
  406MOL0     H53552   6.073   7.717   3.900 -2.1832  1.0182 -0.8087
  406MOL0     H53553   6.094   7.688   3.721 -0.0252  1.2057 -1.3266
  406MOL0     H53554   5.781   7.975   3.653  0.1375  0.1983 -0.2807
  406MOL0     H53555   5.538   7.911   3.673 -1.1090 -1.5320  0.0301
  406MOL0     H53556   5.232   7.452   3.685  0.6244  0.5297  0.1175
  406MOL0     H53557   4.985   7.426   3.736  0.1184  0.7401 -0.3378
  406MOL0     H53558   4.798   7.372   3.831  1.9766  1.8200 -0.1317
  406MOL0     H53559   4.751   7.539   3.880 -0.3868  0.2387  0.5190
  406MOL0     H53560   4.626   7.422   4.080 -2.3074  0.5995 -1.1104
  406MOL0     H53561   4.707   7.274   4.032 -0.3494  0.0820 -0.2368
  406MOL0     H53562   4.548   7.261   3.833 -2.9011 -0.4885 -0.2411
  406MOL0     H53563   4.496   7.427   3.853 -1.2869  0.2543  0.8391
  406MOL0     H53564   4.447   7.187   4.029 -1.3426  0.8801 -0.0427
  406MOL0     H53565   4.398   7.349   4.080 -0.3302 -0.9066  0.2162
  406MOL0     H53566   4.316   7.245   3.807 -2.4391 -2.5594 -0.7057
  406MOL0     H53567   4.250   7.383   3.911  0.8786  0.3915 -1.0418
  406MOL0     H53568   4.166   7.206   4.068 -2.0889  1.3914  0.1286
  406MOL0     H53569   4.230   7.093   3.957 -1.0460 -0.7023  0.0217
  406MOL0     H53570   4.004   7.111   3.924  2.2433 -0.2226  1.2258
  406MOL0     H53571   3.993   7.286   3.919 -0.8988 -1.3277  0.8633
  406MOL0     H53572   4.147   7.124   3.698  0.4016  0.8522 -0.3819
  406MOL0     H53573   4.115   7.304   3.713 -0.3323  0.5299 -2.4858
  406MOL0     H53574   5.053   7.546   4.139  1.5189 -1.5132  1.1146
  406MOL0     H53575   5.290   7.590   4.076  2.2700 -3.3405 -0.9391
  406MOL0     H53576   5.645   7.556   3.878 -1.3372  1.1934  0.3460
  406MOL0     H53577   5.870   7.614   3.872 -2.4380 -1.9824  0.3294
  406MOL0     H53578   7.750   7.769   3.259  2.5757 -1.8462  0.1814
  406MOL0     H53579   7.997   7.769   3.265 -2.0765  0.9205 -2.4051
  406MOL0     H53580   8.376   8.065   3.378 -1.4236 -0.2963 -2.5318
  406MOL0     H53581   8.598   8.115   3.331 -1.5097  0.3765 -0.5400
  406MOL0     H53582   8.852   8.148   3.291  3.9578  0.3419 -1.3333
  406MOL0     H53583   8.738   8.110   3.158 -0.7132 -0.9287  0.1742
  406MOL0     H53584   8.913   7.984   3.043 -0.6728  0.1781 -0.2349
  406MOL0     H53585   8.981   8.137   3.077  1.1164 -0.0558 -0.0027
  406MOL0     H53586   9.029   7.888   3.246 -0.3924  0.8418  1.7330
  406MOL0     H53587   9.087   8.045   3.291 -2.6236 -0.1553  0.4312
  406MOL0     H53588   9.166   8.059   3.050  4.7550  0.7668 -0.2208
  406MOL0     H53589   9.267   7.997   3.181  0.7094  2.2834 -0.6502
  406MOL0     H53590   9.213   7.655   2.930 -2.8060  0.5300 -1.2658
  406MOL0     H53591   8.672   7.698   3.255  0.0298  0.0219  1.0863
  406MOL0     H53592   8.444   7.644   3.302  0.3636 -0.1281 -1.2813
  407MOL0     O53593   0.045   9.521   0.889  0.2285  0.5272 -0.1161
  407MOL0     C53594   0.104   9.541   0.782 -0.1075 -0.4718 -0.5175
  407MOL0     O53595   0.052   9.512   0.655 -0.1941  0.4858  1.0265
  407MOL0     C53596  -0.078   9.471   0.633 -1.0871  0.3108  0.8083
  407MOL0     C53597  -0.182   9.520   0.703  0.6895 -0.7005 -0.0958
  407MOL0     C53598  -0.316   9.490   0.668 -0.4740  0.1742 -0.3339
  407MOL0     C53599  -0.339   9.393   0.570 -0.1229  0.0227  0.1539
  407MOL0     O53600  -0.462   9.345   0.539  0.0585  0.7861  0.0258
  407MOL0     C53601  -0.569   9.344   0.636 -0.9773 -0.6555 -0.4019
  407MOL0     C53602  -0.645   9.478   0.615 -0.7561 -0.0140 -0.2324
  407MOL0     C53603  -0.758   9.484   0.720 -0.4814 -0.0411  0.3251
  407MOL0     C53604  -0.813   9.624   0.739 -0.0511  0.1823  0.6922
  407MOL0     C53605  -0.952   9.618   0.810  0.1164  0.8637 -1.0333
  407MOL0     C53606  -0.984   9.752   0.883 -1.4989  0.0838 -0.4391
  407MOL0     C53607  -1.121   9.736   0.956  0.1363 -0.3749  0.5680
  407MOL0     C53608  -1.101   9.655   1.088 -0.3176 -0.3169  0.3089
  407MOL0     N53609  -1.229   9.680   1.158  0.1131 -0.5977 -1.0170
  407MOL0     C53610  -1.340   9.607   1.150  0.0289 -0.0036  0.2879
  407MOL0     C53611  -1.441   9.652   1.227 -0.2441 -0.2473  0.6317
  407MOL0     C53612  -1.581   9.607   1.180  0.2575 -0.1832  0.1522
  407MOL0     C53613  -1.678   9.727   1.166  0.5815 -0.3037 -0.1058
  407MOL0     C53614  -1.828   9.688   1.135  0.6228 -0.0262 -0.0306
  407MOL0     C53615  -1.848   9.630   0.995  0.7491 -0.2334 -0.1121
  407MOL0     O53616  -1.961   9.535   0.981 -0.0729  0.5824 -0.5586
  407MOL0     C53617  -2.088   9.585   0.994 -0.1046 -0.6524  0.4281
  407MOL0     C53618  -2.130   9.717   0.987 -0.0268  0.2614 -0.7918
  407MOL0     C53619  -2.261   9.758   0.982 -0.1395  0.6393 -0.1297
  407MOL0     C53620  -2.360   9.659   0.970  0.3184  0.0025 -0.4305
  407MOL0     C53621  -2.501   9.696   0.959 -0.8347 -0.1125  0.2706
  407MOL0     O53622  -2.587   9.587   0.943 -0.9002 -0.1023 -0.3856
  407MOL0     C53623  -2.721   9.603   0.926 -0.5219 -0.2208 -0.2761
  407MOL0     C53624  -2.804   9.695   0.978  0.1800  0.5056 -0.4507
  407MOL0     C53625  -2.936   9.680   0.959  0.7332 -0.4470 -0.4352
  407MOL0     C53626  -2.986   9.568   0.883 -0.5073  0.2618 -0.6530
  407MOL0     O53627  -3.121   9.556   0.857 -0.2297 -0.5249  0.1155
  407MOL0     C53628  -3.173   9.667   0.785 -0.2357  0.0427 -0.2021
  407MOL0     C53629  -3.303   9.639   0.709  0.1009 -0.0110  1.2791
  407MOL0     C53630  -3.413   9.571   0.785  0.0268 -1.9966  0.1063
  407MOL0     C53631  -3.526   9.548   0.691  0.4618  0.7114  0.4920
  407MOL0     C53632  -3.631   9.442   0.745 -0.4164 -0.8076 -0.0939
  407MOL0     C53633  -3.693   9.480   0.883 -0.0337  0.5497  0.1845
  407MOL0     C53634  -3.786   9.368   0.948 -0.2585  0.1463 -0.2827
  407MOL0     C53635  -3.780   9.362   1.098  0.5988 -0.1252 -0.4506
  407MOL0    Cl53636  -3.856   9.204   1.155 -0.2992 -0.1143  0.1271
  407MOL0     C53637  -2.906   9.479   0.823 -0.0084 -0.3303  0.0642
  407MOL0     C53638  -2.768   9.500   0.838 -0.3868 -0.0462 -1.0981
  407MOL0     O53639  -2.534   9.811   0.944  0.4787 -0.4401 -0.6051
  407MOL0     C53640  -2.322   9.521   0.974 -0.3120 -0.5702 -0.1061
  407MOL0     C53641  -2.184   9.490   0.988  0.6569  0.2419 -0.0310
  407MOL0     N53642  -1.387   9.765   1.289 -0.0748 -0.6659 -0.5973
  407MOL0     N53643  -1.266   9.777   1.246  0.0768  0.3238  0.6244
  407MOL0     C53644  -0.236   9.353   0.490  0.2830  0.3638 -0.2484
  407MOL0     C53645  -0.100   9.393   0.524  0.4514  0.0376 -0.4572
  407MOL0     C53646   0.247   9.586   0.784  0.7138 -0.3796  0.2396
  407MOL0     C53647   0.316   9.601   0.661 -0.4527  0.6120  0.1611
  407MOL0     C53648   0.455   9.624   0.655  0.2325  0.4927 -0.6303
  407MOL0     C53649   0.524   9.628   0.780 -0.5825 -0.0355  0.9354
  407MOL0     O53650   0.650   9.682   0.763  0.3367 -0.9594  0.1479
  407MOL0     C53651   0.733   9.691   0.877  0.7208  0.4774 -0.1766
  407MOL0     C53652   0.876   9.726   0.835 -0.5044  0.4364  0.3385
  407MOL0     C53653   0.930   9.623   0.733  0.2431  0.1647  0.1853
  407MOL0     C53654   0.970   9.706   0.607  0.2590 -0.0266  0.2220
  407MOL0     C53655   1.013   9.616   0.505 -0.4077  0.9943 -0.1941
  407MOL0     C53656   1.058   9.543   0.421  0.1791  0.1342 -0.3512
  407MOL0     C53657   0.458   9.609   0.896  0.6829  0.1497 -1.0202
  407MOL0     C53658   0.323   9.578   0.899  0.7592 -0.9153 -0.2643
  407MOL0     H53659  -0.174   9.590   0.786 -1.3091 -1.2068  0.5935
  407MOL0     H53660  -0.394   9.527   0.735 -0.8993 -3.2049  1.2422
  407MOL0     H53661  -0.528   9.326   0.736 -1.5193  1.6634  0.3063
  407MOL0     H53662  -0.634   9.258   0.616  0.7414 -2.4106  1.1232
  407MOL0     H53663  -0.688   9.476   0.515 -1.0546  2.2082 -0.1891
  407MOL0     H53664  -0.581   9.564   0.636  1.1198 -1.0935 -1.2401
  407MOL0     H53665  -0.727   9.450   0.819  1.0189  1.6569  0.4921
  407MOL0     H53666  -0.838   9.421   0.679 -1.3061  1.6878 -0.8351
  407MOL0     H53667  -0.741   9.679   0.801 -1.0397  0.9259  1.1952
  407MOL0     H53668  -0.807   9.675   0.643  3.4557 -0.5415  0.3718
  407MOL0     H53669  -0.965   9.544   0.890  1.9947  2.3822  0.7831
  407MOL0     H53670  -1.029   9.603   0.734  0.8255  1.6245 -1.9195
  407MOL0     H53671  -0.980   9.823   0.799  5.0828  0.2584 -0.4787
  407MOL0     H53672  -0.905   9.781   0.953 -2.2688 -3.3384  2.0873
  407MOL0     H53673  -1.156   9.837   0.975 -0.7430 -0.4243 -0.6925
  407MOL0     H53674  -1.195   9.697   0.886 -1.5935  2.2959  0.7942
  407MOL0     H53675  -1.015   9.695   1.141  0.5972 -0.2673 -1.1467
  407MOL0     H53676  -1.086   9.549   1.064 -1.1963 -0.8206  1.8320
  407MOL0     H53677  -1.368   9.535   1.074  0.5771 -0.5592  0.6023
  407MOL0     H53678  -1.620   9.535   1.253  0.4836 -0.9916 -0.5172
  407MOL0     H53679  -1.577   9.553   1.085 -0.7446  1.2059 -0.7221
  407MOL0     H53680  -1.645   9.790   1.083 -1.7651  2.4697  0.9174
  407MOL0     H53681  -1.678   9.795   1.252 -0.1980 -1.3434  0.7372
  407MOL0     H53682  -1.865   9.623   1.215 -1.3906  0.4608 -0.5100
  407MOL0     H53683  -1.893   9.777   1.140 -0.9373 -1.1108 -0.2736
  407MOL0     H53684  -1.761   9.573   0.961 -1.7976 -2.6968 -3.0595
  407MOL0     H53685  -1.852   9.719   0.932  0.2568 -1.1206 -1.3702
  407MOL0     H53686  -2.058   9.796   1.008 -0.2365 -0.4508  3.3394
  407MOL0     H53687  -2.299   9.858   0.997 -2.3164 -0.2668  0.8572
  407MOL0     H53688  -2.766   9.776   1.038 -0.9054  0.7029 -0.0067
  407MOL0     H53689  -2.997   9.760   0.999  2.7724  0.4755  0.9849
  407MOL0     H53690  -3.108   9.709   0.708 -0.1682  0.4296  0.0631
  407MOL0     H53691  -3.190   9.742   0.863  1.0170 -0.5952  0.7361
  407MOL0     H53692  -3.282   9.564   0.631 -2.3507 -0.3939  0.9130
  407MOL0     H53693  -3.337   9.733   0.664 -1.2425 -1.0289  0.0664
  407MOL0     H53694  -3.441   9.641   0.863 -0.0279  0.1547 -1.7475
  407MOL0     H53695  -3.384   9.476   0.830  1.2070 -1.9981 -0.6185
  407MOL0     H53696  -3.576   9.643   0.674 -0.8548 -0.1019 -0.3761
  407MOL0     H53697  -3.489   9.506   0.596 -1.7176 -2.8623  1.0071
  407MOL0     H53698  -3.577   9.348   0.758  1.7065  0.5622  1.6336
  407MOL0     H53699  -3.716   9.418   0.680 -1.0876 -0.1379  0.5140
  407MOL0     H53700  -3.753   9.571   0.872 -0.0504  0.3428 -1.8641
  407MOL0     H53701  -3.607   9.498   0.948  0.7371 -0.1423 -0.6245
  407MOL0     H53702  -3.888   9.389   0.914 -0.0656  1.0968 -0.3085
  407MOL0     H53703  -3.765   9.268   0.909  0.1193  0.6578 -1.4507
  407MOL0     H53704  -3.849   9.441   1.130  0.3313 -0.1783 -0.8914
  407MOL0     H53705  -3.678   9.378   1.135  0.1344  1.0218  0.3829
  407MOL0     H53706  -2.935   9.398   0.757  0.1047 -0.4183  0.1205
  407MOL0     H53707  -2.697   9.435   0.788 -0.9025  0.1696 -2.1362
  407MOL0     H53708  -2.400   9.446   0.968 -1.2681  0.2721  1.2641
  407MOL0     H53709  -2.150   9.387   0.988 -0.0456 -0.0227 -1.5851
  407MOL0     H53710  -0.252   9.277   0.413  1.3063 -1.2552  1.0611
  407MOL0     H53711  -0.009   9.370   0.470  1.0526 -0.4772  0.7155
  407MOL0     H53712   0.272   9.586   0.562 -0.2894 -2.7103  0.4754
  407MOL0     H53713   0.516   9.639   0.567  2.5923 -1.2887  0.5740
  407MOL0     H53714   0.735   9.589   0.918 -1.1474 -0.4786 -2.2732
  407MOL0     H53715   0.698   9.767   0.947  1.9533  2.1852 -1.3502
  407MOL0     H53716   0.882   9.829   0.798 -0.9155  0.6274  0.8029
  407MOL0     H53717   0.938   9.717   0.925 -1.8017  1.9156  1.4133
  407MOL0     H53718   0.851   9.551   0.711 -2.6142  1.6567  4.3696
  407MOL0     H53719   1.014   9.568   0.778 -0.7636 -0.8542  0.8618
  407MOL0     H53720   0.882   9.759   0.571 -0.3996 -0.9822  0.3991
  407MOL0     H53721   1.051   9.777   0.628  0.3695 -0.5188  1.5355
  407MOL0     H53722   1.108   9.486   0.345 -2.9414 -0.3283 -2.2312
  407MOL0     H53723   0.507   9.612   0.992  1.6679 -1.5627 -1.4231
  407MOL0     H53724   0.282   9.558   0.998 -3.3530 -0.2238 -1.6373
  408MOL0     O53725   7.590   0.362   7.062 -0.1644  0.1655  0.0219
  408MOL0     C53726   7.631   0.276   7.138  0.7134 -0.2904 -0.2699
  408MOL0     O53727   7.557   0.189   7.207  0.3330  0.0102 -0.0433
  408MOL0     C53728   7.420   0.197   7.214 -0.5671  0.7535 -0.4293
  408MOL0     C53729   7.365   0.173   7.343 -0.2401 -0.3013 -0.6973
  408MOL0     C53730   7.226   0.161   7.362  0.2621 -0.2928  0.0685
  408MOL0     C53731   7.140   0.186   7.258 -0.2673 -0.4063 -0.4314
  408MOL0     O53732   7.008   0.199   7.285  0.4596 -0.3517  0.2563
  408MOL0     C53733   6.932   0.314   7.249  0.4018 -0.2696 -0.7823
  408MOL0     C53734   6.779   0.278   7.232 -0.3029  0.1305  0.2508
  408MOL0     C53735   6.715   0.295   7.092  0.6150  0.7582  0.0221
  408MOL0     C53736   6.566   0.279   7.109 -0.7317  0.0175 -0.4278
  408MOL0     C53737   6.512   0.271   6.961 -0.5662 -0.1312 -0.2302
  408MOL0     C53738   6.364   0.239   6.976  0.5175  0.4848 -0.5923
  408MOL0     C53739   6.291   0.191   6.844  0.0168 -0.0749  0.0646
  408MOL0     C53740   6.235   0.318   6.765  0.4036 -0.0021 -0.0527
  408MOL0     N53741   6.111   0.282   6.692 -0.4968  0.5011 -0.0074
  408MOL0     C53742   5.996   0.222   6.741  0.7017  0.0807 -0.4303
  408MOL0     C53743   5.921   0.212   6.626 -0.0813 -0.2435 -0.2335
  408MOL0     C53744   5.790   0.150   6.628 -0.3639 -0.5490 -0.6494
  408MOL0     C53745   5.693   0.252   6.686 -0.0952  0.2218 -0.2258
  408MOL0     C53746   5.550   0.202   6.671 -0.8090 -0.0866  0.0187
  408MOL0     C53747   5.479   0.183   6.801 -0.3403  0.5763  1.1561
  408MOL0     O53748   5.364   0.111   6.768  0.0079  0.0975  0.3560
  408MOL0     C53749   5.250   0.177   6.757  0.4190  0.3809 -0.0377
  408MOL0     C53750   5.235   0.315   6.793  0.2202  0.5344  0.0341
  408MOL0     C53751   5.114   0.380   6.785 -0.3520  0.9703 -0.0221
  408MOL0     C53752   5.000   0.305   6.737  0.2438  0.1388 -0.9274
  408MOL0     C53753   4.863   0.362   6.748 -0.1976 -0.6811  0.2527
  408MOL0     O53754   4.765   0.286   6.694 -0.2007 -0.2009 -0.1788
  408MOL0     C53755   4.644   0.351   6.688 -0.6366 -0.4178  0.4818
  408MOL0     C53756   4.634   0.444   6.581  0.4192  0.6222 -0.1363
  408MOL0     C53757   4.510   0.509   6.553 -0.2418  0.5612  0.6876
  408MOL0     C53758   4.396   0.474   6.626  0.0984  0.1088  0.5931
  408MOL0     O53759   4.271   0.509   6.583  0.4456 -0.0315  0.5915
  408MOL0     C53760   4.196   0.580   6.682  0.0813  0.3934  0.3844
  408MOL0     C53761   4.054   0.613   6.636  0.0407  0.1865 -0.0096
  408MOL0     C53762   4.039   0.659   6.485 -0.2284  0.3835  0.4110
  408MOL0     C53763   3.892   0.684   6.452  0.0259 -0.1404  0.0006
  408MOL0     C53764   3.849   0.734   6.314  0.1322  0.2908  0.2603
  408MOL0     C53765   3.922   0.866   6.284  0.3428 -0.2230  0.7060
  408MOL0     C53766   3.883   0.927   6.145 -0.1458  0.2410  0.0530
  408MOL0     C53767   3.727   0.927   6.133  0.3143  0.7262  0.4648
  408MOL0    Cl53768   3.693   1.037   5.987  0.1236 -0.1880 -0.0504
  408MOL0     C53769   4.410   0.378   6.729  0.3223  0.9621 -0.1928
  408MOL0     C53770   4.533   0.319   6.766  0.6306  0.9618  0.5679
  408MOL0     O53771   4.856   0.478   6.796  0.4797  0.0688 -0.2296
  408MOL0     C53772   5.017   0.177   6.688 -0.7955  0.0638  0.1002
  408MOL0     C53773   5.140   0.111   6.705  0.3744 -0.5302  0.1089
  408MOL0     N53774   5.983   0.264   6.517 -0.4365  0.0531 -0.7661
  408MOL0     N53775   6.097   0.306   6.561 -0.6899  0.3433  0.5852
  408MOL0     C53776   7.194   0.212   7.132 -0.4149  0.1106  0.2170
  408MOL0     C53777   7.334   0.218   7.106 -0.2040 -0.1461 -0.3946
  408MOL0     C53778   7.772   0.248   7.137 -0.4700 -0.0731  0.6088
  408MOL0     C53779   7.857   0.343   7.080 -0.6381 -0.4853  0.3726
  408MOL0     C53780   7.991   0.315   7.088 -1.1814 -0.7847 -0.4887
  408MOL0     C53781   8.050   0.202   7.145 -0.5599 -0.0541 -0.1029
  408MOL0     O53782   8.182   0.201   7.181 -0.0548 -0.4398  0.3970
  408MOL0     C53783   8.251   0.080   7.168  0.1627 -0.0579 -0.1221
  408MOL0     C53784   8.399   0.104   7.183 -0.3584  0.4449  0.2615
  408MOL0     C53785   8.441   0.181   7.057  0.1961  0.2127  0.0306
  408MOL0     C53786   8.526   0.305   7.088 -0.0223 -0.3344 -0.4627
  408MOL0     C53787   8.649   0.249   7.135  0.4069  0.2899  0.4129
  408MOL0     C53788   8.754   0.198   7.179  0.2088  0.1112  0.0043
  408MOL0     C53789   7.962   0.109   7.208  0.6653 -0.4584 -0.6212
  408MOL0     C53790   7.825   0.135   7.200 -0.3733  0.0354  0.8605
  408MOL0     H53791   7.439   0.163   7.422  1.1871 -2.1044 -2.1822
  408MOL0     H53792   7.187   0.155   7.463 -1.3965 -2.0076 -0.5995
  408MOL0     H53793   6.972   0.380   7.172  0.6209  3.4173  2.1748
  408MOL0     H53794   6.939   0.376   7.339 -0.0010 -2.6186  0.9700
  408MOL0     H53795   6.726   0.344   7.302  1.1657  1.5986  0.0302
  408MOL0     H53796   6.769   0.174   7.265 -1.1305 -1.9820 -5.5835
  408MOL0     H53797   6.755   0.213   7.031  0.8341  0.1291  0.9824
  408MOL0     H53798   6.726   0.394   7.048 -0.3793  1.7838  1.9568
  408MOL0     H53799   6.543   0.189   7.166  0.3810  0.3094  0.5327
  408MOL0     H53800   6.524   0.362   7.167  1.9220  2.1533 -1.3674
  408MOL0     H53801   6.563   0.188   6.910 -1.0038 -0.4792 -0.1098
  408MOL0     H53802   6.523   0.364   6.906  0.1302  0.0350  0.1815
  408MOL0     H53803   6.313   0.322   7.024  0.2091 -0.5019  0.8543
  408MOL0     H53804   6.348   0.154   7.043  1.5435  1.7310  1.3526
  408MOL0     H53805   6.363   0.148   6.773  0.5845  0.6269  0.2038
  408MOL0     H53806   6.210   0.119   6.861 -0.5928 -0.8037 -4.6084
  408MOL0     H53807   6.314   0.364   6.705 -1.1754  0.1539 -2.1218
  408MOL0     H53808   6.203   0.395   6.835  0.1305  0.0142 -0.1909
  408MOL0     H53809   5.980   0.174   6.837 -0.4132 -1.7332 -1.4523
  408MOL0     H53810   5.800   0.060   6.691  1.7506  0.0548 -0.0526
  408MOL0     H53811   5.760   0.123   6.526 -1.5617 -1.1785 -0.1559
  408MOL0     H53812   5.701   0.339   6.620 -0.2175 -0.3399 -0.9813
  408MOL0     H53813   5.702   0.286   6.790  0.1510  0.4718 -0.3259
  408MOL0     H53814   5.485   0.261   6.607  0.0129  0.2623 -0.5206
  408MOL0     H53815   5.563   0.101   6.631  2.9732 -0.5088  1.8109
  408MOL0     H53816   5.474   0.275   6.860 -1.3207  0.5074  1.1945
  408MOL0     H53817   5.528   0.106   6.862 -0.6046 -0.9819 -0.5110
  408MOL0     H53818   5.318   0.380   6.820 -0.5661  0.4941  2.8344
  408MOL0     H53819   5.099   0.480   6.825 -0.6368  0.0990  2.2260
  408MOL0     H53820   4.720   0.463   6.518  0.0580  0.3427 -0.7198
  408MOL0     H53821   4.505   0.569   6.463  2.1895  1.0129  0.7971
  408MOL0     H53822   4.250   0.673   6.701  0.8243  0.1007 -0.2280
  408MOL0     H53823   4.188   0.528   6.778 -2.2423 -0.3078 -0.1216
  408MOL0     H53824   4.022   0.696   6.699  4.2338  3.8476 -2.1826
  408MOL0     H53825   3.992   0.525   6.660  2.6446 -0.8233  3.9054
  408MOL0     H53826   4.082   0.586   6.416 -0.6053  1.3940 -0.9538
  408MOL0     H53827   4.094   0.753   6.492 -0.4711  0.3912  2.8564
  408MOL0     H53828   3.845   0.587   6.466 -0.8631  0.0805 -1.3620
  408MOL0     H53829   3.861   0.749   6.535 -0.2193 -2.4730  1.8260
  408MOL0     H53830   3.740   0.740   6.319 -0.1603 -2.1744 -1.1083
  408MOL0     H53831   3.875   0.656   6.241 -2.4256 -0.5534  0.1455
  408MOL0     H53832   4.029   0.844   6.283 -0.1553 -3.1305 -0.0334
  408MOL0     H53833   3.911   0.945   6.358  0.9145 -1.9796  2.7735
  408MOL0     H53834   3.920   1.030   6.148  0.7408 -0.0958  2.1168
  408MOL0     H53835   3.938   0.868   6.071  0.1471 -0.5787  0.9022
  408MOL0     H53836   3.694   0.967   6.229 -0.6535 -0.5923  0.7035
  408MOL0     H53837   3.680   0.830   6.119  0.5152  0.9268 -2.2122
  408MOL0     H53838   4.323   0.350   6.788  1.8685 -1.2260  1.1662
  408MOL0     H53839   4.539   0.240   6.839 -1.7433  1.0966  0.9828
  408MOL0     H53840   4.932   0.119   6.653 -0.4810  0.4770 -1.4241
  408MOL0     H53841   5.143   0.003   6.694 -0.8535 -0.8923  2.7059
  408MOL0     H53842   7.128   0.231   7.049  0.1202 -0.0796 -0.2558
  408MOL0     H53843   7.365   0.216   7.002 -0.3295  1.2480 -0.4744
  408MOL0     H53844   7.824   0.431   7.025  1.4646 -0.7883 -1.5153
  408MOL0     H53845   8.048   0.391   7.036  0.3565 -2.1635 -0.8905
  408MOL0     H53846   8.237   0.028   7.073  0.4873 -0.7486  0.2001
  408MOL0     H53847   8.232   0.009   7.249  0.0448  2.4117  2.1557
  408MOL0     H53848   8.420   0.152   7.279 -0.5549 -0.8270  0.9502
  408MOL0     H53849   8.454   0.010   7.175 -2.7531 -0.9176 -1.7896
  408MOL0     H53850   8.353   0.220   7.004 -0.7167  1.4580  2.3320
  408MOL0     H53851   8.506   0.114   7.001  0.5953  1.2136 -0.7159
  408MOL0     H53852   8.527   0.375   7.004 -3.1677  0.1203 -0.2404
  408MOL0     H53853   8.477   0.356   7.172 -0.1316 -2.2167  0.6596
  408MOL0     H53854   8.848   0.152   7.198  0.1461  0.4736  1.2477
  408MOL0     H53855   7.990   0.029   7.276 -1.8526 -0.8257  0.0749
  408MOL0     H53856   7.768   0.062   7.256  0.3588 -1.7819 -0.6383
  409MOL0     O53857   4.654   9.894   9.790  1.3566 -0.2511 -0.1473
  409MOL0     C53858   4.633   9.854   9.672 -0.0345 -0.3586  0.7092
  409MOL0     O53859   4.725   9.806   9.588 -0.6006 -0.0928 -0.0383
  409MOL0     C53860   4.859   9.829   9.621 -0.7541  0.8123 -0.5065
  409MOL0     C53861   4.908   9.946   9.681 -0.6603 -0.0645  0.5069
  409MOL0     C53862   5.045   9.961   9.712  0.0820  0.6960  0.3855
  409MOL0     C53863   5.137   9.859   9.694 -0.0548 -0.3910  0.2556
  409MOL0     O53864   5.266   9.881   9.725 -0.1238 -0.4478 -0.1474
  409MOL0     C53865   5.372   9.810   9.655  0.0318  0.4128  0.1731
  409MOL0     C53866   5.497   9.885   9.688  0.0787  0.2184  0.1142
  409MOL0     C53867   5.606   9.847   9.589  0.0894  0.2098  0.4100
  409MOL0     C53868   5.729   9.938   9.614  0.4773 -0.2322 -1.1629
  409MOL0     C53869   5.849   9.946   9.519  0.1368 -0.7306  0.0991
  409MOL0     C53870   5.963  10.034   9.573  0.3857  0.3088 -0.0547
  409MOL0     C53871   5.914  10.170   9.630  0.0259 -0.2632 -0.3039
  409MOL0     C53872   6.038  10.253   9.671  0.3757  0.8922 -0.3588
  409MOL0     N53873   6.122  10.310   9.572  0.3450 -0.3403 -0.0704
  409MOL0     C53874   6.083  10.345   9.444  0.3921  0.1154  0.0875
  409MOL0     C53875   6.164  10.448   9.406 -0.2954 -0.7714 -0.6490
  409MOL0     C53876   6.167  10.516   9.273  1.1490  0.1381  0.1508
  409MOL0     C53877   6.175  10.668   9.269 -0.0353 -0.5017  0.2030
  409MOL0     C53878   6.055  10.732   9.182  0.2999  0.2754  0.4215
  409MOL0     C53879   6.054  10.884   9.158 -0.3986  0.2819 -0.0964
  409MOL0     O53880   5.987  10.951   9.263  0.2954  0.2251 -0.1289
  409MOL0     C53881   5.852  10.975   9.262  0.0291  0.1175  0.5480
  409MOL0     C53882   5.807  11.087   9.187 -0.3765 -0.1798 -0.0890
  409MOL0     C53883   5.671  11.105   9.172 -0.0917 -0.1830  0.9889
  409MOL0     C53884   5.579  11.020   9.226  0.0865  0.2076 -0.2523
  409MOL0     C53885   5.436  11.048   9.216 -0.0179 -0.6697 -0.3551
  409MOL0     O53886   5.352  10.961   9.255  0.9927  0.9632  0.2995
  409MOL0     C53887   5.219  10.965   9.206 -0.6698 -0.3244 -0.5022
  409MOL0     C53888   5.113  10.991   9.291 -1.1500  0.4606  1.0159
  409MOL0     C53889   4.977  10.992   9.245 -0.3183  0.1896  0.2455
  409MOL0     C53890   4.961  10.998   9.107 -0.2682  0.5674  0.1355
  409MOL0     O53891   4.830  11.028   9.059  0.3339  1.3353 -0.1484
  409MOL0     C53892   4.780  10.938   8.956  0.1743  0.4856 -0.5594
  409MOL0     C53893   4.629  10.960   8.949 -0.0135 -0.4398  0.5970
  409MOL0     C53894   4.592  11.096   8.880 -0.3175 -0.1484 -0.7697
  409MOL0     C53895   4.444  11.109   8.872  1.2274 -0.4601  0.2538
  409MOL0     C53896   4.406  11.237   8.795  0.9133  0.6101 -1.0149
  409MOL0     C53897   4.255  11.267   8.812  0.0791 -0.0860  0.7072
  409MOL0     C53898   4.171  11.170   8.733 -0.5063 -0.0902 -0.6076
  409MOL0     C53899   4.021  11.199   8.737  0.9169 -0.4255  0.4322
  409MOL0    Cl53900   3.965  11.310   8.615 -0.1808 -0.1236  0.0687
  409MOL0     C53901   5.067  10.975   9.025 -0.0522  0.1909 -0.1010
  409MOL0     C53902   5.196  10.946   9.071 -0.2172  0.4959 -0.7592
  409MOL0     O53903   5.403  11.149   9.157 -0.2727 -0.5281  0.3415
  409MOL0     C53904   5.619  10.898   9.279 -0.7703  0.7735  0.2012
  409MOL0     C53905   5.756  10.888   9.315  0.0168  0.2170 -0.2659
  409MOL0     N53906   6.266  10.459   9.499  0.1099 -0.0976 -0.1848
  409MOL0     N53907   6.231  10.383   9.601 -0.5639  0.0290 -0.2273
  409MOL0     C53908   5.088   9.743   9.633 -0.2147  0.7916 -0.3730
  409MOL0     C53909   4.952   9.730   9.600 -0.1829  0.6404 -0.1748
  409MOL0     C53910   4.491   9.819   9.636  0.4069  0.0845  0.2579
  409MOL0     C53911   4.458   9.796   9.501 -0.8365 -0.2252 -0.6685
  409MOL0     C53912   4.323   9.786   9.462 -0.0108 -0.1239  0.5266
  409MOL0     C53913   4.223   9.807   9.554 -0.0827  0.0663  0.7961
  409MOL0     O53914   4.100   9.804   9.490 -0.4134 -0.6603 -0.4187
  409MOL0     C53915   3.981   9.827   9.568 -0.4689  0.4205  0.3516
  409MOL0     C53916   3.860   9.804   9.478 -0.3525  0.3766  1.3562
  409MOL0     C53917   3.735   9.885   9.532 -0.0203 -0.4954  0.3200
  409MOL0     C53918   3.673   9.845   9.667  0.7468  0.6295  0.5217
  409MOL0     C53919   3.563   9.930   9.700 -0.1495  0.2697 -0.2179
  409MOL0     C53920   3.463  10.000   9.728  0.3829 -0.0275  0.1180
  409MOL0     C53921   4.259   9.810   9.689 -0.2508 -0.2680 -0.0653
  409MOL0     C53922   4.395   9.821   9.731 -0.0900  0.1840  0.6948
  409MOL0     H53923   4.843  10.031   9.702  0.4086  1.6877 -2.6211
  409MOL0     H53924   5.070  10.055   9.761 -0.6496  1.4553 -0.6446
  409MOL0     H53925   5.347   9.807   9.548  1.1175 -0.0908 -0.0814
  409MOL0     H53926   5.383   9.707   9.690  2.1285  0.7062  0.4947
  409MOL0     H53927   5.535   9.861   9.788 -1.2548 -1.9883  0.1604
  409MOL0     H53928   5.483   9.993   9.684  2.1595  0.5291  0.2774
  409MOL0     H53929   5.571   9.847   9.485  0.8689 -1.0532  0.1327
  409MOL0     H53930   5.631   9.741   9.597 -0.5084 -0.0308 -0.6547
  409MOL0     H53931   5.689  10.038   9.636 -2.4738 -1.1335 -1.9282
  409MOL0     H53932   5.765   9.898   9.709 -2.4400 -2.3104 -0.7831
  409MOL0     H53933   5.819   9.971   9.417  1.9154  0.1585 -0.2442
  409MOL0     H53934   5.886   9.843   9.514  2.4892  0.0297  0.7960
  409MOL0     H53935   6.037  10.053   9.494 -0.3292  1.1037 -0.5524
  409MOL0     H53936   6.016   9.977   9.650 -1.4272 -0.8660  0.3782
  409MOL0     H53937   5.852  10.231   9.564  1.5337 -0.3388 -1.8750
  409MOL0     H53938   5.856  10.143   9.719  0.1282 -0.0384 -0.1679
  409MOL0     H53939   6.090  10.199   9.750  0.0392  0.2057 -0.6024
  409MOL0     H53940   5.997  10.338   9.726  0.7545  1.8431 -1.4939
  409MOL0     H53941   6.003  10.308   9.381  0.4682 -2.5183  1.3918
  409MOL0     H53942   6.074  10.496   9.220  1.6709  0.1398 -0.7869
  409MOL0     H53943   6.236  10.468   9.203  1.9982  1.0604  0.3240
  409MOL0     H53944   6.273  10.697   9.231 -0.1625  0.5535  0.6457
  409MOL0     H53945   6.178  10.712   9.369  1.8728  0.7216 -0.3569
  409MOL0     H53946   6.058  10.694   9.079  0.1219  0.8601  0.1972
  409MOL0     H53947   5.963  10.706   9.235  0.0779  1.2213  0.5161
  409MOL0     H53948   6.005  10.903   9.063 -0.2757  1.3959  0.0528
  409MOL0     H53949   6.157  10.918   9.144  0.4192 -0.7085  2.7776
  409MOL0     H53950   5.875  11.160   9.144  0.8123 -1.3043 -0.1936
  409MOL0     H53951   5.633  11.196   9.128  1.7902 -0.0713 -0.5308
  409MOL0     H53952   5.131  11.003   9.397  0.4459 -3.0753  1.2995
  409MOL0     H53953   4.894  10.991   9.315 -0.5716 -4.0347  0.1573
  409MOL0     H53954   4.814  10.834   8.962  0.0732  0.3148 -2.3250
  409MOL0     H53955   4.816  10.967   8.857 -1.9350  1.4014 -1.1162
  409MOL0     H53956   4.585  10.959   9.049 -0.8341 -0.0930  0.2477
  409MOL0     H53957   4.585  10.884   8.885 -3.3831  1.7574  0.0435
  409MOL0     H53958   4.639  11.093   8.781  0.2060 -0.4087 -0.5171
  409MOL0     H53959   4.636  11.184   8.928  1.4937  0.2563 -3.0114
  409MOL0     H53960   4.392  11.030   8.818 -2.1728  1.1624  0.8490
  409MOL0     H53961   4.407  11.113   8.975 -2.1380 -0.3793 -0.8241
  409MOL0     H53962   4.429  11.223   8.689  2.5650 -1.9759 -0.4276
  409MOL0     H53963   4.473  11.318   8.823  0.6562  1.3082 -2.3160
  409MOL0     H53964   4.242  11.363   8.763 -1.7523 -1.2579 -1.3041
  409MOL0     H53965   4.216  11.275   8.914 -1.6086  0.2576  0.0679
  409MOL0     H53966   4.199  11.163   8.628 -0.4667  0.3730 -0.6326
  409MOL0     H53967   4.193  11.071   8.774  1.2849  1.1014  1.5244
  409MOL0     H53968   3.983  11.227   8.836 -0.4127  0.5718 -0.3235
  409MOL0     H53969   3.969  11.107   8.707  0.4195  1.2158 -4.7169
  409MOL0     H53970   5.059  10.973   8.917 -1.3302 -1.6426 -0.0278
  409MOL0     H53971   5.273  10.922   8.998  0.2638  1.6053 -0.6374
  409MOL0     H53972   5.545  10.826   9.311 -2.6097  2.5936  0.2626
  409MOL0     H53973   5.807  10.806   9.363 -1.6257 -1.3974 -1.1533
  409MOL0     H53974   5.143   9.651   9.620  1.4319  2.0615 -3.6165
  409MOL0     H53975   4.924   9.640   9.546 -2.3315  0.4525  1.1338
  409MOL0     H53976   4.526   9.785   9.418 -2.9363 -2.2524 -2.2502
  409MOL0     H53977   4.306   9.771   9.356  0.8798  0.3429  0.3020
  409MOL0     H53978   3.983   9.929   9.607 -2.0586  0.3113  0.7795
  409MOL0     H53979   3.983   9.766   9.659  0.3994  1.8197  1.3033
  409MOL0     H53980   3.895   9.828   9.377 -1.7375 -2.1107  0.1992
  409MOL0     H53981   3.826   9.701   9.487  1.3007 -0.1149  2.2877
  409MOL0     H53982   3.664   9.871   9.451  0.7178 -2.0961 -0.0842
  409MOL0     H53983   3.761   9.992   9.526 -0.3770 -0.4691 -3.2785
  409MOL0     H53984   3.628   9.745   9.659  1.2215  0.3022  1.7366
  409MOL0     H53985   3.741   9.849   9.753 -2.4856 -1.9563  3.5374
  409MOL0     H53986   3.371  10.046   9.756 -0.5431  0.2887 -3.0207
  409MOL0     H53987   4.179   9.814   9.761  0.6312  0.9093  0.8814
  409MOL0     H53988   4.415   9.853   9.833  1.7152 -1.4327  0.9109
  410MOL0     O53989   4.066  10.105   3.426  0.4115  0.4302  0.0592
  410MOL0     C53990   3.967  10.039   3.461  0.9255  0.0782  0.4076
  410MOL0     O53991   3.963   9.905   3.487 -0.6488  0.3718  0.3457
  410MOL0     C53992   4.066   9.814   3.447 -0.0338 -0.5381  0.4053
  410MOL0     C53993   4.020   9.681   3.429  0.1244  0.2611 -0.5937
  410MOL0     C53994   4.103   9.579   3.385 -0.4377 -0.4264  0.3809
  410MOL0     C53995   4.239   9.610   3.363  0.8717  0.8535 -0.2684
  410MOL0     O53996   4.329   9.520   3.311  0.2555 -0.0718  0.4055
  410MOL0     C53997   4.470   9.544   3.325 -0.0185 -0.3757 -0.1017
  410MOL0     C53998   4.547   9.414   3.284 -0.0865  0.3352  0.9630
  410MOL0     C53999   4.636   9.439   3.166  0.3639  0.0468  0.8338
  410MOL0     C54000   4.688   9.304   3.126  0.2923 -0.3792  0.0493
  410MOL0     C54001   4.755   9.307   2.992  0.4247  0.8509 -0.2192
  410MOL0     C54002   4.875   9.397   2.988 -0.6057 -1.1510  1.4752
  410MOL0     C54003   4.966   9.364   2.862 -0.0898  0.1662  0.0767
  410MOL0     C54004   4.913   9.397   2.721 -0.2237 -0.0000  0.7072
  410MOL0     N54005   4.997   9.335   2.616 -0.4831 -0.4720  0.1062
  410MOL0     C54006   5.097   9.400   2.544  0.3600  0.0154 -0.8902
  410MOL0     C54007   5.153   9.305   2.466 -0.6115 -0.1291 -0.3855
  410MOL0     C54008   5.274   9.321   2.376  0.1036 -0.1543  0.3166
  410MOL0     C54009   5.381   9.237   2.447 -0.0088 -0.4230  0.3055
  410MOL0     C54010   5.434   9.301   2.575 -0.0181  0.3511 -0.0176
  410MOL0     C54011   5.517   9.202   2.657  0.3084  0.3066 -0.5032
  410MOL0     O54012   5.432   9.142   2.756  0.2542  0.1197  0.1072
  410MOL0     C54013   5.416   9.213   2.873  0.1940 -0.3375  0.9200
  410MOL0     C54014   5.465   9.335   2.917 -0.0650  0.4491 -0.1007
  410MOL0     C54015   5.402   9.410   3.023  0.1300  0.1785  0.7731
  410MOL0     C54016   5.310   9.347   3.107 -0.0639 -0.1398  0.6579
  410MOL0     C54017   5.247   9.416   3.219  0.2621  0.0851 -0.1628
  410MOL0     O54018   5.139   9.347   3.270  0.5562 -0.2984 -0.4798
  410MOL0     C54019   5.089   9.411   3.380  0.0729  0.3539  0.0487
  410MOL0     C54020   5.165   9.410   3.495 -0.0449 -1.1617  0.2946
  410MOL0     C54021   5.107   9.476   3.609  1.1060 -1.1528 -0.1155
  410MOL0     C54022   4.974   9.525   3.615 -0.3243 -0.4642  0.2446
  410MOL0     O54023   4.918   9.574   3.732 -0.3000 -0.3102  0.0607
  410MOL0     C54024   4.864   9.705   3.732 -0.7233 -0.0691 -0.5831
  410MOL0     C54025   4.808   9.742   3.872 -0.5666 -0.6342  0.0184
  410MOL0     C54026   4.763   9.891   3.882 -0.0241  0.5736  0.1152
  410MOL0     C54027   4.680   9.919   4.006  0.0475  0.2144  0.3720
  410MOL0     C54028   4.666  10.067   4.039  0.3588  0.0217 -0.2539
  410MOL0     C54029   4.599  10.095   4.175  0.7624 -0.3939  0.0678
  410MOL0     C54030   4.594  10.245   4.203  0.8119  0.4056 -0.1182
  410MOL0     C54031   4.488  10.269   4.313  0.0243  0.5270 -0.5107
  410MOL0    Cl54032   4.528  10.210   4.479  0.2082  0.1742  0.1570
  410MOL0     C54033   4.904   9.510   3.497  0.2392 -0.5090 -1.2046
  410MOL0     C54034   4.957   9.458   3.387 -0.6706 -0.7117  0.2186
  410MOL0     O54035   5.283   9.525   3.253  0.2971 -0.2748 -0.5377
  410MOL0     C54036   5.271   9.220   3.071  0.3129 -0.0112  0.5155
  410MOL0     C54037   5.323   9.153   2.955 -0.9687  0.1381  0.0203
  410MOL0     N54038   5.089   9.185   2.501 -0.0436 -0.4673  0.9837
  410MOL0     N54039   4.996   9.203   2.591  0.0321  1.1784 -0.1878
  410MOL0     C54040   4.287   9.737   3.390 -0.2168 -0.2857 -0.5490
  410MOL0     C54041   4.198   9.842   3.418  0.0159  0.3331 -0.9916
  410MOL0     C54042   3.845  10.107   3.511 -0.3034  0.1598 -0.1875
  410MOL0     C54043   3.731  10.037   3.553 -0.8457  0.2771 -0.7353
  410MOL0     C54044   3.623  10.100   3.611 -0.3363  0.5371 -0.2973
  410MOL0     C54045   3.624  10.237   3.630  0.0416 -0.2979  0.0492
  410MOL0     O54046   3.505  10.285   3.688 -0.1374  0.1553  0.6691
  410MOL0     C54047   3.477  10.430   3.682  0.1882 -0.2548  0.3290
  410MOL0     C54048   3.525  10.500   3.804 -0.0506 -1.0278 -0.9596
  410MOL0     C54049   3.558  10.649   3.777  0.4664 -0.0220  0.7629
  410MOL0     C54050   3.438  10.748   3.796  0.5824  0.4465 -0.3413
  410MOL0     C54051   3.323  10.721   3.707 -0.2906 -0.0624 -0.0472
  410MOL0     C54052   3.217  10.696   3.643  0.1021 -0.0430 -0.1904
  410MOL0     C54053   3.727  10.311   3.579 -0.4067 -0.0222 -0.9717
  410MOL0     C54054   3.836  10.251   3.522 -0.0068  0.1211 -1.2998
  410MOL0     H54055   3.914   9.659   3.444  0.0472  0.3058 -1.0579
  410MOL0     H54056   4.072   9.478   3.360 -0.7424 -1.0304  2.9331
  410MOL0     H54057   4.502   9.569   3.426  2.4647  2.3898 -1.4474
  410MOL0     H54058   4.495   9.631   3.264 -1.3556  1.0407  1.2924
  410MOL0     H54059   4.477   9.331   3.277  0.9156 -0.6318  1.8571
  410MOL0     H54060   4.615   9.386   3.365  0.4098  0.3196  0.5467
  410MOL0     H54061   4.722   9.506   3.178  1.5756 -0.6639 -2.5218
  410MOL0     H54062   4.578   9.495   3.091  2.3898  3.4453  1.5475
  410MOL0     H54063   4.755   9.278   3.208 -0.4499  1.5264  1.3248
  410MOL0     H54064   4.614   9.224   3.127 -2.0002  1.6011 -0.9231
  410MOL0     H54065   4.682   9.335   2.915 -1.6155 -1.5311  0.7178
  410MOL0     H54066   4.772   9.202   2.964  0.8889  0.3631  1.7448
  410MOL0     H54067   4.944   9.389   3.073 -0.3464  0.9569  1.5356
  410MOL0     H54068   4.840   9.501   2.987 -0.1306 -0.9641  2.6219
  410MOL0     H54069   5.059   9.420   2.874  0.6491 -0.2811 -2.6659
  410MOL0     H54070   4.992   9.259   2.880  0.3056  0.4458  1.1973
  410MOL0     H54071   4.920   9.505   2.704  3.2355  0.0566  1.7787
  410MOL0     H54072   4.812   9.356   2.708 -0.1407  0.4450 -1.7961
  410MOL0     H54073   5.119   9.505   2.561 -0.3501 -0.0753  0.7741
  410MOL0     H54074   5.310   9.422   2.354  0.1239  0.0933  1.4050
  410MOL0     H54075   5.258   9.277   2.277  2.9139 -1.1079  0.1876
  410MOL0     H54076   5.457   9.207   2.374  0.2155 -0.2944  0.4823
  410MOL0     H54077   5.338   9.139   2.468 -0.0849 -0.4642 -0.0253
  410MOL0     H54078   5.488   9.393   2.549  1.5864 -0.3132  0.8723
  410MOL0     H54079   5.350   9.340   2.633  0.0705 -0.3476  0.5876
  410MOL0     H54080   5.605   9.246   2.702  0.5127  0.7719 -1.3306
  410MOL0     H54081   5.549   9.116   2.597  0.8993 -0.6279  1.0978
  410MOL0     H54082   5.547   9.378   2.861  0.0638 -0.7029 -0.8257
  410MOL0     H54083   5.432   9.509   3.054  0.9000  0.4121 -0.6286
  410MOL0     H54084   5.261   9.361   3.501  1.4952  1.1242 -2.7781
  410MOL0     H54085   5.165   9.487   3.700 -0.8088  3.1688  0.8614
  410MOL0     H54086   4.778   9.714   3.664 -0.3354 -0.7023 -1.1717
  410MOL0     H54087   4.944   9.774   3.702  0.8726 -1.2708  0.7025
  410MOL0     H54088   4.888   9.724   3.945 -1.6954 -1.5326  1.0740
  410MOL0     H54089   4.734   9.671   3.909 -1.2065  0.1294  0.2158
  410MOL0     H54090   4.696   9.916   3.799 -1.2997 -1.4641  0.4734
  410MOL0     H54091   4.853   9.952   3.893 -0.2966  0.8122  1.0682
  410MOL0     H54092   4.584   9.866   4.011  1.1249 -2.3795 -2.7337
  410MOL0     H54093   4.741   9.881   4.088 -0.7276 -0.1790  0.7852
  410MOL0     H54094   4.596  10.107   3.965 -0.4787  0.1298  0.5760
  410MOL0     H54095   4.761  10.121   4.034  0.3355  0.4196  2.3302
  410MOL0     H54096   4.654  10.052   4.259 -0.0724  0.8234  1.2778
  410MOL0     H54097   4.502  10.043   4.171 -0.2259  1.3113  0.8816
  410MOL0     H54098   4.692  10.277   4.240 -0.0818  1.1805  1.7215
  410MOL0     H54099   4.574  10.308   4.116  0.2858 -1.7439 -1.6381
  410MOL0     H54100   4.397  10.225   4.270  1.7818 -1.6275 -2.2641
  410MOL0     H54101   4.459  10.375   4.316  1.2140  0.8898 -1.1122
  410MOL0     H54102   4.801   9.543   3.506  0.2618 -0.9188  1.4347
  410MOL0     H54103   4.897   9.455   3.296  1.7381 -3.1381 -1.4485
  410MOL0     H54104   5.198   9.162   3.126 -1.3487  1.3820 -0.1379
  410MOL0     H54105   5.289   9.059   2.914  1.9812 -0.6271 -0.8620
  410MOL0     H54106   4.385   9.782   3.373 -0.2072  0.3600  1.0787
  410MOL0     H54107   4.243   9.940   3.429 -0.2323  0.4680 -1.1467
  410MOL0     H54108   3.745   9.930   3.564 -1.0844  0.1241 -1.8744
  410MOL0     H54109   3.543  10.041   3.653  1.6053 -0.8475  1.6619
  410MOL0     H54110   3.370  10.438   3.665  0.4236 -1.5314 -2.3425
  410MOL0     H54111   3.515  10.473   3.589  0.6383 -2.5206 -0.6065
  410MOL0     H54112   3.443  10.507   3.877  2.6672  0.1474  2.2686
  410MOL0     H54113   3.609  10.446   3.850 -2.1555 -3.4389  0.3579
  410MOL0     H54114   3.611  10.664   3.682  1.8071  0.7814  1.6036
  410MOL0     H54115   3.636  10.683   3.847  1.6972 -0.5832 -0.2854
  410MOL0     H54116   3.397  10.754   3.897  0.4994 -0.1017 -0.3430
  410MOL0     H54117   3.469  10.845   3.756 -0.6335  0.1160 -2.2061
  410MOL0     H54118   3.139  10.664   3.578  1.5940 -2.4391 -0.9276
  410MOL0     H54119   3.742  10.418   3.581  0.5259 -0.1262 -1.8595
  410MOL0     H54120   3.923  10.301   3.479  0.5089  0.2384 -0.1457
  411MOL0     O54121   0.627   5.100   6.722  0.0075 -0.1144 -0.0208
  411MOL0     C54122   0.733   5.129   6.767 -0.1849  0.2619 -0.4908
  411MOL0     O54123   0.746   5.170   6.903  0.1016  0.4827 -0.7196
  411MOL0     C54124   0.634   5.163   6.982  0.6012 -0.2624  0.1867
  411MOL0     C54125   0.602   5.268   7.076  0.4305 -0.0864 -0.2324
  411MOL0     C54126   0.491   5.250   7.159  0.7042  0.0705  0.1734
  411MOL0     C54127   0.409   5.142   7.162  0.5526  0.0987  0.0745
  411MOL0     O54128   0.298   5.153   7.249 -0.6336  0.0469  0.2653
  411MOL0     C54129   0.174   5.085   7.206  1.1505  0.6096 -0.2771
  411MOL0     C54130   0.117   5.131   7.078  0.1962 -1.3826 -1.2853
  411MOL0     C54131  -0.028   5.088   7.058 -0.1154  0.3429  0.9388
  411MOL0     C54132  -0.066   5.102   6.905  0.7084 -0.1442 -0.8644
  411MOL0     C54133  -0.214   5.091   6.865  0.4357 -0.2469  0.3981
  411MOL0     C54134  -0.256   4.952   6.919 -0.6176  0.0304 -0.2895
  411MOL0     C54135  -0.401   4.918   6.885 -0.3851  0.5758  0.3961
  411MOL0     C54136  -0.429   4.764   6.909  0.6026 -1.1897  0.2732
  411MOL0     N54137  -0.560   4.707   6.860 -0.0723 -0.0295 -0.1432
  411MOL0     C54138  -0.678   4.752   6.903  0.4663 -0.7037 -1.0076
  411MOL0     C54139  -0.765   4.665   6.864  0.3995 -1.0099  0.6636
  411MOL0     C54140  -0.914   4.656   6.896 -0.2797 -0.3280 -0.1502
  411MOL0     C54141  -0.984   4.794   6.914  0.9419 -0.2672 -0.1872
  411MOL0     C54142  -1.134   4.775   6.963 -0.6838  0.0963  0.5174
  411MOL0     C54143  -1.222   4.714   6.864 -0.5964  0.6288  0.1985
  411MOL0     O54144  -1.332   4.648   6.918 -0.5812 -0.0164  0.2025
  411MOL0     C54145  -1.427   4.711   6.994 -0.8310  0.7186  0.0131
  411MOL0     C54146  -1.487   4.637   7.101 -0.6017 -0.2997  0.9172
  411MOL0     C54147  -1.572   4.698   7.195 -0.5124 -0.3190 -0.3715
  411MOL0     C54148  -1.600   4.832   7.170 -0.2675 -0.3521 -0.0910
  411MOL0     C54149  -1.677   4.918   7.262 -0.4442  0.2805  0.6582
  411MOL0     O54150  -1.740   4.844   7.357  0.6988 -0.0654 -0.0744
  411MOL0     C54151  -1.806   4.907   7.461 -0.5646  0.2136  0.1249
  411MOL0     C54152  -1.748   4.911   7.586  0.1165 -0.0424 -0.6444
  411MOL0     C54153  -1.817   4.958   7.699  0.7553  0.4371 -0.4663
  411MOL0     C54154  -1.954   5.003   7.676  0.6245 -0.8959  1.1127
  411MOL0     O54155  -2.020   5.039   7.791 -0.1967  0.2156 -0.5483
  411MOL0     C54156  -2.129   5.135   7.776  0.1244  0.2438  0.4009
  411MOL0     C54157  -2.153   5.219   7.913  0.1596  0.5926 -0.8085
  411MOL0     C54158  -2.302   5.235   7.952  0.7250  0.0489  0.0781
  411MOL0     C54159  -2.310   5.299   8.092 -0.6471 -0.0915  0.1615
  411MOL0     C54160  -2.450   5.371   8.120 -0.0933  0.2842  0.0469
  411MOL0     C54161  -2.565   5.304   8.057  0.0022 -0.3811 -0.2690
  411MOL0     C54162  -2.701   5.347   8.098  0.4005  0.2461 -0.6762
  411MOL0     C54163  -2.727   5.505   8.092  0.4636  0.2635 -0.3524
  411MOL0    Cl54164  -2.900   5.552   8.106  0.1926 -0.0034 -0.1316
  411MOL0     C54165  -2.009   5.004   7.545 -0.1658 -0.4245 -0.1277
  411MOL0     C54166  -1.936   4.949   7.446 -0.3241 -0.0634  0.3725
  411MOL0     O54167  -1.677   5.041   7.250 -0.0538 -0.5582  0.5371
  411MOL0     C54168  -1.555   4.903   7.055  0.3685  0.9417  0.1578
  411MOL0     C54169  -1.468   4.840   6.967  0.3762  0.9598  0.1882
  411MOL0     N54170  -0.705   4.556   6.813 -0.2498  1.0342  0.3699
  411MOL0     N54171  -0.571   4.583   6.813  0.7986  0.5444 -0.3174
  411MOL0     C54172   0.445   5.034   7.087  0.3356  0.2637  1.0503
  411MOL0     C54173   0.556   5.041   7.000  0.1515  0.0164 -1.1255
  411MOL0     C54174   0.858   5.122   6.681  0.1154  0.3082  0.8689
  411MOL0     C54175   0.850   5.070   6.549 -0.4864  0.5761 -0.7217
  411MOL0     C54176   0.967   5.043   6.475  0.0643  0.3685  0.3310
  411MOL0     C54177   1.086   5.083   6.525 -0.6068 -0.0252 -0.1002
  411MOL0     O54178   1.210   5.071   6.462 -0.4863 -0.9067  0.1947
  411MOL0     C54179   1.208   4.971   6.352 -0.0460  0.2721 -0.5174
  411MOL0     C54180   1.355   4.927   6.320 -0.5060 -0.1664 -0.2175
  411MOL0     C54181   1.356   4.807   6.219 -0.5943 -0.3847  0.4552
  411MOL0     C54182   1.505   4.760   6.226  0.0753 -0.5055 -0.9025
  411MOL0     C54183   1.527   4.648   6.138  0.6161  0.9500  0.0477
  411MOL0     C54184   1.562   4.560   6.063 -0.3277  0.3185  0.9163
  411MOL0     C54185   1.100   5.152   6.647 -0.3354 -0.9561 -0.5747
  411MOL0     C54186   0.987   5.157   6.728  0.3471  0.4105 -0.0242
  411MOL0     H54187   0.661   5.359   7.071 -0.0580  0.4384  2.2383
  411MOL0     H54188   0.474   5.321   7.240  0.3209 -1.5037  1.5320
  411MOL0     H54189   0.102   5.099   7.287  0.1488  0.2301 -1.0834
  411MOL0     H54190   0.197   4.979   7.194  2.4880  1.1134 -2.7810
  411MOL0     H54191   0.176   5.103   6.990 -0.3046 -1.5458 -1.5724
  411MOL0     H54192   0.123   5.240   7.085  2.3165 -1.5270  0.4698
  411MOL0     H54193  -0.093   5.154   7.118 -1.3628  0.0975 -0.1046
  411MOL0     H54194  -0.051   4.987   7.092 -3.5367  0.1110 -1.5389
  411MOL0     H54195  -0.025   5.196   6.868  1.3234 -1.1672 -2.9801
  411MOL0     H54196  -0.009   5.020   6.859  3.3487 -0.3567  2.4221
  411MOL0     H54197  -0.228   5.097   6.757 -0.5411 -0.8630  0.4773
  411MOL0     H54198  -0.278   5.170   6.906 -0.8809 -0.4664 -1.1590
  411MOL0     H54199  -0.251   4.959   7.028  2.6135 -2.3290 -0.1436
  411MOL0     H54200  -0.193   4.869   6.886 -0.0224  0.3285  0.0711
  411MOL0     H54201  -0.475   4.974   6.943 -1.0922  1.6297 -1.4371
  411MOL0     H54202  -0.422   4.928   6.778 -0.9622 -0.7481  0.3624
  411MOL0     H54203  -0.419   4.738   7.015  1.9163  0.8422  0.7063
  411MOL0     H54204  -0.349   4.716   6.852  3.0410  2.5569  0.1855
  411MOL0     H54205  -0.701   4.841   6.962 -4.0100 -0.0370 -3.2750
  411MOL0     H54206  -0.931   4.596   6.986 -0.8685  1.2076  0.7970
  411MOL0     H54207  -0.964   4.601   6.815 -0.3626  0.1550 -0.4334
  411MOL0     H54208  -0.978   4.852   6.821  0.0480  2.4115  1.3240
  411MOL0     H54209  -0.927   4.857   6.983  0.3779 -0.8908  0.8839
  411MOL0     H54210  -1.138   4.738   7.065  0.3368  1.3127  1.0207
  411MOL0     H54211  -1.169   4.878   6.975 -2.0001 -0.2066 -0.4597
  411MOL0     H54212  -1.178   4.633   6.805  0.0753 -1.1587  2.9616
  411MOL0     H54213  -1.253   4.788   6.789 -1.8654 -1.2394 -1.2110
  411MOL0     H54214  -1.455   4.535   7.121 -1.4866 -0.1328  3.6563
  411MOL0     H54215  -1.601   4.650   7.288  0.4014  1.0910  0.6838
  411MOL0     H54216  -1.645   4.883   7.604 -0.8265 -1.8794  2.7519
  411MOL0     H54217  -1.767   4.951   7.795 -1.7321 -0.7056  0.8280
  411MOL0     H54218  -2.219   5.081   7.744  0.7196  1.0415 -2.9593
  411MOL0     H54219  -2.111   5.211   7.700 -2.6076  0.7884  0.1863
  411MOL0     H54220  -2.115   5.319   7.890  0.5182  0.0875 -2.5733
  411MOL0     H54221  -2.096   5.177   7.996 -0.0820  2.5725  0.4426
  411MOL0     H54222  -2.362   5.143   7.949  0.5686  0.1760 -0.9664
  411MOL0     H54223  -2.353   5.300   7.881 -0.7761 -0.7710  0.3769
  411MOL0     H54224  -2.286   5.228   8.171  0.8838  1.7126  1.4005
  411MOL0     H54225  -2.231   5.372   8.111  2.6756 -3.5994  1.2277
  411MOL0     H54226  -2.443   5.473   8.081 -1.4276  1.2993  2.2839
  411MOL0     H54227  -2.463   5.378   8.229  1.4382 -1.9452  0.4254
  411MOL0     H54228  -2.561   5.196   8.078 -0.8746 -0.5575 -0.9497
  411MOL0     H54229  -2.555   5.313   7.949  1.8385  1.3977 -0.0178
  411MOL0     H54230  -2.765   5.304   8.020 -1.3631  0.2526  0.7031
  411MOL0     H54231  -2.728   5.322   8.201  2.0098 -0.2116 -0.3408
  411MOL0     H54232  -2.686   5.533   7.994  2.0936 -3.0940 -0.7879
  411MOL0     H54233  -2.680   5.557   8.176 -2.2883  1.1793  0.7152
  411MOL0     H54234  -2.114   5.031   7.535 -0.6008 -1.6559  0.8734
  411MOL0     H54235  -1.995   4.939   7.356 -2.4479  2.4722  1.3460
  411MOL0     H54236  -1.570   5.009   7.037 -2.3397  0.5105 -0.5740
  411MOL0     H54237  -1.430   4.889   6.878 -0.1350  0.4963 -0.2907
  411MOL0     H54238   0.395   4.938   7.090  1.7375 -0.5267  0.5629
  411MOL0     H54239   0.586   4.957   6.938  2.0956 -0.3559  0.2385
  411MOL0     H54240   0.751   5.041   6.515  0.2924 -0.8960 -1.8561
  411MOL0     H54241   0.939   4.997   6.381  0.1989 -1.2548  1.0556
  411MOL0     H54242   1.149   5.012   6.269 -2.4231  0.3494  1.1163
  411MOL0     H54243   1.150   4.888   6.392 -0.4070  0.1387 -1.3007
  411MOL0     H54244   1.415   5.007   6.276  1.1436 -2.0025 -1.5332
  411MOL0     H54245   1.392   4.901   6.420 -2.3175 -0.9469  0.2857
  411MOL0     H54246   1.333   4.846   6.119  2.9637 -1.2583 -0.8322
  411MOL0     H54247   1.300   4.720   6.255 -1.7682  1.4025  3.3335
  411MOL0     H54248   1.568   4.843   6.191 -0.2598 -0.5720 -1.6894
  411MOL0     H54249   1.533   4.738   6.329  0.1319 -1.5882 -1.1421
  411MOL0     H54250   1.577   4.501   5.975 -0.0453 -0.1284  1.2540
  411MOL0     H54251   1.191   5.190   6.692 -0.0140 -1.9373 -0.3654
  411MOL0     H54252   0.989   5.196   6.829  2.4838  0.4179 -0.0152
  412MOL0     O54253   3.657   3.194   3.389  0.1683  0.1635 -0.0658
  412MOL0     C54254   3.692   3.077   3.405 -1.2928  0.4246  0.3689
  412MOL0     O54255   3.617   2.968   3.429  0.0375  0.7490 -0.2087
  412MOL0     C54256   3.478   2.993   3.417  0.6441  0.6484  0.5213
  412MOL0     C54257   3.387   2.943   3.517 -0.2073 -0.0322 -0.3898
  412MOL0     C54258   3.253   2.981   3.515  0.7352  1.1257  0.5101
  412MOL0     C54259   3.203   3.053   3.413  0.4147  0.8487  0.0128
  412MOL0     O54260   3.076   3.088   3.384 -1.1416  0.2060  0.1227
  412MOL0     C54261   2.966   3.003   3.425  0.7258  0.5882  0.3027
  412MOL0     C54262   2.847   3.090   3.374  0.5942 -0.1482  0.3587
  412MOL0     C54263   2.707   3.029   3.418 -0.5654 -0.7758  0.7551
  412MOL0     C54264   2.586   3.118   3.374 -0.7832 -0.0858  0.1595
  412MOL0     C54265   2.453   3.063   3.415  0.4105  0.2573 -0.0545
  412MOL0     C54266   2.378   2.984   3.305  0.2582 -0.5647 -0.2296
  412MOL0     C54267   2.242   2.931   3.357  0.5541  0.5179 -0.1859
  412MOL0     C54268   2.170   2.842   3.247 -0.0243 -0.1974  0.2584
  412MOL0     N54269   2.038   2.809   3.299 -0.0966  0.3024  0.8866
  412MOL0     C54270   1.949   2.897   3.362  0.6798  0.0888 -0.0775
  412MOL0     C54271   1.853   2.813   3.407 -0.3713  0.6743 -0.0012
  412MOL0     C54272   1.727   2.876   3.475  0.0458  0.3895  0.3098
  412MOL0     C54273   1.593   2.789   3.440 -0.5196 -0.0069  0.2862
  412MOL0     C54274   1.495   2.810   3.544 -0.1079  0.5444  0.0019
  412MOL0     C54275   1.350   2.751   3.508  0.4389  0.1500 -1.4650
  412MOL0     O54276   1.280   2.789   3.628  0.0585 -0.3907 -0.0612
  412MOL0     C54277   1.151   2.758   3.648  0.4357  0.3143  0.0822
  412MOL0     C54278   1.101   2.786   3.777 -0.7593  0.1026 -0.5367
  412MOL0     C54279   0.972   2.748   3.810  0.1462 -0.2868  0.8180
  412MOL0     C54280   0.882   2.692   3.719  0.2542  0.3193  0.3560
  412MOL0     C54281   0.738   2.651   3.759  0.3763 -0.1095  0.0570
  412MOL0     O54282   0.710   2.682   3.889  0.8784  0.6768 -0.0151
  412MOL0     C54283   0.604   2.635   3.952  0.3743  0.5531 -0.3493
  412MOL0     C54284   0.480   2.587   3.899  0.0638  1.1207 -0.3773
  412MOL0     C54285   0.377   2.536   3.980 -0.4185 -0.6957  0.0198
  412MOL0     C54286   0.389   2.540   4.125 -0.8618 -0.1586 -0.0823
  412MOL0     O54287   0.284   2.493   4.199  0.5830  0.1577 -0.1503
  412MOL0     C54288   0.252   2.578   4.313  0.3110  0.9333  0.6738
  412MOL0     C54289   0.103   2.617   4.312 -0.7400  0.0181 -0.4484
  412MOL0     C54290   0.009   2.498   4.296  0.0575 -0.1326  0.0687
  412MOL0     C54291  -0.120   2.539   4.359  0.6227 -0.0428  0.5237
  412MOL0     C54292  -0.235   2.425   4.347  0.1828 -0.9293 -0.1454
  412MOL0     C54293  -0.207   2.303   4.433 -0.0310 -0.1797  0.2972
  412MOL0     C54294  -0.322   2.210   4.476  0.0746  0.4131  0.1489
  412MOL0     C54295  -0.374   2.117   4.361 -0.2116 -0.4513  0.1914
  412MOL0    Cl54296  -0.256   2.009   4.308 -0.1173  0.0442 -0.1305
  412MOL0     C54297   0.512   2.586   4.178  0.0217 -0.1231  0.0904
  412MOL0     C54298   0.614   2.636   4.089 -1.4876  0.9848  0.0145
  412MOL0     O54299   0.660   2.624   3.668  0.1199  0.2147 -0.3569
  412MOL0     C54300   0.930   2.678   3.589 -1.0694  0.1134 -0.5148
  412MOL0     C54301   1.060   2.719   3.550  0.1787  0.5991  0.0347
  412MOL0     N54302   1.876   2.677   3.380  0.0119 -0.5830  0.1970
  412MOL0     N54303   1.987   2.680   3.310 -0.6447 -0.6694  0.2548
  412MOL0     C54304   3.282   3.085   3.305  0.2064 -0.1250  0.7476
  412MOL0     C54305   3.417   3.052   3.307 -0.3315 -0.1587  0.5688
  412MOL0     C54306   3.835   3.045   3.373 -0.8223 -0.2079 -1.5915
  412MOL0     C54307   3.924   3.142   3.326 -0.1399  0.2420 -0.8237
  412MOL0     C54308   4.062   3.111   3.294  0.3267 -0.6134  1.0438
  412MOL0     C54309   4.111   2.986   3.321 -0.4728 -0.5192 -0.8931
  412MOL0     O54310   4.243   2.949   3.313 -0.5594 -0.9425 -0.7396
  412MOL0     C54311   4.319   3.048   3.236 -0.0207  0.1379 -0.7562
  412MOL0     C54312   4.453   2.970   3.224  0.0559 -0.2049  0.1321
  412MOL0     C54313   4.444   2.827   3.151 -0.4569  0.1393 -0.3474
  412MOL0     C54314   4.577   2.758   3.102 -0.8181 -0.0840  0.3359
  412MOL0     C54315   4.678   2.746   3.207 -0.7358  1.0506 -0.1807
  412MOL0     C54316   4.768   2.748   3.286 -0.0004  0.5233  0.3209
  412MOL0     C54317   4.024   2.894   3.376  0.6171 -0.0109  0.1301
  412MOL0     C54318   3.889   2.918   3.404  0.6935 -0.6228  0.3109
  412MOL0     H54319   3.434   2.888   3.598  1.5379  0.2338 -1.1627
  412MOL0     H54320   3.184   2.944   3.590  0.8280  0.6412  0.3602
  412MOL0     H54321   2.967   2.984   3.533  1.3473  2.6132  0.7022
  412MOL0     H54322   2.975   2.907   3.373  0.3063  1.1684 -0.8751
  412MOL0     H54323   2.843   3.093   3.264 -1.8170  0.2656  0.3902
  412MOL0     H54324   2.854   3.192   3.414 -2.5157  0.3940 -0.1935
  412MOL0     H54325   2.702   3.027   3.528  0.5237 -0.2009  0.8280
  412MOL0     H54326   2.694   2.931   3.372 -1.2628  0.3140 -1.4828
  412MOL0     H54327   2.593   3.217   3.420  1.4857 -0.0410 -0.1525
  412MOL0     H54328   2.590   3.129   3.265 -0.5111  3.8033  0.4186
  412MOL0     H54329   2.387   3.142   3.454 -0.2220 -0.5564  0.5768
  412MOL0     H54330   2.470   2.985   3.490  0.8155  1.5646  1.2615
  412MOL0     H54331   2.437   2.904   3.259 -1.3347 -1.6636 -0.4612
  412MOL0     H54332   2.360   3.056   3.224 -0.0844 -0.4831 -0.0820
  412MOL0     H54333   2.263   2.869   3.444 -1.8842 -3.3276 -2.0607
  412MOL0     H54334   2.170   3.011   3.379 -1.1129 -0.1988 -2.5792
  412MOL0     H54335   2.219   2.746   3.230  1.9646  1.1726 -2.3872
  412MOL0     H54336   2.151   2.890   3.151  0.4754 -0.1722  0.1740
  412MOL0     H54337   1.947   3.005   3.357 -0.4775  0.0533 -0.5288
  412MOL0     H54338   1.715   2.980   3.442  0.7824  0.6023  0.6828
  412MOL0     H54339   1.742   2.889   3.583  0.9085  0.4093  0.1944
  412MOL0     H54340   1.617   2.683   3.428 -2.1658 -0.4395  0.6273
  412MOL0     H54341   1.569   2.832   3.342  1.0047  2.0351  0.7381
  412MOL0     H54342   1.536   2.757   3.630  0.6757  0.3976 -0.4603
  412MOL0     H54343   1.491   2.918   3.560  1.2270  0.8229 -1.3006
  412MOL0     H54344   1.348   2.642   3.497 -2.8141  0.1994 -2.4441
  412MOL0     H54345   1.317   2.797   3.415 -2.1329  2.1631  0.3196
  412MOL0     H54346   1.177   2.819   3.847  1.2811 -0.4333 -2.3821
  412MOL0     H54347   0.934   2.757   3.911 -2.2075 -1.8382  0.1661
  412MOL0     H54348   0.452   2.593   3.794 -1.4385 -2.0224 -0.2584
  412MOL0     H54349   0.283   2.505   3.936 -0.0762  1.2380 -2.3119
  412MOL0     H54350   0.304   2.674   4.316 -3.4980  3.2535 -0.1540
  412MOL0     H54351   0.271   2.514   4.400  0.6391  0.2952  0.1358
  412MOL0     H54352   0.084   2.694   4.237 -1.2105 -0.0853 -0.4376
  412MOL0     H54353   0.084   2.668   4.406 -2.2094  1.0213 -1.2506
  412MOL0     H54354   0.039   2.405   4.346 -2.6227 -1.0501  0.0841
  412MOL0     H54355  -0.006   2.471   4.191 -0.5816  1.6668 -0.3407
  412MOL0     H54356  -0.089   2.551   4.463  2.8471 -1.4898  0.1003
  412MOL0     H54357  -0.166   2.633   4.327 -0.3317 -0.2062  1.3591
  412MOL0     H54358  -0.240   2.388   4.244  0.3435 -2.4770  0.3771
  412MOL0     H54359  -0.326   2.481   4.366  0.8660  1.6492 -3.4773
  412MOL0     H54360  -0.150   2.334   4.521  2.9883  1.4476 -2.0151
  412MOL0     H54361  -0.135   2.239   4.382 -0.4498 -1.3744  1.1808
  412MOL0     H54362  -0.288   2.154   4.564  0.7970 -0.3212 -0.5846
  412MOL0     H54363  -0.409   2.267   4.510 -1.1750 -1.0050 -0.5672
  412MOL0     H54364  -0.414   2.171   4.275 -0.9629 -0.4118  0.5496
  412MOL0     H54365  -0.459   2.062   4.402 -1.2934  0.8267 -0.2682
  412MOL0     H54366   0.519   2.587   4.286 -0.0855 -0.8826  0.1052
  412MOL0     H54367   0.709   2.661   4.135 -1.7327 -1.1554  1.8603
  412MOL0     H54368   0.861   2.636   3.516 -3.8884  0.9994  1.4240
  412MOL0     H54369   1.083   2.702   3.445  1.2559 -2.4258  0.6527
  412MOL0     H54370   3.239   3.127   3.215  2.7424 -0.4692 -0.7414
  412MOL0     H54371   3.484   3.086   3.229 -0.1944  0.7155  1.0555
  412MOL0     H54372   3.888   3.239   3.293 -0.3433  0.4398 -0.0525
  412MOL0     H54373   4.119   3.196   3.259 -1.7941  0.5209  0.0915
  412MOL0     H54374   4.338   3.148   3.275 -1.1603  0.1485 -0.1777
  412MOL0     H54375   4.266   3.060   3.141 -2.1964  0.8039  0.4696
  412MOL0     H54376   4.531   3.029   3.176 -0.3144 -0.1072 -0.3584
  412MOL0     H54377   4.489   2.952   3.325  1.8043  2.2886  0.0260
  412MOL0     H54378   4.378   2.845   3.066 -0.6729 -0.2734 -0.2689
  412MOL0     H54379   4.379   2.767   3.215 -1.3919  0.1280 -1.2938
  412MOL0     H54380   4.550   2.658   3.066 -4.0797  0.8038  0.0222
  412MOL0     H54381   4.630   2.813   3.024 -1.9771 -1.1549 -1.2774
  412MOL0     H54382   4.848   2.752   3.358  0.0060 -0.2917  0.3714
  412MOL0     H54383   4.069   2.797   3.392 -1.7298 -1.4568 -1.4437
  412MOL0     H54384   3.827   2.843   3.451  0.0189 -0.2331  0.0636
  413MOL0     O54385   9.421   1.644   2.990 -0.3133 -0.1611 -0.0171
  413MOL0     C54386   9.471   1.559   3.066  0.0867 -0.0837 -0.1916
  413MOL0     O54387   9.419   1.431   3.088  0.1282 -0.1615 -0.1514
  413MOL0     C54388   9.292   1.393   3.039 -0.2964 -0.0882  0.4160
  413MOL0     C54389   9.279   1.256   2.993  0.2424 -0.1981  1.1612
  413MOL0     C54390   9.151   1.206   2.950 -0.2666 -0.3204 -0.4225
  413MOL0     C54391   9.045   1.291   2.949 -0.2777  0.3373 -0.3186
  413MOL0     O54392   8.926   1.222   2.913  0.4760  0.6145  0.8504
  413MOL0     C54393   8.798   1.292   2.917 -0.1760  0.3164  0.2889
  413MOL0     C54394   8.686   1.200   2.872 -0.9709 -0.3589  0.0758
  413MOL0     C54395   8.566   1.285   2.827  0.7203  0.4345 -0.4213
  413MOL0     C54396   8.458   1.189   2.778 -1.1483 -0.1593 -0.0059
  413MOL0     C54397   8.329   1.261   2.743  0.2110  0.3146  0.6749
  413MOL0     C54398   8.236   1.156   2.665  0.1326 -0.5253  0.7109
  413MOL0     C54399   8.109   1.232   2.613  0.3651 -0.0506 -0.9391
  413MOL0     C54400   8.001   1.227   2.724  0.3259  0.5227 -0.0788
  413MOL0     N54401   7.915   1.113   2.727 -0.0855  0.2380  0.4389
  413MOL0     C54402   7.944   1.012   2.811  0.8502  0.2110  0.1988
  413MOL0     C54403   7.840   0.933   2.812  0.6146  0.4103  0.1606
  413MOL0     C54404   7.821   0.804   2.877 -0.0276  0.1099 -0.5667
  413MOL0     C54405   7.691   0.812   2.951 -1.0260 -1.0315  1.1058
  413MOL0     C54406   7.701   0.908   3.074 -0.2118  0.0343  1.2024
  413MOL0     C54407   7.568   0.936   3.150 -0.3149 -0.2129  0.3973
  413MOL0     O54408   7.523   0.816   3.209 -0.0968 -0.3329 -0.5789
  413MOL0     C54409   7.390   0.808   3.217 -0.3835  0.4228  0.1337
  413MOL0     C54410   7.329   0.699   3.154 -0.1816  0.1207  0.4114
  413MOL0     C54411   7.191   0.677   3.161  0.3529  0.1223 -0.1470
  413MOL0     C54412   7.114   0.773   3.232  0.2930 -0.6684 -0.0026
  413MOL0     C54413   6.965   0.749   3.253 -0.2017  0.2179 -0.2093
  413MOL0     O54414   6.914   0.635   3.208 -0.2652  0.7535  0.1021
  413MOL0     C54415   6.786   0.598   3.225 -0.2800 -0.7387  0.0468
  413MOL0     C54416   6.704   0.562   3.117  0.5398  0.3907 -0.6246
  413MOL0     C54417   6.565   0.537   3.136 -0.8376  0.1508  0.1392
  413MOL0     C54418   6.513   0.531   3.270 -0.1547 -0.8735  0.1430
  413MOL0     O54419   6.383   0.498   3.283 -0.4578  0.4820  0.2865
  413MOL0     C54420   6.296   0.554   3.381  0.8698  0.6907  0.0352
  413MOL0     C54421   6.176   0.455   3.412 -0.4400 -1.0992  0.2933
  413MOL0     C54422   6.076   0.463   3.287 -0.8225 -0.4476  0.5642
  413MOL0     C54423   5.947   0.423   3.349 -0.4045 -0.1529 -0.3157
  413MOL0     C54424   5.826   0.426   3.246 -1.7595  1.0975  0.2989
  413MOL0     C54425   5.687   0.425   3.309  0.3091  0.9878 -0.0382
  413MOL0     C54426   5.576   0.450   3.213 -0.4110 -0.6553 -0.8465
  413MOL0     C54427   5.454   0.388   3.258  0.6600 -0.0376 -0.3518
  413MOL0    Cl54428   5.373   0.523   3.365 -1.1570  0.1189  0.2969
  413MOL0     C54429   6.600   0.548   3.374  0.2884 -0.4325 -1.1608
  413MOL0     C54430   6.735   0.591   3.353 -0.4266  0.5359  0.2774
  413MOL0     O54431   6.904   0.832   3.320 -0.3190  1.0632  0.1509
  413MOL0     C54432   7.174   0.879   3.296 -0.4389 -0.4945  0.2749
  413MOL0     C54433   7.311   0.893   3.295  0.2511  0.1143 -0.4203
  413MOL0     N54434   7.747   0.984   2.719 -0.1058  0.3306  0.1237
  413MOL0     N54435   7.792   1.102   2.673  0.3842  0.9599 -0.0708
  413MOL0     C54436   9.058   1.427   2.980 -0.7614  0.3801  0.3123
  413MOL0     C54437   9.180   1.477   3.035  0.5847 -0.0238 -0.5013
  413MOL0     C54438   9.584   1.603   3.152  0.6331  1.2807  0.4676
  413MOL0     C54439   9.638   1.518   3.249 -0.7965  0.5845  0.0007
  413MOL0     C54440   9.745   1.555   3.327 -0.8234 -0.1759 -0.4016
  413MOL0     C54441   9.807   1.681   3.309  0.6963 -1.2158  0.5211
  413MOL0     O54442   9.910   1.726   3.390  0.2874 -0.0276 -0.0273
  413MOL0     C54443   9.945   1.865   3.393 -0.5735  0.2170  0.1335
  413MOL0     C54444  10.072   1.890   3.481  0.7150 -0.5802  0.7604
  413MOL0     C54445  10.189   1.797   3.422 -0.7649 -0.0614 -0.1278
  413MOL0     C54446  10.323   1.836   3.450  0.2175 -0.1699  0.4023
  413MOL0     C54447  10.422   1.744   3.397 -0.4342 -0.6173 -0.1399
  413MOL0     C54448  10.520   1.680   3.350 -0.1218  0.0978 -0.1918
  413MOL0     C54449   9.739   1.770   3.222  0.8375 -0.2189 -0.1217
  413MOL0     C54450   9.637   1.724   3.141  0.2681 -0.4506  0.2437
  413MOL0     H54451   9.363   1.188   2.981 -0.2316 -0.8752  1.6008
  413MOL0     H54452   9.140   1.107   2.905  0.9208  0.0290 -1.5478
  413MOL0     H54453   8.801   1.378   2.849 -0.9075 -0.0781 -0.2616
  413MOL0     H54454   8.780   1.348   3.009  2.0320  0.9508  0.3730
  413MOL0     H54455   8.660   1.124   2.946  1.6392  0.5027  2.0236
  413MOL0     H54456   8.732   1.159   2.781  0.6780 -1.5421  1.3892
  413MOL0     H54457   8.590   1.361   2.751  2.1270  1.5362  1.0575
  413MOL0     H54458   8.515   1.332   2.912  1.2515  1.4852 -0.6666
  413MOL0     H54459   8.499   1.142   2.689  1.0665 -2.4103  2.0514
  413MOL0     H54460   8.434   1.110   2.850 -3.3417 -0.0780 -0.5938
  413MOL0     H54461   8.348   1.347   2.678  3.8462 -0.6763  0.1908
  413MOL0     H54462   8.285   1.294   2.837 -4.9591  0.3094 -1.4095
  413MOL0     H54463   8.208   1.074   2.730  0.6506 -1.9869 -0.8323
  413MOL0     H54464   8.297   1.120   2.581 -1.8754  1.5452 -1.7861
  413MOL0     H54465   8.140   1.332   2.583  0.9661  0.6487  1.7691
  413MOL0     H54466   8.072   1.173   2.529 -0.2430 -2.6466  1.0167
  413MOL0     H54467   7.937   1.314   2.706  0.1405  0.0545 -1.9153
  413MOL0     H54468   8.039   1.246   2.825  0.1036  3.0931 -0.3914
  413MOL0     H54469   8.036   0.998   2.867  1.7806  1.8085 -0.8533
  413MOL0     H54470   7.910   0.772   2.933  0.6379  0.4145 -1.4332
  413MOL0     H54471   7.795   0.730   2.801 -1.1386 -0.4511  0.3217
  413MOL0     H54472   7.676   0.707   2.979 -0.1341 -0.9724  1.8351
  413MOL0     H54473   7.609   0.842   2.884 -1.1371  1.2175  2.1435
  413MOL0     H54474   7.778   0.869   3.140 -0.6080 -0.2028  1.5312
  413MOL0     H54475   7.737   1.007   3.045 -0.3361 -0.4634 -0.8037
  413MOL0     H54476   7.500   0.995   3.087  1.0078  2.5116  1.3497
  413MOL0     H54477   7.582   1.012   3.227  0.0011  0.8078 -0.6266
  413MOL0     H54478   7.384   0.615   3.113  0.3838  0.6687  0.0351
  413MOL0     H54479   7.144   0.592   3.113 -0.1560 -0.6238  1.5702
  413MOL0     H54480   6.746   0.575   3.018 -3.4019  1.5134 -2.3275
  413MOL0     H54481   6.505   0.514   3.048  0.4140  2.5392 -1.4209
  413MOL0     H54482   6.255   0.652   3.355 -0.4624 -0.1115 -1.0462
  413MOL0     H54483   6.352   0.556   3.474 -1.8894 -0.3474  1.8575
  413MOL0     H54484   6.124   0.492   3.500  0.2108  1.5691 -0.3748
  413MOL0     H54485   6.217   0.354   3.423  1.7293 -1.0795 -4.7713
  413MOL0     H54486   6.119   0.396   3.212 -1.4854  0.1825 -0.4109
  413MOL0     H54487   6.067   0.565   3.249  2.1640  0.3683  1.7558
  413MOL0     H54488   5.947   0.316   3.374  0.4455  0.1279  0.9920
  413MOL0     H54489   5.919   0.479   3.438  1.5708  0.8702 -0.2807
  413MOL0     H54490   5.846   0.346   3.173 -3.0458 -0.3409  1.4436
  413MOL0     H54491   5.837   0.518   3.189  2.4272  1.4830  1.4239
  413MOL0     H54492   5.682   0.502   3.387  0.5147  0.7971  0.1625
  413MOL0     H54493   5.671   0.327   3.355 -0.0564 -0.1019 -2.3866
  413MOL0     H54494   5.581   0.559   3.211  1.8595 -0.5512  2.6497
  413MOL0     H54495   5.607   0.410   3.116 -0.3163 -3.9355  0.4015
  413MOL0     H54496   5.463   0.299   3.320 -0.2912  0.4665  0.5353
  413MOL0     H54497   5.385   0.370   3.175 -2.0274  0.3726  1.6903
  413MOL0     H54498   6.564   0.546   3.476 -0.3688 -0.1285 -1.3843
  413MOL0     H54499   6.786   0.629   3.442 -0.5713  2.3805 -0.3748
  413MOL0     H54500   7.108   0.939   3.358 -0.1759  1.8652 -1.6064
  413MOL0     H54501   7.354   0.973   3.354  1.9823 -0.1246 -1.2755
  413MOL0     H54502   8.964   1.481   2.978 -1.0421  0.0397 -3.1190
  413MOL0     H54503   9.194   1.575   3.081  2.4760 -1.3931  2.1168
  413MOL0     H54504   9.601   1.418   3.272 -0.6977  0.9885  2.2101
  413MOL0     H54505   9.785   1.478   3.392 -1.6733 -1.6890 -1.5961
  413MOL0     H54506   9.868   1.923   3.445  0.8240 -0.1839  2.8141
  413MOL0     H54507   9.965   1.897   3.291  0.3107  0.8495  0.4912
  413MOL0     H54508  10.099   1.995   3.465 -0.9806 -0.6446 -4.1388
  413MOL0     H54509  10.046   1.857   3.582 -0.2367  2.3821  1.5910
  413MOL0     H54510  10.195   1.786   3.314  0.0947  0.0063 -0.0981
  413MOL0     H54511  10.180   1.697   3.465  1.5869 -1.1284 -1.9295
  413MOL0     H54512  10.341   1.938   3.415 -1.1175 -0.9252 -2.7795
  413MOL0     H54513  10.343   1.848   3.557 -0.4127 -1.4644  0.6832
  413MOL0     H54514  10.605   1.631   3.306 -0.2477 -0.7939  0.5255
  413MOL0     H54515   9.758   1.876   3.206  0.6890 -0.1991 -0.1731
  413MOL0     H54516   9.601   1.791   3.063 -1.6456 -0.6443  0.9031
  414MOL0     O54517   5.504   9.362   3.527 -0.7249 -1.0315 -0.1982
  414MOL0     C54518   5.571   9.434   3.451  0.3535 -0.7922  0.2730
  414MOL0     O54519   5.597   9.564   3.477  0.4962 -0.4874 -0.0811
  414MOL0     C54520   5.537   9.610   3.593  0.4502  0.3287  1.0998
  414MOL0     C54521   5.396   9.637   3.593 -0.3562  0.1016  0.0234
  414MOL0     C54522   5.341   9.696   3.706 -0.7995 -0.2644  0.0052
  414MOL0     C54523   5.425   9.728   3.818 -0.0506 -0.2225 -0.1401
  414MOL0     O54524   5.384   9.788   3.928  0.0387  0.6334  0.3975
  414MOL0     C54525   5.255   9.840   3.950  0.0273 -0.2409  0.2956
  414MOL0     C54526   5.238   9.890   4.084 -0.8120  0.2690  0.0626
  414MOL0     C54527   5.094   9.919   4.130 -0.3303 -0.2259  0.1318
  414MOL0     C54528   5.087   9.953   4.284  0.7861  0.2390 -0.9297
  414MOL0     C54529   4.940   9.981   4.337  0.2364  0.1751  0.6019
  414MOL0     C54530   4.941   9.969   4.497  0.3744  0.5167 -0.4381
  414MOL0     C54531   4.801   9.995   4.547  0.4409  0.3125 -0.0031
  414MOL0     C54532   4.791   9.960   4.697 -0.0098  0.1260 -0.7153
  414MOL0     N54533   4.652   9.972   4.738 -0.2755 -0.3085  0.5103
  414MOL0     C54534   4.590  10.087   4.776  0.0441  0.8914  0.0078
  414MOL0     C54535   4.465  10.050   4.812 -0.5377  1.0207  0.6992
  414MOL0     C54536   4.356  10.140   4.859 -0.1216 -0.1965  0.4978
  414MOL0     C54537   4.369  10.285   4.835  0.4353 -0.1165  0.5248
  414MOL0     C54538   4.473  10.344   4.934  0.1581  0.7810 -0.1799
  414MOL0     C54539   4.482  10.489   4.897  0.4564  0.7917 -0.0452
  414MOL0     O54540   4.556  10.508   4.771  0.3177 -0.0645 -0.1849
  414MOL0     C54541   4.689  10.470   4.781  0.2189  0.1027 -0.0878
  414MOL0     C54542   4.780  10.484   4.891  0.3412 -0.0234 -0.5348
  414MOL0     C54543   4.909  10.430   4.883  0.5305 -0.3159 -0.1251
  414MOL0     C54544   4.952  10.361   4.772 -0.0253 -0.7480 -0.7763
  414MOL0     C54545   5.090  10.327   4.766 -0.7878  0.0148 -0.1201
  414MOL0     O54546   5.126  10.247   4.663  0.1778  0.6206 -0.3121
  414MOL0     C54547   5.256  10.198   4.649 -0.0207 -0.3615 -1.0340
  414MOL0     C54548   5.311  10.111   4.746 -0.5277  0.0195  0.2672
  414MOL0     C54549   5.437  10.044   4.720  0.0434  0.5058  0.8471
  414MOL0     C54550   5.503  10.062   4.598  0.5491 -0.0419  1.0164
  414MOL0     O54551   5.616   9.993   4.554  0.2967  0.5544 -0.6826
  414MOL0     C54552   5.665   9.892   4.642  0.2381  0.5375  0.2306
  414MOL0     C54553   5.808   9.860   4.601 -0.1847 -0.0291 -0.3120
  414MOL0     C54554   5.894   9.983   4.624 -0.7553 -0.2465 -0.2870
  414MOL0     C54555   6.046   9.971   4.605 -0.0772 -0.1114 -0.0693
  414MOL0     C54556   6.116  10.109   4.644  0.4003  0.6753 -0.1881
  414MOL0     C54557   6.103  10.223   4.534 -0.1005  0.4031  0.3255
  414MOL0     C54558   6.142  10.359   4.576  0.8327  0.0430  0.3920
  414MOL0     C54559   6.260  10.370   4.673  0.3874 -0.8250  0.4998
  414MOL0    Cl54560   6.405  10.327   4.594 -0.1758  0.3928 -0.2985
  414MOL0     C54561   5.449  10.143   4.507  1.0045 -0.0697  0.7934
  414MOL0     C54562   5.326  10.212   4.528 -0.0742 -0.3874  0.0703
  414MOL0     O54563   5.166  10.382   4.846  0.6168 -0.1019 -0.3614
  414MOL0     C54564   4.867  10.343   4.666 -0.7382  1.0443  0.6516
  414MOL0     C54565   4.736  10.393   4.673 -0.2298  0.5920 -0.5290
  414MOL0     N54566   4.448   9.911   4.789  0.2701  0.3152  0.6631
  414MOL0     N54567   4.563   9.867   4.744 -0.4634  0.5571  0.2681
  414MOL0     C54568   5.556   9.707   3.810  0.3039 -0.4262 -0.1705
  414MOL0     C54569   5.611   9.634   3.705  0.2936 -1.0190  0.1059
  414MOL0     C54570   5.640   9.369   3.337  0.5647 -0.2541  0.2532
  414MOL0     C54571   5.694   9.452   3.240  0.1008  0.5133 -0.2317
  414MOL0     C54572   5.770   9.394   3.135  0.2991  0.6901 -0.9135
  414MOL0     C54573   5.777   9.255   3.122  0.0542 -0.0049 -0.0348
  414MOL0     O54574   5.849   9.192   3.017 -0.4227 -0.3883 -0.4031
  414MOL0     C54575   5.809   9.064   2.961  0.1445 -0.7607 -1.0195
  414MOL0     C54576   5.896   9.031   2.838  0.3034  0.0110 -0.7940
  414MOL0     C54577   5.899   9.142   2.734 -0.9148 -0.0065  0.2116
  414MOL0     C54578   5.982   9.101   2.605 -0.4519  0.4880  0.2677
  414MOL0     C54579   5.896   9.070   2.494 -0.1559 -0.6836 -0.0036
  414MOL0     C54580   5.813   9.058   2.401 -0.5667 -0.7826 -0.1888
  414MOL0     C54581   5.716   9.174   3.223 -1.2681 -0.0206  0.5537
  414MOL0     C54582   5.652   9.227   3.331 -0.2831 -0.0322  0.1000
  414MOL0     H54583   5.334   9.631   3.504  0.1905  0.5446 -0.3956
  414MOL0     H54584   5.236   9.721   3.702 -0.3038  2.0573 -0.4930
  414MOL0     H54585   5.177   9.768   3.928  2.9720 -3.7738  0.4833
  414MOL0     H54586   5.246   9.924   3.879  1.2383 -1.0498 -0.8745
  414MOL0     H54587   5.296   9.979   4.110 -3.4008  0.9532  4.6645
  414MOL0     H54588   5.271   9.812   4.153  1.8710  1.9998  0.9094
  414MOL0     H54589   5.034   9.830   4.109 -1.9680  0.5555  1.2977
  414MOL0     H54590   5.059  10.002   4.068  0.2646  1.5427  2.0785
  414MOL0     H54591   5.120   9.861   4.333 -0.8273  0.9812  1.7034
  414MOL0     H54592   5.157  10.026   4.325 -2.7789  1.5846  3.4943
  414MOL0     H54593   4.870   9.909   4.292 -0.1186  0.8196  0.0983
  414MOL0     H54594   4.905  10.080   4.308  3.0271  1.3114  0.8260
  414MOL0     H54595   5.010  10.040   4.542  0.2555 -0.5613  1.5555
  414MOL0     H54596   4.978   9.867   4.517 -2.2683 -0.0570  2.2469
  414MOL0     H54597   4.798  10.101   4.520  4.0168  0.5492  0.0142
  414MOL0     H54598   4.728   9.940   4.487  0.6951 -3.3381  2.7133
  414MOL0     H54599   4.850  10.025   4.763 -2.7863  0.9519  1.1382
  414MOL0     H54600   4.819   9.855   4.709  2.0566  0.5226 -1.6149
  414MOL0     H54601   4.627  10.189   4.768 -0.6230  1.2714  1.4709
  414MOL0     H54602   4.327  10.110   4.960  4.5177 -1.9678  1.5317
  414MOL0     H54603   4.270  10.110   4.798  1.0892 -0.0666 -1.3462
  414MOL0     H54604   4.275  10.339   4.833 -0.3539 -1.4530 -1.6244
  414MOL0     H54605   4.398  10.301   4.731  0.4486  0.1953  0.5769
  414MOL0     H54606   4.435  10.333   5.036  2.6482 -0.7465  0.6597
  414MOL0     H54607   4.571  10.297   4.937  1.6402  2.9295 -5.1723
  414MOL0     H54608   4.522  10.547   4.981 -1.8697  3.9222 -0.9111
  414MOL0     H54609   4.383  10.531   4.880  1.1733  2.8260  0.5141
  414MOL0     H54610   4.757  10.529   4.987  3.8392 -2.3681  1.6306
  414MOL0     H54611   4.971  10.446   4.970  0.8519 -1.4781 -0.1320
  414MOL0     H54612   5.261  10.100   4.842  0.2199  1.4380  0.8359
  414MOL0     H54613   5.482   9.997   4.806 -0.8193 -1.1891  0.4132
  414MOL0     H54614   5.614   9.795   4.636  0.4959  0.4752 -3.3277
  414MOL0     H54615   5.668   9.932   4.744 -1.4350  3.5685 -0.7915
  414MOL0     H54616   5.813   9.841   4.494 -0.5934 -0.9220 -0.1885
  414MOL0     H54617   5.844   9.776   4.662 -0.1698 -0.2197 -0.5835
  414MOL0     H54618   5.868  10.032   4.719 -2.4372  2.1702 -1.8700
  414MOL0     H54619   5.860  10.056   4.550  1.1866  2.5211  1.3436
  414MOL0     H54620   6.099   9.894   4.661  3.6000  1.3391 -1.2410
  414MOL0     H54621   6.061   9.955   4.498 -1.9884 -0.6315 -0.2986
  414MOL0     H54622   6.224  10.093   4.652  0.3220 -0.4626 -1.0686
  414MOL0     H54623   6.071  10.143   4.738 -0.7123 -1.0074 -0.0642
  414MOL0     H54624   6.006  10.231   4.483 -0.0930  1.4568  0.4573
  414MOL0     H54625   6.178  10.200   4.457  0.5283  0.9249  0.7737
  414MOL0     H54626   6.164  10.417   4.486 -1.9074 -1.2403 -1.2360
  414MOL0     H54627   6.062  10.407   4.634  1.8995  2.6218 -0.1358
  414MOL0     H54628   6.239  10.317   4.766 -3.2789  1.6764  1.3102
  414MOL0     H54629   6.265  10.477   4.693 -0.3103 -1.2330  3.2251
  414MOL0     H54630   5.490  10.146   4.406 -0.8819  0.6791 -0.0031
  414MOL0     H54631   5.276  10.267   4.449 -2.1685 -2.2891 -0.0480
  414MOL0     H54632   4.907  10.287   4.582 -0.1269  2.2096  0.1427
  414MOL0     H54633   4.672  10.380   4.587 -1.0703  2.7754 -0.2865
  414MOL0     H54634   5.621   9.750   3.886  0.2771 -0.3844 -0.1706
  414MOL0     H54635   5.718   9.614   3.708  0.6134  0.4495 -0.9839
  414MOL0     H54636   5.677   9.559   3.240  0.2167  0.5746 -2.4527
  414MOL0     H54637   5.802   9.458   3.054  0.5901  0.4312 -1.0076
  414MOL0     H54638   5.703   9.064   2.934 -0.3267 -2.6621  0.5950
  414MOL0     H54639   5.815   8.982   3.033  0.7512  0.8325  0.8194
  414MOL0     H54640   5.999   9.024   2.876  0.9292  3.0829 -1.6567
  414MOL0     H54641   5.873   8.933   2.794  0.5827 -0.9129  0.9920
  414MOL0     H54642   5.952   9.226   2.779  1.3583 -0.2255 -1.8615
  414MOL0     H54643   5.799   9.171   2.701 -0.8003 -0.9423 -1.0337
  414MOL0     H54644   6.043   9.188   2.582  2.5177 -1.5207 -0.0869
  414MOL0     H54645   6.044   9.011   2.615  0.5413  0.6322 -3.3909
  414MOL0     H54646   5.735   9.035   2.332 -2.0614 -0.7802  1.4249
  414MOL0     H54647   5.725   9.065   3.222  0.0255  0.0705  0.0878
  414MOL0     H54648   5.617   9.156   3.405 -1.2209  0.4470  0.1313
  415MOL0     O54649   2.485   6.247   4.179  0.7154 -0.3055  0.2119
  415MOL0     C54650   2.551   6.353   4.177  0.8134  0.7336  0.4623
  415MOL0     O54651   2.512   6.468   4.225 -0.7392 -0.0552  0.1979
  415MOL0     C54652   2.369   6.484   4.227 -1.0567 -0.6405 -0.6221
  415MOL0     C54653   2.288   6.507   4.116  0.0990 -0.2193  0.0474
  415MOL0     C54654   2.152   6.490   4.126 -0.0067 -0.8469 -0.5055
  415MOL0     C54655   2.091   6.467   4.251  0.7274 -0.0291 -0.1349
  415MOL0     O54656   1.954   6.455   4.254  0.1808 -0.2312 -0.1971
  415MOL0     C54657   1.875   6.520   4.356  1.0691 -0.2912  0.6784
  415MOL0     C54658   1.729   6.491   4.315 -0.1913  0.1461  0.2301
  415MOL0     C54659   1.613   6.507   4.420 -0.1670  0.4892 -0.2929
  415MOL0     C54660   1.481   6.529   4.354  0.4144 -0.1816 -0.5567
  415MOL0     C54661   1.375   6.527   4.462 -0.0588 -0.4077  0.7224
  415MOL0     C54662   1.247   6.596   4.421 -0.1242 -0.5149 -0.3919
  415MOL0     C54663   1.256   6.743   4.404  0.1006  0.0334  0.6052
  415MOL0     C54664   1.130   6.805   4.337 -0.1657 -0.0172  0.2181
  415MOL0     N54665   1.020   6.780   4.429 -0.3051 -0.2038  0.3270
  415MOL0     C54666   0.904   6.702   4.419  0.3821 -1.2127  0.6776
  415MOL0     C54667   0.834   6.714   4.540  0.0954 -0.6325  0.0233
  415MOL0     C54668   0.714   6.630   4.584 -0.8489 -0.1132 -0.5844
  415MOL0     C54669   0.757   6.515   4.674  0.4113  0.1492 -0.2849
  415MOL0     C54670   0.645   6.413   4.694  0.3407 -0.1206  0.7621
  415MOL0     C54671   0.706   6.315   4.797  0.2001  0.6254 -0.0349
  415MOL0     O54672   0.701   6.359   4.936  0.3832  0.1368 -0.2747
  415MOL0     C54673   0.571   6.383   4.988 -0.3816 -0.2728  0.3054
  415MOL0     C54674   0.541   6.517   5.022  0.5406 -0.7631  0.9629
  415MOL0     C54675   0.427   6.549   5.092 -0.5521 -0.3030 -0.6798
  415MOL0     C54676   0.328   6.459   5.130  0.3939 -0.6057  0.2908
  415MOL0     C54677   0.198   6.493   5.202 -0.0060  0.3166  0.2903
  415MOL0     O54678   0.100   6.401   5.202 -0.1740  0.5369  0.1843
  415MOL0     C54679  -0.025   6.421   5.263 -0.0604 -0.8858 -0.5800
  415MOL0     C54680  -0.139   6.375   5.191  0.0565 -0.0061 -0.0918
  415MOL0     C54681  -0.264   6.412   5.221  0.9896  1.4309  0.6889
  415MOL0     C54682  -0.285   6.475   5.334 -0.4783  0.5292 -0.4164
  415MOL0     O54683  -0.412   6.508   5.381  0.6563  0.2049 -0.0631
  415MOL0     C54684  -0.524   6.529   5.293 -0.5495  0.3947  0.5817
  415MOL0     C54685  -0.633   6.613   5.364 -0.3054 -0.1708 -0.7069
  415MOL0     C54686  -0.721   6.693   5.274 -1.1753 -0.4655  0.7798
  415MOL0     C54687  -0.817   6.780   5.357  0.5109  0.3572 -0.5222
  415MOL0     C54688  -0.919   6.855   5.266  0.1719 -0.2428  0.5984
  415MOL0     C54689  -1.026   6.927   5.342 -0.3342 -0.2588  0.0844
  415MOL0     C54690  -1.110   7.016   5.251 -0.0337  0.1898  0.1449
  415MOL0     C54691  -1.232   7.063   5.321  0.5020  1.1643 -0.3794
  415MOL0    Cl54692  -1.348   6.936   5.333  0.6023  0.0921 -0.5274
  415MOL0     C54693  -0.179   6.519   5.416  0.3832  0.7331  0.1919
  415MOL0     C54694  -0.045   6.497   5.375  1.2282  0.5155 -0.3425
  415MOL0     O54695   0.194   6.606   5.239 -0.3833 -0.2930 -0.1654
  415MOL0     C54696   0.352   6.324   5.093  0.6041  0.7673 -0.3264
  415MOL0     C54697   0.479   6.287   5.035  1.0380 -0.3571 -0.0236
  415MOL0     N54698   0.902   6.825   4.605  0.2784  0.5548  0.6095
  415MOL0     N54699   1.009   6.854   4.537 -0.4627  0.8970 -0.3936
  415MOL0     C54700   2.169   6.439   4.363 -0.7371  0.6525  0.5932
  415MOL0     C54701   2.306   6.457   4.349  0.0498 -0.8133  0.2084
  415MOL0     C54702   2.679   6.356   4.113 -0.6507  0.4315 -0.1609
  415MOL0     C54703   2.740   6.239   4.057 -0.1401  0.4247 -0.6845
  415MOL0     C54704   2.855   6.241   3.974  0.1904  0.5896 -0.4115
  415MOL0     C54705   2.905   6.367   3.939 -0.8127  0.2030 -0.9694
  415MOL0     O54706   3.015   6.383   3.863  0.5744 -0.0103  0.3219
  415MOL0     C54707   3.090   6.280   3.807  0.0325  0.2844  0.1398
  415MOL0     C54708   3.175   6.341   3.695  0.4717 -0.2010  0.8745
  415MOL0     C54709   3.288   6.424   3.761  0.4996  0.7252  0.4254
  415MOL0     C54710   3.388   6.465   3.652  0.7856  0.4103 -0.0007
  415MOL0     C54711   3.501   6.536   3.712  0.0976 -0.2777  1.1652
  415MOL0     C54712   3.611   6.573   3.746 -0.3104 -0.3683  0.0769
  415MOL0     C54713   2.840   6.487   3.986  0.2076  0.6035  0.2747
  415MOL0     C54714   2.735   6.483   4.073  0.2161 -0.4582  0.3969
  415MOL0     H54715   2.319   6.534   4.015  0.6921 -1.4531 -0.1208
  415MOL0     H54716   2.092   6.505   4.037 -2.1426  0.7552  1.1053
  415MOL0     H54717   1.893   6.626   4.378  0.2250 -0.4080  2.0231
  415MOL0     H54718   1.890   6.480   4.457 -0.3419  3.3461  2.5427
  415MOL0     H54719   1.731   6.384   4.291 -0.7493  0.5322 -1.7378
  415MOL0     H54720   1.702   6.526   4.214 -1.7809  0.8310  0.8545
  415MOL0     H54721   1.634   6.600   4.474  1.2264  1.1002 -1.7855
  415MOL0     H54722   1.613   6.419   4.484  0.4281 -0.1606 -1.1711
  415MOL0     H54723   1.488   6.629   4.311 -0.5067  1.0761  2.0043
  415MOL0     H54724   1.455   6.452   4.280 -0.8578  0.2548 -0.5969
  415MOL0     H54725   1.412   6.583   4.548 -0.4731  2.1952 -0.6896
  415MOL0     H54726   1.352   6.425   4.494 -0.6155 -0.4490  0.2067
  415MOL0     H54727   1.166   6.577   4.492  1.0737 -1.8840  0.6732
  415MOL0     H54728   1.211   6.543   4.332  0.1858  0.2523 -0.9891
  415MOL0     H54729   1.266   6.787   4.503 -2.9279 -0.9920  1.4635
  415MOL0     H54730   1.338   6.773   4.338  0.3662 -1.6758  0.1192
  415MOL0     H54731   1.100   6.763   4.241 -1.2822  0.5946  0.2838
  415MOL0     H54732   1.135   6.914   4.327  1.0041 -0.1450 -0.7826
  415MOL0     H54733   0.862   6.638   4.342 -1.7838 -0.1960  0.9445
  415MOL0     H54734   0.676   6.586   4.492  1.5550  0.9510 -2.1746
  415MOL0     H54735   0.637   6.695   4.628  1.4295  0.5744  2.8051
  415MOL0     H54736   0.776   6.552   4.775 -1.4217  1.7415 -0.4621
  415MOL0     H54737   0.848   6.478   4.627 -0.4493 -0.5279 -1.4654
  415MOL0     H54738   0.550   6.448   4.734  1.0416  0.8119  1.6878
  415MOL0     H54739   0.634   6.364   4.597  2.9867  2.3908 -0.9658
  415MOL0     H54740   0.798   6.266   4.763  0.3075  0.9522 -0.2164
  415MOL0     H54741   0.639   6.230   4.785 -0.5120  1.4656 -2.4911
  415MOL0     H54742   0.602   6.596   4.980 -0.1126 -0.7407  0.0158
  415MOL0     H54743   0.417   6.653   5.122  0.7675 -0.8591  2.0289
  415MOL0     H54744  -0.144   6.309   5.105 -0.9002 -2.2288  1.5698
  415MOL0     H54745  -0.354   6.388   5.164  1.4229  0.2569  0.4688
  415MOL0     H54746  -0.577   6.438   5.262 -0.5428  0.5452  0.1160
  415MOL0     H54747  -0.494   6.584   5.203 -2.0139  2.0761  1.0596
  415MOL0     H54748  -0.582   6.684   5.431  1.9023 -1.5939 -0.7763
  415MOL0     H54749  -0.695   6.556   5.434 -1.3432  2.9117  1.0962
  415MOL0     H54750  -0.773   6.624   5.207  1.2087 -1.0169 -0.6318
  415MOL0     H54751  -0.661   6.763   5.215  0.0354 -2.5129 -0.5639
  415MOL0     H54752  -0.871   6.715   5.426 -0.1237 -2.3074 -3.2727
  415MOL0     H54753  -0.761   6.846   5.423  1.7690  0.3361 -1.5338
  415MOL0     H54754  -0.963   6.780   5.199 -0.2731  0.6207 -0.0990
  415MOL0     H54755  -0.870   6.931   5.205  0.1516 -1.4004 -0.9216
  415MOL0     H54756  -0.974   6.982   5.422 -1.9013 -1.2804  1.8912
  415MOL0     H54757  -1.091   6.854   5.392 -0.6145  0.4409  0.7553
  415MOL0     H54758  -1.038   7.093   5.220  0.7149 -1.0105 -1.2600
  415MOL0     H54759  -1.138   6.955   5.165  0.4137 -0.9905  0.8136
  415MOL0     H54760  -1.269   7.153   5.272  0.1859 -0.6483 -3.7306
  415MOL0     H54761  -1.211   7.087   5.426  3.0995 -1.0225 -0.2809
  415MOL0     H54762  -0.201   6.570   5.509 -0.7903  1.1325 -0.2764
  415MOL0     H54763   0.033   6.549   5.430  1.7160  0.7207 -1.2099
  415MOL0     H54764   0.286   6.247   5.133  1.8315  0.2823  0.8537
  415MOL0     H54765   0.503   6.181   5.027 -1.9243 -0.9883 -2.0904
  415MOL0     H54766   2.130   6.404   4.458  1.0279 -0.5403  0.9406
  415MOL0     H54767   2.360   6.448   4.443  2.3437 -1.9711 -1.1527
  415MOL0     H54768   2.695   6.144   4.082  0.3553  0.8802  2.3061
  415MOL0     H54769   2.905   6.147   3.953 -2.6708 -0.5725 -2.7444
  415MOL0     H54770   3.023   6.199   3.776  1.8406 -1.1386 -0.2173
  415MOL0     H54771   3.163   6.232   3.873 -2.0978 -0.8086  1.8314
  415MOL0     H54772   3.218   6.255   3.643 -2.3032 -3.2350  3.1331
  415MOL0     H54773   3.107   6.397   3.630 -0.5784  0.1373  2.2181
  415MOL0     H54774   3.331   6.373   3.848  1.6130  1.9822  0.6507
  415MOL0     H54775   3.235   6.511   3.802 -0.0188  0.5595  0.1077
  415MOL0     H54776   3.428   6.376   3.603  1.5126  0.3764  0.6453
  415MOL0     H54777   3.342   6.529   3.576  1.2365  1.1459  0.3347
  415MOL0     H54778   3.709   6.610   3.770 -0.2937 -0.0588 -0.4490
  415MOL0     H54779   2.868   6.584   3.948 -2.5572  0.4929 -2.4533
  415MOL0     H54780   2.687   6.578   4.095 -0.1298 -0.5327 -0.0414
  416MOL0     O54781   8.733   2.051   1.069 -0.3253 -0.6546 -0.2456
  416MOL0     C54782   8.785   2.063   0.958  0.8951  0.6251 -0.3498
  416MOL0     O54783   8.716   2.054   0.839  0.3732  0.6077  0.7185
  416MOL0     C54784   8.587   2.012   0.847 -0.2217  0.8298 -0.5003
  416MOL0     C54785   8.502   2.091   0.773  0.0148  0.0901  0.4797
  416MOL0     C54786   8.365   2.065   0.781 -0.1338  0.0448 -0.5986
  416MOL0     C54787   8.307   1.960   0.854 -0.2294  0.6686 -0.6016
  416MOL0     O54788   8.163   1.950   0.848  0.8770 -0.1707  0.4417
  416MOL0     C54789   8.099   1.834   0.898 -0.3162 -0.7784 -0.0964
  416MOL0     C54790   7.945   1.837   0.874  0.5873  0.7348  0.0358
  416MOL0     C54791   7.877   1.961   0.936 -0.8766  0.1187 -0.0992
  416MOL0     C54792   7.738   1.988   0.877  0.1627  0.3974 -0.6536
  416MOL0     C54793   7.620   1.891   0.928  0.4436 -0.8120 -0.3578
  416MOL0     C54794   7.492   1.890   0.845 -0.3042 -0.2783  0.4393
  416MOL0     C54795   7.438   2.025   0.797 -0.0325  1.0668 -0.3065
  416MOL0     C54796   7.417   2.124   0.906 -0.4994 -0.0298 -0.7982
  416MOL0     N54797   7.293   2.087   0.981 -0.5694  0.1939 -0.2251
  416MOL0     C54798   7.299   2.027   1.105 -0.1311 -0.2265  0.3184
  416MOL0     C54799   7.175   2.046   1.160 -0.7930 -0.2451  0.6254
  416MOL0     C54800   7.129   1.995   1.289  0.0111 -0.1113 -0.0002
  416MOL0     C54801   7.009   1.901   1.272 -0.5686  0.3213  0.5136
  416MOL0     C54802   6.885   1.975   1.230  0.0792  0.0340  0.4257
  416MOL0     C54803   6.766   1.897   1.306 -0.7150  0.7248  0.0967
  416MOL0     O54804   6.663   1.987   1.301  0.0935 -0.3380  0.2896
  416MOL0     C54805   6.540   1.948   1.347  0.2226  0.6829  0.0714
  416MOL0     C54806   6.437   2.045   1.360  0.3809  0.6089  0.1796
  416MOL0     C54807   6.307   2.010   1.399 -0.2936 -0.4310  0.1951
  416MOL0     C54808   6.270   1.880   1.426  0.6298 -0.7501 -0.1364
  416MOL0     C54809   6.131   1.841   1.469 -0.8109 -0.1537  0.5220
  416MOL0     O54810   6.110   1.713   1.476 -0.0784  0.2570  0.1361
  416MOL0     C54811   5.986   1.671   1.494  1.1926 -0.2377  0.7751
  416MOL0     C54812   5.918   1.701   1.618 -0.0780 -0.5054 -0.6925
  416MOL0     C54813   5.790   1.663   1.627  0.6332  0.0312  0.3270
  416MOL0     C54814   5.723   1.587   1.530 -0.3731 -0.3284 -0.3594
  416MOL0     O54815   5.594   1.547   1.526  0.3762  0.3279 -0.2072
  416MOL0     C54816   5.504   1.568   1.642 -0.7875 -1.0977 -0.5336
  416MOL0     C54817   5.383   1.487   1.624  0.6069  0.7633  0.1034
  416MOL0     C54818   5.275   1.542   1.532  0.4649 -0.7523 -0.5415
  416MOL0     C54819   5.143   1.471   1.547 -0.0499 -0.0209 -0.1697
  416MOL0     C54820   5.057   1.521   1.658 -0.2426  0.2471  0.2599
  416MOL0     C54821   4.909   1.472   1.629 -0.0475  0.1809  0.8698
  416MOL0     C54822   4.831   1.535   1.740  0.2601  0.0640 -0.3415
  416MOL0     C54823   4.685   1.498   1.731 -0.1788 -0.4743 -0.0426
  416MOL0    Cl54824   4.661   1.348   1.816  0.2467  0.1181 -0.5431
  416MOL0     C54825   5.789   1.553   1.417 -0.2542  0.5747  0.6962
  416MOL0     C54826   5.923   1.589   1.400 -0.9574 -0.8394  0.0716
  416MOL0     O54827   6.049   1.928   1.489 -0.1150  0.1622  0.6161
  416MOL0     C54828   6.372   1.785   1.431  0.3375 -0.3519  0.6682
  416MOL0     C54829   6.504   1.820   1.396  0.0654  0.5140 -0.2423
  416MOL0     N54830   7.097   2.118   1.069  0.3505 -0.0480 -0.9508
  416MOL0     N54831   7.174   2.145   0.967  0.4193 -0.1162  0.1880
  416MOL0     C54832   8.398   1.873   0.928  0.9837  0.5042  0.5330
  416MOL0     C54833   8.537   1.901   0.919  0.9819  0.7022  0.1779
  416MOL0     C54834   8.922   2.108   0.950 -0.0482 -0.1420  0.1909
  416MOL0     C54835   8.974   2.160   0.826  0.0582 -0.0790  0.3001
  416MOL0     C54836   9.098   2.218   0.812 -0.0229 -0.3435 -0.1277
  416MOL0     C54837   9.186   2.201   0.914  0.2482 -0.1633  0.2896
  416MOL0     O54838   9.315   2.247   0.915 -0.5785 -0.3418  0.2329
  416MOL0     C54839   9.351   2.342   0.819 -0.0492 -0.6026 -0.0027
  416MOL0     C54840   9.485   2.413   0.857  0.6799 -0.1160  0.9316
  416MOL0     C54841   9.538   2.474   0.731 -0.5671 -1.3694  0.8107
  416MOL0     C54842   9.680   2.538   0.745 -0.6523  0.5022  0.1910
  416MOL0     C54843   9.730   2.562   0.613  0.2070 -0.2706  0.0501
  416MOL0     C54844   9.786   2.602   0.517 -0.4115  0.4778  0.2911
  416MOL0     C54845   9.139   2.149   1.046  0.4106 -0.2637  0.5490
  416MOL0     C54846   9.006   2.107   1.062 -0.3661 -0.0141 -0.3832
  416MOL0     H54847   8.531   2.175   0.711 -0.8948 -0.1258 -0.2723
  416MOL0     H54848   8.315   2.146   0.729  2.3426  1.1418 -1.3964
  416MOL0     H54849   8.120   1.828   1.005  0.1260  0.4127 -0.1021
  416MOL0     H54850   8.147   1.742   0.865  2.6109 -0.3600  2.5420
  416MOL0     H54851   7.891   1.749   0.909 -1.4963  0.9301 -2.3659
  416MOL0     H54852   7.920   1.833   0.768 -0.1479 -0.6900  0.2363
  416MOL0     H54853   7.933   2.054   0.926 -2.0531  0.8529  0.0238
  416MOL0     H54854   7.868   1.947   1.044 -3.9464  1.4566 -0.0860
  416MOL0     H54855   7.716   2.094   0.894 -1.0740  0.0182  0.2023
  416MOL0     H54856   7.731   1.977   0.768 -3.1455 -0.3710 -0.4631
  416MOL0     H54857   7.584   1.906   1.030  2.1783 -1.7792  0.4374
  416MOL0     H54858   7.657   1.788   0.929 -0.8717 -1.3088 -0.3052
  416MOL0     H54859   7.412   1.844   0.904 -0.5796 -1.3487 -0.7400
  416MOL0     H54860   7.504   1.827   0.757  0.7368  1.4406 -0.7213
  416MOL0     H54861   7.509   2.069   0.727  0.2109  0.2724 -0.5659
  416MOL0     H54862   7.349   2.006   0.737 -1.4742  0.2428  1.9494
  416MOL0     H54863   7.405   2.226   0.867  1.2344  1.8477  2.9978
  416MOL0     H54864   7.507   2.127   0.969 -0.2516 -1.0852 -1.0936
  416MOL0     H54865   7.387   1.971   1.136  2.6323  3.2543 -0.5486
  416MOL0     H54866   7.113   2.077   1.360 -4.0842  1.0180 -1.9424
  416MOL0     H54867   7.211   1.942   1.338 -0.4801  0.9569  2.0778
  416MOL0     H54868   6.994   1.862   1.373 -2.1331  1.3075  0.6970
  416MOL0     H54869   7.033   1.816   1.207 -0.9878  0.6821 -0.1249
  416MOL0     H54870   6.888   2.078   1.266  0.6878 -0.1728  0.9980
  416MOL0     H54871   6.873   1.969   1.122  0.2710  1.1517  0.3340
  416MOL0     H54872   6.797   1.880   1.410  1.3845 -0.6866 -0.6925
  416MOL0     H54873   6.751   1.800   1.257  0.0599  0.9996 -0.6917
  416MOL0     H54874   6.467   2.147   1.337 -0.0315  0.4537 -1.1488
  416MOL0     H54875   6.227   2.084   1.398  1.2868  1.4317 -2.4233
  416MOL0     H54876   5.972   1.748   1.700 -2.0547  0.6457  0.0258
  416MOL0     H54877   5.736   1.700   1.714 -0.2986  1.8943 -0.9767
  416MOL0     H54878   5.475   1.672   1.658 -0.2141 -1.0268  0.1137
  416MOL0     H54879   5.548   1.530   1.735 -2.7241  1.0121  1.3772
  416MOL0     H54880   5.341   1.478   1.725  1.6779  0.5070  0.5332
  416MOL0     H54881   5.404   1.388   1.584 -2.2220  0.4197 -0.7593
  416MOL0     H54882   5.301   1.538   1.426  0.5191  2.7242 -0.7672
  416MOL0     H54883   5.267   1.647   1.559  2.6872 -0.9998  1.3922
  416MOL0     H54884   5.080   1.497   1.461  0.6245 -0.0180 -0.6728
  416MOL0     H54885   5.149   1.362   1.546  1.5301  0.0281 -1.9487
  416MOL0     H54886   5.059   1.630   1.666  0.8027  0.3363 -0.9122
  416MOL0     H54887   5.099   1.481   1.751  1.2072 -1.7043 -1.1433
  416MOL0     H54888   4.897   1.364   1.640  0.0531 -0.1430 -1.6035
  416MOL0     H54889   4.865   1.506   1.534 -0.6011 -1.4188  0.5133
  416MOL0     H54890   4.862   1.503   1.840  1.1633 -2.0708 -1.2561
  416MOL0     H54891   4.824   1.644   1.729 -1.3036  0.2492  1.8010
  416MOL0     H54892   4.644   1.502   1.629  0.9298  2.2460 -0.4467
  416MOL0     H54893   4.624   1.571   1.785 -0.8819 -1.7735  0.9919
  416MOL0     H54894   5.748   1.501   1.331  1.0549  0.1534  0.3020
  416MOL0     H54895   5.984   1.562   1.314 -1.6663 -3.3061  0.2782
  416MOL0     H54896   6.342   1.683   1.454 -2.6777  0.2415 -0.2667
  416MOL0     H54897   6.588   1.752   1.401  0.7942  1.2663 -1.6159
  416MOL0     H54898   8.363   1.789   0.987  0.4506  0.2167 -0.1879
  416MOL0     H54899   8.609   1.841   0.973 -0.0074  1.1341  2.0805
  416MOL0     H54900   8.903   2.171   0.745 -2.1299 -3.0920  1.5915
  416MOL0     H54901   9.120   2.275   0.722 -0.9028 -1.4660 -1.0816
  416MOL0     H54902   9.272   2.417   0.804 -0.5208 -0.8855  1.0062
  416MOL0     H54903   9.368   2.286   0.727 -1.0099 -3.3255  1.3703
  416MOL0     H54904   9.467   2.490   0.933  1.7872  0.6043  0.4813
  416MOL0     H54905   9.543   2.332   0.903 -0.5975 -1.8313 -0.3834
  416MOL0     H54906   9.476   2.557   0.696  1.3691  0.5489  1.6831
  416MOL0     H54907   9.528   2.403   0.649 -2.4043 -0.4820  0.2110
  416MOL0     H54908   9.666   2.631   0.801 -1.0724  0.9080 -0.5679
  416MOL0     H54909   9.749   2.473   0.799  1.4616  2.4156 -0.0610
  416MOL0     H54910   9.841   2.631   0.430 -0.5109  2.5555  0.8557
  416MOL0     H54911   9.210   2.139   1.128 -0.0743  1.8044  1.2803
  416MOL0     H54912   8.967   2.067   1.154  0.0912 -0.3522 -0.3334
  417MOL0     O54913   8.855   1.478   2.571 -0.5455 -0.3350  0.4489
  417MOL0     C54914   8.874   1.577   2.502 -0.0993  0.5871 -0.5764
  417MOL0     O54915   8.803   1.617   2.386 -1.6831  0.2193  0.4755
  417MOL0     C54916   8.681   1.565   2.351  0.1419  1.1370 -0.1860
  417MOL0     C54917   8.617   1.460   2.415 -0.1447 -0.6161  0.8529
  417MOL0     C54918   8.497   1.411   2.353  0.9336  0.0647  0.4291
  417MOL0     C54919   8.443   1.453   2.230 -0.0193 -0.5406 -0.0519
  417MOL0     O54920   8.354   1.387   2.154 -0.0929  0.3013  0.0068
  417MOL0     C54921   8.300   1.254   2.200  0.2550  0.4506  0.0184
  417MOL0     C54922   8.178   1.220   2.118  0.1811  0.9524  0.1353
  417MOL0     C54923   8.064   1.324   2.113 -0.2429 -0.6691 -0.1451
  417MOL0     C54924   8.026   1.378   2.248  0.3108  0.5018  0.1986
  417MOL0     C54925   7.905   1.467   2.232  0.3518 -1.0025 -0.0597
  417MOL0     C54926   7.848   1.505   2.370  0.2687  0.2796 -0.0741
  417MOL0     C54927   7.705   1.571   2.348 -0.1629  0.3765  0.2794
  417MOL0     C54928   7.635   1.590   2.488  0.0904 -0.2068  0.6644
  417MOL0     N54929   7.716   1.661   2.583 -0.5063 -0.2911 -0.3642
  417MOL0     C54930   7.771   1.788   2.565 -0.5390 -0.8038  0.0839
  417MOL0     C54931   7.803   1.839   2.689  0.4689 -0.6532 -0.3647
  417MOL0     C54932   7.859   1.970   2.728  0.0736 -0.1722 -0.0375
  417MOL0     C54933   7.947   2.019   2.612 -0.6282 -0.2987 -0.4454
  417MOL0     C54934   8.000   2.160   2.633  0.1887  0.4643  0.3390
  417MOL0     C54935   8.126   2.175   2.725 -0.2899 -0.2631  0.1280
  417MOL0     O54936   8.240   2.118   2.650 -0.1142 -1.2266 -0.0756
  417MOL0     C54937   8.364   2.152   2.695  0.0102  0.3365  0.2818
  417MOL0     C54938   8.415   2.264   2.635  0.9433 -0.1125 -0.3322
  417MOL0     C54939   8.536   2.308   2.685  0.1656 -0.1195  0.0322
  417MOL0     C54940   8.602   2.253   2.795  0.2174  0.3010  0.1595
  417MOL0     C54941   8.740   2.299   2.829  0.4258 -0.3619 -0.2704
  417MOL0     O54942   8.794   2.395   2.746  0.4067  0.0012  0.8567
  417MOL0     C54943   8.910   2.459   2.771  0.5614 -0.9802 -0.3984
  417MOL0     C54944   8.962   2.496   2.900 -0.4907 -0.0566  0.6705
  417MOL0     C54945   9.066   2.593   2.903 -0.9949  0.0814  0.0084
  417MOL0     C54946   9.131   2.638   2.792  0.3154  0.8094 -0.2268
  417MOL0     O54947   9.218   2.741   2.815 -0.0058 -0.5688  0.2480
  417MOL0     C54948   9.276   2.806   2.698  0.4119 -0.1552  0.9159
  417MOL0     C54949   9.372   2.915   2.740 -0.1774  0.2097 -0.4394
  417MOL0     C54950   9.392   3.012   2.621  0.0840 -0.3478 -0.5211
  417MOL0     C54951   9.506   3.110   2.659 -0.1294 -0.3481  0.5163
  417MOL0     C54952   9.528   3.216   2.556 -0.3979  0.0584 -0.3666
  417MOL0     C54953   9.652   3.307   2.577  0.3386 -0.6381  0.2566
  417MOL0     C54954   9.622   3.441   2.505 -0.4847  0.1497  0.3622
  417MOL0     C54955   9.704   3.553   2.558  0.2143  0.4663 -0.3469
  417MOL0    Cl54956   9.881   3.547   2.512 -0.0396 -0.4760 -0.3311
  417MOL0     C54957   9.082   2.599   2.669 -0.3750  0.0082 -0.2220
  417MOL0     C54958   8.981   2.503   2.658  0.8861  0.1773 -0.1417
  417MOL0     O54959   8.803   2.235   2.911  0.2544 -0.3225 -0.3781
  417MOL0     C54960   8.536   2.147   2.866 -0.3450 -0.0528  0.0362
  417MOL0     C54961   8.414   2.096   2.813 -0.7261  0.0102  0.3034
  417MOL0     N54962   7.768   1.737   2.778  0.0658 -0.9158 -0.3562
  417MOL0     N54963   7.723   1.641   2.713  0.6622  0.6793 -0.0828
  417MOL0     C54964   8.509   1.563   2.171 -0.2280  0.2424  0.5992
  417MOL0     C54965   8.629   1.618   2.241  0.2936  1.1043  0.0344
  417MOL0     C54966   8.995   1.663   2.538 -0.0890 -0.8764  0.4332
  417MOL0     C54967   9.066   1.640   2.658 -0.5110 -0.7150 -0.3481
  417MOL0     C54968   9.191   1.700   2.687  0.7811 -0.1490  0.2439
  417MOL0     C54969   9.233   1.807   2.601  0.0855  0.9107 -0.8319
  417MOL0     O54970   9.348   1.881   2.626  1.0285  0.0312  0.4627
  417MOL0     C54971   9.431   1.858   2.737  0.4784  0.3812  0.6381
  417MOL0     C54972   9.568   1.919   2.726 -0.2132 -0.0975 -0.7811
  417MOL0     C54973   9.577   2.072   2.757  0.0619  0.8304 -0.5779
  417MOL0     C54974   9.713   2.128   2.703 -0.3352  0.1188  0.0250
  417MOL0     C54975   9.719   2.270   2.723  0.1880 -0.4848 -0.5576
  417MOL0     C54976   9.749   2.382   2.744  0.6663  0.6677  0.4608
  417MOL0     C54977   9.158   1.839   2.486 -0.2642  0.3890 -0.7723
  417MOL0     C54978   9.042   1.767   2.455 -0.1965 -0.1404 -0.1837
  417MOL0     H54979   8.651   1.405   2.503 -2.6455 -2.8448  0.5439
  417MOL0     H54980   8.460   1.323   2.405 -2.5457  0.8099 -0.4850
  417MOL0     H54981   8.266   1.258   2.304 -0.0767  4.0002 -0.0920
  417MOL0     H54982   8.371   1.172   2.186 -0.7669 -0.8022  1.7982
  417MOL0     H54983   8.131   1.129   2.159  1.7287  0.1217  0.1300
  417MOL0     H54984   8.198   1.195   2.014 -1.4524  0.2234 -0.0336
  417MOL0     H54985   7.980   1.270   2.068 -1.5267  0.2207  1.0904
  417MOL0     H54986   8.101   1.403   2.048 -0.3432  0.2215  0.8601
  417MOL0     H54987   8.012   1.293   2.317 -0.9043 -0.7012 -1.4474
  417MOL0     H54988   8.097   1.446   2.295 -1.4009  1.3593  1.7046
  417MOL0     H54989   7.823   1.422   2.175  0.4266 -0.8364 -0.2991
  417MOL0     H54990   7.936   1.558   2.180  4.1756 -0.9412  1.9804
  417MOL0     H54991   7.909   1.581   2.420  0.1570 -1.5630  3.1804
  417MOL0     H54992   7.848   1.426   2.446  1.9588 -0.9472 -1.2715
  417MOL0     H54993   7.725   1.665   2.296  1.7954  0.8775  1.8422
  417MOL0     H54994   7.641   1.511   2.283 -1.0732 -0.1915  1.6689
  417MOL0     H54995   7.605   1.490   2.521 -1.3433  0.2125  0.7142
  417MOL0     H54996   7.540   1.644   2.477 -0.0869 -0.6698 -0.1598
  417MOL0     H54997   7.770   1.839   2.470 -0.9201 -0.5367  0.2260
  417MOL0     H54998   7.915   1.958   2.821  1.1401  1.1368 -0.4883
  417MOL0     H54999   7.779   2.043   2.745 -0.3501 -0.6692  0.1350
  417MOL0     H55000   7.885   2.025   2.522  1.1720  0.3807 -1.7001
  417MOL0     H55001   8.029   1.949   2.593 -1.2627 -0.6859 -1.9724
  417MOL0     H55002   8.019   2.205   2.535  1.8619  1.7428  1.2069
  417MOL0     H55003   7.925   2.226   2.677  2.3479  1.1994  3.1985
  417MOL0     H55004   8.126   2.116   2.816  1.5550 -2.9821 -1.5030
  417MOL0     H55005   8.140   2.280   2.753 -1.9074 -0.3418  1.3744
  417MOL0     H55006   8.372   2.305   2.544  1.6951  0.9649 -0.2244
  417MOL0     H55007   8.584   2.379   2.619 -0.1000  1.0891  1.0987
  417MOL0     H55008   8.922   2.451   2.990  0.7132  0.1323  1.3193
  417MOL0     H55009   9.096   2.624   3.003  0.9853 -2.5922  0.3589
  417MOL0     H55010   9.200   2.848   2.632  4.0858  3.0114 -1.7350
  417MOL0     H55011   9.328   2.734   2.633 -0.3207  0.9126 -0.9282
  417MOL0     H55012   9.466   2.872   2.777 -0.8441 -1.1609 -0.2907
  417MOL0     H55013   9.323   2.977   2.815 -1.7472  0.5804 -1.7266
  417MOL0     H55014   9.301   3.063   2.589 -1.5514 -3.6957 -1.6610
  417MOL0     H55015   9.424   2.946   2.541  1.7846 -0.9335  0.5988
  417MOL0     H55016   9.478   3.164   2.750 -2.0080  1.6009 -1.0930
  417MOL0     H55017   9.598   3.056   2.681  0.3813  0.4225  0.3274
  417MOL0     H55018   9.441   3.282   2.548  0.4990  1.1762 -1.2451
  417MOL0     H55019   9.542   3.156   2.466  0.8843 -2.2935  1.3015
  417MOL0     H55020   9.744   3.256   2.550 -0.5502 -2.0692 -0.2100
  417MOL0     H55021   9.666   3.328   2.683 -0.4778 -0.9411  0.4347
  417MOL0     H55022   9.634   3.432   2.396  1.5319  1.3449  0.4304
  417MOL0     H55023   9.517   3.464   2.526 -1.1929 -2.1501 -0.3597
  417MOL0     H55024   9.690   3.552   2.667 -1.7675 -0.2289 -0.5572
  417MOL0     H55025   9.664   3.650   2.526 -2.5812 -0.8208 -1.0470
  417MOL0     H55026   9.126   2.644   2.581  1.5143 -0.3354  0.5027
  417MOL0     H55027   8.937   2.474   2.563 -1.5243  0.3921  0.8461
  417MOL0     H55028   8.566   2.104   2.961 -0.6777  0.9304  0.6125
  417MOL0     H55029   8.374   2.003   2.852 -0.2844 -0.8230 -1.1595
  417MOL0     H55030   8.465   1.601   2.079 -0.0908 -0.2619  0.3264
  417MOL0     H55031   8.679   1.703   2.196  1.6234  0.6892  0.6922
  417MOL0     H55032   9.012   1.579   2.729  0.5980 -0.3269  0.8751
  417MOL0     H55033   9.240   1.691   2.783  2.2658  0.8566 -0.3810
  417MOL0     H55034   9.439   1.749   2.746 -1.9328  0.0111 -0.8127
  417MOL0     H55035   9.379   1.892   2.827 -1.9217  2.0637 -1.2573
  417MOL0     H55036   9.624   1.862   2.800  2.1251  1.0681 -1.5694
  417MOL0     H55037   9.611   1.896   2.628  3.5722  0.5149  0.5675
  417MOL0     H55038   9.588   2.094   2.864  1.9757  2.1790 -0.9953
  417MOL0     H55039   9.497   2.133   2.713 -0.8021 -0.1636 -0.4219
  417MOL0     H55040   9.798   2.093   2.763 -0.9760 -1.7839 -0.1025
  417MOL0     H55041   9.722   2.101   2.598 -0.8443 -0.6684  0.1710
  417MOL0     H55042   9.772   2.486   2.758 -0.6799  1.0416  0.0409
  417MOL0     H55043   9.174   1.921   2.416 -1.7968  0.0216 -1.5970
  417MOL0     H55044   8.994   1.786   2.359  1.5026 -1.7420 -1.4328
  418MOL0     O55045   9.490   3.533   2.799 -0.2228 -0.1533 -0.1879
  418MOL0     C55046   9.411   3.625   2.805  0.3894 -0.3716  0.1436
  418MOL0     O55047   9.443   3.758   2.795 -0.1364  0.2908  0.0442
  418MOL0     C55048   9.571   3.799   2.780  0.1639  0.4574 -0.8174
  418MOL0     C55049   9.670   3.773   2.880  0.4868  0.1356  0.5161
  418MOL0     C55050   9.804   3.803   2.840  0.4026  0.0053 -0.8522
  418MOL0     C55051   9.836   3.859   2.717 -0.6428 -0.4649  0.6689
  418MOL0     O55052   9.972   3.886   2.687  0.5502  0.1351 -0.1446
  418MOL0     C55053  10.003   3.895   2.547  0.5550 -0.1202  0.5050
  418MOL0     C55054  10.144   3.893   2.513 -0.1450  0.2904 -0.3694
  418MOL0     C55055  10.207   4.028   2.515  0.5302 -0.0328 -0.4247
  418MOL0     C55056  10.344   4.022   2.441  0.0699  0.5620 -0.4972
  418MOL0     C55057  10.399   4.170   2.434 -1.1299  0.2112  0.4454
  418MOL0     C55058  10.551   4.178   2.408 -0.3635 -0.3929 -0.2252
  418MOL0     C55059  10.611   4.304   2.478 -0.1760  0.1048 -0.8503
  418MOL0     C55060  10.649   4.289   2.626 -0.4274  0.7106 -0.1431
  418MOL0     N55061  10.539   4.285   2.728  0.3249 -0.2843  0.1526
  418MOL0     C55062  10.496   4.182   2.804  0.0331 -0.1679 -0.7964
  418MOL0     C55063  10.383   4.230   2.869  0.4043 -0.1983  0.0972
  418MOL0     C55064  10.322   4.169   2.991  0.8399  0.7409  0.5050
  418MOL0     C55065  10.180   4.129   2.962 -0.1397  0.7744 -0.5011
  418MOL0     C55066  10.077   4.236   2.997  0.6934  1.0656  1.1794
  418MOL0     C55067   9.930   4.198   2.969  0.3131  0.6215 -0.3772
  418MOL0     O55068   9.839   4.264   3.055 -0.8817 -0.5265  0.3034
  418MOL0     C55069   9.713   4.209   3.066 -0.6936  0.6916 -0.4904
  418MOL0     C55070   9.665   4.201   3.196  0.3715 -0.0326  0.1484
  418MOL0     C55071   9.540   4.159   3.234 -0.4148  0.0776 -0.3530
  418MOL0     C55072   9.446   4.112   3.137  1.1682  0.1477 -0.1232
  418MOL0     C55073   9.310   4.087   3.175  0.1793 -0.0176  0.0127
  418MOL0     O55074   9.222   4.084   3.072 -0.3061 -0.0591 -0.0079
  418MOL0     C55075   9.086   4.052   3.085 -0.2330  0.8231  0.5038
  418MOL0     C55076   9.043   3.934   3.145 -0.7284  0.4287 -0.3489
  418MOL0     C55077   8.908   3.899   3.152  0.8171 -0.1213  0.5558
  418MOL0     C55078   8.816   3.993   3.109 -0.4392 -0.0271 -0.3904
  418MOL0     O55079   8.684   3.955   3.120  0.0126  0.9126 -0.2375
  418MOL0     C55080   8.589   4.022   3.040  0.0758  0.3368  1.0031
  418MOL0     C55081   8.504   3.921   2.969 -0.4005 -0.7332 -0.2114
  418MOL0     C55082   8.418   3.982   2.856 -0.1230 -0.4260 -0.9922
  418MOL0     C55083   8.333   3.880   2.788 -0.3189 -0.1656  0.3359
  418MOL0     C55084   8.246   3.946   2.681 -0.0824  0.2827 -0.5427
  418MOL0     C55085   8.146   3.845   2.619  0.5442  0.0780 -0.3426
  418MOL0     C55086   8.044   3.903   2.513  0.1870  0.1733 -0.7217
  418MOL0     C55087   7.973   3.792   2.428 -0.5555  0.0824  0.0496
  418MOL0    Cl55088   7.920   3.668   2.538  0.5126 -0.4293  0.4343
  418MOL0     C55089   8.857   4.117   3.061  0.3912  0.0925  0.8968
  418MOL0     C55090   8.988   4.141   3.051 -0.9321 -0.2545 -0.6396
  418MOL0     O55091   9.287   4.069   3.291  0.0533  0.2586 -0.3131
  418MOL0     C55092   9.494   4.119   2.999 -0.4701 -0.3124  0.2951
  418MOL0     C55093   9.626   4.164   2.964 -1.2334 -0.1145  0.3241
  418MOL0     N55094  10.369   4.359   2.823  0.3284  0.1890 -0.0711
  418MOL0     N55095  10.452   4.387   2.730 -0.1291 -0.3875 -0.6717
  418MOL0     C55096   9.731   3.889   2.625  0.1581 -0.0781  0.3026
  418MOL0     C55097   9.599   3.855   2.656 -1.2963  0.4898  0.5066
  418MOL0     C55098   9.274   3.591   2.812 -0.0929  0.0528 -0.1856
  418MOL0     C55099   9.224   3.494   2.716 -0.3453  1.0187  0.7159
  418MOL0     C55100   9.090   3.471   2.695  0.7251 -0.1083 -0.0088
  418MOL0     C55101   8.991   3.551   2.755 -0.1336  0.7562  0.3097
  418MOL0     O55102   8.856   3.534   2.743  0.0858  0.0892  0.7751
  418MOL0     C55103   8.806   3.400   2.715 -0.3920 -0.5704 -0.8265
  418MOL0     C55104   8.662   3.402   2.727 -0.3064  0.5756  0.1908
  418MOL0     C55105   8.600   3.259   2.707 -0.0399 -0.5912 -0.0848
  418MOL0     C55106   8.618   3.217   2.562 -0.3186 -0.6851 -0.1611
  418MOL0     C55107   8.502   3.141   2.517  0.7301  1.3090  0.2284
  418MOL0     C55108   8.412   3.070   2.488  0.4990 -0.8816  0.4911
  418MOL0     C55109   9.037   3.640   2.857 -0.7072  0.1351 -0.2563
  418MOL0     C55110   9.177   3.662   2.884  0.3864  0.1782 -0.4127
  418MOL0     H55111   9.635   3.739   2.977 -0.3304  2.1990  0.9910
  418MOL0     H55112   9.878   3.793   2.919 -0.0905  1.4103 -0.1713
  418MOL0     H55113   9.964   3.987   2.504 -0.5283 -1.6653 -2.0657
  418MOL0     H55114   9.949   3.820   2.488  2.9173 -0.5999 -1.1954
  418MOL0     H55115  10.154   3.845   2.415 -3.4876 -1.6684  0.1185
  418MOL0     H55116  10.208   3.829   2.575  0.0743  0.1238 -0.7597
  418MOL0     H55117  10.235   4.056   2.617  0.9630  1.2081 -0.8668
  418MOL0     H55118  10.145   4.111   2.480 -2.0845 -2.3355 -1.6745
  418MOL0     H55119  10.419   3.955   2.484  2.2894  3.0081 -0.2858
  418MOL0     H55120  10.329   3.977   2.342 -2.6685  0.3412 -0.0491
  418MOL0     H55121  10.383   4.215   2.533  0.8228  1.0872  0.4180
  418MOL0     H55122  10.344   4.229   2.360  0.0511 -1.1104 -1.5709
  418MOL0     H55123  10.559   4.191   2.300 -3.3558 -2.9961 -0.8974
  418MOL0     H55124  10.613   4.091   2.432 -0.4575 -1.3592 -3.0999
  418MOL0     H55125  10.703   4.314   2.420 -0.3249  0.3840 -1.0436
  418MOL0     H55126  10.545   4.389   2.459 -1.3147 -1.1032 -2.5932
  418MOL0     H55127  10.708   4.380   2.641 -1.1496  1.1370  0.1686
  418MOL0     H55128  10.705   4.197   2.644 -2.3656 -0.4291  0.4445
  418MOL0     H55129  10.548   4.089   2.826  2.1437  1.3591  1.2324
  418MOL0     H55130  10.322   4.255   3.058  0.3416  2.2411 -1.3174
  418MOL0     H55131  10.380   4.080   3.019  1.3546  0.4702 -1.2555
  418MOL0     H55132  10.163   4.043   3.028 -0.9405  1.0446 -0.3441
  418MOL0     H55133  10.176   4.096   2.858 -2.9281  1.4828 -0.7116
  418MOL0     H55134  10.099   4.261   3.101  0.5935 -0.5460  1.6092
  418MOL0     H55135  10.099   4.337   2.959 -1.2882  0.6796 -1.2695
  418MOL0     H55136   9.912   4.090   2.972  1.2413  0.4598 -0.2838
  418MOL0     H55137   9.894   4.226   2.870 -0.6657  0.0614 -0.1903
  418MOL0     H55138   9.735   4.242   3.268 -0.6094 -0.0068  1.1187
  418MOL0     H55139   9.512   4.170   3.338  1.2867 -3.5007  0.6400
  418MOL0     H55140   9.117   3.874   3.197 -2.3040 -0.7719  0.5773
  418MOL0     H55141   8.866   3.809   3.196 -1.5970  2.5252  4.2202
  418MOL0     H55142   8.630   4.086   2.962 -0.5503  3.6017  3.1096
  418MOL0     H55143   8.533   4.092   3.104 -0.7532  2.7356 -2.1322
  418MOL0     H55144   8.438   3.871   3.041  0.0055  2.0732  2.3375
  418MOL0     H55145   8.569   3.841   2.932  2.2802  0.3958  1.7217
  418MOL0     H55146   8.489   4.009   2.778  3.7922 -0.4800  2.2598
  418MOL0     H55147   8.361   4.067   2.893 -0.1782 -0.3232 -1.3115
  418MOL0     H55148   8.398   3.803   2.745 -0.3617  1.3109 -2.6206
  418MOL0     H55149   8.267   3.836   2.864 -1.5108 -3.2565 -2.2535
  418MOL0     H55150   8.301   3.989   2.598  3.8068  1.2391  2.2366
  418MOL0     H55151   8.196   4.028   2.733  1.2191 -0.2964  1.7996
  418MOL0     H55152   8.087   3.811   2.704 -0.5412  2.3293 -0.1253
  418MOL0     H55153   8.205   3.760   2.581  0.8980 -0.1805  0.7353
  418MOL0     H55154   7.958   3.952   2.559 -1.9929 -3.3103 -0.6942
  418MOL0     H55155   8.086   3.981   2.449 -1.7209  2.1489  0.3015
  418MOL0     H55156   8.039   3.740   2.359  0.9419 -0.5738  1.9002
  418MOL0     H55157   7.891   3.835   2.370  0.1592 -0.5643 -1.4950
  418MOL0     H55158   8.779   4.189   3.038  1.5669  0.0879 -4.6448
  418MOL0     H55159   9.014   4.245   3.031  1.7394 -0.4899  1.0411
  418MOL0     H55160   9.430   4.077   2.922 -2.4466 -0.0553  1.7368
  418MOL0     H55161   9.661   4.151   2.863 -2.4681 -1.4592  0.0375
  418MOL0     H55162   9.747   3.929   2.526  1.8158 -1.8757 -0.2083
  418MOL0     H55163   9.521   3.861   2.581 -0.8037 -0.8655 -0.1434
  418MOL0     H55164   9.298   3.441   2.658  0.1375 -0.1088  2.2951
  418MOL0     H55165   9.050   3.399   2.624  3.1361 -0.3288 -1.2649
  418MOL0     H55166   8.856   3.333   2.786 -0.0726 -0.9623 -1.4166
  418MOL0     H55167   8.830   3.380   2.610 -0.4008  2.1003 -1.4210
  418MOL0     H55168   8.638   3.432   2.830  2.1288 -1.2312  1.3755
  418MOL0     H55169   8.622   3.476   2.657 -1.1870 -1.0845 -1.1537
  418MOL0     H55170   8.496   3.268   2.741  0.1565  3.7284 -0.1150
  418MOL0     H55171   8.654   3.195   2.779  0.8041  0.4999  0.2744
  418MOL0     H55172   8.624   3.304   2.496 -1.5544 -0.4550  0.0040
  418MOL0     H55173   8.712   3.163   2.544 -0.2144 -0.0593 -1.6571
  418MOL0     H55174   8.331   3.004   2.464 -1.0689  1.0777  0.1412
  418MOL0     H55175   8.964   3.686   2.922 -0.2620 -0.0751  0.4084
  418MOL0     H55176   9.202   3.726   2.968  1.0080  1.0158 -1.2138
  419MOL0     O55177   8.279   6.527   2.113 -0.3664 -0.0205  0.0731
  419MOL0     C55178   8.297   6.608   2.024  0.4653 -0.3956 -0.2564
  419MOL0     O55179   8.196   6.671   1.968  0.0425 -0.7333  0.4241
  419MOL0     C55180   8.065   6.631   1.989  0.5670 -0.0594 -0.0310
  419MOL0     C55181   7.991   6.607   1.872 -0.0029 -0.6268  0.5748
  419MOL0     C55182   7.857   6.572   1.884 -0.2016 -0.3514 -0.0617
  419MOL0     C55183   7.796   6.569   2.004  0.5381  0.1565  0.0852
  419MOL0     O55184   7.666   6.525   2.008 -0.4140 -0.4104 -0.4738
  419MOL0     C55185   7.590   6.494   2.132  0.0451 -0.4580 -0.3668
  419MOL0     C55186   7.448   6.473   2.087  0.6224  0.3395  0.0131
  419MOL0     C55187   7.378   6.597   2.025 -0.7772 -0.9940  0.0761
  419MOL0     C55188   7.368   6.717   2.118  0.5648  0.5057  0.3406
  419MOL0     C55189   7.300   6.693   2.255  0.6381 -0.2844 -1.0517
  419MOL0     C55190   7.151   6.678   2.225 -0.0021  0.0929 -0.0158
  419MOL0     C55191   7.064   6.735   2.333  0.2779 -0.6519 -0.0862
  419MOL0     C55192   6.916   6.746   2.291  0.9462  0.6350 -0.6227
  419MOL0     N55193   6.833   6.802   2.401 -0.3521  0.8188  0.1336
  419MOL0     C55194   6.847   6.923   2.459  1.5847 -0.3453 -0.1891
  419MOL0     C55195   6.755   6.938   2.554  0.5006  0.4399  0.0877
  419MOL0     C55196   6.762   7.054   2.642  0.2035  0.5177 -1.1400
  419MOL0     C55197   6.633   7.076   2.726 -0.5290  0.0472  1.1553
  419MOL0     C55198   6.657   7.180   2.837  0.5065 -0.4507  0.0238
  419MOL0     C55199   6.527   7.201   2.917 -0.2578 -0.4827 -0.5009
  419MOL0     O55200   6.525   7.102   3.028  0.3793  0.3973 -0.3189
  419MOL0     C55201   6.396   7.082   3.073  0.1009  0.1804  1.3618
  419MOL0     C55202   6.319   6.988   3.006  0.0457 -0.6218  0.6941
  419MOL0     C55203   6.180   6.977   3.041 -0.1311  0.4407 -0.5205
  419MOL0     C55204   6.117   7.051   3.146 -0.6403 -0.2288  0.5480
  419MOL0     C55205   5.972   7.035   3.171  0.7440  0.2128 -0.5463
  419MOL0     O55206   5.918   7.098   3.284  0.1093  0.9009 -0.0160
  419MOL0     C55207   5.787   7.076   3.322 -0.5103 -0.2914  0.4312
  419MOL0     C55208   5.704   7.183   3.285 -0.2359  0.6608  0.2271
  419MOL0     C55209   5.567   7.175   3.314  0.0200  0.0741 -0.0908
  419MOL0     C55210   5.510   7.049   3.355 -0.6472 -0.1942  0.5769
  419MOL0     O55211   5.378   7.025   3.354  0.0161  0.9017 -0.6837
  419MOL0     C55212   5.282   7.129   3.361 -0.4724 -0.0675 -0.2013
  419MOL0     C55213   5.147   7.076   3.376 -0.5135 -0.7698  0.0220
  419MOL0     C55214   5.115   7.003   3.510 -0.7742 -0.7674  0.6063
  419MOL0     C55215   4.982   6.940   3.497  0.1900  0.3817  0.0337
  419MOL0     C55216   4.919   6.913   3.640  0.0762 -0.1421 -0.6815
  419MOL0     C55217   4.770   6.882   3.636 -0.7090  0.5485  0.5734
  419MOL0     C55218   4.701   6.904   3.773  0.6034  0.2718  0.3376
  419MOL0     C55219   4.545   6.903   3.760 -0.0874 -0.4827 -0.1975
  419MOL0    Cl55220   4.472   6.889   3.923 -0.4223 -0.1000 -0.1332
  419MOL0     C55221   5.597   6.943   3.373 -0.2073 -0.2701  0.4806
  419MOL0     C55222   5.735   6.955   3.365 -0.3282  0.5710 -0.3844
  419MOL0     O55223   5.907   6.966   3.093 -1.0376 -0.1569  0.6016
  419MOL0     C55224   6.198   7.126   3.228  0.1314 -0.7729  0.0206
  419MOL0     C55225   6.331   7.150   3.185  0.8793  0.3575 -0.1386
  419MOL0     N55226   6.681   6.821   2.567 -0.3853 -0.2359 -0.1338
  419MOL0     N55227   6.740   6.738   2.478  0.9516  0.5354 -1.2052
  419MOL0     C55228   7.870   6.598   2.118  0.3143  0.1259  0.2980
  419MOL0     C55229   8.009   6.618   2.114  0.2302  0.1905  0.0847
  419MOL0     C55230   8.428   6.654   2.003 -0.7163  0.0589 -1.0063
  419MOL0     C55231   8.534   6.636   2.102  0.2579  0.1824 -0.1438
  419MOL0     C55232   8.661   6.683   2.076  0.2487 -0.0451 -0.3687
  419MOL0     C55233   8.691   6.758   1.968 -0.1003 -0.6242  1.2795
  419MOL0     O55234   8.816   6.811   1.964 -0.4160  0.5691 -0.7116
  419MOL0     C55235   8.838   6.878   1.841  0.2736  0.4190 -0.3297
  419MOL0     C55236   8.986   6.928   1.840 -0.1974  0.4227  0.0444
  419MOL0     C55237   9.016   6.993   1.703  0.3636 -0.2554 -0.3044
  419MOL0     C55238   9.166   7.015   1.698  0.5926 -0.3544 -0.5265
  419MOL0     C55239   9.251   6.901   1.656 -0.6044 -0.8255 -1.1786
  419MOL0     C55240   9.328   6.816   1.623 -0.9464  0.2515  0.3187
  419MOL0     C55241   8.593   6.770   1.869  0.8445 -0.7289 -0.0998
  419MOL0     C55242   8.466   6.713   1.884  0.7414  0.7613 -0.6210
  419MOL0     H55243   8.045   6.598   1.779 -1.1450 -4.7297  0.1097
  419MOL0     H55244   7.794   6.549   1.799 -2.3911 -1.5437  1.7713
  419MOL0     H55245   7.596   6.580   2.200  0.1908  0.1607 -1.1505
  419MOL0     H55246   7.631   6.410   2.188  2.4309  0.9479  0.1230
  419MOL0     H55247   7.378   6.443   2.165  1.7810  1.8473  1.7085
  419MOL0     H55248   7.446   6.388   2.017 -1.9211  0.0880  0.2808
  419MOL0     H55249   7.274   6.573   2.001 -1.0913  1.5893 -1.4441
  419MOL0     H55250   7.432   6.636   1.938 -1.1076  2.7813  1.4215
  419MOL0     H55251   7.471   6.746   2.142  1.1952 -0.3797 -1.1785
  419MOL0     H55252   7.311   6.798   2.071  0.5041  0.1651 -0.1806
  419MOL0     H55253   7.325   6.788   2.304  1.1954  0.2980 -2.4151
  419MOL0     H55254   7.333   6.619   2.329  2.1609  1.9590  0.7005
  419MOL0     H55255   7.132   6.572   2.210  2.2638 -0.1351 -1.9841
  419MOL0     H55256   7.124   6.730   2.132  1.8586 -0.6023 -0.9942
  419MOL0     H55257   7.070   6.682   2.428 -0.6484  0.0118  0.3546
  419MOL0     H55258   7.100   6.838   2.341  1.6926 -1.1725  0.6990
  419MOL0     H55259   6.866   6.650   2.272  0.6542  0.2802  1.6523
  419MOL0     H55260   6.909   6.810   2.203  1.0758 -0.1174 -1.1897
  419MOL0     H55261   6.927   6.988   2.426  0.6767  0.7184 -0.3424
  419MOL0     H55262   6.776   7.151   2.595 -1.0039  2.0444  1.4328
  419MOL0     H55263   6.848   7.033   2.707 -0.4340 -1.3109 -0.8264
  419MOL0     H55264   6.603   6.980   2.769  0.6797 -2.3575 -2.8579
  419MOL0     H55265   6.551   7.112   2.664 -0.7004 -3.2684 -0.7812
  419MOL0     H55266   6.737   7.145   2.903  1.1289 -1.2007 -1.1062
  419MOL0     H55267   6.691   7.268   2.781 -1.8321 -0.5658 -1.7397
  419MOL0     H55268   6.441   7.192   2.850 -1.4925 -1.0734  1.1097
  419MOL0     H55269   6.532   7.298   2.967  0.2483 -0.9536  0.3901
  419MOL0     H55270   6.358   6.926   2.926  0.5431  2.5247 -1.6821
  419MOL0     H55271   6.123   6.913   2.974 -0.1863 -0.5456  0.4482
  419MOL0     H55272   5.746   7.276   3.246 -0.0352  2.4657  4.2791
  419MOL0     H55273   5.505   7.259   3.283 -0.5241  0.2512  1.4072
  419MOL0     H55274   5.289   7.180   3.265  0.3769 -1.2804 -0.8085
  419MOL0     H55275   5.306   7.197   3.443 -0.0119 -0.4609 -0.0055
  419MOL0     H55276   5.128   7.002   3.298 -1.4080 -0.3137 -0.2010
  419MOL0     H55277   5.077   7.158   3.357 -0.8775 -1.0200  0.2704
  419MOL0     H55278   5.106   7.090   3.575  2.3126  0.4665 -0.4217
  419MOL0     H55279   5.187   6.935   3.557 -2.2053 -1.3811  1.9942
  419MOL0     H55280   4.915   7.009   3.445 -0.6334 -0.1933  0.3125
  419MOL0     H55281   4.986   6.847   3.439  0.2354  0.7897 -0.6346
  419MOL0     H55282   4.938   7.007   3.694 -0.8439  0.7159 -1.7918
  419MOL0     H55283   4.972   6.832   3.691 -2.8123 -1.6381  0.1653
  419MOL0     H55284   4.751   6.780   3.600 -2.3550  0.8721  0.4742
  419MOL0     H55285   4.725   6.940   3.555  2.7924  1.6655 -0.7895
  419MOL0     H55286   4.736   6.827   3.844 -1.5613 -0.4194  0.7332
  419MOL0     H55287   4.730   7.003   3.808  2.8923 -0.8852  2.0200
  419MOL0     H55288   4.522   6.810   3.707  2.5913 -1.2327 -0.1953
  419MOL0     H55289   4.509   6.993   3.708  0.5777 -0.5668 -0.8242
  419MOL0     H55290   5.543   6.851   3.395 -2.5805  1.0128  0.3041
  419MOL0     H55291   5.792   6.865   3.384  0.0781  0.6721 -1.1009
  419MOL0     H55292   6.156   7.192   3.303  2.7423 -0.4026  1.2910
  419MOL0     H55293   6.384   7.223   3.246 -1.3086  1.2391  0.7856
  419MOL0     H55294   7.824   6.589   2.216 -0.4282  4.1947  0.5157
  419MOL0     H55295   8.056   6.631   2.211 -1.5852  1.1893  0.8788
  419MOL0     H55296   8.506   6.580   2.190  1.1608 -1.1185 -0.6547
  419MOL0     H55297   8.737   6.675   2.153  1.0816 -2.0283 -1.3388
  419MOL0     H55298   8.776   6.966   1.824  0.9531  1.3919  1.8744
  419MOL0     H55299   8.844   6.805   1.760  1.6186  0.4559 -0.2836
  419MOL0     H55300   9.013   7.007   1.911 -0.6208 -0.7717  1.6124
  419MOL0     H55301   9.061   6.854   1.869  1.2760  2.3090  1.3542
  419MOL0     H55302   8.957   7.085   1.691 -0.8221 -1.0990 -1.1691
  419MOL0     H55303   8.980   6.926   1.624  1.0158 -0.4470 -0.4436
  419MOL0     H55304   9.196   7.091   1.625  1.5524 -0.5971 -0.4018
  419MOL0     H55305   9.199   7.039   1.800 -3.1383 -0.9744  0.9958
  419MOL0     H55306   9.392   6.732   1.605  1.5099  1.9214  0.7733
  419MOL0     H55307   8.598   6.822   1.774 -0.7622 -0.9754 -0.3418
  419MOL0     H55308   8.390   6.741   1.812  0.1626  2.2688  0.5150
  420MOL0     O55309  10.451   4.558  10.283 -0.2009 -0.3421 -0.6524
  420MOL0     C55310  10.498   4.545  10.173 -0.0338 -0.5786  0.1552
  420MOL0     O55311  10.434   4.488  10.064 -0.4120 -0.1550 -0.0992
  420MOL0     C55312  10.311   4.430  10.090  0.3788 -0.3807 -0.4672
  420MOL0     C55313  10.193   4.498  10.079  0.1686 -0.4662  0.4669
  420MOL0     C55314  10.069   4.445  10.099 -0.2075 -0.1687  0.2702
  420MOL0     C55315  10.048   4.307  10.126  0.1292 -0.5225 -0.4207
  420MOL0     O55316   9.921   4.260  10.152  0.1918  0.2356 -0.3213
  420MOL0     C55317   9.904   4.119  10.172  0.0716 -0.4754  0.3502
  420MOL0     C55318   9.758   4.098  10.204 -0.4648 -0.6793  0.8315
  420MOL0     C55319   9.667   4.148  10.092 -0.4880 -0.5854  0.4198
  420MOL0     C55320   9.523   4.120  10.118  0.1281  0.2519  0.3910
  420MOL0     C55321   9.424   4.159   9.997 -0.2665  0.5548  0.0906
  420MOL0     C55322   9.476   4.077   9.873  0.2282 -0.8890  0.9587
  420MOL0     C55323   9.359   4.068   9.774  0.2270  0.5333  0.3445
  420MOL0     C55324   9.390   3.998   9.645  0.2194  0.1232  0.0980
  420MOL0     N55325   9.425   3.854   9.664  0.6873 -0.3751  0.1697
  420MOL0     C55326   9.373   3.758   9.753 -0.0988  0.0575 -0.0624
  420MOL0     C55327   9.467   3.654   9.763 -0.0931 -0.5558  0.3931
  420MOL0     C55328   9.468   3.536   9.866  0.2520  0.0155  0.7838
  420MOL0     C55329   9.502   3.579  10.010 -0.9624  0.1443  0.0011
  420MOL0     C55330   9.529   3.455  10.104  0.0516 -0.7311  0.6940
  420MOL0     C55331   9.611   3.498  10.232  0.0941 -0.0049 -0.8781
  420MOL0     O55332   9.519   3.571  10.323 -0.4028  0.1280 -0.0516
  420MOL0     C55333   9.423   3.506  10.398 -1.0446 -0.2068 -0.6711
  420MOL0     C55334   9.308   3.570  10.433  0.2952 -0.2277 -0.6232
  420MOL0     C55335   9.203   3.501  10.489 -0.1220  0.2342 -0.5602
  420MOL0     C55336   9.201   3.365  10.508  0.0712  0.3529  0.2949
  420MOL0     C55337   9.088   3.285  10.554  0.1260  0.8430 -0.1155
  420MOL0     O55338   8.987   3.359  10.605  0.0425 -0.5600  0.4305
  420MOL0     C55339   8.895   3.299  10.688  0.0685  0.3894  0.5137
  420MOL0     C55340   8.767   3.338  10.671 -0.0780 -0.1074 -0.0067
  420MOL0     C55341   8.670   3.297  10.766  0.3800 -0.4233  0.2008
  420MOL0     C55342   8.702   3.207  10.871 -0.4511 -0.7856 -0.5831
  420MOL0     O55343   8.604   3.157  10.951  0.4303 -0.5352 -0.0835
  420MOL0     C55344   8.642   3.053  11.046  0.4897 -0.9300 -0.1752
  420MOL0     C55345   8.524   2.977  11.115  0.1518  0.3544 -0.6342
  420MOL0     C55346   8.434   3.077  11.170  1.1455 -1.3243 -0.2858
  420MOL0     C55347   8.315   3.007  11.229 -0.4265 -0.1812 -0.5255
  420MOL0     C55348   8.211   3.086  11.294  0.3931 -0.6557  0.3585
  420MOL0     C55349   8.068   3.034  11.285  1.0949  0.2494  0.0861
  420MOL0     C55350   8.045   2.887  11.332 -0.5243 -0.1479  0.7503
  420MOL0     C55351   7.900   2.863  11.315  1.0056 -0.5625 -0.6501
  420MOL0    Cl55352   7.835   2.863  11.150 -0.0086 -0.4710  0.3269
  420MOL0     C55353   8.840   3.177  10.887 -0.1148  0.7415  0.4280
  420MOL0     C55354   8.938   3.214  10.796  0.2270  0.2954 -0.1963
  420MOL0     O55355   9.086   3.160  10.542 -0.2670  0.1539 -0.5794
  420MOL0     C55356   9.320   3.299  10.473  0.0127  0.5331 -0.3915
  420MOL0     C55357   9.436   3.364  10.429 -0.2763  0.1375  0.7271
  420MOL0     N55358   9.572   3.688   9.678 -0.8467  0.0189  0.1125
  420MOL0     N55359   9.540   3.800   9.620 -0.0692 -0.4870 -0.1807
  420MOL0     C55360  10.171   4.235  10.133 -0.2983  1.1724  0.6799
  420MOL0     C55361  10.300   4.294  10.117  0.3498  0.3821 -0.1063
  420MOL0     C55362  10.632   4.597  10.146  0.8726  0.5690 -0.3748
  420MOL0     C55363  10.703   4.544  10.033  0.3401 -0.5178  0.2801
  420MOL0     C55364  10.841   4.589  10.014 -0.0326 -0.1577 -0.6102
  420MOL0     C55365  10.895   4.680  10.101  0.3595  0.0797 -0.1189
  420MOL0     O55366  11.023   4.721  10.092 -0.2930  0.1584  0.7720
  420MOL0     C55367  11.075   4.807  10.189  0.2173 -0.7768 -0.0268
  420MOL0     C55368  11.226   4.841  10.157 -0.1447  0.3056  0.1672
  420MOL0     C55369  11.291   4.898  10.287  0.6539 -1.2517  0.7401
  420MOL0     C55370  11.446   4.907  10.281  0.0392 -0.2813 -0.5550
  420MOL0     C55371  11.500   4.995  10.181 -0.4706 -0.9549  0.7093
  420MOL0     C55372  11.537   5.082  10.100 -0.2978 -0.6798  0.0240
  420MOL0     C55373  10.817   4.736  10.199  0.0111 -0.7339  0.4732
  420MOL0     C55374  10.692   4.683  10.230 -0.6353 -0.4667  0.1537
  420MOL0     H55375  10.196   4.606  10.062 -1.5137 -0.2607  1.3173
  420MOL0     H55376   9.978   4.503  10.091 -1.1080 -1.5014  0.4055
  420MOL0     H55377   9.969   4.091  10.256 -0.3559 -0.0755  0.8268
  420MOL0     H55378   9.934   4.071  10.079  4.3254  3.7723 -0.8841
  420MOL0     H55379   9.736   4.142  10.302  1.6538  2.4805  0.0570
  420MOL0     H55380   9.740   3.990  10.198 -1.4874 -0.4715 -0.2521
  420MOL0     H55381   9.703   4.096  10.003  0.3485  0.3372  0.1999
  420MOL0     H55382   9.678   4.257  10.094 -2.6579 -0.2746  3.0559
  420MOL0     H55383   9.506   4.017  10.150 -0.4138 -0.4781 -2.0465
  420MOL0     H55384   9.481   4.168  10.208 -1.3983  0.7175 -0.5272
  420MOL0     H55385   9.427   4.267   9.979  1.9768  0.5123 -0.1022
  420MOL0     H55386   9.322   4.127  10.023 -1.0605  1.5587 -1.6077
  420MOL0     H55387   9.510   3.977   9.902 -0.8937 -1.0399  1.7858
  420MOL0     H55388   9.549   4.139   9.819 -1.7786  0.3950 -0.3969
  420MOL0     H55389   9.284   4.013   9.831  0.7128  2.3560  2.9114
  420MOL0     H55390   9.325   4.168   9.747  1.2755  0.4881 -1.2577
  420MOL0     H55391   9.478   4.048   9.603  1.5012 -2.0960 -0.0458
  420MOL0     H55392   9.305   4.013   9.578 -0.5194  0.0409  1.0055
  420MOL0     H55393   9.282   3.766   9.812 -0.1552 -0.8151 -0.0223
  420MOL0     H55394   9.546   3.470   9.828 -1.6020 -0.3246 -2.9005
  420MOL0     H55395   9.371   3.488   9.853  0.6551 -0.4619 -0.5900
  420MOL0     H55396   9.419   3.638  10.049  0.9518  1.5030  2.2890
  420MOL0     H55397   9.591   3.640   9.995 -0.6802 -0.3072 -0.2088
  420MOL0     H55398   9.431   3.415  10.132 -0.8308  1.1096  0.4016
  420MOL0     H55399   9.594   3.378  10.062  0.0776 -0.7125  0.7007
  420MOL0     H55400   9.691   3.564  10.198  0.1673  0.5351  0.3281
  420MOL0     H55401   9.666   3.417  10.280 -1.2312 -0.5118 -0.1634
  420MOL0     H55402   9.286   3.674  10.414  1.3856  0.0581 -0.3925
  420MOL0     H55403   9.112   3.547  10.528 -0.9257 -1.4856 -0.3188
  420MOL0     H55404   8.745   3.410  10.593  0.5073 -0.1862 -0.2486
  420MOL0     H55405   8.569   3.325  10.735  0.1697  1.0713  2.0144
  420MOL0     H55406   8.694   3.108  11.125 -1.6281 -1.4335  1.6487
  420MOL0     H55407   8.704   2.980  10.993  1.9180  0.6009 -0.6909
  420MOL0     H55408   8.560   2.907  11.191  1.3217 -0.5167 -1.9564
  420MOL0     H55409   8.479   2.916  11.036  0.8410 -0.6191 -0.2904
  420MOL0     H55410   8.388   3.134  11.089 -0.8898 -0.7512  1.2027
  420MOL0     H55411   8.484   3.140  11.244 -0.1553 -1.4967  0.7842
  420MOL0     H55412   8.261   2.951  11.152 -2.4176 -1.1857  1.4686
  420MOL0     H55413   8.346   2.938  11.308 -2.4606 -0.4129  0.1519
  420MOL0     H55414   8.220   3.191  11.262 -1.8930 -0.8392 -1.1329
  420MOL0     H55415   8.239   3.097  11.400 -1.3511 -2.0065  1.0011
  420MOL0     H55416   8.031   3.057  11.185  1.8186  1.8661  0.1505
  420MOL0     H55417   8.019   3.108  11.350  2.3675  1.3270 -0.1356
  420MOL0     H55418   8.091   2.803  11.279 -0.7158 -0.8463  1.6621
  420MOL0     H55419   8.076   2.877  11.436 -0.1027  1.5910  0.8218
  420MOL0     H55420   7.842   2.934  11.375 -1.4181 -1.5677 -1.6400
  420MOL0     H55421   7.878   2.763  11.353 -1.0969  0.0865 -0.0086
  420MOL0     H55422   8.884   3.122  10.969 -0.2179 -1.7489 -1.0760
  420MOL0     H55423   9.044   3.195  10.809  0.6942  2.0177 -1.2222
  420MOL0     H55424   9.324   3.192  10.491  0.7618  1.1090  3.7119
  420MOL0     H55425   9.525   3.309  10.400  0.1926  0.3184  1.7721
  420MOL0     H55426  10.172   4.129  10.155  1.1519  1.7205  3.7631
  420MOL0     H55427  10.392   4.236  10.120  0.5650  0.7358  0.2683
  420MOL0     H55428  10.653   4.468   9.974  1.0081 -1.1771  0.5414
  420MOL0     H55429  10.905   4.539   9.942 -0.8873  1.2582 -2.4158
  420MOL0     H55430  11.064   4.751  10.283  1.4488 -0.3575  0.3834
  420MOL0     H55431  11.025   4.904  10.195  2.0118  0.2417 -0.6302
  420MOL0     H55432  11.289   4.756  10.129 -1.6693  0.2615 -3.7640
  420MOL0     H55433  11.233   4.917  10.078  0.3489  0.1415  0.0512
  420MOL0     H55434  11.242   4.852  10.374  0.9952  0.2388  1.7539
  420MOL0     H55435  11.268   5.002  10.309  1.9332 -1.1570  1.7630
  420MOL0     H55436  11.482   4.945  10.377 -0.2750  0.2962 -0.6575
  420MOL0     H55437  11.493   4.809  10.275  0.6497 -0.0430  0.1111
  420MOL0     H55438  11.571   5.162  10.037 -0.9709  0.1298  0.6632
  420MOL0     H55439  10.840   4.817  10.267  1.9244 -1.4503  0.7509
  420MOL0     H55440  10.642   4.708  10.322 -0.6575  0.6335 -0.1459
  421MOL0     O55441   6.431   9.825   7.002 -0.3054  0.6401 -0.1512
  421MOL0     C55442   6.440   9.935   7.053  0.0315  0.0279 -0.7613
  421MOL0     O55443   6.356   9.993   7.145 -0.5757 -0.0339 -0.6239
  421MOL0     C55444   6.221   9.974   7.123 -0.5640 -0.9051 -0.1313
  421MOL0     C55445   6.163  10.010   7.001 -0.5217  0.4265  0.1195
  421MOL0     C55446   6.027   9.998   6.973  0.1394 -0.8753  0.2340
  421MOL0     C55447   5.942   9.984   7.084  0.7485 -0.5724  0.3628
  421MOL0     O55448   5.812   9.981   7.038  0.4853  0.2189  0.6543
  421MOL0     C55449   5.710  10.003   7.134 -0.0093  0.3102  0.2116
  421MOL0     C55450   5.579  10.036   7.052 -0.2451 -0.5768 -0.4763
  421MOL0     C55451   5.464  10.085   7.144 -0.5930 -0.3283  0.0258
  421MOL0     C55452   5.330  10.067   7.081  0.2086 -0.1293 -0.3579
  421MOL0     C55453   5.224  10.090   7.193  0.1548  0.0390 -0.8167
  421MOL0     C55454   5.159  10.227   7.195 -0.7033  0.2933 -0.7584
  421MOL0     C55455   5.037  10.219   7.288  1.5714 -0.6391 -0.5042
  421MOL0     C55456   4.903  10.184   7.217  0.5913 -0.1452  0.6998
  421MOL0     N55457   4.795  10.204   7.316 -0.4279 -0.2105  0.2111
  421MOL0     C55458   4.784  10.136   7.435 -0.4427 -0.0217  0.4472
  421MOL0     C55459   4.658  10.151   7.474 -0.5196  0.1663 -0.9966
  421MOL0     C55460   4.593  10.092   7.595  0.6437 -0.5596 -0.3514
  421MOL0     C55461   4.573  10.190   7.717 -0.7447 -0.2073 -0.2573
  421MOL0     C55462   4.487  10.309   7.688 -0.0489 -0.4443 -0.1943
  421MOL0     C55463   4.341  10.272   7.698 -0.2239 -0.5982  0.6138
  421MOL0     O55464   4.268  10.387   7.652  0.7674 -0.0279 -0.2121
  421MOL0     C55465   4.134  10.400   7.684 -0.4802 -0.0809 -0.4017
  421MOL0     C55466   4.084  10.521   7.726  0.0563 -0.2663  0.2144
  421MOL0     C55467   3.946  10.542   7.765  0.1139 -0.0611  0.0099
  421MOL0     C55468   3.856  10.444   7.758 -0.4015  0.8877  0.0198
  421MOL0     C55469   3.713  10.469   7.783 -0.3287  0.2018 -0.4621
  421MOL0     O55470   3.636  10.348   7.791  0.0011 -0.6322 -0.6149
  421MOL0     C55471   3.511  10.357   7.844  0.2538  0.4388  0.4514
  421MOL0     C55472   3.478  10.445   7.947  0.7868  0.6042 -0.8952
  421MOL0     C55473   3.342  10.458   7.989 -0.3359  0.6838 -0.6983
  421MOL0     C55474   3.250  10.390   7.913  0.3688 -0.1748  0.2686
  421MOL0     O55475   3.115  10.395   7.925  0.0775  0.0502  0.4064
  421MOL0     C55476   3.058  10.505   7.985  0.8043 -0.5501  0.2090
  421MOL0     C55477   2.905  10.492   7.953  0.2618 -0.5373 -0.0991
  421MOL0     C55478   2.814  10.575   8.035  0.1670  0.2902  0.4971
  421MOL0     C55479   2.671  10.558   7.985  0.7191 -0.3442 -0.2268
  421MOL0     C55480   2.573  10.581   8.097 -0.1327 -0.1503 -0.8584
  421MOL0     C55481   2.422  10.567   8.052  0.6684  0.2929 -0.6028
  421MOL0     C55482   2.330  10.585   8.169 -0.4634  0.2316  0.1246
  421MOL0     C55483   2.176  10.538   8.152  0.1351  0.6803  0.1021
  421MOL0    Cl55484   2.179  10.359   8.126  0.1709  0.4560  0.2337
  421MOL0     C55485   3.284  10.312   7.811  0.0344  0.2988  0.2770
  421MOL0     C55486   3.414  10.282   7.776 -0.3070  0.2638  0.1112
  421MOL0     O55487   3.673  10.585   7.803  0.1547 -0.6502  0.9766
  421MOL0     C55488   3.905  10.324   7.696 -1.5543  0.0419 -0.2589
  421MOL0     C55489   4.041  10.302   7.659  0.2895 -0.7337  0.3986
  421MOL0     N55490   4.593  10.230   7.383  0.4768 -0.2924 -0.2364
  421MOL0     N55491   4.671  10.256   7.284 -0.4644 -0.2446  0.5133
  421MOL0     C55492   5.996   9.954   7.209 -0.1620 -0.9672 -0.4555
  421MOL0     C55493   6.132   9.951   7.226 -0.0454 -0.4988  0.0210
  421MOL0     C55494   6.575   9.994   7.037 -0.8243  0.4747  0.4336
  421MOL0     C55495   6.607  10.128   7.063 -0.8711 -0.3420  0.3535
  421MOL0     C55496   6.725  10.190   7.031 -0.1507  0.7437  0.3115
  421MOL0     C55497   6.832  10.109   6.990 -0.6423  0.2412  0.0683
  421MOL0     O55498   6.953  10.160   6.956 -0.8460  0.3605  0.1365
  421MOL0     C55499   7.025  10.233   7.056 -0.7007  1.1680 -0.1460
  421MOL0     C55500   7.095  10.144   7.154 -1.1288 -0.3917 -0.9247
  421MOL0     C55501   7.218  10.223   7.219  0.0642 -0.3077  0.2675
  421MOL0     C55502   7.179  10.347   7.298  0.2300 -0.1602  0.9150
  421MOL0     C55503   7.271  10.382   7.402 -0.4391 -0.1930 -0.2173
  421MOL0     C55504   7.337  10.429   7.494  0.7894 -0.0715 -0.0902
  421MOL0     C55505   6.812   9.974   6.978 -0.6784  0.2542  0.0024
  421MOL0     C55506   6.689   9.919   6.994  0.0554  0.2989 -0.9447
  421MOL0     H55507   6.234  10.037   6.924 -1.5172 -0.7638 -1.2772
  421MOL0     H55508   5.989  10.023   6.875  2.3495 -0.0498 -0.4783
  421MOL0     H55509   5.732  10.092   7.194 -0.3635  0.4143  0.1881
  421MOL0     H55510   5.695   9.912   7.194  1.0310 -0.3071 -0.4366
  421MOL0     H55511   5.554   9.946   6.996  1.1781 -2.4434  1.6878
  421MOL0     H55512   5.608  10.109   6.977  1.0439 -1.1147 -0.5207
  421MOL0     H55513   5.483  10.192   7.154 -2.3160  0.0645 -0.4429
  421MOL0     H55514   5.469  10.029   7.238  0.4640  0.3651  0.3932
  421MOL0     H55515   5.305  10.132   6.997 -0.2687  0.8424  0.4981
  421MOL0     H55516   5.323   9.963   7.049  2.3984 -0.2463 -0.5986
  421MOL0     H55517   5.255  10.058   7.292  2.0748  2.5887 -0.4777
  421MOL0     H55518   5.148  10.017   7.165  2.2286 -1.7688 -2.0668
  421MOL0     H55519   5.119  10.260   7.099 -0.8069  3.0112  0.1408
  421MOL0     H55520   5.231  10.291   7.246  0.5450 -1.3850 -0.3474
  421MOL0     H55521   5.058  10.148   7.369  0.7354 -1.5899 -1.0997
  421MOL0     H55522   5.034  10.312   7.345 -0.7187 -0.4220 -0.8893
  421MOL0     H55523   4.905  10.079   7.188 -0.2127 -0.0522  0.2860
  421MOL0     H55524   4.883  10.236   7.123 -1.4079 -0.4180  0.9331
  421MOL0     H55525   4.865  10.080   7.480  0.3568  3.0271  3.1040
  421MOL0     H55526   4.650  10.006   7.632  0.7088 -1.1492 -1.7622
  421MOL0     H55527   4.495  10.058   7.561 -0.4667  2.2635 -0.2076
  421MOL0     H55528   4.673  10.228   7.742 -2.0820  2.9874  0.7442
  421MOL0     H55529   4.537  10.138   7.806 -0.3166 -1.5085 -0.8253
  421MOL0     H55530   4.503  10.386   7.764 -0.3515 -1.4401  0.9143
  421MOL0     H55531   4.514  10.345   7.589 -1.1600  0.7140 -0.0860
  421MOL0     H55532   4.323  10.248   7.804 -1.0276  0.1688  0.6582
  421MOL0     H55533   4.319  10.186   7.633  0.6199  0.7913 -1.6191
  421MOL0     H55534   4.151  10.605   7.734  0.2542 -0.5602  2.0170
  421MOL0     H55535   3.924  10.644   7.793 -1.1610 -0.7438  1.6507
  421MOL0     H55536   3.557  10.494   8.003  1.4628 -0.7131 -0.6514
  421MOL0     H55537   3.322  10.518   8.077  1.3175  2.7437 -1.6549
  421MOL0     H55538   3.103  10.600   7.954 -0.9947  0.7243  1.2788
  421MOL0     H55539   3.060  10.495   8.094 -2.6900  1.3163  0.5874
  421MOL0     H55540   2.882  10.386   7.967  2.2735 -0.9102  0.7754
  421MOL0     H55541   2.890  10.523   7.849  1.3891  1.5718  0.3057
  421MOL0     H55542   2.841  10.680   8.028  0.5957  0.0895 -4.9989
  421MOL0     H55543   2.817  10.534   8.136 -2.5468 -1.4672 -0.0233
  421MOL0     H55544   2.657  10.637   7.911 -2.8839  1.9292  2.5189
  421MOL0     H55545   2.668  10.457   7.942  1.6742 -1.1738  1.5384
  421MOL0     H55546   2.592  10.678   8.144  0.0373  0.0582 -1.3606
  421MOL0     H55547   2.596  10.508   8.176  3.2772  0.9198 -0.7272
  421MOL0     H55548   2.410  10.465   8.013  3.8701 -1.3571  2.2067
  421MOL0     H55549   2.387  10.636   7.975  1.4263 -0.9171 -2.0953
  421MOL0     H55550   2.376  10.533   8.254  1.6074  2.5458  0.5549
  421MOL0     H55551   2.336  10.687   8.208  2.3622 -0.1344  0.8931
  421MOL0     H55552   2.140  10.593   8.065 -3.7359 -1.7276 -0.0903
  421MOL0     H55553   2.114  10.568   8.237  1.7941  1.8195  0.9663
  421MOL0     H55554   3.208  10.250   7.763  3.1110 -1.9805 -2.0436
  421MOL0     H55555   3.443  10.216   7.695 -0.4014  0.0958  0.2154
  421MOL0     H55556   3.834  10.245   7.672 -0.3192 -1.4878  0.9274
  421MOL0     H55557   4.080  10.205   7.630 -0.8338 -2.1092  3.0793
  421MOL0     H55558   5.933   9.924   7.292 -0.2033  0.6813  0.1464
  421MOL0     H55559   6.173   9.949   7.327  0.7545  4.3587  0.0372
  421MOL0     H55560   6.523  10.182   7.105 -0.4741 -0.1058  0.8573
  421MOL0     H55561   6.738  10.298   7.036  1.2729  0.5660  0.7592
  421MOL0     H55562   6.958  10.308   7.101  0.3943  2.7100 -0.9984
  421MOL0     H55563   7.108  10.287   7.010  0.2854  0.9689  1.3249
  421MOL0     H55564   7.021  10.113   7.229  1.0116 -1.4230  0.8837
  421MOL0     H55565   7.128  10.053   7.103 -0.3828 -0.9109  0.4194
  421MOL0     H55566   7.292  10.241   7.140 -0.2769 -1.9967 -0.4770
  421MOL0     H55567   7.255  10.147   7.289 -1.0450 -1.4181 -0.3027
  421MOL0     H55568   7.189  10.435   7.233  1.7097 -0.5004  0.6409
  421MOL0     H55569   7.082  10.329   7.345 -0.7180 -0.1872 -0.9724
  421MOL0     H55570   7.380  10.481   7.577 -1.4915 -0.9795  1.7743
  421MOL0     H55571   6.899   9.915   6.948 -0.5128  0.1202  0.7140
  421MOL0     H55572   6.682   9.811   6.986 -2.5601  0.1384  1.7884
  422MOL0     O55573   8.869   0.747   9.146 -0.4275 -0.3711 -0.2754
  422MOL0     C55574   8.864   0.776   9.028  0.3333  0.8252 -1.1593
  422MOL0     O55575   8.749   0.792   8.955  0.0271 -0.3417 -0.3891
  422MOL0     C55576   8.625   0.778   9.010  0.1478 -0.0554  0.0285
  422MOL0     C55577   8.595   0.681   9.101  0.4345 -0.7113 -0.9464
  422MOL0     C55578   8.461   0.664   9.139  0.7065 -0.2365 -0.2214
  422MOL0     C55579   8.351   0.737   9.090  0.3073 -0.3314  0.6758
  422MOL0     O55580   8.217   0.718   9.112 -0.1852 -0.6789 -0.7292
  422MOL0     C55581   8.181   0.677   9.242  0.3040 -0.3142  0.1140
  422MOL0     C55582   8.036   0.723   9.271  0.7469  0.5562  0.0213
  422MOL0     C55583   7.935   0.624   9.219 -0.2350 -0.3936  0.5309
  422MOL0     C55584   7.791   0.680   9.232  0.4868  0.1508  0.0611
  422MOL0     C55585   7.724   0.659   9.370  0.5413 -0.5531 -0.2918
  422MOL0     C55586   7.582   0.731   9.365 -0.0218  0.3923 -0.2965
  422MOL0     C55587   7.515   0.722   9.497  0.9892 -0.0389 -0.4412
  422MOL0     C55588   7.369   0.782   9.502  0.0760 -0.0982  0.3110
  422MOL0     N55589   7.286   0.718   9.408 -0.6225  0.4544  0.2379
  422MOL0     C55590   7.226   0.593   9.425  0.3555  0.7979  0.0742
  422MOL0     C55591   7.176   0.567   9.300 -0.3218 -0.1745 -0.3868
  422MOL0     C55592   7.133   0.431   9.256 -0.0407  0.8095  0.3049
  422MOL0     C55593   7.246   0.345   9.210 -0.9335 -0.1589 -0.1759
  422MOL0     C55594   7.355   0.308   9.311 -0.3596 -0.3505 -0.1778
  422MOL0     C55595   7.453   0.216   9.249  0.4596 -0.0982 -0.1290
  422MOL0     O55596   7.543   0.277   9.156 -0.5382  0.1683  0.1669
  422MOL0     C55597   7.672   0.231   9.143 -0.3923 -0.8234 -0.3353
  422MOL0     C55598   7.719   0.107   9.199 -0.7553  0.6164  0.4538
  422MOL0     C55599   7.854   0.070   9.176 -0.8769 -0.4352  0.6748
  422MOL0     C55600   7.938   0.166   9.096  1.2713 -0.6493 -0.2467
  422MOL0     C55601   8.078   0.135   9.069 -0.0488 -0.2901  0.3626
  422MOL0     O55602   8.165   0.238   9.035 -0.5791  0.8245 -0.0856
  422MOL0     C55603   8.294   0.202   9.019 -0.1989 -0.2839 -0.7541
  422MOL0     C55604   8.395   0.243   9.101 -1.0872  0.6170  0.4534
  422MOL0     C55605   8.530   0.218   9.075  0.3255  0.7952  0.5825
  422MOL0     C55606   8.565   0.139   8.962 -0.1365 -0.6029  0.3124
  422MOL0     O55607   8.690   0.095   8.961  0.3280 -0.4460 -0.0669
  422MOL0     C55608   8.763   0.160   8.857 -0.4491  0.7892  0.4898
  422MOL0     C55609   8.893   0.075   8.853  0.0749  0.2421 -0.4870
  422MOL0     C55610   8.974   0.115   8.732 -0.2334 -0.3576 -0.2121
  422MOL0     C55611   9.123   0.074   8.744  0.4517  1.1035  0.0092
  422MOL0     C55612   9.199   0.089   8.607 -0.1556 -0.6044  0.6024
  422MOL0     C55613   9.351   0.053   8.634 -0.1737 -0.9500 -0.6052
  422MOL0     C55614   9.427  -0.006   8.514  0.0274  1.0970  0.7105
  422MOL0     C55615   9.579  -0.030   8.550  0.1510  0.5999  0.3214
  422MOL0    Cl55616   9.647  -0.091   8.397  0.1505 -0.1191  0.0377
  422MOL0     C55617   8.464   0.101   8.871  0.1436  0.1350  0.5748
  422MOL0     C55618   8.330   0.132   8.899  0.6571 -0.1708 -0.6567
  422MOL0     O55619   8.116   0.018   9.093 -0.1024 -0.7885  0.2355
  422MOL0     C55620   7.881   0.285   9.041 -0.6807 -0.1042  0.4109
  422MOL0     C55621   7.750   0.315   9.065 -0.1584  0.4074 -0.1086
  422MOL0     N55622   7.196   0.680   9.216 -0.5739  0.1614  0.0543
  422MOL0     N55623   7.256   0.766   9.288  0.1559  0.3048  0.0661
  422MOL0     C55624   8.382   0.839   8.994  0.1689  0.7539 -0.1825
  422MOL0     C55625   8.514   0.847   8.945 -0.5920  0.1193 -0.9839
  422MOL0     C55626   8.992   0.791   8.955  0.1109  0.3646 -0.4417
  422MOL0     C55627   8.998   0.836   8.818 -0.7945 -0.4291 -0.5068
  422MOL0     C55628   9.119   0.857   8.754  0.4239 -0.1484  0.4539
  422MOL0     C55629   9.237   0.841   8.820 -0.5999 -0.1555  0.0450
  422MOL0     O55630   9.351   0.863   8.753  0.4080 -0.2373  0.5747
  422MOL0     C55631   9.475   0.843   8.818 -0.5660 -0.0007 -0.2086
  422MOL0     C55632   9.590   0.856   8.713  0.3899  0.4893  0.4628
  422MOL0     C55633   9.724   0.846   8.781  0.5066  0.3663  0.1491
  422MOL0     C55634   9.827   0.914   8.691  0.3155  0.2480  0.1028
  422MOL0     C55635   9.960   0.869   8.724  0.4701 -0.5522 -0.3284
  422MOL0     C55636  10.073   0.838   8.765  0.3711 -0.3401  0.0601
  422MOL0     C55637   9.229   0.798   8.954  0.2274  0.9730 -0.4963
  422MOL0     C55638   9.112   0.763   9.019 -0.5088  0.3924 -0.2250
  422MOL0     H55639   8.668   0.613   9.145  0.9827 -1.2284 -2.5954
  422MOL0     H55640   8.422   0.579   9.195 -0.7320 -0.0661 -0.9304
  422MOL0     H55641   8.231   0.725   9.327 -2.9238  0.0134  2.0236
  422MOL0     H55642   8.193   0.569   9.255 -2.1806 -0.5622  0.9464
  422MOL0     H55643   8.019   0.816   9.216 -0.2488 -1.2953 -3.0520
  422MOL0     H55644   8.019   0.744   9.377  1.8017  0.5017  0.2139
  422MOL0     H55645   7.945   0.532   9.277 -2.8914 -1.3893 -0.4492
  422MOL0     H55646   7.942   0.602   9.113 -1.7717  0.9497  0.1202
  422MOL0     H55647   7.798   0.783   9.197 -1.2177  0.6881  1.1659
  422MOL0     H55648   7.726   0.637   9.154  0.2073  1.6041 -0.5344
  422MOL0     H55649   7.789   0.702   9.447  0.3348 -0.2168 -0.3018
  422MOL0     H55650   7.705   0.556   9.400  0.7754 -0.5410 -0.1004
  422MOL0     H55651   7.530   0.695   9.276  0.6919  2.0421 -1.4345
  422MOL0     H55652   7.586   0.837   9.339  0.8538  1.2557  2.8950
  422MOL0     H55653   7.508   0.614   9.509 -0.2613 -0.2222 -2.3329
  422MOL0     H55654   7.579   0.762   9.576  0.1999  0.4336 -0.0345
  422MOL0     H55655   7.394   0.886   9.481  0.3658 -0.3210 -0.4761
  422MOL0     H55656   7.329   0.776   9.604 -1.3577 -1.4877 -0.2865
  422MOL0     H55657   7.226   0.523   9.509  2.7318  0.0452 -0.4523
  422MOL0     H55658   7.068   0.440   9.168  0.1532 -2.1905 -0.2612
  422MOL0     H55659   7.079   0.383   9.338 -0.5222 -2.4168 -1.7267
  422MOL0     H55660   7.296   0.398   9.129  0.0310  2.7997  2.1942
  422MOL0     H55661   7.200   0.253   9.172  1.0303 -0.5633 -1.7267
  422MOL0     H55662   7.406   0.398   9.347 -1.4040 -0.2846  1.2538
  422MOL0     H55663   7.312   0.261   9.401  0.8336 -0.3755  0.4066
  422MOL0     H55664   7.398   0.134   9.201  1.8881 -1.0758 -0.1521
  422MOL0     H55665   7.511   0.186   9.336 -0.6378  0.2287  0.7334
  422MOL0     H55666   7.647   0.044   9.250 -1.0089 -0.4683 -1.1678
  422MOL0     H55667   7.887  -0.030   9.200 -2.1217 -1.3815 -1.2903
  422MOL0     H55668   8.368   0.297   9.191 -0.4844  1.8611 -0.0895
  422MOL0     H55669   8.613   0.245   9.140  0.9066  1.8571 -0.5456
  422MOL0     H55670   8.794   0.262   8.881 -0.3212  0.9099 -0.1856
  422MOL0     H55671   8.710   0.156   8.762  2.2541  1.3031 -1.1409
  422MOL0     H55672   8.859  -0.027   8.838 -0.6066  0.6060 -1.5502
  422MOL0     H55673   8.959   0.085   8.941  2.4451 -2.1849 -1.8356
  422MOL0     H55674   8.975   0.224   8.725  2.0298 -0.0386  2.9528
  422MOL0     H55675   8.926   0.073   8.644 -1.8849  0.4008  0.2642
  422MOL0     H55676   9.183   0.132   8.815 -0.9871  1.4174  1.0309
  422MOL0     H55677   9.122  -0.030   8.777  0.3851  0.6281 -1.4342
  422MOL0     H55678   9.192   0.190   8.564  1.7357 -0.9310 -0.5968
  422MOL0     H55679   9.167   0.024   8.525  0.6630 -0.3876  0.1022
  422MOL0     H55680   9.350  -0.029   8.706 -0.4060 -1.3388 -1.0459
  422MOL0     H55681   9.397   0.138   8.686 -2.6107 -0.9438  1.7263
  422MOL0     H55682   9.379  -0.100   8.487  2.2983 -0.7548  2.6861
  422MOL0     H55683   9.424   0.066   8.432  0.6074 -0.6410 -0.8956
  422MOL0     H55684   9.587  -0.108   8.627 -0.9819  1.7069  1.6002
  422MOL0     H55685   9.631   0.058   8.587  1.3004 -0.3513  1.0473
  422MOL0     H55686   8.490   0.047   8.781 -0.5481 -0.6413  0.8343
  422MOL0     H55687   8.255   0.108   8.823  1.2773 -2.6392 -0.5886
  422MOL0     H55688   7.943   0.342   8.972  0.0900 -0.8038  0.5067
  422MOL0     H55689   7.711   0.403   9.014 -0.1891 -0.2338 -1.2207
  422MOL0     H55690   8.298   0.896   8.955  1.2080  1.2234 -1.8283
  422MOL0     H55691   8.547   0.921   8.874  1.3440  1.6311  1.3235
  422MOL0     H55692   8.901   0.848   8.770 -2.9875  0.4245  3.6834
  422MOL0     H55693   9.125   0.903   8.657 -0.6251 -0.5085  0.2061
  422MOL0     H55694   9.480   0.735   8.832 -1.9242 -0.4413 -2.5315
  422MOL0     H55695   9.493   0.906   8.905 -0.2838 -2.2981  1.4932
  422MOL0     H55696   9.576   0.792   8.625  3.3925 -0.8923  0.8571
  422MOL0     H55697   9.590   0.960   8.679  0.1968  0.6059  0.8026
  422MOL0     H55698   9.757   0.747   8.815  0.8056  0.7299  0.9575
  422MOL0     H55699   9.712   0.892   8.880 -1.3242 -2.2092  1.2397
  422MOL0     H55700   9.809   0.893   8.585 -1.6762  2.4720 -0.0942
  422MOL0     H55701   9.825   1.023   8.704 -2.0252  0.1424  1.1579
  422MOL0     H55702  10.166   0.819   8.816  0.8108  0.1925 -0.5182
  422MOL0     H55703   9.318   0.778   9.013 -0.0490  1.1275 -0.0202
  422MOL0     H55704   9.112   0.728   9.122 -2.2353  0.3692 -0.2091
  423MOL0     O55705   5.826   1.691  10.796 -0.6230  0.5277 -0.0319
  423MOL0     C55706   5.896   1.739  10.706 -0.0540 -0.1129  0.4869
  423MOL0     O55707   5.857   1.844  10.620 -0.7655  0.0501  0.8551
  423MOL0     C55708   5.729   1.884  10.588 -0.2495 -0.2034 -0.4877
  423MOL0     C55709   5.609   1.807  10.616  0.7943  0.6647  0.1886
  423MOL0     C55710   5.483   1.860  10.583  0.0710 -0.0988  0.7724
  423MOL0     C55711   5.463   1.989  10.527 -0.0004 -0.4681 -0.3391
  423MOL0     O55712   5.338   2.052  10.512  0.3562  0.2816 -0.6486
  423MOL0     C55713   5.226   1.998  10.584  0.3514 -0.4351 -0.5350
  423MOL0     C55714   5.111   2.094  10.545  0.1016  0.0351 -0.4740
  423MOL0     C55715   4.994   2.051  10.634 -0.1197 -0.9526  0.2758
  423MOL0     C55716   4.864   2.127  10.578 -0.3813  0.1489 -0.5864
  423MOL0     C55717   4.743   2.098  10.674  0.1249  0.3245  0.6467
  423MOL0     C55718   4.633   2.200  10.625  0.0091 -0.2271 -0.0915
  423MOL0     C55719   4.493   2.161  10.672 -0.4778  0.0356  0.6188
  423MOL0     C55720   4.378   2.256  10.663 -0.3517 -0.8795 -0.4362
  423MOL0     N55721   4.247   2.205  10.706  0.7609 -0.4542  0.5045
  423MOL0     C55722   4.181   2.097  10.645 -0.3340 -0.1552  0.6963
  423MOL0     C55723   4.050   2.096  10.706 -0.0380  0.0791  0.1487
  423MOL0     C55724   3.937   1.993  10.681 -0.1825  0.1922 -0.0413
  423MOL0     C55725   3.829   2.038  10.570  0.5486 -0.0893  0.2146
  423MOL0     C55726   3.718   1.928  10.573  0.0153  0.9296  0.5285
  423MOL0     C55727   3.581   1.983  10.526 -0.5748  0.2173  0.2707
  423MOL0     O55728   3.493   1.867  10.517  0.0711 -0.6928  0.0283
  423MOL0     C55729   3.365   1.867  10.560  0.1610  0.2939 -0.0314
  423MOL0     C55730   3.287   1.985  10.576 -0.4355  0.1366  0.0083
  423MOL0     C55731   3.152   1.974  10.614 -0.2549  0.1299  0.1400
  423MOL0     C55732   3.099   1.845  10.647 -0.1967  0.2345  0.5977
  423MOL0     C55733   2.959   1.847  10.705 -0.1680  0.6146 -0.5598
  423MOL0     O55734   2.880   1.749  10.674  0.3330  0.8572 -0.3425
  423MOL0     C55735   2.748   1.743  10.725 -0.9299 -0.6035 -0.0256
  423MOL0     C55736   2.639   1.715  10.642 -0.1621  0.5550 -0.1644
  423MOL0     C55737   2.506   1.708  10.694 -0.9451 -0.8188 -0.3739
  423MOL0     C55738   2.481   1.712  10.831 -1.0785 -0.0242  0.8505
  423MOL0     O55739   2.358   1.703  10.890  0.1493  0.0058 -0.1098
  423MOL0     C55740   2.249   1.643  10.823  0.9295  0.2075 -0.8179
  423MOL0     C55741   2.136   1.640  10.928  0.5370  0.0521  0.2397
  423MOL0     C55742   2.000   1.618  10.855 -1.4476 -0.0111  0.2693
  423MOL0     C55743   1.910   1.587  10.974 -0.2621  0.1324  0.9622
  423MOL0     C55744   1.768   1.557  10.918  0.7231  0.3052  0.8451
  423MOL0     C55745   1.671   1.477  11.007  0.0796  0.2985  0.9012
  423MOL0     C55746   1.623   1.562  11.132 -0.7897  0.9010  0.3125
  423MOL0     C55747   1.492   1.511  11.188 -0.6521  0.0420  0.2058
  423MOL0    Cl55748   1.464   1.593  11.346 -0.1676  0.3307  0.0050
  423MOL0     C55749   2.594   1.740  10.911  0.3177 -0.8987  0.1513
  423MOL0     C55750   2.726   1.761  10.864 -0.5868 -0.0994 -0.5377
  423MOL0     O55751   2.926   1.944  10.776  0.1819  0.3821  0.2513
  423MOL0     C55752   3.168   1.730  10.623 -0.6269  0.3310 -0.0364
  423MOL0     C55753   3.301   1.744  10.586 -0.9694  0.8181 -0.2424
  423MOL0     N55754   4.054   2.200  10.799  0.8870  0.2926  0.2170
  423MOL0     N55755   4.170   2.263  10.797  1.2202  0.8437 -0.2019
  423MOL0     C55756   5.583   2.060  10.497  0.7483 -0.8858  0.4577
  423MOL0     C55757   5.710   2.007  10.529 -0.2116 -0.0332  0.7606
  423MOL0     C55758   6.032   1.689  10.687 -0.5781  0.2147 -0.1020
  423MOL0     C55759   6.116   1.758  10.594  0.1891  0.1774  0.6871
  423MOL0     C55760   6.247   1.699  10.578  0.1435  0.2558  0.1837
  423MOL0     C55761   6.286   1.588  10.652  0.3334 -0.3683  0.2317
  423MOL0     O55762   6.405   1.530  10.631 -0.0184  0.3782  0.2400
  423MOL0     C55763   6.496   1.587  10.531  0.1299 -0.0940 -0.1377
  423MOL0     C55764   6.625   1.511  10.547 -0.4918 -0.3942  0.7781
  423MOL0     C55765   6.727   1.557  10.445  0.1994  0.6362  0.1109
  423MOL0     C55766   6.865   1.493  10.474  0.2104 -0.9308  0.3202
  423MOL0     C55767   6.861   1.349  10.436 -0.6444 -0.2801  0.6043
  423MOL0     C55768   6.896   1.233  10.409  0.2298 -0.1374 -0.5970
  423MOL0     C55769   6.206   1.531  10.750 -0.3323  1.1867 -0.5032
  423MOL0     C55770   6.080   1.581  10.764 -0.1904 -0.1616 -0.8109
  423MOL0     H55771   5.628   1.715  10.671 -1.1343  0.4181  0.4969
  423MOL0     H55772   5.391   1.810  10.611 -1.4687  2.1140  0.0165
  423MOL0     H55773   5.240   2.005  10.692  0.7213 -2.6552 -0.4025
  423MOL0     H55774   5.200   1.900  10.545 -2.2962  0.6211 -1.6786
  423MOL0     H55775   5.098   2.075  10.438  1.6694  0.0960 -0.7010
  423MOL0     H55776   5.131   2.198  10.573  0.8629  0.2956 -1.8796
  423MOL0     H55777   5.010   2.075  10.739  2.5942  0.5071 -0.3704
  423MOL0     H55778   4.984   1.942  10.629 -1.1740 -1.1279  3.5941
  423MOL0     H55779   4.884   2.234  10.582  2.6855 -0.3683  0.4106
  423MOL0     H55780   4.838   2.091  10.478 -0.2982  1.7546 -1.2150
  423MOL0     H55781   4.769   2.123  10.777  0.4476 -0.4994  0.7689
  423MOL0     H55782   4.713   1.993  10.677  0.3066  0.2487  0.0185
  423MOL0     H55783   4.623   2.203  10.516 -0.3172 -0.2196 -0.0602
  423MOL0     H55784   4.665   2.302  10.650  0.0407 -0.9187  3.0077
  423MOL0     H55785   4.479   2.074  10.607 -0.4675  0.5236 -0.0478
  423MOL0     H55786   4.499   2.129  10.776  0.3933 -2.3750 -0.1123
  423MOL0     H55787   4.359   2.295  10.563  0.0697  1.0391  0.1816
  423MOL0     H55788   4.399   2.344  10.725  1.2537 -2.5437  1.5502
  423MOL0     H55789   4.214   2.026  10.571 -2.3130 -0.5847  0.1564
  423MOL0     H55790   3.888   1.982  10.778 -0.6818 -0.5315 -0.3637
  423MOL0     H55791   3.985   1.899  10.653  0.6733  0.3034  0.9948
  423MOL0     H55792   3.865   2.040  10.467  0.9659 -1.1913  0.3205
  423MOL0     H55793   3.789   2.135  10.600  0.7026 -0.0059  0.1564
  423MOL0     H55794   3.750   1.838  10.519 -1.4616  1.0784 -0.6655
  423MOL0     H55795   3.713   1.896  10.677  1.9582 -0.0774  0.3717
  423MOL0     H55796   3.580   2.039  10.432 -0.0731 -0.7347 -0.3294
  423MOL0     H55797   3.553   2.049  10.608 -0.6231 -2.0233  2.1769
  423MOL0     H55798   3.337   2.080  10.559 -0.4014  0.6548  2.5750
  423MOL0     H55799   3.087   2.056  10.644  0.0641 -0.2039  1.9105
  423MOL0     H55800   2.664   1.710  10.536  0.5312 -0.8646  0.0441
  423MOL0     H55801   2.423   1.684  10.628 -0.7846 -0.0970 -0.8514
  423MOL0     H55802   2.276   1.542  10.792 -2.2198 -0.9582 -0.1762
  423MOL0     H55803   2.221   1.690  10.729 -0.2330  0.7987 -0.1942
  423MOL0     H55804   2.147   1.724  10.997  1.5738 -0.7182  1.0485
  423MOL0     H55805   2.152   1.554  10.994  4.0012  0.9801  0.8144
  423MOL0     H55806   2.013   1.532  10.789  3.5934  1.8519 -1.6387
  423MOL0     H55807   1.967   1.699  10.790  1.6222 -0.5079 -2.1612
  423MOL0     H55808   1.941   1.499  11.031 -0.7994  0.4476  1.7635
  423MOL0     H55809   1.916   1.680  11.031  1.2286  0.8921 -0.3370
  423MOL0     H55810   1.785   1.499  10.827  0.9344 -1.1706  1.7807
  423MOL0     H55811   1.719   1.650  10.891 -0.1775 -0.2380  0.5946
  423MOL0     H55812   1.724   1.385  11.033 -0.1489 -0.3265 -0.6874
  423MOL0     H55813   1.582   1.448  10.949  0.0571  1.2609  0.4320
  423MOL0     H55814   1.693   1.565  11.216 -1.8720  0.9916  1.2323
  423MOL0     H55815   1.614   1.666  11.100 -0.1461  0.5503 -1.0511
  423MOL0     H55816   1.492   1.404  11.206 -2.0801  0.1241  0.8634
  423MOL0     H55817   1.413   1.531  11.115 -1.4626  3.0281  1.7171
  423MOL0     H55818   2.569   1.762  11.015 -2.9053  4.3106 -1.3343
  423MOL0     H55819   2.797   1.782  10.943  1.0707 -0.1100 -1.9546
  423MOL0     H55820   3.116   1.636  10.635 -0.9452  0.3813 -0.9282
  423MOL0     H55821   3.353   1.649  10.574 -0.5811  1.2941 -2.9577
  423MOL0     H55822   5.578   2.158  10.452 -1.3425 -1.2228 -0.1331
  423MOL0     H55823   5.793   2.074  10.509  0.3971 -1.0126 -0.0962
  423MOL0     H55824   6.087   1.853  10.550  0.2098 -0.0973  0.0796
  423MOL0     H55825   6.320   1.754  10.520  1.4684  1.0703  2.4855
  423MOL0     H55826   6.506   1.694  10.551 -2.3193  0.7338 -2.7321
  423MOL0     H55827   6.462   1.575  10.428  0.1113 -0.0278 -0.1394
  423MOL0     H55828   6.670   1.523  10.646  2.1968 -0.3896 -0.3508
  423MOL0     H55829   6.607   1.404  10.538 -1.5494 -0.4791  3.1797
  423MOL0     H55830   6.740   1.665  10.458  0.5281  0.6883 -0.6011
  423MOL0     H55831   6.689   1.544  10.343 -1.1299  2.3236  0.3425
  423MOL0     H55832   6.943   1.545  10.418 -0.2890  1.2853  1.5415
  423MOL0     H55833   6.881   1.504  10.582 -1.3413  0.6127  0.4422
  423MOL0     H55834   6.925   1.131  10.393  1.5156  0.3497 -1.5720
  423MOL0     H55835   6.233   1.449  10.817  0.1199  0.0021 -2.0671
  423MOL0     H55836   6.011   1.547  10.840 -1.9264  1.6402 -1.5085
  424MOL0     O55837   0.900   9.366   9.095  0.8701 -0.0928  0.2904
  424MOL0     C55838   0.873   9.487   9.120  0.1624 -0.8556  0.4881
  424MOL0     O55839   0.754   9.537   9.138 -0.0521  0.1121 -0.2246
  424MOL0     C55840   0.649   9.449   9.162  0.5752  0.0772  0.8018
  424MOL0     C55841   0.579   9.462   9.275 -0.4950 -0.5167 -0.4171
  424MOL0     C55842   0.462   9.386   9.301 -0.7518 -0.2829 -0.8056
  424MOL0     C55843   0.417   9.296   9.205 -1.1828  1.1868 -0.1022
  424MOL0     O55844   0.306   9.225   9.238  0.5925  0.6262  0.2073
  424MOL0     C55845   0.219   9.198   9.123  0.1676  0.7158  0.1244
  424MOL0     C55846   0.081   9.164   9.171  0.0915  0.5772  0.3059
  424MOL0     C55847   0.066   9.023   9.240 -0.2785 -0.0493 -0.1825
  424MOL0     C55848  -0.079   9.014   9.292 -0.7509 -0.6054  0.1089
  424MOL0     C55849  -0.122   8.870   9.318 -0.1460  0.1736  0.3619
  424MOL0     C55850  -0.266   8.885   9.369  0.2537  0.4534  0.0807
  424MOL0     C55851  -0.324   8.745   9.402 -0.4972  0.1856 -0.4332
  424MOL0     C55852  -0.463   8.771   9.465  0.4652  0.4410  0.1552
  424MOL0     N55853  -0.519   8.649   9.523  0.8428 -0.1189  0.0273
  424MOL0     C55854  -0.611   8.560   9.468  0.3440  0.8987  0.0181
  424MOL0     C55855  -0.645   8.457   9.559 -0.2891  0.1527 -0.0168
  424MOL0     C55856  -0.734   8.341   9.526  0.0517  0.2188 -0.3234
  424MOL0     C55857  -0.838   8.315   9.641 -0.1848  0.2992 -0.2881
  424MOL0     C55858  -0.904   8.439   9.707  0.1470 -0.7524  0.3235
  424MOL0     C55859  -1.026   8.392   9.790 -0.7439 -0.1063  0.0026
  424MOL0     O55860  -1.125   8.352   9.688 -0.1384 -0.5525  0.1459
  424MOL0     C55861  -1.249   8.297   9.740  0.0438  0.5314  0.6735
  424MOL0     C55862  -1.344   8.264   9.640  0.4669  0.1084  0.2479
  424MOL0     C55863  -1.472   8.213   9.672  0.0184 -0.0993 -0.5368
  424MOL0     C55864  -1.499   8.187   9.805  0.4418  0.4550 -0.7172
  424MOL0     C55865  -1.631   8.143   9.841 -0.5815 -0.0722 -0.5455
  424MOL0     O55866  -1.668   8.149   9.972 -0.1539  0.2006  0.1907
  424MOL0     C55867  -1.792   8.108  10.001 -0.6140 -1.0396 -0.0992
  424MOL0     C55868  -1.825   7.976  10.022  0.5659 -0.9158  1.0128
  424MOL0     C55869  -1.965   7.939  10.046 -0.5356 -0.0058  0.2856
  424MOL0     C55870  -2.061   8.041  10.060  0.0275  0.8095 -0.3881
  424MOL0     O55871  -2.193   8.003  10.089  0.2576 -0.3202  0.1317
  424MOL0     C55872  -2.223   7.866  10.093 -0.7254  0.1416  0.8508
  424MOL0     C55873  -2.367   7.826  10.115  0.2706  0.2438 -0.9730
  424MOL0     C55874  -2.442   7.911  10.212 -0.6275 -0.6979  0.2226
  424MOL0     C55875  -2.589   7.871  10.230 -0.5679  0.2011  0.5109
  424MOL0     C55876  -2.642   7.939  10.360 -0.8573  0.1206  0.7370
  424MOL0     C55877  -2.793   7.915  10.376 -0.3670  0.4384 -0.4128
  424MOL0     C55878  -2.834   7.935  10.520  0.0326  0.3832  0.8251
  424MOL0     C55879  -2.985   7.968  10.539 -0.0690 -0.1189  0.2141
  424MOL0    Cl55880  -3.010   8.127  10.451  0.0122 -0.1306  0.4446
  424MOL0     C55881  -2.024   8.171  10.039 -0.2200 -0.4374 -0.0415
  424MOL0     C55882  -1.889   8.210  10.010  1.1089 -0.4477  0.1325
  424MOL0     O55883  -1.694   8.090   9.758 -0.2839  0.1276  0.2765
  424MOL0     C55884  -1.405   8.214   9.909  0.7927 -0.6360 -0.0486
  424MOL0     C55885  -1.285   8.271   9.876 -0.1959 -0.8070  0.1812
  424MOL0     N55886  -0.567   8.491   9.670 -0.5418 -0.0899  0.6085
  424MOL0     N55887  -0.498   8.599   9.648 -0.6642  0.1065  0.3047
  424MOL0     C55888   0.479   9.292   9.082  0.0878  0.2186  0.1068
  424MOL0     C55889   0.595   9.365   9.056  0.3123 -0.0694 -0.4967
  424MOL0     C55890   0.987   9.588   9.101  0.4535 -0.0057 -0.6575
  424MOL0     C55891   0.974   9.718   9.159 -0.3947 -0.5366  0.2791
  424MOL0     C55892   1.082   9.803   9.144 -0.1868  0.1664  0.1135
  424MOL0     C55893   1.199   9.771   9.081 -0.6018  0.1751  0.8314
  424MOL0     O55894   1.301   9.865   9.071  0.0901 -0.2783  0.3390
  424MOL0     C55895   1.425   9.836   9.000  1.1667 -0.1315  0.4576
  424MOL0     C55896   1.523   9.761   9.103 -0.3061 -0.2852  0.3653
  424MOL0     C55897   1.650   9.720   9.030 -0.0653  0.0679 -0.4291
  424MOL0     C55898   1.755   9.683   9.132  0.0787  0.5228  0.2650
  424MOL0     C55899   1.873   9.634   9.061 -0.7111  0.9179 -0.2857
  424MOL0     C55900   1.978   9.601   9.004  0.3740  0.2542  0.7912
  424MOL0     C55901   1.215   9.637   9.031  0.0980  0.1448  0.1361
  424MOL0     C55902   1.110   9.545   9.035  0.4831  0.9338  0.6887
  424MOL0     H55903   0.620   9.527   9.352 -1.9666 -1.5437  1.3201
  424MOL0     H55904   0.405   9.399   9.392 -2.2697 -0.9592 -1.6215
  424MOL0     H55905   0.235   9.112   9.058 -1.0675 -0.2490  1.0597
  424MOL0     H55906   0.213   9.296   9.075  2.0992  2.4566  3.0511
  424MOL0     H55907   0.021   9.152   9.080  0.3979 -1.4800  0.3130
  424MOL0     H55908   0.044   9.243   9.237  3.9123  2.0835  0.9192
  424MOL0     H55909   0.143   9.016   9.318 -0.5065  2.7903  0.3901
  424MOL0     H55910   0.079   8.945   9.164 -0.1270  0.4395 -0.6629
  424MOL0     H55911  -0.085   9.074   9.383 -2.3813 -1.0108  0.3044
  424MOL0     H55912  -0.150   9.055   9.219 -0.9959  0.2630  0.8138
  424MOL0     H55913  -0.064   8.815   9.392  1.2216 -2.1204 -2.2170
  424MOL0     H55914  -0.122   8.821   9.220  0.6424  3.4736 -1.4384
  424MOL0     H55915  -0.334   8.935   9.300  0.4043  0.2284 -0.2348
  424MOL0     H55916  -0.262   8.939   9.464  0.9679 -0.2401  0.4630
  424MOL0     H55917  -0.337   8.684   9.312  0.5431 -0.1453 -0.3645
  424MOL0     H55918  -0.250   8.696   9.466  1.7650  1.7289 -1.7230
  424MOL0     H55919  -0.530   8.804   9.384 -2.4964 -0.9609  1.8529
  424MOL0     H55920  -0.456   8.854   9.536 -3.1563  0.8872  0.2161
  424MOL0     H55921  -0.654   8.570   9.369 -3.7374  1.3403  1.6471
  424MOL0     H55922  -0.671   8.253   9.513 -1.5882 -0.9564 -0.4590
  424MOL0     H55923  -0.773   8.371   9.428  3.1667  1.7669 -1.2280
  424MOL0     H55924  -0.782   8.259   9.717 -0.2317  3.2301  2.0543
  424MOL0     H55925  -0.924   8.254   9.609 -1.8784  0.2077  3.8152
  424MOL0     H55926  -0.828   8.476   9.776 -0.0027 -0.3236  0.2643
  424MOL0     H55927  -0.932   8.525   9.645  1.0543  0.2255  1.2299
  424MOL0     H55928  -1.054   8.466   9.865 -1.8952 -0.3550 -0.1699
  424MOL0     H55929  -0.989   8.307   9.849 -1.6270 -0.3437  0.2227
  424MOL0     H55930  -1.322   8.284   9.535 -1.0705 -0.2167 -0.1673
  424MOL0     H55931  -1.550   8.204   9.597 -2.2577  0.2618  1.6488
  424MOL0     H55932  -1.750   7.899  10.008  1.2217  0.1534 -2.2755
  424MOL0     H55933  -1.980   7.833  10.060  1.2943 -0.3583 -0.1608
  424MOL0     H55934  -2.160   7.823  10.171 -0.7138  0.4120  0.9908
  424MOL0     H55935  -2.200   7.822   9.996  0.4768 -1.3191  1.7562
  424MOL0     H55936  -2.373   7.721  10.145  1.3279  0.1005 -1.1929
  424MOL0     H55937  -2.418   7.840  10.019  0.1609 -0.4343 -1.0181
  424MOL0     H55938  -2.429   8.014  10.175 -0.2514 -1.5757 -2.3046
  424MOL0     H55939  -2.394   7.910  10.310 -0.8645  1.1104  0.4010
  424MOL0     H55940  -2.647   7.900  10.142 -0.5347 -0.6686  0.1914
  424MOL0     H55941  -2.601   7.763  10.229 -2.7035  0.3237  3.2132
  424MOL0     H55942  -2.619   8.045  10.370  1.7503 -0.2529 -0.5730
  424MOL0     H55943  -2.593   7.881  10.439  1.2226  0.5075 -0.2162
  424MOL0     H55944  -2.829   7.815  10.352  0.6674  0.3534 -1.7750
  424MOL0     H55945  -2.854   7.983  10.315 -1.6489 -0.4366 -0.1495
  424MOL0     H55946  -2.821   7.838  10.570 -1.8026 -1.1650 -1.4424
  424MOL0     H55947  -2.770   8.017  10.552  1.2123  0.0622 -0.6197
  424MOL0     H55948  -3.010   7.986  10.644 -0.4823 -0.1180  0.1182
  424MOL0     H55949  -3.050   7.890  10.500 -0.3860  0.1114  0.2745
  424MOL0     H55950  -2.095   8.253  10.039 -0.0497 -0.2862 -0.5398
  424MOL0     H55951  -1.855   8.313  10.013  2.3482 -0.8245 -0.3332
  424MOL0     H55952  -1.421   8.210  10.016  3.2556  2.1618  0.5462
  424MOL0     H55953  -1.203   8.288   9.944 -0.8240  2.6617  0.2544
  424MOL0     H55954   0.434   9.234   9.002  0.6735 -0.0328 -0.0457
  424MOL0     H55955   0.654   9.350   8.966  0.2975 -1.1882 -0.3309
  424MOL0     H55956   0.886   9.748   9.217 -0.0790  1.2592 -0.0974
  424MOL0     H55957   1.080   9.901   9.191 -1.7115  1.6004 -2.6558
  424MOL0     H55958   1.476   9.927   8.967  1.3284 -0.9973 -1.8408
  424MOL0     H55959   1.417   9.771   8.913  3.2963 -2.7525  2.0818
  424MOL0     H55960   1.546   9.829   9.185  2.2359  1.7802 -1.8427
  424MOL0     H55961   1.475   9.678   9.155 -1.5692  1.4812  2.1467
  424MOL0     H55962   1.692   9.800   8.969  1.1339 -0.5881 -0.4889
  424MOL0     H55963   1.627   9.635   8.966 -1.2026 -1.4715  1.8981
  424MOL0     H55964   1.786   9.772   9.186 -1.5643  0.0386  2.1173
  424MOL0     H55965   1.714   9.608   9.201 -1.7340  0.4859 -0.7928
  424MOL0     H55966   2.068   9.578   8.949 -1.0237  1.4961 -2.2673
  424MOL0     H55967   1.309   9.597   8.994 -1.2006 -1.3348 -1.6873
  424MOL0     H55968   1.116   9.444   8.997  0.5115  0.3531  2.1515
  425MOL0     O55969   3.776   0.903   8.758 -1.0762 -0.4160 -0.1013
  425MOL0     C55970   3.844   1.008   8.763 -0.0546  0.1175  0.4034
  425MOL0     O55971   3.787   1.125   8.775  0.3150 -0.1314 -0.7267
  425MOL0     C55972   3.653   1.145   8.783  0.9446  0.0289  0.1593
  425MOL0     C55973   3.592   1.259   8.722  0.2161 -0.5852  0.2500
  425MOL0     C55974   3.460   1.284   8.737  0.7114 -0.4366 -0.1356
  425MOL0     C55975   3.376   1.204   8.817 -0.2356  0.5855  0.3194
  425MOL0     O55976   3.250   1.239   8.842  0.5762  0.3298  0.2746
  425MOL0     C55977   3.166   1.290   8.744 -0.2329  0.1289  0.4065
  425MOL0     C55978   3.022   1.279   8.800  0.2297 -1.3908  0.0570
  425MOL0     C55979   2.996   1.329   8.946  0.4232  0.4754  0.3900
  425MOL0     C55980   2.845   1.339   8.982 -0.4291 -0.4152 -0.3280
  425MOL0     C55981   2.823   1.394   9.131  0.2548 -0.1847  0.9242
  425MOL0     C55982   2.879   1.533   9.159 -0.6915  0.2598  0.8968
  425MOL0     C55983   2.841   1.598   9.294  0.3084 -0.3094 -0.7853
  425MOL0     C55984   2.938   1.707   9.331 -0.3676  0.4598  0.6350
  425MOL0     N55985   2.871   1.808   9.405  0.0320 -0.6006  0.0464
  425MOL0     C55986   2.754   1.862   9.357  0.1773 -0.0201 -0.3621
  425MOL0     C55987   2.688   1.900   9.467  0.3415  0.1327 -0.7609
  425MOL0     C55988   2.554   1.969   9.477 -0.5158 -0.7042  0.1089
  425MOL0     C55989   2.447   1.872   9.520 -0.2620  0.1903 -0.0824
  425MOL0     C55990   2.310   1.921   9.508 -0.1091  0.5921  0.4625
  425MOL0     C55991   2.211   1.808   9.515  0.2141 -0.0804 -0.0926
  425MOL0     O55992   2.091   1.880   9.506  0.0181  0.4072  0.0516
  425MOL0     C55993   1.980   1.808   9.546 -0.3218 -0.9654 -0.2067
  425MOL0     C55994   1.880   1.887   9.603 -0.2863 -0.2204  0.6242
  425MOL0     C55995   1.758   1.829   9.624  0.5058 -0.6804 -0.3522
  425MOL0     C55996   1.738   1.686   9.611  0.5087  0.0253  0.2259
  425MOL0     C55997   1.614   1.619   9.651  0.3570 -0.0184  0.1855
  425MOL0     O55998   1.515   1.690   9.716  0.1069  1.0554  0.8639
  425MOL0     C55999   1.391   1.619   9.726  0.1067  0.7212  0.2734
  425MOL0     C56000   1.343   1.564   9.842 -0.3406  0.4366 -0.1995
  425MOL0     C56001   1.214   1.524   9.855 -0.2041  0.7397  0.4272
  425MOL0     C56002   1.128   1.506   9.745  0.2293  0.6171 -0.1900
  425MOL0     O56003   1.014   1.436   9.767  0.3832 -0.3552  0.2378
  425MOL0     C56004   0.901   1.489   9.685  0.5762  0.0199 -0.0864
  425MOL0     C56005   0.757   1.496   9.747 -0.3120 -0.6870 -0.1645
  425MOL0     C56006   0.645   1.496   9.646 -0.4487 -0.6257  0.4843
  425MOL0     C56007   0.502   1.518   9.717  0.0012  0.5550  0.1913
  425MOL0     C56008   0.418   1.395   9.722 -0.0027 -0.3957  0.0305
  425MOL0     C56009   0.288   1.437   9.791 -0.0452 -0.0228  0.2533
  425MOL0     C56010   0.230   1.304   9.852  0.1744 -0.0960 -0.5342
  425MOL0     C56011   0.119   1.328   9.951 -0.0130  0.5211  0.3132
  425MOL0    Cl56012  -0.020   1.370   9.839  0.0484 -0.0946 -0.3723
  425MOL0     C56013   1.179   1.551   9.621 -0.4107  0.4130 -0.0974
  425MOL0     C56014   1.302   1.614   9.615 -0.1959  0.2134 -0.0984
  425MOL0     O56015   1.610   1.502   9.627  0.2151  0.7836  0.0704
  425MOL0     C56016   1.847   1.608   9.575  0.9160 -0.1203 -0.8047
  425MOL0     C56017   1.970   1.670   9.531  0.8139 -0.6142  0.3205
  425MOL0     N56018   2.761   1.873   9.582  0.7246  0.6670  0.7974
  425MOL0     N56019   2.873   1.824   9.541  0.1056  0.0713 -0.1757
  425MOL0     C56020   3.429   1.089   8.877  0.1744 -0.4443 -0.6443
  425MOL0     C56021   3.567   1.063   8.865  0.1184  0.1950 -0.1794
  425MOL0     C56022   3.993   0.994   8.763  0.4392 -0.5291 -0.3796
  425MOL0     C56023   4.065   1.112   8.795 -0.0860 -0.0116 -0.4159
  425MOL0     C56024   4.208   1.107   8.805  0.5117  0.5329  0.3300
  425MOL0     C56025   4.278   0.989   8.782 -0.3880  0.0804  0.7031
  425MOL0     O56026   4.417   0.996   8.801  0.0972 -0.1200 -0.3097
  425MOL0     C56027   4.483   0.872   8.771  0.4801 -0.0813 -0.3453
  425MOL0     C56028   4.642   0.890   8.780  0.0937 -0.1162  0.1395
  425MOL0     C56029   4.715   0.767   8.731 -0.3379 -0.3883 -0.2456
  425MOL0     C56030   4.866   0.789   8.744  0.2973  0.0241  0.4063
  425MOL0     C56031   4.919   0.929   8.737  0.4772  0.5911 -0.0455
  425MOL0     C56032   4.964   1.041   8.733 -0.1600  0.1760  0.2529
  425MOL0     C56033   4.204   0.874   8.754  0.2916  0.3783 -1.4300
  425MOL0     C56034   4.061   0.873   8.744 -0.3039  0.5622 -0.2636
  425MOL0     H56035   3.654   1.321   8.657  0.3788 -0.0515  0.9115
  425MOL0     H56036   3.422   1.366   8.678  2.9268  1.6560  1.1417
  425MOL0     H56037   3.182   1.234   8.651  1.5703  2.3685 -0.7193
  425MOL0     H56038   3.198   1.391   8.717  0.8995  0.0604  1.4159
  425MOL0     H56039   2.992   1.176   8.780  0.6407 -1.9532  2.0601
  425MOL0     H56040   2.959   1.345   8.739  1.7831  0.1688  0.0520
  425MOL0     H56041   3.039   1.428   8.963 -2.2259  1.4061  2.3900
  425MOL0     H56042   3.049   1.260   9.013  0.8320  1.4808  1.1465
  425MOL0     H56043   2.810   1.414   8.910 -0.4340 -1.7653 -1.7884
  425MOL0     H56044   2.791   1.247   8.959 -4.8708  1.8593 -0.1230
  425MOL0     H56045   2.847   1.327   9.215 -2.5868  0.4599  2.3948
  425MOL0     H56046   2.715   1.407   9.147  0.2390  2.2039 -0.7046
  425MOL0     H56047   2.848   1.596   9.076 -1.4980 -1.1524  0.0948
  425MOL0     H56048   2.988   1.525   9.172 -0.5996 -0.4863 -0.1673
  425MOL0     H56049   2.739   1.638   9.300  1.3091  2.3437  0.1024
  425MOL0     H56050   2.851   1.526   9.376 -2.4384  0.4221  0.2902
  425MOL0     H56051   2.963   1.742   9.231 -1.9824 -1.0602 -0.3792
  425MOL0     H56052   3.025   1.657   9.373  0.3773 -0.4893 -1.8445
  425MOL0     H56053   2.725   1.868   9.252  2.7279  1.6681 -1.0426
  425MOL0     H56054   2.522   2.015   9.384 -1.3918  1.9068  1.5952
  425MOL0     H56055   2.557   2.048   9.553 -1.2885 -2.0543  1.6287
  425MOL0     H56056   2.471   1.830   9.618  0.1038 -3.8778 -1.6947
  425MOL0     H56057   2.456   1.787   9.452 -2.5059  1.7341 -2.4816
  425MOL0     H56058   2.298   1.997   9.586 -1.0032  0.1550  0.7565
  425MOL0     H56059   2.311   1.976   9.413  0.1869  2.6687  1.5930
  425MOL0     H56060   2.212   1.759   9.613 -2.0361 -2.0115 -0.9217
  425MOL0     H56061   2.222   1.741   9.429  2.6315  0.6700 -0.4314
  425MOL0     H56062   1.887   1.995   9.595 -2.0457 -0.2300 -3.0463
  425MOL0     H56063   1.673   1.883   9.665 -0.3552 -2.8956  1.0110
  425MOL0     H56064   1.404   1.567   9.932  0.9964 -0.9764 -1.0042
  425MOL0     H56065   1.176   1.489   9.951  0.8285 -0.7218  0.3388
  425MOL0     H56066   0.898   1.426   9.596  0.1012  0.7039 -0.5634
  425MOL0     H56067   0.915   1.596   9.662  0.6967 -0.3438 -1.8543
  425MOL0     H56068   0.758   1.585   9.811  1.0502 -1.0486  0.3718
  425MOL0     H56069   0.742   1.414   9.818 -0.9683 -1.3815 -1.0860
  425MOL0     H56070   0.646   1.401   9.591 -1.3419 -0.3649 -0.0085
  425MOL0     H56071   0.672   1.569   9.569  1.5223 -0.4910  1.2510
  425MOL0     H56072   0.532   1.547   9.818  1.8287 -1.0556  0.1762
  425MOL0     H56073   0.452   1.598   9.661 -0.1423  0.4191  0.1244
  425MOL0     H56074   0.469   1.318   9.780 -0.8831 -1.2858 -0.3405
  425MOL0     H56075   0.405   1.346   9.625  0.4347 -1.7769  0.6515
  425MOL0     H56076   0.213   1.487   9.729 -0.7231  1.9830  2.5307
  425MOL0     H56077   0.306   1.513   9.868 -0.3015 -0.1821  0.4691
  425MOL0     H56078   0.199   1.237   9.772 -1.4620 -0.3844  0.3065
  425MOL0     H56079   0.310   1.251   9.904  1.0663 -2.6825 -4.1853
  425MOL0     H56080   0.140   1.405  10.026 -1.6833 -0.0835  1.4667
  425MOL0     H56081   0.100   1.234  10.004  1.3796 -1.0787 -1.8520
  425MOL0     H56082   1.120   1.542   9.530 -2.3969 -0.7942  1.2371
  425MOL0     H56083   1.328   1.664   9.522 -1.0900  1.3910  0.2616
  425MOL0     H56084   1.839   1.501   9.584 -2.1109 -0.0195 -1.1136
  425MOL0     H56085   2.046   1.602   9.493 -0.7089 -0.7743 -2.7674
  425MOL0     H56086   3.361   1.033   8.941  0.1001  0.5250  0.1501
  425MOL0     H56087   3.605   0.973   8.913  2.0193 -0.2661 -2.3789
  425MOL0     H56088   4.021   1.211   8.791  1.8898  0.8733 -1.3778
  425MOL0     H56089   4.260   1.201   8.821 -2.6211  2.3607  0.8260
  425MOL0     H56090   4.470   0.850   8.664  5.7060  1.8992 -1.7319
  425MOL0     H56091   4.466   0.791   8.842 -1.4326  2.3341  2.1604
  425MOL0     H56092   4.669   0.972   8.714 -4.7398  2.2350  0.5920
  425MOL0     H56093   4.663   0.914   8.885 -0.7700  1.4211 -0.0111
  425MOL0     H56094   4.701   0.746   8.624  1.2897 -0.2522 -0.5181
  425MOL0     H56095   4.691   0.680   8.793  0.9660 -1.6063 -1.3601
  425MOL0     H56096   4.895   0.748   8.841 -0.6149  1.3121  1.2345
  425MOL0     H56097   4.904   0.719   8.667  0.4189 -1.0107  1.3796
  425MOL0     H56098   5.006   1.139   8.724 -0.4400  0.2586 -0.1891
  425MOL0     H56099   4.255   0.778   8.748 -1.3287 -0.6629  0.4916
  425MOL0     H56100   4.005   0.782   8.721  0.7214 -0.4148  0.9434
  426MOL0     O56101  10.477   4.284   5.036  0.8108  0.7396  0.8057
  426MOL0     C56102  10.534   4.377   4.977 -1.7305  0.4531 -0.4140
  426MOL0     O56103  10.486   4.499   4.966 -0.2285 -0.2352  0.0628
  426MOL0     C56104  10.350   4.509   5.000 -0.0612  0.5830 -0.0072
  426MOL0     C56105  10.301   4.521   5.134 -0.5320  0.3926  0.2395
  426MOL0     C56106  10.167   4.535   5.177 -0.6215 -0.1518 -0.7296
  426MOL0     C56107  10.067   4.549   5.084 -0.1888 -0.3297  0.3408
  426MOL0     O56108   9.939   4.568   5.125  0.2865  0.3415  1.0748
  426MOL0     C56109   9.835   4.578   5.033  0.5214 -0.4054 -0.0875
  426MOL0     C56110   9.706   4.561   5.109  0.9020 -0.9704 -0.1595
  426MOL0     C56111   9.597   4.617   5.027 -0.0974 -0.4957 -0.4193
  426MOL0     C56112   9.469   4.599   5.113 -1.0859 -1.0061 -0.7891
  426MOL0     C56113   9.354   4.677   5.046  0.1530 -0.0376 -0.2081
  426MOL0     C56114   9.225   4.661   5.130  0.2675  0.4175  0.7037
  426MOL0     C56115   9.097   4.684   5.035  0.1314 -0.1287  0.0625
  426MOL0     C56116   8.964   4.643   5.100 -0.9172 -0.0916 -0.2228
  426MOL0     N56117   8.848   4.639   5.008 -0.4759 -0.4331 -0.5179
  426MOL0     C56118   8.796   4.533   4.945 -0.3984  0.3802 -0.0308
  426MOL0     C56119   8.674   4.559   4.899  0.2580  0.5903  0.0739
  426MOL0     C56120   8.576   4.472   4.827  0.1963 -0.8139 -0.1022
  426MOL0     C56121   8.437   4.525   4.830  0.0627  0.0552 -0.4463
  426MOL0     C56122   8.317   4.418   4.827  0.4131  0.3272  0.3879
  426MOL0     C56123   8.285   4.358   4.687  0.1599 -0.1604  0.7996
  426MOL0     O56124   8.170   4.269   4.704 -0.0478 -0.4930 -0.1844
  426MOL0     C56125   8.110   4.231   4.590  0.4829  0.4230 -0.3982
  426MOL0     C56126   8.153   4.270   4.465 -0.0219  0.2777  0.0818
  426MOL0     C56127   8.081   4.219   4.355 -0.0614  0.3905 -1.3423
  426MOL0     C56128   7.971   4.132   4.365 -0.2511  0.1050  0.4557
  426MOL0     C56129   7.896   4.080   4.254  0.1523 -0.2200 -0.3778
  426MOL0     O56130   7.774   4.042   4.280 -0.7971 -0.6269  0.1640
  426MOL0     C56131   7.693   3.987   4.183 -0.4434  0.1815 -0.0161
  426MOL0     C56132   7.599   3.897   4.222 -0.0389 -0.8185 -0.0218
  426MOL0     C56133   7.498   3.848   4.135 -0.4990  0.0853 -0.5577
  426MOL0     C56134   7.501   3.898   4.001 -0.2402 -0.5466  0.2244
  426MOL0     O56135   7.414   3.868   3.899 -0.0928 -0.4243  0.1526
  426MOL0     C56136   7.325   3.757   3.909 -0.7208 -0.2796  0.0457
  426MOL0     C56137   7.254   3.769   3.764 -0.3276  0.4774  0.0499
  426MOL0     C56138   7.160   3.648   3.751  1.0125  0.2693 -0.3316
  426MOL0     C56139   7.041   3.663   3.850 -0.2639 -1.0029  0.0944
  426MOL0     C56140   6.944   3.553   3.820  0.6474  0.4457 -0.1179
  426MOL0     C56141   6.859   3.509   3.938  0.2153  0.4855 -0.1028
  426MOL0     C56142   6.738   3.422   3.909 -0.0388 -0.0650 -0.0541
  426MOL0     C56143   6.656   3.388   4.026 -0.0743  0.6141 -0.3951
  426MOL0    Cl56144   6.484   3.365   3.977  0.3821  0.1194  0.0429
  426MOL0     C56145   7.591   3.992   3.962 -0.5509  0.5054 -0.7361
  426MOL0     C56146   7.688   4.038   4.051 -0.0944  0.5728  0.1449
  426MOL0     O56147   7.955   4.074   4.150  0.1546  0.3395  0.5252
  426MOL0     C56148   7.933   4.091   4.498  0.3751  0.0804  0.0207
  426MOL0     C56149   8.006   4.142   4.608 -0.2774 -0.3751 -0.0901
  426MOL0     N56150   8.658   4.696   4.923  0.3942  0.0965  0.0746
  426MOL0     N56151   8.757   4.740   5.000 -0.5458 -0.2567  0.1533
  426MOL0     C56152  10.111   4.555   4.951 -0.4352 -0.6791 -0.1641
  426MOL0     C56153  10.249   4.532   4.912  0.2295  0.0963  0.0865
  426MOL0     C56154  10.679   4.360   4.943  0.4404 -0.0291 -0.0177
  426MOL0     C56155  10.753   4.471   4.893  0.8778  0.3567  0.2038
  426MOL0     C56156  10.890   4.464   4.879  0.4326 -0.6844  0.1007
  426MOL0     C56157  10.960   4.346   4.902  0.8549  0.4751  0.5506
  426MOL0     O56158  11.095   4.337   4.892 -0.5183 -0.4075  0.2042
  426MOL0     C56159  11.176   4.440   4.831 -0.1810  0.6389 -0.0064
  426MOL0     C56160  11.310   4.387   4.792  0.1182 -0.4449 -0.2724
  426MOL0     C56161  11.398   4.495   4.725  0.9341  0.0261  0.1461
  426MOL0     C56162  11.547   4.467   4.735 -0.3199 -0.0302  0.3756
  426MOL0     C56163  11.585   4.368   4.643 -0.7813  0.3743  0.0100
  426MOL0     C56164  11.607   4.306   4.539  0.1447  0.6244 -0.1285
  426MOL0     C56165  10.886   4.228   4.931 -0.4050 -0.0604 -0.6016
  426MOL0     C56166  10.749   4.239   4.962 -0.3792  0.1806  0.0468
  426MOL0     H56167  10.380   4.496   5.203 -2.3711 -0.1051  2.2643
  426MOL0     H56168  10.144   4.531   5.284 -1.2997  0.1492 -0.8551
  426MOL0     H56169   9.836   4.500   4.956  1.5789 -2.0973  1.5780
  426MOL0     H56170   9.839   4.673   4.978  1.3486 -1.4846 -2.0059
  426MOL0     H56171   9.704   4.599   5.212  0.6538 -1.0275 -0.1421
  426MOL0     H56172   9.679   4.457   5.130  1.1969 -0.7586  1.3816
  426MOL0     H56173   9.597   4.558   4.935  1.4712  0.7008 -1.2583
  426MOL0     H56174   9.610   4.724   5.008  1.2934 -0.5993 -0.1901
  426MOL0     H56175   9.442   4.493   5.118  1.3979 -1.6583  0.2454
  426MOL0     H56176   9.473   4.634   5.216 -0.8963 -1.2910 -0.6992
  426MOL0     H56177   9.334   4.636   4.946  2.1179  1.5557 -1.3419
  426MOL0     H56178   9.374   4.784   5.043  3.3769 -0.4684  1.3751
  426MOL0     H56179   9.238   4.722   5.219  0.9186 -0.9574  1.5991
  426MOL0     H56180   9.215   4.555   5.158  3.4979 -0.0922  0.4129
  426MOL0     H56181   9.080   4.790   5.012 -1.7209  0.3810  3.2190
  426MOL0     H56182   9.104   4.630   4.940 -0.6959 -1.0169  0.5005
  426MOL0     H56183   8.956   4.704   5.190 -0.0365  0.7241 -0.6874
  426MOL0     H56184   8.971   4.537   5.128  1.7295  0.0333 -0.1994
  426MOL0     H56185   8.831   4.430   4.940  1.1232  0.9188 -1.1634
  426MOL0     H56186   8.573   4.372   4.873  0.9006  0.9910  4.3695
  426MOL0     H56187   8.609   4.461   4.724  0.4714 -0.8087 -0.0153
  426MOL0     H56188   8.429   4.596   4.748 -0.8207  1.2892  0.6529
  426MOL0     H56189   8.423   4.582   4.922 -1.2187  2.2337 -1.9103
  426MOL0     H56190   8.343   4.331   4.888  0.7599 -0.8714 -1.3725
  426MOL0     H56191   8.229   4.472   4.862  0.4709 -1.1311  3.0196
  426MOL0     H56192   8.364   4.286   4.664 -1.4702 -1.5976 -0.4948
  426MOL0     H56193   8.269   4.436   4.612  0.0591  0.5256  1.5246
  426MOL0     H56194   8.234   4.337   4.438  0.4954 -0.0992  0.6683
  426MOL0     H56195   8.117   4.241   4.256  1.1375 -2.7025 -1.7061
  426MOL0     H56196   7.613   3.851   4.319  5.1782 -2.4027 -1.1964
  426MOL0     H56197   7.429   3.774   4.173 -0.3061  0.6971  1.0900
  426MOL0     H56198   7.255   3.764   3.993  1.9549  0.2342  2.3613
  426MOL0     H56199   7.384   3.665   3.904  2.1744  1.4912 -0.9016
  426MOL0     H56200   7.331   3.762   3.686  0.6401  0.8212  0.9477
  426MOL0     H56201   7.199   3.862   3.744  0.2743  0.8328  0.0191
  426MOL0     H56202   7.206   3.551   3.772  0.0816  0.1929  1.5300
  426MOL0     H56203   7.128   3.632   3.647 -0.2001 -1.0039  0.2190
  426MOL0     H56204   7.073   3.654   3.954  1.5119 -1.6137 -0.4658
  426MOL0     H56205   7.002   3.764   3.841 -0.2423 -0.8237  1.7374
  426MOL0     H56206   6.990   3.458   3.789  0.6151  0.1194  0.7994
  426MOL0     H56207   6.886   3.588   3.733 -1.2851 -0.8030  0.5850
  426MOL0     H56208   6.807   3.600   3.972 -3.6808 -0.8317 -1.9907
  426MOL0     H56209   6.922   3.477   4.021 -2.1362 -1.5268  1.0301
  426MOL0     H56210   6.682   3.464   3.826  2.2987  1.3905 -0.9911
  426MOL0     H56211   6.778   3.329   3.866 -0.6238 -0.7028  0.7396
  426MOL0     H56212   6.666   3.458   4.109  0.8881 -1.5010  1.3682
  426MOL0     H56213   6.703   3.299   4.070 -1.4383  0.4838  0.8671
  426MOL0     H56214   7.599   4.024   3.858 -0.5590 -1.8214 -1.5127
  426MOL0     H56215   7.748   4.119   4.011  1.1316 -0.9316 -1.1725
  426MOL0     H56216   7.841   4.035   4.506  1.0421 -1.2659 -1.1000
  426MOL0     H56217   7.972   4.109   4.705 -1.4658 -1.4804 -0.8454
  426MOL0     H56218  10.042   4.577   4.871 -0.3046  3.1735  0.5956
  426MOL0     H56219  10.277   4.536   4.807 -0.1052  1.6642  0.0260
  426MOL0     H56220  10.690   4.556   4.869  1.8754  1.5747  1.7155
  426MOL0     H56221  10.941   4.548   4.832  2.0787 -1.1882  0.8972
  426MOL0     H56222  11.175   4.539   4.877 -0.8905  1.8835 -2.5043
  426MOL0     H56223  11.138   4.464   4.731  3.8061 -1.7898 -2.3971
  426MOL0     H56224  11.359   4.363   4.887 -0.5886  3.1946  1.2073
  426MOL0     H56225  11.296   4.294   4.737  3.7786 -0.4007 -1.5438
  426MOL0     H56226  11.374   4.577   4.793 -0.6765 -1.8296  1.9304
  426MOL0     H56227  11.359   4.516   4.625 -2.5834 -2.1819  0.8858
  426MOL0     H56228  11.595   4.564   4.720 -1.5631  0.4295 -0.8346
  426MOL0     H56229  11.574   4.420   4.830 -2.0426  1.3787  1.6481
  426MOL0     H56230  11.636   4.257   4.448  0.7421  0.6664  0.0357
  426MOL0     H56231  10.947   4.138   4.934  0.6679  0.6415 -0.7012
  426MOL0     H56232  10.686   4.156   4.993 -0.0102 -0.3400 -0.5655
  427MOL0     O56233   4.558   3.287   0.756  0.0396 -0.4004  0.4680
  427MOL0     C56234   4.520   3.263   0.872  0.2373 -0.1007  0.1028
  427MOL0     O56235   4.594   3.266   0.986 -0.0964  0.2128  0.0096
  427MOL0     C56236   4.732   3.292   0.986 -0.1550 -0.2036 -0.2698
  427MOL0     C56237   4.781   3.370   1.085  0.3084 -0.7542 -0.1657
  427MOL0     C56238   4.925   3.404   1.085 -0.3625 -0.6142 -0.2345
  427MOL0     C56239   5.013   3.358   0.981  0.4149 -1.4404 -0.5710
  427MOL0     O56240   5.146   3.386   0.984  0.3068 -0.2350  0.1377
  427MOL0     C56241   5.171   3.526   0.960 -0.7538 -0.0460 -0.1546
  427MOL0     C56242   5.303   3.539   0.904 -0.0764  0.5701  0.2107
  427MOL0     C56243   5.321   3.459   0.773  0.6676  0.4293  1.1085
  427MOL0     C56244   5.452   3.509   0.712 -0.9155 -0.0643 -0.1455
  427MOL0     C56245   5.487   3.417   0.597 -0.4286  0.8250 -0.1593
  427MOL0     C56246   5.615   3.456   0.528  0.0151 -0.3613  0.0321
  427MOL0     C56247   5.680   3.351   0.445 -0.5064  1.3234  0.3978
  427MOL0     C56248   5.599   3.266   0.341  0.3220  0.5577 -1.2023
  427MOL0     N56249   5.692   3.154   0.294  1.0276 -0.6994 -0.5407
  427MOL0     C56250   5.715   3.037   0.359 -0.7193  0.0081 -0.8103
  427MOL0     C56251   5.780   2.952   0.269 -0.0551 -0.5375 -0.3534
  427MOL0     C56252   5.806   2.809   0.294 -0.5425  0.6598  0.7465
  427MOL0     C56253   5.854   2.774   0.436  0.0541  0.2297 -0.8064
  427MOL0     C56254   5.873   2.627   0.457  0.2113 -0.3591  0.7060
  427MOL0     C56255   5.752   2.559   0.534  0.5222  0.7785 -0.1539
  427MOL0     O56256   5.631   2.570   0.452  0.2522  0.0077  0.0281
  427MOL0     C56257   5.526   2.508   0.491  0.5849  0.5176 -0.4748
  427MOL0     C56258   5.514   2.421   0.606  0.1290  0.5328 -0.6486
  427MOL0     C56259   5.391   2.354   0.626 -0.5494 -0.1854  0.0556
  427MOL0     C56260   5.286   2.363   0.538  0.3304  0.5516 -0.0144
  427MOL0     C56261   5.158   2.285   0.552 -1.1466 -0.9637  0.9301
  427MOL0     O56262   5.054   2.309   0.466  0.7520  0.1003  0.1190
  427MOL0     C56263   4.939   2.234   0.473  0.2085  0.4284 -0.2896
  427MOL0     C56264   4.877   2.203   0.358  0.6317 -0.3547 -0.4079
  427MOL0     C56265   4.754   2.125   0.356  0.3419  0.0526 -0.0358
  427MOL0     C56266   4.702   2.078   0.477 -0.0150  0.3205  1.0617
  427MOL0     O56267   4.578   2.019   0.478  0.1464  0.0230 -0.5298
  427MOL0     C56268   4.527   1.932   0.379  1.0650  0.2160  0.0124
  427MOL0     C56269   4.411   1.851   0.429  0.5660 -0.2630 -0.7156
  427MOL0     C56270   4.285   1.873   0.358  0.0372  0.4513  0.3754
  427MOL0     C56271   4.168   1.799   0.408  0.2955  0.2924 -0.1947
  427MOL0     C56272   4.034   1.815   0.322 -0.9404  0.0732 -0.6157
  427MOL0     C56273   3.911   1.752   0.392  0.2212  0.6272 -0.0736
  427MOL0     C56274   3.773   1.784   0.321 -0.3784  0.8294 -0.7472
  427MOL0     C56275   3.733   1.936   0.325 -0.0010 -0.1182 -0.8566
  427MOL0    Cl56276   3.613   1.984   0.212  0.0769 -0.1586 -0.1905
  427MOL0     C56277   4.765   2.114   0.598 -0.1088  0.1819 -0.4413
  427MOL0     C56278   4.884   2.193   0.595  0.1441  0.8277  0.0840
  427MOL0     O56279   5.163   2.196   0.631  0.4846 -0.9318  0.0455
  427MOL0     C56280   5.298   2.454   0.430 -0.2775 -0.0239  0.0250
  427MOL0     C56281   5.416   2.527   0.406 -0.7351  0.5581  0.8865
  427MOL0     N56282   5.788   3.022   0.146  0.9013  0.2123 -0.0939
  427MOL0     N56283   5.739   3.138   0.169 -0.6606 -0.4208  0.2421
  427MOL0     C56284   4.959   3.273   0.890  0.4099  0.7487 -0.3858
  427MOL0     C56285   4.820   3.239   0.890 -0.4924 -0.6546  0.0209
  427MOL0     C56286   4.372   3.242   0.882 -0.0212 -0.7129  0.3748
  427MOL0     C56287   4.305   3.245   1.009  0.5142  0.2597 -0.0548
  427MOL0     C56288   4.163   3.234   1.015 -0.1298  0.2458 -0.5080
  427MOL0     C56289   4.090   3.228   0.896  0.2232 -0.5302 -0.7280
  427MOL0     O56290   3.951   3.223   0.883 -0.3608  0.4526  0.2841
  427MOL0     C56291   3.882   3.233   1.008 -0.1270  0.4345 -0.1146
  427MOL0     C56292   3.738   3.252   0.983  0.6239  0.6971  1.0695
  427MOL0     C56293   3.648   3.308   1.097 -0.0595 -0.6439 -0.0092
  427MOL0     C56294   3.658   3.247   1.238 -0.5911 -0.5806  0.4236
  427MOL0     C56295   3.773   3.305   1.303 -0.2366 -0.0516 -0.2650
  427MOL0     C56296   3.860   3.342   1.382 -1.4752 -0.0022  0.2803
  427MOL0     C56297   4.156   3.210   0.780  0.2109  0.0828 -0.0324
  427MOL0     C56298   4.294   3.216   0.762 -0.0261  0.2204 -0.4716
  427MOL0     H56299   4.709   3.399   1.161  2.1272  1.1781  0.9628
  427MOL0     H56300   4.950   3.470   1.168 -4.2709 -0.1759  0.8155
  427MOL0     H56301   5.166   3.583   1.054  0.6723 -2.0909  1.2498
  427MOL0     H56302   5.098   3.559   0.886  1.0224  2.6230 -0.9042
  427MOL0     H56303   5.373   3.508   0.983  0.5839 -0.6974 -0.8250
  427MOL0     H56304   5.332   3.643   0.889  3.4133 -0.4414 -1.0338
  427MOL0     H56305   5.235   3.476   0.707  0.4775 -1.3413  0.8438
  427MOL0     H56306   5.322   3.351   0.794  1.5265  0.2098 -0.0043
  427MOL0     H56307   5.452   3.614   0.682 -2.0907  0.3163  1.0899
  427MOL0     H56308   5.520   3.492   0.796 -0.7428  2.4507  0.2877
  427MOL0     H56309   5.399   3.424   0.532  0.1772 -1.1155 -1.2931
  427MOL0     H56310   5.500   3.315   0.633  2.0876  1.2634  0.3995
  427MOL0     H56311   5.671   3.483   0.619 -1.5571 -1.8211  1.5064
  427MOL0     H56312   5.592   3.547   0.472  0.2177 -0.0845  0.3927
  427MOL0     H56313   5.764   3.403   0.400  0.0078  0.7660  0.6975
  427MOL0     H56314   5.726   3.278   0.512 -2.6201 -0.8247 -0.3137
  427MOL0     H56315   5.564   3.332   0.261 -0.4563  0.3708 -1.0239
  427MOL0     H56316   5.510   3.225   0.389 -0.2036  0.4202 -2.2684
  427MOL0     H56317   5.679   3.008   0.458  0.8485  0.4098 -0.1019
  427MOL0     H56318   5.885   2.775   0.227 -2.8080  0.3552 -1.9672
  427MOL0     H56319   5.722   2.751   0.255  0.3626  0.0664 -0.3367
  427MOL0     H56320   5.785   2.813   0.512 -0.0690 -0.6525 -0.4598
  427MOL0     H56321   5.948   2.828   0.455  0.3253 -0.8813  1.3295
  427MOL0     H56322   5.891   2.569   0.366 -0.4674  1.1278 -0.4237
  427MOL0     H56323   5.969   2.609   0.506  0.2768 -0.5740  0.5039
  427MOL0     H56324   5.739   2.609   0.630 -2.7475 -2.3113  1.2508
  427MOL0     H56325   5.766   2.451   0.544  0.8027  0.5515 -2.3987
  427MOL0     H56326   5.602   2.405   0.668 -0.3161 -0.3771 -0.2404
  427MOL0     H56327   5.379   2.281   0.705  3.1233 -2.5647 -1.3073
  427MOL0     H56328   4.902   2.255   0.266  0.5239  1.7731  0.6895
  427MOL0     H56329   4.703   2.117   0.261 -0.0315  0.7795  0.0905
  427MOL0     H56330   4.612   1.865   0.363  0.8435 -0.3769  1.2319
  427MOL0     H56331   4.500   1.994   0.292  0.0948  1.2297  1.0100
  427MOL0     H56332   4.388   1.863   0.535 -0.2249  1.1412 -1.0199
  427MOL0     H56333   4.431   1.745   0.410 -0.5558 -0.3595 -1.4562
  427MOL0     H56334   4.299   1.853   0.251 -0.7854 -1.9824  0.6587
  427MOL0     H56335   4.261   1.980   0.360 -1.1028  0.2262 -0.2333
  427MOL0     H56336   4.189   1.692   0.405  0.4547  0.3404 -1.3465
  427MOL0     H56337   4.155   1.828   0.513 -0.6327 -1.1666  0.1212
  427MOL0     H56338   4.051   1.777   0.221 -0.1221  1.5741 -1.0837
  427MOL0     H56339   4.012   1.920   0.300  0.3092  1.4064  3.4805
  427MOL0     H56340   3.909   1.775   0.499  0.4825  1.2987 -0.2067
  427MOL0     H56341   3.923   1.643   0.390 -0.1348  0.5942 -1.0882
  427MOL0     H56342   3.769   1.737   0.223  0.3878 -2.4239  0.6438
  427MOL0     H56343   3.706   1.718   0.379 -1.2646 -0.6440 -3.3088
  427MOL0     H56344   3.817   2.002   0.302  0.2024 -1.1516 -3.3825
  427MOL0     H56345   3.701   1.955   0.428  2.6417  1.8142 -0.2904
  427MOL0     H56346   4.715   2.084   0.690  1.1085  0.9744  0.5199
  427MOL0     H56347   4.926   2.230   0.688 -2.1790  4.0153 -0.0035
  427MOL0     H56348   5.214   2.482   0.366 -1.0651 -0.1435  0.9699
  427MOL0     H56349   5.426   2.589   0.318 -1.3619  3.6833  2.8746
  427MOL0     H56350   5.028   3.241   0.812 -0.1610  0.9184 -0.9759
  427MOL0     H56351   4.782   3.181   0.806 -4.4061 -0.3373  1.3265
  427MOL0     H56352   4.366   3.245   1.099  0.5936 -1.2993 -0.0926
  427MOL0     H56353   4.116   3.237   1.112  0.3005 -1.4076 -0.2180
  427MOL0     H56354   3.926   3.316   1.065  2.7621 -1.2401  0.2944
  427MOL0     H56355   3.906   3.144   1.066 -1.0480  0.3831  0.2065
  427MOL0     H56356   3.725   3.328   0.905 -0.6268 -1.5097 -1.0305
  427MOL0     H56357   3.708   3.156   0.941 -0.0931  1.0586  0.7361
  427MOL0     H56358   3.549   3.298   1.052  0.1794  1.9956 -1.2924
  427MOL0     H56359   3.648   3.417   1.105 -0.6505 -0.4047 -2.6224
  427MOL0     H56360   3.571   3.273   1.299 -0.9270  1.8687 -0.9966
  427MOL0     H56361   3.670   3.138   1.233 -2.1093 -0.7127 -0.6834
  427MOL0     H56362   3.936   3.380   1.447  1.1582 -0.1170 -2.5325
  427MOL0     H56363   4.095   3.184   0.694  1.2930 -2.3904 -0.1177
  427MOL0     H56364   4.337   3.203   0.663 -1.7814  0.4584 -1.2942
  428MOL0     O56365   5.829   6.318   9.889  0.6593  0.1825  0.0678
  428MOL0     C56366   5.880   6.266   9.787 -0.4250 -0.8494 -0.2038
  428MOL0     O56367   5.824   6.258   9.662 -0.5177 -0.4245  0.7225
  428MOL0     C56368   5.704   6.315   9.644 -0.6081 -0.3664 -0.1034
  428MOL0     C56369   5.678   6.451   9.622  0.2971  0.1468 -0.4066
  428MOL0     C56370   5.557   6.505   9.579 -0.1267  0.1836  0.0183
  428MOL0     C56371   5.453   6.422   9.553  0.0640  0.2176  0.8010
  428MOL0     O56372   5.327   6.457   9.518 -0.1442  0.2017  0.2288
  428MOL0     C56373   5.292   6.597   9.529  0.1196 -0.0790  0.6666
  428MOL0     C56374   5.161   6.626   9.445 -0.3059 -0.4886 -0.1557
  428MOL0     C56375   5.049   6.523   9.458  0.3960  0.3702 -0.0208
  428MOL0     C56376   4.923   6.566   9.387  0.5526  0.5325 -0.8864
  428MOL0     C56377   4.821   6.450   9.376 -0.8406 -0.5244 -0.3678
  428MOL0     C56378   4.777   6.386   9.504  0.0063  0.8075 -0.3901
  428MOL0     C56379   4.677   6.273   9.492 -0.0958  0.9469  0.2064
  428MOL0     C56380   4.724   6.152   9.406  0.2432  0.6314 -0.7759
  428MOL0     N56381   4.863   6.103   9.448  0.2329  0.4083 -0.1356
  428MOL0     C56382   4.911   6.069   9.574  0.1767  0.4159 -0.3750
  428MOL0     C56383   5.050   6.060   9.558 -0.3119  0.9925 -0.4938
  428MOL0     C56384   5.155   6.034   9.661  0.7027  0.2880 -0.1606
  428MOL0     C56385   5.275   5.946   9.614 -0.4185 -0.2222  0.2405
  428MOL0     C56386   5.367   5.915   9.736 -0.0209 -0.9604 -0.3524
  428MOL0     C56387   5.492   5.836   9.695 -0.6413  0.2291  0.1435
  428MOL0     O56388   5.565   5.879   9.574  0.6336 -0.5004  0.2617
  428MOL0     C56389   5.698   5.845   9.561  1.0534 -0.0749 -0.1764
  428MOL0     C56390   5.763   5.916   9.461 -0.0208  0.1552  0.0047
  428MOL0     C56391   5.897   5.874   9.431  0.0781  1.2649 -0.5787
  428MOL0     C56392   5.967   5.784   9.512 -0.0972 -0.5430  0.4519
  428MOL0     C56393   6.115   5.773   9.481  0.5191 -0.7231  0.4859
  428MOL0     O56394   6.184   5.672   9.541 -0.7311 -0.2488  0.2111
  428MOL0     C56395   6.313   5.655   9.499 -0.1510 -0.2474 -0.1752
  428MOL0     C56396   6.427   5.717   9.557  0.1659 -0.6614  0.3263
  428MOL0     C56397   6.550   5.721   9.486  0.1072  0.1334  0.2006
  428MOL0     C56398   6.573   5.620   9.392 -0.3582  0.7757 -0.5361
  428MOL0     O56399   6.698   5.592   9.341 -0.7711 -0.0994  0.3176
  428MOL0     C56400   6.808   5.679   9.369 -0.9179  0.8984 -0.3339
  428MOL0     C56401   6.947   5.610   9.348  0.6927 -0.5976 -0.4349
  428MOL0     C56402   6.986   5.499   9.443 -0.8278  0.5173  0.2010
  428MOL0     C56403   7.115   5.429   9.406  0.2521 -0.5515  0.7085
  428MOL0     C56404   7.158   5.331   9.510  0.4189 -0.0981  0.2585
  428MOL0     C56405   7.271   5.242   9.475 -0.0511  0.8803 -0.1350
  428MOL0     C56406   7.306   5.148   9.596 -0.2479  0.7568 -0.1731
  428MOL0     C56407   7.445   5.182   9.646  0.7657 -0.5419  0.8191
  428MOL0    Cl56408   7.574   5.142   9.533  0.0530 -0.0484  0.5587
  428MOL0     C56409   6.463   5.543   9.348 -0.1180  0.0704 -0.0264
  428MOL0     C56410   6.333   5.567   9.397 -0.6866 -0.0048  0.8049
  428MOL0     O56411   6.164   5.860   9.408  0.1194 -0.0245 -0.2349
  428MOL0     C56412   5.896   5.724   9.616  0.1069 -0.3601  0.7781
  428MOL0     C56413   5.759   5.754   9.644  0.0004 -0.2874 -0.2604
  428MOL0     N56414   5.087   6.092   9.427 -0.0863  0.0395 -0.5179
  428MOL0     N56415   4.979   6.124   9.364  0.4260 -0.1997 -0.2419
  428MOL0     C56416   5.466   6.284   9.576 -0.4425  0.3589 -0.3505
  428MOL0     C56417   5.594   6.231   9.631 -0.6850 -0.4237  0.6995
  428MOL0     C56418   5.995   6.177   9.813 -0.2744 -0.0772  0.3619
  428MOL0     C56419   6.080   6.189   9.925  0.7378 -0.0338 -0.2280
  428MOL0     C56420   6.200   6.121   9.940  0.5931 -0.1510 -0.8779
  428MOL0     C56421   6.237   6.027   9.840 -0.7324 -0.2122  0.4926
  428MOL0     O56422   6.357   5.961   9.837 -0.4715 -0.7517 -0.2058
  428MOL0     C56423   6.466   6.012   9.920  1.0074 -0.2337 -1.1151
  428MOL0     C56424   6.586   5.918   9.911 -0.1119  0.6674 -0.2641
  428MOL0     C56425   6.549   5.780   9.967 -1.1444  0.2353  0.2105
  428MOL0     C56426   6.651   5.678   9.924 -0.1495 -0.9333 -0.1307
  428MOL0     C56427   6.788   5.699   9.984 -0.5306  0.9495 -0.8994
  428MOL0     C56428   6.892   5.710  10.044 -0.0236  0.2430 -1.1248
  428MOL0     C56429   6.148   6.003   9.739  0.5432  0.5736 -0.3082
  428MOL0     C56430   6.027   6.072   9.732 -0.4320  0.5332  1.0512
  428MOL0     H56431   5.756   6.519   9.656 -1.8597  3.0449 -0.8687
  428MOL0     H56432   5.549   6.612   9.591  3.1919  0.4911  0.3726
  428MOL0     H56433   5.369   6.663   9.489 -0.0062 -1.5495 -2.2616
  428MOL0     H56434   5.262   6.613   9.633 -1.7225  0.8291  0.0447
  428MOL0     H56435   5.178   6.637   9.338  0.8823  2.6007  0.2233
  428MOL0     H56436   5.125   6.726   9.470 -0.2553 -0.4485 -0.2416
  428MOL0     H56437   5.045   6.502   9.565 -0.9693  1.3087  0.1405
  428MOL0     H56438   5.073   6.433   9.401  1.2819  0.6994 -0.1860
  428MOL0     H56439   4.878   6.651   9.438 -2.9756 -1.3016 -0.6489
  428MOL0     H56440   4.952   6.596   9.286 -0.2782  0.3219 -1.1957
  428MOL0     H56441   4.863   6.378   9.304 -1.9762 -1.3120 -0.2723
  428MOL0     H56442   4.728   6.486   9.332 -0.2939 -0.2673 -1.3440
  428MOL0     H56443   4.732   6.471   9.555  2.1310  1.4214  0.5791
  428MOL0     H56444   4.867   6.352   9.557  0.1049  0.6837 -0.6327
  428MOL0     H56445   4.657   6.236   9.593 -1.4603  0.6504 -0.1604
  428MOL0     H56446   4.579   6.302   9.454  0.6241  0.7285 -1.9580
  428MOL0     H56447   4.716   6.169   9.298  0.5491 -2.6601 -1.4071
  428MOL0     H56448   4.663   6.064   9.430 -3.2054  3.3574  1.4902
  428MOL0     H56449   4.847   6.048   9.659  0.7216  1.2640  0.2529
  428MOL0     H56450   5.109   6.007   9.757  0.2888  2.1039  0.1936
  428MOL0     H56451   5.201   6.133   9.674 -0.3454  1.0129 -1.6291
  428MOL0     H56452   5.330   6.006   9.541  0.5819 -1.2943  0.0706
  428MOL0     H56453   5.245   5.849   9.572 -0.2792 -0.1530 -0.0199
  428MOL0     H56454   5.402   6.004   9.788  0.8067 -1.3844 -0.1663
  428MOL0     H56455   5.312   5.849   9.804 -1.5644 -0.3968 -1.0064
  428MOL0     H56456   5.457   5.735   9.673  0.2508  0.0873 -0.6941
  428MOL0     H56457   5.560   5.845   9.780  0.9791  1.2963 -1.1888
  428MOL0     H56458   5.708   5.991   9.405 -0.4760  0.2200  0.5305
  428MOL0     H56459   5.935   5.907   9.334 -0.2000 -0.1697 -1.2006
  428MOL0     H56460   6.403   5.784   9.639  0.3227  0.4938 -0.5385
  428MOL0     H56461   6.619   5.801   9.508  0.1517  0.2086 -0.2240
  428MOL0     H56462   6.806   5.708   9.475  0.6691 -0.4884  0.0988
  428MOL0     H56463   6.805   5.773   9.312 -1.2238  0.2008 -1.4927
  428MOL0     H56464   7.028   5.683   9.351  0.3594 -0.2611  0.8580
  428MOL0     H56465   6.936   5.572   9.246 -1.1416  3.6519 -2.0486
  428MOL0     H56466   6.897   5.439   9.465 -0.8902  1.7805  4.2183
  428MOL0     H56467   7.018   5.557   9.531  2.3485 -1.1469  0.2750
  428MOL0     H56468   7.105   5.371   9.314 -3.3651  0.3538  0.3950
  428MOL0     H56469   7.199   5.497   9.395 -0.0504 -0.2373  0.3534
  428MOL0     H56470   7.067   5.271   9.523  1.1058 -0.9798  1.2333
  428MOL0     H56471   7.188   5.378   9.604  0.5266 -1.6884  1.0480
  428MOL0     H56472   7.350   5.305   9.434 -1.2645  2.3264 -0.3410
  428MOL0     H56473   7.231   5.176   9.397 -2.4541  2.2935 -0.2007
  428MOL0     H56474   7.235   5.149   9.679 -1.3850  1.2757 -1.1316
  428MOL0     H56475   7.299   5.048   9.553  0.3458 -0.8729  3.1610
  428MOL0     H56476   7.455   5.140   9.747  2.7500  0.4073  1.0477
  428MOL0     H56477   7.449   5.289   9.666  1.0441  0.2632 -2.9300
  428MOL0     H56478   6.468   5.476   9.263 -2.4408  1.9593 -1.7850
  428MOL0     H56479   6.254   5.501   9.362  1.4184 -3.2863  1.8152
  428MOL0     H56480   5.946   5.652   9.681  3.0677  1.7876  1.1101
  428MOL0     H56481   5.701   5.694   9.714 -1.1166 -1.4787 -2.1251
  428MOL0     H56482   5.400   6.204   9.544  0.1802 -1.0444  1.6561
  428MOL0     H56483   5.612   6.127   9.659 -1.6210  0.3651  4.9746
  428MOL0     H56484   6.061   6.263  10.003 -1.1257 -0.1144 -0.5651
  428MOL0     H56485   6.247   6.150  10.033  0.6008  0.0673 -0.9509
  428MOL0     H56486   6.437   6.008  10.025  0.6378 -5.9316 -1.1001
  428MOL0     H56487   6.491   6.116   9.897 -2.3000  0.5072 -1.7594
  428MOL0     H56488   6.591   5.904   9.802  0.4208 -0.6280 -0.0957
  428MOL0     H56489   6.681   5.951   9.955  0.5288  0.8283 -1.6776
  428MOL0     H56490   6.445   5.753   9.947 -1.9078  1.5135  2.1805
  428MOL0     H56491   6.547   5.782  10.076 -0.3175 -3.5679  0.4413
  428MOL0     H56492   6.613   5.576   9.938 -0.2765 -0.8725 -0.0245
  428MOL0     H56493   6.662   5.695   9.817 -0.7141  0.0218 -0.0478
  428MOL0     H56494   6.983   5.710  10.102 -1.1950  2.0814  0.8383
  428MOL0     H56495   6.170   5.926   9.666  0.3311  0.6127 -0.4137
  428MOL0     H56496   5.960   6.048   9.650 -1.6236  3.6058  0.9819
  429MOL0     O56497   0.187   0.919   7.083  0.1214 -0.2727 -0.3567
  429MOL0     C56498   0.241   1.015   7.020 -0.1898 -0.9995 -0.7687
  429MOL0     O56499   0.179   1.118   6.948 -0.3082  0.0325  0.2754
  429MOL0     C56500   0.041   1.119   6.941 -0.0421  0.0448  0.3711
  429MOL0     C56501  -0.040   1.003   6.915 -0.1874 -0.4529 -1.1852
  429MOL0     C56502  -0.179   1.015   6.922  0.6040  0.2205 -0.5792
  429MOL0     C56503  -0.241   1.135   6.953 -1.1354 -0.7271 -0.1518
  429MOL0     O56504  -0.376   1.156   6.983 -0.2939 -0.0069  0.6201
  429MOL0     C56505  -0.462   1.044   6.978  0.5950  0.3624 -0.1532
  429MOL0     C56506  -0.603   1.104   6.991  0.5242  0.1517 -0.4482
  429MOL0     C56507  -0.697   0.984   6.976  0.6788  0.3283  0.6001
  429MOL0     C56508  -0.838   1.017   7.011 -0.0691 -0.1823  0.2665
  429MOL0     C56509  -0.926   0.887   6.992 -0.6597  1.1228 -0.2562
  429MOL0     C56510  -1.075   0.923   7.020 -0.2672 -0.3211 -0.1864
  429MOL0     C56511  -1.173   0.810   6.985  0.5951  0.0355  0.6429
  429MOL0     C56512  -1.309   0.847   7.045 -0.2763  0.2162 -0.0257
  429MOL0     N56513  -1.408   0.735   7.028  0.9423 -0.9006  0.5096
  429MOL0     C56514  -1.498   0.732   6.927 -0.1866  0.8762 -0.0547
  429MOL0     C56515  -1.571   0.620   6.958 -1.1102  0.3807 -0.7416
  429MOL0     C56516  -1.689   0.582   6.882  0.6809  0.1569 -0.2840
  429MOL0     C56517  -1.823   0.637   6.936  0.1547  0.9929  0.9381
  429MOL0     C56518  -1.854   0.575   7.072  0.0949  0.2817 -0.2285
  429MOL0     C56519  -2.000   0.608   7.119 -0.2196  0.2215  0.1477
  429MOL0     O56520  -2.111   0.549   7.042 -0.4971  0.0867 -0.4220
  429MOL0     C56521  -2.239   0.596   7.042 -0.7574  0.1371  0.6384
  429MOL0     C56522  -2.285   0.725   7.096  0.0090  0.5528 -0.0484
  429MOL0     C56523  -2.424   0.758   7.085 -0.9914 -0.6013 -0.2626
  429MOL0     C56524  -2.509   0.671   7.012 -0.8158 -0.0212  0.1683
  429MOL0     C56525  -2.654   0.707   7.005 -0.1029  0.7179 -0.3201
  429MOL0     O56526  -2.724   0.622   6.915 -0.0767  0.1182  1.1220
  429MOL0     C56527  -2.861   0.630   6.931  0.1697 -0.6504  0.0684
  429MOL0     C56528  -2.933   0.595   7.046 -0.4025  0.2787 -0.7315
  429MOL0     C56529  -3.062   0.624   7.066 -0.0448 -0.7836 -0.5109
  429MOL0     C56530  -3.139   0.673   6.960  0.2021  0.3535  0.6530
  429MOL0     O56531  -3.272   0.707   6.970  0.5342 -0.3740  0.0096
  429MOL0     C56532  -3.335   0.726   7.097  0.3631  0.3271 -0.3688
  429MOL0     C56533  -3.462   0.795   7.101  0.4648 -0.0539  0.1266
  429MOL0     C56534  -3.555   0.733   6.998  0.1862 -0.1049 -0.8812
  429MOL0     C56535  -3.687   0.803   6.993 -0.2846  0.6357  0.0558
  429MOL0     C56536  -3.783   0.797   7.121 -0.7523 -0.4155 -0.5340
  429MOL0     C56537  -3.833   0.658   7.147  0.5198  0.3123  0.5617
  429MOL0     C56538  -3.912   0.657   7.277  0.4916  0.4056  0.3013
  429MOL0     C56539  -3.916   0.512   7.324  0.2216 -0.3442 -0.9910
  429MOL0    Cl56540  -3.765   0.459   7.410 -0.0003 -0.4119 -0.1881
  429MOL0     C56541  -3.073   0.688   6.832 -0.0004 -0.4572  0.6901
  429MOL0     C56542  -2.935   0.673   6.825  0.4676 -0.6034 -0.7328
  429MOL0     O56543  -2.700   0.789   7.080  0.9654  0.8680 -0.2946
  429MOL0     C56544  -2.457   0.551   6.963 -0.3376 -0.3244  0.7913
  429MOL0     C56545  -2.325   0.517   6.971 -0.9470  0.3907 -0.3626
  429MOL0     N56546  -1.525   0.567   7.079  0.3561 -0.5236  0.4116
  429MOL0     N56547  -1.427   0.640   7.123  0.2347  0.1778 -0.3818
  429MOL0     C56548  -0.159   1.244   6.976 -0.6545 -0.3591 -0.1345
  429MOL0     C56549  -0.024   1.233   6.973  0.6199 -0.1387  0.6153
  429MOL0     C56550   0.384   1.013   7.010 -0.8189 -0.3567 -0.7038
  429MOL0     C56551   0.452   1.119   6.950  0.6196  0.4652  0.4615
  429MOL0     C56552   0.588   1.121   6.941 -0.1152 -0.4600  0.3140
  429MOL0     C56553   0.670   1.031   7.008  1.2136 -0.5484  0.5935
  429MOL0     O56554   0.802   1.054   6.995  0.3041  0.2019  0.4563
  429MOL0     C56555   0.878   0.975   7.088  0.7031 -0.1180 -0.7139
  429MOL0     C56556   1.023   1.008   7.094 -0.6851 -1.3448 -0.1851
  429MOL0     C56557   1.038   1.160   7.120  0.3232  0.4253 -1.0552
  429MOL0     C56558   1.177   1.211   7.118 -0.4387  1.3646 -0.2036
  429MOL0     C56559   1.240   1.209   7.248 -0.3655 -0.9682 -0.2601
  429MOL0     C56560   1.290   1.208   7.356 -0.3540 -0.4048 -0.2014
  429MOL0     C56561   0.595   0.922   7.068 -0.4909 -0.4813  0.8323
  429MOL0     C56562   0.462   0.906   7.068 -0.2883 -0.3820 -0.2029
  429MOL0     H56563   0.017   0.914   6.890  3.8411  1.4326  0.4684
  429MOL0     H56564  -0.238   0.929   6.892 -0.0586 -0.3909  2.2668
  429MOL0     H56565  -0.435   0.976   7.059  4.0674 -0.0523 -1.5084
  429MOL0     H56566  -0.462   0.986   6.886 -1.1733 -2.2641  1.3624
  429MOL0     H56567  -0.620   1.182   6.917 -1.1740  0.3629  0.1293
  429MOL0     H56568  -0.609   1.150   7.090  0.3510 -0.4555 -0.1703
  429MOL0     H56569  -0.670   0.901   7.042  0.1632 -1.1788 -1.0247
  429MOL0     H56570  -0.693   0.935   6.878  0.6434 -1.5704  1.5039
  429MOL0     H56571  -0.839   1.053   7.114 -0.7104  2.1867 -0.5035
  429MOL0     H56572  -0.872   1.101   6.950 -0.0906 -0.5947 -0.3028
  429MOL0     H56573  -0.888   0.799   7.046  0.9026  0.8884 -1.6732
  429MOL0     H56574  -0.911   0.861   6.887 -1.0278  2.3802 -0.6355
  429MOL0     H56575  -1.100   1.013   6.964 -0.1859 -0.0719  0.1772
  429MOL0     H56576  -1.078   0.943   7.128  0.1755 -1.0556 -0.0257
  429MOL0     H56577  -1.183   0.797   6.877 -0.5593  2.5942  0.3740
  429MOL0     H56578  -1.132   0.720   7.030  0.9957  0.8618  1.9890
  429MOL0     H56579  -1.348   0.944   7.014  0.7491  0.6551 -0.0097
  429MOL0     H56580  -1.297   0.857   7.153  0.8367  0.0595 -0.1205
  429MOL0     H56581  -1.508   0.799   6.842 -0.4644 -0.6988 -1.3151
  429MOL0     H56582  -1.706   0.474   6.881 -0.0562  0.2565  0.2208
  429MOL0     H56583  -1.666   0.618   6.782  1.3502 -0.8423 -0.5074
  429MOL0     H56584  -1.909   0.621   6.871 -0.3890 -1.8531  2.2367
  429MOL0     H56585  -1.815   0.744   6.955 -0.2562  0.8120  2.1731
  429MOL0     H56586  -1.846   0.467   7.058 -1.1993 -0.0106  1.1322
  429MOL0     H56587  -1.780   0.602   7.149  3.0735  0.5930 -2.9967
  429MOL0     H56588  -1.998   0.717   7.127  0.1573  0.1268  1.8343
  429MOL0     H56589  -2.020   0.567   7.219  0.0586  2.2737  1.1085
  429MOL0     H56590  -2.213   0.793   7.141  2.0728 -0.4203 -1.7302
  429MOL0     H56591  -2.464   0.837   7.147  3.2041 -0.2449  2.4226
  429MOL0     H56592  -2.883   0.547   7.129 -0.1611  1.6434 -0.0539
  429MOL0     H56593  -3.099   0.593   7.163  1.3182 -0.4513  0.1272
  429MOL0     H56594  -3.277   0.788   7.166 -0.6438 -0.6197  1.3961
  429MOL0     H56595  -3.350   0.633   7.153 -0.0768  3.1307  4.7340
  429MOL0     H56596  -3.439   0.901   7.086 -1.0593  0.4217  1.0232
  429MOL0     H56597  -3.514   0.777   7.195 -3.2682  1.3406 -1.4915
  429MOL0     H56598  -3.560   0.626   7.020  0.1482 -0.7811 -3.7214
  429MOL0     H56599  -3.520   0.736   6.894  1.4257 -2.1129 -0.5803
  429MOL0     H56600  -3.651   0.905   6.980  2.1850 -0.1328  0.3014
  429MOL0     H56601  -3.740   0.764   6.905 -0.6514  0.4476  0.3592
  429MOL0     H56602  -3.870   0.863   7.112 -0.0365  0.9980  1.8609
  429MOL0     H56603  -3.728   0.832   7.210 -2.5891 -0.8282  0.8199
  429MOL0     H56604  -3.752   0.584   7.140  0.0785 -0.0811 -0.5961
  429MOL0     H56605  -3.893   0.624   7.062  0.3644  0.2332  0.7014
  429MOL0     H56606  -3.864   0.727   7.346  2.3304  2.6948 -3.0646
  429MOL0     H56607  -4.017   0.687   7.264 -0.6203 -2.7845  1.0836
  429MOL0     H56608  -3.936   0.434   7.250  0.1105 -1.0114 -0.2665
  429MOL0     H56609  -4.001   0.513   7.393 -0.5621 -0.5617 -1.9359
  429MOL0     H56610  -3.129   0.737   6.752 -0.3548 -1.6397  0.1930
  429MOL0     H56611  -2.892   0.700   6.729  2.2458 -1.4853 -0.2279
  429MOL0     H56612  -2.509   0.484   6.894  1.8154  1.0700 -2.3776
  429MOL0     H56613  -2.289   0.425   6.927 -2.9603 -0.2478 -0.7507
  429MOL0     H56614  -0.194   1.342   7.008  0.5303 -0.0837  0.3652
  429MOL0     H56615   0.037   1.319   6.999  0.6703 -0.4523  1.5601
  429MOL0     H56616   0.403   1.209   6.915  1.0767  0.7447  0.5424
  429MOL0     H56617   0.628   1.214   6.902 -3.1629  0.5199 -0.7652
  429MOL0     H56618   0.865   0.869   7.065 -1.4923  0.1105 -0.6883
  429MOL0     H56619   0.838   0.989   7.189  2.7806  0.3810  0.0915
  429MOL0     H56620   1.082   0.952   7.167  2.6981  2.1914  0.0989
  429MOL0     H56621   1.074   0.986   6.999  0.7829  1.3755 -0.1434
  429MOL0     H56622   0.995   1.163   7.220  0.8683 -1.3858 -0.7175
  429MOL0     H56623   0.978   1.215   7.048 -2.6048  0.2911  1.1282
  429MOL0     H56624   1.236   1.147   7.051  1.9784  0.7768  2.2694
  429MOL0     H56625   1.184   1.311   7.076 -0.1743  1.2027 -0.5566
  429MOL0     H56626   1.332   1.203   7.454  2.3578  0.6828 -1.2128
  429MOL0     H56627   0.658   0.841   7.104  2.5109  1.3777  0.1257
  429MOL0     H56628   0.433   0.807   7.102 -2.6989  0.1615 -0.5137
  430MOL0     O56629   3.214   1.361   5.466 -0.7579  0.7247  0.3412
  430MOL0     C56630   3.227   1.312   5.573 -0.5896 -0.5054 -0.4810
  430MOL0     O56631   3.142   1.223   5.633 -0.3886 -0.5208  0.3597
  430MOL0     C56632   3.023   1.188   5.579  0.3306 -0.9904  0.0670
  430MOL0     C56633   3.009   1.071   5.505  0.0957 -0.3232  0.4795
  430MOL0     C56634   2.884   1.046   5.439  0.1098 -0.2200  0.0867
  430MOL0     C56635   2.776   1.136   5.453  0.4730  0.2181 -0.3543
  430MOL0     O56636   2.660   1.128   5.383  0.0075 -0.1921  0.1630
  430MOL0     C56637   2.662   1.078   5.246  0.2833  0.0862 -0.2482
  430MOL0     C56638   2.523   1.103   5.200 -0.7388  0.1429 -0.7797
  430MOL0     C56639   2.418   1.027   5.279 -0.5610 -0.0506 -0.0727
  430MOL0     C56640   2.286   1.074   5.228 -0.1948  0.0529 -0.3707
  430MOL0     C56641   2.184   0.980   5.288  0.5301  0.2315 -0.0905
  430MOL0     C56642   2.053   1.030   5.240  0.3832  0.0593 -1.1251
  430MOL0     C56643   1.938   0.924   5.273 -0.3683  0.0780  0.4699
  430MOL0     C56644   1.942   0.781   5.233  0.2791 -0.1708 -0.2412
  430MOL0     N56645   1.815   0.711   5.215 -0.4255 -0.1220 -0.1982
  430MOL0     C56646   1.698   0.707   5.296 -0.3356 -0.6029 -0.1416
  430MOL0     C56647   1.622   0.597   5.254 -0.3113 -0.7145 -0.6969
  430MOL0     C56648   1.494   0.545   5.311  0.3295  0.2244  0.3553
  430MOL0     C56649   1.383   0.550   5.202  0.6077  0.0456 -0.4813
  430MOL0     C56650   1.282   0.431   5.205  0.5226 -0.1108  0.5973
  430MOL0     C56651   1.202   0.417   5.327 -0.7470 -0.7232  0.4049
  430MOL0     O56652   1.119   0.525   5.337  0.5516  0.4178  0.2653
  430MOL0     C56653   0.999   0.501   5.395 -0.8464  0.3676  0.0562
  430MOL0     C56654   0.885   0.575   5.364 -0.3403  0.9346 -0.0646
  430MOL0     C56655   0.760   0.548   5.413  1.1027  0.0230 -0.2413
  430MOL0     C56656   0.733   0.445   5.506 -0.8121 -0.4621 -0.0995
  430MOL0     C56657   0.599   0.424   5.559  0.4081  0.3003  0.5610
  430MOL0     O56658   0.579   0.292   5.603 -0.3182 -0.4709 -0.0155
  430MOL0     C56659   0.474   0.276   5.685  0.6605 -0.3988  0.3973
  430MOL0     C56660   0.466   0.324   5.819  0.0210  0.4317  0.1224
  430MOL0     C56661   0.350   0.317   5.899  0.5327  0.2607 -0.0687
  430MOL0     C56662   0.229   0.254   5.849  0.2553 -0.0895 -0.2795
  430MOL0     O56663   0.129   0.235   5.949 -0.0029  0.1232  0.1517
  430MOL0     C56664  -0.003   0.256   5.900 -0.2506  0.0242  0.1647
  430MOL0     C56665  -0.094   0.218   6.019  0.5167  0.1280  1.1629
  430MOL0     C56666  -0.237   0.268   5.995  0.5986  0.0905  0.2621
  430MOL0     C56667  -0.308   0.276   6.136  0.6006  0.5686 -0.3821
  430MOL0     C56668  -0.463   0.292   6.108 -0.2527 -0.5791 -0.0389
  430MOL0     C56669  -0.543   0.292   6.241  0.6635  0.6330 -0.1797
  430MOL0     C56670  -0.695   0.309   6.220 -0.1434  0.0576 -0.1438
  430MOL0     C56671  -0.762   0.269   6.344  1.0580  0.7126 -0.7118
  430MOL0    Cl56672  -0.944   0.290   6.330 -0.1756  0.1432  0.1515
  430MOL0     C56673   0.228   0.209   5.717  0.2452 -0.1694 -0.0246
  430MOL0     C56674   0.349   0.216   5.641  0.1430  0.0262  0.0673
  430MOL0     O56675   0.513   0.512   5.554 -0.0010  0.3182  0.2240
  430MOL0     C56676   0.858   0.373   5.542  0.7427 -0.9904  0.8150
  430MOL0     C56677   0.986   0.397   5.490 -0.3566 -0.1415  0.1394
  430MOL0     N56678   1.692   0.542   5.153  0.2086 -0.1311  0.2538
  430MOL0     N56679   1.802   0.608   5.130  0.1524  0.3493  0.2872
  430MOL0     C56680   2.789   1.244   5.533  0.0834 -0.1566 -0.5230
  430MOL0     C56681   2.918   1.275   5.583 -0.2291  0.5185  0.2955
  430MOL0     C56682   3.354   1.347   5.639  0.3225 -0.0826  0.7520
  430MOL0     C56683   3.443   1.432   5.587 -0.4991  0.6471  0.8013
  430MOL0     C56684   3.567   1.460   5.654 -0.1509  0.5798  0.3157
  430MOL0     C56685   3.586   1.408   5.777 -1.3327 -0.1684  0.5286
  430MOL0     O56686   3.700   1.443   5.851  0.3742  0.4172 -0.0763
  430MOL0     C56687   3.799   1.333   5.847 -0.2705 -0.7524 -0.5748
  430MOL0     C56688   3.847   1.315   5.994  0.3460  0.3293 -0.4323
  430MOL0     C56689   3.920   1.438   6.053  0.6015 -0.1784 -0.7112
  430MOL0     C56690   4.029   1.488   5.956 -0.1368 -0.8433  0.7269
  430MOL0     C56691   4.131   1.381   5.937 -0.2347  0.6015  1.1151
  430MOL0     C56692   4.207   1.291   5.924 -0.1631  0.2018  0.7922
  430MOL0     C56693   3.492   1.326   5.828  0.3416  0.1028 -0.3837
  430MOL0     C56694   3.383   1.283   5.755 -0.5196 -0.1938 -0.8653
  430MOL0     H56695   3.096   1.008   5.490 -0.1167 -0.2462 -1.4250
  430MOL0     H56696   2.887   0.953   5.383  1.5789  0.0648 -0.3680
  430MOL0     H56697   2.689   0.972   5.240 -1.2051 -0.3070 -0.3384
  430MOL0     H56698   2.738   1.131   5.187  2.0334 -2.4378 -0.4305
  430MOL0     H56699   2.518   1.074   5.094 -1.9863 -1.4357 -0.3310
  430MOL0     H56700   2.512   1.212   5.200 -1.0320  0.1161 -0.7717
  430MOL0     H56701   2.439   1.025   5.386  0.2365  0.7971 -0.2063
  430MOL0     H56702   2.423   0.921   5.251  1.4693  0.0438 -0.2082
  430MOL0     H56703   2.275   1.177   5.264  0.3451  0.5983 -1.7138
  430MOL0     H56704   2.288   1.071   5.119  1.8753 -1.0254 -0.3665
  430MOL0     H56705   2.194   0.986   5.397  2.4557 -0.0903 -0.2124
  430MOL0     H56706   2.196   0.875   5.261  1.5323  0.5297 -0.8798
  430MOL0     H56707   2.055   1.044   5.131 -0.1436  0.3920 -1.0949
  430MOL0     H56708   2.034   1.130   5.281  1.4202 -0.2193  0.0950
  430MOL0     H56709   1.930   0.922   5.382  1.4044 -1.2985  0.6234
  430MOL0     H56710   1.850   0.976   5.234 -0.3977  0.4340  1.0047
  430MOL0     H56711   2.004   0.726   5.306 -2.7274 -1.6732  1.3610
  430MOL0     H56712   1.993   0.790   5.137  1.2759  0.3668  0.3093
  430MOL0     H56713   1.678   0.773   5.380 -0.2387 -3.6951  2.4640
  430MOL0     H56714   1.473   0.579   5.413  0.9593 -0.8337  0.8533
  430MOL0     H56715   1.521   0.440   5.317  1.2989  0.1856 -2.8549
  430MOL0     H56716   1.430   0.549   5.103 -0.7316  1.2899 -1.1779
  430MOL0     H56717   1.326   0.644   5.202 -1.8275 -1.3449 -1.3339
  430MOL0     H56718   1.218   0.435   5.116  3.0881 -0.5514 -1.3954
  430MOL0     H56719   1.337   0.336   5.198  1.2019 -0.0421  3.5610
  430MOL0     H56720   1.265   0.399   5.415  1.0185  0.2349 -0.6009
  430MOL0     H56721   1.147   0.325   5.306 -0.6097 -1.2581  2.2363
  430MOL0     H56722   0.890   0.644   5.281  0.8022  3.1249  1.7211
  430MOL0     H56723   0.678   0.603   5.368 -0.6978 -2.2692  0.0132
  430MOL0     H56724   0.552   0.377   5.859  0.9646 -1.2183  0.3693
  430MOL0     H56725   0.345   0.359   5.999  0.9033  0.5058 -0.1520
  430MOL0     H56726  -0.028   0.192   5.814 -0.3769  1.2837 -0.7741
  430MOL0     H56727  -0.016   0.360   5.869 -1.4867  0.9606  3.4296
  430MOL0     H56728  -0.048   0.267   6.106  0.7558 -0.0731  1.1512
  430MOL0     H56729  -0.091   0.110   6.031  0.6027  0.2168  1.9850
  430MOL0     H56730  -0.294   0.201   5.930 -2.1296  0.9425  1.6248
  430MOL0     H56731  -0.239   0.368   5.950 -1.4931  1.0319  2.2423
  430MOL0     H56732  -0.284   0.184   6.191 -0.8055  1.0046  1.0300
  430MOL0     H56733  -0.280   0.362   6.197  3.0695  1.0532 -2.0414
  430MOL0     H56734  -0.498   0.208   6.047 -2.1099  1.1026 -1.4305
  430MOL0     H56735  -0.481   0.385   6.053  2.2316 -0.6602 -1.1497
  430MOL0     H56736  -0.510   0.364   6.316 -0.4317  0.8591  0.1032
  430MOL0     H56737  -0.527   0.196   6.291  2.0772  1.8388  1.8119
  430MOL0     H56738  -0.724   0.414   6.208 -0.2378  0.3073  2.0232
  430MOL0     H56739  -0.733   0.253   6.134 -0.0110 -1.4810  0.7670
  430MOL0     H56740  -0.728   0.341   6.419 -2.5958  0.3332  1.5527
  430MOL0     H56741  -0.738   0.169   6.380 -1.5055  0.3688  0.2916
  430MOL0     H56742   0.151   0.148   5.671  2.1063 -1.3804 -1.6698
  430MOL0     H56743   0.344   0.163   5.546 -0.1475 -1.0998  0.6901
  430MOL0     H56744   0.847   0.287   5.608 -0.0354 -0.6705  1.1149
  430MOL0     H56745   1.075   0.343   5.518 -0.8344 -1.4033 -0.7053
  430MOL0     H56746   2.714   1.322   5.526  2.3469  2.2422 -0.1769
  430MOL0     H56747   2.936   1.373   5.625  2.3674  1.6667 -3.0910
  430MOL0     H56748   3.418   1.474   5.491  0.5919 -0.9373 -0.2274
  430MOL0     H56749   3.636   1.536   5.618  0.4198 -1.3401 -3.0323
  430MOL0     H56750   3.877   1.336   5.771 -1.0903  3.6097 -1.5654
  430MOL0     H56751   3.747   1.241   5.820 -1.2389 -0.2453 -0.5081
  430MOL0     H56752   3.755   1.298   6.050  0.6162 -0.1870 -0.1429
  430MOL0     H56753   3.903   1.222   6.003 -1.5262 -0.8903 -0.8510
  430MOL0     H56754   3.969   1.406   6.145 -0.0552  1.7255  0.3396
  430MOL0     H56755   3.840   1.508   6.078  1.4406  1.6181 -2.7397
  430MOL0     H56756   3.986   1.509   5.858 -2.3393 -0.3686  1.7306
  430MOL0     H56757   4.073   1.579   5.999 -0.4193 -1.2400  1.8988
  430MOL0     H56758   4.284   1.218   5.907  0.7851  1.3656 -0.1323
  430MOL0     H56759   3.509   1.286   5.928  2.4955  2.5778  0.3490
  430MOL0     H56760   3.325   1.216   5.818 -0.5811  2.4162  2.1117
  431MOL0     O56761   3.712   4.921   8.302  0.0038 -0.1405  0.1333
  431MOL0     C56762   3.721   4.997   8.201 -0.0174 -0.6070 -0.1441
  431MOL0     O56763   3.616   5.044   8.129  0.1124 -0.2268 -0.4943
  431MOL0     C56764   3.492   5.033   8.183 -0.7223  0.1818 -0.9890
  431MOL0     C56765   3.430   5.144   8.248 -0.0384 -0.5219  0.7441
  431MOL0     C56766   3.308   5.135   8.314 -0.0267 -0.0898  0.8929
  431MOL0     C56767   3.241   5.005   8.315 -0.6502 -0.7824 -0.4155
  431MOL0     O56768   3.124   4.982   8.377 -0.2444  0.1639 -0.0667
  431MOL0     C56769   3.027   5.088   8.401  1.0264  0.4038  0.6639
  431MOL0     C56770   2.880   5.049   8.422  0.2199  0.4279  0.1629
  431MOL0     C56771   2.797   5.180   8.430 -0.6725  0.7004 -0.3352
  431MOL0     C56772   2.645   5.159   8.467  0.0906 -0.2680 -0.6393
  431MOL0     C56773   2.628   5.127   8.613  0.5558 -0.2532  0.6008
  431MOL0     C56774   2.489   5.151   8.669  0.3864 -0.5990 -0.8069
  431MOL0     C56775   2.378   5.087   8.591  0.3720  0.5546  0.4198
  431MOL0     C56776   2.242   5.152   8.623  1.0707  0.0677  0.1550
  431MOL0     N56777   2.140   5.055   8.666 -0.6533 -0.2562 -1.0326
  431MOL0     C56778   2.018   5.031   8.599  0.2852  0.1662 -0.3969
  431MOL0     C56779   1.970   4.917   8.662  0.0214 -0.6585 -0.3412
  431MOL0     C56780   1.849   4.833   8.617 -0.4345  0.7651 -0.0490
  431MOL0     C56781   1.715   4.863   8.682  0.1680 -0.3443 -0.3321
  431MOL0     C56782   1.729   4.879   8.834 -0.1597  0.0320 -0.2264
  431MOL0     C56783   1.600   4.920   8.895  0.1557  0.0523 -0.7417
  431MOL0     O56784   1.484   4.849   8.839 -0.3327 -0.4534  0.2183
  431MOL0     C56785   1.367   4.907   8.879  0.8243 -0.0669 -0.8259
  431MOL0     C56786   1.267   4.891   8.791  0.0443 -0.4467  0.2931
  431MOL0     C56787   1.131   4.918   8.816  0.2150  0.4884 -0.6431
  431MOL0     C56788   1.090   4.982   8.939 -0.0293  0.4576  0.5892
  431MOL0     C56789   0.954   5.019   8.961 -0.2060 -0.0793 -0.8081
  431MOL0     O56790   0.932   5.091   9.077 -0.5632 -0.7001 -0.1684
  431MOL0     C56791   0.802   5.110   9.108  0.9932 -0.0056 -0.0330
  431MOL0     C56792   0.751   5.234   9.072  0.3941 -0.3662 -0.8311
  431MOL0     C56793   0.619   5.269   9.107  0.3789  0.8869  0.2652
  431MOL0     C56794   0.541   5.181   9.189 -0.8994 -0.1165 -0.4206
  431MOL0     O56795   0.417   5.202   9.235 -0.1841  0.2716  0.0506
  431MOL0     C56796   0.346   5.315   9.177  0.1281 -0.7398 -0.2885
  431MOL0     C56797   0.207   5.323   9.238  0.3247  0.5844 -0.3882
  431MOL0     C56798   0.146   5.457   9.194 -0.0007 -0.2922  0.5351
  431MOL0     C56799  -0.001   5.476   9.242  0.1591 -0.0539  0.1614
  431MOL0     C56800  -0.064   5.608   9.199 -0.4738  0.6171 -0.2153
  431MOL0     C56801  -0.133   5.610   9.060  0.2306 -0.1752  0.2213
  431MOL0     C56802  -0.053   5.634   8.931 -0.1439  0.0399  1.0762
  431MOL0     C56803  -0.145   5.636   8.808  0.0018 -0.4860  0.8745
  431MOL0    Cl56804  -0.180   5.808   8.780  0.5335 -0.1498  0.5545
  431MOL0     C56805   0.592   5.054   9.233 -0.1367  0.5894 -0.0818
  431MOL0     C56806   0.728   5.030   9.197  0.9446  0.1050  0.2659
  431MOL0     O56807   0.869   5.003   8.873 -0.1944 -0.4764 -0.2256
  431MOL0     C56808   1.199   5.013   9.030 -0.0383 -0.6270  0.1043
  431MOL0     C56809   1.332   4.971   9.004 -0.0571 -1.1524 -0.4321
  431MOL0     N56810   2.052   4.887   8.767 -0.4018  0.1103  0.1096
  431MOL0     N56811   2.149   4.976   8.770  0.4461  0.3694  0.1343
  431MOL0     C56812   3.297   4.899   8.243 -0.5264  0.0472 -0.2033
  431MOL0     C56813   3.428   4.913   8.177  0.2275 -0.9127  0.5315
  431MOL0     C56814   3.847   5.028   8.150 -0.1889 -0.7934 -0.2988
  431MOL0     C56815   3.874   5.133   8.058  1.1859  0.4539 -0.1847
  431MOL0     C56816   3.995   5.142   7.999  0.6325  0.0865 -0.1245
  431MOL0     C56817   4.097   5.056   8.033 -0.2891 -0.0605  0.6163
  431MOL0     O56818   4.214   5.058   7.965  1.1849 -0.1453  0.1100
  431MOL0     C56819   4.223   4.959   7.860  0.2252  0.0283 -0.5392
  431MOL0     C56820   4.330   4.989   7.757  0.0975 -0.1453  0.1758
  431MOL0     C56821   4.460   4.962   7.830  0.5353  0.4678  1.6591
  431MOL0     C56822   4.585   4.997   7.748  1.0765  0.1168 -1.1866
  431MOL0     C56823   4.702   4.922   7.794  0.3375 -0.6961 -0.0039
  431MOL0     C56824   4.794   4.864   7.850  0.5064  0.0643  0.3641
  431MOL0     C56825   4.081   4.960   8.127 -0.2850  0.4077  0.2185
  431MOL0     C56826   3.955   4.946   8.194 -0.4366 -0.1695  0.4695
  431MOL0     H56827   3.481   5.239   8.259  0.1715 -0.5138 -0.2282
  431MOL0     H56828   3.264   5.215   8.372 -4.0795 -1.0230 -0.5275
  431MOL0     H56829   3.029   5.152   8.312 -0.5386  0.2552  0.4811
  431MOL0     H56830   3.056   5.144   8.490  0.6673 -0.4425  1.3334
  431MOL0     H56831   2.870   4.985   8.510  1.4224 -1.7124 -1.1582
  431MOL0     H56832   2.836   4.994   8.338  1.9959 -0.5164 -0.1927
  431MOL0     H56833   2.804   5.229   8.332 -1.1489  1.0283 -0.2120
  431MOL0     H56834   2.837   5.248   8.506  0.2480 -1.4027  1.1595
  431MOL0     H56835   2.587   5.248   8.440 -2.8206 -1.8008  0.1023
  431MOL0     H56836   2.598   5.081   8.406 -1.5967 -0.6277  1.0343
  431MOL0     H56837   2.703   5.191   8.660  1.2540  1.2319 -2.3067
  431MOL0     H56838   2.662   5.028   8.644  1.8253  0.6637  2.3240
  431MOL0     H56839   2.472   5.258   8.659 -1.4556 -1.0365 -3.1968
  431MOL0     H56840   2.496   5.122   8.774  1.8895 -0.5569 -0.8700
  431MOL0     H56841   2.380   5.091   8.482  2.2242 -0.0540  0.3932
  431MOL0     H56842   2.382   4.978   8.607 -0.7725 -0.1216 -3.0380
  431MOL0     H56843   2.212   5.196   8.528 -0.2272  1.0748  1.0003
  431MOL0     H56844   2.250   5.231   8.698  1.9069 -0.9684  1.1949
  431MOL0     H56845   1.990   5.084   8.508 -2.9923  0.4341  0.6234
  431MOL0     H56846   1.876   4.734   8.654  0.3396  1.2499  0.7264
  431MOL0     H56847   1.827   4.841   8.510 -1.4428  2.3023  0.2423
  431MOL0     H56848   1.639   4.787   8.665 -1.7033  1.4393 -0.3910
  431MOL0     H56849   1.676   4.953   8.632 -1.2428 -0.9484 -0.3752
  431MOL0     H56850   1.768   4.786   8.876  0.4615  0.5237  0.3006
  431MOL0     H56851   1.802   4.956   8.860 -1.9273  1.8415 -0.3856
  431MOL0     H56852   1.585   5.027   8.883 -1.0002 -0.0428 -0.3370
  431MOL0     H56853   1.604   4.902   9.003 -0.9098  0.4329 -0.6262
  431MOL0     H56854   1.289   4.850   8.693 -0.4882 -1.2017  0.4811
  431MOL0     H56855   1.057   4.893   8.741  0.0212  2.2415 -1.0794
  431MOL0     H56856   0.814   5.299   9.012  0.5304  0.1764 -0.0994
  431MOL0     H56857   0.574   5.361   9.070  0.0145  0.2511 -0.8971
  431MOL0     H56858   0.340   5.319   9.068 -1.0041  0.7137 -0.1913
  431MOL0     H56859   0.401   5.406   9.201  1.9859 -1.9632  0.3362
  431MOL0     H56860   0.211   5.319   9.348 -2.8166  1.9488 -0.1215
  431MOL0     H56861   0.151   5.238   9.197  0.3962  1.0042 -1.3722
  431MOL0     H56862   0.160   5.479   9.088  0.7132 -0.4918  0.5854
  431MOL0     H56863   0.205   5.530   9.251 -0.1745 -1.0423  1.7139
  431MOL0     H56864  -0.062   5.390   9.215  0.6006  0.0346 -1.2398
  431MOL0     H56865   0.002   5.485   9.351 -1.5023  2.5934  0.0667
  431MOL0     H56866   0.014   5.685   9.200  0.0614  0.0819 -0.1700
  431MOL0     H56867  -0.135   5.621   9.281 -0.4359  0.1991 -0.1104
  431MOL0     H56868  -0.203   5.694   9.074  3.0505  2.5022 -0.6707
  431MOL0     H56869  -0.183   5.513   9.053  1.7519 -0.9516 -0.2390
  431MOL0     H56870   0.012   5.722   8.937  1.2695 -0.8022 -0.7854
  431MOL0     H56871   0.011   5.546   8.924 -1.0736 -0.7984  2.5819
  431MOL0     H56872  -0.238   5.579   8.826 -1.1360  1.6025  1.9296
  431MOL0     H56873  -0.094   5.602   8.717 -1.0340 -0.5732  0.3004
  431MOL0     H56874   0.545   4.999   9.313 -3.3921  1.6259 -1.1246
  431MOL0     H56875   0.772   4.938   9.234  0.8544  0.5484  1.5252
  431MOL0     H56876   1.187   5.078   9.115 -3.5987  0.0449 -0.7628
  431MOL0     H56877   1.405   4.988   9.083 -1.1531 -1.6935  0.7304
  431MOL0     H56878   3.252   4.801   8.236 -2.6132  1.0681 -2.9948
  431MOL0     H56879   3.469   4.828   8.124  1.8700  1.0641 -1.5420
  431MOL0     H56880   3.798   5.207   8.034 -0.0528 -1.1599 -1.4722
  431MOL0     H56881   4.003   5.211   7.916  1.7237  0.0616 -0.0435
  431MOL0     H56882   4.125   4.959   7.811  0.3874 -1.6754 -0.9146
  431MOL0     H56883   4.243   4.869   7.919  2.8875  2.5828  2.8906
  431MOL0     H56884   4.338   4.914   7.677  2.6480 -0.1338  0.3410
  431MOL0     H56885   4.318   5.091   7.720 -0.0910  0.4513  1.8267
  431MOL0     H56886   4.476   4.860   7.867  2.7417  0.2172  0.2489
  431MOL0     H56887   4.456   5.032   7.914 -0.7490  1.3306  0.9066
  431MOL0     H56888   4.566   4.964   7.646 -0.2139 -0.2874 -0.8400
  431MOL0     H56889   4.599   5.106   7.749 -0.0276  0.2731 -0.1325
  431MOL0     H56890   4.868   4.813   7.907 -0.3178 -0.5277  0.9284
  431MOL0     H56891   4.159   4.887   8.145 -0.1511  1.0541  2.7260
  431MOL0     H56892   3.946   4.874   8.274 -1.4027 -2.0704 -1.2502
  432MOL0     O56893  10.507   5.412   9.768  0.5333  0.3800  0.2839
  432MOL0     C56894  10.568   5.396   9.662  0.4197  0.7973 -0.8588
  432MOL0     O56895  10.521   5.320   9.561  0.0915 -0.5136 -0.3819
  432MOL0     C56896  10.405   5.249   9.562 -1.0048 -0.2719  0.0346
  432MOL0     C56897  10.394   5.139   9.643  1.1739 -0.5534 -0.0459
  432MOL0     C56898  10.299   5.044   9.613 -0.1956  0.3709 -0.9268
  432MOL0     C56899  10.197   5.073   9.526 -0.5822  0.5301 -0.3210
  432MOL0     O56900  10.120   4.964   9.485 -0.9011  0.0504  0.5267
  432MOL0     C56901  10.126   4.951   9.342  0.4284  0.6992 -0.8622
  432MOL0     C56902  10.128   4.804   9.296 -0.2493 -0.4008 -1.1583
  432MOL0     C56903   9.997   4.738   9.313  0.4867 -0.3129  0.2348
  432MOL0     C56904  10.013   4.592   9.270  0.1726  0.6628  0.3491
  432MOL0     C56905   9.887   4.507   9.307  0.0704 -0.2343 -0.2239
  432MOL0     C56906   9.881   4.367   9.245  0.3366 -0.4191 -0.3107
  432MOL0     C56907   9.888   4.370   9.088  0.4695 -0.2453  0.3191
  432MOL0     C56908   9.872   4.232   9.029  0.2866 -0.3421  0.0516
  432MOL0     N56909   9.918   4.222   8.886  0.4361 -0.1327 -0.7007
  432MOL0     C56910  10.045   4.192   8.840 -0.2225  0.1763 -0.1347
  432MOL0     C56911  10.025   4.149   8.709 -0.0224  1.4986  0.5179
  432MOL0     C56912  10.123   4.118   8.597  0.4780 -0.4339  0.3395
  432MOL0     C56913  10.144   3.974   8.577 -0.7329  0.2727  0.1426
  432MOL0     C56914  10.215   3.900   8.689 -0.3824 -0.1155 -0.8575
  432MOL0     C56915  10.366   3.912   8.663  0.5776 -0.1419  0.0967
  432MOL0     O56916  10.422   3.839   8.768 -0.2310 -0.0466 -0.2678
  432MOL0     C56917  10.549   3.797   8.757 -0.9246  0.2098  0.2233
  432MOL0     C56918  10.597   3.736   8.874  0.6145 -0.1733 -0.8118
  432MOL0     C56919  10.738   3.700   8.880  0.4003  0.2517 -0.0145
  432MOL0     C56920  10.830   3.726   8.775  0.1813 -0.6963 -0.4829
  432MOL0     C56921  10.974   3.700   8.782  0.3850 -1.1167 -0.1615
  432MOL0     O56922  11.041   3.729   8.899  0.3182  0.1057 -0.2905
  432MOL0     C56923  11.178   3.712   8.896 -0.3321 -0.4757  1.2498
  432MOL0     C56924  11.256   3.817   8.934  0.2706 -0.3776 -0.4303
  432MOL0     C56925  11.398   3.805   8.934  0.2009 -0.0156  0.6530
  432MOL0     C56926  11.460   3.687   8.884  0.1464  0.5436 -0.7590
  432MOL0     O56927  11.596   3.656   8.853 -0.0444  0.6065  0.4892
  432MOL0     C56928  11.692   3.760   8.867 -0.0878 -0.1933  0.0477
  432MOL0     C56929  11.827   3.703   8.812  0.7755  0.7418 -0.4734
  432MOL0     C56930  11.940   3.802   8.809  0.5326 -0.2829 -0.0789
  432MOL0     C56931  12.066   3.728   8.765  0.0789  0.1415  0.2004
  432MOL0     C56932  12.174   3.823   8.723  0.4675  1.3691 -0.0977
  432MOL0     C56933  12.307   3.748   8.690 -0.0169 -0.2155 -0.6198
  432MOL0     C56934  12.415   3.851   8.655 -0.4443 -0.7679  0.4454
  432MOL0     C56935  12.503   3.808   8.543  0.4299  0.5158 -0.8320
  432MOL0    Cl56936  12.577   3.659   8.579  0.3172 -0.3250  0.0286
  432MOL0     C56937  11.377   3.577   8.847  0.4825 -0.8205  0.3138
  432MOL0     C56938  11.234   3.590   8.859  0.2326 -0.1398 -0.4058
  432MOL0     O56939  11.023   3.643   8.683 -0.0570  0.1448  0.0303
  432MOL0     C56940  10.778   3.788   8.664  0.3115 -0.0691  0.1941
  432MOL0     C56941  10.641   3.818   8.648 -1.1196  0.1156 -0.2464
  432MOL0     N56942   9.891   4.152   8.686 -0.0897  0.0854  0.3459
  432MOL0     N56943   9.828   4.205   8.785 -0.4889 -0.6477 -0.7508
  432MOL0     C56944  10.193   5.201   9.464  0.0913  0.2360 -0.0601
  432MOL0     C56945  10.305   5.283   9.478  0.3461 -0.1258  0.0174
  432MOL0     C56946  10.692   5.468   9.645  0.6894  0.2673 -0.0027
  432MOL0     C56947  10.754   5.474   9.521  0.4371 -0.1525 -0.1614
  432MOL0     C56948  10.876   5.536   9.506  0.5022 -0.3735 -0.6370
  432MOL0     C56949  10.942   5.595   9.617  0.1168  0.3048  0.7636
  432MOL0     O56950  11.056   5.663   9.591 -0.0266  0.0771 -0.2977
  432MOL0     C56951  11.147   5.674   9.703 -0.1455 -0.4183 -0.1678
  432MOL0     C56952  11.283   5.742   9.659 -0.3346  0.4008  0.4788
  432MOL0     C56953  11.376   5.639   9.585 -0.7653  0.3761 -0.4797
  432MOL0     C56954  11.510   5.720   9.568 -0.5753 -0.1354  0.4103
  432MOL0     C56955  11.596   5.629   9.490  0.7078 -0.2797  0.7598
  432MOL0     C56956  11.671   5.552   9.435  0.1260 -1.2302 -0.5562
  432MOL0     C56957  10.873   5.582   9.738  0.3581  0.1343 -0.3180
  432MOL0     C56958  10.751   5.522   9.758 -0.3787 -0.2845  0.8158
  432MOL0     H56959  10.468   5.121   9.721  1.5802  1.3712  0.0702
  432MOL0     H56960  10.288   4.945   9.654 -0.3153 -0.0102 -1.8388
  432MOL0     H56961  10.215   4.999   9.301  3.0608 -2.5403  0.5856
  432MOL0     H56962  10.038   5.008   9.310 -1.5195 -0.0903  2.6008
  432MOL0     H56963  10.218   4.759   9.339 -0.3271  0.8140  0.3611
  432MOL0     H56964  10.151   4.809   9.189  1.2513 -1.6943 -0.9429
  432MOL0     H56965   9.920   4.789   9.255  1.0458  2.2520  1.6168
  432MOL0     H56966   9.969   4.731   9.419 -0.8807 -2.0554 -0.1863
  432MOL0     H56967  10.033   4.599   9.163  1.5151 -0.5758  0.4849
  432MOL0     H56968  10.087   4.539   9.330 -2.4829 -3.5723  0.3409
  432MOL0     H56969   9.796   4.560   9.276 -0.1202 -1.4283 -1.8554
  432MOL0     H56970   9.888   4.494   9.416 -1.5287 -0.7102 -0.2300
  432MOL0     H56971   9.795   4.312   9.286  1.6621 -1.6045  0.9796
  432MOL0     H56972   9.971   4.313   9.273  0.8494  1.1234  1.1654
  432MOL0     H56973   9.805   4.435   9.058 -1.2881 -2.4653  0.0949
  432MOL0     H56974   9.985   4.412   9.058  0.2650  1.0765  1.3949
  432MOL0     H56975   9.765   4.212   9.032  0.0518  0.8020 -0.4060
  432MOL0     H56976   9.923   4.147   9.076  0.0010 -0.4325  0.2004
  432MOL0     H56977  10.140   4.203   8.890  0.9702 -0.0124 -2.2376
  432MOL0     H56978  10.213   4.178   8.611  1.9210 -2.8813  2.3730
  432MOL0     H56979  10.090   4.148   8.497  1.9109 -2.3164 -0.7528
  432MOL0     H56980  10.193   3.952   8.481 -2.3320  0.5058 -0.7560
  432MOL0     H56981  10.043   3.933   8.572 -0.6240 -0.3790  2.1648
  432MOL0     H56982  10.195   3.951   8.784  0.4450 -2.1765  0.4971
  432MOL0     H56983  10.178   3.798   8.704 -1.0957  0.4361  1.6418
  432MOL0     H56984  10.402   4.015   8.666 -0.2627  0.1708 -0.2218
  432MOL0     H56985  10.399   3.885   8.562 -1.0021  0.2724 -0.5784
  432MOL0     H56986  10.534   3.721   8.961  3.2233 -1.1822  1.0247
  432MOL0     H56987  10.788   3.659   8.967  0.7061 -0.2182 -0.4089
  432MOL0     H56988  11.214   3.914   8.959  0.6350 -0.5048  0.7426
  432MOL0     H56989  11.458   3.889   8.967 -2.5278  2.0246  0.8194
  432MOL0     H56990  11.704   3.786   8.973  0.5226  0.9387 -0.2916
  432MOL0     H56991  11.662   3.847   8.809  0.7936 -0.1005 -0.2810
  432MOL0     H56992  11.822   3.646   8.718  1.4277 -0.3195  0.1117
  432MOL0     H56993  11.850   3.626   8.886 -3.2408 -1.6813 -1.4385
  432MOL0     H56994  11.955   3.850   8.906  1.6100  2.9635 -1.7207
  432MOL0     H56995  11.923   3.887   8.743  0.8391 -0.4187 -0.3345
  432MOL0     H56996  12.104   3.668   8.847  0.1778  1.6340  1.2935
  432MOL0     H56997  12.040   3.663   8.681  2.9940 -2.7882  1.3582
  432MOL0     H56998  12.177   3.891   8.809 -1.2616  3.6231 -1.6871
  432MOL0     H56999  12.126   3.873   8.639  0.7165 -0.6353 -1.4950
  432MOL0     H57000  12.301   3.670   8.615 -1.7324 -0.7758  0.0508
  432MOL0     H57001  12.339   3.716   8.790 -2.8000 -0.6863  0.2216
  432MOL0     H57002  12.365   3.945   8.632  0.6119  0.1836  1.8573
  432MOL0     H57003  12.486   3.865   8.737  0.3839 -3.1612  0.2327
  432MOL0     H57004  12.586   3.877   8.525 -0.4472  1.8074 -0.0884
  432MOL0     H57005  12.437   3.793   8.457 -1.2235  2.4048  0.0177
  432MOL0     H57006  11.421   3.481   8.821  1.8014 -0.4257  1.0047
  432MOL0     H57007  11.178   3.504   8.824 -0.3185 -0.8561  2.0272
  432MOL0     H57008  10.840   3.796   8.576 -1.9882 -0.6412 -1.5977
  432MOL0     H57009  10.618   3.855   8.548 -2.9053 -3.2935 -1.2481
  432MOL0     H57010  10.115   5.219   9.390  0.4285 -0.8802 -0.7243
  432MOL0     H57011  10.316   5.375   9.422  0.7784 -1.4873 -2.2837
  432MOL0     H57012  10.720   5.424   9.431  0.4777 -0.5695  0.0518
  432MOL0     H57013  10.920   5.551   9.408 -0.6351 -2.1132 -1.4741
  432MOL0     H57014  11.160   5.576   9.749  2.1140 -1.4731 -2.8231
  432MOL0     H57015  11.115   5.750   9.776  0.5783  1.9631 -2.1807
  432MOL0     H57016  11.256   5.832   9.603  0.4156  0.7411  0.6600
  432MOL0     H57017  11.339   5.771   9.748 -0.5301  0.9604  0.4256
  432MOL0     H57018  11.326   5.617   9.490 -0.4905  1.7974 -0.9694
  432MOL0     H57019  11.392   5.543   9.636  0.3553  1.6131  1.6370
  432MOL0     H57020  11.496   5.816   9.516  2.0930 -0.0770 -0.3467
  432MOL0     H57021  11.560   5.732   9.664  1.8537 -0.2754 -0.7746
  432MOL0     H57022  11.735   5.479   9.390  0.1101 -1.7754  0.2824
  432MOL0     H57023  10.916   5.636   9.822 -1.6912  0.0479  0.8418
  432MOL0     H57024  10.714   5.502   9.858 -3.3147  0.0805 -0.1140
  433MOL0     O57025  11.123   5.528   4.304 -0.0933 -0.5992  0.1544
  433MOL0     C57026  11.102   5.566   4.188  0.0068  0.5571 -0.1376
  433MOL0     O57027  10.980   5.557   4.124  0.3198 -0.3920 -0.0625
  433MOL0     C57028  10.865   5.559   4.193  0.5277  0.1817  0.2826
  433MOL0     C57029  10.751   5.487   4.150 -0.6290 -0.7397 -0.6253
  433MOL0     C57030  10.635   5.497   4.223  0.7185  0.5703 -0.0936
  433MOL0     C57031  10.622   5.580   4.337  1.0666 -0.7087  0.1324
  433MOL0     O57032  10.496   5.579   4.398 -0.3767  0.2026  1.1016
  433MOL0     C57033  10.424   5.703   4.427  0.0730  0.6862  0.6637
  433MOL0     C57034  10.316   5.680   4.525  1.5372  0.0214 -0.7736
  433MOL0     C57035  10.210   5.585   4.471  0.2357 -0.5375 -0.4449
  433MOL0     C57036  10.079   5.570   4.558 -0.0125  1.0535 -0.4097
  433MOL0     C57037   9.967   5.489   4.485  0.0415 -0.7620 -0.0764
  433MOL0     C57038   9.835   5.516   4.553 -0.2127  0.8500  0.5281
  433MOL0     C57039   9.729   5.427   4.491 -0.5900 -0.0617 -0.5876
  433MOL0     C57040   9.588   5.469   4.537 -0.8142  0.2606  0.1840
  433MOL0     N57041   9.482   5.390   4.475  0.0717 -0.0599 -0.3309
  433MOL0     C57042   9.468   5.249   4.463 -0.2547  0.0535 -0.3234
  433MOL0     C57043   9.367   5.228   4.369  0.0505  0.0293 -0.5590
  433MOL0     C57044   9.325   5.107   4.299  0.3989  0.0061  0.9503
  433MOL0     C57045   9.174   5.080   4.301  0.1172  0.8466  0.1231
  433MOL0     C57046   9.079   5.177   4.238  0.2258 -0.7060  0.5933
  433MOL0     C57047   8.942   5.118   4.209  0.6381  0.4381 -0.4002
  433MOL0     O57048   8.958   5.005   4.121 -0.5662 -0.2277  0.0629
  433MOL0     C57049   8.844   4.980   4.036 -0.7532  0.0465 -1.2191
  433MOL0     C57050   8.718   5.036   4.050  0.1256  0.1390  0.0774
  433MOL0     C57051   8.622   5.021   3.948 -0.6457  0.4217 -0.1126
  433MOL0     C57052   8.646   4.934   3.843  0.3738 -0.3611 -0.0593
  433MOL0     C57053   8.542   4.912   3.748  0.6586 -0.6303  0.7961
  433MOL0     O57054   8.415   4.964   3.786  0.1507  0.3339  0.0766
  433MOL0     C57055   8.320   4.977   3.688 -0.4968 -0.0154  0.1198
  433MOL0     C57056   8.347   5.023   3.557 -0.6054 -0.5858 -0.0927
  433MOL0     C57057   8.245   5.027   3.465 -0.6718  1.0187  0.4230
  433MOL0     C57058   8.116   4.991   3.500  0.3116  0.1301  1.3003
  433MOL0     O57059   8.011   4.982   3.409  0.2615  0.2452  0.3782
  433MOL0     C57060   8.020   5.062   3.284 -1.2937  0.9670 -0.1150
  433MOL0     C57061   8.000   5.214   3.290  0.3926  0.2102  0.2481
  433MOL0     C57062   7.856   5.259   3.322  0.2759  0.3973 -0.6936
  433MOL0     C57063   7.760   5.245   3.200 -0.0701  0.0500 -1.2657
  433MOL0     C57064   7.668   5.115   3.179 -0.3276 -0.6845 -0.8814
  433MOL0     C57065   7.586   5.083   3.303 -0.6443 -0.2513 -0.3671
  433MOL0     C57066   7.487   4.975   3.274 -0.4679 -0.2456 -0.6676
  433MOL0     C57067   7.392   4.965   3.390 -0.3074  0.1383  1.0131
  433MOL0    Cl57068   7.286   5.105   3.375 -0.2137 -0.0976  0.3029
  433MOL0     C57069   8.084   4.942   3.626 -0.6713 -0.8700  1.2150
  433MOL0     C57070   8.187   4.936   3.719 -0.4557 -0.1486 -1.0576
  433MOL0     O57071   8.570   4.865   3.637 -0.2212  0.0996  0.1189
  433MOL0     C57072   8.768   4.869   3.832  0.3131  0.1354  0.5907
  433MOL0     C57073   8.863   4.895   3.923 -0.5504  0.7655 -0.5765
  433MOL0     N57074   9.320   5.350   4.335 -0.0989  0.5148 -0.2152
  433MOL0     N57075   9.383   5.441   4.397 -0.0977 -0.3645  1.0917
  433MOL0     C57076  10.734   5.656   4.375  0.2051 -0.2299  0.5429
  433MOL0     C57077  10.850   5.642   4.302  0.4389  0.2180 -0.3087
  433MOL0     C57078  11.217   5.607   4.111 -0.7207 -0.5143  1.0005
  433MOL0     C57079  11.349   5.606   4.163  0.6251 -0.3506 -0.0252
  433MOL0     C57080  11.458   5.663   4.094  1.0986 -0.7593  0.0956
  433MOL0     C57081  11.447   5.711   3.964 -0.4072 -0.8539  0.0115
  433MOL0     O57082  11.536   5.774   3.889 -0.8368  0.5023 -0.2453
  433MOL0     C57083  11.665   5.785   3.943 -0.1518  0.6089  0.1551
  433MOL0     C57084  11.762   5.807   3.829 -0.6193 -0.1906 -0.0872
  433MOL0     C57085  11.910   5.824   3.877  0.1516 -0.7353  0.0047
  433MOL0     C57086  11.925   5.932   3.982 -0.2642 -0.1139 -0.3231
  433MOL0     C57087  12.065   5.981   3.980  0.7076 -0.4764  0.3553
  433MOL0     C57088  12.160   6.050   3.970 -0.7661 -0.5109 -0.1446
  433MOL0     C57089  11.322   5.702   3.899  0.6773  0.0025 -0.1198
  433MOL0     C57090  11.207   5.660   3.976  0.0888  0.2682 -0.1161
  433MOL0     H57091  10.749   5.429   4.059 -1.6854 -0.0436 -1.0698
  433MOL0     H57092  10.556   5.428   4.193  1.9886 -0.5492 -0.9840
  433MOL0     H57093  10.387   5.743   4.333 -2.0881  2.2001  2.0702
  433MOL0     H57094  10.497   5.769   4.475  0.0837 -0.5177  2.4112
  433MOL0     H57095  10.273   5.775   4.557  0.8906 -1.3990  3.1819
  433MOL0     H57096  10.344   5.642   4.624 -1.4270  2.1289  1.0545
  433MOL0     H57097  10.260   5.488   4.460  1.7153 -0.0234  1.2719
  433MOL0     H57098  10.164   5.615   4.377 -3.5831 -3.2580  0.3185
  433MOL0     H57099  10.099   5.524   4.655  2.8984  2.5299 -0.1885
  433MOL0     H57100  10.052   5.673   4.584  0.2295  1.2937 -1.1063
  433MOL0     H57101   9.991   5.383   4.472 -1.4016 -1.2992  1.2771
  433MOL0     H57102   9.947   5.532   4.387 -2.5571  0.7395  1.0084
  433MOL0     H57103   9.793   5.615   4.530 -2.7820 -0.4404 -0.8427
  433MOL0     H57104   9.842   5.503   4.661  2.6689 -0.0863  0.3112
  433MOL0     H57105   9.733   5.443   4.383  0.8353 -0.7760 -0.6565
  433MOL0     H57106   9.754   5.325   4.521  0.7083  0.5133  0.3486
  433MOL0     H57107   9.571   5.576   4.522 -0.6403  0.2597 -0.0163
  433MOL0     H57108   9.585   5.447   4.644 -1.6841 -1.5644 -0.1744
  433MOL0     H57109   9.522   5.170   4.514  0.9632  1.4526  0.6295
  433MOL0     H57110   9.378   5.025   4.349  0.3331  0.5108  1.8624
  433MOL0     H57111   9.349   5.103   4.193  0.9099 -1.9750  1.0999
  433MOL0     H57112   9.149   5.068   4.407  2.1958  0.1143  0.5871
  433MOL0     H57113   9.158   4.985   4.250  0.6691  1.0934 -0.5249
  433MOL0     H57114   9.067   5.258   4.310 -0.8971 -0.6826  0.3948
  433MOL0     H57115   9.134   5.213   4.150  0.8039  0.7386  1.5007
  433MOL0     H57116   8.870   5.192   4.173 -1.2844 -0.8113  0.6831
  433MOL0     H57117   8.906   5.088   4.308  1.5960  0.5333 -0.0202
  433MOL0     H57118   8.692   5.099   4.134 -0.9505 -1.1657  0.7564
  433MOL0     H57119   8.522   5.063   3.959  0.5085  3.2139  0.5761
  433MOL0     H57120   8.446   5.060   3.536 -1.9635  3.3899 -0.2326
  433MOL0     H57121   8.263   5.044   3.360  2.2836  0.0704  0.6931
  433MOL0     H57122   7.936   5.021   3.226 -1.8865  1.1209  0.6163
  433MOL0     H57123   8.109   5.038   3.225 -1.2165 -1.2352  0.8232
  433MOL0     H57124   8.028   5.245   3.188  0.1989 -1.9972 -0.5452
  433MOL0     H57125   8.067   5.268   3.358  0.2204  0.3159  0.3319
  433MOL0     H57126   7.860   5.366   3.343 -2.8419  0.4714  0.0364
  433MOL0     H57127   7.821   5.208   3.412  0.0571  2.1506  0.2378
  433MOL0     H57128   7.695   5.332   3.218 -0.3791 -0.4500  0.2260
  433MOL0     H57129   7.823   5.259   3.112 -1.9838  0.3068 -2.6747
  433MOL0     H57130   7.735   5.031   3.158 -0.4631 -0.3873 -2.6894
  433MOL0     H57131   7.602   5.115   3.092  0.8695  3.1619 -2.0122
  433MOL0     H57132   7.538   5.173   3.341 -0.6308  0.8094 -2.6520
  433MOL0     H57133   7.656   5.052   3.381  0.6328 -0.8395 -1.6940
  433MOL0     H57134   7.426   4.987   3.184 -1.2022 -0.0930 -0.1617
  433MOL0     H57135   7.552   4.887   3.277 -0.6300 -0.3900  3.1780
  433MOL0     H57136   7.440   4.958   3.488 -0.6240  1.7506  1.3073
  433MOL0     H57137   7.334   4.876   3.365  1.0159 -0.9847  1.7930
  433MOL0     H57138   7.979   4.929   3.651 -1.5050  0.8758 -1.0902
  433MOL0     H57139   8.159   4.907   3.819 -0.7367 -0.9869 -1.3703
  433MOL0     H57140   8.795   4.797   3.755 -2.0606 -2.4987  1.9965
  433MOL0     H57141   8.961   4.850   3.908 -0.2247  1.1101  0.4472
  433MOL0     H57142  10.724   5.720   4.462 -0.4378 -1.9554  1.8019
  433MOL0     H57143  10.926   5.706   4.345 -1.8567  2.5379  0.5647
  433MOL0     H57144  11.363   5.585   4.269 -0.3691  2.4999  0.7462
  433MOL0     H57145  11.547   5.657   4.156  0.7043 -0.1010  0.7348
  433MOL0     H57146  11.700   5.694   3.992  1.1739  0.2177 -1.4359
  433MOL0     H57147  11.667   5.861   4.021  4.5491  0.2017  0.7247
  433MOL0     H57148  11.754   5.723   3.758  0.2559  2.0637 -3.0431
  433MOL0     H57149  11.744   5.900   3.774  2.7542  1.1411  0.8444
  433MOL0     H57150  11.977   5.857   3.796 -1.4222  1.2678 -0.5589
  433MOL0     H57151  11.947   5.730   3.919  2.0249 -0.9481 -1.9272
  433MOL0     H57152  11.858   6.010   3.946 -1.1027 -0.4523  0.4575
  433MOL0     H57153  11.892   5.906   4.083  1.2480  0.6675  0.4146
  433MOL0     H57154  12.243   6.117   3.959 -0.1294 -1.5475 -2.2239
  433MOL0     H57155  11.303   5.748   3.802 -1.0514 -0.5412 -0.0851
  433MOL0     H57156  11.114   5.661   3.921  0.3796  0.3921 -0.6140
  434MOL0     O57157   0.429   8.392   3.018 -0.7461 -0.3452 -0.3216
  434MOL0     C57158   0.469   8.338   3.124  0.3110 -0.2102 -0.1515
  434MOL0     O57159   0.599   8.280   3.144  0.4704 -0.3728  0.3434
  434MOL0     C57160   0.703   8.311   3.057  0.0026 -0.6823  0.0001
  434MOL0     C57161   0.802   8.216   3.042  0.9215  0.4884 -0.0784
  434MOL0     C57162   0.920   8.235   2.965  0.9271  0.1502 -0.5245
  434MOL0     C57163   0.938   8.358   2.893 -0.1549 -0.2778 -0.4374
  434MOL0     O57164   1.052   8.385   2.811  0.2101 -0.2703  0.3468
  434MOL0     C57165   1.081   8.524   2.773  0.6642  0.0175  0.2448
  434MOL0     C57166   1.231   8.531   2.743 -0.5464 -0.4251 -0.0134
  434MOL0     C57167   1.313   8.505   2.872 -0.2337  0.2151  0.9539
  434MOL0     C57168   1.460   8.490   2.822  0.6238  0.1990 -0.7581
  434MOL0     C57169   1.554   8.481   2.943 -0.7012 -0.2497  0.1407
  434MOL0     C57170   1.698   8.529   2.899  0.1371 -0.4357 -0.0489
  434MOL0     C57171   1.779   8.553   3.023 -0.4031  0.3545  1.1819
  434MOL0     C57172   1.922   8.611   2.989  0.4059 -0.6465 -0.6145
  434MOL0     N57173   1.993   8.640   3.121 -0.5930  0.3033 -0.1210
  434MOL0     C57174   2.096   8.568   3.182  0.1374  0.6172  0.3700
  434MOL0     C57175   2.126   8.633   3.298 -0.3209  0.6365  0.3723
  434MOL0     C57176   2.243   8.607   3.384  0.1289 -0.6674 -0.3971
  434MOL0     C57177   2.277   8.461   3.421 -0.6725 -0.3277 -0.2047
  434MOL0     C57178   2.356   8.389   3.307 -0.5108  0.4870 -0.0271
  434MOL0     C57179   2.416   8.258   3.353 -0.1523  0.6758  0.6161
  434MOL0     O57180   2.517   8.277   3.449 -0.5419  0.3319 -0.8447
  434MOL0     C57181   2.630   8.204   3.449 -0.2802  0.4346 -0.1748
  434MOL0     C57182   2.741   8.253   3.524  0.5824  1.0639  0.6752
  434MOL0     C57183   2.860   8.176   3.513  0.1660  0.4493 -0.5554
  434MOL0     C57184   2.874   8.053   3.444 -0.2802  0.2705  0.2508
  434MOL0     C57185   2.996   7.973   3.445  0.7228  0.8745  0.6442
  434MOL0     O57186   3.099   8.017   3.520 -0.4631 -0.1154  0.5753
  434MOL0     C57187   3.221   7.962   3.500 -0.0952  0.5474  0.1861
  434MOL0     C57188   3.285   7.886   3.602 -1.1721  0.0493  0.2024
  434MOL0     C57189   3.418   7.830   3.587  0.9442 -0.0892 -0.4599
  434MOL0     C57190   3.486   7.854   3.468 -0.6177  0.0865  0.4366
  434MOL0     O57191   3.608   7.792   3.444  0.4786  0.2367 -0.0672
  434MOL0     C57192   3.720   7.880   3.402 -0.1818  0.1131  0.3555
  434MOL0     C57193   3.798   7.818   3.282 -0.1714 -0.2227 -0.1700
  434MOL0     C57194   3.931   7.873   3.260 -0.1841  0.6275  0.1187
  434MOL0     C57195   3.999   7.830   3.127  0.4324 -0.6231  0.2479
  434MOL0     C57196   4.085   7.944   3.078 -0.9290  0.5280  0.3563
  434MOL0     C57197   4.227   7.901   3.038 -0.0617 -0.0125 -0.3946
  434MOL0     C57198   4.224   7.804   2.913  0.1684  0.1481  0.4579
  434MOL0     C57199   4.353   7.797   2.837  0.1474 -0.2703  0.3951
  434MOL0    Cl57200   4.489   7.762   2.943  0.0226  0.4683  0.5879
  434MOL0     C57201   3.423   7.939   3.372 -0.8861 -0.2792 -0.7016
  434MOL0     C57202   3.301   7.998   3.386 -0.5481  0.2178  0.3593
  434MOL0     O57203   2.993   7.872   3.369 -0.0266 -0.4521 -0.0897
  434MOL0     C57204   2.759   8.010   3.370 -0.0892 -0.1497  0.0325
  434MOL0     C57205   2.644   8.083   3.368 -0.1564 -0.4401  0.2445
  434MOL0     N57206   2.045   8.744   3.302 -0.2419 -0.0762 -0.1499
  434MOL0     N57207   1.969   8.739   3.200  0.2435 -1.1552  0.0535
  434MOL0     C57208   0.835   8.459   2.901 -0.6389  0.1533 -0.3850
  434MOL0     C57209   0.719   8.433   2.979  0.3236 -0.1273  0.4147
  434MOL0     C57210   0.378   8.353   3.232 -0.3373 -0.0135 -0.0716
  434MOL0     C57211   0.432   8.347   3.360 -0.4465  0.2952  1.0206
  434MOL0     C57212   0.356   8.356   3.476  0.1383 -0.6086 -0.7387
  434MOL0     C57213   0.219   8.387   3.470 -0.5892  0.0626  0.1352
  434MOL0     O57214   0.150   8.389   3.583  0.3253 -0.0469 -1.1493
  434MOL0     C57215   0.015   8.353   3.581 -0.0476  0.2674  0.3759
  434MOL0     C57216  -0.023   8.329   3.723  0.2612  0.0172 -0.2734
  434MOL0     C57217  -0.159   8.277   3.745  0.1970  0.6370 -0.0152
  434MOL0     C57218  -0.241   8.372   3.822  0.2108 -0.4332  0.3893
  434MOL0     C57219  -0.383   8.317   3.818 -0.7505 -0.2548 -0.6598
  434MOL0     C57220  -0.491   8.270   3.820  0.0250  0.3412 -0.4922
  434MOL0     C57221   0.168   8.409   3.342  0.0444  0.0988 -0.0983
  434MOL0     C57222   0.244   8.395   3.221  0.1433 -0.3194 -0.0444
  434MOL0     H57223   0.782   8.119   3.087  1.1218  0.1706 -0.6613
  434MOL0     H57224   0.997   8.159   2.957  0.6289 -0.1554 -0.5527
  434MOL0     H57225   1.075   8.602   2.849 -0.4709  2.8300 -2.5306
  434MOL0     H57226   1.022   8.559   2.688 -0.4601 -3.5987 -0.6316
  434MOL0     H57227   1.258   8.631   2.709 -0.2631 -0.1220  1.0467
  434MOL0     H57228   1.256   8.453   2.671  0.4297  0.0052 -0.1431
  434MOL0     H57229   1.293   8.406   2.915  2.8688  0.2498  2.7670
  434MOL0     H57230   1.301   8.585   2.945  1.6091  1.7499 -0.3220
  434MOL0     H57231   1.466   8.402   2.758 -1.1082 -0.9067  0.4971
  434MOL0     H57232   1.479   8.571   2.752  0.5187 -0.6239 -1.7528
  434MOL0     H57233   1.553   8.383   2.990  3.0373  0.4086  1.9343
  434MOL0     H57234   1.518   8.552   3.018 -0.8860 -1.8525  1.6328
  434MOL0     H57235   1.689   8.622   2.842  0.1325 -1.3426 -1.5928
  434MOL0     H57236   1.752   8.465   2.829  1.3506  0.0107  0.4581
  434MOL0     H57237   1.725   8.629   3.081 -0.5431  1.9506 -0.9279
  434MOL0     H57238   1.788   8.461   3.081 -0.4385 -0.6611 -0.3931
  434MOL0     H57239   1.915   8.712   2.946 -1.0325 -0.3971  0.1230
  434MOL0     H57240   1.973   8.540   2.924 -0.6690 -0.2992 -1.8771
  434MOL0     H57241   2.147   8.482   3.139 -0.0327  0.8359 -0.2885
  434MOL0     H57242   2.230   8.656   3.481  1.1609 -0.1200 -0.5268
  434MOL0     H57243   2.330   8.652   3.335 -0.5307  0.0158 -0.9524
  434MOL0     H57244   2.191   8.406   3.460  0.3127 -1.6837  0.1336
  434MOL0     H57245   2.341   8.468   3.510 -1.0685 -0.8775  0.1255
  434MOL0     H57246   2.289   8.373   3.222  0.3454  0.7152 -0.7571
  434MOL0     H57247   2.432   8.456   3.266 -0.7445 -0.4797 -2.1433
  434MOL0     H57248   2.447   8.200   3.265 -1.0369  1.2441 -0.0903
  434MOL0     H57249   2.337   8.209   3.410  0.6443  1.0614  2.0927
  434MOL0     H57250   2.728   8.346   3.579  1.4812  0.2192  2.4005
  434MOL0     H57251   2.954   8.209   3.558  0.4498  0.1908 -0.9601
  434MOL0     H57252   3.236   7.858   3.696  0.6342 -2.5855  0.4785
  434MOL0     H57253   3.456   7.760   3.660  1.1809  2.0521  1.5973
  434MOL0     H57254   3.783   7.909   3.487  0.5039 -0.6575  0.1217
  434MOL0     H57255   3.680   7.974   3.363  1.6494  1.2502  1.0991
  434MOL0     H57256   3.735   7.835   3.194  0.3808  0.4772 -0.4297
  434MOL0     H57257   3.808   7.709   3.293 -1.8234 -0.5229 -1.2544
  434MOL0     H57258   3.992   7.840   3.345 -0.8737 -1.6115 -0.2128
  434MOL0     H57259   3.917   7.982   3.263  1.1467  0.8357 -0.4458
  434MOL0     H57260   4.057   7.740   3.149  0.1288 -1.0269 -0.5674
  434MOL0     H57261   3.924   7.796   3.054  0.9638 -2.6076  0.5618
  434MOL0     H57262   4.091   8.026   3.149 -2.1974  1.6963 -0.8199
  434MOL0     H57263   4.039   7.990   2.990 -3.4294 -3.0688 -0.4660
  434MOL0     H57264   4.275   7.857   3.125  3.5352 -1.7660 -3.0048
  434MOL0     H57265   4.292   7.986   3.015  1.3972 -0.7010  1.0097
  434MOL0     H57266   4.186   7.704   2.938 -0.0585 -0.5641 -2.3905
  434MOL0     H57267   4.145   7.838   2.845 -0.7409 -1.1973  0.7839
  434MOL0     H57268   4.383   7.895   2.797  3.6089 -0.1699  2.8191
  434MOL0     H57269   4.348   7.729   2.752  0.4989  0.0483  0.1163
  434MOL0     H57270   3.474   7.953   3.277  1.3366 -0.1064  0.4439
  434MOL0     H57271   3.261   8.049   3.300 -0.6649 -2.5579 -1.3445
  434MOL0     H57272   2.757   7.919   3.311 -2.5595  0.6459 -1.2409
  434MOL0     H57273   2.560   8.038   3.318  0.1670  1.3922 -2.1174
  434MOL0     H57274   0.857   8.553   2.853 -0.0366  1.0766  1.5916
  434MOL0     H57275   0.644   8.511   2.980  2.4700  2.1665 -1.6604
  434MOL0     H57276   0.537   8.320   3.367 -0.4891  0.2743  1.6714
  434MOL0     H57277   0.411   8.338   3.568  1.3495  1.4590 -1.0052
  434MOL0     H57278  -0.010   8.260   3.529 -0.7643  1.1215 -0.8711
  434MOL0     H57279  -0.044   8.428   3.527  2.5235 -1.1988 -5.2587
  434MOL0     H57280   0.045   8.249   3.754  1.8430  0.3237 -2.6967
  434MOL0     H57281   0.005   8.415   3.785  1.0357 -0.0586 -0.5157
  434MOL0     H57282  -0.171   8.189   3.809 -2.1545  1.9298  1.4988
  434MOL0     H57283  -0.204   8.266   3.646 -0.3097 -0.6147  0.3404
  434MOL0     H57284  -0.210   8.377   3.926 -0.2629  1.0456  0.4835
  434MOL0     H57285  -0.234   8.466   3.766  1.0968 -0.2561  0.7896
  434MOL0     H57286  -0.592   8.235   3.830 -0.0028  0.6372  0.3321
  434MOL0     H57287   0.060   8.422   3.347 -0.2320 -1.5226 -1.0678
  434MOL0     H57288   0.190   8.403   3.127 -0.6941 -1.8923  0.2732
  435MOL0     O57289   5.520   8.062  10.948  0.0867 -0.6297  0.6167
  435MOL0     C57290   5.626   8.099  10.902 -0.6178 -0.3942 -0.0550
  435MOL0     O57291   5.645   8.214  10.825 -0.4824 -0.1239  0.6252
  435MOL0     C57292   5.536   8.279  10.782  0.1202 -0.4746  0.1253
  435MOL0     C57293   5.473   8.376  10.867  0.3423 -1.1351  0.0528
  435MOL0     C57294   5.359   8.454  10.825  0.1047 -0.3745 -0.2087
  435MOL0     C57295   5.315   8.442  10.693  0.1866  0.3691 -0.5650
  435MOL0     O57296   5.230   8.531  10.645  0.1831 -0.2337  0.3696
  435MOL0     C57297   5.169   8.525  10.518  0.2639 -0.0686  0.6455
  435MOL0     C57298   5.024   8.586  10.526 -0.2693  0.4643  0.7517
  435MOL0     C57299   4.940   8.558  10.405  0.0483 -0.0911 -0.1807
  435MOL0     C57300   4.804   8.634  10.408  1.0195 -0.1145 -0.1221
  435MOL0     C57301   4.723   8.633  10.283 -0.1184  0.4781  0.0023
  435MOL0     C57302   4.579   8.668  10.301  0.7762 -0.1714 -0.3171
  435MOL0     C57303   4.492   8.694  10.175  0.3891  0.5321  0.4464
  435MOL0     C57304   4.342   8.728  10.215 -0.4329  0.8740 -0.7214
  435MOL0     N57305   4.251   8.721  10.102 -0.3670 -0.6660  0.1260
  435MOL0     C57306   4.121   8.707  10.101  0.8953  0.3588  0.1142
  435MOL0     C57307   4.085   8.707   9.969 -0.2643 -0.2662 -0.0394
  435MOL0     C57308   3.953   8.689   9.912  0.2131 -0.2392  0.0953
  435MOL0     C57309   3.834   8.726  10.010 -0.4861 -0.0635 -0.1474
  435MOL0     C57310   3.829   8.870  10.051 -0.4283 -0.3161  0.7386
  435MOL0     C57311   3.841   8.993   9.955  0.2110  0.4460 -0.5015
  435MOL0     O57312   3.973   9.000   9.894 -0.7639 -0.4401  0.3393
  435MOL0     C57313   4.082   9.035   9.970 -0.0652  0.1269 -0.6358
  435MOL0     C57314   4.196   9.046   9.898 -1.3658 -0.6506  0.0329
  435MOL0     C57315   4.325   9.069   9.953  0.0731  0.0279 -0.6988
  435MOL0     C57316   4.334   9.089  10.094  0.6331 -0.2971 -0.6300
  435MOL0     C57317   4.464   9.102  10.156  0.3816  1.1243 -0.4536
  435MOL0     O57318   4.562   9.121  10.079  0.4579 -0.5155  0.0315
  435MOL0     C57319   4.683   9.136  10.144  0.3687 -0.0190  0.0671
  435MOL0     C57320   4.778   9.039  10.131 -1.0496  0.7359  0.3605
  435MOL0     C57321   4.909   9.069  10.185 -0.0090 -0.1807 -0.8067
  435MOL0     C57322   4.932   9.187  10.253 -0.1133 -0.6081  0.6871
  435MOL0     O57323   5.061   9.193  10.305  0.8156 -0.1328 -0.7013
  435MOL0     C57324   5.110   9.299  10.387  0.2567 -0.0414 -0.1089
  435MOL0     C57325   5.267   9.278  10.390  0.0057 -0.0688 -0.7648
  435MOL0     C57326   5.338   9.296  10.258  0.0422 -1.4899  0.0749
  435MOL0     C57327   5.490   9.268  10.270 -0.2223  0.0165  0.1549
  435MOL0     C57328   5.541   9.263  10.131 -0.3858  0.2451  0.0689
  435MOL0     C57329   5.692   9.246  10.140 -0.3545  0.4156  0.1450
  435MOL0     C57330   5.734   9.235   9.992  1.0834  0.0708 -0.6784
  435MOL0     C57331   5.879   9.223   9.986  0.0918 -0.0685  0.6731
  435MOL0    Cl57332   5.936   9.173   9.818  0.2737 -0.2801 -0.0183
  435MOL0     C57333   4.835   9.289  10.267 -0.6864  0.7342 -0.3888
  435MOL0     C57334   4.710   9.262  10.205  0.6400  0.7590 -0.5562
  435MOL0     O57335   4.472   9.068  10.270 -0.4732 -0.1925 -0.4719
  435MOL0     C57336   4.218   9.080  10.170  0.6247 -0.0854 -0.3649
  435MOL0     C57337   4.092   9.062  10.110  0.2861 -0.5156  0.3941
  435MOL0     N57338   4.203   8.723   9.899  0.6594  0.1518  0.7996
  435MOL0     N57339   4.299   8.735   9.975 -0.0186 -0.4052  0.3015
  435MOL0     C57340   5.375   8.343  10.618 -0.6875  0.5372  0.2191
  435MOL0     C57341   5.481   8.255  10.655  0.0014 -0.5456  0.3829
  435MOL0     C57342   5.748   8.026  10.954  0.4635  0.3711  0.8970
  435MOL0     C57343   5.880   8.085  10.952 -0.0113  0.0547  0.6836
  435MOL0     C57344   5.990   8.009  11.000  0.1445 -1.0679  0.4509
  435MOL0     C57345   5.977   7.879  11.041  0.3370  0.0657 -0.7989
  435MOL0     O57346   6.081   7.794  11.040 -0.0152 -0.3963  0.3252
  435MOL0     C57347   6.214   7.847  11.069  0.3243 -1.8523  0.4764
  435MOL0     C57348   6.296   7.737  11.130  1.0479 -0.0198 -0.5584
  435MOL0     C57349   6.334   7.626  11.031 -0.0747 -0.0462 -0.3755
  435MOL0     C57350   6.402   7.502  11.096 -0.3442  0.3669 -0.6457
  435MOL0     C57351   6.533   7.530  11.139 -0.3295 -0.4967 -0.2651
  435MOL0     C57352   6.639   7.555  11.193 -0.2325 -0.6128 -0.2542
  435MOL0     C57353   5.849   7.823  11.044  0.4804 -0.9765  0.2844
  435MOL0     C57354   5.738   7.898  11.012 -0.0839  0.1646 -0.3863
  435MOL0     H57355   5.515   8.389  10.967 -0.5115 -4.0411  0.8893
  435MOL0     H57356   5.333   8.527  10.901  2.8228 -0.6723  1.1418
  435MOL0     H57357   5.153   8.421  10.488 -2.1055  0.1375  1.0248
  435MOL0     H57358   5.230   8.582  10.447  1.0286 -0.0815  1.2742
  435MOL0     H57359   5.034   8.693  10.546  0.8553  1.0043 -2.0811
  435MOL0     H57360   4.978   8.539  10.613 -0.3603 -2.0508 -0.5508
  435MOL0     H57361   4.926   8.451  10.388  0.2471 -0.0815 -0.4073
  435MOL0     H57362   4.998   8.587  10.317  2.1060 -0.9198  0.8410
  435MOL0     H57363   4.743   8.590  10.488 -0.7940  1.6720 -0.4444
  435MOL0     H57364   4.799   8.740  10.432 -0.4956  0.6569 -3.3688
  435MOL0     H57365   4.712   8.535  10.234 -0.6617  0.5622 -0.0547
  435MOL0     H57366   4.779   8.688  10.208  0.2004 -0.7988 -0.7256
  435MOL0     H57367   4.580   8.766  10.349  1.8625  0.2996 -1.2581
  435MOL0     H57368   4.522   8.591  10.353  1.8292 -0.3495  0.6107
  435MOL0     H57369   4.528   8.778  10.114  1.8325  0.2457  0.8607
  435MOL0     H57370   4.486   8.602  10.117 -0.3572  0.9004 -0.0839
  435MOL0     H57371   4.331   8.826  10.263  1.2684  0.4842  0.5724
  435MOL0     H57372   4.315   8.654  10.290 -2.9708  4.6592  2.5659
  435MOL0     H57373   4.057   8.687  10.187  0.6583 -0.8413 -0.3111
  435MOL0     H57374   3.940   8.584   9.885 -0.4262 -0.1722  0.1306
  435MOL0     H57375   3.945   8.751   9.822  0.7847  1.2307  1.0197
  435MOL0     H57376   3.825   8.666  10.101 -0.8543 -0.8461 -0.6798
  435MOL0     H57377   3.747   8.709   9.945  0.3035 -0.2520 -1.1866
  435MOL0     H57378   3.732   8.894  10.096 -1.2826 -0.3860 -0.9680
  435MOL0     H57379   3.904   8.879  10.130 -0.2604 -1.5409  0.7336
  435MOL0     H57380   3.821   9.088  10.006 -0.2975 -1.1701  2.4894
  435MOL0     H57381   3.762   8.979   9.881 -0.8987  0.6710  0.6123
  435MOL0     H57382   4.193   9.018   9.794 -0.4027  1.0053 -0.4706
  435MOL0     H57383   4.409   9.056   9.884  0.2405  1.7627 -0.8654
  435MOL0     H57384   4.752   8.955  10.068 -1.8458  0.4788  1.0173
  435MOL0     H57385   5.000   9.011  10.184 -1.1165 -2.1261  1.4243
  435MOL0     H57386   5.068   9.282  10.487  1.8737 -2.9821  0.1750
  435MOL0     H57387   5.089   9.397  10.344 -0.5457 -0.3073 -0.3492
  435MOL0     H57388   5.294   9.186  10.443 -1.1943  1.9645  3.9085
  435MOL0     H57389   5.305   9.347  10.466  0.5601 -2.0980  0.9191
  435MOL0     H57390   5.325   9.401  10.230  0.7198 -1.0906  1.1708
  435MOL0     H57391   5.298   9.230  10.181 -0.4536 -0.0770 -0.9184
  435MOL0     H57392   5.542   9.343  10.329 -2.7183 -0.2303  2.9283
  435MOL0     H57393   5.501   9.176  10.328 -0.5202 -0.8707 -1.1390
  435MOL0     H57394   5.525   9.356  10.074  0.4536  0.2581 -0.1540
  435MOL0     H57395   5.482   9.186  10.080 -2.8559  1.1250  1.3947
  435MOL0     H57396   5.720   9.151  10.186  2.8303  1.2696  0.1578
  435MOL0     H57397   5.749   9.323  10.193  1.7438 -1.4805  0.7887
  435MOL0     H57398   5.674   9.154   9.951 -0.0954 -0.4348  1.8168
  435MOL0     H57399   5.716   9.328   9.938  1.2580  1.8240  2.0684
  435MOL0     H57400   5.916   9.151  10.059  1.8170  1.4622  1.3837
  435MOL0     H57401   5.924   9.318  10.017 -1.6039  0.7281  0.8270
  435MOL0     H57402   4.866   9.376  10.324  2.0618 -0.5261  0.2302
  435MOL0     H57403   4.631   9.336  10.214 -0.1431  0.0542 -1.3912
  435MOL0     H57404   4.210   9.095  10.278  2.6985  0.7254 -0.2629
  435MOL0     H57405   4.002   9.064  10.171 -1.0120 -0.6371 -1.4355
  435MOL0     H57406   5.343   8.335  10.515  0.7029 -2.3825 -0.0981
  435MOL0     H57407   5.512   8.177  10.586 -1.1938 -1.1390  0.4803
  435MOL0     H57408   5.891   8.183  10.905 -1.0977 -0.1855 -0.1016
  435MOL0     H57409   6.091   8.040  10.975 -0.3717  0.1246 -0.2034
  435MOL0     H57410   6.220   7.922  11.148  1.0229 -0.2479 -1.0306
  435MOL0     H57411   6.259   7.892  10.980 -1.6360  0.0226  0.3595
  435MOL0     H57412   6.386   7.786  11.167  1.1323 -1.5549  1.4302
  435MOL0     H57413   6.251   7.696  11.221 -1.3805  0.9071 -1.2538
  435MOL0     H57414   6.402   7.671  10.957  0.7706  1.1250  1.0640
  435MOL0     H57415   6.253   7.582  10.971  1.6782 -2.0307 -1.4368
  435MOL0     H57416   6.338   7.468  11.177 -0.4303 -1.2347 -1.3504
  435MOL0     H57417   6.397   7.419  11.025 -1.9648  0.8960 -1.1935
  435MOL0     H57418   6.733   7.569  11.242  0.9478  0.7015 -2.7130
  435MOL0     H57419   5.834   7.719  11.071  1.6450 -1.7854 -1.9507
  435MOL0     H57420   5.639   7.857  11.031 -0.3149  1.0623  0.4326
  436MOL0     O57421   9.760   1.770  10.254  0.9919 -0.5675 -0.4285
  436MOL0     C57422   9.836   1.763  10.345 -0.2891 -1.0891 -0.5346
  436MOL0     O57423   9.800   1.753  10.477  0.2170 -0.5539 -0.3358
  436MOL0     C57424   9.676   1.787  10.524  0.2679 -0.0478  0.1205
  436MOL0     C57425   9.592   1.883  10.458 -0.8787  0.8385  0.1027
  436MOL0     C57426   9.463   1.913  10.506  0.3841  0.0128 -0.6550
  436MOL0     C57427   9.420   1.845  10.624 -0.0776  1.3254  1.1617
  436MOL0     O57428   9.300   1.854  10.674  0.5165  0.1158  0.2707
  436MOL0     C57429   9.216   1.960  10.637 -0.0121  0.0497  0.2406
  436MOL0     C57430   9.106   1.994  10.727  0.2666 -0.1750  0.5297
  436MOL0     C57431   9.004   1.876  10.732  0.3353 -0.2338 -0.3759
  436MOL0     C57432   8.882   1.909  10.819 -0.0025  0.1257  0.6386
  436MOL0     C57433   8.764   1.820  10.770 -0.3782 -0.2342  0.3865
  436MOL0     C57434   8.643   1.826  10.865  0.4375  0.4914  0.8626
  436MOL0     C57435   8.545   1.719  10.817  0.0103  0.2845 -0.0809
  436MOL0     C57436   8.414   1.714  10.894 -0.5235 -0.3866 -0.1891
  436MOL0     N57437   8.314   1.631  10.828  0.3607 -0.6125 -0.8983
  436MOL0     C57438   8.340   1.505  10.780  0.1972  0.2012 -0.1739
  436MOL0     C57439   8.224   1.461  10.745 -0.5480  0.3555 -1.4426
  436MOL0     C57440   8.207   1.328  10.686  0.4729 -0.0201  1.0931
  436MOL0     C57441   8.065   1.292  10.664  0.1051 -0.2295  0.2449
  436MOL0     C57442   8.042   1.171  10.569  0.4570 -0.3796  0.0601
  436MOL0     C57443   8.051   1.225  10.423 -0.5776  0.9138 -1.0606
  436MOL0     O57444   8.076   1.119  10.326  0.8598 -0.6450  0.1282
  436MOL0     C57445   8.126   1.158  10.206 -0.1781  0.2558  1.1814
  436MOL0     C57446   8.173   1.050  10.131 -0.1528  0.2004  0.3255
  436MOL0     C57447   8.216   1.070   9.996  0.1456 -0.1670 -0.1617
  436MOL0     C57448   8.230   1.200   9.942  0.4385  0.4156  0.5945
  436MOL0     C57449   8.288   1.219   9.814  0.5468  0.8809  0.2667
  436MOL0     O57450   8.297   1.339   9.753  0.3818 -0.7983 -0.1162
  436MOL0     C57451   8.351   1.359   9.629 -0.0980 -0.9142 -0.3085
  436MOL0     C57452   8.279   1.324   9.512  0.1419  0.3316  0.8560
  436MOL0     C57453   8.349   1.338   9.390  0.3594 -0.2836  1.0446
  436MOL0     C57454   8.488   1.388   9.383  1.1667  0.4143  0.0975
  436MOL0     O57455   8.568   1.397   9.274 -0.6736 -0.4023 -0.0469
  436MOL0     C57456   8.513   1.382   9.145  0.4181  0.2366  0.3462
  436MOL0     C57457   8.596   1.455   9.032 -0.4421  0.2880  0.6476
  436MOL0     C57458   8.739   1.401   9.019 -0.3590  0.4642 -0.7005
  436MOL0     C57459   8.835   1.502   8.966  0.1677  0.4440 -0.7205
  436MOL0     C57460   8.790   1.554   8.828 -0.0978 -0.3601 -0.4492
  436MOL0     C57461   8.898   1.633   8.749 -0.1962 -0.2183  0.3542
  436MOL0     C57462   8.842   1.700   8.629 -0.0252 -0.1779 -0.4954
  436MOL0     C57463   8.771   1.829   8.675 -0.3207 -0.1038 -0.5816
  436MOL0    Cl57464   8.655   1.888   8.561  0.0288  0.5853 -0.1899
  436MOL0     C57465   8.546   1.414   9.505  0.4200  0.4925 -0.7236
  436MOL0     C57466   8.482   1.410   9.627  0.6228 -0.1262 -0.3958
  436MOL0     O57467   8.327   1.111   9.762  0.3938  0.0634 -0.0956
  436MOL0     C57468   8.193   1.308  10.022  0.4305  0.3398  0.1080
  436MOL0     C57469   8.137   1.292  10.149 -0.1870 -0.7153  1.0059
  436MOL0     N57470   8.124   1.555  10.782  0.5877 -0.2203  0.4534
  436MOL0     N57471   8.183   1.657  10.834  0.4717  0.3825  0.0699
  436MOL0     C57472   9.509   1.763  10.698 -0.6682 -0.3491 -0.2450
  436MOL0     C57473   9.633   1.733  10.651 -0.6556  0.2561 -0.1198
  436MOL0     C57474   9.975   1.747  10.309 -0.1345 -0.1315 -0.4909
  436MOL0     C57475  10.021   1.750  10.175  0.1874  0.3475 -0.1506
  436MOL0     C57476  10.152   1.741  10.143  0.6411  0.5981 -0.5184
  436MOL0     C57477  10.242   1.733  10.247  0.5584 -0.3542 -0.2322
  436MOL0     O57478  10.370   1.724  10.195 -0.0571 -0.2490  0.5724
  436MOL0     C57479  10.474   1.670  10.275 -0.1996 -0.1137  0.0410
  436MOL0     C57480  10.602   1.668  10.197 -0.1249  0.6436 -0.4339
  436MOL0     C57481  10.641   1.806  10.149  1.3886  0.1815  0.7989
  436MOL0     C57482  10.790   1.814  10.144  0.2029  0.6923  0.9226
  436MOL0     C57483  10.847   1.938  10.093 -1.2074  0.5353 -0.6651
  436MOL0     C57484  10.886   2.033  10.033 -0.2708 -0.4376 -0.1260
  436MOL0     C57485  10.212   1.728  10.388 -0.2190  0.2762  0.7899
  436MOL0     C57486  10.072   1.733  10.414 -0.6021  0.3102 -0.0539
  436MOL0     H57487   9.626   1.945  10.376  0.8818  0.5986  0.6060
  436MOL0     H57488   9.394   1.983  10.460 -2.7993 -2.8027 -0.5430
  436MOL0     H57489   9.171   1.946  10.538 -1.4845  1.3371  0.6786
  436MOL0     H57490   9.274   2.052  10.630 -1.8080  1.2362  0.3057
  436MOL0     H57491   9.068   2.094  10.704 -0.2489 -0.5869 -0.4726
  436MOL0     H57492   9.148   2.012  10.827  2.7520 -1.7675 -0.1516
  436MOL0     H57493   9.048   1.777  10.750  1.2913  0.0364 -1.1422
  436MOL0     H57494   8.963   1.879  10.631 -1.5918 -0.6052  0.3382
  436MOL0     H57495   8.905   1.890  10.925  1.4978  0.8835  0.4882
  436MOL0     H57496   8.849   2.011  10.800  0.9277 -0.0085 -2.1578
  436MOL0     H57497   8.802   1.718  10.775  0.3033  0.0598  3.3110
  436MOL0     H57498   8.732   1.840  10.667  0.2610 -1.3712 -0.0473
  436MOL0     H57499   8.589   1.921  10.862 -0.5845 -0.0528  1.6124
  436MOL0     H57500   8.681   1.801  10.964  2.5552 -0.7666 -0.1756
  436MOL0     H57501   8.523   1.747  10.714  0.1008  0.6117 -0.0145
  436MOL0     H57502   8.589   1.620  10.831 -2.3810 -0.6542  1.3503
  436MOL0     H57503   8.376   1.815  10.912  1.3786 -0.0074  2.3024
  436MOL0     H57504   8.433   1.671  10.993 -1.2111 -1.8908 -0.6821
  436MOL0     H57505   8.435   1.455  10.762  0.1928  0.1018  0.0826
  436MOL0     H57506   8.254   1.261  10.758  1.9186 -0.0181  0.2036
  436MOL0     H57507   8.262   1.316  10.592 -3.3308  1.5860 -1.5878
  436MOL0     H57508   8.006   1.375  10.625  0.5289  1.0109  2.0696
  436MOL0     H57509   8.017   1.263  10.758  0.0924 -0.4641  0.1664
  436MOL0     H57510   8.102   1.082  10.589  2.7301  1.3190  1.3461
  436MOL0     H57511   7.939   1.140  10.586  0.3489  0.4278  0.9952
  436MOL0     H57512   8.131   1.300  10.419  0.6269 -0.3874 -2.3170
  436MOL0     H57513   7.961   1.282  10.400 -1.3296  0.3116  0.2580
  436MOL0     H57514   8.173   0.951  10.176  2.8461 -0.4568 -0.9111
  436MOL0     H57515   8.233   0.981   9.936 -2.8134 -0.6772 -0.4166
  436MOL0     H57516   8.182   1.277   9.516 -0.6312  1.2400 -2.8880
  436MOL0     H57517   8.301   1.310   9.296  0.1482  1.9819  0.4255
  436MOL0     H57518   8.408   1.414   9.139 -0.0272 -1.2850 -0.4651
  436MOL0     H57519   8.507   1.277   9.118  0.8652  0.6823 -1.6086
  436MOL0     H57520   8.598   1.562   9.053  1.0005  1.2539 -3.4134
  436MOL0     H57521   8.558   1.458   8.930  3.0286  1.1977 -0.7694
  436MOL0     H57522   8.736   1.320   8.945  1.5638 -0.2897 -0.0079
  436MOL0     H57523   8.771   1.373   9.119 -0.1519  1.3697 -0.5016
  436MOL0     H57524   8.854   1.578   9.042  2.8853 -2.2619  1.5476
  436MOL0     H57525   8.934   1.458   8.948  0.0795  0.5291 -1.4363
  436MOL0     H57526   8.698   1.610   8.848  0.7780  1.4056 -1.1672
  436MOL0     H57527   8.769   1.468   8.765  3.1451 -1.4751 -0.1814
  436MOL0     H57528   8.976   1.563   8.721  0.5665  1.1357 -1.0625
  436MOL0     H57529   8.942   1.715   8.807 -0.8188  1.4723 -1.4392
  436MOL0     H57530   8.921   1.726   8.558 -2.5413  2.7994 -2.4158
  436MOL0     H57531   8.760   1.642   8.586 -1.0662 -0.7028  2.0147
  436MOL0     H57532   8.845   1.905   8.704 -1.7068  0.8729  0.5275
  436MOL0     H57533   8.722   1.805   8.770  2.3390  0.4777  1.0698
  436MOL0     H57534   8.649   1.444   9.493  0.7785 -0.7134 -0.7688
  436MOL0     H57535   8.538   1.435   9.716  1.4947  2.3184 -1.5361
  436MOL0     H57536   8.209   1.410   9.990 -0.2577  0.7652  1.0817
  436MOL0     H57537   8.121   1.386  10.200  3.1268  1.9226 -2.2902
  436MOL0     H57538   9.492   1.734  10.801 -0.8304 -3.2813 -1.0050
  436MOL0     H57539   9.693   1.671  10.717 -0.4067 -0.4523 -0.9974
  436MOL0     H57540   9.958   1.770  10.089  1.8773  0.3214 -1.4257
  436MOL0     H57541  10.184   1.759  10.041  1.0898  3.9839  0.1298
  436MOL0     H57542  10.449   1.569  10.307 -1.4977  0.2737  0.2915
  436MOL0     H57543  10.506   1.732  10.360 -0.8857 -1.1858  1.1096
  436MOL0     H57544  10.682   1.632  10.261 -2.8405 -0.8788  2.3718
  436MOL0     H57545  10.596   1.602  10.110 -0.9879  0.7524 -0.4641
  436MOL0     H57546  10.604   1.885  10.215  0.8129  0.3933  0.2295
  436MOL0     H57547  10.606   1.831  10.049  1.6895 -0.9167  0.4001
  436MOL0     H57548  10.843   1.796  10.239  4.1410 -2.1476 -1.4845
  436MOL0     H57549  10.834   1.740  10.076  2.0246  2.7234 -0.2445
  436MOL0     H57550  10.923   2.118   9.979 -0.3396  0.9760  1.9563
  436MOL0     H57551  10.283   1.734  10.470  1.1331 -1.1617 -0.1963
  436MOL0     H57552  10.038   1.729  10.517  0.2279 -0.0333  0.2170
  437MOL0     O57553   5.715   1.240   6.136  0.2807  0.1403 -0.3568
  437MOL0     C57554   5.746   1.346   6.085  0.1679  0.2806  0.0436
  437MOL0     O57555   5.679   1.462   6.098  0.3694 -0.1248  0.2554
  437MOL0     C57556   5.574   1.485   6.190 -0.0399  0.9832  0.2022
  437MOL0     C57557   5.571   1.422   6.316 -0.0835 -0.5596 -0.0039
  437MOL0     C57558   5.455   1.436   6.395 -0.5233  1.0937 -0.0215
  437MOL0     C57559   5.347   1.516   6.349 -0.0725 -1.7819 -0.5815
  437MOL0     O57560   5.238   1.491   6.421  0.5031  0.1541  0.0637
  437MOL0     C57561   5.144   1.596   6.419  0.4097  0.3981  0.8449
  437MOL0     C57562   5.041   1.581   6.533  0.2496 -0.1800 -0.4355
  437MOL0     C57563   4.909   1.631   6.472 -0.6228  0.7546  0.4745
  437MOL0     C57564   4.808   1.605   6.586  0.3164 -0.0651  0.2008
  437MOL0     C57565   4.685   1.690   6.557  0.1581  0.1863 -0.3025
  437MOL0     C57566   4.596   1.695   6.681 -0.2441  0.6903 -0.3698
  437MOL0     C57567   4.475   1.774   6.644 -0.4609  0.3051 -0.0958
  437MOL0     C57568   4.379   1.797   6.764  0.4469 -0.1808 -0.9085
  437MOL0     N57569   4.275   1.893   6.731  0.2425  0.2078  0.5804
  437MOL0     C57570   4.290   2.024   6.693 -0.1267  0.2339 -0.8637
  437MOL0     C57571   4.164   2.066   6.662 -0.0915  0.4989 -0.4587
  437MOL0     C57572   4.113   2.202   6.626  0.2003  0.2512  0.4317
  437MOL0     C57573   4.017   2.264   6.728  0.3440  0.1840 -0.0053
  437MOL0     C57574   3.876   2.204   6.724  0.2567 -0.0227  0.5582
  437MOL0     C57575   3.784   2.319   6.764 -0.1727 -0.1752 -0.2328
  437MOL0     O57576   3.647   2.280   6.782  0.1054 -0.4409  0.0361
  437MOL0     C57577   3.553   2.379   6.782  0.4341  0.4282 -0.2506
  437MOL0     C57578   3.581   2.520   6.796 -0.0801 -0.0321 -0.3053
  437MOL0     C57579   3.477   2.610   6.783 -0.4932 -0.2593  0.5404
  437MOL0     C57580   3.346   2.564   6.758 -0.1072  0.3553  0.7663
  437MOL0     C57581   3.233   2.656   6.746 -0.0256  0.8349  0.8804
  437MOL0     O57582   3.106   2.612   6.745 -0.6920  0.4737 -0.2969
  437MOL0     C57583   3.016   2.693   6.691 -0.0828 -0.2107  1.0723
  437MOL0     C57584   2.926   2.765   6.773  0.2303 -0.1922  0.7699
  437MOL0     C57585   2.824   2.837   6.710  0.2645  0.8459  0.1241
  437MOL0     C57586   2.803   2.840   6.571 -0.3568  0.1806  0.1463
  437MOL0     O57587   2.693   2.898   6.524 -0.1742 -0.3454 -0.1637
  437MOL0     C57588   2.728   3.036   6.489  0.1269 -0.8582  0.5041
  437MOL0     C57589   2.599   3.110   6.483 -0.0313  0.0508  0.3037
  437MOL0     C57590   2.546   3.141   6.615  0.2078 -0.2773  0.2822
  437MOL0     C57591   2.406   3.189   6.602  0.2004 -0.2081  0.4643
  437MOL0     C57592   2.384   3.284   6.710 -0.0572 -0.2729 -0.6341
  437MOL0     C57593   2.263   3.374   6.687 -0.3085  0.2986  0.1995
  437MOL0     C57594   2.224   3.471   6.798 -0.2340  0.6740  0.0062
  437MOL0     C57595   2.082   3.524   6.777 -0.4466 -0.5076 -0.2322
  437MOL0    Cl57596   2.047   3.626   6.931 -0.1494 -0.0315  0.0370
  437MOL0     C57597   2.896   2.772   6.488 -0.3663  0.1278  0.3319
  437MOL0     C57598   2.996   2.694   6.549 -0.1353 -0.1073  0.0468
  437MOL0     O57599   3.267   2.768   6.710 -0.3024 -0.4299 -0.4439
  437MOL0     C57600   3.321   2.424   6.736 -0.0036 -0.6913 -0.5245
  437MOL0     C57601   3.423   2.334   6.764 -0.8926 -0.3531 -1.4990
  437MOL0     N57602   4.083   1.958   6.670  0.2795  0.2249  1.1061
  437MOL0     N57603   4.148   1.858   6.712 -0.3376 -0.8691  0.1756
  437MOL0     C57604   5.362   1.594   6.227 -0.5182  0.2622  0.5733
  437MOL0     C57605   5.482   1.580   6.157  0.1715  0.3308  0.6489
  437MOL0     C57606   5.852   1.339   5.977  0.8451 -0.3550 -0.5527
  437MOL0     C57607   5.901   1.453   5.917  0.2026  0.3687 -0.2756
  437MOL0     C57608   5.997   1.454   5.817  0.6620 -0.4216  0.3158
  437MOL0     C57609   6.033   1.332   5.760  0.3824  0.5171 -0.3986
  437MOL0     O57610   6.114   1.323   5.643  0.2602 -0.1141 -0.4262
  437MOL0     C57611   6.249   1.309   5.686 -0.0159 -0.1966  0.5693
  437MOL0     C57612   6.327   1.247   5.573 -0.9582 -0.4723  0.7454
  437MOL0     C57613   6.376   1.355   5.482 -0.1773  0.0293 -0.4971
  437MOL0     C57614   6.482   1.301   5.390 -0.1541  0.0974  0.5171
  437MOL0     C57615   6.520   1.411   5.296 -0.2502  0.0635 -0.0989
  437MOL0     C57616   6.558   1.506   5.239  0.5371 -0.2682  0.5455
  437MOL0     C57617   5.998   1.223   5.829 -0.1425  0.7845 -1.0520
  437MOL0     C57618   5.912   1.227   5.940 -0.6343 -0.2190 -0.3468
  437MOL0     H57619   5.652   1.354   6.341 -0.6561 -0.5576  2.0452
  437MOL0     H57620   5.459   1.375   6.485  1.4598 -1.6448 -1.8341
  437MOL0     H57621   5.090   1.586   6.324 -1.9527 -1.3229  2.2509
  437MOL0     H57622   5.192   1.693   6.432  0.8471  0.4057 -0.6433
  437MOL0     H57623   5.063   1.650   6.615  1.0445 -0.8326 -0.0825
  437MOL0     H57624   5.039   1.476   6.564 -1.0124 -0.1161 -0.2297
  437MOL0     H57625   4.877   1.587   6.378 -0.8605  2.4948 -0.3053
  437MOL0     H57626   4.920   1.739   6.459 -0.0652  1.1246  3.3072
  437MOL0     H57627   4.794   1.501   6.615  2.0653  0.0302  1.5320
  437MOL0     H57628   4.839   1.647   6.682 -1.4628  0.4192  0.6001
  437MOL0     H57629   4.631   1.652   6.470  0.4959 -0.1243 -0.3789
  437MOL0     H57630   4.720   1.793   6.546  0.4588  0.0005 -1.1583
  437MOL0     H57631   4.644   1.747   6.764 -1.9194  1.7456  0.0014
  437MOL0     H57632   4.582   1.588   6.697  3.3286 -0.2788 -2.5232
  437MOL0     H57633   4.516   1.869   6.606 -0.4042  0.6245  0.7400
  437MOL0     H57634   4.426   1.731   6.556 -0.0956  1.5746 -0.9652
  437MOL0     H57635   4.427   1.842   6.851 -3.1648 -3.2158  3.1054
  437MOL0     H57636   4.324   1.711   6.801 -0.2941  0.8649  0.4679
  437MOL0     H57637   4.374   2.092   6.689 -0.0278  0.2066  0.3622
  437MOL0     H57638   4.052   2.199   6.535 -1.5104  2.3581  1.4233
  437MOL0     H57639   4.197   2.270   6.613 -0.3493  0.6753 -1.1243
  437MOL0     H57640   4.023   2.372   6.713 -2.9762  0.6018  0.9455
  437MOL0     H57641   4.063   2.236   6.823  0.1948  0.0077  0.0173
  437MOL0     H57642   3.851   2.169   6.623  1.2169 -1.4083  0.7640
  437MOL0     H57643   3.862   2.116   6.787 -0.3442  0.1425  0.6661
  437MOL0     H57644   3.797   2.406   6.698 -1.9268  3.4043  3.6696
  437MOL0     H57645   3.823   2.370   6.853  0.6883 -1.3145  0.0754
  437MOL0     H57646   3.686   2.542   6.811  0.6836 -1.2855 -3.0458
  437MOL0     H57647   3.502   2.715   6.795  0.8233 -0.5074  0.0663
  437MOL0     H57648   2.935   2.763   6.881 -1.2793  0.3813  0.9292
  437MOL0     H57649   2.761   2.900   6.773 -1.0115 -1.2233  0.9966
  437MOL0     H57650   2.783   3.029   6.395 -0.9799 -0.5342 -0.1764
  437MOL0     H57651   2.798   3.079   6.562 -0.9978  1.3618  0.3439
  437MOL0     H57652   2.533   3.047   6.423  1.8953 -0.1495 -1.7630
  437MOL0     H57653   2.617   3.195   6.416 -0.5442 -1.3776 -1.7551
  437MOL0     H57654   2.610   3.219   6.657  2.1573 -0.8073 -1.5503
  437MOL0     H57655   2.556   3.060   6.688  2.3686  0.9914  1.5155
  437MOL0     H57656   2.393   3.232   6.503 -1.4592  1.9367  1.5353
  437MOL0     H57657   2.349   3.098   6.624  2.7192 -2.1547 -0.5999
  437MOL0     H57658   2.451   3.365   6.740 -3.5851  2.3810  0.6988
  437MOL0     H57659   2.349   3.235   6.802 -1.5889 -0.6373 -1.3847
  437MOL0     H57660   2.182   3.305   6.663  2.4584 -2.2046 -2.9515
  437MOL0     H57661   2.282   3.446   6.607  0.8281  0.4614  0.5957
  437MOL0     H57662   2.221   3.417   6.893 -0.9134  0.8093  0.0645
  437MOL0     H57663   2.291   3.558   6.797 -3.3944  3.3604 -2.2577
  437MOL0     H57664   2.009   3.443   6.777 -0.7238 -0.2724  0.5927
  437MOL0     H57665   2.077   3.595   6.695 -2.7107 -0.3831 -0.0553
  437MOL0     H57666   2.894   2.780   6.379  1.0538  0.5369  0.3120
  437MOL0     H57667   3.061   2.641   6.481  1.8427  2.9259 -0.6271
  437MOL0     H57668   3.219   2.394   6.712 -0.2205 -1.0677  0.8173
  437MOL0     H57669   3.420   2.225   6.771  3.7825 -0.6554 -1.2545
  437MOL0     H57670   5.280   1.657   6.193 -0.2853  0.8628  1.1084
  437MOL0     H57671   5.496   1.638   6.066  0.3453 -1.6169 -0.6070
  437MOL0     H57672   5.855   1.548   5.941 -1.3865 -0.4157 -0.1513
  437MOL0     H57673   6.022   1.550   5.772  0.1155 -0.1882  0.5019
  437MOL0     H57674   6.254   1.237   5.768  0.2250  1.2467  1.8661
  437MOL0     H57675   6.292   1.402   5.725  2.7430 -0.4813 -1.5481
  437MOL0     H57676   6.408   1.189   5.619 -0.7553 -2.2037 -1.5927
  437MOL0     H57677   6.271   1.170   5.521  0.5179 -1.3935  0.4562
  437MOL0     H57678   6.423   1.433   5.542 -1.0954  0.5172 -0.4073
  437MOL0     H57679   6.290   1.400   5.432  0.4062  0.5630 -1.0290
  437MOL0     H57680   6.560   1.264   5.456 -0.4341 -1.1434  0.1789
  437MOL0     H57681   6.440   1.217   5.333  0.9270 -0.4639  0.5269
  437MOL0     H57682   6.585   1.591   5.179  0.1764 -0.8242 -0.4351
  437MOL0     H57683   6.046   1.128   5.805  2.3409  1.0130  2.2216
  437MOL0     H57684   5.893   1.133   5.992  0.3867  0.0999  0.6300
  438MOL0     O57685   9.539   0.927   1.342 -0.1706 -0.2124 -0.1197
  438MOL0     C57686   9.470   1.018   1.398  0.1815 -0.3477  0.9797
  438MOL0     O57687   9.347   1.002   1.461 -0.0358 -0.0758 -0.7975
  438MOL0     C57688   9.298   0.873   1.476  0.1552  0.3430  0.1734
  438MOL0     C57689   9.380   0.777   1.537  0.3567 -0.0447  0.4627
  438MOL0     C57690   9.335   0.643   1.550  0.3410  0.1654  0.4143
  438MOL0     C57691   9.212   0.611   1.497  0.6667 -0.3643  0.0149
  438MOL0     O57692   9.160   0.486   1.514 -0.5237  0.7973 -0.8750
  438MOL0     C57693   9.207   0.388   1.424  0.5155  0.7167 -0.2722
  438MOL0     C57694   9.105   0.269   1.424 -1.2870 -0.4274  0.2302
  438MOL0     C57695   8.966   0.306   1.379  0.0188  0.3466  0.0479
  438MOL0     C57696   8.879   0.178   1.350  0.3290  0.7595  0.5030
  438MOL0     C57697   8.858   0.089   1.461  1.2551  1.5140 -0.0799
  438MOL0     C57698   8.735   0.004   1.443 -0.1744 -0.0920 -0.5284
  438MOL0     C57699   8.728  -0.125   1.522  0.6206 -0.1879 -0.3518
  438MOL0     C57700   8.598  -0.207   1.483  0.7017  0.2215 -1.2106
  438MOL0     N57701   8.474  -0.136   1.517 -0.0525  0.9387 -0.6332
  438MOL0     C57702   8.446  -0.073   1.633  0.2259 -0.2407 -0.3488
  438MOL0     C57703   8.326  -0.022   1.615  0.0507 -0.8347  0.6166
  438MOL0     C57704   8.232   0.054   1.718  0.2322  0.4884 -0.0813
  438MOL0     C57705   8.106  -0.028   1.746  0.4721 -0.7448 -0.0597
  438MOL0     C57706   8.014   0.054   1.834 -0.3471 -0.4937 -0.7836
  438MOL0     C57707   7.914  -0.033   1.918 -0.1116 -0.4476  0.2099
  438MOL0     O57708   7.814  -0.104   1.838  0.3201  0.2063  0.5560
  438MOL0     C57709   7.696  -0.054   1.791  0.0297  0.1528  0.0743
  438MOL0     C57710   7.648   0.071   1.829  0.6382  0.3339  0.3595
  438MOL0     C57711   7.521   0.104   1.796  0.2935 -0.3930 -0.7846
  438MOL0     C57712   7.427   0.020   1.728 -1.1626 -0.1678 -0.1310
  438MOL0     C57713   7.293   0.068   1.685 -0.1272 -0.6592  0.3089
  438MOL0     O57714   7.190  -0.033   1.663 -0.0841 -0.4012  0.0295
  438MOL0     C57715   7.060   0.010   1.649 -0.2395  0.7504  0.0353
  438MOL0     C57716   6.982  -0.078   1.574 -0.1996  0.0051  0.3577
  438MOL0     C57717   6.858  -0.036   1.523 -0.7924  0.3037 -0.4233
  438MOL0     C57718   6.805   0.087   1.551  0.1476  0.1828 -0.4041
  438MOL0     O57719   6.677   0.122   1.507  0.1911  0.2278  0.0797
  438MOL0     C57720   6.619   0.244   1.541 -0.7424  0.5888 -0.2283
  438MOL0     C57721   6.470   0.249   1.493 -0.0656  0.2843  0.3590
  438MOL0     C57722   6.397   0.382   1.526 -0.9711 -0.1321 -0.9747
  438MOL0     C57723   6.272   0.391   1.441  0.6075  0.3074 -0.2727
  438MOL0     C57724   6.180   0.506   1.474 -0.0220 -0.8854 -0.4756
  438MOL0     C57725   6.044   0.497   1.411 -0.6475 -1.2276 -0.0342
  438MOL0     C57726   6.042   0.509   1.254 -0.8387  0.2578 -0.5113
  438MOL0     C57727   5.905   0.516   1.194 -0.1900  0.3540  0.3304
  438MOL0    Cl57728   5.848   0.686   1.218 -0.4762 -0.0707  0.1884
  438MOL0     C57729   6.880   0.180   1.627 -0.4586  0.2389 -0.4262
  438MOL0     C57730   7.000   0.137   1.680 -0.0054  0.7849  1.0308
  438MOL0     O57731   7.278   0.195   1.665 -0.0440 -0.7261 -0.4533
  438MOL0     C57732   7.486  -0.102   1.680  0.6323  0.0140  0.0970
  438MOL0     C57733   7.613  -0.143   1.714 -0.2674 -0.0927  0.2652
  438MOL0     N57734   8.290  -0.037   1.476 -0.2126  0.2722 -0.2659
  438MOL0     N57735   8.382  -0.102   1.418 -0.1423  0.3112 -0.0011
  438MOL0     C57736   9.128   0.713   1.439  0.1676  0.2685 -0.1688
  438MOL0     C57737   9.178   0.840   1.429 -0.1827 -1.0398 -0.1364
  438MOL0     C57738   9.530   1.152   1.396 -0.7288  0.2199  0.5044
  438MOL0     C57739   9.467   1.260   1.460  1.3195  0.3920 -1.1361
  438MOL0     C57740   9.514   1.384   1.459 -0.3485 -0.0432  0.4698
  438MOL0     C57741   9.625   1.414   1.388  0.6342 -0.2248  0.0098
  438MOL0     O57742   9.658   1.547   1.379  0.0490 -0.2159  0.6421
  438MOL0     C57743   9.799   1.579   1.406  0.2137  0.4291 -0.2034
  438MOL0     C57744   9.833   1.525   1.550 -0.3056 -0.2076  0.0155
  438MOL0     C57745   9.736   1.576   1.662 -0.8581  0.2037 -0.5447
  438MOL0     C57746   9.707   1.725   1.660 -0.3712  0.2739 -0.4556
  438MOL0     C57747   9.824   1.811   1.635 -0.0282 -0.1798  0.5744
  438MOL0     C57748   9.916   1.892   1.646 -1.1070 -0.6666  0.1686
  438MOL0     C57749   9.705   1.307   1.334  0.1158 -0.5706 -0.3015
  438MOL0     C57750   9.659   1.181   1.334  1.0800  0.2936  0.9329
  438MOL0     H57751   9.480   0.799   1.574  0.1168  2.4923 -0.1941
  438MOL0     H57752   9.386   0.564   1.604  1.5877  0.7675  0.1454
  438MOL0     H57753   9.301   0.340   1.451 -0.6143 -1.0767  0.6814
  438MOL0     H57754   9.224   0.432   1.326  2.8859  0.0268 -0.2374
  438MOL0     H57755   9.107   0.237   1.528 -0.7070 -0.6227  0.1643
  438MOL0     H57756   9.153   0.198   1.355  2.2681  1.4810  0.5252
  438MOL0     H57757   8.969   0.357   1.282  2.8394 -1.5376 -0.9835
  438MOL0     H57758   8.910   0.374   1.444  0.3717  0.2729  0.4254
  438MOL0     H57759   8.783   0.212   1.312  0.7009  1.1513 -0.0999
  438MOL0     H57760   8.926   0.120   1.270  1.5912 -0.7547  2.2549
  438MOL0     H57761   8.836   0.151   1.548  0.6511  2.9440 -1.2133
  438MOL0     H57762   8.946   0.026   1.475 -0.1553 -0.4339  0.4655
  438MOL0     H57763   8.716  -0.018   1.337  0.3434 -3.3082 -0.0594
  438MOL0     H57764   8.657   0.070   1.481 -2.3049 -1.0608 -2.8769
  438MOL0     H57765   8.810  -0.194   1.502  0.3664 -0.5796 -0.0586
  438MOL0     H57766   8.728  -0.091   1.626 -1.1840  2.0328 -0.9745
  438MOL0     H57767   8.594  -0.305   1.532 -3.4070  1.8250  2.3820
  438MOL0     H57768   8.597  -0.232   1.377 -0.4563  0.1732 -1.2033
  438MOL0     H57769   8.506  -0.070   1.724 -0.8763  1.6161  0.3800
  438MOL0     H57770   8.206   0.156   1.688 -2.1391  1.9286  5.5894
  438MOL0     H57771   8.292   0.068   1.809  0.1302  0.3769  0.0038
  438MOL0     H57772   8.118  -0.127   1.791  0.4156 -0.5573  0.3705
  438MOL0     H57773   8.059  -0.047   1.650 -0.1615  0.9076 -0.1116
  438MOL0     H57774   8.078   0.104   1.907  0.1552  0.6413 -1.9641
  438MOL0     H57775   7.966   0.133   1.776 -1.6928 -1.3162 -0.8304
  438MOL0     H57776   7.860   0.032   1.987 -0.5799 -0.4351 -0.1626
  438MOL0     H57777   7.955  -0.106   1.988 -0.6465 -0.1953  0.7962
  438MOL0     H57778   7.711   0.140   1.884 -0.3111  1.3953  0.1639
  438MOL0     H57779   7.489   0.201   1.832 -0.5319 -0.4796 -1.2578
  438MOL0     H57780   7.027  -0.170   1.539 -0.9453 -0.0298 -0.5613
  438MOL0     H57781   6.799  -0.100   1.459  0.5259 -1.4173 -0.0102
  438MOL0     H57782   6.672   0.329   1.497  4.7076 -0.7727  2.7272
  438MOL0     H57783   6.612   0.252   1.650 -0.8078  0.0584 -0.1902
  438MOL0     H57784   6.406   0.170   1.533 -0.6351  0.5740  0.0207
  438MOL0     H57785   6.475   0.226   1.387  0.2587 -0.9104  0.6170
  438MOL0     H57786   6.466   0.460   1.492 -1.0290 -0.1502 -1.1353
  438MOL0     H57787   6.375   0.388   1.633 -2.5979 -1.6682 -1.1837
  438MOL0     H57788   6.297   0.396   1.334 -0.3094  3.0132 -0.4239
  438MOL0     H57789   6.206   0.304   1.453 -0.1174  0.6135 -1.7606
  438MOL0     H57790   6.227   0.603   1.453 -1.8802 -0.2177 -1.9240
  438MOL0     H57791   6.171   0.506   1.583  0.6275 -2.6628 -0.3861
  438MOL0     H57792   5.981   0.569   1.464  1.7042  1.2621 -0.3841
  438MOL0     H57793   5.999   0.401   1.435  0.4524 -1.6559  0.3837
  438MOL0     H57794   6.103   0.594   1.221  1.2293 -1.2671 -0.8657
  438MOL0     H57795   6.096   0.420   1.220  1.9463  1.2684  0.9296
  438MOL0     H57796   5.840   0.446   1.249  0.1262  0.8713  1.3915
  438MOL0     H57797   5.908   0.490   1.088  1.2196  0.7835  0.2491
  438MOL0     H57798   6.841   0.279   1.651  1.2015  0.6275  0.8907
  438MOL0     H57799   7.062   0.206   1.737  0.5298  0.7588  0.4952
  438MOL0     H57800   7.422  -0.167   1.621  1.1210 -0.2083 -0.1939
  438MOL0     H57801   7.660  -0.233   1.674  0.4789 -1.2696  3.5106
  438MOL0     H57802   9.028   0.693   1.402 -0.6530  4.3544 -0.5541
  438MOL0     H57803   9.113   0.916   1.387  0.7495  0.8187  1.6467
  438MOL0     H57804   9.378   1.246   1.520  0.3353  0.1546 -2.5896
  438MOL0     H57805   9.470   1.470   1.509 -1.8724  0.5990 -1.8447
  438MOL0     H57806   9.808   1.687   1.387  0.0912  0.5431  0.3627
  438MOL0     H57807   9.866   1.524   1.339 -0.7741 -2.0769  0.7449
  438MOL0     H57808   9.829   1.416   1.541 -1.7688 -0.0501 -1.8520
  438MOL0     H57809   9.937   1.555   1.565 -1.2428  3.5237 -0.0046
  438MOL0     H57810   9.773   1.557   1.763  0.9144  1.7465 -0.8392
  438MOL0     H57811   9.646   1.513   1.662  0.0230 -1.1821  1.9080
  438MOL0     H57812   9.634   1.749   1.582 -1.2727  0.1094  0.3175
  438MOL0     H57813   9.657   1.754   1.753 -0.3591  0.6465 -0.5638
  438MOL0     H57814   9.997   1.956   1.674 -3.9836  2.5426  1.9461
  438MOL0     H57815   9.803   1.324   1.289 -0.4489 -0.4439 -1.5516
  438MOL0     H57816   9.730   1.108   1.298  1.1766  0.3254  1.0595
  439MOL0     O57817   3.400   8.777   3.610 -0.8165 -0.5510  0.4934
  439MOL0     C57818   3.468   8.804   3.704 -0.3483 -0.1953 -0.4037
  439MOL0     O57819   3.420   8.853   3.826  0.0618 -0.0852 -0.0838
  439MOL0     C57820   3.277   8.875   3.826 -0.5870 -0.3034 -0.1386
  439MOL0     C57821   3.213   8.840   3.946  0.6704 -0.2032  0.1737
  439MOL0     C57822   3.075   8.849   3.967 -0.1046 -0.1447  0.2253
  439MOL0     C57823   2.993   8.915   3.873 -1.1608 -0.8739 -0.5104
  439MOL0     O57824   2.862   8.955   3.882 -0.3645 -0.4419  0.1083
  439MOL0     C57825   2.795   8.909   3.999 -0.5563  0.5982 -0.3510
  439MOL0     C57826   2.650   8.966   3.992  0.3592 -0.3865  0.2103
  439MOL0     C57827   2.567   8.919   4.112 -0.0758 -1.2933  0.5864
  439MOL0     C57828   2.424   8.962   4.095 -0.1706 -0.0368  0.5735
  439MOL0     C57829   2.331   8.915   4.211 -0.3457 -0.3093 -0.0400
  439MOL0     C57830   2.350   8.765   4.235  0.4240 -0.0259  0.2923
  439MOL0     C57831   2.300   8.685   4.112  0.2095  0.3754 -0.1148
  439MOL0     C57832   2.329   8.532   4.131  0.6898 -0.2697 -0.3092
  439MOL0     N57833   2.463   8.492   4.091  0.0003  0.2396  0.4507
  439MOL0     C57834   2.512   8.498   3.955  0.3661 -0.6089  0.3946
  439MOL0     C57835   2.643   8.479   3.964 -0.2190 -0.2026  0.3609
  439MOL0     C57836   2.739   8.456   3.848  0.2807 -0.1253 -0.2024
  439MOL0     C57837   2.883   8.477   3.895 -1.1225  0.0162 -0.6653
  439MOL0     C57838   2.970   8.535   3.786 -0.3137  0.0212 -0.5481
  439MOL0     C57839   3.126   8.519   3.805 -0.3111  0.4130 -0.4262
  439MOL0     O57840   3.165   8.382   3.788 -0.2426 -0.3909 -0.4422
  439MOL0     C57841   3.301   8.355   3.774 -0.1642  0.9138 -0.0091
  439MOL0     C57842   3.325   8.216   3.735  0.7253 -1.2850 -0.2088
  439MOL0     C57843   3.460   8.176   3.720 -0.0190 -0.0674 -0.1512
  439MOL0     C57844   3.569   8.257   3.762 -0.7126 -0.0839 -0.4050
  439MOL0     C57845   3.711   8.205   3.747 -0.7077 -0.1293 -0.3306
  439MOL0     O57846   3.813   8.302   3.756 -0.3178  0.6509 -0.0020
  439MOL0     C57847   3.950   8.255   3.738 -1.0481 -0.7246  0.7063
  439MOL0     C57848   4.047   8.282   3.834 -0.0660 -0.5628 -0.2109
  439MOL0     C57849   4.186   8.242   3.811  0.3336  0.4247 -0.1011
  439MOL0     C57850   4.218   8.163   3.701 -0.0181 -0.0561  0.2115
  439MOL0     O57851   4.343   8.107   3.671 -0.0671  0.0157  0.6984
  439MOL0     C57852   4.438   8.085   3.779  0.1093 -0.0473 -0.5393
  439MOL0     C57853   4.572   8.076   3.714  0.4814  0.0667 -0.2571
  439MOL0     C57854   4.626   8.218   3.703 -1.0893  0.3611  0.0995
  439MOL0     C57855   4.719   8.232   3.578 -0.7526 -0.1475 -0.5162
  439MOL0     C57856   4.746   8.383   3.535 -0.2857 -0.4084 -0.0464
  439MOL0     C57857   4.814   8.458   3.647  0.0093  0.5023  0.2877
  439MOL0     C57858   4.871   8.589   3.599  0.3329  0.0770 -0.1390
  439MOL0     C57859   4.950   8.669   3.704  0.9256 -0.3607 -0.1558
  439MOL0    Cl57860   5.113   8.593   3.742 -0.0489 -0.0531 -0.0016
  439MOL0     C57861   4.120   8.136   3.599 -0.2363 -0.2496 -0.0384
  439MOL0     C57862   3.990   8.185   3.616  0.1621 -0.1039 -0.3851
  439MOL0     O57863   3.732   8.089   3.725  0.2359  0.7677 -0.5312
  439MOL0     C57864   3.542   8.391   3.798  0.0977  0.1048  1.0069
  439MOL0     C57865   3.407   8.437   3.814  0.0968 -0.2690 -0.3064
  439MOL0     N57866   2.669   8.454   4.099 -0.1861  0.0266 -0.5165
  439MOL0     N57867   2.560   8.454   4.173  0.4853 -0.1431 -0.3570
  439MOL0     C57868   3.065   8.952   3.755  0.4554 -0.4397  0.2590
  439MOL0     C57869   3.198   8.932   3.732  0.5539 -0.5478  0.9091
  439MOL0     C57870   3.599   8.748   3.713 -0.6650 -0.1718  0.3311
  439MOL0     C57871   3.666   8.674   3.608  0.4174  0.2692  0.0925
  439MOL0     C57872   3.795   8.618   3.623  1.2933 -0.1056  0.2167
  439MOL0     C57873   3.865   8.643   3.742 -0.0591 -0.1015 -0.3024
  439MOL0     O57874   3.997   8.598   3.736  0.6959  0.3546 -0.0240
  439MOL0     C57875   4.074   8.652   3.836  0.7445  0.0658 -0.1356
  439MOL0     C57876   4.213   8.621   3.799  0.1891  0.5046  0.0136
  439MOL0     C57877   4.272   8.727   3.707 -0.3864  0.4965  0.6419
  439MOL0     C57878   4.410   8.686   3.660  0.2804 -0.5316 -1.3751
  439MOL0     C57879   4.515   8.700   3.759  0.0270  0.2761 -0.7824
  439MOL0     C57880   4.604   8.719   3.841  0.1776  0.3919  0.5117
  439MOL0     C57881   3.797   8.705   3.849 -0.8889 -0.1558  0.3124
  439MOL0     C57882   3.667   8.762   3.830 -0.8530 -0.5488  0.2958
  439MOL0     H57883   3.269   8.792   4.026  0.5066 -2.7031 -1.0784
  439MOL0     H57884   3.046   8.815   4.065  3.3508 -0.2858  1.3200
  439MOL0     H57885   2.840   8.939   4.094 -1.5398  1.4050 -0.1265
  439MOL0     H57886   2.785   8.802   3.978 -1.3536  1.0335 -2.4556
  439MOL0     H57887   2.603   8.934   3.899  2.3303  0.9290 -1.3265
  439MOL0     H57888   2.654   9.075   3.996  3.2875 -0.3939  0.0297
  439MOL0     H57889   2.599   8.975   4.200 -0.4677  1.7655 -1.0973
  439MOL0     H57890   2.590   8.814   4.132 -0.2686 -1.4452  0.0332
  439MOL0     H57891   2.429   9.071   4.086  1.7683 -0.0436  1.0187
  439MOL0     H57892   2.383   8.926   4.001  1.1081  1.9788 -0.8388
  439MOL0     H57893   2.227   8.936   4.182  0.4758  1.4170 -1.9039
  439MOL0     H57894   2.358   8.971   4.300 -1.0839  2.2259 -1.3238
  439MOL0     H57895   2.282   8.728   4.313 -0.1002  2.2644  0.9835
  439MOL0     H57896   2.451   8.730   4.258  0.6174 -1.4946 -2.3766
  439MOL0     H57897   2.192   8.681   4.094  0.2837 -3.4687 -0.6492
  439MOL0     H57898   2.349   8.713   4.019 -1.1410  1.3717 -0.5607
  439MOL0     H57899   2.260   8.474   4.069 -1.3348  0.8908  0.7855
  439MOL0     H57900   2.321   8.506   4.237  1.0989  1.7703  0.2617
  439MOL0     H57901   2.456   8.522   3.865 -0.4697  0.0643  1.0651
  439MOL0     H57902   2.704   8.523   3.769  2.1970 -0.0801 -1.0599
  439MOL0     H57903   2.732   8.353   3.812 -4.1079 -0.4919  1.0818
  439MOL0     H57904   2.935   8.387   3.930  1.3955  0.8015 -2.1383
  439MOL0     H57905   2.892   8.543   3.982  4.6891  1.2016 -1.7610
  439MOL0     H57906   2.938   8.475   3.700 -0.0287 -0.2174 -0.4896
  439MOL0     H57907   2.944   8.638   3.758 -1.2487 -1.0099 -3.9179
  439MOL0     H57908   3.160   8.558   3.901 -0.6573  1.1921 -0.6036
  439MOL0     H57909   3.182   8.573   3.728  0.1457 -0.4184 -0.6916
  439MOL0     H57910   3.239   8.151   3.723 -0.7734  0.0211  2.4537
  439MOL0     H57911   3.492   8.077   3.688 -0.7351 -0.4949  0.4454
  439MOL0     H57912   4.027   8.343   3.921  2.5870  1.2599 -0.7866
  439MOL0     H57913   4.268   8.274   3.874 -1.9120 -0.1137  3.3746
  439MOL0     H57914   4.422   7.993   3.837  1.9949 -0.6359 -0.8883
  439MOL0     H57915   4.447   8.164   3.854  1.6297 -0.4248 -0.2908
  439MOL0     H57916   4.567   8.015   3.624  2.0631 -2.0582  0.9937
  439MOL0     H57917   4.638   8.019   3.781  0.6821 -0.0486 -0.5506
  439MOL0     H57918   4.685   8.245   3.791  0.3995 -1.2055 -0.3753
  439MOL0     H57919   4.542   8.287   3.687 -0.9820  0.5314  0.2637
  439MOL0     H57920   4.819   8.187   3.587  0.2815  2.3821  2.4413
  439MOL0     H57921   4.672   8.191   3.489 -1.7363 -1.9214  0.7637
  439MOL0     H57922   4.652   8.436   3.522  0.1814  0.1498 -1.3079
  439MOL0     H57923   4.801   8.393   3.441 -0.0489  1.9216  0.2796
  439MOL0     H57924   4.891   8.393   3.690  0.1419 -1.0364 -2.0560
  439MOL0     H57925   4.741   8.474   3.726  2.5716  1.6147  2.5917
  439MOL0     H57926   4.928   8.565   3.509  1.0825  1.3943 -0.0383
  439MOL0     H57927   4.795   8.662   3.569 -0.2032 -0.4662 -0.1119
  439MOL0     H57928   4.890   8.678   3.795  2.2860  0.9981  0.6441
  439MOL0     H57929   4.966   8.774   3.680  1.2884  0.2534  2.4942
  439MOL0     H57930   4.141   8.082   3.507  2.6823  1.4748 -0.5140
  439MOL0     H57931   3.915   8.160   3.542 -2.0220  1.7137  1.0632
  439MOL0     H57932   3.622   8.455   3.835  0.5015  1.6215 -2.1396
  439MOL0     H57933   3.414   8.539   3.849  1.1914 -0.5209  0.2672
  439MOL0     H57934   3.018   9.001   3.670 -0.0325 -2.6324 -0.8091
  439MOL0     H57935   3.244   8.963   3.638 -0.5289  0.7639  0.7783
  439MOL0     H57936   3.619   8.648   3.514 -2.2556 -0.6276  1.5649
  439MOL0     H57937   3.841   8.566   3.540  2.1360  0.7143  0.1500
  439MOL0     H57938   4.051   8.597   3.928 -0.1116  0.5722 -0.0363
  439MOL0     H57939   4.065   8.759   3.858  0.3394  0.1525 -0.7242
  439MOL0     H57940   4.260   8.615   3.897  0.0061 -4.0955  0.0638
  439MOL0     H57941   4.220   8.523   3.750  0.1077 -0.5190  1.9765
  439MOL0     H57942   4.289   8.817   3.768  0.4340  1.7000 -1.2730
  439MOL0     H57943   4.202   8.738   3.624 -2.0865 -1.8389  1.6525
  439MOL0     H57944   4.412   8.580   3.631 -1.7631 -0.9183 -0.3003
  439MOL0     H57945   4.447   8.748   3.579 -1.0202  1.7956 -0.2910
  439MOL0     H57946   4.689   8.727   3.906  0.2313  0.7157  0.4031
  439MOL0     H57947   3.852   8.731   3.939 -0.5579 -0.0582  0.0855
  439MOL0     H57948   3.646   8.829   3.913  2.0938 -0.9464  1.4998
  440MOL0     O57949   5.891   5.345   4.408  0.0957 -0.2511 -0.2484
  440MOL0     C57950   5.980   5.399   4.344  0.5981  0.9657 -0.1895
  440MOL0     O57951   5.959   5.478   4.229 -0.3945 -0.2496  0.1922
  440MOL0     C57952   5.839   5.466   4.164  0.4082 -0.0843 -0.4226
  440MOL0     C57953   5.757   5.584   4.143 -0.1901 -0.3461  0.0879
  440MOL0     C57954   5.631   5.567   4.074  0.2181  0.5717  0.8893
  440MOL0     C57955   5.589   5.435   4.050 -0.6922  0.6885 -0.0973
  440MOL0     O57956   5.472   5.403   4.004  0.3511  0.0418  0.0025
  440MOL0     C57957   5.362   5.474   4.070  0.4195  0.7244 -0.6089
  440MOL0     C57958   5.247   5.367   4.112 -0.0943  0.1300 -0.1432
  440MOL0     C57959   5.119   5.436   4.174 -0.4011 -1.3967  0.0029
  440MOL0     C57960   5.012   5.342   4.239  0.1312  0.6167 -0.6571
  440MOL0     C57961   4.928   5.413   4.345 -0.4137 -0.2841  0.9598
  440MOL0     C57962   4.833   5.517   4.295 -0.6673  0.2703  0.1118
  440MOL0     C57963   4.850   5.659   4.352  0.6134 -0.2996  0.4026
  440MOL0     C57964   4.850   5.683   4.501  0.2694 -0.0725  0.5972
  440MOL0     N57965   4.730   5.751   4.541  0.2371 -0.1712  0.7321
  440MOL0     C57966   4.725   5.860   4.611  1.1102  0.2837 -0.3014
  440MOL0     C57967   4.592   5.884   4.626 -0.1576  0.2198  0.2514
  440MOL0     C57968   4.524   6.004   4.697 -0.9034 -0.2519 -0.0239
  440MOL0     C57969   4.403   5.962   4.779  0.1352 -0.2021 -0.6653
  440MOL0     C57970   4.330   6.078   4.857  0.4448  0.4977 -0.4235
  440MOL0     C57971   4.238   6.019   4.960  0.3717 -0.6659 -0.5779
  440MOL0     O57972   4.184   6.126   5.048 -0.1726  1.2802  0.3226
  440MOL0     C57973   4.059   6.134   5.085  0.2190 -0.0421  0.0216
  440MOL0     C57974   4.017   6.249   5.157  0.1003  0.0704  0.0079
  440MOL0     C57975   3.885   6.270   5.188  0.4393  0.1413  0.4698
  440MOL0     C57976   3.792   6.173   5.170  0.7175  1.1529  0.9261
  440MOL0     C57977   3.654   6.181   5.237 -0.0623  0.3072 -0.4505
  440MOL0     O57978   3.634   6.299   5.308  0.2534  0.3204 -0.0700
  440MOL0     C57979   3.516   6.319   5.378 -0.1061  0.2395  0.6010
  440MOL0     C57980   3.470   6.232   5.481  0.1592  0.0196  0.6480
  440MOL0     C57981   3.358   6.261   5.551  0.0253 -0.0202 -0.0454
  440MOL0     C57982   3.281   6.372   5.523  0.3158 -0.6279  0.0389
  440MOL0     O57983   3.175   6.397   5.598  0.0554 -0.3368 -0.3387
  440MOL0     C57984   3.110   6.529   5.576 -0.5570  0.3163  0.0340
  440MOL0     C57985   2.998   6.539   5.680  0.0760  0.0819  0.6247
  440MOL0     C57986   2.910   6.659   5.645 -0.5749 -0.2288 -0.1177
  440MOL0     C57987   2.791   6.671   5.751 -0.7541 -0.5993 -0.1470
  440MOL0     C57988   2.705   6.796   5.723  0.1696 -0.3910  0.3486
  440MOL0     C57989   2.583   6.803   5.817  0.2892  1.0140 -0.0794
  440MOL0     C57990   2.506   6.928   5.800 -1.1473 -0.1290  0.7700
  440MOL0     C57991   2.534   7.038   5.911 -0.2138  0.4210  0.5650
  440MOL0    Cl57992   2.423   7.175   5.893 -0.1530  0.0742  0.5452
  440MOL0     C57993   3.314   6.449   5.408  0.2800  0.7315 -0.6954
  440MOL0     C57994   3.430   6.420   5.335  0.0059 -0.3796 -0.2363
  440MOL0     O57995   3.582   6.085   5.246  0.0946  0.3043 -0.0195
  440MOL0     C57996   3.825   6.051   5.103 -0.3294  0.1280  0.5426
  440MOL0     C57997   3.956   6.038   5.062  0.8577  0.6261  0.4998
  440MOL0     N57998   4.519   5.783   4.566 -0.3560  0.2404  1.1232
  440MOL0     N57999   4.602   5.708   4.505  0.4084  0.0865  0.1505
  440MOL0     C58000   5.678   5.329   4.059 -0.2694 -0.4615 -0.7102
  440MOL0     C58001   5.801   5.345   4.117  0.2234 -0.0243  0.6318
  440MOL0     C58002   6.117   5.389   4.391  0.3871 -0.0879 -0.1503
  440MOL0     C58003   6.157   5.296   4.488 -0.2186  0.4061  0.8083
  440MOL0     C58004   6.282   5.305   4.542  0.5544  0.3936  0.5550
  440MOL0     C58005   6.381   5.382   4.482  0.4097 -0.0074  0.1699
  440MOL0     O58006   6.507   5.366   4.543 -0.3266 -0.4703  0.3504
  440MOL0     C58007   6.611   5.455   4.520 -0.9879  0.5115 -0.0772
  440MOL0     C58008   6.580   5.579   4.595 -1.5586 -0.5041  0.3320
  440MOL0     C58009   6.677   5.691   4.554 -0.4702 -0.5240  0.3815
  440MOL0     C58010   6.645   5.817   4.631 -1.0784  0.2288 -0.0097
  440MOL0     C58011   6.737   5.923   4.609 -0.1867 -0.9628  0.0913
  440MOL0     C58012   6.808   6.016   4.571  0.1398 -0.1067 -0.6383
  440MOL0     C58013   6.357   5.467   4.371 -0.3810 -0.2553 -0.6033
  440MOL0     C58014   6.221   5.479   4.334  1.1999 -0.2366  0.4063
  440MOL0     H58015   5.790   5.681   4.180  0.6490 -0.9956  1.0965
  440MOL0     H58016   5.571   5.654   4.050  2.2483  1.8226  0.1322
  440MOL0     H58017   5.315   5.552   4.009 -2.8288 -0.9343 -0.4241
  440MOL0     H58018   5.396   5.527   4.159 -0.4722  0.7787 -0.2945
  440MOL0     H58019   5.282   5.292   4.184 -2.5741 -2.5371 -1.5157
  440MOL0     H58020   5.214   5.300   4.032 -2.0300  2.2995 -1.2921
  440MOL0     H58021   5.063   5.499   4.105  3.5142  1.2915 -1.0802
  440MOL0     H58022   5.155   5.504   4.252  1.2283  0.3002 -2.0923
  440MOL0     H58023   4.947   5.310   4.158 -0.6003  4.2480 -1.6863
  440MOL0     H58024   5.064   5.257   4.285 -0.8436 -0.3116 -1.2185
  440MOL0     H58025   4.983   5.462   4.426 -1.3536  4.1199 -0.7563
  440MOL0     H58026   4.870   5.337   4.397  0.7401 -2.0380 -0.1985
  440MOL0     H58027   4.732   5.480   4.311  0.0776 -2.6912 -1.3370
  440MOL0     H58028   4.836   5.520   4.186 -1.6732  0.7155  0.0907
  440MOL0     H58029   4.947   5.695   4.315  0.9610 -0.7355  0.8681
  440MOL0     H58030   4.783   5.726   4.298 -0.1216 -0.7073  0.8094
  440MOL0     H58031   4.941   5.736   4.530 -0.1529 -0.3798  2.6014
  440MOL0     H58032   4.852   5.592   4.562 -1.3734 -0.9738 -0.5962
  440MOL0     H58033   4.807   5.918   4.653  0.1599  0.7305  0.9955
  440MOL0     H58034   4.493   6.074   4.619 -3.9155 -1.1214  0.2811
  440MOL0     H58035   4.604   6.048   4.757 -1.1344 -0.0155  0.1154
  440MOL0     H58036   4.430   5.883   4.850 -1.9389  3.1562  4.4826
  440MOL0     H58037   4.331   5.926   4.705  0.9662 -2.1367 -0.5711
  440MOL0     H58038   4.397   6.152   4.900 -2.1355  0.4929  4.2464
  440MOL0     H58039   4.270   6.134   4.784 -0.5957  1.1132  0.8641
  440MOL0     H58040   4.291   5.945   5.020 -1.2413 -1.3491  0.0869
  440MOL0     H58041   4.165   5.947   4.921  1.1926 -2.9706  1.8835
  440MOL0     H58042   4.079   6.335   5.182  0.4350 -0.8976  2.8618
  440MOL0     H58043   3.862   6.364   5.238  1.1701  0.8847 -0.5280
  440MOL0     H58044   3.540   6.152   5.504  0.6168  0.6852  1.6325
  440MOL0     H58045   3.337   6.189   5.630 -1.2774 -1.4509 -1.6048
  440MOL0     H58046   3.073   6.522   5.473  1.3034 -0.0867 -0.6476
  440MOL0     H58047   3.177   6.615   5.586  0.5139 -0.5760  0.8169
  440MOL0     H58048   3.043   6.553   5.778  4.5244 -0.5601 -1.1067
  440MOL0     H58049   2.944   6.444   5.685  0.2008 -0.0009  0.4066
  440MOL0     H58050   2.863   6.661   5.547 -0.9284  2.2728  0.0320
  440MOL0     H58051   2.970   6.751   5.652  3.0814 -2.1838 -2.3632
  440MOL0     H58052   2.735   6.578   5.763  2.5142 -2.6718  0.1563
  440MOL0     H58053   2.831   6.679   5.852 -3.0496 -3.1365  1.0834
  440MOL0     H58054   2.662   6.795   5.623 -0.1176 -1.4342  0.4784
  440MOL0     H58055   2.762   6.888   5.739 -0.1174  0.0228 -0.8952
  440MOL0     H58056   2.603   6.798   5.925 -0.4453  0.9134  0.0533
  440MOL0     H58057   2.514   6.721   5.795 -0.4770  0.8946  2.3886
  440MOL0     H58058   2.521   6.969   5.700  1.6494  0.1614  1.2164
  440MOL0     H58059   2.403   6.894   5.798 -1.0176 -0.8745 -3.5824
  440MOL0     H58060   2.636   7.077   5.907  0.1502 -0.4340  1.1582
  440MOL0     H58061   2.518   6.991   6.008 -0.3576 -0.4513  0.1321
  440MOL0     H58062   3.249   6.521   5.360  0.4715  1.0177 -0.5235
  440MOL0     H58063   3.458   6.481   5.250 -0.1451  1.9291  1.2582
  440MOL0     H58064   3.748   5.980   5.074 -2.0904  2.4056 -0.6995
  440MOL0     H58065   3.975   5.952   4.998 -1.5864  0.4865 -0.1722
  440MOL0     H58066   5.645   5.234   4.019 -1.4126  1.2159 -4.0355
  440MOL0     H58067   5.869   5.261   4.126 -0.3280 -0.7884 -1.7045
  440MOL0     H58068   6.079   5.226   4.514  0.0493 -0.6819 -1.1358
  440MOL0     H58069   6.309   5.241   4.625  3.1462 -0.1939 -0.6606
  440MOL0     H58070   6.635   5.481   4.417 -1.5392  0.9082 -0.1044
  440MOL0     H58071   6.701   5.417   4.570 -0.7774  1.5770  0.3801
  440MOL0     H58072   6.477   5.613   4.578 -0.6055  2.7942  0.4330
  440MOL0     H58073   6.594   5.559   4.702  0.8429 -0.3683  0.1000
  440MOL0     H58074   6.662   5.718   4.449  2.7146  0.7295  0.1171
  440MOL0     H58075   6.783   5.667   4.571 -0.2722  0.0392 -0.0484
  440MOL0     H58076   6.543   5.850   4.608 -1.1255 -0.3685 -0.6797
  440MOL0     H58077   6.643   5.802   4.740 -2.5587  1.4650  0.1688
  440MOL0     H58078   6.878   6.095   4.555  0.9963 -0.4629  1.0532
  440MOL0     H58079   6.434   5.532   4.331 -0.2705 -0.8725 -1.4263
  440MOL0     H58080   6.180   5.558   4.270 -2.3496 -0.5971  1.9914
  441MOL0     O58081   5.795   3.006   3.060  0.4917 -0.1906 -0.1176
  441MOL0     C58082   5.778   3.056   3.174  0.0372 -0.1560  0.0360
  441MOL0     O58083   5.674   3.037   3.257 -0.6446 -0.0223  0.4934
  441MOL0     C58084   5.569   2.949   3.232  0.5316  0.5068  0.7543
  441MOL0     C58085   5.500   2.889   3.336  0.3974  0.0583  0.2538
  441MOL0     C58086   5.402   2.795   3.324 -0.0623  0.0227  0.8022
  441MOL0     C58087   5.358   2.767   3.193 -0.2707  0.5566  0.1207
  441MOL0     O58088   5.245   2.689   3.165 -0.0017 -0.6160  0.3042
  441MOL0     C58089   5.238   2.564   3.235  0.2373 -0.9894  0.3090
  441MOL0     C58090   5.109   2.556   3.324  1.3775 -0.0505  0.6248
  441MOL0     C58091   5.078   2.415   3.385  0.0405  0.0595  0.4889
  441MOL0     C58092   4.951   2.422   3.473 -0.2726  0.2741  0.3619
  441MOL0     C58093   4.936   2.290   3.547  0.3142 -0.5792 -0.2990
  441MOL0     C58094   4.907   2.179   3.443  0.1957 -0.0566  0.8175
  441MOL0     C58095   4.894   2.039   3.512 -0.3567  0.1337 -0.3267
  441MOL0     C58096   5.024   1.983   3.575  0.8546 -0.7981 -0.1830
  441MOL0     N58097   5.140   1.996   3.484 -0.1744 -0.0935 -0.6560
  441MOL0     C58098   5.148   1.982   3.352  0.3280  0.4978  0.9284
  441MOL0     C58099   5.272   2.020   3.314  1.5895 -0.0220  0.1537
  441MOL0     C58100   5.337   2.012   3.178 -0.9444  0.7859 -0.7804
  441MOL0     C58101   5.351   2.148   3.133 -0.3464  0.5985  0.0694
  441MOL0     C58102   5.394   2.144   2.980 -0.3252 -0.1899  0.0533
  441MOL0     C58103   5.353   2.275   2.905  0.1274 -0.3016 -0.5161
  441MOL0     O58104   5.424   2.387   2.958 -0.2336 -0.1195  0.2781
  441MOL0     C58105   5.556   2.416   2.944 -0.1029  0.0087 -0.4589
  441MOL0     C58106   5.653   2.345   2.870 -0.7485 -0.1368 -0.1172
  441MOL0     C58107   5.787   2.387   2.880 -0.2486 -0.4741  0.2543
  441MOL0     C58108   5.838   2.494   2.962  0.4179 -0.1453 -0.5978
  441MOL0     C58109   5.977   2.532   2.965  0.1104 -0.6687 -0.6336
  441MOL0     O58110   6.016   2.652   3.041  0.8954  0.3148 -0.1608
  441MOL0     C58111   6.136   2.714   3.019 -0.1410 -0.4045  0.2874
  441MOL0     C58112   6.251   2.642   2.980 -1.6391  0.3432 -0.6866
  441MOL0     C58113   6.361   2.718   2.961 -0.2671  0.7052  0.0915
  441MOL0     C58114   6.370   2.858   2.963  0.0707 -0.4114  0.1280
  441MOL0     O58115   6.499   2.910   2.944  0.3777  0.7083 -0.0347
  441MOL0     C58116   6.517   3.049   2.933  0.9601  0.5897  0.1666
  441MOL0     C58117   6.665   3.081   2.964 -0.7241  0.4979 -0.1457
  441MOL0     C58118   6.707   3.235   2.967 -0.3092  0.0859 -1.0268
  441MOL0     C58119   6.857   3.246   2.996  0.0349  0.2048 -0.1202
  441MOL0     C58120   6.917   3.389   3.004 -0.1403 -0.4286  0.8540
  441MOL0     C58121   7.067   3.383   2.990  0.3030  0.9201 -0.1491
  441MOL0     C58122   7.132   3.521   3.010  0.7409  0.2004  0.5759
  441MOL0     C58123   7.282   3.520   3.000 -0.2336 -0.6304  0.5155
  441MOL0    Cl58124   7.349   3.385   3.115  0.2499 -0.7192  0.3960
  441MOL0     C58125   6.255   2.927   2.995  0.0131  0.2979  0.7286
  441MOL0     C58126   6.141   2.856   3.032 -0.2743  0.2451 -0.5171
  441MOL0     O58127   6.043   2.467   2.891 -0.1120 -0.0464  0.3030
  441MOL0     C58128   5.740   2.556   3.044 -0.0217  0.1352  0.2319
  441MOL0     C58129   5.603   2.524   3.028  0.5195  0.4007  0.0415
  441MOL0     N58130   5.343   2.050   3.432 -0.4509 -0.0027 -0.2180
  441MOL0     N58131   5.263   2.029   3.529  0.1565 -0.2319 -0.3995
  441MOL0     C58132   5.415   2.829   3.088  0.8690  0.5575  0.2541
  441MOL0     C58133   5.514   2.919   3.105  0.5443 -0.3257  0.3203
  441MOL0     C58134   5.885   3.148   3.221  0.4453 -1.1308  0.1028
  441MOL0     C58135   5.881   3.192   3.356  0.8070  0.5388  0.3646
  441MOL0     C58136   5.975   3.276   3.408 -0.1304 -0.2943  0.0365
  441MOL0     C58137   6.074   3.334   3.323  0.4146 -0.2553  0.3841
  441MOL0     O58138   6.169   3.420   3.375 -0.1920  0.4650 -0.4361
  441MOL0     C58139   6.293   3.356   3.415  0.1414  0.1946  0.1836
  441MOL0     C58140   6.409   3.442   3.360  0.1133 -0.5894 -0.0350
  441MOL0     C58141   6.548   3.385   3.404  0.2977  0.2992 -0.1179
  441MOL0     C58142   6.587   3.400   3.551  0.6654  0.1532  0.9913
  441MOL0     C58143   6.557   3.538   3.589 -0.5040  0.4956  0.4439
  441MOL0     C58144   6.534   3.651   3.621  0.3197  0.4692  0.2505
  441MOL0     C58145   6.079   3.289   3.195 -0.3827 -0.5345 -0.2481
  441MOL0     C58146   5.990   3.196   3.142  1.1611 -0.3468 -1.0753
  441MOL0     H58147   5.537   2.915   3.435  1.3950 -0.0336 -0.0872
  441MOL0     H58148   5.354   2.752   3.411 -0.8617 -2.7075 -0.8874
  441MOL0     H58149   5.322   2.538   3.300  0.1568 -1.0104  0.4044
  441MOL0     H58150   5.227   2.483   3.162 -4.2213 -0.1394 -0.2687
  441MOL0     H58151   5.027   2.585   3.258  0.9701 -0.6545  0.8509
  441MOL0     H58152   5.133   2.632   3.399  0.7271  0.8601 -0.0635
  441MOL0     H58153   5.163   2.381   3.445  1.1212 -0.0446 -1.0561
  441MOL0     H58154   5.073   2.348   3.299  0.4381  2.5768 -1.6421
  441MOL0     H58155   4.964   2.499   3.550 -0.6043  0.2930  0.4018
  441MOL0     H58156   4.860   2.429   3.412  1.2905  0.7417 -2.0794
  441MOL0     H58157   4.849   2.298   3.613 -0.2795  3.3049 -1.3528
  441MOL0     H58158   5.024   2.270   3.609 -0.2134 -1.3544  0.2236
  441MOL0     H58159   4.982   2.170   3.364 -0.3841 -2.1934  0.4544
  441MOL0     H58160   4.811   2.199   3.394  1.9149  2.4186 -1.8234
  441MOL0     H58161   4.815   2.031   3.587  0.9918 -1.9555  0.9763
  441MOL0     H58162   4.865   1.972   3.431 -2.5581  0.6983 -0.0698
  441MOL0     H58163   5.007   1.880   3.606 -2.6899 -0.2788  0.0408
  441MOL0     H58164   5.043   2.050   3.659  0.8652  0.6818 -1.3104
  441MOL0     H58165   5.071   1.939   3.288 -1.2891  0.8311  2.5839
  441MOL0     H58166   5.285   1.944   3.109  0.2163 -1.1869  0.1918
  441MOL0     H58167   5.434   1.967   3.202 -1.1974  1.6362  2.2229
  441MOL0     H58168   5.409   2.210   3.202 -1.7657  0.2743  1.6088
  441MOL0     H58169   5.251   2.193   3.138 -0.2342  1.1472 -1.7023
  441MOL0     H58170   5.495   2.120   2.945 -1.0658 -0.5061 -2.0207
  441MOL0     H58171   5.337   2.063   2.934 -1.2707  0.0272  0.8312
  441MOL0     H58172   5.248   2.299   2.922 -0.1401 -1.1254 -0.9958
  441MOL0     H58173   5.365   2.272   2.797 -1.2108  2.5423 -0.8460
  441MOL0     H58174   5.640   2.255   2.810 -0.8931 -0.7811  0.8631
  441MOL0     H58175   5.851   2.323   2.820  1.4720  0.4215  1.0448
  441MOL0     H58176   6.268   2.535   2.974  0.0998  0.4774  0.8429
  441MOL0     H58177   6.453   2.664   2.942 -1.3594 -0.9510 -0.6271
  441MOL0     H58178   6.453   3.095   3.008  0.2561 -1.3070  0.7709
  441MOL0     H58179   6.487   3.092   2.837  0.2311  0.7776  0.4742
  441MOL0     H58180   6.719   3.038   2.879  0.1080  2.3540 -0.5919
  441MOL0     H58181   6.692   3.032   3.058 -0.8608 -2.7134 -1.6575
  441MOL0     H58182   6.656   3.299   3.040  1.2640  1.4423 -1.0517
  441MOL0     H58183   6.685   3.272   2.867 -0.4957  0.4126 -0.8668
  441MOL0     H58184   6.879   3.203   3.094  1.3455  0.4496 -0.2924
  441MOL0     H58185   6.910   3.190   2.918  0.7122  0.7182 -0.0419
  441MOL0     H58186   6.889   3.422   3.104  2.7025 -3.3760  2.8731
  441MOL0     H58187   6.876   3.452   2.925 -0.9782 -2.0086 -0.0190
  441MOL0     H58188   7.097   3.346   2.891  0.4794  0.0231  0.2255
  441MOL0     H58189   7.103   3.320   3.072  0.8230  3.9977  2.1260
  441MOL0     H58190   7.091   3.588   2.934 -1.8856 -1.0772  0.7339
  441MOL0     H58191   7.097   3.559   3.106  0.2427 -0.7318  0.7859
  441MOL0     H58192   7.312   3.612   3.053 -2.6219  0.3669  0.2374
  441MOL0     H58193   7.318   3.515   2.897  1.7605  0.7153  1.0777
  441MOL0     H58194   6.238   3.032   2.977 -1.6358  0.4303  2.6606
  441MOL0     H58195   6.049   2.900   3.072  0.9566  0.2458  2.5901
  441MOL0     H58196   5.761   2.638   3.111  0.5099 -1.7740  2.5652
  441MOL0     H58197   5.524   2.573   3.083  1.2026  0.4663  0.9978
  441MOL0     H58198   5.393   2.807   2.984  1.2199  2.2115 -0.1946
  441MOL0     H58199   5.552   2.962   3.013 -1.0824 -1.6877 -1.0468
  441MOL0     H58200   5.808   3.149   3.424  2.4917 -1.1203  1.2181
  441MOL0     H58201   5.981   3.310   3.511 -1.3446 -0.8353  0.3043
  441MOL0     H58202   6.296   3.252   3.383  2.3435 -0.3903  2.0341
  441MOL0     H58203   6.303   3.348   3.523 -1.1220  1.6458  0.4406
  441MOL0     H58204   6.404   3.457   3.252 -1.6842 -0.9154 -0.0200
  441MOL0     H58205   6.392   3.543   3.399  0.7159 -0.6550  0.4282
  441MOL0     H58206   6.625   3.437   3.347 -0.7711  1.0880 -0.8956
  441MOL0     H58207   6.551   3.280   3.377 -0.5763  0.8150 -2.4791
  441MOL0     H58208   6.524   3.329   3.605  0.0377 -0.0617  0.0165
  441MOL0     H58209   6.694   3.384   3.568  0.9307  0.1974 -0.4448
  441MOL0     H58210   6.509   3.753   3.644 -2.4330 -0.4907  2.0671
  441MOL0     H58211   6.139   3.348   3.126  1.2407 -1.7453  0.0588
  441MOL0     H58212   5.974   3.181   3.035 -0.6778  0.5688 -0.9692
  442MOL0     O58213  10.197   2.797   6.542  0.0358  0.1513 -0.5713
  442MOL0     C58214  10.116   2.714   6.532  0.9922  1.1343 -0.5402
  442MOL0     O58215  10.149   2.576   6.534 -0.6427 -0.1144  0.3757
  442MOL0     C58216  10.273   2.544   6.589  0.3508 -0.3856 -0.3730
  442MOL0     C58217  10.290   2.501   6.725  0.2156 -0.3297  0.3619
  442MOL0     C58218  10.413   2.463   6.773  0.1133  0.5376  0.1232
  442MOL0     C58219  10.531   2.472   6.696 -0.2390 -0.1959  0.1277
  442MOL0     O58220  10.651   2.449   6.764 -0.2792  0.0626 -0.1292
  442MOL0     C58221  10.760   2.542   6.736  0.5124 -0.0358  0.0633
  442MOL0     C58222  10.872   2.491   6.820 -0.1124 -0.2573 -0.1244
  442MOL0     C58223  10.926   2.359   6.772  1.0287 -0.6827 -0.3742
  442MOL0     C58224  11.059   2.335   6.838 -0.2025 -0.0209  0.0835
  442MOL0     C58225  11.156   2.233   6.770  0.6078  0.3118 -0.3959
  442MOL0     C58226  11.284   2.233   6.847  0.5165 -0.3995  0.1138
  442MOL0     C58227  11.377   2.115   6.809  0.8937  0.3651  0.1041
  442MOL0     C58228  11.501   2.104   6.896  0.6956 -0.8464 -0.4262
  442MOL0     N58229  11.500   2.033   7.020 -0.4984 -0.3513  0.0461
  442MOL0     C58230  11.398   1.948   7.061  0.5951  0.0783 -0.4877
  442MOL0     C58231  11.438   1.914   7.188  0.1078  0.4760 -0.1777
  442MOL0     C58232  11.378   1.794   7.268  0.4070  0.3522 -0.0639
  442MOL0     C58233  11.296   1.688   7.191 -0.6756  0.5313 -0.1169
  442MOL0     C58234  11.246   1.581   7.293  0.5755 -0.8091 -0.6602
  442MOL0     C58235  11.126   1.514   7.247  0.1088 -0.2618 -0.6976
  442MOL0     O58236  11.016   1.601   7.254  0.1996  0.1401 -0.1194
  442MOL0     C58237  10.891   1.557   7.223  0.2834 -1.0688  0.2211
  442MOL0     C58238  10.846   1.425   7.206  0.6885 -0.9443 -0.9169
  442MOL0     C58239  10.712   1.399   7.191  0.3265 -0.3871 -0.1005
  442MOL0     C58240  10.612   1.501   7.191  0.6302 -0.5439  0.4458
  442MOL0     C58241  10.470   1.479   7.175  0.9588 -0.1371  0.1273
  442MOL0     O58242  10.393   1.585   7.211  0.5617  0.6536  0.5913
  442MOL0     C58243  10.256   1.597   7.190 -0.5068 -0.1875  0.2060
  442MOL0     C58244  10.185   1.522   7.102 -0.4840 -0.8042  0.5318
  442MOL0     C58245  10.048   1.533   7.076 -1.2965 -0.2804  0.5806
  442MOL0     C58246   9.979   1.634   7.152  0.1414 -0.1537  0.0577
  442MOL0     O58247   9.838   1.643   7.140  0.8206 -1.1637 -0.6944
  442MOL0     C58248   9.776   1.779   7.177 -0.1496 -0.1954  0.3488
  442MOL0     C58249   9.639   1.771   7.108  0.4574 -0.5448  0.0460
  442MOL0     C58250   9.550   1.664   7.174  0.3961  0.4798 -0.7705
  442MOL0     C58251   9.459   1.611   7.065  0.3089 -0.3986 -0.1504
  442MOL0     C58252   9.341   1.695   7.045 -0.7494  0.7495 -0.7503
  442MOL0     C58253   9.225   1.595   7.048  0.4555  0.0973  0.0610
  442MOL0     C58254   9.094   1.679   7.050 -1.1500 -0.0283  0.7436
  442MOL0     C58255   8.977   1.613   7.101  1.2394  0.2223 -0.2618
  442MOL0    Cl58256   8.916   1.500   6.968  0.0677  0.1391  0.4826
  442MOL0     C58257  10.043   1.715   7.244 -0.6742  0.3661 -0.5493
  442MOL0     C58258  10.182   1.706   7.257 -0.2216 -0.2602 -0.0984
  442MOL0     O58259  10.424   1.368   7.153 -0.1200 -0.3301 -0.2845
  442MOL0     C58260  10.659   1.635   7.195 -0.0388  0.6975  0.5829
  442MOL0     C58261  10.795   1.663   7.209  0.1188  0.1082 -0.3599
  442MOL0     N58262  11.560   1.977   7.223 -0.3295 -0.7257  0.4317
  442MOL0     N58263  11.594   2.057   7.113  1.1118  0.4134 -0.5494
  442MOL0     C58264  10.512   2.508   6.559 -1.3041 -0.1367 -0.4293
  442MOL0     C58265  10.382   2.547   6.507 -0.7362 -0.1934  0.1484
  442MOL0     C58266   9.972   2.742   6.511 -0.0344  0.6716  0.9353
  442MOL0     C58267   9.872   2.644   6.509 -0.5637  0.1032  0.7921
  442MOL0     C58268   9.736   2.678   6.474  0.4547 -0.2326 -0.8431
  442MOL0     C58269   9.702   2.804   6.430 -0.8505 -0.2105  0.2574
  442MOL0     O58270   9.575   2.829   6.393  0.1977 -0.2674 -0.4501
  442MOL0     C58271   9.535   2.972   6.395 -0.2039  0.1053 -0.0379
  442MOL0     C58272   9.383   2.998   6.398 -0.1450  0.4974 -1.0446
  442MOL0     C58273   9.323   2.937   6.519  0.1737  0.3118 -0.9298
  442MOL0     C58274   9.258   2.795   6.487 -0.7981  0.2921 -0.7627
  442MOL0     C58275   9.136   2.804   6.412  0.2353 -1.1431  0.1849
  442MOL0     C58276   9.054   2.799   6.323 -0.1979 -1.3857  0.3705
  442MOL0     C58277   9.807   2.901   6.443  1.0579 -0.5319  0.1636
  442MOL0     C58278   9.937   2.874   6.491  0.5476 -0.1776 -0.8787
  442MOL0     H58279  10.198   2.485   6.781 -1.1112 -1.5652 -2.0143
  442MOL0     H58280  10.417   2.436   6.878  2.3905  0.9728  0.2067
  442MOL0     H58281  10.736   2.646   6.761  2.1023  1.1297 -2.7879
  442MOL0     H58282  10.789   2.542   6.631  1.0542  0.6454  0.2047
  442MOL0     H58283  10.835   2.486   6.923 -1.6430  1.6555 -0.5081
  442MOL0     H58284  10.945   2.572   6.814  0.3491 -0.7521 -3.6944
  442MOL0     H58285  10.935   2.361   6.663  2.4394 -1.2746 -0.2849
  442MOL0     H58286  10.867   2.272   6.802 -2.7951  0.4430 -3.7621
  442MOL0     H58287  11.109   2.432   6.848  0.9376 -0.3419 -1.9897
  442MOL0     H58288  11.044   2.294   6.938 -1.7074  1.9765  0.7232
  442MOL0     H58289  11.166   2.280   6.672 -3.0536  2.9679  0.2871
  442MOL0     H58290  11.108   2.135   6.770 -2.3208  1.6318 -0.2771
  442MOL0     H58291  11.264   2.228   6.954 -0.0774  1.1616  0.1039
  442MOL0     H58292  11.333   2.327   6.821 -1.9816  0.6157 -1.2530
  442MOL0     H58293  11.312   2.027   6.814  2.0050 -0.4151  1.5242
  442MOL0     H58294  11.410   2.114   6.705  0.3643 -0.8099 -0.0666
  442MOL0     H58295  11.522   2.205   6.930 -1.2990 -0.4618 -0.2030
  442MOL0     H58296  11.586   2.063   6.841  2.8348  1.0296  1.2986
  442MOL0     H58297  11.324   1.902   6.996  2.8974 -4.2410 -0.4181
  442MOL0     H58298  11.315   1.826   7.351 -1.1627  0.4769 -1.2550
  442MOL0     H58299  11.465   1.745   7.313 -0.2165  1.0313  1.9702
  442MOL0     H58300  11.361   1.636   7.120  0.3705 -1.6871  2.3022
  442MOL0     H58301  11.217   1.739   7.134 -1.8542  0.8557  1.7063
  442MOL0     H58302  11.325   1.511   7.320  1.1831  0.3192  0.6213
  442MOL0     H58303  11.226   1.626   7.391  0.6103 -2.1037 -0.0403
  442MOL0     H58304  11.098   1.430   7.311  1.1011 -0.4470 -0.4928
  442MOL0     H58305  11.138   1.471   7.147  0.5414 -2.1844  0.1408
  442MOL0     H58306  10.918   1.344   7.218  0.9375 -0.6129 -0.0777
  442MOL0     H58307  10.672   1.299   7.204  3.1513 -1.5949  0.0444
  442MOL0     H58308  10.233   1.446   7.041 -1.6180  0.4537 -2.0728
  442MOL0     H58309   9.999   1.466   7.007 -0.3056  0.3229 -0.7447
  442MOL0     H58310   9.835   1.866   7.147  0.4059 -0.8144 -0.3999
  442MOL0     H58311   9.752   1.777   7.283 -2.2947 -0.4694 -0.0797
  442MOL0     H58312   9.655   1.743   7.003  3.8930  2.1491 -0.3361
  442MOL0     H58313   9.578   1.861   7.105 -0.5035 -1.1756  0.3090
  442MOL0     H58314   9.496   1.700   7.263  0.8851  2.0899 -1.1056
  442MOL0     H58315   9.613   1.581   7.206  0.0661 -0.1417 -1.6940
  442MOL0     H58316   9.514   1.609   6.971 -0.1188 -0.8566 -0.3935
  442MOL0     H58317   9.436   1.507   7.093  0.3134 -0.0833  1.0767
  442MOL0     H58318   9.356   1.751   6.953  2.5955  1.0459 -0.1828
  442MOL0     H58319   9.335   1.768   7.126 -2.9324 -2.0170  1.8436
  442MOL0     H58320   9.229   1.541   7.143  3.2142  0.7031  0.3791
  442MOL0     H58321   9.225   1.521   6.967 -0.1789  0.5221 -0.3405
  442MOL0     H58322   9.106   1.765   7.118  0.5842  1.1556 -0.9538
  442MOL0     H58323   9.068   1.728   6.956  0.9332 -0.8446 -0.3209
  442MOL0     H58324   8.902   1.685   7.133  1.4904 -0.1667  1.2817
  442MOL0     H58325   9.003   1.549   7.186  0.2094  0.2187  0.0548
  442MOL0     H58326   9.988   1.783   7.308 -0.3313 -0.0891  0.2372
  442MOL0     H58327  10.245   1.774   7.313 -0.0066  0.1722 -0.8621
  442MOL0     H58328  10.584   1.712   7.178 -0.6704  0.5539  2.4458
  442MOL0     H58329  10.832   1.764   7.222  1.7076 -0.6587  1.8088
  442MOL0     H58330  10.603   2.493   6.501 -1.1973 -2.7005  0.2692
  442MOL0     H58331  10.378   2.582   6.404  0.9861  0.0219  0.1206
  442MOL0     H58332   9.892   2.542   6.540  2.5373  0.5197  0.3939
  442MOL0     H58333   9.656   2.604   6.482 -1.1991  1.6127  0.9388
  442MOL0     H58334   9.578   3.024   6.309  2.6493  0.2651  1.3357
  442MOL0     H58335   9.585   3.027   6.476 -1.3972 -1.2944  1.7160
  442MOL0     H58336   9.358   3.104   6.401  2.2185  1.0983 -0.5046
  442MOL0     H58337   9.339   2.956   6.307 -0.6751 -2.3269  0.4086
  442MOL0     H58338   9.235   2.991   6.554 -0.9082 -2.0092  0.1972
  442MOL0     H58339   9.399   2.929   6.597  0.2182 -2.3086 -1.1291
  442MOL0     H58340   9.326   2.741   6.421 -0.1573  1.2639 -0.9127
  442MOL0     H58341   9.231   2.737   6.576 -3.9475  0.0303 -1.7609
  442MOL0     H58342   8.990   2.802   6.238  1.7954  0.6328 -1.1688
  442MOL0     H58343   9.779   3.001   6.412  0.6339 -1.1928 -1.7974
  442MOL0     H58344  10.010   2.955   6.492  0.3575 -0.0074 -0.6922
  443MOL0     O58345   1.505   6.163   8.664 -0.3622  0.1527  0.6624
  443MOL0     C58346   1.461   6.113   8.768 -0.3733 -0.3810 -0.3093
  443MOL0     O58347   1.367   6.012   8.775 -0.0290  0.1715  0.0171
  443MOL0     C58348   1.369   5.914   8.676 -0.4407 -0.7119 -0.3861
  443MOL0     C58349   1.248   5.852   8.639  0.6871 -0.1617  0.0517
  443MOL0     C58350   1.240   5.753   8.543  0.3490 -0.0825 -0.7301
  443MOL0     C58351   1.360   5.696   8.497 -0.0051  0.5232  0.2118
  443MOL0     O58352   1.355   5.601   8.399 -0.8530 -0.2522 -0.8750
  443MOL0     C58353   1.426   5.629   8.278  0.4586 -0.1863  0.2034
  443MOL0     C58354   1.372   5.740   8.191  0.4814 -0.1878  0.1611
  443MOL0     C58355   1.231   5.702   8.144  1.0246  0.7267  0.2867
  443MOL0     C58356   1.221   5.607   8.018 -0.3708  0.3807  0.5724
  443MOL0     C58357   1.074   5.582   7.998 -0.4397 -0.2862 -0.1752
  443MOL0     C58358   1.002   5.696   7.925 -0.2691 -0.1956  0.2628
  443MOL0     C58359   0.853   5.704   7.923  0.2152  0.8023  0.5480
  443MOL0     C58360   0.801   5.837   7.862 -1.2270 -1.0864  0.4474
  443MOL0     N58361   0.661   5.836   7.840 -0.3678  0.2834  0.1629
  443MOL0     C58362   0.589   5.794   7.730 -0.3128 -0.3069  0.0514
  443MOL0     C58363   0.460   5.818   7.761  0.4806 -0.5755 -0.2210
  443MOL0     C58364   0.340   5.780   7.677 -0.4017  0.2835  0.0290
  443MOL0     C58365   0.254   5.658   7.723  0.2571  0.5326  0.8543
  443MOL0     C58366   0.153   5.690   7.836  0.1944  0.2493 -0.8796
  443MOL0     C58367   0.048   5.583   7.863  0.6026 -0.5851  0.0960
  443MOL0     O58368  -0.038   5.625   7.966  0.2748 -0.4670 -0.2832
  443MOL0     C58369  -0.163   5.579   7.972  0.3931  0.7350  0.0946
  443MOL0     C58370  -0.207   5.468   7.899  0.1658  0.1638 -0.4572
  443MOL0     C58371  -0.334   5.424   7.910  0.2470  0.6066  0.2072
  443MOL0     C58372  -0.429   5.481   7.991 -0.4926  0.0862  0.5763
  443MOL0     C58373  -0.560   5.425   8.010  0.8478 -0.0650  0.8243
  443MOL0     O58374  -0.649   5.484   8.099  0.4054 -0.2245 -0.2199
  443MOL0     C58375  -0.784   5.465   8.090  0.7121  0.9402 -0.1140
  443MOL0     C58376  -0.856   5.484   8.204  0.3139 -0.2578 -0.0443
  443MOL0     C58377  -0.996   5.486   8.204 -0.3709  0.3384 -0.0957
  443MOL0     C58378  -1.065   5.463   8.088 -0.4457 -0.1334 -0.1322
  443MOL0     O58379  -1.198   5.453   8.115  0.0994 -0.0188 -0.0865
  443MOL0     C58380  -1.296   5.461   8.010  0.7406  0.2956 -0.0697
  443MOL0     C58381  -1.290   5.597   7.944 -0.0590  0.0601 -0.0981
  443MOL0     C58382  -1.346   5.701   8.040  0.3781 -0.6102  0.4511
  443MOL0     C58383  -1.506   5.712   8.040  0.2917  0.2400 -0.8091
  443MOL0     C58384  -1.562   5.780   8.165  0.5821 -0.6248  0.3091
  443MOL0     C58385  -1.565   5.691   8.297 -0.5605 -0.2946 -0.0812
  443MOL0     C58386  -1.655   5.752   8.401 -0.0126 -0.8626 -0.0701
  443MOL0     C58387  -1.584   5.877   8.442 -1.2422 -0.1663  0.2392
  443MOL0    Cl58388  -1.638   5.925   8.612  0.1705  0.1522 -0.3846
  443MOL0     C58389  -0.994   5.441   7.971  0.9318  0.4983  0.5827
  443MOL0     C58390  -0.857   5.449   7.966  0.1653 -0.1282 -0.3903
  443MOL0     O58391  -0.593   5.331   7.936 -0.0433 -0.0315 -0.6236
  443MOL0     C58392  -0.386   5.591   8.068  0.0567  0.0659 -0.6655
  443MOL0     C58393  -0.251   5.642   8.058 -0.0332  0.4490  0.3398
  443MOL0     N58394   0.453   5.878   7.888  0.3720  0.5935 -0.2351
  443MOL0     N58395   0.573   5.892   7.927  0.0193 -0.2968 -1.0207
  443MOL0     C58396   1.482   5.748   8.545  0.4267  0.3361  0.2239
  443MOL0     C58397   1.486   5.859   8.636  0.1169  0.2577 -0.0342
  443MOL0     C58398   1.520   6.173   8.890  0.2195  0.3290  0.1524
  443MOL0     C58399   1.619   6.270   8.881 -0.1630  0.1803 -0.0657
  443MOL0     C58400   1.662   6.334   8.995 -0.7423  0.3197  0.2128
  443MOL0     C58401   1.623   6.289   9.126  0.2588 -0.1546  0.1674
  443MOL0     O58402   1.668   6.345   9.248 -0.0432 -0.0385 -0.6526
  443MOL0     C58403   1.772   6.446   9.241 -0.6049  0.1478 -0.7343
  443MOL0     C58404   1.810   6.492   9.385  0.1304  0.0716  0.5204
  443MOL0     C58405   1.877   6.633   9.367 -0.0884 -0.0527  0.2843
  443MOL0     C58406   2.005   6.641   9.274 -0.8353  0.6106  0.3231
  443MOL0     C58407   2.120   6.573   9.333  0.0306  0.0381 -0.9835
  443MOL0     C58408   2.225   6.531   9.379 -0.2440 -0.3854 -0.9844
  443MOL0     C58409   1.526   6.191   9.137 -1.3733  0.4813 -0.0714
  443MOL0     C58410   1.479   6.131   9.018 -0.1821 -0.0753 -0.0235
  443MOL0     H58411   1.159   5.895   8.686 -0.2422 -3.0406  1.1316
  443MOL0     H58412   1.146   5.704   8.523  0.0864 -0.8517  1.8935
  443MOL0     H58413   1.403   5.533   8.230 -0.1591  0.3210 -0.5273
  443MOL0     H58414   1.535   5.631   8.281  0.5219 -0.2890 -1.5131
  443MOL0     H58415   1.430   5.764   8.102  1.1941 -1.1099  0.3570
  443MOL0     H58416   1.371   5.839   8.238  0.1811 -0.7813  1.4478
  443MOL0     H58417   1.177   5.793   8.117 -2.3819  0.0727  3.8744
  443MOL0     H58418   1.174   5.660   8.228 -1.3670 -1.8641 -2.3570
  443MOL0     H58419   1.258   5.658   7.929 -0.5249 -1.4730 -0.5929
  443MOL0     H58420   1.288   5.523   8.033  0.9694  1.2010 -0.5930
  443MOL0     H58421   1.032   5.574   8.098 -2.3509 -1.3398 -0.9918
  443MOL0     H58422   1.058   5.483   7.953 -1.6591  1.2050 -3.3769
  443MOL0     H58423   1.043   5.699   7.823  1.1674  2.7169  0.8152
  443MOL0     H58424   1.025   5.793   7.971 -0.7615 -0.0482  0.2016
  443MOL0     H58425   0.812   5.628   7.855  1.7573 -1.2792  1.8433
  443MOL0     H58426   0.816   5.691   8.025 -1.6418 -1.4765 -0.3127
  443MOL0     H58427   0.852   5.847   7.766 -0.5055  1.2802  1.0161
  443MOL0     H58428   0.817   5.920   7.932  3.0083 -0.9928 -0.3890
  443MOL0     H58429   0.626   5.741   7.642  1.4304 -0.4475  0.8382
  443MOL0     H58430   0.365   5.760   7.573 -0.5945  4.8717 -1.0856
  443MOL0     H58431   0.267   5.861   7.666 -0.1491  0.8287  1.8988
  443MOL0     H58432   0.318   5.577   7.759  0.2216 -0.4108 -1.1209
  443MOL0     H58433   0.196   5.624   7.637 -0.8140  0.2732  1.6583
  443MOL0     H58434   0.205   5.699   7.932 -1.6491 -2.1734  0.4953
  443MOL0     H58435   0.110   5.785   7.801  1.4422 -0.0892 -3.5412
  443MOL0     H58436   0.092   5.488   7.895 -1.6893 -1.3526  1.1462
  443MOL0     H58437  -0.002   5.567   7.767  1.8012  3.1761 -1.3180
  443MOL0     H58438  -0.145   5.409   7.832 -1.5053 -1.0658 -0.9983
  443MOL0     H58439  -0.369   5.330   7.870  0.0570  0.4662  0.6992
  443MOL0     H58440  -0.811   5.492   8.302 -0.7405  1.1554  0.3570
  443MOL0     H58441  -1.051   5.495   8.297 -1.1938  1.0916 -0.6374
  443MOL0     H58442  -1.392   5.435   8.056  0.5140  1.3265  0.0848
  443MOL0     H58443  -1.279   5.386   7.933 -4.4402  0.0969 -1.4130
  443MOL0     H58444  -1.358   5.594   7.858  1.9948  0.8893 -1.8323
  443MOL0     H58445  -1.186   5.607   7.911  0.4938 -2.6370  0.5963
  443MOL0     H58446  -1.302   5.797   8.014 -3.7097  1.3415 -0.0913
  443MOL0     H58447  -1.323   5.688   8.146 -0.6305  0.1788  0.7866
  443MOL0     H58448  -1.533   5.778   7.957  2.0609  3.6577  1.1335
  443MOL0     H58449  -1.551   5.613   8.029  1.1196 -0.2672  0.2044
  443MOL0     H58450  -1.666   5.812   8.153  1.1587  1.8040  1.1306
  443MOL0     H58451  -1.498   5.867   8.182  1.1685 -1.6104  4.1173
  443MOL0     H58452  -1.460   5.683   8.327 -0.1061  4.9783  0.6533
  443MOL0     H58453  -1.602   5.590   8.276  0.6589 -0.6136 -0.8358
  443MOL0     H58454  -1.754   5.770   8.357  1.4292  1.3687 -2.7586
  443MOL0     H58455  -1.667   5.679   8.481 -0.9227  0.1516  0.7461
  443MOL0     H58456  -1.597   5.950   8.362  1.0009 -0.4675 -0.4753
  443MOL0     H58457  -1.476   5.862   8.453 -1.1365  1.5775  1.9274
  443MOL0     H58458  -1.052   5.408   7.885 -2.2955  0.5829  2.5461
  443MOL0     H58459  -0.794   5.443   7.878 -0.2445 -0.1960 -0.6823
  443MOL0     H58460  -0.459   5.644   8.127 -1.0588 -0.6794 -1.3470
  443MOL0     H58461  -0.214   5.728   8.112 -1.8014  2.3534 -1.3210
  443MOL0     H58462   1.574   5.698   8.515  1.6735  1.2548  2.3178
  443MOL0     H58463   1.582   5.898   8.670  0.1342 -0.4442  0.7750
  443MOL0     H58464   1.653   6.307   8.785 -2.0817 -0.5546 -1.0802
  443MOL0     H58465   1.726   6.421   9.001 -0.1347 -0.2105  2.8092
  443MOL0     H58466   1.725   6.533   9.193 -2.2101  0.5161  1.3695
  443MOL0     H58467   1.863   6.409   9.194  0.5138  1.0748  0.6024
  443MOL0     H58468   1.719   6.504   9.444 -0.4878 -1.7539  0.0142
  443MOL0     H58469   1.876   6.417   9.430  1.1169 -1.5298 -3.1649
  443MOL0     H58470   1.899   6.671   9.467  1.4079 -2.9385  1.1719
  443MOL0     H58471   1.800   6.698   9.323 -2.8415 -1.2860  2.9477
  443MOL0     H58472   1.993   6.586   9.180 -1.5565 -0.2877  0.9151
  443MOL0     H58473   2.025   6.747   9.255 -0.9813  0.4838 -0.6206
  443MOL0     H58474   2.310   6.473   9.407 -0.0448  0.4193  0.1172
  443MOL0     H58475   1.484   6.161   9.232  1.7517 -0.5374  1.0957
  443MOL0     H58476   1.401   6.061   9.044 -1.2116  0.6581 -1.0766
  444MOL0     O58477   5.379   8.372   5.672  0.5660  0.1169  0.1653
  444MOL0     C58478   5.462   8.367   5.581 -0.1024  0.1907 -0.1516
  444MOL0     O58479   5.443   8.377   5.446 -0.4157  0.1016 -0.0305
  444MOL0     C58480   5.318   8.367   5.384 -0.3969 -0.4622  0.9635
  444MOL0     C58481   5.215   8.287   5.430  0.8176  0.5681 -0.3062
  444MOL0     C58482   5.095   8.280   5.367  0.1406  1.2851  0.1598
  444MOL0     C58483   5.084   8.351   5.244 -0.4474  0.2221 -0.3531
  444MOL0     O58484   4.970   8.340   5.172  0.5264  0.1234 -0.7986
  444MOL0     C58485   4.963   8.403   5.044  0.3823  0.3470  0.4060
  444MOL0     C58486   4.826   8.396   4.980 -0.9354  0.2741 -0.2756
  444MOL0     C58487   4.778   8.246   4.952 -0.1433  0.0122 -0.4947
  444MOL0     C58488   4.653   8.244   4.859  0.2686 -0.1316  0.2558
  444MOL0     C58489   4.599   8.095   4.843  0.3194 -0.1014  0.9830
  444MOL0     C58490   4.691   8.001   4.755 -0.1805 -0.2905  0.0827
  444MOL0     C58491   4.624   7.857   4.761  0.2390 -0.8516 -1.0148
  444MOL0     C58492   4.582   7.801   4.628 -0.2724 -0.0148  0.3360
  444MOL0     N58493   4.475   7.875   4.562  0.7531 -0.2200  0.8715
  444MOL0     C58494   4.477   7.936   4.438  0.2825  0.0658 -0.6413
  444MOL0     C58495   4.352   7.980   4.421  0.2304  0.1611 -0.0166
  444MOL0     C58496   4.312   8.046   4.288  1.0516  0.1328 -0.3471
  444MOL0     C58497   4.172   7.985   4.249 -0.7797 -0.9293  0.8148
  444MOL0     C58498   4.112   8.057   4.126 -0.3290  0.1201 -0.9814
  444MOL0     C58499   3.988   7.973   4.075 -0.6435 -0.3441  0.3954
  444MOL0     O58500   3.881   8.007   4.160 -0.1393 -0.7352  0.4657
  444MOL0     C58501   3.758   7.983   4.120  0.2746  0.1244 -0.5306
  444MOL0     C58502   3.665   8.059   4.189  0.1072  0.0339  0.4224
  444MOL0     C58503   3.529   8.055   4.157 -0.0589 -0.5615 -0.1981
  444MOL0     C58504   3.487   7.969   4.057  0.2048 -0.1135 -0.1490
  444MOL0     C58505   3.347   7.959   4.038 -0.0860 -0.5428  0.4646
  444MOL0     O58506   3.266   8.058   4.097  0.4219  0.2160  0.5883
  444MOL0     C58507   3.129   8.047   4.096 -0.2564  0.4640  0.1001
  444MOL0     C58508   3.052   8.159   4.079  0.8899 -0.1742  0.3901
  444MOL0     C58509   2.908   8.158   4.103  0.1837 -0.0386  0.0774
  444MOL0     C58510   2.848   8.037   4.145 -0.7283 -0.1315  0.4174
  444MOL0     O58511   2.714   8.014   4.173  0.0945 -0.3238 -0.4554
  444MOL0     C58512   2.626   8.130   4.174  0.5669  0.0915 -0.0770
  444MOL0     C58513   2.483   8.054   4.170  0.3804 -0.9488 -0.7767
  444MOL0     C58514   2.369   8.152   4.150  0.0285  0.3799 -0.4520
  444MOL0     C58515   2.227   8.090   4.162 -0.2369  0.4380 -0.7750
  444MOL0     C58516   2.127   8.205   4.160 -0.3652  0.5896 -0.0189
  444MOL0     C58517   1.985   8.156   4.148 -0.6568  0.2739  0.8624
  444MOL0     C58518   1.884   8.270   4.149 -0.0769  0.8421  0.1171
  444MOL0     C58519   1.737   8.227   4.130 -0.9956 -0.1487 -0.9772
  444MOL0    Cl58520   1.720   8.121   3.987 -0.1646 -0.1170  0.3711
  444MOL0     C58521   2.927   7.929   4.164 -1.0099  0.2880  0.3163
  444MOL0     C58522   3.063   7.930   4.136 -0.6533  1.1445 -0.0220
  444MOL0     O58523   3.302   7.874   3.960  0.2203 -0.6398  0.9090
  444MOL0     C58524   3.582   7.885   3.995 -0.1157 -0.8751  0.4121
  444MOL0     C58525   3.718   7.899   4.019  0.2808  0.2525  1.1176
  444MOL0     N58526   4.266   7.931   4.518  0.8144  0.5980  0.1532
  444MOL0     N58527   4.345   7.867   4.610 -0.8447  0.7010  0.5378
  444MOL0     C58528   5.192   8.431   5.199  0.1904 -0.4309 -0.6505
  444MOL0     C58529   5.305   8.439   5.265 -0.3136 -0.3507  0.2398
  444MOL0     C58530   5.601   8.353   5.639 -0.1362  0.4022 -0.0223
  444MOL0     C58531   5.719   8.370   5.559 -0.9668  0.2152  0.3882
  444MOL0     C58532   5.851   8.354   5.611 -0.5502  1.0836 -0.3279
  444MOL0     C58533   5.863   8.324   5.750 -0.1156  0.2606  0.1369
  444MOL0     O58534   5.990   8.315   5.797 -0.2693 -0.1202 -0.0712
  444MOL0     C58535   6.006   8.279   5.934 -0.5147 -0.2701 -0.1429
  444MOL0     C58536   6.154   8.280   5.973 -0.0270  0.0940  0.2712
  444MOL0     C58537   6.211   8.414   5.955 -0.0191 -0.2022 -0.5522
  444MOL0     C58538   6.136   8.539   6.003  0.1498 -0.1611 -0.4059
  444MOL0     C58539   6.230   8.644   6.038 -0.2417 -0.2828  0.0992
  444MOL0     C58540   6.310   8.734   6.065  0.5372  0.1354 -0.4705
  444MOL0     C58541   5.750   8.300   5.830  1.0562  0.5749 -0.2489
  444MOL0     C58542   5.622   8.313   5.771 -1.1116  0.0561 -0.1057
  444MOL0     H58543   5.232   8.229   5.520  1.3437  0.7957 -0.2555
  444MOL0     H58544   5.008   8.224   5.399  0.0902  0.0729 -1.9106
  444MOL0     H58545   5.036   8.360   4.974  0.3226 -0.4167  0.8112
  444MOL0     H58546   4.988   8.509   5.056 -1.9671  1.1766 -1.3590
  444MOL0     H58547   4.829   8.436   4.878 -0.6975  0.8872 -0.0330
  444MOL0     H58548   4.752   8.447   5.041  0.2600  0.2714  1.2162
  444MOL0     H58549   4.753   8.196   5.047 -0.7414  0.8168 -0.2243
  444MOL0     H58550   4.858   8.191   4.902  0.0718 -0.0890 -0.0524
  444MOL0     H58551   4.587   8.317   4.905  0.6405  0.2200  0.2337
  444MOL0     H58552   4.678   8.293   4.764 -2.0776  1.7629  0.5476
  444MOL0     H58553   4.503   8.099   4.790  0.1871  0.3910  1.2502
  444MOL0     H58554   4.580   8.053   4.942 -2.6796  0.1940  0.6535
  444MOL0     H58555   4.785   8.013   4.809 -1.0944  0.6120  1.5688
  444MOL0     H58556   4.707   8.035   4.653 -2.4643  0.7197  0.0002
  444MOL0     H58557   4.686   7.785   4.816 -1.2262 -0.2118  1.6462
  444MOL0     H58558   4.538   7.870   4.827  2.2684  1.3008  1.3908
  444MOL0     H58559   4.546   7.698   4.640  0.8460 -0.7397 -1.8651
  444MOL0     H58560   4.666   7.799   4.558 -2.2789  1.6966 -2.3042
  444MOL0     H58561   4.561   7.934   4.369  1.7159 -0.1427  1.0622
  444MOL0     H58562   4.384   8.029   4.208  3.4864 -1.5721  2.0658
  444MOL0     H58563   4.290   8.154   4.291  0.5738  0.1436 -2.6161
  444MOL0     H58564   4.107   7.997   4.336  0.3307 -2.2782  1.8824
  444MOL0     H58565   4.175   7.878   4.230 -0.5495 -0.8260  0.2503
  444MOL0     H58566   4.079   8.151   4.171  0.4166 -0.2522  0.4087
  444MOL0     H58567   4.178   8.068   4.039 -1.6286 -1.9738 -2.3018
  444MOL0     H58568   4.013   7.869   4.095  0.8063 -0.2506 -0.7347
  444MOL0     H58569   3.971   7.988   3.968 -0.5975  2.2129  0.6703
  444MOL0     H58570   3.689   8.129   4.269 -2.2423 -0.1947  1.4312
  444MOL0     H58571   3.450   8.109   4.208  0.1869 -1.2466  0.9355
  444MOL0     H58572   3.112   8.244   4.049  0.9631 -0.4115 -0.1379
  444MOL0     H58573   2.850   8.248   4.088 -1.1745 -0.7253  0.9634
  444MOL0     H58574   2.639   8.197   4.089  1.9922 -1.1136 -0.8551
  444MOL0     H58575   2.629   8.180   4.271  0.0254  1.4954 -0.7550
  444MOL0     H58576   2.465   8.009   4.268  0.9165  0.4272 -0.0350
  444MOL0     H58577   2.477   7.979   4.090 -1.0820  1.6889 -3.3553
  444MOL0     H58578   2.367   8.193   4.048  0.2124  0.7859 -0.2966
  444MOL0     H58579   2.384   8.240   4.213  2.3391  1.5488 -2.4815
  444MOL0     H58580   2.200   8.013   4.089 -0.6949 -0.7738  0.6205
  444MOL0     H58581   2.210   8.049   4.262 -0.9373  1.6764 -0.3714
  444MOL0     H58582   2.165   8.272   4.083  0.2378 -0.5174 -0.7147
  444MOL0     H58583   2.135   8.267   4.249  0.3232 -2.2533  2.0396
  444MOL0     H58584   1.965   8.083   4.226  0.0197 -1.6521 -0.6807
  444MOL0     H58585   1.985   8.102   4.052  7.0365 -2.0963  1.5035
  444MOL0     H58586   1.896   8.327   4.242 -0.1620  1.3341 -0.1694
  444MOL0     H58587   1.910   8.336   4.066  1.7563  1.6982  1.3112
  444MOL0     H58588   1.676   8.317   4.120 -0.5176  0.1801 -0.9669
  444MOL0     H58589   1.707   8.173   4.220  0.1171 -1.0262 -1.1152
  444MOL0     H58590   2.880   7.835   4.191  1.5388 -1.2686 -0.3264
  444MOL0     H58591   3.122   7.839   4.139 -3.3873 -0.9704 -2.8798
  444MOL0     H58592   3.545   7.814   3.922 -0.5069  2.3647 -2.8913
  444MOL0     H58593   3.789   7.838   3.963  1.0071  0.1430  2.1201
  444MOL0     H58594   5.192   8.479   5.101 -1.9039 -0.4559 -0.7185
  444MOL0     H58595   5.389   8.504   5.242 -0.1276 -0.6236  0.1465
  444MOL0     H58596   5.688   8.389   5.457 -0.3267  0.9360  0.3203
  444MOL0     H58597   5.928   8.383   5.541  0.4059 -0.3023  0.1053
  444MOL0     H58598   5.970   8.176   5.939  0.2155 -0.5176  0.1782
  444MOL0     H58599   5.951   8.354   5.991 -0.0364  0.8093 -1.0746
  444MOL0     H58600   6.172   8.245   6.075  1.8517  0.4928  0.1018
  444MOL0     H58601   6.203   8.209   5.906  1.5182  2.7025 -1.5432
  444MOL0     H58602   6.238   8.436   5.851  1.0632  0.0351 -0.2377
  444MOL0     H58603   6.305   8.407   6.010 -0.2006 -0.7272 -0.2993
  444MOL0     H58604   6.075   8.576   5.920  0.2243  3.1305  0.8598
  444MOL0     H58605   6.068   8.526   6.088  0.6044  0.0693  0.0018
  444MOL0     H58606   6.361   8.809   6.121  1.0869 -0.6360  0.0995
  444MOL0     H58607   5.759   8.256   5.929  0.2944  0.5974 -0.1653
  444MOL0     H58608   5.536   8.290   5.833 -0.4385  1.9735  1.6296
  445MOL0     O58609   9.517  10.047   8.231  0.0652 -0.1324  0.4586
  445MOL0     C58610   9.610   9.991   8.177  0.0525  0.1807 -0.4141
  445MOL0     O58611   9.628   9.854   8.174 -0.2944 -0.5936 -0.2067
  445MOL0     C58612   9.527   9.759   8.185  0.5806  0.8485  0.6656
  445MOL0     C58613   9.400   9.769   8.248 -0.3700  0.4776 -0.1175
  445MOL0     C58614   9.299   9.668   8.235  0.2986 -0.8885  0.0008
  445MOL0     C58615   9.323   9.560   8.153  0.1058  1.0016 -0.1291
  445MOL0     O58616   9.227   9.464   8.127  0.0362  0.1728 -0.1272
  445MOL0     C58617   9.095   9.477   8.158  0.0661 -0.4227 -0.1598
  445MOL0     C58618   9.056   9.389   8.278  0.2019  0.0258 -0.0521
  445MOL0     C58619   8.904   9.374   8.282 -0.3185  0.0958 -0.7232
  445MOL0     C58620   8.828   9.279   8.186 -0.0048 -0.9842  0.8844
  445MOL0     C58621   8.687   9.249   8.225  0.1984 -0.4655 -0.3987
  445MOL0     C58622   8.687   9.155   8.345  0.0285  0.1937  0.6437
  445MOL0     C58623   8.546   9.113   8.390  0.5767  0.2912 -0.0096
  445MOL0     C58624   8.452   9.212   8.459 -0.4883 -0.1410 -0.1317
  445MOL0     N58625   8.515   9.294   8.569 -0.4507 -0.2980 -0.2801
  445MOL0     C58626   8.591   9.409   8.544  0.2591 -0.8274 -0.0891
  445MOL0     C58627   8.646   9.447   8.663  0.2099 -1.0988 -1.1930
  445MOL0     C58628   8.713   9.585   8.693  0.2933  0.2031  0.2118
  445MOL0     C58629   8.863   9.568   8.675  0.2362  0.2506  0.2993
  445MOL0     C58630   8.924   9.709   8.695 -0.7772  0.3416  0.3860
  445MOL0     C58631   9.076   9.702   8.646  0.1429 -0.3394 -0.0521
  445MOL0     O58632   9.151   9.604   8.718  0.4711  0.3405  0.2371
  445MOL0     C58633   9.275   9.563   8.678 -0.5058  0.3752 -0.0616
  445MOL0     C58634   9.351   9.628   8.577  0.3737 -0.0402 -0.0771
  445MOL0     C58635   9.465   9.575   8.524  0.1083 -0.3926 -0.4071
  445MOL0     C58636   9.522   9.457   8.576  0.5168  0.1632  0.2380
  445MOL0     C58637   9.644   9.396   8.520 -0.2893 -0.6909  0.4353
  445MOL0     O58638   9.720   9.469   8.421 -0.2839 -0.2010  0.2016
  445MOL0     C58639   9.850   9.442   8.383 -0.1324 -0.0122 -0.4775
  445MOL0     C58640   9.891   9.504   8.262 -0.6130  0.2578  0.3950
  445MOL0     C58641  10.027   9.487   8.224  0.3555  0.0915 -0.4036
  445MOL0     C58642  10.112   9.400   8.287 -0.3778  0.8914  0.5478
  445MOL0     O58643  10.243   9.383   8.244  0.2984 -0.0632 -0.6446
  445MOL0     C58644  10.322   9.286   8.310 -0.4597  0.0791 -0.0402
  445MOL0     C58645  10.456   9.283   8.246  0.6934  0.8372 -0.4955
  445MOL0     C58646  10.550   9.189   8.321 -0.1647 -0.1104 -0.2300
  445MOL0     C58647  10.688   9.187   8.248 -0.8133  0.2029  0.1439
  445MOL0     C58648  10.783   9.085   8.313 -0.2861 -0.3086  0.4553
  445MOL0     C58649  10.900   9.049   8.221 -0.0954 -0.7698 -0.3844
  445MOL0     C58650  10.975   9.180   8.177  0.6499 -0.1429  0.7288
  445MOL0     C58651  11.129   9.163   8.163  0.5904  1.0716 -0.2056
  445MOL0    Cl58652  11.182   9.307   8.100  0.2750 -0.8180  0.3639
  445MOL0     C58653  10.064   9.334   8.405 -0.1820  0.3140 -1.2893
  445MOL0     C58654   9.936   9.352   8.455 -0.3424  0.0578  0.2108
  445MOL0     O58655   9.663   9.289   8.561  0.1435 -0.1653 -0.5971
  445MOL0     C58656   9.460   9.392   8.687 -0.2624 -0.0528 -0.2990
  445MOL0     C58657   9.332   9.442   8.727 -0.6809 -0.0732 -0.1253
  445MOL0     N58658   8.600   9.356   8.757 -0.4682 -0.0997 -0.1387
  445MOL0     N58659   8.530   9.258   8.699  0.3912 -0.3529 -0.0962
  445MOL0     C58660   9.447   9.543   8.091 -0.4335  0.6714  0.3182
  445MOL0     C58661   9.546   9.643   8.106  0.7034  0.7671 -0.6472
  445MOL0     C58662   9.721  10.069   8.128  0.4364 -0.6535 -0.4121
  445MOL0     C58663   9.714  10.210   8.152 -0.4781  0.8597 -0.3459
  445MOL0     C58664   9.820  10.291   8.106 -0.0477  0.4654 -0.1451
  445MOL0     C58665   9.933  10.237   8.043  0.5995 -0.1463  0.0233
  445MOL0     O58666  10.028  10.330   8.009  0.0841 -0.6892 -0.2967
  445MOL0     C58667  10.155  10.286   7.966  0.5089  0.0264 -0.5631
  445MOL0     C58668  10.249  10.240   8.070 -0.4845 -0.4805 -0.3704
  445MOL0     C58669  10.375  10.188   8.008  0.7025 -0.0637  0.1198
  445MOL0     C58670  10.485  10.172   8.115  0.1984 -0.3726 -0.1495
  445MOL0     C58671  10.570  10.292   8.121 -0.2214  0.0045  0.1292
  445MOL0     C58672  10.713  10.418   8.153  0.1971  0.6837  0.4707
  445MOL0     C58673   9.933  10.094   8.022 -0.3012 -0.6700  0.4135
  445MOL0     C58674   9.836  10.009   8.079  0.6903  0.3404 -0.2781
  445MOL0     H58675   9.384   9.850   8.319  0.9907 -0.5223  1.4115
  445MOL0     H58676   9.210   9.679   8.297  0.7385  1.1334  0.3452
  445MOL0     H58677   9.041   9.442   8.070  2.3320 -1.0788 -1.3715
  445MOL0     H58678   9.073   9.582   8.179  0.2858 -0.5463  0.7193
  445MOL0     H58679   9.075   9.451   8.365 -3.3987  0.9994  0.2071
  445MOL0     H58680   9.109   9.293   8.283  0.1190  0.0494  1.5359
  445MOL0     H58681   8.854   9.470   8.265 -1.7729 -1.2531 -5.8687
  445MOL0     H58682   8.889   9.334   8.383  5.0762  1.2738  0.8818
  445MOL0     H58683   8.827   9.331   8.090  3.0583 -1.0290  0.7259
  445MOL0     H58684   8.883   9.185   8.172 -0.3436 -1.3376  1.8152
  445MOL0     H58685   8.643   9.208   8.134  1.2688 -1.5809 -0.4458
  445MOL0     H58686   8.634   9.340   8.256  0.8470  0.0935 -0.8940
  445MOL0     H58687   8.741   9.197   8.430  0.8122  0.2151  0.1458
  445MOL0     H58688   8.726   9.056   8.321 -2.8235 -0.8762  0.1111
  445MOL0     H58689   8.498   9.070   8.302  1.0610  0.3847 -0.3267
  445MOL0     H58690   8.576   9.039   8.465  4.8786 -0.9076 -2.5187
  445MOL0     H58691   8.372   9.153   8.504 -0.5540 -0.6539 -0.9172
  445MOL0     H58692   8.411   9.289   8.393 -0.4004  0.1107  0.1050
  445MOL0     H58693   8.590   9.456   8.446 -0.1680 -1.3925 -0.3631
  445MOL0     H58694   8.688   9.614   8.796 -0.4060  1.0808 -0.1962
  445MOL0     H58695   8.684   9.665   8.624 -0.0563  0.7767  0.9992
  445MOL0     H58696   8.887   9.538   8.572  2.9051 -1.7549  1.4059
  445MOL0     H58697   8.894   9.491   8.746  0.9029  0.1856 -0.0484
  445MOL0     H58698   8.871   9.786   8.639 -0.8767 -1.4499 -2.1557
  445MOL0     H58699   8.913   9.736   8.801 -0.4349 -0.1232  0.5444
  445MOL0     H58700   9.117   9.803   8.647 -1.1339  0.2630 -1.9604
  445MOL0     H58701   9.055   9.677   8.542 -2.2973 -0.7335  0.4563
  445MOL0     H58702   9.311   9.721   8.539  1.6288  1.2216  1.5316
  445MOL0     H58703   9.515   9.627   8.444  0.0823 -1.5069 -1.1751
  445MOL0     H58704   9.822   9.562   8.202 -0.7736 -1.0550 -0.7260
  445MOL0     H58705  10.054   9.532   8.129  2.1304 -0.5668 -0.2534
  445MOL0     H58706  10.274   9.189   8.299  0.1631  0.0217 -3.6266
  445MOL0     H58707  10.339   9.303   8.416  1.7887 -0.7398 -0.2064
  445MOL0     H58708  10.502   9.382   8.251 -0.6114  1.5264 -1.4907
  445MOL0     H58709  10.436   9.245   8.146  3.0694 -2.0059 -0.0142
  445MOL0     H58710  10.520   9.084   8.330  0.1450 -0.2877 -1.1628
  445MOL0     H58711  10.558   9.212   8.427  0.0252 -2.0218  0.2094
  445MOL0     H58712  10.655   9.167   8.146 -3.8191 -1.3623  1.3165
  445MOL0     H58713  10.729   9.289   8.255 -0.5269  0.0176  1.6515
  445MOL0     H58714  10.726   8.997   8.343  0.7059 -1.0337  0.2846
  445MOL0     H58715  10.821   9.129   8.406 -0.9383 -0.3150  0.7322
  445MOL0     H58716  10.846   9.000   8.139 -1.7869  0.3570 -0.0025
  445MOL0     H58717  10.971   8.973   8.255  0.2171  0.2925  1.4458
  445MOL0     H58718  10.935   9.217   8.082 -2.3019  2.4996  2.7993
  445MOL0     H58719  10.954   9.254   8.254  0.1881 -0.5852  1.0403
  445MOL0     H58720  11.159   9.077   8.100  2.8348  0.1948  1.8791
  445MOL0     H58721  11.168   9.135   8.261 -2.7892 -1.4194  0.6042
  445MOL0     H58722  10.127   9.270   8.466 -1.1038 -0.9124 -1.5921
  445MOL0     H58723   9.904   9.299   8.544 -1.3475 -2.2189 -1.4178
  445MOL0     H58724   9.503   9.313   8.747 -2.6145  0.4496  2.2617
  445MOL0     H58725   9.286   9.383   8.806 -1.9433  0.8178 -0.1787
  445MOL0     H58726   9.452   9.465   8.015 -2.1908  0.8086  0.0087
  445MOL0     H58727   9.642   9.638   8.056  0.1013 -2.2253 -1.7311
  445MOL0     H58728   9.630  10.265   8.193 -0.2973 -0.3455  1.7804
  445MOL0     H58729   9.819  10.398   8.124  1.5498  0.4604  0.0665
  445MOL0     H58730  10.206  10.371   7.920  3.0975 -0.1638  1.7305
  445MOL0     H58731  10.137  10.209   7.889  0.4765  0.9066 -1.4593
  445MOL0     H58732  10.266  10.323   8.138  0.5973 -0.0735 -1.1184
  445MOL0     H58733  10.205  10.166   8.138 -0.5288  0.3185  0.4863
  445MOL0     H58734  10.403  10.251   7.922  2.4169 -1.1941 -0.2036
  445MOL0     H58735  10.353  10.090   7.967 -0.0458 -0.4280  1.3376
  445MOL0     H58736  10.446  10.156   8.216 -0.2701 -0.8991 -0.4086
  445MOL0     H58737  10.549  10.087   8.094 -0.2272 -0.5157 -0.9118
  445MOL0     H58738  10.793  10.488   8.158 -0.2661  1.1665  1.7154
  445MOL0     H58739  10.011  10.045   7.965  0.2194  1.7332 -1.0845
  445MOL0     H58740   9.836   9.901   8.072 -5.3043 -0.0847  1.0307
  446MOL0     O58741   4.562   7.486   5.976 -0.6289  0.0922  0.0472
  446MOL0     C58742   4.674   7.523   6.016 -0.8621  0.3068  0.6360
  446MOL0     O58743   4.710   7.652   6.059  0.6228 -0.4288 -0.0711
  446MOL0     C58744   4.614   7.746   6.064 -0.2688 -0.4576  0.6587
  446MOL0     C58745   4.505   7.732   6.154 -0.1360 -0.9403 -0.6961
  446MOL0     C58746   4.417   7.842   6.154  0.6726  0.6190 -0.3292
  446MOL0     C58747   4.416   7.947   6.064 -0.0821 -0.4082 -0.4359
  446MOL0     O58748   4.310   8.028   6.065 -0.1997 -0.2009  0.2369
  446MOL0     C58749   4.319   8.151   5.985  0.0678 -0.0367  0.0897
  446MOL0     C58750   4.203   8.239   6.028 -0.3137  1.0982  0.8456
  446MOL0     C58751   4.190   8.363   5.944  0.4092 -0.4639  0.3499
  446MOL0     C58752   4.059   8.434   5.984  1.0408  0.4979  0.2809
  446MOL0     C58753   4.013   8.552   5.876 -0.8291 -0.1203 -0.1462
  446MOL0     C58754   4.094   8.672   5.902 -1.5418  0.6975  0.1290
  446MOL0     C58755   4.046   8.791   5.812 -0.2737  0.1286 -0.2909
  446MOL0     C58756   4.065   8.767   5.661  0.1765 -0.2417 -0.5018
  446MOL0     N58757   4.085   8.898   5.596  0.2143 -0.2251 -0.4589
  446MOL0     C58758   4.005   9.017   5.616  0.3042 -0.1264 -0.4835
  446MOL0     C58759   4.074   9.115   5.557  0.8746 -0.0550  0.0521
  446MOL0     C58760   4.027   9.261   5.565 -0.0978 -0.8111  0.3567
  446MOL0     C58761   3.931   9.279   5.448 -0.5263 -0.8103  0.3163
  446MOL0     C58762   3.883   9.422   5.435  0.0298  0.1295 -0.0809
  446MOL0     C58763   3.738   9.435   5.378  0.4569  0.4239  0.2523
  446MOL0     O58764   3.740   9.382   5.245  0.0421  0.6761 -0.0611
  446MOL0     C58765   3.630   9.424   5.166  0.2968  0.2072  0.2662
  446MOL0     C58766   3.641   9.415   5.027  0.8967 -0.3059  0.2077
  446MOL0     C58767   3.540   9.455   4.941 -0.0455  0.1124 -0.5526
  446MOL0     C58768   3.417   9.513   4.995  0.7083 -0.2866 -0.8565
  446MOL0     C58769   3.308   9.562   4.906  0.0483  0.3474 -0.2069
  446MOL0     O58770   3.196   9.615   4.963 -0.3009 -0.3316 -0.0198
  446MOL0     C58771   3.103   9.683   4.891 -0.5083 -0.1757  0.0892
  446MOL0     C58772   2.998   9.728   4.967 -0.3602  0.5493  0.6572
  446MOL0     C58773   2.896   9.797   4.902  0.3941  0.7859 -0.3949
  446MOL0     C58774   2.889   9.825   4.769  0.1753 -0.0101 -0.3184
  446MOL0     O58775   2.789   9.899   4.712  0.1084 -0.0775 -0.7512
  446MOL0     C58776   2.803   9.942   4.577 -0.8725  0.2867  0.3577
  446MOL0     C58777   2.666  10.008   4.532  0.2342 -0.0911  0.1210
  446MOL0     C58778   2.534   9.939   4.577  0.3558  0.0913  0.0364
  446MOL0     C58779   2.508   9.810   4.492 -0.3528 -0.1540 -0.7126
  446MOL0     C58780   2.369   9.746   4.501 -0.3742  0.6267  0.0669
  446MOL0     C58781   2.244   9.850   4.517 -0.3796 -0.3243  0.4506
  446MOL0     C58782   2.213   9.954   4.406 -0.6931  0.0417 -1.5358
  446MOL0     C58783   2.126  10.061   4.465  0.0817 -0.7848  0.3375
  446MOL0    Cl58784   2.238  10.171   4.533 -0.2442  0.0627  0.0398
  446MOL0     C58785   2.998   9.780   4.697 -0.1117  0.3239  0.0835
  446MOL0     C58786   3.108   9.707   4.754  0.3769 -0.1632  0.4310
  446MOL0     O58787   3.331   9.550   4.785  0.0615 -0.3998  0.1660
  446MOL0     C58788   3.411   9.538   5.133 -0.0550 -0.6104  0.5713
  446MOL0     C58789   3.512   9.495   5.221 -1.1440  0.3794  0.0997
  446MOL0     N58790   4.179   9.066   5.488  1.0381  0.2993 -0.5172
  446MOL0     N58791   4.193   8.935   5.524  0.1316  0.4181  0.2420
  446MOL0     C58792   4.530   7.955   5.977  1.0709  0.5985  0.1234
  446MOL0     C58793   4.632   7.861   5.980 -0.0713  0.0766 -0.9535
  446MOL0     C58794   4.798   7.439   5.979  0.5732  0.4818 -0.1354
  446MOL0     C58795   4.784   7.341   5.883 -0.0654 -0.2952 -0.2052
  446MOL0     C58796   4.898   7.265   5.857  0.4536 -0.4643  0.3990
  446MOL0     C58797   5.020   7.280   5.919  1.0202  0.5481  0.5811
  446MOL0     O58798   5.133   7.213   5.892  0.3349  0.2392 -0.0596
  446MOL0     C58799   5.142   7.113   5.793  0.5777 -0.3707 -0.2918
  446MOL0     C58800   5.289   7.075   5.783  0.5907  0.5160 -0.1764
  446MOL0     C58801   5.299   6.939   5.710  0.8783  0.0078 -0.1965
  446MOL0     C58802   5.250   6.833   5.808  0.4841  0.5403 -0.1418
  446MOL0     C58803   5.310   6.702   5.767 -0.6984 -0.4303  0.1439
  446MOL0     C58804   5.348   6.590   5.733  0.0868  0.3944 -0.0831
  446MOL0     C58805   5.028   7.371   6.024  0.1683  0.2553 -0.1350
  446MOL0     C58806   4.917   7.457   6.053 -0.4022 -0.2482 -0.5910
  446MOL0     H58807   4.476   7.647   6.216 -1.9808  0.7756  0.9410
  446MOL0     H58808   4.338   7.820   6.225  1.6149  2.2114  1.3017
  446MOL0     H58809   4.314   8.125   5.879 -0.1242 -0.6500  0.2434
  446MOL0     H58810   4.413   8.204   6.005 -1.5503  2.1599  2.3725
  446MOL0     H58811   4.214   8.276   6.130  0.7780  1.5691  0.5742
  446MOL0     H58812   4.109   8.184   6.026 -1.1032  2.4223  0.8253
  446MOL0     H58813   4.182   8.332   5.839  0.1703 -0.4442  0.3634
  446MOL0     H58814   4.281   8.424   5.939  1.4557 -2.0131 -0.4249
  446MOL0     H58815   3.979   8.360   5.987  1.8477 -0.3636  1.7479
  446MOL0     H58816   4.081   8.474   6.083  1.3045 -3.5310  2.0505
  446MOL0     H58817   3.908   8.568   5.904  0.0760  0.1646  3.7528
  446MOL0     H58818   4.019   8.524   5.771 -0.3042  1.7893 -0.6458
  446MOL0     H58819   4.201   8.653   5.888 -1.7600 -0.2115 -0.3820
  446MOL0     H58820   4.090   8.704   6.006  0.0477 -3.0922  1.5318
  446MOL0     H58821   3.939   8.808   5.830 -0.5558 -0.7103 -1.0760
  446MOL0     H58822   4.107   8.879   5.829  1.3615 -0.6906 -1.6072
  446MOL0     H58823   3.976   8.721   5.615 -0.6566  1.3920 -0.6191
  446MOL0     H58824   4.154   8.709   5.633  1.6726  1.0004  1.4882
  446MOL0     H58825   3.911   9.030   5.669  0.4063 -0.7077 -0.1503
  446MOL0     H58826   4.113   9.326   5.551  0.6498 -1.6492  0.8915
  446MOL0     H58827   3.972   9.292   5.654  0.6918  0.4370  0.4231
  446MOL0     H58828   3.849   9.210   5.470 -0.0064 -1.0165  1.7233
  446MOL0     H58829   3.974   9.249   5.352 -0.0036 -0.6465  0.4995
  446MOL0     H58830   3.887   9.473   5.531 -2.7134  3.0680 -1.3330
  446MOL0     H58831   3.962   9.469   5.375 -0.4937  1.4511  0.2273
  446MOL0     H58832   3.726   9.544   5.387  1.2699  0.4562  1.0045
  446MOL0     H58833   3.671   9.376   5.441 -0.5440 -1.0758 -2.1056
  446MOL0     H58834   3.724   9.363   4.978  2.6620  0.7404  1.9506
  446MOL0     H58835   3.542   9.425   4.837  0.4258  0.3283 -0.6054
  446MOL0     H58836   2.998   9.718   5.075 -1.2404  1.2841  0.7377
  446MOL0     H58837   2.816   9.838   4.962  0.7864  1.0128 -0.0223
  446MOL0     H58838   2.830   9.859   4.511  4.5800  1.4845  0.6049
  446MOL0     H58839   2.885  10.011   4.558  0.3624 -1.1050  0.4661
  446MOL0     H58840   2.659  10.018   4.423 -0.8355  0.3520  0.2138
  446MOL0     H58841   2.666  10.114   4.557 -2.0338 -0.0254  0.0697
  446MOL0     H58842   2.448  10.005   4.564 -0.1867 -0.2379  1.6673
  446MOL0     H58843   2.536   9.926   4.686  3.9147  0.7090  0.1650
  446MOL0     H58844   2.533   9.811   4.386  1.2894 -1.1047 -0.3664
  446MOL0     H58845   2.575   9.734   4.533 -1.9599 -0.0422  2.3814
  446MOL0     H58846   2.353   9.687   4.591  0.1680  0.2660 -0.0707
  446MOL0     H58847   2.356   9.676   4.418  0.9684 -0.5769  0.8265
  446MOL0     H58848   2.268   9.896   4.613 -0.9642  0.6777  0.1232
  446MOL0     H58849   2.156   9.787   4.531 -0.0826 -0.8953 -0.2113
  446MOL0     H58850   2.308   9.991   4.367 -0.0371  0.2322  0.1585
  446MOL0     H58851   2.172   9.904   4.318  0.5881  0.6098 -2.4867
  446MOL0     H58852   2.046  10.029   4.534 -0.3042  0.1103  0.3283
  446MOL0     H58853   2.075  10.113   4.384 -1.6555  0.7326  2.2806
  446MOL0     H58854   3.003   9.776   4.588 -2.0394  0.9547 -0.0638
  446MOL0     H58855   3.184   9.677   4.683 -1.5926  0.3146 -2.0193
  446MOL0     H58856   3.336   9.602   5.178  0.6941  0.5533  0.1982
  446MOL0     H58857   3.492   9.514   5.327 -1.3836  0.9051 -0.0322
  446MOL0     H58858   4.532   8.023   5.893 -2.3943 -1.2000 -1.6235
  446MOL0     H58859   4.717   7.876   5.915 -0.1354  0.6436 -0.9123
  446MOL0     H58860   4.689   7.320   5.835 -1.2587 -0.7968  2.2589
  446MOL0     H58861   4.892   7.185   5.784 -1.0987  0.4991 -0.5649
  446MOL0     H58862   5.098   7.148   5.699  0.3146  0.7328  0.2334
  446MOL0     H58863   5.078   7.027   5.816 -0.2914  0.7289  1.7249
  446MOL0     H58864   5.336   7.156   5.727  0.2003  0.2705 -0.8835
  446MOL0     H58865   5.336   7.070   5.881  0.6007  1.1540 -0.1449
  446MOL0     H58866   5.402   6.919   5.681  0.5039 -0.7962 -1.0114
  446MOL0     H58867   5.242   6.930   5.617  1.6450  0.0519 -0.6774
  446MOL0     H58868   5.277   6.849   5.913 -0.5661  0.4536  0.1491
  446MOL0     H58869   5.141   6.833   5.801  0.5302 -0.8845 -1.1133
  446MOL0     H58870   5.366   6.484   5.733  0.1881  0.3784  1.6011
  446MOL0     H58871   5.127   7.381   6.066  0.5878 -2.1515 -0.4056
  446MOL0     H58872   4.934   7.528   6.133 -0.6986 -0.4178 -0.3751
  447MOL0     O58873   8.329   1.068   8.057  0.0925  0.4438 -0.7886
  447MOL0     C58874   8.395   0.978   7.999  0.5157 -0.4394  0.0340
  447MOL0     O58875   8.348   0.853   7.968  0.4125 -0.2850  0.2699
  447MOL0     C58876   8.231   0.824   8.023  0.3483  0.8811  0.3837
  447MOL0     C58877   8.228   0.733   8.126  0.0182  0.7305 -0.4560
  447MOL0     C58878   8.111   0.708   8.200  0.1957 -0.6173  0.3770
  447MOL0     C58879   7.992   0.773   8.154  0.4684 -0.6730 -0.2013
  447MOL0     O58880   7.872   0.738   8.205  0.5430 -0.2766  0.6360
  447MOL0     C58881   7.799   0.841   8.276  0.2532  0.2677 -0.7426
  447MOL0     C58882   7.716   0.928   8.189  0.1301 -0.1860  0.8630
  447MOL0     C58883   7.617   0.852   8.100 -0.9234  0.2968  0.4770
  447MOL0     C58884   7.538   0.945   8.009 -0.2818 -0.3217  0.5682
  447MOL0     C58885   7.409   1.007   8.080 -0.9823 -0.0699  0.3461
  447MOL0     C58886   7.298   0.894   8.105  0.7513 -0.2443  0.8375
  447MOL0     C58887   7.227   0.839   7.974 -0.6212 -0.1487 -0.0005
  447MOL0     C58888   7.103   0.763   7.980  0.5895 -0.1521 -0.2886
  447MOL0     N58889   6.987   0.838   8.034  1.0237 -0.0483  0.9556
  447MOL0     C58890   6.854   0.801   8.009 -0.6810 -0.2945  0.1018
  447MOL0     C58891   6.774   0.888   8.068 -0.4855 -0.2607  0.0291
  447MOL0     C58892   6.625   0.889   8.081  0.7235  0.3294  0.3787
  447MOL0     C58893   6.540   0.885   7.948  0.1234  0.2185  0.9712
  447MOL0     C58894   6.387   0.916   7.958  0.4394 -0.2935  1.1527
  447MOL0     C58895   6.316   0.928   7.817  0.8748 -0.1093  0.5169
  447MOL0     O58896   6.177   0.942   7.840  0.3554 -0.6045  0.2086
  447MOL0     C58897   6.092   0.956   7.736 -0.4375 -1.3118  0.4113
  447MOL0     C58898   5.955   0.983   7.760 -0.9395 -0.5405  0.1661
  447MOL0     C58899   5.862   0.983   7.656  0.1340  0.1581  0.5998
  447MOL0     C58900   5.901   0.956   7.522  0.4929  0.2332 -0.2742
  447MOL0     C58901   5.804   0.928   7.413 -0.3782  0.1594  0.1573
  447MOL0     O58902   5.669   0.936   7.452 -0.8390  0.3717 -0.5598
  447MOL0     C58903   5.575   0.935   7.356 -0.1475  0.3072 -0.2174
  447MOL0     C58904   5.476   1.035   7.362 -0.2540 -0.0754  0.3974
  447MOL0     C58905   5.377   1.038   7.262 -0.1778  0.5753 -0.4671
  447MOL0     C58906   5.372   0.942   7.165  0.3482 -0.1430 -0.1463
  447MOL0     O58907   5.270   0.955   7.070 -0.5361 -0.1334 -0.3164
  447MOL0     C58908   5.245   0.842   6.997 -0.4444  0.2721 -0.9245
  447MOL0     C58909   5.139   0.876   6.887 -0.6951  0.7216 -1.1798
  447MOL0     C58910   5.018   0.961   6.941  0.3334 -0.0943 -0.5069
  447MOL0     C58911   4.920   0.987   6.824  0.4692 -0.3642  0.0606
  447MOL0     C58912   4.796   1.064   6.866  0.9302  0.4900 -0.1799
  447MOL0     C58913   4.714   1.118   6.755  0.7836 -0.0271  0.2868
  447MOL0     C58914   4.580   1.181   6.784 -0.1443 -0.1037  0.8168
  447MOL0     C58915   4.529   1.245   6.656  0.3028 -1.6113  0.7507
  447MOL0    Cl58916   4.357   1.300   6.649 -0.0520  0.2481  0.5041
  447MOL0     C58917   5.464   0.831   7.168  0.1597 -0.0523  0.3837
  447MOL0     C58918   5.565   0.830   7.261 -0.0480 -0.0589 -0.1754
  447MOL0     O58919   5.843   0.933   7.297 -0.5607  0.1863  0.4208
  447MOL0     C58920   6.041   0.945   7.505  1.1221 -0.1692  0.5148
  447MOL0     C58921   6.130   0.938   7.597  0.5607 -0.1697  0.0546
  447MOL0     N58922   6.857   0.979   8.131 -0.4230 -0.2639 -0.1985
  447MOL0     N58923   6.980   0.942   8.110 -0.1788 -0.6341  0.3721
  447MOL0     C58924   7.998   0.858   8.040  0.1879  0.0303  0.2775
  447MOL0     C58925   8.112   0.872   7.968 -0.1265 -0.4200  0.3461
  447MOL0     C58926   8.538   1.003   7.966  0.0186 -0.1023 -0.2368
  447MOL0     C58927   8.590   1.138   7.983  0.0141  0.3803  0.1679
  447MOL0     C58928   8.724   1.178   7.960  0.6330 -0.0429 -0.0279
  447MOL0     C58929   8.803   1.085   7.895  0.3240 -0.7983  0.0336
  447MOL0     O58930   8.930   1.109   7.852  0.2787  0.1442  0.4270
  447MOL0     C58931   9.005   1.204   7.932  0.2143  0.3689  0.0330
  447MOL0     C58932   9.138   1.221   7.855 -0.7763 -0.7167  0.8665
  447MOL0     C58933   9.230   1.340   7.921  0.2261 -0.0099 -0.3811
  447MOL0     C58934   9.271   1.298   8.074 -0.5997 -0.1082  0.3017
  447MOL0     C58935   9.344   1.171   8.089 -0.5722 -0.3209 -0.2613
  447MOL0     C58936   9.416   1.074   8.120 -0.7511 -0.2350  0.7171
  447MOL0     C58937   8.757   0.949   7.881  0.2685  0.0943  0.1756
  447MOL0     C58938   8.628   0.910   7.914  0.0335  0.8951  0.3970
  447MOL0     H58939   8.321   0.682   8.151 -1.0319 -0.5930  0.9650
  447MOL0     H58940   8.123   0.627   8.271  2.0624 -1.3970 -0.7656
  447MOL0     H58941   7.874   0.891   8.338  0.4254  3.0538 -2.9784
  447MOL0     H58942   7.731   0.794   8.348  1.1312 -0.9382 -0.6725
  447MOL0     H58943   7.784   0.991   8.130 -1.4066  0.0759 -0.7277
  447MOL0     H58944   7.670   0.994   8.263  1.2071 -0.5465  1.8965
  447MOL0     H58945   7.551   0.791   8.163 -0.8724  0.0727  0.3153
  447MOL0     H58946   7.664   0.776   8.037 -0.7949 -0.4553  1.4559
  447MOL0     H58947   7.608   1.020   7.973  0.0172 -1.2775 -0.9291
  447MOL0     H58948   7.508   0.889   7.920  0.0715 -0.0400  0.2729
  447MOL0     H58949   7.363   1.091   8.028 -0.5918 -0.5310 -0.7739
  447MOL0     H58950   7.445   1.061   8.168  2.9032  2.0414 -2.2520
  447MOL0     H58951   7.210   0.936   8.154 -1.5839 -2.9755 -0.6226
  447MOL0     H58952   7.342   0.814   8.165  3.9578  1.0657  0.4139
  447MOL0     H58953   7.206   0.923   7.907  2.8633  0.6909 -0.2709
  447MOL0     H58954   7.302   0.782   7.919 -0.3262  1.8517 -1.8020
  447MOL0     H58955   7.114   0.667   8.033 -1.4158  0.9010  2.2752
  447MOL0     H58956   7.075   0.740   7.877 -1.8359  0.4374  0.1702
  447MOL0     H58957   6.823   0.714   7.952 -2.1760 -0.6506  1.3875
  447MOL0     H58958   6.590   0.971   8.144 -1.9944 -1.6529  1.6264
  447MOL0     H58959   6.612   0.801   8.143 -2.7450  0.8962  0.6184
  447MOL0     H58960   6.552   0.794   7.887  1.2275  2.0752 -1.7636
  447MOL0     H58961   6.583   0.964   7.886 -2.7486  1.5090  0.5017
  447MOL0     H58962   6.341   0.831   8.010  2.9905 -0.2601  3.7212
  447MOL0     H58963   6.364   1.005   8.018 -0.2035 -0.4378  1.1324
  447MOL0     H58964   6.327   0.841   7.751 -4.2006 -0.1149 -0.7345
  447MOL0     H58965   6.351   1.013   7.758  0.9160 -0.5642 -0.1334
  447MOL0     H58966   5.925   1.008   7.861  1.3988  0.5292  0.6639
  447MOL0     H58967   5.757   1.007   7.670 -1.0500 -3.5057 -0.8360
  447MOL0     H58968   5.475   1.103   7.447 -3.0047  0.3545  0.1049
  447MOL0     H58969   5.300   1.115   7.257 -0.6410  0.2086  0.8302
  447MOL0     H58970   5.203   0.774   7.071 -1.8903  4.0380  2.0680
  447MOL0     H58971   5.331   0.806   6.940  0.3584  0.3799  0.2001
  447MOL0     H58972   5.106   0.782   6.843 -2.9628  1.3260 -0.9388
  447MOL0     H58973   5.190   0.938   6.813  0.4972  1.2958  0.0702
  447MOL0     H58974   5.055   1.047   6.998 -2.5575  1.2032 -0.4032
  447MOL0     H58975   4.961   0.910   7.019  2.4922 -0.6607  0.7665
  447MOL0     H58976   4.967   1.036   6.738 -1.9210 -1.3810 -1.9749
  447MOL0     H58977   4.892   0.886   6.792  2.1019 -0.1634 -2.2970
  447MOL0     H58978   4.826   1.143   6.936  1.2033 -1.3702  1.9323
  447MOL0     H58979   4.735   0.995   6.925 -0.2876 -0.4209 -2.3613
  447MOL0     H58980   4.694   1.037   6.684  0.6611 -0.0355  0.3295
  447MOL0     H58981   4.774   1.188   6.697 -1.3125 -0.2621 -2.3341
  447MOL0     H58982   4.509   1.105   6.817  0.1348 -0.6286  0.2241
  447MOL0     H58983   4.590   1.256   6.864 -0.5824  0.1398  0.6416
  447MOL0     H58984   4.547   1.177   6.573 -0.0660  0.0228 -0.7402
  447MOL0     H58985   4.584   1.340   6.650  1.8997 -2.5130  0.6404
  447MOL0     H58986   5.448   0.750   7.096 -1.7172  0.7407 -0.1541
  447MOL0     H58987   5.631   0.744   7.262  0.5367  0.3787 -0.5623
  447MOL0     H58988   6.086   0.925   7.408  1.2388 -0.7518  0.6841
  447MOL0     H58989   6.235   0.919   7.574  1.5171  0.5164  3.2942
  447MOL0     H58990   7.912   0.919   8.016  1.1521  0.9585 -0.9232
  447MOL0     H58991   8.108   0.934   7.879  0.9963 -2.0396 -0.8763
  447MOL0     H58992   8.527   1.216   8.024 -1.2170 -0.6833  0.3801
  447MOL0     H58993   8.748   1.284   7.972 -1.2703  0.2544  1.8043
  447MOL0     H58994   9.021   1.162   8.032 -2.1877  1.7619  1.0885
  447MOL0     H58995   8.959   1.302   7.941  3.5599  2.1591 -0.5001
  447MOL0     H58996   9.199   1.130   7.846  0.1044 -0.0839  0.2232
  447MOL0     H58997   9.112   1.243   7.751 -3.0723 -2.3678  1.0208
  447MOL0     H58998   9.180   1.437   7.929  0.6221  0.0558  2.2118
  447MOL0     H58999   9.330   1.348   7.875  0.3084 -1.1271 -0.4188
  447MOL0     H59000   9.334   1.382   8.102 -2.4767  1.0287  1.2946
  447MOL0     H59001   9.185   1.285   8.140 -1.1989 -0.4449 -0.5277
  447MOL0     H59002   9.481   0.992   8.142  0.8674  0.4864 -1.1260
  447MOL0     H59003   8.812   0.873   7.826 -1.0704 -0.8165  0.0465
  447MOL0     H59004   8.598   0.806   7.906 -2.6260  1.5501  0.8996
  448MOL0     O59005   4.253   1.009   7.358 -0.0617  0.1454 -0.1252
  448MOL0     C59006   4.378   1.005   7.360  0.0501 -0.1618  0.2735
  448MOL0     O59007   4.460   1.111   7.317  0.6626  0.3416 -1.0960
  448MOL0     C59008   4.403   1.220   7.262  0.4114 -0.2369  0.7228
  448MOL0     C59009   4.432   1.251   7.123  0.8488 -0.6746  0.6576
  448MOL0     C59010   4.366   1.354   7.053  0.1447 -0.0857  0.0668
  448MOL0     C59011   4.266   1.417   7.132  0.8866  0.2174  1.0856
  448MOL0     O59012   4.195   1.516   7.075 -0.3259 -0.2895 -0.0538
  448MOL0     C59013   4.066   1.468   7.022 -0.3934 -0.6478 -0.2135
  448MOL0     C59014   4.077   1.465   6.871 -0.0060 -0.3501 -0.3329
  448MOL0     C59015   3.937   1.518   6.824  0.1805 -0.4849  0.0687
  448MOL0     C59016   3.936   1.552   6.673 -0.8192  0.2726 -0.3530
  448MOL0     C59017   3.797   1.591   6.627 -0.0954 -0.9767 -0.3247
  448MOL0     C59018   3.765   1.732   6.671  0.0702 -0.3706  0.3592
  448MOL0     C59019   3.663   1.802   6.573 -0.2157 -0.4295  0.1352
  448MOL0     C59020   3.588   1.922   6.634 -0.1298  0.1045 -0.0031
  448MOL0     N59021   3.500   1.883   6.742  0.2102 -0.1346 -0.4414
  448MOL0     C59022   3.505   1.941   6.869  1.1369 -0.7613 -0.4303
  448MOL0     C59023   3.411   1.869   6.941  0.3707 -0.2203 -0.2785
  448MOL0     C59024   3.374   1.870   7.087 -0.4418 -0.3168  0.0329
  448MOL0     C59025   3.272   1.991   7.115 -0.0102  0.8540 -0.0754
  448MOL0     C59026   3.341   2.128   7.144  0.2835 -0.2943  0.5687
  448MOL0     C59027   3.240   2.243   7.185  0.2953 -0.3357 -0.3407
  448MOL0     O59028   3.144   2.266   7.082  0.0004 -0.3324  0.0023
  448MOL0     C59029   3.033   2.345   7.105  0.1068  0.2838  0.3355
  448MOL0     C59030   2.968   2.391   6.989  0.2499 -0.2404 -0.0104
  448MOL0     C59031   2.856   2.470   6.997  0.2845 -1.2035 -1.2279
  448MOL0     C59032   2.806   2.523   7.123  0.5807  0.2371  0.3636
  448MOL0     C59033   2.681   2.598   7.123 -0.1708 -0.6815 -0.2205
  448MOL0     O59034   2.625   2.610   7.006 -0.3667 -0.2223 -0.1475
  448MOL0     C59035   2.521   2.687   6.989  0.6901  0.1391  0.6327
  448MOL0     C59036   2.517   2.769   6.877 -0.2964 -0.5421  0.4039
  448MOL0     C59037   2.403   2.841   6.853 -0.3496 -1.0562  0.6139
  448MOL0     C59038   2.285   2.823   6.926 -0.4644 -0.7381 -0.5099
  448MOL0     O59039   2.166   2.887   6.904  0.2464  0.1972 -0.2683
  448MOL0     C59040   2.159   2.984   6.807 -0.3690 -0.3376  0.1136
  448MOL0     C59041   2.018   3.037   6.797 -0.1047 -0.3872  0.0089
  448MOL0     C59042   1.984   3.126   6.915  0.1850 -0.5397 -0.3903
  448MOL0     C59043   1.833   3.159   6.903 -0.4586 -0.6319  0.2727
  448MOL0     C59044   1.779   3.236   7.028  1.0801  0.9481  0.3047
  448MOL0     C59045   1.637   3.298   7.014  1.1845  0.7977  0.4066
  448MOL0     C59046   1.590   3.357   7.147  0.0972 -0.4386  0.1093
  448MOL0     C59047   1.450   3.418   7.146  0.5313  0.5820 -0.5831
  448MOL0    Cl59048   1.321   3.283   7.158 -0.3777 -0.2816  0.1745
  448MOL0     C59049   2.286   2.738   7.040  0.2496 -0.1297 -0.3329
  448MOL0     C59050   2.401   2.669   7.063 -0.4622  0.3497 -0.6405
  448MOL0     O59051   2.631   2.621   7.234 -0.1517 -0.1395 -0.4174
  448MOL0     C59052   2.884   2.488   7.238  0.9815  0.4078 -0.1983
  448MOL0     C59053   2.991   2.398   7.227 -0.3538  0.0786  1.3657
  448MOL0     N59054   3.347   1.780   6.861  0.0575 -0.2951 -0.0808
  448MOL0     N59055   3.395   1.790   6.741  0.8821  0.0269 -0.4140
  448MOL0     C59056   4.242   1.396   7.264  0.0059 -0.5040 -0.2425
  448MOL0     C59057   4.308   1.293   7.327 -0.2606 -0.6622  0.0051
  448MOL0     C59058   4.444   0.899   7.432  1.0019  0.9507 -0.1129
  448MOL0     C59059   4.374   0.778   7.462 -0.8998  0.1490 -0.2432
  448MOL0     C59060   4.439   0.672   7.520 -0.8177  0.3536  0.3170
  448MOL0     C59061   4.571   0.677   7.555  0.4600  0.1361  0.3072
  448MOL0     O59062   4.614   0.570   7.635 -0.5902  0.0366  0.1615
  448MOL0     C59063   4.741   0.546   7.693  0.4987  0.0904  0.1324
  448MOL0     C59064   4.729   0.424   7.784  0.7612  0.2134  0.2089
  448MOL0     C59065   4.833   0.423   7.888  1.0603  0.1046 -0.4020
  448MOL0     C59066   4.829   0.305   7.987  0.4092 -0.1038  0.0833
  448MOL0     C59067   4.726   0.317   8.088  0.6226 -0.3382 -0.7988
  448MOL0     C59068   4.641   0.327   8.177 -0.0507  0.2179  0.0381
  448MOL0     C59069   4.645   0.789   7.527 -0.8947 -0.2599  0.2440
  448MOL0     C59070   4.587   0.898   7.458  0.5156  0.4820 -0.2469
  448MOL0     H59071   4.511   1.190   7.080  2.2023  0.5831  1.2558
  448MOL0     H59072   4.382   1.377   6.948  0.2735 -0.7020 -0.0520
  448MOL0     H59073   3.993   1.539   7.062 -0.9531 -0.6242 -1.2360
  448MOL0     H59074   4.040   1.368   7.059 -1.4276 -0.2775  0.0940
  448MOL0     H59075   4.109   1.369   6.828 -0.8481  0.2731 -2.4779
  448MOL0     H59076   4.158   1.535   6.848 -1.0934  0.5538 -1.5099
  448MOL0     H59077   3.907   1.605   6.882 -0.6907  0.5346 -1.8461
  448MOL0     H59078   3.864   1.440   6.847  2.8556 -2.7583  1.5735
  448MOL0     H59079   4.007   1.632   6.651 -0.7207  0.8087  1.6963
  448MOL0     H59080   3.958   1.458   6.621 -0.0625 -0.2024  0.7813
  448MOL0     H59081   3.727   1.524   6.677  0.1705 -1.4037 -0.5120
  448MOL0     H59082   3.789   1.573   6.520  0.2768  0.1372 -0.5474
  448MOL0     H59083   3.850   1.801   6.673  0.0591 -0.2886 -1.0548
  448MOL0     H59084   3.724   1.726   6.772 -2.0585  0.8809 -0.3465
  448MOL0     H59085   3.719   1.832   6.484  2.8560 -2.4559  1.2112
  448MOL0     H59086   3.592   1.724   6.545  1.5644 -1.9775 -0.2951
  448MOL0     H59087   3.530   1.967   6.553  2.6069  3.2692 -0.4450
  448MOL0     H59088   3.651   2.004   6.671  1.7094 -1.3592  0.2839
  448MOL0     H59089   3.579   2.011   6.905  1.1621 -0.7397 -0.5254
  448MOL0     H59090   3.460   1.879   7.155 -0.7118 -1.8208  0.6157
  448MOL0     H59091   3.320   1.777   7.106  1.0723 -1.5357 -1.2913
  448MOL0     H59092   3.208   1.963   7.199 -0.3503  0.0093 -0.6036
  448MOL0     H59093   3.207   2.004   7.027  0.1997  1.4581 -0.1474
  448MOL0     H59094   3.413   2.108   7.225  0.6028 -1.3615  0.0376
  448MOL0     H59095   3.391   2.161   7.052  0.8512 -0.6748  0.7321
  448MOL0     H59096   3.300   2.332   7.206  0.5788 -1.1681  3.0189
  448MOL0     H59097   3.191   2.215   7.279 -0.1735 -0.1010 -0.5105
  448MOL0     H59098   2.989   2.359   6.888 -0.7305 -0.9974  0.0092
  448MOL0     H59099   2.804   2.495   6.906 -2.3273  0.4048  0.5743
  448MOL0     H59100   2.602   2.773   6.810 -1.9942 -3.0303 -2.1224
  448MOL0     H59101   2.388   2.896   6.761 -1.2409 -1.0080  0.7868
  448MOL0     H59102   2.181   2.947   6.706 -2.6002  1.2430 -1.0456
  448MOL0     H59103   2.221   3.066   6.844 -1.4026 -0.0119  1.2052
  448MOL0     H59104   1.943   2.957   6.789 -0.4123 -0.1085  0.0683
  448MOL0     H59105   2.007   3.104   6.712  2.0765  4.1915  2.9110
  448MOL0     H59106   2.038   3.221   6.909  0.7921 -0.8969 -0.6482
  448MOL0     H59107   2.005   3.083   7.013  0.6970 -0.7782 -0.6034
  448MOL0     H59108   1.804   3.226   6.821 -5.2900  1.0840  2.9440
  448MOL0     H59109   1.775   3.068   6.886 -2.3824  0.4928  0.4992
  448MOL0     H59110   1.846   3.322   7.043  2.6178 -0.0123 -0.6770
  448MOL0     H59111   1.789   3.178   7.120  0.0302 -1.3316 -0.9408
  448MOL0     H59112   1.570   3.215   6.988  0.8804  0.6287  1.6662
  448MOL0     H59113   1.638   3.377   6.939 -2.1428  1.3167  0.7528
  448MOL0     H59114   1.596   3.285   7.229  0.9089  1.2576  1.5909
  448MOL0     H59115   1.671   3.428   7.168  1.3091 -2.2696  1.9222
  448MOL0     H59116   1.430   3.479   7.058 -0.5119  2.2915  0.7769
  448MOL0     H59117   1.445   3.481   7.235 -2.1225  0.5862 -0.6642
  448MOL0     H59118   2.196   2.726   7.100 -1.3121 -0.9047 -2.6715
  448MOL0     H59119   2.397   2.606   7.151 -0.4121  0.6874 -0.3915
  448MOL0     H59120   2.864   2.531   7.335  0.7413  0.5114 -0.2939
  448MOL0     H59121   3.043   2.361   7.315  1.0099 -4.5776 -1.0690
  448MOL0     H59122   4.177   1.459   7.323  1.1002 -0.7303  1.2824
  448MOL0     H59123   4.276   1.274   7.429  2.3264 -0.0912  1.0088
  448MOL0     H59124   4.270   0.756   7.439 -1.1264 -0.4628  1.2122
  448MOL0     H59125   4.377   0.585   7.539  0.3576 -0.9184 -1.2850
  448MOL0     H59126   4.767   0.637   7.748 -1.0863  0.4376  0.3278
  448MOL0     H59127   4.812   0.520   7.613  0.5605  0.4634  0.0661
  448MOL0     H59128   4.633   0.425   7.835  1.0091  4.6695  0.9231
  448MOL0     H59129   4.731   0.329   7.729 -0.2586 -0.7288  1.7284
  448MOL0     H59130   4.827   0.514   7.948  1.0087 -0.9372  1.2673
  448MOL0     H59131   4.933   0.420   7.844  1.4065  1.2018  0.2724
  448MOL0     H59132   4.809   0.215   7.929 -0.4753  0.7705 -1.0075
  448MOL0     H59133   4.927   0.297   8.035  1.5065  2.6218 -1.4493
  448MOL0     H59134   4.570   0.338   8.256  0.5221  3.6990  0.2403
  448MOL0     H59135   4.752   0.780   7.541 -0.8235 -2.5058 -1.2629
  448MOL0     H59136   4.650   0.979   7.422  1.8989 -0.6551 -0.4960
  449MOL0     O59137   8.863   1.839   9.024 -0.8683 -0.4332  0.3939
  449MOL0     C59138   8.801   1.927   9.082  0.1354 -0.6229  0.6011
  449MOL0     O59139   8.804   2.058   9.047  1.1460 -0.1402  0.5125
  449MOL0     C59140   8.866   2.107   8.940 -0.1278  0.1667  0.5680
  449MOL0     C59141   9.004   2.114   8.920 -0.2824  0.1978  0.3653
  449MOL0     C59142   9.055   2.170   8.802  0.2293  0.7282 -0.7448
  449MOL0     C59143   8.965   2.220   8.704  0.4595  0.6468  0.5961
  449MOL0     O59144   9.002   2.301   8.599 -0.5099  0.3897  0.2788
  449MOL0     C59145   9.137   2.352   8.594  0.1998 -0.1844  0.5868
  449MOL0     C59146   9.169   2.451   8.479  0.1384  0.4425 -0.0204
  449MOL0     C59147   9.163   2.591   8.518  0.2851  0.2580  0.1439
  449MOL0     C59148   9.016   2.650   8.544 -0.1621  0.2682  0.2437
  449MOL0     C59149   9.010   2.801   8.527 -0.4418  0.0770  0.5233
  449MOL0     C59150   8.983   2.852   8.381  0.1447 -0.9550 -0.1099
  449MOL0     C59151   9.009   3.006   8.368 -0.2122 -1.1814  0.0440
  449MOL0     C59152   9.170   3.019   8.392  0.3059  0.6299 -1.6143
  449MOL0     N59153   9.211   3.158   8.363  0.4739  0.0242  0.3639
  449MOL0     C59154   9.270   3.206   8.246 -0.4888  0.2942 -0.1201
  449MOL0     C59155   9.264   3.343   8.239 -0.2170 -0.6016 -0.0145
  449MOL0     C59156   9.324   3.437   8.146 -0.3696 -0.4355  0.5641
  449MOL0     C59157   9.468   3.480   8.197  0.2338  0.0579  0.2712
  449MOL0     C59158   9.453   3.588   8.314 -0.1692  0.4895  0.8963
  449MOL0     C59159   9.593   3.646   8.359  0.2825  0.4630  0.1227
  449MOL0     O59160   9.674   3.529   8.383 -1.0690 -0.0205 -0.9732
  449MOL0     C59161   9.814   3.550   8.394  0.6534  0.2336  1.4888
  449MOL0     C59162   9.871   3.678   8.407  0.8993  0.0215 -0.1807
  449MOL0     C59163  10.008   3.702   8.399 -0.0300  0.0694  0.2269
  449MOL0     C59164  10.090   3.587   8.389 -0.1406 -0.2012 -0.7307
  449MOL0     C59165  10.239   3.599   8.393 -0.4584 -0.5485 -0.5801
  449MOL0     O59166  10.304   3.479   8.371 -0.9072 -0.1542  0.0842
  449MOL0     C59167  10.441   3.471   8.378  0.3451  0.1031  0.0431
  449MOL0     C59168  10.496   3.403   8.272  0.4272 -0.2146  0.5377
  449MOL0     C59169  10.633   3.403   8.258  1.0178 -0.7062 -0.2369
  449MOL0     C59170  10.722   3.444   8.359 -0.2737  0.7986  0.7288
  449MOL0     O59171  10.860   3.430   8.342  0.0956 -0.2641  0.3438
  449MOL0     C59172  10.948   3.444   8.449 -1.0046 -0.0364 -1.2039
  449MOL0     C59173  11.081   3.388   8.405  0.0058 -0.9829 -0.3057
  449MOL0     C59174  11.189   3.410   8.510  0.8240 -0.1879 -0.0381
  449MOL0     C59175  11.320   3.345   8.460  0.3622 -0.8056 -0.2612
  449MOL0     C59176  11.423   3.351   8.565  0.1312  0.3148 -0.3870
  449MOL0     C59177  11.546   3.260   8.522  0.1005 -0.4354  0.0192
  449MOL0     C59178  11.679   3.290   8.592 -1.0680  0.1683 -0.4198
  449MOL0     C59179  11.760   3.405   8.529  0.8546  0.4719  0.6654
  449MOL0    Cl59180  11.933   3.385   8.593  0.0428  0.4810 -0.6056
  449MOL0     C59181  10.664   3.492   8.478 -0.6405 -0.6195  0.3262
  449MOL0     C59182  10.524   3.514   8.485 -0.0092  0.7398  0.5324
  449MOL0     O59183  10.292   3.714   8.392  0.0144  0.4897  0.0642
  449MOL0     C59184  10.031   3.462   8.384 -0.3958  0.3876 -0.6960
  449MOL0     C59185   9.896   3.446   8.376 -0.2320  0.8578 -0.3864
  449MOL0     N59186   9.191   3.380   8.350 -0.8398  0.6039  0.0505
  449MOL0     N59187   9.174   3.273   8.429  0.8519  0.7244  0.4196
  449MOL0     C59188   8.828   2.194   8.713 -0.3090  0.0326  0.5017
  449MOL0     C59189   8.783   2.133   8.832 -0.2184  1.0234 -0.9499
  449MOL0     C59190   8.728   1.906   9.215  0.1058 -0.0507  0.5932
  449MOL0     C59191   8.710   1.776   9.266  0.2586 -0.0509  0.3429
  449MOL0     C59192   8.657   1.750   9.394 -0.7318  0.4153  0.8749
  449MOL0     C59193   8.606   1.848   9.472  0.1449 -0.1318  0.3085
  449MOL0     O59194   8.553   1.809   9.597  0.0172 -0.7698 -0.2500
  449MOL0     C59195   8.494   1.911   9.682 -0.4233 -0.7699 -0.1052
  449MOL0     C59196   8.401   1.837   9.773 -0.4004 -0.4210  0.5189
  449MOL0     C59197   8.445   1.833   9.914  0.0938 -0.7210  0.8170
  449MOL0     C59198   8.402   1.711   9.999  0.1447 -0.0326 -1.0334
  449MOL0     C59199   8.249   1.695  10.003  0.2626  0.1601 -0.0313
  449MOL0     C59200   8.130   1.675  10.013 -0.0808 -0.3269  0.2461
  449MOL0     C59201   8.620   1.980   9.414 -0.6839 -0.3184 -0.5001
  449MOL0     C59202   8.669   2.009   9.288  0.0302 -0.0733  0.0831
  449MOL0     H59203   9.061   2.081   9.006 -1.2708  2.6029  2.0640
  449MOL0     H59204   9.162   2.157   8.790  0.5886  1.2211  1.4022
  449MOL0     H59205   9.192   2.257   8.589  0.9164  0.1131  2.0696
  449MOL0     H59206   9.171   2.404   8.684  0.6137  0.8569 -0.1527
  449MOL0     H59207   9.104   2.433   8.392  0.5571 -0.7196 -0.0979
  449MOL0     H59208   9.268   2.424   8.442 -0.1136  2.0020 -2.0553
  449MOL0     H59209   9.213   2.653   8.443  1.2601 -2.7402 -1.8680
  449MOL0     H59210   9.213   2.598   8.615 -1.3621  2.9621  0.9054
  449MOL0     H59211   8.946   2.601   8.476 -2.6362  1.8748  1.4748
  449MOL0     H59212   8.977   2.611   8.639 -1.0006 -3.7629 -1.5133
  449MOL0     H59213   9.108   2.830   8.567  0.8235 -0.6622 -1.8209
  449MOL0     H59214   8.928   2.837   8.589 -1.7552  0.6990 -1.4751
  449MOL0     H59215   8.877   2.838   8.361  0.2760  1.4308 -3.2203
  449MOL0     H59216   9.040   2.802   8.302  1.2054  1.3197 -0.8662
  449MOL0     H59217   8.991   3.045   8.267  0.1457 -0.2958  0.3104
  449MOL0     H59218   8.946   3.070   8.430  1.8212 -0.2642  1.2619
  449MOL0     H59219   9.227   2.963   8.317  0.0073 -0.1933 -1.2372
  449MOL0     H59220   9.201   2.992   8.494  3.5882 -2.3871 -3.1708
  449MOL0     H59221   9.330   3.149   8.175 -0.7919 -0.4381  0.2092
  449MOL0     H59222   9.254   3.521   8.152 -0.5075 -0.3914 -1.1599
  449MOL0     H59223   9.326   3.390   8.047 -0.9158  0.8039 -0.0603
  449MOL0     H59224   9.525   3.525   8.115 -2.2917  2.1190 -0.4925
  449MOL0     H59225   9.517   3.389   8.232 -1.1187  0.1245  2.5184
  449MOL0     H59226   9.395   3.672   8.277 -0.8231 -0.1279  0.5060
  449MOL0     H59227   9.406   3.538   8.399 -1.9659  0.3467 -0.1423
  449MOL0     H59228   9.583   3.707   8.449 -0.8296 -0.9075  0.9833
  449MOL0     H59229   9.630   3.698   8.270  1.4837  0.1481  0.4199
  449MOL0     H59230   9.802   3.763   8.412 -3.6007 -2.9414 -3.4979
  449MOL0     H59231  10.056   3.798   8.385 -0.1492 -0.0540 -1.2012
  449MOL0     H59232  10.433   3.367   8.191  1.4604 -0.3105 -0.2420
  449MOL0     H59233  10.670   3.370   8.162 -1.1322 -0.9973 -1.0043
  449MOL0     H59234  10.927   3.399   8.547 -0.3864  2.2341  0.0654
  449MOL0     H59235  10.968   3.551   8.460  0.5244 -0.2095 -2.0125
  449MOL0     H59236  11.116   3.451   8.323  1.9015  0.1842  1.3062
  449MOL0     H59237  11.065   3.282   8.383  0.8963 -0.8452 -1.7025
  449MOL0     H59238  11.163   3.367   8.607 -0.1697  2.3907  0.9256
  449MOL0     H59239  11.188   3.518   8.530  2.7242 -0.5742  2.6288
  449MOL0     H59240  11.300   3.244   8.421 -1.9813  0.1036 -1.6545
  449MOL0     H59241  11.355   3.408   8.378  1.0889  0.1432  0.7584
  449MOL0     H59242  11.379   3.307   8.654 -1.9895  1.0990 -0.9925
  449MOL0     H59243  11.446   3.455   8.591 -0.4286  0.6697 -1.2518
  449MOL0     H59244  11.551   3.294   8.418  0.5850  2.4271  0.8733
  449MOL0     H59245  11.529   3.153   8.532 -0.5371 -0.8810 -4.0372
  449MOL0     H59246  11.658   3.300   8.699 -0.8807 -2.7552 -0.0413
  449MOL0     H59247  11.741   3.201   8.580  1.0375  1.7071 -1.6511
  449MOL0     H59248  11.728   3.509   8.539  1.9009  0.7219  1.6904
  449MOL0     H59249  11.764   3.383   8.422  0.1152  0.4388  0.6403
  449MOL0     H59250  10.726   3.533   8.557 -0.3062 -0.6070  0.0594
  449MOL0     H59251  10.477   3.546   8.577  0.8541  0.2442  1.1598
  449MOL0     H59252  10.086   3.371   8.404 -0.4272  0.3568 -0.7503
  449MOL0     H59253   9.864   3.342   8.380  1.0416  0.4838  1.2811
  449MOL0     H59254   8.758   2.231   8.639  1.0655 -0.1949 -0.9535
  449MOL0     H59255   8.676   2.130   8.849  0.1696  1.5603  2.2496
  449MOL0     H59256   8.744   1.694   9.203 -1.6625 -1.2054  0.7241
  449MOL0     H59257   8.646   1.650   9.433 -1.0403 -0.1303 -0.5423
  449MOL0     H59258   8.443   1.981   9.616  1.7134 -1.3766 -2.5653
  449MOL0     H59259   8.569   1.968   9.738 -1.7431 -1.3479  2.4234
  449MOL0     H59260   8.307   1.894   9.771 -0.8173 -1.0623  1.2634
  449MOL0     H59261   8.384   1.740   9.727  1.2158  0.0452 -1.1676
  449MOL0     H59262   8.402   1.924   9.957  1.1504  0.2470 -0.1194
  449MOL0     H59263   8.552   1.855   9.911 -0.0754  0.1114 -2.3050
  449MOL0     H59264   8.449   1.625   9.950  1.3498  0.9225 -1.6304
  449MOL0     H59265   8.441   1.712  10.101 -1.8858 -0.3673 -0.2147
  449MOL0     H59266   8.023   1.677  10.021  0.0510  2.2822  3.4560
  449MOL0     H59267   8.578   2.062   9.472 -1.8822  0.6561 -2.6458
  449MOL0     H59268   8.672   2.110   9.250 -0.3559  0.1512  0.6183
  450MOL0     O59269   7.815   0.798  10.812  0.0282 -0.2279  0.4798
  450MOL0     C59270   7.874   0.903  10.847 -0.7693  0.3374  0.1439
  450MOL0     O59271   7.822   1.023  10.848  0.2350  0.0444  0.0142
  450MOL0     C59272   7.697   1.056  10.794 -0.5505 -0.1323  0.3289
  450MOL0     C59273   7.656   1.184  10.835  0.0483  0.7994  0.0325
  450MOL0     C59274   7.537   1.232  10.790 -0.2135  0.3940  0.0623
  450MOL0     C59275   7.449   1.158  10.714 -0.4584  0.0404 -0.5361
  450MOL0     O59276   7.333   1.229  10.677  0.0005 -0.3677  0.3567
  450MOL0     C59277   7.223   1.163  10.615  0.2867  0.9028 -0.2399
  450MOL0     C59278   7.256   1.144  10.469  0.2206 -0.3002  0.1226
  450MOL0     C59279   7.293   1.278  10.408  0.1339 -0.1824 -0.3966
  450MOL0     C59280   7.305   1.254  10.257 -0.5526 -0.2626 -0.7929
  450MOL0     C59281   7.349   1.390  10.183  0.8526  0.0370  0.3471
  450MOL0     C59282   7.226   1.486  10.181 -0.1650 -0.0967  0.2463
  450MOL0     C59283   7.246   1.615  10.095 -0.1610  0.4328  0.0822
  450MOL0     C59284   7.357   1.713  10.126 -0.3976  0.8982 -0.1189
  450MOL0     N59285   7.370   1.831  10.029 -0.3331  0.4665 -0.1915
  450MOL0     C59286   7.400   1.825   9.893  0.2009 -0.5966 -0.5705
  450MOL0     C59287   7.399   1.952   9.862 -0.2686  0.4047  1.1293
  450MOL0     C59288   7.411   2.015   9.723  0.2208  0.0746 -0.1973
  450MOL0     C59289   7.562   2.018   9.691 -0.9745  0.6002  0.4482
  450MOL0     C59290   7.595   2.099   9.561  0.7610 -0.4247  0.2047
  450MOL0     C59291   7.740   2.084   9.516 -0.4810  0.0307  0.3026
  450MOL0     O59292   7.777   2.198   9.429  0.0174  0.3428 -0.5006
  450MOL0     C59293   7.912   2.207   9.393 -0.3648 -0.1568  0.3299
  450MOL0     C59294   7.952   2.323   9.330 -0.1576 -0.5592 -0.2206
  450MOL0     C59295   8.086   2.344   9.301  0.4487  0.1807 -0.0312
  450MOL0     C59296   8.185   2.250   9.315  0.9711  0.3850 -0.1659
  450MOL0     C59297   8.323   2.284   9.278 -0.4408  0.3187  0.6365
  450MOL0     O59298   8.351   2.414   9.242  0.5153  0.3270 -0.1969
  450MOL0     C59299   8.472   2.456   9.204 -0.8911 -0.5024 -0.1507
  450MOL0     C59300   8.566   2.378   9.139 -0.1026  0.1529  0.0499
  450MOL0     C59301   8.699   2.425   9.108  0.4412 -0.4386  0.5191
  450MOL0     C59302   8.746   2.556   9.155 -0.1642 -0.2333  0.0442
  450MOL0     O59303   8.868   2.609   9.140  0.3462  0.1106 -0.1239
  450MOL0     C59304   8.921   2.577   9.013 -0.3384 -0.3027  0.2119
  450MOL0     C59305   9.052   2.644   8.997 -0.7531  0.1111  0.1922
  450MOL0     C59306   9.045   2.798   9.004  0.0691  0.0502 -0.3374
  450MOL0     C59307   8.968   2.854   8.888  0.5753 -0.5654  0.5847
  450MOL0     C59308   8.937   3.008   8.900  0.4490  0.0525 -0.0059
  450MOL0     C59309   8.902   3.055   8.759 -0.5967 -0.5256  0.7204
  450MOL0     C59310   8.854   3.198   8.764 -0.1818 -0.1207 -0.9980
  450MOL0     C59311   8.798   3.241   8.628 -0.5283  0.7246 -0.0656
  450MOL0    Cl59312   8.669   3.123   8.575 -0.4656 -0.0255 -0.1682
  450MOL0     C59313   8.645   2.627   9.222 -1.2500 -0.3610 -0.6144
  450MOL0     C59314   8.516   2.583   9.248  0.7481 -0.0577  0.1530
  450MOL0     O59315   8.410   2.193   9.273  0.3241 -0.0416  0.8251
  450MOL0     C59316   8.138   2.126   9.370  0.8741 -0.1932 -0.1829
  450MOL0     C59317   8.004   2.111   9.411 -0.0470  0.3954  0.5780
  450MOL0     N59318   7.384   2.032   9.974  0.7111 -0.2683  0.1060
  450MOL0     N59319   7.365   1.957  10.074 -0.3960 -0.2268  0.1570
  450MOL0     C59320   7.487   1.029  10.673  0.5243 -0.3421 -0.7716
  450MOL0     C59321   7.608   0.968  10.728  0.5649  0.1836 -0.5595
  450MOL0     C59322   8.014   0.882  10.892  1.5181 -0.1421  0.6652
  450MOL0     C59323   8.106   0.990  10.915  0.6905  0.1171 -0.7773
  450MOL0     C59324   8.230   0.968  10.976  0.1806  0.0874  0.1912
  450MOL0     C59325   8.278   0.837  11.002  0.1846 -0.4071 -0.7890
  450MOL0     O59326   8.390   0.816  11.082 -0.2537  0.6642  0.6697
  450MOL0     C59327   8.484   0.925  11.095  0.4269 -0.5605 -0.0534
  450MOL0     C59328   8.610   0.872  11.159  0.0456  0.2959 -1.0229
  450MOL0     C59329   8.712   0.984  11.186  0.1779 -0.2609  0.3605
  450MOL0     C59330   8.838   0.940  11.252  0.0409  0.7822  0.4877
  450MOL0     C59331   8.921   1.048  11.302 -0.3373 -0.4976  0.5344
  450MOL0     C59332   9.002   1.131  11.343 -0.5356  0.2022  0.0883
  450MOL0     C59333   8.189   0.733  10.976 -0.7996  0.2938 -0.7716
  450MOL0     C59334   8.064   0.751  10.920 -0.2388 -0.8678 -0.1705
  450MOL0     H59335   7.708   1.236  10.916 -0.3460 -0.8772  1.4273
  450MOL0     H59336   7.496   1.330  10.812 -1.5762  0.6722 -3.1272
  450MOL0     H59337   7.131   1.215  10.640 -0.5794 -0.9182  0.5484
  450MOL0     H59338   7.208   1.070  10.671  0.7754 -0.8146 -2.7678
  450MOL0     H59339   7.163   1.104  10.426  1.2563 -2.4516 -0.2688
  450MOL0     H59340   7.332   1.068  10.447 -0.5424 -0.8610 -0.6911
  450MOL0     H59341   7.395   1.294  10.444 -0.0857 -1.1350  0.7460
  450MOL0     H59342   7.216   1.352  10.435 -0.0109 -0.5545  0.2519
  450MOL0     H59343   7.384   1.180  10.242  0.6902  0.8410  0.0482
  450MOL0     H59344   7.208   1.221  10.218 -1.4978  4.0818 -2.7204
  450MOL0     H59345   7.374   1.363  10.080  0.2397  1.3164 -0.1520
  450MOL0     H59346   7.441   1.429  10.228  0.5836  0.8701  0.1788
  450MOL0     H59347   7.204   1.516  10.284  1.2328  3.1568 -0.2583
  450MOL0     H59348   7.141   1.424  10.153 -0.0235 -0.0452 -0.2990
  450MOL0     H59349   7.245   1.579   9.992 -1.1373 -0.7406  0.4747
  450MOL0     H59350   7.155   1.677  10.095 -1.1010 -0.7681 -3.2016
  450MOL0     H59351   7.453   1.661  10.120 -0.3038  0.7853  1.7701
  450MOL0     H59352   7.346   1.748  10.229 -1.4698  0.3474 -0.0328
  450MOL0     H59353   7.395   1.741   9.825  0.4196  1.4700 -3.3567
  450MOL0     H59354   7.365   2.114   9.726  0.1337  0.0191  0.4974
  450MOL0     H59355   7.368   1.952   9.645  0.4422  1.1471 -1.2250
  450MOL0     H59356   7.594   1.915   9.676 -0.7264  1.2151 -5.2478
  450MOL0     H59357   7.618   2.071   9.768  0.1673  0.9574 -0.6036
  450MOL0     H59358   7.535   2.064   9.476 -1.0847  1.3638  0.6922
  450MOL0     H59359   7.559   2.202   9.567 -0.2558 -0.8239  1.7417
  450MOL0     H59360   7.745   1.990   9.460  0.5967 -1.1449  2.2658
  450MOL0     H59361   7.808   2.090   9.601 -0.2173  2.9887 -0.0206
  450MOL0     H59362   7.877   2.401   9.324 -1.3834 -1.6492  0.4754
  450MOL0     H59363   8.121   2.438   9.260  1.4598  0.1327  0.6694
  450MOL0     H59364   8.549   2.283   9.089 -2.4447  0.9385 -0.7837
  450MOL0     H59365   8.755   2.350   9.054 -3.2278 -1.5876 -2.0975
  450MOL0     H59366   8.853   2.599   8.930 -0.7779 -1.3077  0.2934
  450MOL0     H59367   8.941   2.472   8.992  1.4821 -0.0926  0.7362
  450MOL0     H59368   9.106   2.617   8.906  1.2790  1.2317  1.0275
  450MOL0     H59369   9.114   2.607   9.079 -1.0342  0.7634  0.7094
  450MOL0     H59370   9.144   2.844   9.001 -0.4624  1.2908  0.5338
  450MOL0     H59371   9.002   2.831   9.099 -5.0487 -1.7952 -1.6633
  450MOL0     H59372   9.025   2.841   8.796 -1.3121  0.3321 -0.7863
  450MOL0     H59373   8.869   2.809   8.879  0.0770  0.5190  0.5231
  450MOL0     H59374   9.022   3.068   8.931 -0.7570  1.2083  1.2279
  450MOL0     H59375   8.847   3.023   8.961 -0.2662 -1.5785 -0.6025
  450MOL0     H59376   8.824   2.988   8.722 -0.4716 -0.4894  0.3870
  450MOL0     H59377   8.995   3.047   8.702 -0.5084 -1.7337  1.0135
  450MOL0     H59378   8.787   3.224   8.846 -0.3726  1.3924 -1.6032
  450MOL0     H59379   8.938   3.266   8.779 -0.3121 -0.5127  2.1898
  450MOL0     H59380   8.879   3.259   8.557 -1.7737 -1.1104 -2.0536
  450MOL0     H59381   8.758   3.340   8.651 -0.5821  0.1739  2.5690
  450MOL0     H59382   8.690   2.717   9.263 -0.4934 -1.4029  0.9307
  450MOL0     H59383   8.447   2.645   9.305 -1.0422 -0.6050 -1.3225
  450MOL0     H59384   8.202   2.039   9.360 -0.9678 -1.3555 -3.1676
  450MOL0     H59385   7.974   2.020   9.462  0.3297 -0.5995 -0.9060
  450MOL0     H59386   7.420   0.968  10.614  0.1803  0.0054 -0.7466
  450MOL0     H59387   7.638   0.865  10.710  1.0689  0.4203 -1.1244
  450MOL0     H59388   8.068   1.091  10.900 -2.0800 -0.6694  0.2711
  450MOL0     H59389   8.285   1.057  11.003 -1.6601  1.0751  0.9060
  450MOL0     H59390   8.449   1.014  11.148  1.1473 -0.3701  0.1174
  450MOL0     H59391   8.499   0.960  10.993 -1.1020 -3.4391 -1.3934
  450MOL0     H59392   8.579   0.826  11.253  1.1049 -2.0019 -1.7250
  450MOL0     H59393   8.648   0.787  11.101  1.1522 -1.5232  2.1721
  450MOL0     H59394   8.665   1.059  11.249  1.2115 -0.4882  1.4438
  450MOL0     H59395   8.749   1.026  11.092  0.2040  2.3457  1.4722
  450MOL0     H59396   8.821   0.859  11.324  1.1303  0.2310  0.1499
  450MOL0     H59397   8.900   0.892  11.176 -1.4445 -0.2716 -0.1072
  450MOL0     H59398   9.084   1.180  11.390 -0.4065  0.1354 -0.0663
  450MOL0     H59399   8.234   0.639  11.005  0.6516  0.8763 -1.0232
  450MOL0     H59400   8.002   0.665  10.899 -1.2929 -0.0314 -0.5671
  451MOL0     O59401   9.880   0.630   1.297  0.0122 -0.2357  0.0959
  451MOL0     C59402   9.861   0.689   1.406  0.6443 -0.0396  0.5296
  451MOL0     O59403   9.791   0.632   1.515 -0.0426 -0.5634 -0.8331
  451MOL0     C59404   9.719   0.511   1.494 -0.3240 -0.1292 -0.0883
  451MOL0     C59405   9.608   0.511   1.400 -0.0167  0.1940  0.1734
  451MOL0     C59406   9.546   0.395   1.375 -0.8489 -0.0561 -0.2127
  451MOL0     C59407   9.588   0.268   1.439  0.8938  0.1537  0.4073
  451MOL0     O59408   9.529   0.155   1.394 -0.1740  0.6220  1.0085
  451MOL0     C59409   9.532   0.023   1.463 -1.0652 -0.0670  0.8379
  451MOL0     C59410   9.471  -0.083   1.380  0.1867 -0.8801  0.1235
  451MOL0     C59411   9.320  -0.058   1.369  0.0808 -0.0968 -0.2714
  451MOL0     C59412   9.254  -0.192   1.316 -0.4007 -0.2139  0.2953
  451MOL0     C59413   9.100  -0.180   1.294  0.2742 -0.4664  0.2763
  451MOL0     C59414   9.051  -0.292   1.206  0.0288  0.0295 -0.7755
  451MOL0     C59415   8.908  -0.280   1.181  0.7666 -0.5560  0.0437
  451MOL0     C59416   8.867  -0.370   1.061  0.6749  0.2960  0.1356
  451MOL0     N59417   8.723  -0.391   1.048 -0.4317  0.3771 -0.5632
  451MOL0     C59418   8.637  -0.294   1.018  0.3584  0.3439  0.6159
  451MOL0     C59419   8.525  -0.369   0.998 -0.2648 -0.3027 -0.0757
  451MOL0     C59420   8.399  -0.312   0.929 -0.4577 -0.1115 -0.1849
  451MOL0     C59421   8.266  -0.348   0.993  0.1608 -0.5678  0.9862
  451MOL0     C59422   8.251  -0.297   1.130  0.8951 -0.3917 -0.6353
  451MOL0     C59423   8.104  -0.308   1.186 -0.1726 -0.2646 -0.7311
  451MOL0     O59424   8.025  -0.426   1.141  0.4003 -0.1329 -0.2162
  451MOL0     C59425   7.896  -0.418   1.177  1.6304  0.3214  1.0232
  451MOL0     C59426   7.817  -0.527   1.136 -0.5516 -0.0331  0.2397
  451MOL0     C59427   7.688  -0.548   1.177 -0.0506 -0.0063 -0.6864
  451MOL0     C59428   7.620  -0.451   1.243 -0.9133 -0.8943 -0.0155
  451MOL0     C59429   7.472  -0.465   1.265 -0.0493 -0.5265  0.1664
  451MOL0     O59430   7.423  -0.385   1.370 -0.0449  0.2301 -0.1879
  451MOL0     C59431   7.292  -0.407   1.413 -0.4242  0.8659 -0.0082
  451MOL0     C59432   7.186  -0.447   1.338 -0.5364 -0.1916 -0.6763
  451MOL0     C59433   7.064  -0.482   1.392  0.0346  0.7969 -0.8739
  451MOL0     C59434   7.048  -0.481   1.534  0.3890 -0.2153  0.2047
  451MOL0     O59435   6.929  -0.527   1.589 -0.0829 -0.1783  0.1184
  451MOL0     C59436   6.887  -0.480   1.722  0.1225  0.6678 -0.1404
  451MOL0     C59437   6.739  -0.454   1.729 -0.0457  0.3212  0.1959
  451MOL0     C59438   6.660  -0.577   1.712  0.7501  1.1201  0.1626
  451MOL0     C59439   6.513  -0.541   1.738  0.9532 -0.5939 -0.2066
  451MOL0     C59440   6.431  -0.665   1.704 -1.0736 -0.7422 -0.0453
  451MOL0     C59441   6.280  -0.637   1.693  0.4024 -0.5051  0.7463
  451MOL0     C59442   6.218  -0.755   1.627  0.4782  0.1961  0.3855
  451MOL0     C59443   6.072  -0.723   1.593 -0.5855  0.3028 -0.1709
  451MOL0    Cl59444   5.974  -0.681   1.739 -0.4298  0.1269 -0.2266
  451MOL0     C59445   7.156  -0.437   1.616  0.4607 -0.1794  0.3076
  451MOL0     C59446   7.278  -0.400   1.553 -0.2986 -0.0622 -0.0318
  451MOL0     O59447   7.410  -0.529   1.181  0.4047  0.1618  0.2945
  451MOL0     C59448   7.693  -0.341   1.295 -0.3815  0.2615  0.7127
  451MOL0     C59449   7.833  -0.330   1.255  0.6471 -0.0416 -0.0574
  451MOL0     N59450   8.544  -0.504   1.014 -0.1704  0.4007  0.6928
  451MOL0     N59451   8.668  -0.513   1.049  0.3705  0.2195  0.0345
  451MOL0     C59452   9.686   0.274   1.538 -0.5883 -0.5533  0.4516
  451MOL0     C59453   9.754   0.398   1.568  0.1389 -0.4364 -0.1038
  451MOL0     C59454   9.913   0.828   1.410  0.9251 -0.1221 -0.1987
  451MOL0     C59455   9.918   0.902   1.534 -0.4068 -0.2882 -0.3629
  451MOL0     C59456   9.985   1.026   1.541 -1.0741 -0.4468 -0.4371
  451MOL0     C59457  10.031   1.092   1.424  0.1299 -0.3693  0.1699
  451MOL0     O59458  10.094   1.215   1.426 -0.4855  0.6975  0.1179
  451MOL0     C59459  10.148   1.281   1.540  0.0824  0.4669 -0.7871
  451MOL0     C59460  10.289   1.231   1.568 -0.1745  0.5092  0.4852
  451MOL0     C59461  10.357   1.326   1.661  0.1776 -0.0813  0.4280
  451MOL0     C59462  10.417   1.439   1.582  0.5780 -0.6292  0.3096
  451MOL0     C59463  10.479   1.524   1.681 -0.1160 -0.3915  0.3306
  451MOL0     C59464  10.535   1.598   1.757  0.1364  0.4749  0.3008
  451MOL0     C59465  10.015   1.026   1.299  0.0282 -0.2082 -0.3058
  451MOL0     C59466   9.960   0.898   1.300  0.2131  0.5523 -0.2753
  451MOL0     H59467   9.578   0.606   1.357  1.3203  0.6715  0.2528
  451MOL0     H59468   9.472   0.402   1.296 -0.8032  4.5610 -0.1458
  451MOL0     H59469   9.472   0.026   1.554  1.2286 -3.2363  2.6280
  451MOL0     H59470   9.634  -0.013   1.477 -1.5436 -1.8572 -0.0192
  451MOL0     H59471   9.502  -0.176   1.427  3.2113 -0.4705 -0.8410
  451MOL0     H59472   9.503  -0.082   1.275 -1.3204  2.1775 -0.4234
  451MOL0     H59473   9.301   0.030   1.308  1.6025  0.7474  0.4089
  451MOL0     H59474   9.271  -0.038   1.465  1.7705  1.5837  0.2989
  451MOL0     H59475   9.298  -0.216   1.219 -0.7777 -1.0428  0.3209
  451MOL0     H59476   9.281  -0.275   1.382  1.5514  1.5459  1.8612
  451MOL0     H59477   9.069  -0.089   1.243 -2.4282 -1.7134 -0.5055
  451MOL0     H59478   9.048  -0.184   1.391 -2.0949  1.0998 -0.8470
  451MOL0     H59479   9.060  -0.390   1.253 -0.4896 -0.3817 -1.5079
  451MOL0     H59480   9.106  -0.290   1.111  0.7402  2.5953 -0.3839
  451MOL0     H59481   8.850  -0.322   1.264 -2.5314  2.7754 -0.2505
  451MOL0     H59482   8.877  -0.177   1.159 -1.1388 -0.8736  0.9864
  451MOL0     H59483   8.912  -0.468   1.079  1.0180  0.5148  0.4995
  451MOL0     H59484   8.910  -0.321   0.973  3.4189  1.8094  2.1416
  451MOL0     H59485   8.665  -0.189   1.012 -1.8156  0.9080 -1.7243
  451MOL0     H59486   8.400  -0.351   0.827  1.2505  0.8318 -0.5763
  451MOL0     H59487   8.412  -0.204   0.918 -1.8898  0.2523  1.4100
  451MOL0     H59488   8.263  -0.457   0.984  1.5746 -0.5239 -0.2880
  451MOL0     H59489   8.180  -0.313   0.935  0.3692 -0.4452  0.7491
  451MOL0     H59490   8.321  -0.346   1.198 -1.3975  0.8475  2.9063
  451MOL0     H59491   8.275  -0.191   1.147 -1.4416 -0.0659  1.2147
  451MOL0     H59492   8.042  -0.223   1.154  0.4569  1.2910  1.8726
  451MOL0     H59493   8.117  -0.292   1.293 -2.1846 -0.6115 -0.3900
  451MOL0     H59494   7.874  -0.606   1.088  0.6003  0.7490  0.2739
  451MOL0     H59495   7.626  -0.629   1.140 -0.2189 -0.0617 -0.2873
  451MOL0     H59496   7.195  -0.453   1.230  1.0898 -1.1173 -0.5230
  451MOL0     H59497   6.982  -0.508   1.326 -0.4101  0.9050 -0.3704
  451MOL0     H59498   6.945  -0.395   1.759  1.5903 -0.5706  0.5665
  451MOL0     H59499   6.911  -0.562   1.791  1.8352  1.2851  0.0529
  451MOL0     H59500   6.719  -0.381   1.650 -1.5769 -0.0213  0.2327
  451MOL0     H59501   6.721  -0.413   1.829 -0.0970 -1.2091  0.8517
  451MOL0     H59502   6.680  -0.659   1.783 -4.1115 -0.9402 -0.4347
  451MOL0     H59503   6.675  -0.614   1.610 -3.4198 -0.7434 -0.0142
  451MOL0     H59504   6.505  -0.516   1.844  0.6290  0.0288 -0.3770
  451MOL0     H59505   6.471  -0.461   1.677 -0.0995 -3.4498 -3.5811
  451MOL0     H59506   6.450  -0.728   1.792 -1.0189 -0.1724  0.3558
  451MOL0     H59507   6.466  -0.717   1.615  1.0960  0.3879  0.0938
  451MOL0     H59508   6.268  -0.550   1.627  0.6944 -0.9827  0.0589
  451MOL0     H59509   6.228  -0.622   1.789 -1.3945 -2.1249  0.0980
  451MOL0     H59510   6.277  -0.787   1.541 -2.4677 -2.4955 -0.8691
  451MOL0     H59511   6.239  -0.840   1.692  1.1485 -0.1177 -0.2334
  451MOL0     H59512   6.021  -0.805   1.541  0.3795 -0.5845  0.2242
  451MOL0     H59513   6.067  -0.636   1.528  1.7374  1.3176  0.9056
  451MOL0     H59514   7.158  -0.440   1.724 -0.0902 -0.9430  0.3106
  451MOL0     H59515   7.367  -0.378   1.611 -1.6338  1.0300  1.6749
  451MOL0     H59516   7.651  -0.268   1.365 -0.2265  0.8745  0.1747
  451MOL0     H59517   7.898  -0.252   1.295 -1.6989  2.7806 -1.3894
  451MOL0     H59518   9.707   0.178   1.583  0.3267 -1.0779 -1.0008
  451MOL0     H59519   9.827   0.412   1.648  0.6586 -4.1672  0.2620
  451MOL0     H59520   9.876   0.858   1.624  0.7362  0.6814  0.6899
  451MOL0     H59521   9.986   1.063   1.643  0.2248  1.8819 -1.2154
  451MOL0     H59522  10.095   1.261   1.633  0.9185  3.4296  0.4509
  451MOL0     H59523  10.147   1.390   1.532 -0.7454  0.6517  1.2207
  451MOL0     H59524  10.262   1.133   1.609  0.6941 -0.6693 -1.5994
  451MOL0     H59525  10.348   1.216   1.477 -1.7157  4.4415 -1.3858
  451MOL0     H59526  10.418   1.271   1.733  0.8490  0.3865  0.2173
  451MOL0     H59527  10.283   1.370   1.729 -2.0593  0.6371 -2.2523
  451MOL0     H59528  10.490   1.419   1.503 -0.0581  5.0730 -2.2281
  451MOL0     H59529  10.337   1.500   1.538  0.8671 -0.7695 -0.4302
  451MOL0     H59530  10.580   1.671   1.821  2.5903 -1.3261  0.7949
  451MOL0     H59531  10.053   1.075   1.210 -0.1196  1.7448  0.6679
  451MOL0     H59532   9.945   0.851   1.203 -1.0140  2.0032 -0.8283
  452MOL0     O59533  10.165   8.432   4.324  0.5153 -0.2768 -0.1130
  452MOL0     C59534  10.142   8.553   4.308  0.5162 -0.1138  0.4621
  452MOL0     O59535  10.244   8.655   4.302 -0.0520 -0.1689  0.3309
  452MOL0     C59536  10.371   8.623   4.361  0.0075 -0.2484  0.0974
  452MOL0     C59537  10.484   8.680   4.303  0.2557  1.0615 -0.3323
  452MOL0     C59538  10.607   8.669   4.361 -0.6747 -0.0472  0.3469
  452MOL0     C59539  10.621   8.592   4.479 -0.9414  0.3916 -0.1310
  452MOL0     O59540  10.748   8.567   4.525  0.9154 -0.1426  0.0684
  452MOL0     C59541  10.765   8.497   4.648  0.3349 -0.1190 -0.0082
  452MOL0     C59542  10.922   8.489   4.663  0.4392 -0.1143 -0.6526
  452MOL0     C59543  10.974   8.372   4.586 -0.1564  0.6560 -0.2669
  452MOL0     C59544  11.125   8.360   4.573  0.1241  0.6690 -0.4105
  452MOL0     C59545  11.165   8.220   4.516 -0.7128 -0.4299 -0.0714
  452MOL0     C59546  11.316   8.218   4.471  0.4470  0.3420 -0.3036
  452MOL0     C59547  11.378   8.075   4.487 -0.5552 -0.2068  0.1017
  452MOL0     C59548  11.502   8.067   4.397  0.5058 -0.0161 -1.1033
  452MOL0     N59549  11.593   8.172   4.443 -0.5730 -0.3079 -0.1715
  452MOL0     C59550  11.610   8.298   4.389  0.4977  1.2172  0.7382
  452MOL0     C59551  11.667   8.365   4.492 -0.2606  0.2895  0.2192
  452MOL0     C59552  11.668   8.519   4.500  0.2428 -0.0476 -0.3931
  452MOL0     C59553  11.530   8.579   4.531  0.2790 -0.4003 -0.2040
  452MOL0     C59554  11.467   8.519   4.659  0.6116 -0.3874  0.2870
  452MOL0     C59555  11.537   8.551   4.792 -0.4402  0.2065 -0.0757
  452MOL0     O59556  11.516   8.688   4.825  0.5379 -1.5402  0.6333
  452MOL0     C59557  11.387   8.731   4.869 -0.0636 -0.2350  1.0920
  452MOL0     C59558  11.363   8.865   4.871  0.1955  0.0915 -0.2086
  452MOL0     C59559  11.238   8.912   4.891  0.1262  0.2157 -0.5658
  452MOL0     C59560  11.125   8.823   4.913  0.3818 -0.1614  0.1293
  452MOL0     C59561  10.988   8.875   4.910  0.2456 -0.6144 -0.1416
  452MOL0     O59562  10.883   8.796   4.876  0.0990  0.4328  0.4809
  452MOL0     C59563  10.756   8.831   4.906 -0.0059 -0.2966 -0.0606
  452MOL0     C59564  10.728   8.894   5.025 -0.6491  0.0655  1.1422
  452MOL0     C59565  10.602   8.931   5.052  0.5223 -0.2920  0.2605
  452MOL0     C59566  10.498   8.905   4.968  0.3397  0.1670  0.2349
  452MOL0     O59567  10.387   8.961   5.011 -0.0787  0.3633 -0.5526
  452MOL0     C59568  10.270   8.938   4.928  0.1760  0.1096  1.1095
  452MOL0     C59569  10.147   8.977   5.007 -0.4651  0.1443  0.2879
  452MOL0     C59570  10.022   8.905   4.957  0.4717 -0.4180  0.5825
  452MOL0     C59571   9.909   8.903   5.059  0.2866 -0.2206 -1.0267
  452MOL0     C59572   9.793   8.819   4.996 -0.7124  0.0202 -0.2162
  452MOL0     C59573   9.645   8.847   5.037 -0.4075 -0.4110  0.7903
  452MOL0     C59574   9.632   8.837   5.188  0.0913  0.2147  0.9882
  452MOL0     C59575   9.491   8.883   5.218  0.6764  0.5108 -0.5197
  452MOL0    Cl59576   9.460   8.854   5.397 -0.1752 -0.2156  0.0865
  452MOL0     C59577  10.523   8.840   4.847 -0.0785  0.0872  0.5408
  452MOL0     C59578  10.657   8.801   4.815 -0.4558  0.1449  0.7404
  452MOL0     O59579  10.985   8.996   4.939  0.5928  0.3407 -1.0551
  452MOL0     C59580  11.159   8.690   4.921 -0.0152 -1.3343  0.4023
  452MOL0     C59581  11.288   8.640   4.898  0.1515  0.6488 -0.4529
  452MOL0     N59582  11.696   8.283   4.594 -1.1816  0.3774  0.3119
  452MOL0     N59583  11.657   8.163   4.565  0.0807 -0.0270  0.4252
  452MOL0     C59584  10.501   8.557   4.550  0.1686  0.7935  0.4284
  452MOL0     C59585  10.381   8.566   4.488 -0.0852 -0.3100 -0.2468
  452MOL0     C59586   9.995   8.601   4.308 -0.6197 -0.9605 -0.4212
  452MOL0     C59587   9.891   8.513   4.351 -1.1840 -0.7061 -0.1049
  452MOL0     C59588   9.758   8.545   4.350 -0.4837 -0.8939  0.5156
  452MOL0     C59589   9.719   8.670   4.294  0.6366 -0.1098 -0.0051
  452MOL0     O59590   9.581   8.687   4.280 -0.3977 -0.1441  0.6092
  452MOL0     C59591   9.534   8.825   4.276  0.4152  0.3546  0.7538
  452MOL0     C59592   9.379   8.834   4.274 -0.1488 -0.1805  0.0612
  452MOL0     C59593   9.321   8.967   4.225  0.0868  0.3901  0.1624
  452MOL0     C59594   9.172   8.992   4.250  0.0689  0.7656  0.2315
  452MOL0     C59595   9.099   8.899   4.158 -0.5626 -1.0027 -0.4217
  452MOL0     C59596   9.029   8.815   4.110  0.2109 -0.2302  0.3133
  452MOL0     C59597   9.812   8.764   4.269 -0.4212 -0.0149 -0.1841
  452MOL0     C59598   9.951   8.732   4.265  0.5055 -0.4790 -0.8548
  452MOL0     H59599  10.480   8.725   4.204 -2.9952  3.6909  0.7846
  452MOL0     H59600  10.694   8.702   4.306  0.9031 -2.0253  1.4922
  452MOL0     H59601  10.727   8.397   4.628  3.3932 -0.8599 -2.9624
  452MOL0     H59602  10.720   8.541   4.738 -1.6801  1.2242 -1.5862
  452MOL0     H59603  10.928   8.470   4.770 -1.8972 -2.5912 -0.8751
  452MOL0     H59604  10.972   8.583   4.636 -2.0097  0.8187 -2.3352
  452MOL0     H59605  10.933   8.373   4.485  0.3768 -3.1542 -0.6899
  452MOL0     H59606  10.937   8.282   4.637 -0.5962 -0.0352 -1.7527
  452MOL0     H59607  11.163   8.447   4.518  3.2576  0.4853  1.2045
  452MOL0     H59608  11.168   8.373   4.673 -1.7033 -0.8954  0.6505
  452MOL0     H59609  11.110   8.201   4.423  1.1188 -1.2271 -1.0418
  452MOL0     H59610  11.139   8.144   4.591  0.4513  0.7717  1.6179
  452MOL0     H59611  11.376   8.286   4.532  1.2357 -0.3292 -0.3133
  452MOL0     H59612  11.321   8.256   4.368  0.1680 -1.4227 -1.0082
  452MOL0     H59613  11.402   8.059   4.592  1.2016 -2.0078 -0.5256
  452MOL0     H59614  11.303   7.999   4.465  0.3027 -1.1319  0.3537
  452MOL0     H59615  11.481   8.091   4.293 -0.3688  0.6381 -0.7966
  452MOL0     H59616  11.538   7.964   4.407  0.9295  0.0940 -1.4808
  452MOL0     H59617  11.560   8.315   4.295  0.1851 -1.1125  0.4268
  452MOL0     H59618  11.710   8.548   4.403 -3.4945  2.3526 -1.5050
  452MOL0     H59619  11.742   8.550   4.574  0.2774 -1.1080  0.0317
  452MOL0     H59620  11.468   8.555   4.445 -0.7434 -1.2423  0.7326
  452MOL0     H59621  11.528   8.688   4.536 -0.5077 -0.4567  1.3022
  452MOL0     H59622  11.363   8.553   4.663  0.8747  0.5979 -0.7280
  452MOL0     H59623  11.471   8.410   4.646  4.4913 -0.2793 -0.7642
  452MOL0     H59624  11.644   8.537   4.773 -0.2491  0.7207  0.5979
  452MOL0     H59625  11.502   8.486   4.872 -0.2513  0.4748  0.2308
  452MOL0     H59626  11.440   8.940   4.860 -0.8034  1.0311 -0.9598
  452MOL0     H59627  11.219   9.018   4.882  0.8179  0.4732  0.7273
  452MOL0     H59628  10.797   8.918   5.105 -0.2321  3.1948 -0.0095
  452MOL0     H59629  10.581   8.970   5.151  2.4686 -0.1558  0.6728
  452MOL0     H59630  10.258   8.832   4.902 -3.3497  0.7830 -0.6729
  452MOL0     H59631  10.278   8.993   4.833  2.8499 -0.3806  0.9860
  452MOL0     H59632  10.137   9.086   5.011 -2.1673 -0.0007  0.6673
  452MOL0     H59633  10.159   8.942   5.110  2.1433  0.7299  0.2584
  452MOL0     H59634  10.037   8.803   4.920 -0.1202  0.5030 -2.4995
  452MOL0     H59635   9.991   8.947   4.861  0.8493 -0.2858  0.5182
  452MOL0     H59636   9.937   8.855   5.153 -2.2590  1.3946  0.6906
  452MOL0     H59637   9.872   9.005   5.071  1.2920  0.0248  0.2239
  452MOL0     H59638   9.812   8.713   5.011  0.2890  0.4475  1.8144
  452MOL0     H59639   9.799   8.837   4.888  0.0560 -1.8460 -0.5171
  452MOL0     H59640   9.590   8.766   4.988 -0.3696  0.3720 -0.5978
  452MOL0     H59641   9.616   8.938   4.985  0.7832 -1.1963 -1.3369
  452MOL0     H59642   9.635   8.733   5.223 -2.6895 -0.5572 -0.7670
  452MOL0     H59643   9.707   8.907   5.227 -0.2834  1.4932 -0.5250
  452MOL0     H59644   9.414   8.827   5.163 -1.6028  4.2060 -1.4413
  452MOL0     H59645   9.487   8.990   5.197  1.1210  0.9526  1.5035
  452MOL0     H59646  10.438   8.826   4.782 -1.2466  2.4807  1.4437
  452MOL0     H59647  10.685   8.753   4.722  1.6176 -0.7762  1.7572
  452MOL0     H59648  11.079   8.620   4.944 -0.4748 -0.9619 -0.0363
  452MOL0     H59649  11.277   8.533   4.892 -3.6742  0.9008 -1.0269
  452MOL0     H59650  10.515   8.483   4.628  1.8868 -1.5489 -1.9482
  452MOL0     H59651  10.288   8.530   4.530 -2.5364  4.4269 -0.8729
  452MOL0     H59652   9.919   8.415   4.390  3.8349 -0.6058 -2.5907
  452MOL0     H59653   9.673   8.507   4.406 -0.8757  3.3771  3.3694
  452MOL0     H59654   9.568   8.892   4.198  0.0628  0.5862  0.7953
  452MOL0     H59655   9.557   8.873   4.372 -0.3065 -2.1676  2.2956
  452MOL0     H59656   9.342   8.745   4.221 -0.0891 -1.5650  2.1972
  452MOL0     H59657   9.340   8.820   4.375 -1.2702  0.6597 -0.2423
  452MOL0     H59658   9.341   8.987   4.119 -0.8830  2.7455  0.3663
  452MOL0     H59659   9.374   9.048   4.274  0.8992  1.2033 -1.9413
  452MOL0     H59660   9.146   8.977   4.355 -1.7404  1.4401 -0.0851
  452MOL0     H59661   9.147   9.096   4.224 -1.3849  0.6994  1.2912
  452MOL0     H59662   8.973   8.734   4.068  1.3023 -0.1652 -1.3432
  452MOL0     H59663   9.788   8.867   4.245  3.4618  0.9991 -0.3530
  452MOL0     H59664  10.026   8.810   4.256 -1.3258  1.1910 -2.4279
  453MOL0     O59665   1.574   6.988   6.005 -0.1709  0.0615 -0.2594
  453MOL0     C59666   1.612   6.979   6.124  1.0145 -0.6280  0.0449
  453MOL0     O59667   1.542   7.007   6.242 -0.0264 -0.0326  0.0834
  453MOL0     C59668   1.403   6.987   6.236 -0.0945  0.7995 -0.5753
  453MOL0     C59669   1.334   6.898   6.154 -0.3351 -0.6867  0.0328
  453MOL0     C59670   1.193   6.895   6.150  0.4131  0.0206 -1.0515
  453MOL0     C59671   1.114   6.980   6.235  0.5454 -0.3454  0.3852
  453MOL0     O59672   0.980   6.962   6.230 -0.1284 -0.4205  0.1506
  453MOL0     C59673   0.908   7.027   6.331 -0.4017  0.5476  0.2482
  453MOL0     C59674   0.766   6.967   6.314  0.2025  0.2639  0.3606
  453MOL0     C59675   0.671   7.036   6.413  0.7465  0.6120 -0.6059
  453MOL0     C59676   0.522   7.021   6.371 -0.0177  0.6515  0.7299
  453MOL0     C59677   0.441   7.105   6.461 -0.5814 -0.0798  0.2611
  453MOL0     C59678   0.294   7.077   6.430  0.6890  0.0809  0.6452
  453MOL0     C59679   0.197   7.154   6.523  0.1532  0.2645 -0.3157
  453MOL0     C59680   0.204   7.107   6.676 -0.9557 -0.0721  0.6449
  453MOL0     N59681   0.087   7.162   6.745 -0.1295 -0.6291 -0.6584
  453MOL0     C59682   0.095   7.266   6.831  0.6105 -1.6361  0.3849
  453MOL0     C59683  -0.033   7.289   6.869 -0.4034  0.1342  0.4592
  453MOL0     C59684  -0.071   7.383   6.973 -1.1109 -0.9909  1.2729
  453MOL0     C59685  -0.139   7.312   7.087  0.2792 -0.7118 -0.3483
  453MOL0     C59686  -0.082   7.174   7.135 -0.0847  0.0468  0.2047
  453MOL0     C59687  -0.113   7.147   7.281  0.2913  0.3686  0.1092
  453MOL0     O59688  -0.055   7.251   7.363  0.3179 -0.1486 -0.0079
  453MOL0     C59689   0.079   7.269   7.360  0.2482 -0.0614  1.0748
  453MOL0     C59690   0.131   7.396   7.406  0.6326 -0.2448  0.1109
  453MOL0     C59691   0.272   7.414   7.416 -0.3230  0.1945  0.1098
  453MOL0     C59692   0.364   7.314   7.375 -0.0810  0.0048 -0.0547
  453MOL0     C59693   0.511   7.341   7.352  0.3018  1.0285 -0.1067
  453MOL0     O59694   0.602   7.235   7.345  0.3098 -0.3569 -0.7987
  453MOL0     C59695   0.726   7.250   7.289 -0.3087 -0.2730 -0.1921
  453MOL0     C59696   0.825   7.158   7.342  0.0723 -0.8322  0.1170
  453MOL0     C59697   0.954   7.145   7.291  0.9928  0.9249  0.0057
  453MOL0     C59698   0.996   7.227   7.185 -1.1537  0.4549  0.2329
  453MOL0     O59699   1.119   7.213   7.128  0.4911  0.2596 -0.3059
  453MOL0     C59700   1.203   7.334   7.109 -0.0647  0.7876  0.5377
  453MOL0     C59701   1.356   7.312   7.081  0.6119  0.4754 -0.5303
  453MOL0     C59702   1.440   7.293   7.201 -0.9992 -0.3579  0.9034
  453MOL0     C59703   1.585   7.262   7.169  0.2478  0.4423  0.4373
  453MOL0     C59704   1.680   7.281   7.288  0.5523 -0.5717 -0.2638
  453MOL0     C59705   1.720   7.159   7.366  0.0413 -0.1686  0.5884
  453MOL0     C59706   1.606   7.068   7.402 -0.3118 -0.2101 -1.0636
  453MOL0     C59707   1.521   7.120   7.518 -0.1932  0.2199  0.5813
  453MOL0    Cl59708   1.372   7.011   7.534  0.7044  0.5133 -0.3628
  453MOL0     C59709   0.898   7.311   7.129 -0.6764 -0.2433 -0.5653
  453MOL0     C59710   0.771   7.326   7.180 -0.3484  0.4805 -0.0337
  453MOL0     O59711   0.532   7.458   7.340 -0.3567  0.2446 -0.5916
  453MOL0     C59712   0.309   7.187   7.337  0.6727 -0.3973 -0.4701
  453MOL0     C59713   0.167   7.167   7.329 -0.1181 -1.3950 -0.5616
  453MOL0     N59714  -0.118   7.209   6.796 -0.1594 -0.3123 -0.1002
  453MOL0     N59715  -0.042   7.132   6.729  0.0869 -0.2026  1.1560
  453MOL0     C59716   1.186   7.067   6.316 -0.7665 -0.3080  0.6960
  453MOL0     C59717   1.331   7.072   6.313  0.6498  0.1537 -1.0432
  453MOL0     C59718   1.748   6.957   6.154  0.1061 -0.1419 -0.1684
  453MOL0     C59719   1.820   7.018   6.263  0.8729  0.8598 -0.4085
  453MOL0     C59720   1.957   7.012   6.283 -0.1472  0.9317  0.8289
  453MOL0     C59721   2.040   6.937   6.190  0.1409 -0.1154  0.0808
  453MOL0     O59722   2.176   6.946   6.205  0.5823  0.3297 -0.2540
  453MOL0     C59723   2.273   6.853   6.155  0.1434  0.6035  0.2091
  453MOL0     C59724   2.400   6.869   6.230  0.3973 -0.3203  0.1857
  453MOL0     C59725   2.411   6.782   6.358 -0.0956  0.0329  0.6172
  453MOL0     C59726   2.395   6.630   6.331  0.5351 -0.0700 -0.0940
  453MOL0     C59727   2.372   6.564   6.460 -0.6406 -0.0026  0.4031
  453MOL0     C59728   2.353   6.522   6.572 -0.3190  0.4237  0.9020
  453MOL0     C59729   1.973   6.863   6.095 -0.1450  0.1471  0.3496
  453MOL0     C59730   1.834   6.885   6.074  1.1133  0.4563  0.5296
  453MOL0     H59731   1.387   6.823   6.094  3.3436  0.8937  0.9941
  453MOL0     H59732   1.155   6.821   6.080  0.6963  0.3115 -1.5205
  453MOL0     H59733   0.909   7.137   6.331 -4.3950  0.7363 -0.6930
  453MOL0     H59734   0.950   6.989   6.425  0.8918 -1.5572 -1.1254
  453MOL0     H59735   0.768   6.857   6.316 -1.3382  0.2117  0.6170
  453MOL0     H59736   0.732   7.010   6.220  0.1109  0.5896  0.5436
  453MOL0     H59737   0.688   7.144   6.425  1.2471  0.3000  2.0426
  453MOL0     H59738   0.689   6.994   6.512 -0.1328  0.9933 -0.2676
  453MOL0     H59739   0.519   7.042   6.264  1.3115  0.3504  0.6071
  453MOL0     H59740   0.499   6.916   6.390  1.5286  0.1198 -0.1078
  453MOL0     H59741   0.469   7.210   6.449 -1.3417 -0.1117 -2.4479
  453MOL0     H59742   0.469   7.082   6.564 -2.5373 -0.7378  0.6937
  453MOL0     H59743   0.283   6.971   6.454 -0.6824  0.0048 -0.1499
  453MOL0     H59744   0.257   7.096   6.328 -0.2418 -0.2140  0.9159
  453MOL0     H59745   0.235   7.257   6.528 -0.1498  0.3546  0.1956
  453MOL0     H59746   0.092   7.156   6.494 -0.3901  0.7382  1.5664
  453MOL0     H59747   0.299   7.142   6.715 -1.8706  3.3429  0.1422
  453MOL0     H59748   0.205   6.997   6.675  2.7384 -0.2046 -1.9553
  453MOL0     H59749   0.189   7.306   6.868  1.0651  0.0151 -2.2590
  453MOL0     H59750  -0.144   7.457   6.941  0.5802  0.9662  1.7261
  453MOL0     H59751   0.020   7.438   6.999 -0.5010 -2.4500  2.3957
  453MOL0     H59752  -0.243   7.296   7.060  0.0898 -0.9264  0.4643
  453MOL0     H59753  -0.139   7.381   7.173 -1.3178 -0.6795 -0.3490
  453MOL0     H59754  -0.111   7.086   7.076  3.5056 -1.5166  0.5197
  453MOL0     H59755   0.025   7.170   7.116  0.2590 -3.1037  2.1457
  453MOL0     H59756  -0.071   7.051   7.312  0.3635  0.5625  0.6142
  453MOL0     H59757  -0.219   7.140   7.306  0.9170  0.7267  3.2256
  453MOL0     H59758   0.071   7.484   7.425  1.7596  0.3709  0.9581
  453MOL0     H59759   0.310   7.511   7.448 -1.5489  0.4766  0.7781
  453MOL0     H59760   0.794   7.090   7.420  0.5033 -2.1933 -0.8432
  453MOL0     H59761   1.023   7.075   7.339 -0.6750  0.0177  1.1894
  453MOL0     H59762   1.190   7.414   7.183 -0.6661 -1.0609  2.5112
  453MOL0     H59763   1.177   7.382   7.014  2.3344 -0.4714 -0.8608
  453MOL0     H59764   1.388   7.396   7.018  3.0180 -1.8843 -2.7259
  453MOL0     H59765   1.360   7.224   7.016 -3.3381 -0.5195  0.2910
  453MOL0     H59766   1.400   7.217   7.269  2.4709 -4.7789 -1.4341
  453MOL0     H59767   1.437   7.390   7.251 -2.1420  0.7202 -1.1014
  453MOL0     H59768   1.600   7.165   7.121  1.3784  0.5948  0.4594
  453MOL0     H59769   1.614   7.338   7.097 -2.4165  0.2942 -0.9112
  453MOL0     H59770   1.628   7.350   7.355  1.4718  0.6427 -0.7565
  453MOL0     H59771   1.761   7.348   7.260  0.4255  0.7671  2.2741
  453MOL0     H59772   1.775   7.179   7.458  4.2217 -1.2822 -1.4530
  453MOL0     H59773   1.783   7.098   7.301 -0.2520  1.6983 -1.5671
  453MOL0     H59774   1.535   7.054   7.320 -0.8242 -0.6081 -0.5519
  453MOL0     H59775   1.653   6.975   7.436  0.4718  0.6702  0.3934
  453MOL0     H59776   1.497   7.226   7.505 -2.1406 -0.2686 -0.1548
  453MOL0     H59777   1.576   7.112   7.612  2.7971 -0.0364 -1.0728
  453MOL0     H59778   0.930   7.362   7.038 -1.4795  1.8861  0.2897
  453MOL0     H59779   0.700   7.390   7.129 -0.1877  1.1058  0.5242
  453MOL0     H59780   0.375   7.106   7.304  0.2765 -0.9067 -0.0353
  453MOL0     H59781   0.128   7.074   7.288  0.5453 -2.0049  0.1626
  453MOL0     H59782   1.142   7.148   6.373  0.0703  1.6945 -1.3340
  453MOL0     H59783   1.385   7.149   6.366 -1.8821 -0.0716  2.2112
  453MOL0     H59784   1.774   7.093   6.326 -0.6846 -1.9648  2.0532
  453MOL0     H59785   2.015   7.073   6.352  0.2660  1.6283 -0.1111
  453MOL0     H59786   2.289   6.885   6.052 -2.5253  0.1098 -0.4397
  453MOL0     H59787   2.230   6.753   6.150 -0.2579  0.6814  1.6079
  453MOL0     H59788   2.473   6.838   6.154  0.7386  2.3710 -0.7056
  453MOL0     H59789   2.419   6.976   6.241  0.8935 -0.2438 -1.1478
  453MOL0     H59790   2.339   6.828   6.426  0.3437  0.7095  0.6303
  453MOL0     H59791   2.503   6.806   6.412 -0.4215  0.6431  0.9188
  453MOL0     H59792   2.306   6.606   6.273 -0.1601  0.3602  0.7642
  453MOL0     H59793   2.482   6.585   6.281  1.5375  2.1648 -0.4942
  453MOL0     H59794   2.331   6.481   6.668  1.5584 -0.3101  1.0679
  453MOL0     H59795   2.024   6.781   6.047 -0.6795  0.5888 -1.0195
  453MOL0     H59796   1.809   6.810   5.999  2.9455  0.8065 -0.5010
  454MOL0     O59797   3.724   4.497   4.565 -0.6083  0.4857 -0.4032
  454MOL0     C59798   3.800   4.423   4.622  0.8960  0.4359 -0.0300
  454MOL0     O59799   3.759   4.329   4.712  0.3123  0.0681  0.3235
  454MOL0     C59800   3.638   4.342   4.761  0.0499 -0.8127 -0.3367
  454MOL0     C59801   3.606   4.457   4.840  0.4717  0.8490 -0.0639
  454MOL0     C59802   3.478   4.470   4.889  0.2923 -0.0796 -0.2948
  454MOL0     C59803   3.398   4.357   4.892  0.3452  0.6355  0.1398
  454MOL0     O59804   3.289   4.363   4.976 -0.0464  0.2992 -0.2216
  454MOL0     C59805   3.191   4.250   4.972  0.3423  0.0436  0.0676
  454MOL0     C59806   3.077   4.283   5.068 -0.6418  0.6854  0.8919
  454MOL0     C59807   2.974   4.390   5.030 -0.4057 -0.0466 -0.1996
  454MOL0     C59808   2.857   4.412   5.125  0.6033  0.1536  0.3591
  454MOL0     C59809   2.759   4.506   5.057  0.0823  0.5908 -0.0937
  454MOL0     C59810   2.628   4.517   5.139 -0.0187 -0.0987 -0.7829
  454MOL0     C59811   2.521   4.603   5.067 -0.4014 -0.1286 -0.3254
  454MOL0     C59812   2.422   4.515   4.992 -0.4340 -0.2737  0.0330
  454MOL0     N59813   2.321   4.609   4.922 -0.3036  0.2458  0.6215
  454MOL0     C59814   2.255   4.714   4.977 -0.4093 -0.0875 -0.1603
  454MOL0     C59815   2.161   4.743   4.883 -0.4486 -0.0853  0.6597
  454MOL0     C59816   2.057   4.839   4.909  0.5217  0.9968  0.1485
  454MOL0     C59817   1.945   4.782   4.994 -0.7056 -0.1849 -0.5061
  454MOL0     C59818   1.840   4.886   5.030 -0.2733 -0.2620  0.3376
  454MOL0     C59819   1.740   4.828   5.133  0.3918  0.6794  0.3894
  454MOL0     O59820   1.653   4.927   5.179  0.4079 -0.2195  0.6102
  454MOL0     C59821   1.570   4.906   5.287 -0.8014 -0.1800 -0.6294
  454MOL0     C59822   1.562   4.782   5.356 -0.1880  0.4279 -0.1557
  454MOL0     C59823   1.484   4.768   5.467  0.3178  0.3794  0.0722
  454MOL0     C59824   1.405   4.875   5.519 -0.2782  0.3845  0.5712
  454MOL0     C59825   1.306   4.855   5.630  0.2765  0.3776  0.6008
  454MOL0     O59826   1.276   4.737   5.672 -0.3313  0.3990  0.0516
  454MOL0     C59827   1.184   4.720   5.772 -0.0984  1.2250 -0.1079
  454MOL0     C59828   1.218   4.665   5.886 -0.5235  0.3433 -0.6132
  454MOL0     C59829   1.128   4.639   5.986 -0.5780  0.3032 -0.8779
  454MOL0     C59830   0.992   4.676   5.970 -0.3066  0.1246  0.0183
  454MOL0     O59831   0.904   4.650   6.073  0.3457  0.8897 -0.3514
  454MOL0     C59832   0.778   4.711   6.069  0.3443 -0.1239  0.2370
  454MOL0     C59833   0.709   4.702   6.202  0.1062  0.1521 -0.1289
  454MOL0     C59834   0.791   4.778   6.309 -0.1695 -0.1337  0.2942
  454MOL0     C59835   0.766   4.732   6.452  0.5201 -0.1590  0.1380
  454MOL0     C59836   0.620   4.756   6.500  0.6382  0.3357  0.4517
  454MOL0     C59837   0.591   4.648   6.620 -0.6263  0.2510  0.2823
  454MOL0     C59838   0.452   4.656   6.680 -0.1169  0.0566 -0.8163
  454MOL0     C59839   0.417   4.800   6.737  0.0913 -0.0926  0.0802
  454MOL0    Cl59840   0.274   4.802   6.851 -0.2064  0.2569  0.0644
  454MOL0     C59841   0.954   4.749   5.859 -0.6630  0.0081 -0.1244
  454MOL0     C59842   1.051   4.765   5.757  0.2545 -1.1309 -0.1107
  454MOL0     O59843   1.262   4.960   5.676  0.2491  0.5434 -0.3156
  454MOL0     C59844   1.422   4.995   5.455  0.1417  0.0254 -0.1703
  454MOL0     C59845   1.504   5.013   5.348 -0.0699 -0.1360 -0.0354
  454MOL0     N59846   2.182   4.673   4.769 -0.3119  0.1148  0.1303
  454MOL0     N59847   2.278   4.591   4.791 -0.8398 -0.2532 -0.6060
  454MOL0     C59848   3.431   4.242   4.808 -0.5268  0.6251 -0.1325
  454MOL0     C59849   3.550   4.238   4.742 -0.5763 -0.5150 -0.0511
  454MOL0     C59850   3.929   4.393   4.551  0.3872 -0.4284 -0.3328
  454MOL0     C59851   3.968   4.477   4.447 -0.5039  0.5096 -0.2085
  454MOL0     C59852   4.095   4.451   4.399  0.2074 -0.8979  0.5157
  454MOL0     C59853   4.177   4.356   4.446  0.3320 -0.1942 -0.3453
  454MOL0     O59854   4.305   4.330   4.396  0.2604  0.1609  0.4392
  454MOL0     C59855   4.362   4.431   4.311  0.2895  0.1200 -0.1453
  454MOL0     C59856   4.513   4.402   4.290 -0.1871  0.0401 -0.6296
  454MOL0     C59857   4.584   4.419   4.417 -0.5800 -0.2745 -0.6661
  454MOL0     C59858   4.732   4.387   4.413  0.2554  0.9425 -0.4113
  454MOL0     C59859   4.813   4.490   4.351 -0.2003 -0.9793  0.8193
  454MOL0     C59860   4.869   4.584   4.284 -0.4791  0.4431 -1.1861
  454MOL0     C59861   4.131   4.268   4.536 -0.5325 -0.7038 -0.4138
  454MOL0     C59862   4.009   4.280   4.592  0.7703 -0.8015  0.0396
  454MOL0     H59863   3.667   4.546   4.855  0.7633  0.4422  1.3264
  454MOL0     H59864   3.440   4.556   4.943  1.1701 -0.0855  0.3566
  454MOL0     H59865   3.238   4.160   5.013  3.0104  0.6951 -1.3078
  454MOL0     H59866   3.149   4.236   4.872 -6.4006  0.1040  2.4236
  454MOL0     H59867   3.129   4.319   5.156 -2.5787  0.0962  2.3448
  454MOL0     H59868   3.031   4.189   5.101  2.2245 -0.4908  1.8634
  454MOL0     H59869   2.939   4.378   4.927 -0.2484  2.7084 -0.6464
  454MOL0     H59870   3.026   4.486   5.028 -1.2697  0.4537  0.2663
  454MOL0     H59871   2.813   4.313   5.143 -2.5580  1.1800 -0.9638
  454MOL0     H59872   2.880   4.450   5.225 -0.4448 -1.6638  1.3414
  454MOL0     H59873   2.738   4.464   4.958 -0.5167  0.0458  0.2621
  454MOL0     H59874   2.797   4.606   5.036 -1.0100  0.3998 -3.7505
  454MOL0     H59875   2.640   4.551   5.243  0.7548 -1.4377 -0.4127
  454MOL0     H59876   2.591   4.415   5.156  1.4242 -0.3297  1.3590
  454MOL0     H59877   2.475   4.667   5.142  1.8640 -0.8918  1.8519
  454MOL0     H59878   2.568   4.672   4.997  2.8584  0.1139  1.8619
  454MOL0     H59879   2.372   4.447   5.061 -0.2893 -0.8023 -0.3762
  454MOL0     H59880   2.476   4.458   4.916 -1.1858  0.5726 -1.1900
  454MOL0     H59881   2.254   4.755   5.077 -1.1940 -1.2831  0.3342
  454MOL0     H59882   2.010   4.884   4.822 -3.1037  0.7129  1.7598
  454MOL0     H59883   2.111   4.913   4.970  0.9626 -0.8036  2.0881
  454MOL0     H59884   1.985   4.743   5.089 -1.5571 -2.0503 -0.8656
  454MOL0     H59885   1.889   4.702   4.945 -2.7299  1.0905 -0.3945
  454MOL0     H59886   1.893   4.978   5.059 -3.0370  1.8758 -0.8750
  454MOL0     H59887   1.779   4.916   4.944 -0.9602  2.9985  1.7955
  454MOL0     H59888   1.797   4.793   5.219 -0.2557 -1.2823  0.0860
  454MOL0     H59889   1.679   4.742   5.101 -0.0106  1.0333  0.2002
  454MOL0     H59890   1.609   4.693   5.315  0.1800  0.6513 -0.2162
  454MOL0     H59891   1.476   4.670   5.514  3.3745 -0.4831 -0.9649
  454MOL0     H59892   1.318   4.632   5.910 -0.6410 -0.4198 -1.1339
  454MOL0     H59893   1.162   4.600   6.081  2.0341 -0.3369 -1.9654
  454MOL0     H59894   0.725   4.661   5.988  0.7064 -0.4376  0.1917
  454MOL0     H59895   0.787   4.820   6.057 -1.0095 -0.1307 -1.2818
  454MOL0     H59896   0.704   4.595   6.226 -5.0537  0.3250  0.6693
  454MOL0     H59897   0.607   4.740   6.193  0.3861  0.6525 -1.2103
  454MOL0     H59898   0.771   4.885   6.306  1.1395  0.1395  0.8739
  454MOL0     H59899   0.896   4.766   6.280 -0.2001  3.0759 -1.5857
  454MOL0     H59900   0.784   4.624   6.452 -2.1571 -0.7405  3.0588
  454MOL0     H59901   0.844   4.774   6.517  0.9961 -1.1420  0.2135
  454MOL0     H59902   0.545   4.738   6.422 -0.5414 -1.2459  1.8683
  454MOL0     H59903   0.608   4.855   6.544 -0.6568  0.7085 -0.6615
  454MOL0     H59904   0.662   4.676   6.699  0.7872  1.3515 -1.3039
  454MOL0     H59905   0.608   4.544   6.593 -1.6818 -0.2682  1.5031
  454MOL0     H59906   0.368   4.624   6.616 -0.4092 -0.0303 -0.3913
  454MOL0     H59907   0.445   4.585   6.763 -0.6145 -0.9656 -1.7027
  454MOL0     H59908   0.414   4.874   6.657  1.9311  0.4241  0.4286
  454MOL0     H59909   0.503   4.827   6.799 -1.4134 -1.6355  3.0715
  454MOL0     H59910   0.852   4.781   5.841 -0.3933  0.4106 -1.0011
  454MOL0     H59911   1.021   4.819   5.668 -0.3069 -1.6565 -0.2397
  454MOL0     H59912   1.358   5.076   5.489 -0.8774 -1.4525  1.5715
  454MOL0     H59913   1.515   5.115   5.310 -0.3575 -0.6509 -1.5793
  454MOL0     H59914   3.367   4.156   4.793  1.3237 -1.1294  1.4835
  454MOL0     H59915   3.582   4.152   4.684  0.2674  0.1997 -0.6667
  454MOL0     H59916   3.906   4.557   4.407 -0.8766 -0.2304 -1.1514
  454MOL0     H59917   4.121   4.505   4.308  0.0838 -2.4212 -0.4550
  454MOL0     H59918   4.348   4.532   4.350 -0.3053 -0.2731  0.6784
  454MOL0     H59919   4.316   4.429   4.212  0.8432  0.8579 -0.4278
  454MOL0     H59920   4.524   4.301   4.250  4.1352  0.3896 -0.8029
  454MOL0     H59921   4.559   4.469   4.217  4.1642  0.4211  2.0848
  454MOL0     H59922   4.537   4.347   4.485  0.6079  0.7000  1.2649
  454MOL0     H59923   4.560   4.516   4.461  0.1019 -0.2858 -0.2558
  454MOL0     H59924   4.782   4.360   4.506  0.9125 -2.7236 -1.6457
  454MOL0     H59925   4.743   4.291   4.360 -0.3470 -0.4074  1.7893
  454MOL0     H59926   4.923   4.668   4.244  1.5671 -1.2922 -2.2876
  454MOL0     H59927   4.205   4.192   4.557  0.6435  0.6846  0.7413
  454MOL0     H59928   3.972   4.204   4.659  0.8770 -1.8012 -1.0138
  455MOL0     O59929   7.285   4.462   5.908 -0.3313  0.5298  0.2212
  455MOL0     C59930   7.325   4.371   5.971  0.2399  1.1802  0.5952
  455MOL0     O59931   7.283   4.243   5.954  0.3468 -0.8361 -0.9068
  455MOL0     C59932   7.192   4.224   5.858 -0.1419  0.0636 -0.5246
  455MOL0     C59933   7.226   4.149   5.750 -0.2122 -0.3482  1.0613
  455MOL0     C59934   7.128   4.114   5.653  1.0575  0.3036 -0.6533
  455MOL0     C59935   6.996   4.158   5.669 -0.9210 -0.2358  0.1571
  455MOL0     O59936   6.904   4.116   5.584  0.5814 -0.1614 -0.4747
  455MOL0     C59937   6.937   4.041   5.477  0.2670  1.1179  0.1724
  455MOL0     C59938   6.810   4.016   5.389  0.2550  0.2195  0.4873
  455MOL0     C59939   6.715   3.909   5.455  0.3197  0.1357  0.5021
  455MOL0     C59940   6.595   3.880   5.370 -0.0975 -0.2652 -0.4186
  455MOL0     C59941   6.483   3.812   5.428  0.3969 -0.3566 -0.8923
  455MOL0     C59942   6.539   3.680   5.502  1.1118 -0.1567 -1.4549
  455MOL0     C59943   6.439   3.564   5.514 -0.4458  0.8670  0.1600
  455MOL0     C59944   6.513   3.437   5.562 -0.1553 -0.3599  0.2301
  455MOL0     N59945   6.411   3.330   5.594  0.1310  0.2413  0.3484
  455MOL0     C59946   6.405   3.201   5.539 -0.0160  0.1237  0.2393
  455MOL0     C59947   6.302   3.146   5.604  0.0607 -0.2133 -0.0411
  455MOL0     C59948   6.243   3.006   5.582  0.6160  0.6525 -0.8639
  455MOL0     C59949   6.209   2.979   5.437 -0.6137 -0.1385 -0.4655
  455MOL0     C59950   6.088   3.052   5.378  0.8933  0.0364  0.6656
  455MOL0     C59951   6.090   3.202   5.393 -0.2176 -0.9019  0.7796
  455MOL0     O59952   5.994   3.259   5.304  0.2554 -0.7755 -0.5340
  455MOL0     C59953   5.982   3.395   5.303  0.3478  0.7878  0.6202
  455MOL0     C59954   5.866   3.440   5.237  0.7257 -0.2316 -0.1274
  455MOL0     C59955   5.841   3.577   5.210 -0.0310  0.2047  0.2381
  455MOL0     C59956   5.914   3.671   5.277 -0.7989  0.4739  0.2578
  455MOL0     C59957   5.862   3.815   5.267 -0.2285  0.1010 -0.3947
  455MOL0     O59958   5.748   3.855   5.207  0.7028 -0.2882  0.3515
  455MOL0     C59959   5.720   3.992   5.201  0.1222  0.7187  0.2344
  455MOL0     C59960   5.591   4.031   5.235 -0.0233 -0.2298 -0.3147
  455MOL0     C59961   5.549   4.173   5.233  0.3183  0.2201 -0.3841
  455MOL0     C59962   5.639   4.267   5.182 -1.0296  0.0227  0.0171
  455MOL0     O59963   5.607   4.396   5.185  0.5650  0.2346 -0.4098
  455MOL0     C59964   5.702   4.493   5.141  0.2844  0.2331 -0.0904
  455MOL0     C59965   5.664   4.639   5.139  0.1780 -1.0288  0.1877
  455MOL0     C59966   5.567   4.656   5.026 -0.6981 -0.7040  0.5757
  455MOL0     C59967   5.534   4.812   5.006  0.5999  0.5925 -0.4988
  455MOL0     C59968   5.430   4.837   4.893 -0.8052 -0.4084  0.3175
  455MOL0     C59969   5.394   4.991   4.885 -0.2383 -0.3755 -0.0657
  455MOL0     C59970   5.292   5.019   4.775  0.5046 -0.7470  0.3894
  455MOL0     C59971   5.230   5.156   4.801 -0.1731  0.1902  0.7963
  455MOL0    Cl59972   5.115   5.150   4.934  0.0232 -0.4222  0.1423
  455MOL0     C59973   5.764   4.221   5.133 -0.0537  0.0889  0.0180
  455MOL0     C59974   5.803   4.089   5.142  0.1976 -0.4826 -0.2266
  455MOL0     O59975   5.946   3.890   5.319  0.3974  0.5618  0.2565
  455MOL0     C59976   6.029   3.626   5.346 -0.4141 -0.2450  0.8201
  455MOL0     C59977   6.069   3.494   5.355 -0.8051  0.0966  0.3595
  455MOL0     N59978   6.259   3.228   5.705  0.4138 -0.5874  0.0025
  455MOL0     N59979   6.322   3.340   5.697  1.1825  0.2354 -0.5697
  455MOL0     C59980   6.961   4.233   5.783 -0.3889 -0.3507 -0.0671
  455MOL0     C59981   7.064   4.274   5.872 -0.0818  0.4629 -1.1546
  455MOL0     C59982   7.405   4.403   6.084 -0.1246 -0.0246 -0.2241
  455MOL0     C59983   7.493   4.309   6.142  0.8811  0.1237 -0.2331
  455MOL0     C59984   7.579   4.341   6.240 -0.0807 -0.2162  0.5787
  455MOL0     C59985   7.588   4.468   6.299  0.3082  0.3522 -0.2788
  455MOL0     O59986   7.678   4.495   6.398 -0.0268 -0.0530 -0.1425
  455MOL0     C59987   7.697   4.630   6.427  0.0310 -1.0897 -0.6141
  455MOL0     C59988   7.794   4.704   6.331  0.4044 -1.6570  0.4867
  455MOL0     C59989   7.836   4.845   6.388 -0.1623 -0.4689 -0.3324
  455MOL0     C59990   7.919   4.830   6.518  0.2719  0.4889  0.0076
  455MOL0     C59991   8.026   4.928   6.531  0.2755  0.4682 -0.1096
  455MOL0     C59992   8.110   5.010   6.549  0.3853  0.2626 -0.2783
  455MOL0     C59993   7.498   4.564   6.237 -0.7035 -0.1761 -0.2223
  455MOL0     C59994   7.407   4.530   6.132 -0.4959  0.4882  0.3312
  455MOL0     H59995   7.325   4.112   5.730  0.1961  0.8545  0.7669
  455MOL0     H59996   7.169   4.070   5.563  1.7274  1.5575 -0.9818
  455MOL0     H59997   6.974   3.944   5.511 -3.6753 -0.9334 -0.7981
  455MOL0     H59998   7.008   4.090   5.409  0.2170  0.9844  0.0239
  455MOL0     H59999   6.844   3.968   5.296  3.2131 -0.2100  1.6651
  455MOL0     H60000   6.767   4.111   5.356  0.4649 -0.3351 -1.5318
  455MOL0     H60001   6.681   3.952   5.549  0.9553  1.2898  0.2187
  455MOL0     H60002   6.785   3.827   5.475  0.3102 -0.0452 -0.1990
  455MOL0     H60003   6.566   3.978   5.332  0.9447  0.4122  0.4760
  455MOL0     H60004   6.633   3.829   5.281 -0.5373  0.7922 -1.2381
  455MOL0     H60005   6.415   3.779   5.349  1.0894 -0.5820 -1.3987
  455MOL0     H60006   6.413   3.875   5.483  0.9155 -0.1055 -0.5158
  455MOL0     H60007   6.571   3.708   5.603 -0.3744  1.8117 -1.4706
  455MOL0     H60008   6.626   3.642   5.448  2.6123  0.6008  0.3069
  455MOL0     H60009   6.348   3.595   5.565 -0.2543  0.6156  0.6557
  455MOL0     H60010   6.409   3.545   5.410  1.1877  3.1333 -0.8062
  455MOL0     H60011   6.559   3.460   5.658  1.8672 -3.1368  0.0504
  455MOL0     H60012   6.598   3.410   5.499 -0.4013 -1.6769  0.4419
  455MOL0     H60013   6.474   3.149   5.474  1.4210 -0.4762  2.1784
  455MOL0     H60014   6.156   2.990   5.647  0.7347  0.5605 -0.7292
  455MOL0     H60015   6.318   2.933   5.612 -1.5984 -0.8652  1.4191
  455MOL0     H60016   6.192   2.871   5.429 -1.1541 -0.2760  1.8771
  455MOL0     H60017   6.298   3.003   5.378 -0.1722 -3.3760 -1.2639
  455MOL0     H60018   6.079   3.018   5.275 -3.6418 -0.5728  1.0872
  455MOL0     H60019   6.001   3.010   5.429  0.8448  0.4082  0.8898
  455MOL0     H60020   6.187   3.241   5.362 -1.2109  1.2197  0.1178
  455MOL0     H60021   6.060   3.244   5.490 -1.4723  2.4970 -0.9126
  455MOL0     H60022   5.799   3.372   5.185  0.3647  1.2892 -1.7675
  455MOL0     H60023   5.748   3.593   5.158 -0.2924 -1.6698  0.0645
  455MOL0     H60024   5.525   3.953   5.273  0.5471 -0.3860  0.3806
  455MOL0     H60025   5.452   4.202   5.274  0.8584 -0.5245  1.5512
  455MOL0     H60026   5.736   4.473   5.039 -1.3806  1.5511 -0.9289
  455MOL0     H60027   5.793   4.495   5.203 -0.1040 -1.0110  0.5524
  455MOL0     H60028   5.750   4.703   5.118 -0.8898  0.0736 -1.0230
  455MOL0     H60029   5.619   4.676   5.232  1.4329  0.2965  0.3016
  455MOL0     H60030   5.474   4.602   5.046 -0.0295 -2.1137  0.0079
  455MOL0     H60031   5.605   4.625   4.929 -0.9590  2.2058 -0.5434
  455MOL0     H60032   5.491   4.850   5.099 -1.3421 -0.9072 -0.7160
  455MOL0     H60033   5.623   4.870   4.980  0.1204  2.0360  0.8788
  455MOL0     H60034   5.345   4.768   4.899 -1.5351  0.5337  1.2787
  455MOL0     H60035   5.492   4.829   4.803  0.2137  1.7077  0.7537
  455MOL0     H60036   5.487   5.047   4.867  0.4394 -1.1815  0.8499
  455MOL0     H60037   5.353   5.014   4.984  1.1505 -0.5661  0.5700
  455MOL0     H60038   5.340   5.019   4.676 -1.8679  1.2840 -0.8886
  455MOL0     H60039   5.206   4.952   4.779 -1.5828  1.4692 -2.2882
  455MOL0     H60040   5.180   5.187   4.709  2.9991 -0.6693 -1.3759
  455MOL0     H60041   5.316   5.220   4.822  1.4531 -1.4572 -0.4599
  455MOL0     H60042   5.840   4.287   5.093  1.1604 -2.4868 -2.2677
  455MOL0     H60043   5.902   4.062   5.108  0.4165  1.5671 -1.3849
  455MOL0     H60044   6.098   3.696   5.393 -0.0100  0.0082 -0.1206
  455MOL0     H60045   6.157   3.466   5.412  0.5104  0.6627 -1.3099
  455MOL0     H60046   6.855   4.236   5.806 -0.5603 -1.4257 -0.6192
  455MOL0     H60047   7.042   4.323   5.966 -2.0832 -3.1760  0.4770
  455MOL0     H60048   7.488   4.207   6.103  0.2773 -0.0519  0.2759
  455MOL0     H60049   7.637   4.262   6.286 -0.5374 -0.8177  0.1395
  455MOL0     H60050   7.745   4.626   6.525  1.8615  0.1254 -1.3879
  455MOL0     H60051   7.602   4.683   6.434 -0.1764 -0.9924 -3.1767
  455MOL0     H60052   7.886   4.652   6.302  0.9613  0.1126 -1.1685
  455MOL0     H60053   7.743   4.717   6.235  0.5129 -0.1797  0.6111
  455MOL0     H60054   7.755   4.913   6.415  1.9806  2.5101 -0.9356
  455MOL0     H60055   7.888   4.904   6.313 -2.6046  1.3161 -0.7328
  455MOL0     H60056   7.858   4.843   6.608 -0.0124  0.6077 -0.2019
  455MOL0     H60057   7.970   4.734   6.507 -1.3326 -0.0813 -4.2304
  455MOL0     H60058   8.181   5.089   6.552  0.9840 -0.3084  1.6890
  455MOL0     H60059   7.492   4.668   6.269  3.2102 -0.1513  0.9818
  455MOL0     H60060   7.340   4.606   6.092 -2.3097 -0.2010  1.9219
  456MOL0     O60061   2.627   6.037  11.201  0.3160 -0.0338  1.4843
  456MOL0     C60062   2.606   5.942  11.281 -0.9076  0.4553 -0.3638
  456MOL0     O60063   2.705   5.857  11.328 -0.1756 -0.0709 -0.4147
  456MOL0     C60064   2.837   5.860  11.295  0.1823  0.5184 -0.4682
  456MOL0     C60065   2.878   5.805  11.178 -0.0228 -0.1129 -0.1589
  456MOL0     C60066   3.013   5.785  11.149  0.6160 -0.5212  0.7089
  456MOL0     C60067   3.112   5.835  11.226  0.1041 -0.1017 -0.6127
  456MOL0     O60068   3.234   5.800  11.182 -0.6992  0.3384  0.2571
  456MOL0     C60069   3.299   5.910  11.125 -0.9206 -0.3547  0.5500
  456MOL0     C60070   3.434   5.876  11.056  0.4184 -0.1344  0.1970
  456MOL0     C60071   3.544   5.825  11.155  0.5836 -0.4640 -0.5667
  456MOL0     C60072   3.597   5.944  11.241 -0.0539  0.2319 -0.5329
  456MOL0     C60073   3.623   5.906  11.390  0.8361 -0.3848 -0.0283
  456MOL0     C60074   3.689   5.769  11.411 -0.1549 -0.4735 -0.6032
  456MOL0     C60075   3.840   5.772  11.367  0.3670  0.3509 -0.6347
  456MOL0     C60076   3.929   5.815  11.490 -0.6740 -0.3061  0.8775
  456MOL0     N60077   3.949   5.705  11.588 -0.0475  0.1458 -0.1974
  456MOL0     C60078   4.011   5.595  11.546  0.4617  0.5243  0.1877
  456MOL0     C60079   4.019   5.513  11.657 -0.5097 -0.5035  0.4344
  456MOL0     C60080   4.067   5.368  11.650 -0.5042  0.0994  0.1458
  456MOL0     C60081   3.954   5.270  11.641  1.0174  0.1216  0.3897
  456MOL0     C60082   3.857   5.275  11.759  0.1126 -0.5054 -0.0645
  456MOL0     C60083   3.783   5.145  11.766 -0.0338  0.2392  0.2047
  456MOL0     O60084   3.666   5.147  11.853  0.1790  0.2077  0.5522
  456MOL0     C60085   3.562   5.062  11.840  0.2917 -0.2044  0.2291
  456MOL0     C60086   3.439   5.102  11.872 -1.1276 -0.1309 -0.0965
  456MOL0     C60087   3.330   5.015  11.888  0.8092 -0.3839 -0.6423
  456MOL0     C60088   3.349   4.876  11.847  0.2166 -0.4510  0.4879
  456MOL0     C60089   3.243   4.769  11.862  1.2376  0.4777  0.5617
  456MOL0     O60090   3.119   4.798  11.910 -0.7185  0.4922  0.3048
  456MOL0     C60091   3.011   4.720  11.938  0.6117 -0.6797  0.0714
  456MOL0     C60092   2.995   4.585  11.931 -0.0044  0.4287  0.2436
  456MOL0     C60093   2.872   4.519  11.952 -0.8012 -0.8635  0.5489
  456MOL0     C60094   2.751   4.583  11.976 -0.5262 -0.3591  0.9998
  456MOL0     O60095   2.641   4.508  11.982  0.3002  0.2725  0.3539
  456MOL0     C60096   2.506   4.561  11.977  0.3312 -0.2360  0.4697
  456MOL0     C60097   2.398   4.456  12.001  1.2010 -0.3124 -0.2275
  456MOL0     C60098   2.254   4.512  11.965 -0.7563 -0.1336 -0.3556
  456MOL0     C60099   2.145   4.418  11.995  0.1258  0.4544  0.3504
  456MOL0     C60100   2.010   4.420  11.912  0.2911  0.1340  0.3927
  456MOL0     C60101   1.899   4.332  11.968  0.0578 -0.1831  0.7365
  456MOL0     C60102   1.778   4.335  11.866 -0.0390 -0.3000  0.3475
  456MOL0     C60103   1.662   4.253  11.918  0.0412  0.4321  0.4294
  456MOL0    Cl60104   1.563   4.344  12.037  0.0566  0.1168 -0.4268
  456MOL0     C60105   2.767   4.725  11.981  1.3695 -0.2459  0.1778
  456MOL0     C60106   2.887   4.786  11.968 -0.2300 -0.9086 -0.3466
  456MOL0     O60107   3.273   4.655  11.828  0.2404  0.1764  0.0945
  456MOL0     C60108   3.479   4.844  11.805  0.2687  0.1012  0.0916
  456MOL0     C60109   3.584   4.927  11.801 -0.0136  0.0497  0.8607
  456MOL0     N60110   3.955   5.578  11.761  0.2163  0.1250 -0.4526
  456MOL0     N60111   3.920   5.697  11.720 -0.3601 -0.6864  0.7744
  456MOL0     C60112   3.077   5.896  11.349  1.0616 -0.2159 -0.2031
  456MOL0     C60113   2.936   5.890  11.386 -0.2889  0.3264 -0.1112
  456MOL0     C60114   2.471   5.887  11.313  0.1307 -0.1156  0.6153
  456MOL0     C60115   2.438   5.843  11.439 -0.4945 -0.3244  0.1068
  456MOL0     C60116   2.311   5.816  11.476 -0.4040 -0.6405 -0.6913
  456MOL0     C60117   2.207   5.809  11.380  0.1523 -0.1178 -0.2582
  456MOL0     O60118   2.072   5.775  11.407 -0.0823  0.2300  0.6892
  456MOL0     C60119   2.035   5.769  11.543  0.4895 -0.0458  0.0171
  456MOL0     C60120   1.891   5.734  11.556 -1.3697  1.2233  0.8108
  456MOL0     C60121   1.850   5.602  11.486  0.5374  0.1040  1.1218
  456MOL0     C60122   1.698   5.590  11.455 -1.4880  0.4304 -0.2933
  456MOL0     C60123   1.628   5.613  11.581 -0.1924 -0.2255  0.5701
  456MOL0     C60124   1.565   5.611  11.680  0.8951  1.3643 -0.7246
  456MOL0     C60125   2.239   5.858  11.246  0.3101 -0.6443 -0.5203
  456MOL0     C60126   2.371   5.899  11.217  0.5268 -0.1695 -0.6618
  456MOL0     H60127   2.806   5.783  11.100 -0.4834 -0.7132  0.4282
  456MOL0     H60128   3.036   5.732  11.058 -1.7644  0.9775 -0.8802
  456MOL0     H60129   3.322   5.992  11.194  1.1575  0.9762 -1.5764
  456MOL0     H60130   3.236   5.944  11.042  0.0899  0.4672  0.0961
  456MOL0     H60131   3.463   5.966  11.001 -0.1751  0.3177  0.6180
  456MOL0     H60132   3.423   5.806  10.972 -1.4761 -0.1173  0.3779
  456MOL0     H60133   3.616   5.770  11.094 -0.9396 -2.2575 -0.8315
  456MOL0     H60134   3.495   5.757  11.226 -1.6714 -0.5930 -2.1266
  456MOL0     H60135   3.693   5.980  11.204 -0.2043  0.3088 -0.8541
  456MOL0     H60136   3.525   6.027  11.237  1.1333  1.3502  0.4151
  456MOL0     H60137   3.526   5.904  11.441  0.6525  0.6194 -0.3050
  456MOL0     H60138   3.678   5.988  11.438 -0.6698 -0.0851  1.2768
  456MOL0     H60139   3.634   5.687  11.363 -0.6715  0.1403 -1.0868
  456MOL0     H60140   3.690   5.755  11.519  1.6116 -0.8874 -0.6485
  456MOL0     H60141   3.864   5.673  11.327  1.9994  0.7990 -0.8256
  456MOL0     H60142   3.855   5.835  11.279 -1.9706 -1.5376 -2.5365
  456MOL0     H60143   3.883   5.900  11.541 -1.2297  0.5594 -0.9927
  456MOL0     H60144   4.031   5.834  11.458 -0.5201 -1.4264  0.6493
  456MOL0     H60145   4.043   5.573  11.445  4.1173  2.4561  0.7436
  456MOL0     H60146   4.125   5.344  11.739 -0.4662 -0.0196  0.0885
  456MOL0     H60147   4.129   5.360  11.560  0.2479  0.4627  0.6289
  456MOL0     H60148   4.006   5.173  11.646  1.3454  0.2513 -0.3364
  456MOL0     H60149   3.891   5.284  11.553 -2.9824 -2.2533  2.5569
  456MOL0     H60150   3.910   5.300  11.851 -2.2077 -3.2108  2.2149
  456MOL0     H60151   3.777   5.345  11.730  0.5351 -0.1059 -0.2801
  456MOL0     H60152   3.861   5.078  11.802  0.1829  1.2099  1.6050
  456MOL0     H60153   3.743   5.110  11.670 -0.7141 -0.4243  0.7157
  456MOL0     H60154   3.436   5.207  11.901  2.6010  0.5829 -1.6256
  456MOL0     H60155   3.229   5.042  11.916 -0.2604 -1.4100 -3.1891
  456MOL0     H60156   3.081   4.524  11.905  1.1102  1.8124  0.5566
  456MOL0     H60157   2.868   4.412  11.939  2.6562 -1.1363  0.9243
  456MOL0     H60158   2.493   4.598  11.875  1.6840 -1.1257 -0.0404
  456MOL0     H60159   2.501   4.637  12.056 -1.2286  0.0066  0.1668
  456MOL0     H60160   2.397   4.436  12.108  0.1474 -1.5120 -0.4418
  456MOL0     H60161   2.417   4.362  11.949 -0.2171  0.7620 -2.9387
  456MOL0     H60162   2.242   4.541  11.860 -0.5069 -0.6007 -0.5177
  456MOL0     H60163   2.245   4.610  12.013 -0.4236  0.6363 -1.7932
  456MOL0     H60164   2.176   4.315  11.977 -2.3446 -0.6299  1.8194
  456MOL0     H60165   2.114   4.429  12.100 -0.7079  0.1586  0.1445
  456MOL0     H60166   2.023   4.393  11.807 -1.5072  0.3630  0.0955
  456MOL0     H60167   1.983   4.526  11.914 -0.4607 -0.0616  0.9770
  456MOL0     H60168   1.870   4.363  12.068  2.1496 -0.3701  1.4513
  456MOL0     H60169   1.922   4.226  11.981  0.6412  0.1078  2.2055
  456MOL0     H60170   1.753   4.438  11.839 -0.9881 -0.8749 -1.0687
  456MOL0     H60171   1.812   4.280  11.778 -2.2787 -1.1580 -0.0316
  456MOL0     H60172   1.695   4.164  11.971 -1.6291  0.4901  1.6509
  456MOL0     H60173   1.588   4.226  11.841 -1.2735 -0.3840  1.9121
  456MOL0     H60174   2.677   4.787  11.988  2.0641  0.9132 -0.7928
  456MOL0     H60175   2.889   4.895  11.976 -0.1457 -1.0514  2.2790
  456MOL0     H60176   3.497   4.749  11.756  1.5680 -0.0409  0.7761
  456MOL0     H60177   3.681   4.902  11.759 -0.8417 -0.1486 -1.0231
  456MOL0     H60178   3.150   5.942  11.414  0.2067  3.1140 -1.3866
  456MOL0     H60179   2.915   5.917  11.489  1.4202 -2.5152  1.1003
  456MOL0     H60180   2.516   5.826  11.513 -0.7794  0.5092  0.6065
  456MOL0     H60181   2.287   5.791  11.579  3.0738 -1.5185  0.0131
  456MOL0     H60182   2.054   5.863  11.595 -1.0631  0.0102  0.5303
  456MOL0     H60183   2.099   5.694  11.591  2.8808  1.1418 -1.1569
  456MOL0     H60184   1.863   5.721  11.662  1.5160 -2.3671  1.3427
  456MOL0     H60185   1.835   5.814  11.507 -2.4270 -0.8056 -1.4830
  456MOL0     H60186   1.892   5.525  11.552  0.3558  1.1265  2.4668
  456MOL0     H60187   1.904   5.601  11.391  3.7643  2.3642  2.7226
  456MOL0     H60188   1.668   5.647  11.367 -1.8971  0.1881 -0.3163
  456MOL0     H60189   1.683   5.487  11.421 -2.0843  1.4885 -3.6307
  456MOL0     H60190   1.508   5.603  11.770  3.3612  2.0248  0.9936
  456MOL0     H60191   2.157   5.857  11.175  0.3105 -1.8793 -0.5259
  456MOL0     H60192   2.385   5.944  11.119  0.0112 -0.6801 -0.9735
  457MOL0     O60193  10.782   5.137   9.693 -1.1448  0.8194  1.4066
  457MOL0     C60194  10.859   5.089   9.779  0.7303 -0.3911 -0.3919
  457MOL0     O60195  10.822   5.004   9.882 -0.4569 -1.4016  0.1557
  457MOL0     C60196  10.690   4.982   9.903 -0.5223 -0.0837  0.0107
  457MOL0     C60197  10.610   5.056   9.988  0.6072  0.1515 -0.5561
  457MOL0     C60198  10.474   5.032   9.993 -0.6690 -0.5370 -0.3692
  457MOL0     C60199  10.421   4.926   9.924 -0.5508 -0.6457 -0.4608
  457MOL0     O60200  10.280   4.894   9.937  0.3161  0.1277  0.4540
  457MOL0     C60201  10.197   4.970  10.019 -0.3280 -0.4494  0.7448
  457MOL0     C60202  10.057   4.929   9.975  0.0279 -0.4337  0.7538
  457MOL0     C60203  10.040   4.985   9.825  0.3808  0.0090  0.0365
  457MOL0     C60204   9.891   4.999   9.787 -0.1744  0.1781 -0.1289
  457MOL0     C60205   9.861   5.020   9.635  0.0111 -0.4165  0.1593
  457MOL0     C60206   9.709   5.035   9.606  0.5812 -0.8164 -0.1105
  457MOL0     C60207   9.681   5.128   9.482  0.6149  0.0063  0.6338
  457MOL0     C60208   9.685   5.280   9.499 -0.1976 -0.7266  0.0335
  457MOL0     N60209   9.565   5.329   9.579 -0.0367  0.6361  0.0786
  457MOL0     C60210   9.442   5.354   9.523 -0.8055 -0.4608  0.2255
  457MOL0     C60211   9.374   5.434   9.604 -0.5519 -0.1231  0.5506
  457MOL0     C60212   9.235   5.485   9.589  0.6425  0.1809  0.4930
  457MOL0     C60213   9.137   5.403   9.682  0.0539 -0.6645  0.2928
  457MOL0     C60214   9.155   5.254   9.640 -0.1371  0.8806 -0.9288
  457MOL0     C60215   9.038   5.164   9.686 -0.6942  0.5401 -0.1175
  457MOL0     O60216   8.921   5.214   9.617  0.5044  0.1800 -0.1268
  457MOL0     C60217   8.798   5.167   9.653  0.7302 -0.6303 -0.6446
  457MOL0     C60218   8.685   5.205   9.569  0.2314  0.3083 -0.1338
  457MOL0     C60219   8.556   5.175   9.608  0.0375  0.3630 -0.2560
  457MOL0     C60220   8.522   5.114   9.730  0.9268  0.4268 -0.0118
  457MOL0     C60221   8.386   5.058   9.766 -0.4657  0.4072 -0.2532
  457MOL0     O60222   8.287   5.066   9.683 -0.3845 -0.2494  0.0755
  457MOL0     C60223   8.154   5.031   9.717 -0.4065  0.3355 -0.5816
  457MOL0     C60224   8.115   4.910   9.776 -0.2040  0.2026  1.0883
  457MOL0     C60225   7.982   4.895   9.812 -0.1089  0.9778 -0.2716
  457MOL0     C60226   7.883   4.980   9.781  0.0448 -0.3252  0.2386
  457MOL0     O60227   7.749   4.963   9.792  0.9233  0.0611 -0.9100
  457MOL0     C60228   7.710   4.882   9.902 -0.0208 -0.1976 -0.3079
  457MOL0     C60229   7.561   4.896   9.923  0.5744 -0.3472 -0.9553
  457MOL0     C60230   7.477   4.798   9.836  0.0429 -0.5006 -0.6785
  457MOL0     C60231   7.330   4.837   9.811  0.3667 -0.2164  0.1079
  457MOL0     C60232   7.256   4.759   9.712 -0.0154  0.1394  0.3539
  457MOL0     C60233   7.105   4.796   9.710  0.7910 -0.9629 -0.8487
  457MOL0     C60234   7.027   4.693   9.645  0.1690 -0.0311  0.3558
  457MOL0     C60235   6.888   4.742   9.609  0.2083  0.2032 -0.6988
  457MOL0    Cl60236   6.883   4.889   9.508 -0.3162 -0.2087  0.1530
  457MOL0     C60237   7.915   5.095   9.710  0.0235 -0.2712 -0.2041
  457MOL0     C60238   8.053   5.111   9.670  0.4268  0.2373 -0.9473
  457MOL0     O60239   8.377   5.018   9.880 -0.1054  0.2075 -0.4035
  457MOL0     C60240   8.631   5.081   9.811 -0.0872 -0.1358  0.2187
  457MOL0     C60241   8.764   5.107   9.780 -0.2339 -0.0461  0.2300
  457MOL0     N60242   9.450   5.453   9.716 -0.4023 -0.2038  0.2239
  457MOL0     N60243   9.565   5.395   9.703 -0.6877  0.5623  0.5027
  457MOL0     C60244  10.503   4.844   9.846 -0.1923 -1.2356 -0.3730
  457MOL0     C60245  10.636   4.876   9.834 -0.1371 -0.6719 -0.3303
  457MOL0     C60246  11.000   5.125   9.780 -0.1690 -0.3677 -0.1387
  457MOL0     C60247  11.039   5.230   9.694 -0.1556  0.2362  0.0134
  457MOL0     C60248  11.176   5.268   9.672  0.2334  0.1088  0.4295
  457MOL0     C60249  11.275   5.190   9.739 -0.0155 -0.1021  0.0204
  457MOL0     O60250  11.407   5.217   9.722  0.4287 -0.3850  0.3339
  457MOL0     C60251  11.469   5.196   9.594  0.0362 -0.3978 -1.0026
  457MOL0     C60252  11.591   5.095   9.591 -0.4096 -0.1692  0.7626
  457MOL0     C60253  11.698   5.114   9.693 -0.5190 -0.6004 -0.8588
  457MOL0     C60254  11.841   5.079   9.638 -0.2821 -0.0988 -0.4170
  457MOL0     C60255  11.898   5.189   9.561 -0.1047 -0.0422  0.8012
  457MOL0     C60256  11.938   5.284   9.496 -0.2029 -0.5128 -0.8853
  457MOL0     C60257  11.236   5.079   9.816 -0.2569 -0.1667  0.5708
  457MOL0     C60258  11.104   5.056   9.839 -0.9977 -0.0841  0.5198
  457MOL0     H60259  10.649   5.145  10.035 -1.2378  0.5460  0.3081
  457MOL0     H60260  10.413   5.094  10.059 -1.0005 -3.8015  2.7203
  457MOL0     H60261  10.213   5.077  10.006  0.2606 -0.7776 -1.5886
  457MOL0     H60262  10.225   4.939  10.121 -0.4927 -1.2527  0.5534
  457MOL0     H60263   9.989   4.988  10.037  0.3308  0.2782  0.4159
  457MOL0     H60264  10.039   4.821   9.983 -1.2541 -0.4717 -1.8102
  457MOL0     H60265  10.083   4.916   9.752 -1.6540 -2.4595  1.0611
  457MOL0     H60266  10.089   5.082   9.815 -1.6549  1.0134 -0.8791
  457MOL0     H60267   9.842   4.909   9.826  1.6380 -0.1767  1.4895
  457MOL0     H60268   9.845   5.085   9.836  0.0092  0.1986  0.0096
  457MOL0     H60269   9.883   4.926   9.583 -1.1669 -2.3404  2.8797
  457MOL0     H60270   9.921   5.102   9.594 -2.4019  2.0477  1.2215
  457MOL0     H60271   9.664   5.085   9.692  1.9333 -1.9888  1.3461
  457MOL0     H60272   9.663   4.936   9.601  1.7966 -1.3434 -1.6910
  457MOL0     H60273   9.739   5.099   9.394 -1.2309  2.2853 -1.4545
  457MOL0     H60274   9.578   5.098   9.460 -0.4532  4.0542 -0.8126
  457MOL0     H60275   9.687   5.339   9.406  5.1790  0.3010  0.5256
  457MOL0     H60276   9.771   5.303   9.562  0.8406 -2.3512 -0.7388
  457MOL0     H60277   9.421   5.340   9.418  2.8457  0.8555 -0.8201
  457MOL0     H60278   9.202   5.479   9.485 -4.4107 -1.7142  1.8902
  457MOL0     H60279   9.222   5.592   9.609 -1.3674  0.8696 -3.5444
  457MOL0     H60280   9.035   5.421   9.646  0.9413  1.6853 -1.2790
  457MOL0     H60281   9.141   5.421   9.790 -1.2300 -2.9183  0.7870
  457MOL0     H60282   9.160   5.238   9.532  2.3035  2.5110 -1.1510
  457MOL0     H60283   9.245   5.208   9.683 -0.7680  3.0134  3.1313
  457MOL0     H60284   9.029   5.172   9.795  2.5688 -0.6070  0.3509
  457MOL0     H60285   9.066   5.061   9.660  1.1850  0.4608  1.9193
  457MOL0     H60286   8.694   5.265   9.479 -0.8949  0.1143 -0.3915
  457MOL0     H60287   8.478   5.200   9.537  1.4579  5.1306 -0.4626
  457MOL0     H60288   8.188   4.834   9.803  2.3768  2.0421 -0.3436
  457MOL0     H60289   7.947   4.800   9.851  0.2627 -0.1772 -2.6002
  457MOL0     H60290   7.755   4.929   9.989  0.4456  0.8458 -1.0864
  457MOL0     H60291   7.739   4.777   9.887  0.9652  0.1270 -0.7931
  457MOL0     H60292   7.539   4.999   9.896  0.4695 -0.4365 -1.2112
  457MOL0     H60293   7.543   4.890  10.031  3.9381  4.8513  0.2243
  457MOL0     H60294   7.479   4.704   9.891  2.5285 -0.2091 -0.1411
  457MOL0     H60295   7.527   4.783   9.740  0.4722  2.2929 -0.9988
  457MOL0     H60296   7.280   4.832   9.908  0.0761  2.5405  0.1739
  457MOL0     H60297   7.329   4.940   9.774 -0.6883  0.5036  1.9967
  457MOL0     H60298   7.269   4.655   9.743  1.9190 -0.0122 -0.8232
  457MOL0     H60299   7.295   4.779   9.612 -1.0567  0.2188 -0.0497
  457MOL0     H60300   7.091   4.890   9.657  2.3582 -0.5611 -0.5976
  457MOL0     H60301   7.068   4.812   9.812  0.3855  1.0185 -1.2737
  457MOL0     H60302   7.065   4.661   9.548  0.0043  0.0128  0.2762
  457MOL0     H60303   7.018   4.608   9.714 -1.3204  2.2155  3.1880
  457MOL0     H60304   6.823   4.757   9.696  0.4877  1.2698 -0.6702
  457MOL0     H60305   6.838   4.660   9.556  0.9238 -0.4454 -0.4024
  457MOL0     H60306   7.843   5.168   9.675  0.0671  0.9377  2.0904
  457MOL0     H60307   8.083   5.202   9.620  3.1722  0.0701  0.2473
  457MOL0     H60308   8.610   5.026   9.901  0.0447  0.4124  0.5908
  457MOL0     H60309   8.833   5.067   9.854  0.7269  0.0880 -0.5806
  457MOL0     H60310  10.456   4.753   9.810 -1.1424 -1.6534  1.7128
  457MOL0     H60311  10.694   4.802   9.779  0.5310 -2.3793  2.4896
  457MOL0     H60312  10.966   5.291   9.642  2.3559  1.0943 -2.7811
  457MOL0     H60313  11.208   5.354   9.614  1.1317 -2.1410 -2.6561
  457MOL0     H60314  11.512   5.294   9.571 -0.2641  0.3706  1.4424
  457MOL0     H60315  11.395   5.162   9.520 -0.9328 -0.8898  0.1522
  457MOL0     H60316  11.538   5.000   9.605  1.1961 -1.0284  1.2664
  457MOL0     H60317  11.640   5.101   9.493  0.4336  1.6271  1.2520
  457MOL0     H60318  11.673   5.051   9.779 -0.2488  2.4512  1.6370
  457MOL0     H60319  11.699   5.220   9.720  3.1640 -0.6634 -0.1938
  457MOL0     H60320  11.898   5.050   9.726  0.0103  1.4828 -0.0530
  457MOL0     H60321  11.827   4.990   9.576 -2.7378 -0.1077  0.0546
  457MOL0     H60322  11.987   5.359   9.438  2.3188 -1.9428 -0.7664
  457MOL0     H60323  11.300   5.005   9.864 -0.3722 -0.4421  0.2979
  457MOL0     H60324  11.065   4.978   9.903 -2.2483  0.6776  0.7182
  458MOL0     O60325  10.521   3.823   1.255 -0.1718  0.3429  0.3173
  458MOL0     C60326  10.567   3.770   1.149 -0.1291 -0.7138 -1.0922
  458MOL0     O60327  10.524   3.652   1.098  1.0069  0.2646  0.2720
  458MOL0     C60328  10.408   3.608   1.159  1.0236  0.3214 -0.1909
  458MOL0     C60329  10.410   3.503   1.252  0.4507  0.3793 -0.0863
  458MOL0     C60330  10.287   3.454   1.297 -0.3513  0.2705  0.6424
  458MOL0     C60331  10.163   3.508   1.256  0.8523 -0.2017  0.5780
  458MOL0     O60332  10.039   3.469   1.302  0.3228  0.2101  0.4565
  458MOL0     C60333  10.025   3.344   1.375 -0.2782  0.0819  0.0954
  458MOL0     C60334   9.880   3.301   1.362 -0.5968  0.3923  0.2447
  458MOL0     C60335   9.841   3.184   1.454 -0.1718  0.6614  0.2215
  458MOL0     C60336   9.695   3.152   1.425  0.5666 -0.5935  0.3290
  458MOL0     C60337   9.622   3.050   1.529  0.3952 -0.4704  0.2637
  458MOL0     C60338   9.482   3.017   1.483  0.4957 -0.2483 -0.3478
  458MOL0     C60339   9.398   2.973   1.601  0.6304  0.5833 -0.6407
  458MOL0     C60340   9.247   2.935   1.556 -1.6011  0.1493  0.6608
  458MOL0     N60341   9.192   3.038   1.477  0.6658  0.0077 -0.3939
  458MOL0     C60342   9.133   3.150   1.533 -0.1830 -0.4049  0.0472
  458MOL0     C60343   9.086   3.223   1.424 -0.1555 -0.0889  0.3349
  458MOL0     C60344   9.014   3.349   1.427  0.5600 -0.3536  0.2415
  458MOL0     C60345   8.903   3.373   1.526 -0.0816  0.9763 -0.1356
  458MOL0     C60346   8.800   3.267   1.491 -0.1329 -0.5931  0.4104
  458MOL0     C60347   8.683   3.278   1.577 -1.1791  0.5812 -0.4416
  458MOL0     O60348   8.619   3.405   1.571 -1.0039  0.4237  0.0726
  458MOL0     C60349   8.524   3.424   1.666  0.2155 -0.0994 -0.2547
  458MOL0     C60350   8.483   3.556   1.688  0.5540 -0.5786 -0.4585
  458MOL0     C60351   8.391   3.591   1.783  0.7687 -0.8473  0.5767
  458MOL0     C60352   8.317   3.488   1.849 -0.1190  0.7660  0.5406
  458MOL0     C60353   8.209   3.512   1.949 -0.3845 -0.1565 -0.4202
  458MOL0     O60354   8.153   3.401   2.000 -0.1216 -0.1879 -0.5077
  458MOL0     C60355   8.034   3.424   2.068 -0.1675  0.4114  0.2269
  458MOL0     C60356   7.919   3.461   1.996 -0.1499  0.8827  0.8346
  458MOL0     C60357   7.794   3.478   2.051  0.6801 -0.2520 -0.5189
  458MOL0     C60358   7.783   3.464   2.193  0.2307 -0.0601  0.0998
  458MOL0     O60359   7.659   3.508   2.241  0.2864  0.3726 -0.0712
  458MOL0     C60360   7.616   3.467   2.375  0.2873  0.1585 -0.7006
  458MOL0     C60361   7.479   3.534   2.424  0.2947  0.7760 -0.8430
  458MOL0     C60362   7.506   3.680   2.460  0.3786  0.0761  1.0507
  458MOL0     C60363   7.556   3.699   2.602 -0.1193  0.1340  0.7340
  458MOL0     C60364   7.575   3.847   2.628  0.1135  0.6143  0.7639
  458MOL0     C60365   7.633   3.879   2.762  0.8330 -0.4584  0.2279
  458MOL0     C60366   7.779   3.835   2.785 -0.0172  1.1826 -0.2664
  458MOL0     C60367   7.826   3.863   2.932  0.8339 -0.5994  0.9003
  458MOL0    Cl60368   8.003   3.833   2.951  0.4242 -0.0913 -0.1225
  458MOL0     C60369   7.903   3.454   2.276  0.3031  0.5438 -0.0479
  458MOL0     C60370   8.032   3.430   2.208  0.6042 -0.3357 -0.9066
  458MOL0     O60371   8.186   3.624   1.974 -0.3802  0.5598  0.4622
  458MOL0     C60372   8.364   3.352   1.832 -0.2107  0.0890  0.8136
  458MOL0     C60373   8.455   3.324   1.736 -0.3032  0.5492  0.0308
  458MOL0     N60374   9.135   3.159   1.304 -0.0225  0.2181 -0.6521
  458MOL0     N60375   9.203   3.057   1.342  0.1143 -0.5417 -0.5178
  458MOL0     C60376  10.160   3.618   1.170 -0.6603  0.3321  0.4034
  458MOL0     C60377  10.283   3.663   1.124  0.1698 -0.3254 -0.1955
  458MOL0     C60378  10.702   3.823   1.115 -0.2880 -0.2772  0.9857
  458MOL0     C60379  10.735   3.962   1.149 -0.7016  0.3033  0.1312
  458MOL0     C60380  10.860   4.019   1.116  0.0661 -0.1364 -1.3101
  458MOL0     C60381  10.949   3.939   1.055 -0.2057  1.1270 -0.0032
  458MOL0     O60382  11.061   4.004   1.016  0.2857 -0.2545  0.8536
  458MOL0     C60383  11.148   3.947   0.917 -0.0075  0.5955 -0.9195
  458MOL0     C60384  11.271   4.032   0.886  0.6391 -0.7727  0.4257
  458MOL0     C60385  11.344   4.060   1.009  0.1046 -0.4623  0.1273
  458MOL0     C60386  11.481   4.123   1.004  0.3479  0.0454 -0.0332
  458MOL0     C60387  11.559   4.075   1.123  0.4001  0.1041 -0.3552
  458MOL0     C60388  11.614   4.019   1.218 -0.3895 -0.1052 -0.2538
  458MOL0     C60389  10.923   3.804   1.027  0.7418  0.4558  0.3454
  458MOL0     C60390  10.795   3.745   1.052 -0.7392 -0.1897 -0.2573
  458MOL0     H60391  10.503   3.458   1.285 -0.0484  0.3734  1.4004
  458MOL0     H60392  10.291   3.369   1.364  1.6089 -0.4305 -0.2992
  458MOL0     H60393  10.043   3.369   1.480  1.2850 -0.3214 -0.0492
  458MOL0     H60394  10.094   3.263   1.348  0.7700  1.0783 -0.2937
  458MOL0     H60395   9.863   3.280   1.256 -0.0410 -1.8266  0.5573
  458MOL0     H60396   9.823   3.392   1.382  0.4280  0.7899  1.5472
  458MOL0     H60397   9.851   3.220   1.557 -0.0526 -0.6202  0.6688
  458MOL0     H60398   9.912   3.101   1.446  0.2419  0.9593  0.7014
  458MOL0     H60399   9.636   3.244   1.425 -3.7090 -3.0477  0.1894
  458MOL0     H60400   9.698   3.101   1.329  1.7758 -1.8299  0.9829
  458MOL0     H60401   9.629   3.081   1.634 -0.7702 -0.1075  0.2460
  458MOL0     H60402   9.681   2.958   1.534  2.2857  0.1955 -4.4530
  458MOL0     H60403   9.481   2.942   1.403  0.0954  1.5554 -2.1273
  458MOL0     H60404   9.437   3.103   1.432  0.5349 -0.3977 -0.6376
  458MOL0     H60405   9.433   2.877   1.641 -0.4509 -0.1877 -1.4848
  458MOL0     H60406   9.401   3.056   1.672 -0.5086 -1.2207  1.6316
  458MOL0     H60407   9.198   2.930   1.654  0.4353 -2.1512  1.6786
  458MOL0     H60408   9.247   2.832   1.519 -2.8327 -0.3154  1.8720
  458MOL0     H60409   9.117   3.172   1.638 -0.6660  1.7526 -0.4232
  458MOL0     H60410   8.977   3.363   1.325 -1.7380  0.1719  1.0934
  458MOL0     H60411   9.091   3.424   1.448  0.1268 -0.7100  3.5944
  458MOL0     H60412   8.869   3.475   1.503  0.5332  1.3838  0.7034
  458MOL0     H60413   8.943   3.358   1.627  0.8126 -2.4459 -0.8788
  458MOL0     H60414   8.762   3.292   1.392 -0.5617 -0.3341  0.6396
  458MOL0     H60415   8.850   3.170   1.498  0.3529 -0.2935  1.2894
  458MOL0     H60416   8.703   3.252   1.682  2.2628  0.8400 -0.9208
  458MOL0     H60417   8.624   3.193   1.540  0.4849 -0.7142 -0.2524
  458MOL0     H60418   8.524   3.636   1.627 -1.8950 -0.3609 -1.9774
  458MOL0     H60419   8.362   3.695   1.789  0.5969 -0.9634  2.1592
  458MOL0     H60420   7.930   3.474   1.889  1.6004  3.0241  1.1943
  458MOL0     H60421   7.715   3.520   1.990  0.6062  0.1762 -0.1342
  458MOL0     H60422   7.693   3.498   2.445 -2.6883  1.3100  2.2920
  458MOL0     H60423   7.609   3.357   2.372  0.0846  0.1745 -2.8396
  458MOL0     H60424   7.440   3.482   2.512  1.2994 -0.1539 -0.9325
  458MOL0     H60425   7.409   3.526   2.339  1.8267 -0.5719 -2.0496
  458MOL0     H60426   7.410   3.732   2.454  0.9580  1.2255  1.3096
  458MOL0     H60427   7.577   3.710   2.382 -1.1569 -0.5110 -0.6395
  458MOL0     H60428   7.484   3.660   2.675 -0.8551 -4.0107 -1.8352
  458MOL0     H60429   7.648   3.641   2.609 -0.3795 -0.7527 -2.0857
  458MOL0     H60430   7.480   3.899   2.612  0.7623  1.3762 -0.8170
  458MOL0     H60431   7.635   3.881   2.543  0.4746 -2.7486 -0.4894
  458MOL0     H60432   7.577   3.841   2.848  2.5973  1.7818  2.5426
  458MOL0     H60433   7.616   3.986   2.781 -0.1174 -0.7595  1.1944
  458MOL0     H60434   7.796   3.730   2.762  2.7265  1.9247 -2.1052
  458MOL0     H60435   7.846   3.885   2.714  1.2506 -2.0010 -1.4894
  458MOL0     H60436   7.771   3.799   3.001 -1.7656  0.8209  0.2979
  458MOL0     H60437   7.805   3.966   2.965 -0.9843 -1.3125  2.1167
  458MOL0     H60438   7.903   3.454   2.385  0.5912 -1.4102  0.0002
  458MOL0     H60439   8.127   3.411   2.256  0.8091 -1.4819 -1.7320
  458MOL0     H60440   8.323   3.271   1.891  0.6314 -0.6321  0.4225
  458MOL0     H60441   8.481   3.219   1.734 -0.2832  0.5469 -2.5923
  458MOL0     H60442  10.065   3.667   1.147 -0.5687  1.5053  2.2832
  458MOL0     H60443  10.293   3.751   1.062  0.0404  0.6924  1.1882
  458MOL0     H60444  10.675   4.041   1.193  0.0024  0.5167  0.7150
  458MOL0     H60445  10.882   4.124   1.132 -0.6254 -0.3385  1.4554
  458MOL0     H60446  11.086   3.938   0.827 -0.5632 -0.6110 -0.4401
  458MOL0     H60447  11.187   3.849   0.947 -1.2962  0.4669  0.4668
  458MOL0     H60448  11.330   3.971   0.818  0.5803 -0.5992  0.2186
  458MOL0     H60449  11.250   4.126   0.833  1.2110 -1.1784 -0.5468
  458MOL0     H60450  11.351   3.963   1.060 -1.2559 -2.7942 -3.6702
  458MOL0     H60451  11.280   4.125   1.069  1.3712  2.0922 -1.1398
  458MOL0     H60452  11.524   4.085   0.911 -2.6037 -2.0975 -0.6739
  458MOL0     H60453  11.471   4.232   0.994 -0.9979 -0.1481 -1.3130
  458MOL0     H60454  11.668   3.977   1.300  0.4950  1.8013  0.1980
  458MOL0     H60455  10.999   3.743   0.978 -1.3794 -2.7405  0.7283
  458MOL0     H60456  10.776   3.640   1.030 -1.1073 -0.0673 -0.5302
  459MOL0     O60457   6.285   2.821   2.328 -0.5580  0.0750  0.0888
  459MOL0     C60458   6.317   2.878   2.432  0.4547 -0.3023 -0.8160
  459MOL0     O60459   6.231   2.918   2.528  0.1211 -0.0963  0.3963
  459MOL0     C60460   6.097   2.883   2.522  0.3434  0.0423 -0.9944
  459MOL0     C60461   6.013   2.913   2.418 -0.0597  0.1131 -0.0253
  459MOL0     C60462   5.873   2.888   2.430  0.2556 -0.5126  1.2491
  459MOL0     C60463   5.813   2.831   2.539 -0.6568  0.2936  0.1527
  459MOL0     O60464   5.676   2.808   2.532  0.0875  0.2092  0.5313
  459MOL0     C60465   5.609   2.718   2.626 -1.0066 -0.0296  0.5136
  459MOL0     C60466   5.476   2.681   2.579  0.2682  0.5292 -0.2976
  459MOL0     C60467   5.396   2.596   2.677 -0.0882 -0.2110  0.1267
  459MOL0     C60468   5.251   2.567   2.648  0.4396 -0.7625  0.2332
  459MOL0     C60469   5.241   2.485   2.523 -0.3177 -0.1831 -0.1563
  459MOL0     C60470   5.088   2.444   2.497  0.9947  0.4568  0.9541
  459MOL0     C60471   5.084   2.376   2.357 -0.2229  0.0328 -0.9603
  459MOL0     C60472   4.957   2.338   2.294  0.2140 -0.3448 -0.8101
  459MOL0     N60473   4.859   2.270   2.383 -0.1527  0.4560 -0.3089
  459MOL0     C60474   4.871   2.176   2.482  0.6381  0.2936  0.3155
  459MOL0     C60475   4.750   2.165   2.541 -0.3218 -0.9645 -0.5645
  459MOL0     C60476   4.691   2.078   2.650  0.3862 -0.2191  1.2570
  459MOL0     C60477   4.570   1.994   2.607 -0.4558  0.0038  0.0088
  459MOL0     C60478   4.433   2.057   2.641 -0.2395 -1.0813 -0.3560
  459MOL0     C60479   4.404   2.090   2.782  0.3112 -0.0486 -0.9843
  459MOL0     O60480   4.272   2.036   2.826  0.3765 -1.0687  0.1054
  459MOL0     C60481   4.158   2.114   2.817 -0.4685  0.2284 -0.1463
  459MOL0     C60482   4.038   2.061   2.855 -0.2046 -0.9089  0.7484
  459MOL0     C60483   3.923   2.142   2.837 -0.0325  0.8673  0.3570
  459MOL0     C60484   3.928   2.268   2.790 -0.0450 -0.3939 -0.9614
  459MOL0     C60485   3.809   2.352   2.771 -0.4465  0.0336  0.4496
  459MOL0     O60486   3.682   2.306   2.811 -0.5790  0.5605 -0.9547
  459MOL0     C60487   3.568   2.372   2.802  0.0706 -0.3333  0.0680
  459MOL0     C60488   3.483   2.378   2.916  1.0704 -0.1435  0.0373
  459MOL0     C60489   3.363   2.450   2.907 -0.1007 -0.3324 -0.1136
  459MOL0     C60490   3.319   2.505   2.787  0.9965 -0.0535 -0.2865
  459MOL0     O60491   3.194   2.560   2.793 -0.1921  0.0157 -0.0814
  459MOL0     C60492   3.125   2.567   2.664  0.3599  0.2804 -0.4180
  459MOL0     C60493   2.982   2.627   2.690  0.4721 -0.1017 -0.1028
  459MOL0     C60494   2.886   2.521   2.738  0.6163 -0.1762  0.3659
  459MOL0     C60495   2.759   2.571   2.783 -0.1548  0.2265 -0.3072
  459MOL0     C60496   2.652   2.603   2.671  1.0422  0.0963 -0.5817
  459MOL0     C60497   2.538   2.692   2.734  1.2817  0.3673 -0.6724
  459MOL0     C60498   2.457   2.605   2.826 -0.3071  0.1234  0.5076
  459MOL0     C60499   2.333   2.683   2.870  0.1076 -0.5303 -0.6060
  459MOL0    Cl60500   2.365   2.850   2.947  0.0795  0.0826 -0.4611
  459MOL0     C60501   3.399   2.487   2.674  0.0431  0.3614  0.1154
  459MOL0     C60502   3.522   2.429   2.686 -1.1941  0.0006 -0.5932
  459MOL0     O60503   3.834   2.463   2.728  0.0494  0.1193 -0.4201
  459MOL0     C60504   4.052   2.311   2.749 -0.3140 -0.5708 -0.2997
  459MOL0     C60505   4.166   2.235   2.754 -0.3821 -0.3303 -0.0861
  459MOL0     N60506   4.666   2.250   2.470 -0.1491 -0.1043 -0.1557
  459MOL0     N60507   4.736   2.317   2.388 -0.3680  0.4650  0.0533
  459MOL0     C60508   5.900   2.797   2.647 -0.5515  0.8580 -0.5571
  459MOL0     C60509   6.035   2.830   2.641  0.4279 -0.0902 -0.5582
  459MOL0     C60510   6.457   2.911   2.445 -0.8853  0.5206 -0.0744
  459MOL0     C60511   6.551   2.896   2.341  0.1585  0.2704  0.7236
  459MOL0     C60512   6.679   2.944   2.345 -0.6688  0.9190 -0.4060
  459MOL0     C60513   6.729   2.998   2.467  0.2470  0.4291 -0.9284
  459MOL0     O60514   6.862   3.034   2.465  0.5914  0.1249  0.1586
  459MOL0     C60515   6.920   3.083   2.585 -0.3985 -0.6316  0.2954
  459MOL0     C60516   6.903   3.234   2.593  0.0888  0.1662 -0.4786
  459MOL0     C60517   6.953   3.307   2.471  0.0042 -0.0468  0.9777
  459MOL0     C60518   6.934   3.450   2.486  0.0838  0.0190  0.4227
  459MOL0     C60519   7.048   3.509   2.563 -0.0370  0.2333 -0.7108
  459MOL0     C60520   7.141   3.562   2.623 -0.0265  0.7438  0.2468
  459MOL0     C60521   6.639   3.018   2.573 -0.1571  0.5219 -0.5465
  459MOL0     C60522   6.505   2.976   2.562 -0.1297 -0.7222 -0.3407
  459MOL0     H60523   6.060   2.961   2.332 -0.6347  1.2550  0.2745
  459MOL0     H60524   5.813   2.927   2.348 -1.3824 -2.1278  1.6336
  459MOL0     H60525   5.612   2.765   2.724  1.8707  1.9308 -0.4072
  459MOL0     H60526   5.668   2.626   2.617 -1.0754  0.0290 -0.7348
  459MOL0     H60527   5.488   2.619   2.490  0.7970 -1.5943  1.1977
  459MOL0     H60528   5.410   2.767   2.561 -1.5535 -0.5969  0.6390
  459MOL0     H60529   5.393   2.651   2.772 -0.5623  1.1319 -0.6306
  459MOL0     H60530   5.462   2.513   2.705  3.2501  1.7711 -1.2913
  459MOL0     H60531   5.200   2.512   2.727  2.0365  2.2196  3.6747
  459MOL0     H60532   5.198   2.661   2.629  0.6102 -0.6014  0.5451
  459MOL0     H60533   5.301   2.393   2.530 -1.2386 -0.9125 -1.4432
  459MOL0     H60534   5.285   2.546   2.444 -0.1218  0.9376  0.7958
  459MOL0     H60535   5.038   2.541   2.502 -0.4923 -0.2057 -0.0959
  459MOL0     H60536   5.052   2.380   2.578 -1.9591  0.9604  0.1418
  459MOL0     H60537   5.133   2.448   2.291  1.5589 -0.2554 -0.0255
  459MOL0     H60538   5.132   2.278   2.368 -1.0831 -0.1380  3.0807
  459MOL0     H60539   4.970   2.272   2.208 -2.6123  0.7777 -2.2466
  459MOL0     H60540   4.906   2.432   2.267  0.9174  0.3507  0.2128
  459MOL0     H60541   4.956   2.112   2.503 -0.3367 -2.0219 -2.2649
  459MOL0     H60542   4.653   2.147   2.726 -0.5977  0.1211  0.4811
  459MOL0     H60543   4.768   2.019   2.700  1.3663  1.1061  1.3686
  459MOL0     H60544   4.576   1.896   2.656  4.7842  0.1525  0.2006
  459MOL0     H60545   4.566   1.980   2.499 -1.0842  0.9336 -0.0943
  459MOL0     H60546   4.407   2.148   2.587 -1.5703 -0.3063  1.4949
  459MOL0     H60547   4.358   1.981   2.615 -0.7044 -1.3436  1.5992
  459MOL0     H60548   4.414   2.195   2.810 -1.1177 -0.2108  0.2781
  459MOL0     H60549   4.473   2.028   2.841 -0.3635 -1.5765 -1.7254
  459MOL0     H60550   4.035   1.957   2.885 -0.0675 -0.9799  0.5129
  459MOL0     H60551   3.825   2.107   2.869  0.2437 -0.1629  0.1353
  459MOL0     H60552   3.523   2.340   3.009  2.0800  0.7940 -0.0096
  459MOL0     H60553   3.311   2.469   3.000  0.9605  1.2033  0.2084
  459MOL0     H60554   3.118   2.469   2.616  1.7163 -0.2497  0.4175
  459MOL0     H60555   3.165   2.641   2.594 -0.9120  1.5308  0.1316
  459MOL0     H60556   2.936   2.674   2.602 -0.1373 -1.0925 -0.3239
  459MOL0     H60557   2.988   2.697   2.774 -1.3369 -0.2443  0.1713
  459MOL0     H60558   2.921   2.460   2.822 -3.0380 -0.0223  2.1882
  459MOL0     H60559   2.872   2.450   2.656 -4.3253 -0.2460  1.0001
  459MOL0     H60560   2.716   2.509   2.862 -0.8437  2.7976  1.4679
  459MOL0     H60561   2.773   2.664   2.838 -0.1248 -0.0909  0.2216
  459MOL0     H60562   2.613   2.515   2.619  0.4727 -1.0940  1.7128
  459MOL0     H60563   2.695   2.670   2.596 -0.4142  2.3619  0.5117
  459MOL0     H60564   2.474   2.727   2.652  1.4047  0.1413 -0.8695
  459MOL0     H60565   2.582   2.781   2.779  3.0931 -0.6241 -0.3916
  459MOL0     H60566   2.423   2.521   2.765  0.5333  0.6320 -0.6858
  459MOL0     H60567   2.511   2.577   2.918  1.7345 -2.4701 -1.3048
  459MOL0     H60568   2.279   2.625   2.946  2.1361 -1.4219  0.2386
  459MOL0     H60569   2.275   2.695   2.778 -1.1271  3.5421  0.4961
  459MOL0     H60570   3.370   2.518   2.574  2.7589 -1.3047 -1.3127
  459MOL0     H60571   3.596   2.430   2.606 -1.5816 -0.7458 -0.9724
  459MOL0     H60572   4.054   2.416   2.722 -0.9996  0.5584  3.4517
  459MOL0     H60573   4.258   2.277   2.713  0.8219 -3.8844 -1.4125
  459MOL0     H60574   5.862   2.765   2.744  2.5000 -0.2414  0.3987
  459MOL0     H60575   6.097   2.803   2.726  2.9581 -0.8693 -2.5359
  459MOL0     H60576   6.515   2.870   2.242  2.5414  1.5360 -0.5713
  459MOL0     H60577   6.740   2.952   2.256  1.7190 -0.1221  1.0496
  459MOL0     H60578   7.029   3.069   2.582 -0.6118 -2.6531  0.3974
  459MOL0     H60579   6.885   3.029   2.673 -0.9436 -0.0694  0.4266
  459MOL0     H60580   6.794   3.249   2.589 -0.4208 -2.6481  0.9070
  459MOL0     H60581   6.939   3.280   2.685 -1.3155 -0.7715  0.5727
  459MOL0     H60582   6.905   3.262   2.383 -2.8675  2.2877  1.1738
  459MOL0     H60583   7.059   3.287   2.453 -0.1288  1.0884 -1.6793
  459MOL0     H60584   6.938   3.510   2.395  0.1308 -0.0679  0.3671
  459MOL0     H60585   6.835   3.471   2.527 -0.0584 -1.1632  0.7360
  459MOL0     H60586   7.217   3.603   2.686 -0.4204  1.1363  0.4783
  459MOL0     H60587   6.663   3.069   2.666 -1.8115  0.7118 -0.1959
  459MOL0     H60588   6.429   2.998   2.637 -0.7014 -1.3129 -0.7299
  460MOL0     O60589  11.187  10.562   5.936 -0.0436  0.3935 -0.1936
  460MOL0     C60590  11.223  10.563   6.059  1.0178  0.2917 -0.1355
  460MOL0     O60591  11.141  10.599   6.163 -0.1193  0.0865  0.1148
  460MOL0     C60592  11.008  10.587   6.156 -0.3784  0.0223 -0.2075
  460MOL0     C60593  10.935  10.495   6.083  0.7380 -0.8454  0.2454
  460MOL0     C60594  10.793  10.496   6.081  0.0716 -0.0000 -0.4839
  460MOL0     C60595  10.714  10.585   6.162 -0.0789 -0.1164 -0.5579
  460MOL0     O60596  10.583  10.590   6.159  0.5658  0.2686 -0.4583
  460MOL0     C60597  10.509  10.502   6.076 -0.7692 -0.4334  0.9705
  460MOL0     C60598  10.362  10.542   6.086  0.2216  0.5159  0.1741
  460MOL0     C60599  10.267  10.451   6.000 -0.2795 -0.1443 -0.8777
  460MOL0     C60600  10.275  10.482   5.850  0.6921  0.1122 -0.9615
  460MOL0     C60601  10.172  10.425   5.755 -0.2956 -0.5054 -0.1651
  460MOL0     C60602  10.180  10.482   5.613  0.1335  0.2826 -0.1267
  460MOL0     C60603  10.280  10.393   5.527 -0.3594  0.3412 -0.9448
  460MOL0     C60604  10.292  10.446   5.383 -0.0850 -0.8803  0.3255
  460MOL0     N60605  10.361  10.354   5.301 -1.3802  0.1575 -0.1734
  460MOL0     C60606  10.471  10.391   5.218 -0.2361  0.0686  0.7321
  460MOL0     C60607  10.518  10.274   5.170 -0.2165 -0.4586  0.1885
  460MOL0     C60608  10.633  10.252   5.073  0.5979  0.2732  0.5252
  460MOL0     C60609  10.763  10.197   5.126 -0.1180 -0.3676 -0.2349
  460MOL0     C60610  10.871  10.187   5.009  0.2600  0.2003  0.6219
  460MOL0     C60611  11.019  10.168   5.046  0.3407  0.0712  0.1791
  460MOL0     O60612  11.078  10.110   4.927 -0.1559  0.3897 -0.1069
  460MOL0     C60613  11.214  10.124   4.915  0.0381 -0.1409  0.4524
  460MOL0     C60614  11.303  10.193   5.000  0.1396  0.4604 -0.0292
  460MOL0     C60615  11.434  10.207   4.970  0.1923  0.2458  0.3300
  460MOL0     C60616  11.492  10.149   4.849  0.2955 -0.3044  0.6044
  460MOL0     C60617  11.630  10.163   4.820  0.2190 -0.3168  0.4195
  460MOL0     O60618  11.684  10.082   4.724  0.1654  0.0344 -0.5208
  460MOL0     C60619  11.807  10.112   4.685 -0.0496  0.7201 -0.0608
  460MOL0     C60620  11.917  10.039   4.752  0.4574 -0.7060 -0.5948
  460MOL0     C60621  12.049  10.070   4.720  0.2185 -0.2194 -0.1205
  460MOL0     C60622  12.080  10.176   4.629  0.7653 -0.2747 -0.1425
  460MOL0     O60623  12.214  10.206   4.610  0.2179 -0.3174 -0.6467
  460MOL0     C60624  12.263  10.299   4.512  0.1437  0.0975 -0.1447
  460MOL0     C60625  12.419  10.290   4.507  0.5208 -0.2854  0.2761
  460MOL0     C60626  12.482  10.404   4.579  0.3505  0.3832 -0.3278
  460MOL0     C60627  12.634  10.392   4.555  0.6688  0.0022  1.6834
  460MOL0     C60628  12.710  10.527   4.564  0.4840 -0.0506  0.3454
  460MOL0     C60629  12.711  10.568   4.706 -0.3397 -0.4119  0.3712
  460MOL0     C60630  12.753  10.707   4.735  0.5744  0.7191  0.0918
  460MOL0     C60631  12.778  10.718   4.882  0.7530  0.5721 -0.2289
  460MOL0    Cl60632  12.630  10.714   4.992 -0.3247 -0.2386  0.2307
  460MOL0     C60633  11.973  10.249   4.577 -0.1393 -0.1124  0.8632
  460MOL0     C60634  11.839  10.218   4.602 -0.3310  0.4129  0.1234
  460MOL0     O60635  11.695  10.256   4.876  0.6593 -0.2123 -0.3659
  460MOL0     C60636  11.409  10.065   4.778  1.0080 -0.1852 -0.3685
  460MOL0     C60637  11.272  10.058   4.808  0.3065  0.2620 -0.2231
  460MOL0     N60638  10.441  10.163   5.212 -0.9172 -0.2050 -0.0860
  460MOL0     N60639  10.353  10.220   5.290  0.9679 -0.3965 -0.4891
  460MOL0     C60640  10.786  10.673   6.242  0.5131  0.2467 -0.3057
  460MOL0     C60641  10.924  10.670   6.242 -0.2607 -0.2130 -0.4454
  460MOL0     C60642  11.365  10.539   6.086  0.8146 -0.4682  0.7026
  460MOL0     C60643  11.452  10.478   6.000  0.0774  0.1228 -0.7926
  460MOL0     C60644  11.589  10.493   6.006  0.0619 -0.3015 -0.4124
  460MOL0     C60645  11.646  10.564   6.115 -0.2667  0.2205  0.4114
  460MOL0     O60646  11.780  10.577   6.119  0.1383  0.0425  0.9025
  460MOL0     C60647  11.835  10.659   6.217  0.3522  0.1555 -0.3047
  460MOL0     C60648  11.958  10.715   6.160  0.6124 -0.2121 -0.1206
  460MOL0     C60649  12.041  10.780   6.273  0.0184 -0.1534  0.3992
  460MOL0     C60650  12.173  10.847   6.221  0.3424  0.7628  0.6858
  460MOL0     C60651  12.284  10.758   6.185  0.1243  0.3857 -0.0097
  460MOL0     C60652  12.375  10.691   6.153 -1.3480  0.3109  0.5990
  460MOL0     C60653  11.560  10.617   6.208 -0.2638  0.2652 -0.7746
  460MOL0     C60654  11.420  10.614   6.199  0.4526  0.9317  0.1397
  460MOL0     H60655  10.993  10.425   6.023 -0.2284 -0.2052 -1.4813
  460MOL0     H60656  10.739  10.421   6.024  0.8048 -2.7182  2.1563
  460MOL0     H60657  10.523  10.397   6.102 -1.7353 -0.2261  2.4493
  460MOL0     H60658  10.531  10.514   5.969 -2.4384 -2.4140  0.3444
  460MOL0     H60659  10.346  10.650   6.079 -2.6226  0.2997  1.7839
  460MOL0     H60660  10.325  10.517   6.186 -1.6502 -1.3192 -0.9086
  460MOL0     H60661  10.167  10.453   6.044  0.1008  0.2272  0.0079
  460MOL0     H60662  10.281  10.343   6.013 -0.8752 -0.1376 -0.1091
  460MOL0     H60663  10.261  10.590   5.839  1.9831  0.3630 -0.2723
  460MOL0     H60664  10.375  10.455   5.814  0.7426 -2.2114  0.6812
  460MOL0     H60665  10.070  10.448   5.787  0.2014  2.5932 -0.4905
  460MOL0     H60666  10.176  10.316   5.754  3.1972 -0.4943  0.4684
  460MOL0     H60667  10.206  10.588   5.619  1.0911  0.0514 -0.0358
  460MOL0     H60668  10.078  10.485   5.574 -0.1794  1.6128  0.7337
  460MOL0     H60669  10.379  10.392   5.574 -1.3102 -1.7773  1.2466
  460MOL0     H60670  10.234  10.295   5.511  1.1523 -0.6035  0.1885
  460MOL0     H60671  10.333  10.547   5.380 -1.9669 -0.0542  1.1980
  460MOL0     H60672  10.190  10.453   5.344 -0.4065  1.8007  1.4931
  460MOL0     H60673  10.521  10.487   5.205  1.9337 -0.5318  3.6062
  460MOL0     H60674  10.645  10.345   5.017  0.1595 -1.8637 -3.5041
  460MOL0     H60675  10.606  10.193   4.985  2.9856 -0.3126  0.1054
  460MOL0     H60676  10.745  10.095   5.160  1.0284 -0.6915 -0.5501
  460MOL0     H60677  10.799  10.259   5.209  0.2253 -0.4251 -0.3390
  460MOL0     H60678  10.849  10.112   4.933  2.8235  2.1828 -2.3241
  460MOL0     H60679  10.884  10.283   4.958  0.1784  0.2361  0.6696
  460MOL0     H60680  11.027  10.105   5.135 -0.1260  0.8589  0.7855
  460MOL0     H60681  11.063  10.263   5.077  0.6577 -0.0015 -0.0476
  460MOL0     H60682  11.271  10.246   5.090 -1.1650 -2.6381  1.5018
  460MOL0     H60683  11.495  10.263   5.040  1.4992  0.6169 -1.0422
  460MOL0     H60684  11.899   9.957   4.821  0.4364 -1.3766 -1.3784
  460MOL0     H60685  12.133  10.012   4.757  0.0187  0.7821  2.0517
  460MOL0     H60686  12.228  10.401   4.532  2.3838  0.5283  2.1127
  460MOL0     H60687  12.210  10.273   4.419  0.5506 -0.6583 -0.1725
  460MOL0     H60688  12.449  10.290   4.402  1.7461 -1.0581  0.6049
  460MOL0     H60689  12.454  10.200   4.560  1.3713  0.6343  1.3413
  460MOL0     H60690  12.466  10.390   4.687 -3.3348 -3.1863 -1.0809
  460MOL0     H60691  12.436  10.499   4.548  0.7784  1.2078  1.4243
  460MOL0     H60692  12.670  10.320   4.629 -1.5691 -1.5534  1.3422
  460MOL0     H60693  12.651  10.349   4.456 -1.5598  3.1162 -0.2270
  460MOL0     H60694  12.657  10.605   4.507  0.3441  0.0644  0.6326
  460MOL0     H60695  12.811  10.515   4.523  0.6576 -0.9879  1.0351
  460MOL0     H60696  12.764  10.488   4.758  0.8908 -1.6785 -2.5799
  460MOL0     H60697  12.613  10.566   4.754 -1.8297  0.8311 -2.4035
  460MOL0     H60698  12.850  10.740   4.695  0.0792  1.9559 -0.1269
  460MOL0     H60699  12.671  10.778   4.718 -0.8979 -0.4712  1.8954
  460MOL0     H60700  12.831  10.812   4.901 -0.8989  1.4926  0.0857
  460MOL0     H60701  12.845  10.638   4.914  1.5707  1.1750 -0.4014
  460MOL0     H60702  12.004  10.329   4.510 -1.1731  0.5747  1.1943
  460MOL0     H60703  11.759  10.266   4.547  0.2904 -1.3832 -2.5436
  460MOL0     H60704  11.423   9.998   4.695 -1.1030 -2.7986  1.2266
  460MOL0     H60705  11.199  10.004   4.749 -3.4321  3.6169  0.8951
  460MOL0     H60706  10.747  10.757   6.299  0.4337 -1.0378  1.6234
  460MOL0     H60707  10.968  10.737   6.315 -0.4675  0.7910 -1.2260
  460MOL0     H60708  11.391  10.425   5.928 -1.1676  0.1517  0.1817
  460MOL0     H60709  11.644  10.447   5.924 -2.4798  0.0014 -2.4303
  460MOL0     H60710  11.871  10.604   6.305  2.1829 -1.1816 -1.8086
  460MOL0     H60711  11.772  10.741   6.253 -1.0305 -0.4747 -1.2168
  460MOL0     H60712  12.018  10.631   6.125  2.8625  1.9061 -1.6870
  460MOL0     H60713  11.935  10.787   6.081 -0.7849 -0.0178  0.4365
  460MOL0     H60714  12.060  10.705   6.350  0.3546 -0.0234  0.4467
  460MOL0     H60715  11.980  10.860   6.316 -2.9193 -1.5806 -0.8825
  460MOL0     H60716  12.154  10.919   6.140 -2.8471  0.9251  1.4752
  460MOL0     H60717  12.202  10.893   6.316 -1.1960 -1.7063  2.4342
  460MOL0     H60718  12.470  10.647   6.132 -1.3171 -0.8964  2.9855
  460MOL0     H60719  11.597  10.681   6.288  0.5749 -1.4617  0.2854
  460MOL0     H60720  11.359  10.674   6.266 -0.3831  0.5330 -0.2527
  461MOL0     O60721   4.968   7.055   2.819 -0.3396  0.0365 -0.1257
  461MOL0     C60722   4.978   7.101   2.711  0.2516  0.3129  1.0827
  461MOL0     O60723   4.872   7.145   2.632 -0.0267 -0.1205  0.6176
  461MOL0     C60724   4.753   7.187   2.690 -0.2819 -0.2592 -0.5127
  461MOL0     C60725   4.727   7.318   2.720 -0.6876  0.0185  1.0700
  461MOL0     C60726   4.609   7.364   2.781  0.9089 -0.5270 -0.0175
  461MOL0     C60727   4.511   7.273   2.819  0.0360 -0.3890 -0.9285
  461MOL0     O60728   4.398   7.301   2.888  0.7686 -1.1511 -0.2258
  461MOL0     C60729   4.377   7.438   2.937  0.1273  0.5302  0.1742
  461MOL0     C60730   4.251   7.431   3.017  0.7315  0.0187 -0.2626
  461MOL0     C60731   4.119   7.421   2.931  0.2668 -0.1012  0.1464
  461MOL0     C60732   3.988   7.444   3.005  0.4191  0.2944 -0.6776
  461MOL0     C60733   3.948   7.317   3.084  0.7365 -0.4232 -1.4254
  461MOL0     C60734   3.813   7.360   3.160  0.4453  0.3713  0.2727
  461MOL0     C60735   3.768   7.236   3.242 -0.9282  0.2509  0.2307
  461MOL0     C60736   3.686   7.274   3.372 -0.5292  0.7054 -0.7116
  461MOL0     N60737   3.556   7.325   3.335  0.1062 -0.0697 -0.0765
  461MOL0     C60738   3.530   7.455   3.336  0.4358 -0.5684  0.3725
  461MOL0     C60739   3.400   7.460   3.301 -0.2769 -0.1252  0.6378
  461MOL0     C60740   3.318   7.585   3.275 -1.1273  0.6815  0.3250
  461MOL0     C60741   3.369   7.638   3.142 -0.3842  1.2768  0.5832
  461MOL0     C60742   3.285   7.758   3.080 -0.7659  0.5524  0.0743
  461MOL0     C60743   3.188   7.715   2.972  0.0857  0.1005 -0.5418
  461MOL0     O60744   3.103   7.826   2.947 -0.7174 -0.7979  0.2490
  461MOL0     C60745   2.967   7.824   2.979 -0.5564  0.5695  0.3120
  461MOL0     C60746   2.920   7.770   3.095 -0.6716 -0.2545  0.1929
  461MOL0     C60747   2.782   7.761   3.122  0.6984  0.3120 -0.3952
  461MOL0     C60748   2.694   7.817   3.034 -0.2176 -0.7708 -0.0678
  461MOL0     C60749   2.547   7.809   3.064 -0.3805  1.0909 -0.1201
  461MOL0     O60750   2.492   7.721   3.151 -0.3793 -1.0362 -0.2777
  461MOL0     C60751   2.369   7.719   3.202  0.4604 -0.0271 -0.8015
  461MOL0     C60752   2.316   7.593   3.246  1.1957 -0.0224  0.2658
  461MOL0     C60753   2.190   7.591   3.304 -0.1334 -0.4692  0.4872
  461MOL0     C60754   2.118   7.705   3.311  1.1120 -0.8838  0.7031
  461MOL0     O60755   1.984   7.699   3.354 -0.2237 -0.5451  0.0093
  461MOL0     C60756   1.940   7.609   3.450 -0.4125  0.3813 -0.2760
  461MOL0     C60757   1.810   7.642   3.531  0.3394  0.3539  0.0736
  461MOL0     C60758   1.681   7.634   3.445  0.3998 -0.7326  0.6080
  461MOL0     C60759   1.547   7.657   3.526 -0.4608 -0.4375  0.0645
  461MOL0     C60760   1.420   7.687   3.445  0.1077 -0.3294  0.2346
  461MOL0     C60761   1.298   7.623   3.505 -0.4962  0.2691  0.2498
  461MOL0     C60762   1.260   7.675   3.643 -0.3238 -0.0798  0.5092
  461MOL0     C60763   1.132   7.603   3.692 -0.0091  0.9652 -0.3488
  461MOL0    Cl60764   1.168   7.435   3.739 -0.3277  0.1350 -0.4482
  461MOL0     C60765   2.166   7.827   3.272 -0.0648 -0.2274 -0.0737
  461MOL0     C60766   2.289   7.831   3.216  0.2400  0.4329  0.1157
  461MOL0     O60767   2.482   7.897   3.008  0.0761 -0.6430  0.2059
  461MOL0     C60768   2.743   7.882   2.921 -0.7016  0.1794  1.0512
  461MOL0     C60769   2.883   7.885   2.894  0.3843 -0.3094 -0.4031
  461MOL0     N60770   3.351   7.336   3.265  0.1434  0.2258  0.4240
  461MOL0     N60771   3.441   7.249   3.306  0.0418 -0.3592  0.0558
  461MOL0     C60772   4.541   7.136   2.803 -0.2723 -0.9075 -0.5837
  461MOL0     C60773   4.659   7.094   2.747 -0.5281 -0.3192  0.2066
  461MOL0     C60774   5.115   7.115   2.661 -0.1996  0.9366  0.2641
  461MOL0     C60775   5.226   7.059   2.725 -0.2390  0.2637  0.6247
  461MOL0     C60776   5.354   7.074   2.667  0.7534 -0.2249 -0.3234
  461MOL0     C60777   5.375   7.120   2.531 -0.3462  0.4357 -0.1834
  461MOL0     O60778   5.499   7.140   2.472  0.1923 -0.3315  0.6362
  461MOL0     C60779   5.612   7.089   2.547 -0.4604 -0.0938  0.0980
  461MOL0     C60780   5.743   7.101   2.475  0.2618 -0.5768 -0.2431
  461MOL0     C60781   5.760   6.993   2.364 -1.1107 -0.1245  0.1146
  461MOL0     C60782   5.911   6.936   2.352  1.1343  0.4914  0.3513
  461MOL0     C60783   6.008   7.041   2.338  0.9271 -0.5402 -0.3303
  461MOL0     C60784   6.103   7.124   2.337  0.4258 -0.1090 -0.1943
  461MOL0     C60785   5.262   7.162   2.465 -0.6073  0.6191  0.1832
  461MOL0     C60786   5.138   7.151   2.529  0.6759  1.1242 -0.3997
  461MOL0     H60787   4.800   7.393   2.693 -0.1654 -0.4526  1.1660
  461MOL0     H60788   4.609   7.472   2.791 -0.3950 -0.1991 -2.6498
  461MOL0     H60789   4.358   7.505   2.853  2.5592  0.2601 -0.6698
  461MOL0     H60790   4.457   7.477   3.000 -0.9270  3.1643 -0.0017
  461MOL0     H60791   4.239   7.526   3.068 -0.4890 -0.3189  0.1087
  461MOL0     H60792   4.247   7.347   3.087 -1.0364 -0.3108 -0.7186
  461MOL0     H60793   4.111   7.331   2.869  2.3454  1.3586 -2.4463
  461MOL0     H60794   4.125   7.497   2.853  2.2556  0.1503  0.4852
  461MOL0     H60795   3.996   7.533   3.069 -0.0619  0.2571 -0.5621
  461MOL0     H60796   3.903   7.465   2.940  0.8621  1.7502 -0.8177
  461MOL0     H60797   4.023   7.313   3.163  1.3326  3.4336 -1.5716
  461MOL0     H60798   3.955   7.227   3.022  2.3838 -1.5001  0.2179
  461MOL0     H60799   3.737   7.383   3.085  1.2399  0.3609 -0.5583
  461MOL0     H60800   3.827   7.442   3.232  2.2770 -0.2074  0.6376
  461MOL0     H60801   3.709   7.169   3.178  1.2433 -0.8968 -0.6957
  461MOL0     H60802   3.855   7.174   3.267 -1.7969 -0.3339  1.9826
  461MOL0     H60803   3.745   7.343   3.434  0.7761  0.1940 -1.3495
  461MOL0     H60804   3.672   7.178   3.423 -0.6411  1.1247  0.0671
  461MOL0     H60805   3.597   7.540   3.347  0.3567 -0.4618  0.0371
  461MOL0     H60806   3.342   7.658   3.353 -0.0882  1.4735 -0.7095
  461MOL0     H60807   3.210   7.568   3.275 -1.2271  0.6208  3.5894
  461MOL0     H60808   3.360   7.546   3.083  3.9956  0.0136  1.5215
  461MOL0     H60809   3.473   7.670   3.153  0.8519 -2.5184  1.4318
  461MOL0     H60810   3.227   7.809   3.158  1.1940  0.9936  1.3176
  461MOL0     H60811   3.351   7.832   3.034 -1.5056  2.4523  1.8437
  461MOL0     H60812   3.132   7.627   3.006 -1.0160  0.6323 -0.9318
  461MOL0     H60813   3.239   7.679   2.882  1.4382 -1.4035  0.7602
  461MOL0     H60814   2.995   7.726   3.160 -0.0804 -0.7676 -0.7986
  461MOL0     H60815   2.743   7.721   3.215 -2.5409  0.2045 -1.6869
  461MOL0     H60816   2.389   7.513   3.250  0.1984 -1.0305 -0.7071
  461MOL0     H60817   2.146   7.499   3.342 -1.4025 -2.6095 -5.1848
  461MOL0     H60818   2.023   7.591   3.520  1.2377 -4.1562 -2.9624
  461MOL0     H60819   1.918   7.514   3.401 -1.4042 -0.4629  1.6616
  461MOL0     H60820   1.818   7.743   3.573 -0.7163  0.4181  0.1598
  461MOL0     H60821   1.798   7.575   3.616 -0.9573  1.2378  0.6282
  461MOL0     H60822   1.672   7.539   3.392 -0.3340  0.7012 -1.9906
  461MOL0     H60823   1.679   7.709   3.366 -2.3395 -0.6021  0.6937
  461MOL0     H60824   1.527   7.569   3.588 -1.6727 -0.5620 -0.4761
  461MOL0     H60825   1.561   7.741   3.595  1.3411  0.1652 -0.9850
  461MOL0     H60826   1.446   7.644   3.348  0.8098 -0.9423  0.6795
  461MOL0     H60827   1.391   7.793   3.442  0.4765 -0.2289 -2.7403
  461MOL0     H60828   1.318   7.515   3.509 -0.2047  0.3345  0.5799
  461MOL0     H60829   1.212   7.632   3.437  0.9714 -1.2978 -1.9466
  461MOL0     H60830   1.342   7.679   3.715  1.2008  1.1321 -1.1760
  461MOL0     H60831   1.234   7.780   3.625 -3.0194 -0.8589 -0.6227
  461MOL0     H60832   1.057   7.599   3.613 -1.3548  0.2743  0.9177
  461MOL0     H60833   1.084   7.659   3.773  2.1883  1.9074  0.3760
  461MOL0     H60834   2.108   7.916   3.295  1.6770  0.8371  0.3416
  461MOL0     H60835   2.326   7.925   3.176 -0.3185 -1.3028 -5.2088
  461MOL0     H60836   2.678   7.934   2.851  0.9814  0.3036 -0.4782
  461MOL0     H60837   2.919   7.937   2.806 -0.5125  2.6700  0.8583
  461MOL0     H60838   4.474   7.056   2.832 -0.5343 -0.9764 -1.3516
  461MOL0     H60839   4.672   6.987   2.733 -0.7680 -0.2535 -0.5484
  461MOL0     H60840   5.212   7.001   2.815  1.5866 -1.8016 -0.3265
  461MOL0     H60841   5.439   7.043   2.727 -0.7817 -1.4333  1.3311
  461MOL0     H60842   5.609   6.983   2.576  2.1128 -0.4374 -0.5925
  461MOL0     H60843   5.611   7.147   2.639  0.8597  1.7402 -0.9771
  461MOL0     H60844   5.763   7.199   2.430  2.0184 -2.2645 -3.5790
  461MOL0     H60845   5.810   7.083   2.559  0.1393 -1.2107 -0.2752
  461MOL0     H60846   5.728   7.042   2.272 -1.9786  1.1184  1.0449
  461MOL0     H60847   5.689   6.911   2.379 -2.4582  0.9433 -0.2718
  461MOL0     H60848   5.924   6.880   2.445 -1.7354 -0.3665  0.3600
  461MOL0     H60849   5.910   6.874   2.262 -0.4918  0.1869  0.5372
  461MOL0     H60850   6.187   7.190   2.335 -0.7596  1.5053 -3.2868
  461MOL0     H60851   5.261   7.200   2.363  4.1490 -0.4498 -0.4820
  461MOL0     H60852   5.051   7.173   2.468 -1.0730 -0.9003  1.1994
  462MOL0     O60853   2.628   3.595   2.765  0.1620 -1.0127 -0.3672
  462MOL0     C60854   2.654   3.707   2.819  0.3491  0.1688  0.0573
  462MOL0     O60855   2.567   3.806   2.850 -0.0520  0.4596 -0.8359
  462MOL0     C60856   2.435   3.766   2.869  0.0624 -0.0687  0.8388
  462MOL0     C60857   2.387   3.709   2.991  0.0241  0.8971  0.0680
  462MOL0     C60858   2.249   3.700   3.008 -0.3366 -0.0037 -0.2905
  462MOL0     C60859   2.149   3.741   2.920  0.2719  0.3666  0.5747
  462MOL0     O60860   2.014   3.718   2.954 -0.0034  0.0607  0.9373
  462MOL0     C60861   1.912   3.711   2.854 -0.4570  0.0465  0.4754
  462MOL0     C60862   1.780   3.670   2.904  0.0836 -0.2907 -0.5132
  462MOL0     C60863   1.726   3.747   3.026  0.0876 -0.3542  0.2556
  462MOL0     C60864   1.583   3.694   3.062 -0.0667  0.0288 -0.0662
  462MOL0     C60865   1.541   3.768   3.192  0.1760  0.4331 -1.7251
  462MOL0     C60866   1.562   3.919   3.201  0.0824  0.0439 -0.4027
  462MOL0     C60867   1.499   3.966   3.330 -0.3764  0.5176  0.1751
  462MOL0     C60868   1.527   4.112   3.360 -0.8742  0.2824 -0.6855
  462MOL0     N60869   1.449   4.150   3.479 -0.0018  0.2264 -0.2211
  462MOL0     C60870   1.329   4.220   3.469 -0.1072  0.3345  0.0906
  462MOL0     C60871   1.281   4.227   3.590  0.0123 -0.4929  0.2762
  462MOL0     C60872   1.153   4.289   3.643 -0.1376  0.8235  0.7634
  462MOL0     C60873   1.034   4.198   3.604  0.0090  0.4548 -0.4316
  462MOL0     C60874   1.048   4.055   3.672  1.2261 -0.6006  0.6286
  462MOL0     C60875   0.940   3.964   3.626  0.8046  1.2457  0.4642
  462MOL0     O60876   0.812   4.026   3.653  0.4487  0.0963 -0.0078
  462MOL0     C60877   0.753   3.989   3.771  0.0692  0.1797 -0.0539
  462MOL0     C60878   0.617   4.013   3.777  0.6320  1.0109 -0.0042
  462MOL0     C60879   0.551   3.975   3.899  0.0316  0.3380  1.3781
  462MOL0     C60880   0.616   3.908   4.006 -0.0951 -0.8021 -0.5279
  462MOL0     C60881   0.543   3.875   4.127  0.3851 -0.1617 -1.0268
  462MOL0     O60882   0.414   3.842   4.091 -0.2669 -0.7090  0.2428
  462MOL0     C60883   0.308   3.832   4.181  0.0923  0.7794  0.0200
  462MOL0     C60884   0.283   3.915   4.290  0.3779  0.1568  0.0379
  462MOL0     C60885   0.168   3.907   4.359 -0.4288 -0.1750 -0.6886
  462MOL0     C60886   0.067   3.808   4.341  0.1870  0.3640  0.8027
  462MOL0     O60887  -0.046   3.804   4.414  0.1361 -0.0203 -0.3581
  462MOL0     C60888  -0.166   3.756   4.347  1.0691 -0.4107 -0.4042
  462MOL0     C60889  -0.287   3.806   4.417  0.5644 -0.4774 -0.5745
  462MOL0     C60890  -0.420   3.737   4.380 -0.4247 -0.0969 -0.0779
  462MOL0     C60891  -0.519   3.759   4.492  0.1923  0.6105  0.1453
  462MOL0     C60892  -0.652   3.687   4.450 -0.3591 -0.9956  0.4626
  462MOL0     C60893  -0.737   3.691   4.583 -0.4260 -0.0996  0.1624
  462MOL0     C60894  -0.872   3.636   4.545  0.2776 -0.2930 -0.3394
  462MOL0     C60895  -0.960   3.642   4.664  0.6129  0.8574  0.0779
  462MOL0    Cl60896  -1.090   3.520   4.616  0.4961 -0.2143  0.2958
  462MOL0     C60897   0.095   3.724   4.233 -0.2043 -0.4891  0.2431
  462MOL0     C60898   0.204   3.750   4.148 -0.1379 -0.0216 -0.4394
  462MOL0     O60899   0.592   3.864   4.240  0.1020  0.3545  0.1471
  462MOL0     C60900   0.753   3.898   4.007 -0.5220 -0.6776  0.0030
  462MOL0     C60901   0.813   3.942   3.891  0.2950 -0.2304  0.4394
  462MOL0     N60902   1.364   4.157   3.676  0.1319  0.3996 -0.6295
  462MOL0     N60903   1.461   4.111   3.611  0.3538  0.0506 -0.1085
  462MOL0     C60904   2.202   3.780   2.799 -0.4318 -0.5389  0.5292
  462MOL0     C60905   2.341   3.798   2.772 -0.4156  0.6391 -0.3131
  462MOL0     C60906   2.794   3.733   2.854 -0.4267 -0.2378 -0.1091
  462MOL0     C60907   2.827   3.834   2.947  0.1856  0.3068  0.8254
  462MOL0     C60908   2.961   3.866   2.969  0.5703  0.5277 -0.0344
  462MOL0     C60909   3.066   3.801   2.892 -0.0133 -0.5278 -0.7389
  462MOL0     O60910   3.192   3.850   2.910  0.5041 -0.3549  0.1664
  462MOL0     C60911   3.291   3.797   2.832 -0.2953  0.6250  0.4410
  462MOL0     C60912   3.430   3.823   2.899 -0.1919  0.3713  0.1376
  462MOL0     C60913   3.551   3.793   2.806  0.1388 -0.6817 -1.1489
  462MOL0     C60914   3.563   3.646   2.757 -0.6176 -1.1174 -1.1217
  462MOL0     C60915   3.670   3.640   2.660 -0.8937 -0.0058 -0.0661
  462MOL0     C60916   3.759   3.638   2.576  0.5160  1.3381 -0.0321
  462MOL0     C60917   3.037   3.704   2.794  0.3021  0.5674 -0.7457
  462MOL0     C60918   2.900   3.663   2.783  0.5279 -0.1918 -0.3964
  462MOL0     H60919   2.461   3.682   3.066  1.6667 -1.5776 -2.2484
  462MOL0     H60920   2.222   3.667   3.108 -0.5550  1.4307  0.1482
  462MOL0     H60921   1.946   3.644   2.775  1.0221 -0.1344  1.2362
  462MOL0     H60922   1.907   3.807   2.802 -1.8606 -1.1325 -1.7021
  462MOL0     H60923   1.793   3.565   2.932  1.5590 -0.2312 -0.8669
  462MOL0     H60924   1.717   3.693   2.818  2.4438  4.0762 -1.3773
  462MOL0     H60925   1.724   3.853   2.997 -2.3875  0.7274  3.7103
  462MOL0     H60926   1.800   3.745   3.106  1.8356 -0.2850 -1.3056
  462MOL0     H60927   1.523   3.708   2.972  1.5483 -0.7682 -1.3236
  462MOL0     H60928   1.571   3.587   3.083  0.4053 -0.0533 -0.2104
  462MOL0     H60929   1.592   3.719   3.275 -0.3928  0.5949 -1.2746
  462MOL0     H60930   1.434   3.749   3.192  0.3406 -0.5259 -1.1511
  462MOL0     H60931   1.518   3.966   3.113 -1.8316 -0.1909  0.3777
  462MOL0     H60932   1.670   3.938   3.197  0.2001 -0.7959 -2.4622
  462MOL0     H60933   1.391   3.949   3.332 -0.3630 -0.6138 -2.8328
  462MOL0     H60934   1.544   3.906   3.409 -0.9654  1.3448  1.1610
  462MOL0     H60935   1.514   4.175   3.272 -2.9723  0.5655 -0.2130
  462MOL0     H60936   1.631   4.114   3.393 -0.5722  4.4787 -1.4340
  462MOL0     H60937   1.289   4.268   3.380  0.2745  1.3268  0.4413
  462MOL0     H60938   1.146   4.389   3.599  0.8093 -0.0113 -1.4220
  462MOL0     H60939   1.163   4.296   3.751 -2.7788 -1.6234  1.2688
  462MOL0     H60940   1.029   4.181   3.496 -0.2559  1.0817 -0.5262
  462MOL0     H60941   0.948   4.259   3.634 -0.0956  0.1049 -0.0136
  462MOL0     H60942   1.141   4.004   3.645  0.9757 -1.3569  1.1415
  462MOL0     H60943   1.036   4.070   3.779  1.2214  0.3732  0.4998
  462MOL0     H60944   0.954   3.864   3.666 -0.2316  0.5418 -0.8340
  462MOL0     H60945   0.945   3.950   3.517  0.0212 -0.2242  0.5986
  462MOL0     H60946   0.555   4.052   3.697  0.3944  0.9990  0.1732
  462MOL0     H60947   0.443   3.979   3.900 -0.0920  1.6656 -2.5534
  462MOL0     H60948   0.366   3.977   4.323 -0.9458  1.8927  0.2591
  462MOL0     H60949   0.156   3.980   4.439  3.0694 -0.0387 -0.1469
  462MOL0     H60950  -0.161   3.647   4.355 -2.5687 -0.7532 -1.1159
  462MOL0     H60951  -0.168   3.788   4.242  1.1233 -2.0935 -0.9495
  462MOL0     H60952  -0.316   3.910   4.404 -0.4866 -0.6515  0.2803
  462MOL0     H60953  -0.267   3.792   4.524 -0.6422  4.3459  0.5059
  462MOL0     H60954  -0.399   3.632   4.361 -0.2176  0.0410 -0.6445
  462MOL0     H60955  -0.462   3.769   4.284  0.0953 -2.3349 -1.1068
  462MOL0     H60956  -0.472   3.708   4.576  2.4416 -0.5410 -1.6918
  462MOL0     H60957  -0.534   3.864   4.519  0.6435  0.0923  2.6767
  462MOL0     H60958  -0.629   3.586   4.416  0.8669 -0.7141  0.4076
  462MOL0     H60959  -0.708   3.736   4.370  1.0723 -1.2243 -0.6944
  462MOL0     H60960  -0.752   3.795   4.613  0.0922  0.1271 -0.3612
  462MOL0     H60961  -0.691   3.638   4.667  0.9736 -0.1506 -0.6060
  462MOL0     H60962  -0.909   3.696   4.461  0.2406 -1.5989 -1.2864
  462MOL0     H60963  -0.863   3.535   4.504  0.1363 -1.2406  1.8340
  462MOL0     H60964  -1.008   3.739   4.678 -2.7030 -0.3764 -1.6094
  462MOL0     H60965  -0.911   3.614   4.758  3.0947 -0.5830 -1.5033
  462MOL0     H60966   0.031   3.648   4.188  0.2031 -1.9008  1.9387
  462MOL0     H60967   0.212   3.683   4.063  2.2638 -1.5775  0.8991
  462MOL0     H60968   0.810   3.863   4.092  0.1337  2.1592  0.8526
  462MOL0     H60969   0.920   3.933   3.881  0.1510  0.1495 -2.4750
  462MOL0     H60970   2.137   3.802   2.714 -2.7910  0.6975  2.5244
  462MOL0     H60971   2.370   3.838   2.676 -0.0964  2.7547  0.6083
  462MOL0     H60972   2.767   3.908   3.000  1.8788  2.1050  0.3743
  462MOL0     H60973   2.980   3.943   3.043 -1.7437  0.2594  0.9198
  462MOL0     H60974   3.286   3.845   2.734 -1.8520 -2.8075 -1.3004
  462MOL0     H60975   3.275   3.690   2.822 -1.1698  0.7715  0.2067
  462MOL0     H60976   3.442   3.925   2.937 -0.4752  1.1543 -1.7506
  462MOL0     H60977   3.455   3.753   2.979 -0.1785 -0.9022 -0.9531
  462MOL0     H60978   3.646   3.820   2.853  0.4720 -0.8579 -1.7083
  462MOL0     H60979   3.528   3.852   2.717  0.9134  0.9984 -0.2762
  462MOL0     H60980   3.592   3.583   2.840  0.3397  0.1177 -0.4883
  462MOL0     H60981   3.467   3.606   2.722 -3.3398  2.5134  1.4071
  462MOL0     H60982   3.840   3.636   2.506 -0.7857 -0.4804 -1.5970
  462MOL0     H60983   3.108   3.653   2.730 -0.3558 -1.7154  0.2270
  462MOL0     H60984   2.865   3.582   2.720  0.2282 -2.1757  2.1560
  463MOL0     O60985   9.399   3.552   1.476  0.1856  0.0638  0.5359
  463MOL0     C60986   9.412   3.671   1.461 -0.2252  0.3123 -0.3978
  463MOL0     O60987   9.326   3.762   1.500  0.4702  0.1302 -0.0468
  463MOL0     C60988   9.234   3.726   1.594  0.3068 -0.1281 -0.5073
  463MOL0     C60989   9.276   3.716   1.723 -0.7010 -0.1386 -0.5242
  463MOL0     C60990   9.191   3.685   1.829 -0.1688 -0.2445 -0.3952
  463MOL0     C60991   9.058   3.663   1.804  0.0195 -0.0092 -0.0464
  463MOL0     O60992   8.978   3.625   1.914  0.6157  0.1272  0.8308
  463MOL0     C60993   8.844   3.591   1.886  0.3195  0.1464 -0.7353
  463MOL0     C60994   8.766   3.536   2.006 -0.0965  0.0372 -0.2920
  463MOL0     C60995   8.792   3.379   2.024 -0.0401 -0.4370 -0.2628
  463MOL0     C60996   8.699   3.329   2.137  0.2713  0.4415 -0.1837
  463MOL0     C60997   8.699   3.182   2.159 -0.4056 -0.5245 -0.1876
  463MOL0     C60998   8.819   3.108   2.213  0.8124  0.4995  0.7370
  463MOL0     C60999   8.789   2.960   2.217  0.0359 -0.3952  0.1392
  463MOL0     C61000   8.902   2.884   2.293 -0.0763  0.5461  0.3931
  463MOL0     N61001   8.934   2.929   2.431  0.2776 -1.1372 -0.8641
  463MOL0     C61002   8.856   2.893   2.537 -0.8465  0.3129  0.3776
  463MOL0     C61003   8.901   2.968   2.642  0.1937  0.3604 -0.0857
  463MOL0     C61004   8.848   2.989   2.776  0.5949  0.7177 -1.0608
  463MOL0     C61005   8.713   2.914   2.798 -0.1930  0.0567  0.4823
  463MOL0     C61006   8.736   2.761   2.808  0.0545 -0.3508 -0.2949
  463MOL0     C61007   8.609   2.685   2.775  0.0787  0.2489  0.4990
  463MOL0     O61008   8.586   2.699   2.632 -0.2900 -0.0598  0.4572
  463MOL0     C61009   8.455   2.675   2.592  0.2300 -0.1386  0.1708
  463MOL0     C61010   8.365   2.598   2.657  0.5111 -0.4530  0.8291
  463MOL0     C61011   8.230   2.577   2.608 -0.3982 -0.0815  0.0048
  463MOL0     C61012   8.179   2.647   2.499 -0.1049 -0.7519  0.3579
  463MOL0     C61013   8.041   2.629   2.437 -0.3608 -0.1145 -0.6131
  463MOL0     O61014   8.031   2.655   2.303 -0.2472 -0.7393 -0.0891
  463MOL0     C61015   7.910   2.644   2.240  0.1082 -0.0198 -0.8273
  463MOL0     C61016   7.786   2.678   2.291 -0.1203  0.4341  0.0803
  463MOL0     C61017   7.677   2.667   2.207  0.3613  1.4335  0.7166
  463MOL0     C61018   7.680   2.621   2.069 -0.3284 -0.4745  0.0752
  463MOL0     O61019   7.563   2.602   2.002 -0.3008  0.0812 -0.0725
  463MOL0     C61020   7.563   2.479   1.922 -0.8955  0.3930 -0.3070
  463MOL0     C61021   7.424   2.449   1.869  0.2436 -0.0172  0.4890
  463MOL0     C61022   7.323   2.394   1.969  0.6494 -0.5630 -0.2353
  463MOL0     C61023   7.186   2.419   1.908 -0.2541  1.1585  0.1027
  463MOL0     C61024   7.064   2.356   1.985 -0.9179 -0.5275 -0.4958
  463MOL0     C61025   6.968   2.277   1.886  0.1348 -0.2878 -1.1919
  463MOL0     C61026   6.884   2.177   1.963  0.8518 -0.5636  0.0847
  463MOL0     C61027   6.789   2.110   1.872  0.2420  0.9758 -0.6672
  463MOL0    Cl61028   6.679   2.244   1.813 -0.3267  0.1905  0.2689
  463MOL0     C61029   7.808   2.579   2.023  0.2534 -0.1528  0.3312
  463MOL0     C61030   7.916   2.588   2.109  0.2427  0.5342 -0.4789
  463MOL0     O61031   7.954   2.592   2.512 -0.8856 -0.0450  0.0518
  463MOL0     C61032   8.277   2.721   2.428  0.6440 -0.3739 -0.1142
  463MOL0     C61033   8.408   2.732   2.472  0.5778 -0.1121 -0.1420
  463MOL0     N61034   9.005   3.048   2.597  0.1341  0.2321  0.4990
  463MOL0     N61035   9.029   3.016   2.478 -0.3986 -0.1661  0.3521
  463MOL0     C61036   9.014   3.683   1.673  1.0709 -0.4506  0.5527
  463MOL0     C61037   9.099   3.710   1.563  0.5997  0.7652 -0.1392
  463MOL0     C61038   9.535   3.713   1.392  0.2660 -1.0115 -0.1126
  463MOL0     C61039   9.544   3.844   1.352  0.0287 -0.7715  0.2834
  463MOL0     C61040   9.656   3.892   1.291 -0.4040  0.0659  0.1524
  463MOL0     C61041   9.769   3.809   1.271 -0.2636 -0.4356 -0.2481
  463MOL0     O61042   9.898   3.842   1.231 -0.4138  0.1688 -0.2833
  463MOL0     C61043   9.952   3.969   1.256  0.6117 -0.1491 -0.3185
  463MOL0     C61044  10.103   3.966   1.257  0.1407 -1.1277  0.4707
  463MOL0     C61045  10.171   4.097   1.205 -0.8097  0.8528 -0.3930
  463MOL0     C61046  10.329   4.093   1.189  0.0936 -0.2429  0.3891
  463MOL0     C61047  10.387   4.223   1.207 -0.3106 -0.3218 -0.0143
  463MOL0     C61048  10.449   4.326   1.201 -0.0002  0.2119 -0.6388
  463MOL0     C61049   9.754   3.675   1.304 -0.3634 -0.9937  0.1551
  463MOL0     C61050   9.631   3.620   1.355 -0.3826  0.6233  0.1324
  463MOL0     H61051   9.383   3.722   1.740 -1.0520  3.8706  1.2187
  463MOL0     H61052   9.229   3.681   1.931 -0.5594  0.9344 -0.1900
  463MOL0     H61053   8.843   3.512   1.810 -2.3716 -0.2450 -0.3807
  463MOL0     H61054   8.779   3.670   1.848  0.8938 -0.1927 -2.5289
  463MOL0     H61055   8.658   3.552   1.997 -0.3310 -0.5723  1.0959
  463MOL0     H61056   8.798   3.593   2.093  1.4953 -0.3155 -0.6151
  463MOL0     H61057   8.897   3.357   2.043  0.6031 -0.7523 -3.6358
  463MOL0     H61058   8.780   3.336   1.924  2.5233 -1.6319 -0.1280
  463MOL0     H61059   8.732   3.367   2.234  0.5210 -3.4383  1.4181
  463MOL0     H61060   8.599   3.366   2.112  0.3088  0.6782  0.0114
  463MOL0     H61061   8.667   3.133   2.067  1.4561 -0.7139 -0.7629
  463MOL0     H61062   8.612   3.165   2.223 -1.4849  0.7199 -1.2577
  463MOL0     H61063   8.836   3.141   2.316  0.1301 -2.9385  2.1021
  463MOL0     H61064   8.914   3.109   2.158 -0.0902 -2.7718 -1.1585
  463MOL0     H61065   8.691   2.956   2.266 -0.8287 -1.8616 -1.5819
  463MOL0     H61066   8.775   2.926   2.113 -0.9845 -0.2915  0.2280
  463MOL0     H61067   8.997   2.893   2.241  0.6794  3.2058  2.0216
  463MOL0     H61068   8.871   2.780   2.308 -0.2251  0.6753  0.9972
  463MOL0     H61069   8.768   2.829   2.532 -0.3859 -0.2454 -2.1956
  463MOL0     H61070   8.834   3.094   2.805 -0.2148  0.4423 -0.4077
  463MOL0     H61071   8.921   2.947   2.847  1.0482  2.5787 -0.3608
  463MOL0     H61072   8.644   2.937   2.716  1.1069  0.4242 -0.5389
  463MOL0     H61073   8.668   2.945   2.892  0.0012 -1.9438  1.2939
  463MOL0     H61074   8.815   2.739   2.736 -1.4037 -0.3484 -1.9495
  463MOL0     H61075   8.767   2.737   2.910  0.1546  2.8463  0.5547
  463MOL0     H61076   8.526   2.735   2.824 -1.2872  0.6722 -2.0432
  463MOL0     H61077   8.620   2.584   2.815  1.8823 -0.0747 -0.6883
  463MOL0     H61078   8.388   2.539   2.745 -1.0302  2.0363  3.0346
  463MOL0     H61079   8.164   2.507   2.657  1.3771 -1.6282  0.3140
  463MOL0     H61080   7.784   2.707   2.396  1.9446 -0.2560  0.3612
  463MOL0     H61081   7.576   2.676   2.246 -0.6616 -0.3103 -1.3187
  463MOL0     H61082   7.594   2.393   1.982 -1.6222  0.0804 -0.3744
  463MOL0     H61083   7.627   2.489   1.835  1.0719 -4.1225  0.3569
  463MOL0     H61084   7.434   2.371   1.792 -0.2197 -3.6191  3.7858
  463MOL0     H61085   7.386   2.541   1.823 -1.3073 -0.3669  1.0306
  463MOL0     H61086   7.329   2.452   2.062 -0.3200 -1.6062  0.5132
  463MOL0     H61087   7.333   2.290   2.001 -2.0150 -0.8217 -0.0351
  463MOL0     H61088   7.169   2.526   1.897 -1.3942  1.2401  2.2234
  463MOL0     H61089   7.198   2.377   1.808  0.2937  0.7858  0.3182
  463MOL0     H61090   7.004   2.430   2.038  1.5968  1.8132 -0.6782
  463MOL0     H61091   7.112   2.291   2.059  1.0306  0.6034 -0.7047
  463MOL0     H61092   7.038   2.224   1.821  1.8202 -0.1553  0.4234
  463MOL0     H61093   6.908   2.342   1.823  0.6386  0.3387 -1.0309
  463MOL0     H61094   6.948   2.097   2.001  0.1893 -1.0681  0.1424
  463MOL0     H61095   6.817   2.209   2.044  0.4834  1.6330 -1.0175
  463MOL0     H61096   6.741   2.028   1.926  0.1094  1.1244 -0.5583
  463MOL0     H61097   6.841   2.064   1.787  0.1490  0.5458 -0.4981
  463MOL0     H61098   7.812   2.525   1.929  2.3568 -0.9312  0.8128
  463MOL0     H61099   8.012   2.548   2.079 -0.8817 -2.0935 -0.8942
  463MOL0     H61100   8.245   2.766   2.334  0.0855 -0.3246  0.0982
  463MOL0     H61101   8.482   2.781   2.410  1.7729  0.0251  1.3521
  463MOL0     H61102   8.910   3.667   1.644  1.5834  1.3003 -2.7435
  463MOL0     H61103   9.055   3.724   1.465  1.7925 -1.1277 -0.9924
  463MOL0     H61104   9.455   3.905   1.356  0.9698  0.6383  0.4160
  463MOL0     H61105   9.647   3.996   1.262 -2.3942 -0.0176  0.3428
  463MOL0     H61106   9.914   4.015   1.348  0.8964 -1.9625  0.7461
  463MOL0     H61107   9.931   4.033   1.170  1.2713 -1.0453 -1.1663
  463MOL0     H61108  10.144   3.946   1.357  2.0097  2.2049  0.4931
  463MOL0     H61109  10.133   3.887   1.187 -1.1339 -0.8882 -0.3676
  463MOL0     H61110  10.134   4.181   1.264 -0.9067  2.3518 -2.5049
  463MOL0     H61111  10.129   4.110   1.105 -2.0041 -1.6317 -0.2806
  463MOL0     H61112  10.381   4.028   1.260  1.9881  3.6717  2.8911
  463MOL0     H61113  10.355   4.051   1.091  0.5773 -3.6221  1.8308
  463MOL0     H61114  10.503   4.417   1.192  2.3091 -1.1139 -0.9234
  463MOL0     H61115   9.837   3.606   1.296  0.9155  0.6110 -1.1882
  463MOL0     H61116   9.621   3.513   1.373  1.1836  0.3706 -0.3003
  464MOL0     O61117   8.192   4.966   4.558  0.2356 -0.7955 -0.1807
  464MOL0     C61118   8.239   4.918   4.657 -0.6286  0.0319 -0.4217
  464MOL0     O61119   8.224   4.788   4.685  0.1224 -0.0487  0.1362
  464MOL0     C61120   8.119   4.725   4.626 -0.5464  0.4279 -0.1801
  464MOL0     C61121   8.128   4.652   4.505 -0.4503  0.8110 -0.9190
  464MOL0     C61122   8.027   4.574   4.451  0.5686 -0.3900  0.0953
  464MOL0     C61123   7.897   4.578   4.505  0.5768 -0.6890  1.4911
  464MOL0     O61124   7.796   4.500   4.443  0.1269  0.1350  0.8692
  464MOL0     C61125   7.701   4.440   4.524 -0.0286 -0.4623  0.3551
  464MOL0     C61126   7.632   4.325   4.449  0.4759 -0.3636  1.0682
  464MOL0     C61127   7.526   4.255   4.529  1.0666 -0.0527 -0.7295
  464MOL0     C61128   7.462   4.151   4.443 -0.0392 -0.9737  1.0701
  464MOL0     C61129   7.321   4.114   4.488  0.7902 -0.4320  0.4755
  464MOL0     C61130   7.273   3.992   4.399 -0.4481 -0.1233 -0.3343
  464MOL0     C61131   7.123   3.985   4.415  0.6855 -0.4849 -0.0879
  464MOL0     C61132   7.068   3.883   4.313 -0.0369 -0.5283  0.4087
  464MOL0     N61133   6.924   3.870   4.325 -0.1977  0.4952 -0.2729
  464MOL0     C61134   6.838   3.896   4.217 -0.2656 -0.7973  0.6145
  464MOL0     C61135   6.714   3.861   4.271 -0.6056 -0.7128 -0.4766
  464MOL0     C61136   6.583   3.876   4.207 -0.3153  0.3777 -0.4782
  464MOL0     C61137   6.516   3.737   4.187 -0.1553 -0.3576 -0.0888
  464MOL0     C61138   6.389   3.748   4.092 -0.5287  1.1949  0.5072
  464MOL0     C61139   6.421   3.751   3.946 -0.3747 -0.1964  1.0621
  464MOL0     O61140   6.319   3.815   3.867  0.3471  0.5303 -0.7629
  464MOL0     C61141   6.207   3.746   3.855 -0.4509  0.8099  0.2123
  464MOL0     C61142   6.081   3.793   3.897 -0.1375  0.3065  0.1386
  464MOL0     C61143   5.960   3.727   3.878  0.5907 -0.7068 -0.5801
  464MOL0     C61144   5.956   3.620   3.790  0.0598  0.5665  0.1766
  464MOL0     C61145   5.828   3.560   3.756  0.5453 -0.1518  0.9889
  464MOL0     O61146   5.812   3.438   3.703  0.0539  0.3829  0.0608
  464MOL0     C61147   5.690   3.393   3.659 -0.3485 -0.3935 -1.0043
  464MOL0     C61148   5.653   3.263   3.695 -0.1533  0.1891 -0.5113
  464MOL0     C61149   5.532   3.203   3.666  0.2857  0.3134  1.0337
  464MOL0     C61150   5.453   3.269   3.561 -0.2016 -0.8259  0.0943
  464MOL0     O61151   5.335   3.227   3.506 -0.2453 -0.1271  0.1346
  464MOL0     C61152   5.251   3.131   3.569  0.7160 -0.0954 -0.1520
  464MOL0     C61153   5.153   3.088   3.469 -0.0585  0.6416 -0.3160
  464MOL0     C61154   5.062   2.977   3.512  0.2984 -0.3413  0.0636
  464MOL0     C61155   4.983   3.016   3.639  0.4724 -0.0996 -0.3487
  464MOL0     C61156   4.870   2.923   3.668  0.3320  0.3046 -0.3212
  464MOL0     C61157   4.911   2.786   3.731 -0.5580 -0.5568  0.5343
  464MOL0     C61158   4.794   2.687   3.735  0.3410  0.1536 -0.3765
  464MOL0     C61159   4.829   2.583   3.843 -0.3054  0.5074  0.0564
  464MOL0    Cl61160   4.713   2.438   3.848 -0.4784 -0.3336 -0.1617
  464MOL0     C61161   5.501   3.395   3.518  0.4552 -0.1894  0.5390
  464MOL0     C61162   5.611   3.459   3.570 -0.1848  0.1217 -0.4535
  464MOL0     O61163   5.741   3.643   3.765 -1.0615 -0.2096  0.0380
  464MOL0     C61164   6.074   3.571   3.737  0.5032  0.1420  0.3053
  464MOL0     C61165   6.197   3.633   3.772 -1.0370 -0.1516  0.4924
  464MOL0     N61166   6.733   3.824   4.406  0.4097  0.4465  0.4739
  464MOL0     N61167   6.858   3.814   4.433 -0.0581  0.2161 -0.7422
  464MOL0     C61168   7.878   4.653   4.622 -0.5104 -0.7347 -0.4456
  464MOL0     C61169   7.987   4.727   4.680  0.1074  0.7893  0.0043
  464MOL0     C61170   8.340   4.996   4.741  0.3938 -0.7973  0.1617
  464MOL0     C61171   8.426   4.938   4.833 -0.4356  0.1391 -0.7671
  464MOL0     C61172   8.542   5.005   4.872 -0.9304 -0.5403 -0.3987
  464MOL0     C61173   8.552   5.146   4.849  0.4335 -0.1520  0.0993
  464MOL0     O61174   8.657   5.227   4.900  1.2181  0.4416 -0.1840
  464MOL0     C61175   8.638   5.261   5.035 -0.0064 -1.1185 -0.0029
  464MOL0     C61176   8.757   5.351   5.087  0.3887  0.1388 -0.2847
  464MOL0     C61177   8.718   5.499   5.056 -1.0717  0.1587 -0.6086
  464MOL0     C61178   8.817   5.609   5.111  0.7167  0.7773 -0.8396
  464MOL0     C61179   8.841   5.572   5.252  0.4719 -0.5224 -0.5982
  464MOL0     C61180   8.877   5.553   5.362  0.5831 -0.8102 -0.5613
  464MOL0     C61181   8.463   5.203   4.756 -1.0944  0.6993  0.1273
  464MOL0     C61182   8.348   5.133   4.717  1.1799  0.8661  0.1888
  464MOL0     H61183   8.221   4.630   4.453  0.7905 -1.0947  1.8585
  464MOL0     H61184   8.040   4.510   4.365 -0.0408  2.6913 -2.4871
  464MOL0     H61185   7.633   4.510   4.574  0.2775 -1.1412  1.7878
  464MOL0     H61186   7.751   4.385   4.605 -1.5199 -1.0214  0.9416
  464MOL0     H61187   7.700   4.247   4.414 -0.6869  0.0829 -2.6157
  464MOL0     H61188   7.594   4.371   4.357  2.0388 -1.7202 -0.3287
  464MOL0     H61189   7.462   4.334   4.567  1.0544  0.5935 -2.0711
  464MOL0     H61190   7.585   4.209   4.610  2.9637  1.5532 -1.1084
  464MOL0     H61191   7.450   4.191   4.342  0.4211 -1.1551  0.9429
  464MOL0     H61192   7.520   4.060   4.423 -0.1953 -0.6806 -0.8496
  464MOL0     H61193   7.253   4.199   4.477 -1.1202 -2.0878 -1.5722
  464MOL0     H61194   7.310   4.087   4.593  1.4303 -1.6408  0.2432
  464MOL0     H61195   7.322   3.902   4.434  0.3915  0.6351  0.4879
  464MOL0     H61196   7.302   4.015   4.296 -2.1808  0.9135 -0.6410
  464MOL0     H61197   7.106   3.945   4.515  0.3175 -1.1036 -0.3904
  464MOL0     H61198   7.069   4.078   4.394  0.6591 -0.6833 -0.9395
  464MOL0     H61199   7.123   3.789   4.322 -0.3138 -0.5639  1.9580
  464MOL0     H61200   7.105   3.908   4.213  1.3029 -0.8628  0.7997
  464MOL0     H61201   6.857   3.930   4.116 -3.6543  1.4809  0.5819
  464MOL0     H61202   6.587   3.936   4.116  2.2991  0.1599 -0.5838
  464MOL0     H61203   6.517   3.932   4.274  1.3621  4.0982 -1.6672
  464MOL0     H61204   6.485   3.706   4.287  1.5021  0.6631  0.7860
  464MOL0     H61205   6.588   3.665   4.147 -0.1999 -0.2745 -0.3222
  464MOL0     H61206   6.325   3.660   4.106  2.6135 -1.7468 -2.0471
  464MOL0     H61207   6.327   3.832   4.126 -2.6580  0.5513 -1.5366
  464MOL0     H61208   6.448   3.648   3.920  0.3454 -0.1001  1.4077
  464MOL0     H61209   6.510   3.814   3.938 -1.0285  0.7772  1.3030
  464MOL0     H61210   6.076   3.889   3.947 -1.1626 -0.3242  1.3021
  464MOL0     H61211   5.870   3.763   3.927  2.5893  0.3539  2.6838
  464MOL0     H61212   5.720   3.218   3.767  0.7394  1.6278 -0.4112
  464MOL0     H61213   5.514   3.108   3.715  1.9925 -0.7899 -0.3752
  464MOL0     H61214   5.200   3.172   3.657 -1.9194 -1.5805 -0.8709
  464MOL0     H61215   5.311   3.044   3.597 -1.9005 -2.6632 -1.9118
  464MOL0     H61216   5.218   3.058   3.386 -0.5436  1.7513 -1.1267
  464MOL0     H61217   5.096   3.176   3.437  2.7009  2.6503 -0.0103
  464MOL0     H61218   5.127   2.891   3.526  4.1987  1.9918 -1.8057
  464MOL0     H61219   4.991   2.943   3.436  1.2710 -1.2241 -0.4699
  464MOL0     H61220   5.048   3.022   3.727  3.5643 -2.7220 -2.2286
  464MOL0     H61221   4.933   3.109   3.613 -1.2695 -1.1418 -0.8473
  464MOL0     H61222   4.808   2.924   3.578 -1.6574  0.1796  1.0019
  464MOL0     H61223   4.796   2.964   3.737 -0.9865 -1.0153 -0.9072
  464MOL0     H61224   4.945   2.799   3.834  0.1410 -1.3759  0.4165
  464MOL0     H61225   4.996   2.749   3.673  1.3483 -0.7968  3.2852
  464MOL0     H61226   4.692   2.716   3.762 -0.5320 -2.5593 -0.4549
  464MOL0     H61227   4.786   2.638   3.637  0.2623 -0.0834 -0.2531
  464MOL0     H61228   4.839   2.629   3.942 -1.7064 -1.1362  1.0176
  464MOL0     H61229   4.929   2.550   3.815  0.2603  2.0798  0.1140
  464MOL0     H61230   5.447   3.460   3.451  0.3992  1.6942  2.3231
  464MOL0     H61231   5.657   3.553   3.539  3.0141 -1.8723 -2.3091
  464MOL0     H61232   6.066   3.489   3.667 -0.6743 -0.4851  1.1503
  464MOL0     H61233   6.292   3.607   3.726 -0.2639  2.1863  0.6613
  464MOL0     H61234   7.783   4.650   4.674  0.2578 -0.2914  1.0403
  464MOL0     H61235   7.974   4.775   4.776  1.9138 -0.4525  0.9404
  464MOL0     H61236   8.409   4.832   4.851 -3.0415  0.1400 -2.6634
  464MOL0     H61237   8.616   4.954   4.934 -0.0435  3.1159  1.8570
  464MOL0     H61238   8.643   5.165   5.088  0.9573 -2.4240 -2.2687
  464MOL0     H61239   8.545   5.315   5.052  0.6981  0.0347  0.2377
  464MOL0     H61240   8.769   5.332   5.194 -0.7136  0.8551 -0.0125
  464MOL0     H61241   8.854   5.317   5.050  1.1339  1.1123  0.7193
  464MOL0     H61242   8.613   5.518   5.076 -1.0159  1.4628 -1.4934
  464MOL0     H61243   8.726   5.519   4.949 -1.5201  3.1819 -0.1500
  464MOL0     H61244   8.913   5.596   5.060  1.6252  1.2181  0.6965
  464MOL0     H61245   8.780   5.711   5.116 -0.1054  0.4296  1.0015
  464MOL0     H61246   8.920   5.550   5.460 -3.5687  0.0339  1.5110
  464MOL0     H61247   8.464   5.304   4.717 -3.5610  0.4532 -0.7286
  464MOL0     H61248   8.289   5.190   4.646  2.1192  2.2041  0.4610
  465MOL0     O61249   4.635   0.948   9.140 -1.0601 -0.3845 -0.5326
  465MOL0     C61250   4.517   0.921   9.123  0.5205  0.3284  0.0042
  465MOL0     O61251   4.461   0.793   9.112 -0.2852 -0.4478 -0.1101
  465MOL0     C61252   4.538   0.684   9.141 -0.7757  0.2493 -0.1710
  465MOL0     C61253   4.673   0.670   9.099  0.2539  0.4461 -0.2075
  465MOL0     C61254   4.756   0.562   9.134  0.0266 -0.4995 -0.6140
  465MOL0     C61255   4.702   0.464   9.218  0.2152 -0.5681 -0.2279
  465MOL0     O61256   4.791   0.362   9.241 -0.6705 -0.2259  1.2721
  465MOL0     C61257   4.789   0.286   9.363 -0.8774 -0.5978 -0.1700
  465MOL0     C61258   4.787   0.135   9.315  0.3537 -0.0049 -0.2270
  465MOL0     C61259   4.649   0.092   9.268  0.4611 -0.9720  0.0830
  465MOL0     C61260   4.558   0.065   9.395  0.9394  0.2687  1.8252
  465MOL0     C61261   4.412   0.029   9.357 -0.1977 -0.1996 -0.1717
  465MOL0     C61262   4.390  -0.109   9.296 -0.3525 -0.8374  0.1942
  465MOL0     C61263   4.240  -0.149   9.311  0.0055 -0.5743 -0.5044
  465MOL0     C61264   4.168  -0.083   9.197  0.1684 -0.1627 -0.5513
  465MOL0     N61265   4.028  -0.135   9.190 -0.3456 -0.4587 -0.5869
  465MOL0     C61266   3.956  -0.182   9.085  0.3160 -0.4932  0.0395
  465MOL0     C61267   3.825  -0.188   9.127 -0.7285 -0.9599  0.2916
  465MOL0     C61268   3.718  -0.228   9.035  0.5882 -0.7520 -0.3428
  465MOL0     C61269   3.683  -0.122   8.924  0.0885 -0.4370  0.1340
  465MOL0     C61270   3.640   0.012   8.981  0.0655  0.3681 -0.1690
  465MOL0     C61271   3.624   0.111   8.873  0.0071 -0.7085  0.2270
  465MOL0     O61272   3.508   0.107   8.800 -0.1082  0.2088  0.4123
  465MOL0     C61273   3.382   0.130   8.860 -0.5665 -0.2593  0.3449
  465MOL0     C61274   3.271   0.083   8.790  0.4459  0.4987 -0.0067
  465MOL0     C61275   3.141   0.083   8.843 -1.2504  0.3367 -0.4587
  465MOL0     C61276   3.123   0.150   8.960 -0.8086  0.4198  0.4233
  465MOL0     C61277   2.999   0.148   9.034  0.0092 -0.0160 -0.1717
  465MOL0     O61278   2.893   0.117   8.962  0.6174 -0.4138 -0.0764
  465MOL0     C61279   2.776   0.093   9.030  0.1313  0.5136 -0.1629
  465MOL0     C61280   2.726  -0.040   9.019  0.4924 -0.2839  0.1031
  465MOL0     C61281   2.591  -0.056   9.054  0.2809  0.7499  0.7505
  465MOL0     C61282   2.512   0.049   9.111 -1.2666  0.1318  0.5759
  465MOL0     O61283   2.383   0.015   9.132  0.2420 -0.1799  0.9159
  465MOL0     C61284   2.285   0.118   9.169 -1.0259 -0.6915  0.0111
  465MOL0     C61285   2.172   0.031   9.223  0.0770 -0.7064 -0.2237
  465MOL0     C61286   2.054   0.100   9.281  0.3427  0.0932 -0.4228
  465MOL0     C61287   1.966  -0.004   9.354  0.7564 -0.3834  0.5070
  465MOL0     C61288   1.851   0.074   9.427  0.4822  0.5987 -0.0361
  465MOL0     C61289   1.713   0.090   9.349  0.0260 -0.2192 -0.6057
  465MOL0     C61290   1.702   0.216   9.276  0.4988  0.0971 -0.1492
  465MOL0     C61291   1.559   0.223   9.208 -0.2389 -0.6584 -0.7821
  465MOL0    Cl61292   1.533   0.083   9.094 -0.0010 -0.0011  0.2646
  465MOL0     C61293   2.578   0.173   9.137 -0.6880  0.0200  0.1073
  465MOL0     C61294   2.705   0.196   9.094  0.9749  0.0346 -0.2925
  465MOL0     O61295   3.009   0.151   9.154 -0.5911 -0.2343 -0.2018
  465MOL0     C61296   3.231   0.202   9.035  0.7330 -0.3971  1.0898
  465MOL0     C61297   3.358   0.194   8.983  0.4978  0.5517  0.4853
  465MOL0     N61298   3.822  -0.146   9.257  0.4469 -0.2859 -0.3111
  465MOL0     N61299   3.937  -0.113   9.292 -0.3786 -0.3905 -0.1864
  465MOL0     C61300   4.564   0.474   9.265  0.0009  0.1499 -0.4106
  465MOL0     C61301   4.488   0.588   9.231 -0.1299  0.2777  0.1553
  465MOL0     C61302   4.422   1.035   9.122  1.0095  0.7742  0.2360
  465MOL0     C61303   4.285   1.014   9.141  0.3365  0.9729 -0.0133
  465MOL0     C61304   4.198   1.125   9.148 -0.5919  0.3075  0.6866
  465MOL0     C61305   4.249   1.256   9.116 -0.2461  0.3934 -0.2451
  465MOL0     O61306   4.151   1.352   9.115  0.9355 -0.7842 -0.1829
  465MOL0     C61307   4.187   1.491   9.134 -0.7715  0.2438  0.3688
  465MOL0     C61308   4.219   1.560   9.004 -0.5941  0.2182  0.6903
  465MOL0     C61309   4.309   1.683   9.038 -0.1086 -0.2668 -0.3446
  465MOL0     C61310   4.424   1.709   8.943  0.6209 -0.4278 -0.0701
  465MOL0     C61311   4.538   1.620   8.961  0.3134  0.7701  0.6714
  465MOL0     C61312   4.620   1.534   8.982  0.1403 -0.1257 -0.0577
  465MOL0     C61313   4.384   1.267   9.093 -0.6299 -0.2637 -0.6336
  465MOL0     C61314   4.470   1.160   9.095 -0.7217 -0.4450 -0.2529
  465MOL0     H61315   4.712   0.746   9.032 -0.8211  0.4261 -0.8911
  465MOL0     H61316   4.862   0.555   9.111  0.1787 -2.1149  0.4006
  465MOL0     H61317   4.706   0.316   9.428 -0.8285  2.1935 -1.2749
  465MOL0     H61318   4.886   0.307   9.407 -0.0504 -1.8831 -1.3053
  465MOL0     H61319   4.824   0.069   9.394  1.3575  0.1675 -0.5319
  465MOL0     H61320   4.859   0.136   9.232 -1.4454 -0.7834 -1.8857
  465MOL0     H61321   4.650  -0.003   9.214  0.4756 -1.1166  0.3348
  465MOL0     H61322   4.602   0.174   9.213 -0.0890 -0.8211  0.7597
  465MOL0     H61323   4.608  -0.017   9.447  0.2464 -3.3311 -2.5028
  465MOL0     H61324   4.554   0.161   9.448 -2.1019  0.6912  1.0204
  465MOL0     H61325   4.371   0.107   9.292 -1.0031 -0.9845 -0.6457
  465MOL0     H61326   4.363   0.024   9.454  1.7835  0.3070  0.9016
  465MOL0     H61327   4.434  -0.190   9.355 -1.4794 -1.5319  0.1056
  465MOL0     H61328   4.427  -0.114   9.193  0.0037  3.4653 -0.0650
  465MOL0     H61329   4.228  -0.257   9.300  1.1522 -0.6167 -1.5058
  465MOL0     H61330   4.197  -0.116   9.406  1.7288  1.7128 -0.4440
  465MOL0     H61331   4.221  -0.094   9.101  0.9748  1.0747 -0.2720
  465MOL0     H61332   4.170   0.025   9.212  0.2533  0.0694 -2.0295
  465MOL0     H61333   3.992  -0.187   8.983 -0.5949 -1.7312 -0.2331
  465MOL0     H61334   3.630  -0.251   9.095  1.1928  2.1771  1.9160
  465MOL0     H61335   3.746  -0.324   8.989  2.6934 -1.6421  2.4932
  465MOL0     H61336   3.598  -0.162   8.867  0.7354  0.3825 -1.4618
  465MOL0     H61337   3.767  -0.110   8.856  0.5935 -1.1910  0.6083
  465MOL0     H61338   3.544   0.004   9.032 -1.0548 -2.9362 -2.4069
  465MOL0     H61339   3.724   0.043   9.044 -0.4861  1.9990 -0.2107
  465MOL0     H61340   3.718   0.103   8.818 -0.2791 -0.0244 -0.3776
  465MOL0     H61341   3.638   0.212   8.912 -0.6031 -1.2774  2.0379
  465MOL0     H61342   3.305   0.041   8.696 -0.2177 -0.0855  0.0095
  465MOL0     H61343   3.067   0.028   8.787 -3.1593  3.2620 -1.0265
  465MOL0     H61344   2.775  -0.130   8.984 -0.5685 -2.0865  2.8753
  465MOL0     H61345   2.542  -0.152   9.049 -3.5945  2.3754  2.7591
  465MOL0     H61346   2.251   0.189   9.093  0.0371  1.9131  1.8315
  465MOL0     H61347   2.335   0.173   9.249 -0.1193 -1.8421  0.2650
  465MOL0     H61348   2.208  -0.049   9.289  1.2220  1.7920  2.3939
  465MOL0     H61349   2.132  -0.014   9.132 -2.2539 -0.2155  0.5046
  465MOL0     H61350   1.997   0.149   9.202 -2.0555 -0.1334  1.0796
  465MOL0     H61351   2.090   0.175   9.353 -0.4773  2.1268 -2.0122
  465MOL0     H61352   1.930  -0.086   9.292  1.2384 -0.5094  0.3920
  465MOL0     H61353   2.024  -0.052   9.433 -3.1875 -2.1289  2.6402
  465MOL0     H61354   1.879   0.174   9.462 -0.5413  0.8174  0.2104
  465MOL0     H61355   1.828   0.010   9.513  0.6577 -0.6243 -0.8745
  465MOL0     H61356   1.635   0.081   9.425  0.3669  1.0033 -0.0784
  465MOL0     H61357   1.699   0.011   9.275  0.4007 -0.6042 -0.2664
  465MOL0     H61358   1.730   0.288   9.353 -1.0594  0.7545 -0.1757
  465MOL0     H61359   1.766   0.232   9.188  1.6773 -0.1920  0.6342
  465MOL0     H61360   1.562   0.309   9.141 -2.0691  0.4402  0.4674
  465MOL0     H61361   1.483   0.222   9.286  0.2618 -0.6968 -0.2890
  465MOL0     H61362   2.520   0.256   9.177  0.4363  0.1036  1.6136
  465MOL0     H61363   2.741   0.298   9.087 -0.3939  0.4739 -1.1989
  465MOL0     H61364   3.222   0.250   9.132  1.6294  0.1205  0.9307
  465MOL0     H61365   3.445   0.223   9.040  0.8370  0.2173  0.1465
  465MOL0     H61366   4.519   0.398   9.329 -0.6507 -0.4731 -1.5741
  465MOL0     H61367   4.384   0.598   9.260 -0.9150  0.8680 -2.5396
  465MOL0     H61368   4.237   0.919   9.159 -1.1707  1.5775 -0.6629
  465MOL0     H61369   4.092   1.107   9.164  0.0683 -2.7788  2.4623
  465MOL0     H61370   4.281   1.495   9.191 -1.4438  4.7436  1.5176
  465MOL0     H61371   4.107   1.548   9.182 -1.7355  0.5476 -1.5109
  465MOL0     H61372   4.280   1.500   8.936 -0.6132  1.7704 -0.7729
  465MOL0     H61373   4.127   1.586   8.950  1.4605  1.6328 -2.4334
  465MOL0     H61374   4.355   1.687   9.137  1.1625  0.7827 -0.9519
  465MOL0     H61375   4.239   1.767   9.029  1.5929  1.1440 -0.9168
  465MOL0     H61376   4.378   1.701   8.844 -1.5832 -2.5155  1.0189
  465MOL0     H61377   4.461   1.810   8.967 -0.5837 -0.3673  1.7241
  465MOL0     H61378   4.679   1.448   9.004  0.2739 -0.2529 -0.8870
  465MOL0     H61379   4.442   1.355   9.066  0.9779 -0.1077  2.8453
  465MOL0     H61380   4.575   1.179   9.075 -0.8457 -1.2714 -1.9060
  466MOL0     O61381   6.064   9.258   4.949 -0.3053  0.3042 -0.3931
  466MOL0     C61382   6.105   9.146   4.946 -0.8309  0.4273 -0.0871
  466MOL0     O61383   6.033   9.043   4.937 -0.5435  0.0583 -0.3451
  466MOL0     C61384   5.902   9.060   4.895  0.3487 -0.0094 -0.5811
  466MOL0     C61385   5.808   9.139   4.961  0.0652 -0.2592 -0.5016
  466MOL0     C61386   5.672   9.139   4.923  0.1944  0.8923 -0.5200
  466MOL0     C61387   5.625   9.062   4.813 -0.1329  0.2680 -0.3435
  466MOL0     O61388   5.492   9.071   4.789 -0.5295  0.7046  0.2779
  466MOL0     C61389   5.423   8.948   4.777 -0.3495  0.7417 -0.9160
  466MOL0     C61390   5.311   8.974   4.681 -0.2815  0.1038 -0.9108
  466MOL0     C61391   5.349   9.016   4.541  0.3756 -0.0491  0.6233
  466MOL0     C61392   5.245   9.115   4.483  0.5662 -0.4428  0.1809
  466MOL0     C61393   5.112   9.052   4.479 -0.1422  0.8618  0.3053
  466MOL0     C61394   5.012   9.140   4.409  0.7607  0.9792 -0.5798
  466MOL0     C61395   4.870   9.063   4.400 -0.2233  0.3911 -0.5361
  466MOL0     C61396   4.760   9.158   4.340  0.3798 -0.1179 -0.0730
  466MOL0     N61397   4.645   9.093   4.282 -0.0168  0.5720  0.1409
  466MOL0     C61398   4.544   9.161   4.219  0.0753  0.7589  0.2523
  466MOL0     C61399   4.464   9.062   4.161 -0.0932 -0.9337 -0.8506
  466MOL0     C61400   4.351   9.105   4.069 -1.3027 -0.6092  0.1558
  466MOL0     C61401   4.217   9.146   4.127  0.9728  0.3389  0.1745
  466MOL0     C61402   4.107   9.189   4.031  0.4848  0.3480  0.4987
  466MOL0     C61403   4.042   9.067   3.958  0.5621  0.2093  0.1717
  466MOL0     O61404   3.964   8.969   4.033 -0.7669  0.4120  0.0440
  466MOL0     C61405   3.834   8.992   4.067 -0.1363  0.1810 -0.1908
  466MOL0     C61406   3.755   9.098   4.016 -0.4267 -0.2732 -0.7153
  466MOL0     C61407   3.628   9.113   4.053  1.2175 -0.3218 -0.3998
  466MOL0     C61408   3.571   9.033   4.146  0.3262  0.8339 -0.1106
  466MOL0     C61409   3.430   9.051   4.187  0.5311  0.6845 -0.2440
  466MOL0     O61410   3.357   9.130   4.107 -0.6196  0.4693 -0.2626
  466MOL0     C61411   3.217   9.141   4.115 -0.5321  0.5015 -0.2842
  466MOL0     C61412   3.152   9.199   4.000 -0.2114 -0.2465 -0.0321
  466MOL0     C61413   3.012   9.232   4.014  0.4367 -0.2487  0.7037
  466MOL0     C61414   2.931   9.202   4.116  0.3652  0.6063  0.7024
  466MOL0     O61415   2.799   9.224   4.130  0.2152  0.6656  0.1423
  466MOL0     C61416   2.746   9.347   4.068 -0.1019  0.6945  0.8991
  466MOL0     C61417   2.596   9.352   4.079 -0.7351  0.0949  0.0071
  466MOL0     C61418   2.538   9.357   4.222 -0.2617 -0.1080  0.0289
  466MOL0     C61419   2.389   9.372   4.236  1.0556 -0.0558 -0.0523
  466MOL0     C61420   2.323   9.335   4.365  0.2820 -0.2668  0.5967
  466MOL0     C61421   2.168   9.331   4.349 -0.4304  0.0986 -0.5845
  466MOL0     C61422   2.111   9.458   4.300  0.3195 -0.5773  0.4620
  466MOL0     C61423   1.959   9.477   4.328  0.3199 -0.7304 -0.0949
  466MOL0    Cl61424   1.911   9.470   4.496  0.0942 -0.1013 -0.2146
  466MOL0     C61425   2.993   9.132   4.220 -0.0393  0.0034  0.5397
  466MOL0     C61426   3.131   9.102   4.222 -0.5902 -0.0447  0.3106
  466MOL0     O61427   3.388   8.981   4.280 -0.7700  0.1325 -0.1610
  466MOL0     C61428   3.653   8.948   4.219 -0.9283  0.2524  0.0620
  466MOL0     C61429   3.783   8.920   4.176 -0.2578  0.8945  0.3511
  466MOL0     N61430   4.523   8.943   4.187  0.4584 -0.3692  0.2693
  466MOL0     N61431   4.627   8.958   4.265 -0.0275 -0.0115  0.4139
  466MOL0     C61432   5.721   8.992   4.737 -0.4791 -0.1279  0.4588
  466MOL0     C61433   5.854   8.994   4.782  0.3223  0.0880  0.4006
  466MOL0     C61434   6.252   9.139   4.961 -0.0277 -0.4444  0.0674
  466MOL0     C61435   6.319   9.028   5.020 -0.3322  0.3563 -0.3765
  466MOL0     C61436   6.464   9.019   5.036  0.1748  0.4873  0.0737
  466MOL0     C61437   6.544   9.123   4.988  0.2460 -0.0966  0.1490
  466MOL0     O61438   6.679   9.121   4.980  0.1580  0.1513  0.0921
  466MOL0     C61439   6.751   9.205   5.067 -0.2763 -0.2150  0.1671
  466MOL0     C61440   6.889   9.223   5.005 -0.1477 -0.1297 -0.9478
  466MOL0     C61441   6.968   9.331   5.083 -0.5198  0.4200  0.0482
  466MOL0     C61442   7.117   9.329   5.025 -0.5253  0.4455 -0.0192
  466MOL0     C61443   7.197   9.432   5.094  0.3208 -0.0830  0.9003
  466MOL0     C61444   7.262   9.514   5.162 -0.5778  1.2618 -0.1337
  466MOL0     C61445   6.481   9.237   4.929 -0.4094 -0.3595 -0.4467
  466MOL0     C61446   6.343   9.237   4.918 -0.1491  0.8896 -0.9431
  466MOL0     H61447   5.828   9.186   5.056  1.3020 -2.3710  0.3533
  466MOL0     H61448   5.599   9.201   4.975 -1.2222  0.1642 -1.5666
  466MOL0     H61449   5.384   8.927   4.877  0.5427  0.3801 -0.6383
  466MOL0     H61450   5.484   8.861   4.753  1.8178  1.8449  0.2699
  466MOL0     H61451   5.242   9.046   4.727  2.2959  2.3949 -0.3376
  466MOL0     H61452   5.253   8.882   4.679  0.7904 -0.5836 -1.1810
  466MOL0     H61453   5.366   8.930   4.475  2.6352  1.1612 -0.4985
  466MOL0     H61454   5.448   9.064   4.544  0.2720  0.3642 -1.1092
  466MOL0     H61455   5.238   9.200   4.552  2.2014 -0.6050  0.6042
  466MOL0     H61456   5.291   9.152   4.391 -0.3751 -0.9711 -0.5117
  466MOL0     H61457   5.076   9.031   4.580  1.3767  4.2115  1.7119
  466MOL0     H61458   5.121   8.963   4.416 -2.3224  0.8839 -0.1271
  466MOL0     H61459   5.053   9.156   4.309  0.5007 -5.5974 -2.2223
  466MOL0     H61460   4.998   9.238   4.455  0.4479  0.4103  0.5900
  466MOL0     H61461   4.874   8.971   4.342 -0.4864  0.6951 -1.0438
  466MOL0     H61462   4.831   9.026   4.495 -1.2075 -0.1449 -1.1337
  466MOL0     H61463   4.792   9.226   4.262 -1.7104  0.7986 -0.1846
  466MOL0     H61464   4.727   9.223   4.422  2.6892  0.1283  0.7232
  466MOL0     H61465   4.518   9.266   4.229 -0.6843  0.5008  1.0326
  466MOL0     H61466   4.343   9.019   4.002  0.2371 -0.8875  0.2981
  466MOL0     H61467   4.388   9.191   4.013 -1.5275  0.5781  1.7559
  466MOL0     H61468   4.233   9.226   4.200 -0.7020  2.7371 -1.9351
  466MOL0     H61469   4.182   9.057   4.180  0.1542 -0.4417 -1.5943
  466MOL0     H61470   4.035   9.251   4.086  0.6631 -0.0279  1.1663
  466MOL0     H61471   4.151   9.259   3.959 -1.6885  2.6006  1.2042
  466MOL0     H61472   4.120   9.006   3.911  0.8974  0.6290  0.1787
  466MOL0     H61473   3.979   9.107   3.877  2.5297 -0.7195 -1.9430
  466MOL0     H61474   3.790   9.167   3.941 -0.7978 -0.5211 -1.1256
  466MOL0     H61475   3.567   9.195   4.015  1.2258  0.5399  1.3308
  466MOL0     H61476   3.212   9.233   3.917  1.8663  0.7393  1.7603
  466MOL0     H61477   2.972   9.289   3.931  1.4347 -0.6418 -0.0598
  466MOL0     H61478   2.773   9.356   3.962  1.1951 -1.9948  0.9269
  466MOL0     H61479   2.792   9.433   4.118  0.3797  2.4838 -2.3062
  466MOL0     H61480   2.558   9.273   4.014  3.5931 -2.7442  0.5268
  466MOL0     H61481   2.573   9.440   4.018  1.4966  1.8607  1.5445
  466MOL0     H61482   2.588   9.435   4.281 -0.5526  0.8425 -0.9544
  466MOL0     H61483   2.566   9.265   4.274 -1.1588  0.0184  0.7762
  466MOL0     H61484   2.366   9.472   4.199 -0.8240 -0.7622 -0.9417
  466MOL0     H61485   2.352   9.308   4.155  1.2593  0.4329 -0.5404
  466MOL0     H61486   2.360   9.405   4.440  1.6784 -0.2271 -0.1123
  466MOL0     H61487   2.365   9.240   4.398 -1.4144 -0.5240  2.1961
  466MOL0     H61488   2.113   9.296   4.437 -0.1195 -0.3237 -0.5513
  466MOL0     H61489   2.160   9.255   4.270  1.1101 -0.3340 -0.3634
  466MOL0     H61490   2.167   9.542   4.343  1.0314 -0.4566 -0.6650
  466MOL0     H61491   2.122   9.464   4.191  0.5573 -1.8848  0.4060
  466MOL0     H61492   1.906   9.399   4.272 -2.1415  1.7967 -1.5489
  466MOL0     H61493   1.926   9.577   4.298  2.1432  0.3561  1.3552
  466MOL0     H61494   2.928   9.100   4.301 -0.7611  1.2660  0.4864
  466MOL0     H61495   3.169   9.064   4.316  2.7071  2.0151 -0.0200
  466MOL0     H61496   3.616   8.891   4.304  0.5358  0.7011  1.0500
  466MOL0     H61497   3.837   8.835   4.216  0.5824  1.6584  0.8658
  466MOL0     H61498   5.694   8.934   4.649  1.2286 -2.1140  1.1669
  466MOL0     H61499   5.921   8.929   4.726 -1.8063 -0.6503 -1.4408
  466MOL0     H61500   6.264   8.949   5.070  0.0155  0.5963  0.4000
  466MOL0     H61501   6.504   8.933   5.088  0.0278  0.1400 -0.3748
  466MOL0     H61502   6.767   9.157   5.164 -0.4998  0.2667  0.4503
  466MOL0     H61503   6.697   9.299   5.081  0.7110  0.2673  0.8807
  466MOL0     H61504   6.941   9.127   4.997  1.9876  0.7705  0.8960
  466MOL0     H61505   6.872   9.264   4.905  0.9897  0.1924 -1.0164
  466MOL0     H61506   6.957   9.323   5.191  2.1377  0.5236  0.4012
  466MOL0     H61507   6.936   9.432   5.055  0.6411  0.4232 -1.4029
  466MOL0     H61508   7.166   9.233   5.043 -0.9108  0.1606 -0.4863
  466MOL0     H61509   7.110   9.346   4.917 -2.3172  1.5274  0.2307
  466MOL0     H61510   7.326   9.580   5.216 -0.1423 -1.7901  3.4507
  466MOL0     H61511   6.546   9.315   4.890 -2.2470 -0.6816 -4.6456
  466MOL0     H61512   6.283   9.314   4.870 -0.5015  0.7577 -0.7150
  467MOL0     O61513   8.819   4.129   1.244  0.5150 -0.3799  0.1967
  467MOL0     C61514   8.803   4.233   1.180 -0.8940  1.0134 -0.1112
  467MOL0     O61515   8.704   4.259   1.096  0.1537 -0.1265  0.0018
  467MOL0     C61516   8.598   4.172   1.093  0.1470 -0.1463  0.2896
  467MOL0     C61517   8.480   4.207   1.161 -0.6954 -0.8134  0.5802
  467MOL0     C61518   8.369   4.124   1.168  0.2336 -0.0208 -0.0475
  467MOL0     C61519   8.372   3.997   1.101  0.0302  0.5814 -0.0281
  467MOL0     O61520   8.273   3.905   1.097 -0.0472 -0.4089  0.1960
  467MOL0     C61521   8.152   3.935   1.169 -0.0712 -1.5620 -0.2068
  467MOL0     C61522   8.049   3.830   1.147 -0.3137 -0.2468  0.3101
  467MOL0     C61523   7.920   3.867   1.226 -0.3814  1.1249 -0.0158
  467MOL0     C61524   7.795   3.774   1.194  0.2284  0.5416  0.5432
  467MOL0     C61525   7.688   3.797   1.301 -0.1944 -0.1449  0.2522
  467MOL0     C61526   7.551   3.745   1.260 -0.0376 -0.1305 -0.4064
  467MOL0     C61527   7.430   3.821   1.310 -0.0404  0.1588  0.5662
  467MOL0     C61528   7.297   3.785   1.239  0.1225  0.4404 -0.3059
  467MOL0     N61529   7.254   3.646   1.273 -0.0077 -0.2668 -1.4818
  467MOL0     C61530   7.206   3.614   1.399  0.4179  0.1884 -0.9449
  467MOL0     C61531   7.144   3.492   1.382 -0.0664  0.4302 -0.4716
  467MOL0     C61532   7.068   3.417   1.485  0.6471  0.0683 -0.4444
  467MOL0     C61533   6.918   3.444   1.487  1.1513 -0.1631 -0.9559
  467MOL0     C61534   6.888   3.598   1.500 -1.1933  0.0842 -0.5920
  467MOL0     C61535   6.749   3.623   1.543 -0.1951  0.0978  0.3136
  467MOL0     O61536   6.724   3.767   1.531  0.0521 -0.0593 -0.0696
  467MOL0     C61537   6.595   3.814   1.533  0.0138  0.1299 -0.1400
  467MOL0     C61538   6.588   3.946   1.571 -0.2207  0.2397 -0.1634
  467MOL0     C61539   6.470   4.014   1.563 -0.0217 -0.7608  0.0574
  467MOL0     C61540   6.350   3.948   1.523  0.9044  0.0402  0.0142
  467MOL0     C61541   6.214   4.015   1.528  0.0420  0.9503 -0.0416
  467MOL0     O61542   6.104   3.946   1.490 -0.2042  0.2359 -0.5154
  467MOL0     C61543   5.985   4.002   1.514 -0.2213 -0.3416 -0.4233
  467MOL0     C61544   5.924   3.978   1.637  0.1438 -0.2853 -0.0605
  467MOL0     C61545   5.804   4.034   1.678 -0.0720 -0.0435 -0.0860
  467MOL0     C61546   5.738   4.113   1.584 -0.5966  0.6752  0.2187
  467MOL0     O61547   5.624   4.174   1.598  0.5912 -0.0235 -0.0048
  467MOL0     C61548   5.529   4.110   1.684  0.5087 -0.3450 -0.8339
  467MOL0     C61549   5.395   4.169   1.630 -0.5383 -0.8727  0.2835
  467MOL0     C61550   5.276   4.090   1.692 -0.1320  0.2043  0.2810
  467MOL0     C61551   5.147   4.129   1.621 -0.0559  0.1155  0.7350
  467MOL0     C61552   5.020   4.054   1.678 -0.0874  0.4373 -1.2904
  467MOL0     C61553   4.983   4.078   1.832 -0.6614 -0.0186  0.5748
  467MOL0     C61554   4.900   3.968   1.893  0.1549  0.8061  0.0486
  467MOL0     C61555   4.756   3.960   1.832  0.2091  0.7776  0.4732
  467MOL0    Cl61556   4.659   4.092   1.913 -0.0030  0.6596 -0.2782
  467MOL0     C61557   5.793   4.135   1.462 -0.2574  0.0252  0.1188
  467MOL0     C61558   5.915   4.086   1.428  0.1418 -0.1101  0.3399
  467MOL0     O61559   6.216   4.132   1.560 -0.4124 -0.7219 -0.2324
  467MOL0     C61560   6.363   3.814   1.484  0.4541  0.0250  0.6593
  467MOL0     C61561   6.476   3.750   1.489  0.7253  0.3111 -0.0773
  467MOL0     N61562   7.149   3.464   1.251  0.0484 -0.0770 -0.7447
  467MOL0     N61563   7.193   3.559   1.191 -0.0016 -0.6613  0.6949
  467MOL0     C61564   8.492   3.954   1.032 -0.5761  0.5203 -0.4089
  467MOL0     C61565   8.606   4.040   1.032  0.0327 -1.3261 -0.5453
  467MOL0     C61566   8.919   4.323   1.171 -0.0326  0.7073 -0.0443
  467MOL0     C61567   8.911   4.465   1.174  0.0742  0.6176  0.3081
  467MOL0     C61568   9.020   4.551   1.147  1.0868  0.6028  0.0041
  467MOL0     C61569   9.149   4.490   1.128  0.8372  0.3235 -0.2485
  467MOL0     O61570   9.258   4.574   1.116  0.6048  0.8753 -0.0082
  467MOL0     C61571   9.387   4.521   1.074  0.0607  0.1282  0.2756
  467MOL0     C61572   9.477   4.641   1.071  0.1453  0.2229 -0.1873
  467MOL0     C61573   9.605   4.611   0.993  0.2542 -0.2714 -0.0148
  467MOL0     C61574   9.700   4.511   1.061  0.1031 -0.3290 -0.8152
  467MOL0     C61575   9.804   4.467   0.967  0.8736 -0.2734 -0.7178
  467MOL0     C61576   9.882   4.434   0.882  0.2321 -0.3175  0.0355
  467MOL0     C61577   9.159   4.347   1.127  0.6162 -0.7661 -0.3287
  467MOL0     C61578   9.044   4.273   1.146  0.1413  0.1180 -0.0998
  467MOL0     H61579   8.484   4.302   1.213 -2.1360 -1.4999  2.0373
  467MOL0     H61580   8.284   4.167   1.220  0.4105  1.8676 -1.2476
  467MOL0     H61581   8.106   4.030   1.143  1.5212 -1.4341 -2.8388
  467MOL0     H61582   8.186   3.930   1.274 -0.6445 -0.8989  0.0166
  467MOL0     H61583   8.077   3.728   1.178 -0.4447  0.2460  2.1698
  467MOL0     H61584   8.024   3.814   1.042  1.9775 -1.4204 -0.1149
  467MOL0     H61585   7.886   3.969   1.206 -0.1754  1.5168  1.4679
  467MOL0     H61586   7.950   3.857   1.331 -0.4834 -0.9805 -0.1515
  467MOL0     H61587   7.756   3.793   1.093  2.4157  4.2668  0.2001
  467MOL0     H61588   7.832   3.671   1.191  1.4296  0.9650  0.2752
  467MOL0     H61589   7.682   3.905   1.319 -1.2284 -0.3504  1.2784
  467MOL0     H61590   7.717   3.754   1.397 -1.2250 -2.0058 -0.2227
  467MOL0     H61591   7.541   3.639   1.282  0.8142  0.1017  1.2534
  467MOL0     H61592   7.540   3.749   1.151 -1.9463 -2.9233 -0.4143
  467MOL0     H61593   7.430   3.823   1.420  1.6418  3.4742  0.6234
  467MOL0     H61594   7.434   3.927   1.286 -4.2714  0.4840  0.5535
  467MOL0     H61595   7.288   3.802   1.131  0.6528 -2.0105 -0.7939
  467MOL0     H61596   7.223   3.838   1.299 -1.9360 -3.0163  0.5026
  467MOL0     H61597   7.213   3.674   1.489  1.6191 -1.5145  0.1610
  467MOL0     H61598   7.115   3.437   1.581  0.0982 -0.7808  0.0150
  467MOL0     H61599   7.075   3.309   1.471  0.8122 -0.0006  0.1605
  467MOL0     H61600   6.875   3.393   1.574  1.1027 -2.9248 -2.4657
  467MOL0     H61601   6.859   3.399   1.406 -0.0175  0.5302 -0.5061
  467MOL0     H61602   6.961   3.621   1.578 -0.0519 -0.8334 -1.3436
  467MOL0     H61603   6.908   3.641   1.401  0.6558 -1.9934 -1.2108
  467MOL0     H61604   6.729   3.601   1.648 -0.8278  2.4383  0.7510
  467MOL0     H61605   6.679   3.573   1.476  0.2866  0.7714 -0.7298
  467MOL0     H61606   6.685   3.991   1.591  0.1392  0.2611 -1.8189
  467MOL0     H61607   6.469   4.119   1.588  1.9593 -0.8416  0.6444
  467MOL0     H61608   5.970   3.906   1.704  0.3161  0.4261  0.5955
  467MOL0     H61609   5.770   4.032   1.781  1.7860 -0.2562  0.5656
  467MOL0     H61610   5.536   4.133   1.791  1.5118 -1.4271 -0.6449
  467MOL0     H61611   5.527   4.002   1.673  2.2642 -0.7137  1.6418
  467MOL0     H61612   5.399   4.139   1.525  0.7004  0.4960 -0.0967
  467MOL0     H61613   5.390   4.278   1.642 -0.3808 -1.1996  5.1677
  467MOL0     H61614   5.270   4.106   1.801  0.5557  0.1181  0.3329
  467MOL0     H61615   5.292   3.984   1.670  0.7744 -0.3085  3.0313
  467MOL0     H61616   5.122   4.235   1.628  0.1519  0.2988 -0.8234
  467MOL0     H61617   5.165   4.113   1.514  0.1590  0.6722  0.6850
  467MOL0     H61618   5.040   3.946   1.681  1.1932  0.6642 -0.5997
  467MOL0     H61619   4.933   4.068   1.614 -2.1760 -0.6789  1.1289
  467MOL0     H61620   4.923   4.169   1.832  0.8505  1.0097  0.5911
  467MOL0     H61621   5.070   4.088   1.898 -0.0858 -1.9477  0.1944
  467MOL0     H61622   4.952   3.872   1.886 -0.2078  0.4741  1.6338
  467MOL0     H61623   4.886   3.993   1.998 -1.0914  0.2642  0.0241
  467MOL0     H61624   4.708   3.864   1.853  1.0493  0.1992 -0.1763
  467MOL0     H61625   4.758   3.977   1.724  1.4148  1.1265  0.5357
  467MOL0     H61626   5.731   4.174   1.382 -2.9935 -1.2380  1.5112
  467MOL0     H61627   5.974   4.111   1.339  0.0507 -2.3776 -0.4215
  467MOL0     H61628   6.275   3.759   1.451  2.5619 -2.4861 -1.0890
  467MOL0     H61629   6.477   3.643   1.473  1.0262 -0.0932  2.2012
  467MOL0     H61630   8.498   3.864   0.972 -0.5568  1.5866 -2.0552
  467MOL0     H61631   8.703   4.021   0.988  1.2634  1.1555  0.8665
  467MOL0     H61632   8.813   4.507   1.196  1.2586  3.9564 -0.2049
  467MOL0     H61633   9.012   4.660   1.150 -1.2134  0.4880  0.2632
  467MOL0     H61634   9.373   4.462   0.983  0.1750 -1.0360  0.9805
  467MOL0     H61635   9.421   4.452   1.152 -3.6517  0.1361  2.1450
  467MOL0     H61636   9.429   4.724   1.019  2.3467  0.1075 -2.6051
  467MOL0     H61637   9.503   4.671   1.173 -1.5382  0.6044  0.1597
  467MOL0     H61638   9.662   4.701   0.967 -2.8238  2.0610  0.6343
  467MOL0     H61639   9.573   4.578   0.893  1.7162 -1.3501 -0.1583
  467MOL0     H61640   9.744   4.571   1.141 -0.2840 -3.0189  1.5768
  467MOL0     H61641   9.645   4.427   1.105  3.6052 -1.9635  0.8518
  467MOL0     H61642   9.936   4.411   0.792  0.4348 -1.6612  0.4786
  467MOL0     H61643   9.255   4.298   1.117 -0.0052 -1.8266 -1.4977
  467MOL0     H61644   9.069   4.168   1.157 -0.6720 -0.4034 -2.6204
  468MOL0     O61645   3.447   5.889   3.185  0.4350 -0.2728  0.8357
  468MOL0     C61646   3.459   5.799   3.096  1.0197  0.1917 -0.1747
  468MOL0     O61647   3.355   5.726   3.043 -0.1563  0.0025  0.6324
  468MOL0     C61648   3.237   5.743   3.108  0.3778  0.2206 -0.2832
  468MOL0     C61649   3.126   5.790   3.028  0.1635  0.0119  0.0364
  468MOL0     C61650   3.001   5.803   3.088 -0.6048  0.4333  0.0590
  468MOL0     C61651   2.977   5.750   3.211  0.0540  0.3074  0.1194
  468MOL0     O61652   2.862   5.747   3.283 -0.2904  0.3736  0.3339
  468MOL0     C61653   2.744   5.759   3.204 -0.5311 -0.3193 -0.0717
  468MOL0     C61654   2.621   5.722   3.293  0.6271  0.2644 -0.7049
  468MOL0     C61655   2.623   5.582   3.354 -0.3010  0.3016 -0.6729
  468MOL0     C61656   2.535   5.571   3.480  0.0351  0.2269  0.7972
  468MOL0     C61657   2.382   5.584   3.447  0.2622 -0.9818 -0.3532
  468MOL0     C61658   2.335   5.466   3.366  0.0332  0.2957 -0.3875
  468MOL0     C61659   2.363   5.332   3.439 -0.0125  0.4293  0.2829
  468MOL0     C61660   2.347   5.321   3.593 -0.5425 -0.1244 -0.6416
  468MOL0     N61661   2.204   5.312   3.626  0.4425  0.1440  0.3051
  468MOL0     C61662   2.122   5.201   3.594 -0.5199  0.0107  0.0067
  468MOL0     C61663   2.007   5.238   3.643 -0.1701  0.7903 -0.0176
  468MOL0     C61664   1.876   5.160   3.634  0.8220 -0.8246  0.2774
  468MOL0     C61665   1.849   5.086   3.765  0.3488 -0.1496 -1.5149
  468MOL0     C61666   1.713   5.014   3.751  0.2233 -0.1135  0.5892
  468MOL0     C61667   1.659   4.952   3.879  0.0763  0.0109  0.4561
  468MOL0     O61668   1.592   5.056   3.948 -0.7245  0.3684  0.5005
  468MOL0     C61669   1.530   5.020   4.064 -0.0009 -0.4077 -0.0515
  468MOL0     C61670   1.501   5.125   4.146 -0.5682 -0.0672  0.1021
  468MOL0     C61671   1.432   5.118   4.264  0.2895  0.0678  0.0593
  468MOL0     C61672   1.377   4.993   4.298  0.3320  0.6071 -0.3058
  468MOL0     C61673   1.283   4.981   4.413  0.3030 -0.4125  0.8616
  468MOL0     O61674   1.213   4.868   4.434  0.3010 -0.4696  0.4156
  468MOL0     C61675   1.139   4.865   4.554  0.1075 -0.4005  0.0437
  468MOL0     C61676   1.198   4.816   4.677  0.1454  1.2719 -0.1541
  468MOL0     C61677   1.117   4.801   4.790  0.2245  0.4736 -1.0368
  468MOL0     C61678   0.987   4.855   4.799  0.1074  0.5107  0.0903
  468MOL0     O61679   0.920   4.861   4.925  0.5774  0.5294 -0.0333
  468MOL0     C61680   0.884   4.995   4.973 -0.9578 -0.4449  0.2373
  468MOL0     C61681   0.733   4.996   4.958 -0.3181  0.7361 -0.3096
  468MOL0     C61682   0.663   4.920   5.075  0.3803 -0.6085  0.0889
  468MOL0     C61683   0.519   4.896   5.037  0.4802 -0.0533  0.5580
  468MOL0     C61684   0.439   4.855   5.158 -0.2782  0.1359 -0.4205
  468MOL0     C61685   0.285   4.848   5.150 -0.5625 -0.6010 -0.7035
  468MOL0     C61686   0.229   4.790   5.274 -0.1411 -0.5179  0.4416
  468MOL0     C61687   0.095   4.862   5.302  0.5116 -1.1135  0.1782
  468MOL0    Cl61688   0.059   4.823   5.465  0.4307  0.0469 -0.0522
  468MOL0     C61689   0.931   4.908   4.678 -0.0143 -0.0107 -0.9512
  468MOL0     C61690   1.006   4.912   4.562  0.2929 -0.0712  0.2360
  468MOL0     O61691   1.290   5.077   4.489 -0.3492 -0.4596  0.1850
  468MOL0     C61692   1.398   4.882   4.221  0.4737  0.1466  0.0041
  468MOL0     C61693   1.472   4.893   4.105  0.4383 -0.6476  0.2320
  468MOL0     N61694   2.013   5.360   3.703  0.1491  0.4555  0.2144
  468MOL0     N61695   2.128   5.405   3.691 -0.2514 -0.9784 -0.0388
  468MOL0     C61696   3.091   5.718   3.296  0.5711 -0.7331  0.0591
  468MOL0     C61697   3.224   5.725   3.245  0.4590  0.3334 -0.8884
  468MOL0     C61698   3.587   5.800   3.026  0.0822 -0.0774  0.9043
  468MOL0     C61699   3.696   5.876   3.070 -0.4024  0.0166  1.0970
  468MOL0     C61700   3.814   5.872   3.000  0.1203 -0.0420 -0.5587
  468MOL0     C61701   3.828   5.795   2.888  0.0898 -0.2314  0.6662
  468MOL0     O61702   3.947   5.798   2.820 -0.0386 -0.3035  0.1418
  468MOL0     C61703   3.992   5.695   2.733 -1.1894 -0.2480  0.7641
  468MOL0     C61704   4.138   5.713   2.678  1.1137  0.0215  0.1244
  468MOL0     C61705   4.237   5.696   2.788 -0.1157  0.1484  1.0172
  468MOL0     C61706   4.353   5.795   2.760  0.4515  0.0715  0.0328
  468MOL0     C61707   4.449   5.744   2.662  0.4501  0.5097 -0.1994
  468MOL0     C61708   4.542   5.699   2.596 -0.0397 -0.3290  0.9429
  468MOL0     C61709   3.710   5.745   2.827 -0.5411 -0.7075  0.1311
  468MOL0     C61710   3.590   5.749   2.898 -0.2492  0.3165 -0.0693
  468MOL0     H61711   3.146   5.817   2.925 -1.7763  1.9644  0.1096
  468MOL0     H61712   2.921   5.847   3.029 -1.6751 -1.1524  0.2723
  468MOL0     H61713   2.737   5.694   3.115  1.3044  1.3202 -1.5025
  468MOL0     H61714   2.736   5.859   3.162  1.6475 -0.3358 -0.6726
  468MOL0     H61715   2.526   5.733   3.240 -0.5718  2.2531  1.6345
  468MOL0     H61716   2.617   5.791   3.378 -0.3132 -0.5206 -0.0724
  468MOL0     H61717   2.724   5.567   3.392 -0.5403 -1.7729 -0.7634
  468MOL0     H61718   2.607   5.507   3.275  1.2435 -0.9106  0.1211
  468MOL0     H61719   2.552   5.475   3.531 -0.6151  0.2349  1.0377
  468MOL0     H61720   2.562   5.652   3.548 -0.1527  0.6685  0.3476
  468MOL0     H61721   2.360   5.673   3.387 -0.2519  0.3684  1.7575
  468MOL0     H61722   2.319   5.587   3.537  0.3519 -0.0613 -0.3154
  468MOL0     H61723   2.384   5.464   3.268  0.5587 -1.5737 -0.1127
  468MOL0     H61724   2.226   5.459   3.362 -0.2128  3.0920 -1.4565
  468MOL0     H61725   2.298   5.254   3.398 -0.0777  0.7680 -0.2694
  468MOL0     H61726   2.464   5.300   3.410 -0.4261  1.5696 -2.6579
  468MOL0     H61727   2.390   5.402   3.652 -0.2684 -1.1395  0.5991
  468MOL0     H61728   2.403   5.234   3.628  1.4886  0.9714 -1.0417
  468MOL0     H61729   2.151   5.121   3.526  0.2320  2.2372 -2.4845
  468MOL0     H61730   1.872   5.082   3.558 -1.1449 -0.8075  0.2994
  468MOL0     H61731   1.798   5.234   3.614  0.0432 -1.3765  1.1816
  468MOL0     H61732   1.846   5.153   3.851 -0.4297 -1.7223 -0.2587
  468MOL0     H61733   1.926   5.009   3.777 -1.0536 -1.2028  2.0253
  468MOL0     H61734   1.644   5.094   3.722  2.7609  2.3483  0.8950
  468MOL0     H61735   1.716   4.947   3.665 -2.1160  0.0148  0.3328
  468MOL0     H61736   1.740   4.910   3.938 -0.2964 -2.3055 -0.5997
  468MOL0     H61737   1.589   4.870   3.861 -0.8555  0.3602  2.1838
  468MOL0     H61738   1.536   5.223   4.114 -1.7633  0.8858  1.5864
  468MOL0     H61739   1.408   5.208   4.320 -1.8334 -0.5206  0.2076
  468MOL0     H61740   1.301   4.783   4.679 -0.7165 -1.7777  1.9153
  468MOL0     H61741   1.156   4.777   4.888 -0.9680 -0.4603 -0.7761
  468MOL0     H61742   0.927   5.066   4.902 -3.2141 -0.9031 -1.7162
  468MOL0     H61743   0.933   5.004   5.070  2.5275  1.2175 -1.4956
  468MOL0     H61744   0.712   4.948   4.862  0.6617 -3.1753  1.2646
  468MOL0     H61745   0.708   5.103   4.960  0.2008  0.8538  0.4597
  468MOL0     H61746   0.684   4.966   5.171  3.0136 -2.5043  0.5156
  468MOL0     H61747   0.703   4.821   5.097  1.4232  0.3021  2.6966
  468MOL0     H61748   0.480   4.990   4.998  0.6472  0.8856  2.5153
  468MOL0     H61749   0.507   4.824   4.956 -0.1263 -0.3055  0.8647
  468MOL0     H61750   0.465   4.914   5.246  0.5298  1.7409 -1.6765
  468MOL0     H61751   0.476   4.753   5.169 -3.0546 -0.9237 -0.0280
  468MOL0     H61752   0.254   4.780   5.070 -0.9565 -1.9950  0.5928
  468MOL0     H61753   0.250   4.950   5.130  0.0391 -0.0593  0.8497
  468MOL0     H61754   0.211   4.682   5.274  0.7729 -0.6952 -1.2670
  468MOL0     H61755   0.297   4.810   5.357  0.9983 -1.9800 -0.0839
  468MOL0     H61756   0.018   4.835   5.229 -0.2307  0.1052  0.4958
  468MOL0     H61757   0.096   4.971   5.298 -1.8732 -1.0512  0.2785
  468MOL0     H61758   0.833   4.953   4.675 -0.3940 -0.3791  2.3152
  468MOL0     H61759   0.961   4.972   4.483 -3.1188 -2.6801 -0.0244
  468MOL0     H61760   1.360   4.784   4.251 -5.1901  0.6156 -4.1167
  468MOL0     H61761   1.477   4.808   4.037 -2.4550 -3.1406  2.8633
  468MOL0     H61762   3.076   5.684   3.398 -0.1616  2.3957  1.0920
  468MOL0     H61763   3.312   5.685   3.295 -0.5218 -0.1803  0.4831
  468MOL0     H61764   3.684   5.943   3.154 -0.2853  2.2200 -0.5586
  468MOL0     H61765   3.898   5.928   3.040 -0.3292 -0.4181  0.9751
  468MOL0     H61766   3.924   5.677   2.649  0.1582  0.8202 -0.6214
  468MOL0     H61767   3.986   5.602   2.791 -2.2798  0.5370  1.9555
  468MOL0     H61768   4.150   5.641   2.597  0.7613  0.3419 -0.2156
  468MOL0     H61769   4.150   5.809   2.627 -1.4514  1.7757  2.5457
  468MOL0     H61770   4.264   5.590   2.793 -0.0716  0.0742 -0.5500
  468MOL0     H61771   4.191   5.720   2.884  1.2649 -0.3604  1.8536
  468MOL0     H61772   4.313   5.894   2.734 -1.1991  0.3728  3.2213
  468MOL0     H61773   4.413   5.802   2.851  2.2694 -0.0685 -1.1084
  468MOL0     H61774   4.629   5.665   2.545  0.9714 -0.5978  2.7623
  468MOL0     H61775   3.734   5.702   2.730  1.5415  1.1759 -0.2824
  468MOL0     H61776   3.505   5.700   2.853 -0.7538  0.7281  0.4347
  469MOL0     O61777   6.138   0.579   8.052 -0.1089 -0.1919 -0.3912
  469MOL0     C61778   6.229   0.515   8.002  0.5551  0.1985  0.1648
  469MOL0     O61779   6.220   0.446   7.895  0.0199 -0.7574  0.6051
  469MOL0     C61780   6.107   0.454   7.815  0.3726  0.0461  0.4536
  469MOL0     C61781   6.054   0.573   7.766 -0.7309 -0.1371 -0.4430
  469MOL0     C61782   5.953   0.579   7.672  0.4791  0.0414  1.4335
  469MOL0     C61783   5.895   0.455   7.629 -1.1005 -0.3516  0.5926
  469MOL0     O61784   5.783   0.453   7.550 -0.2623 -0.4066  0.4965
  469MOL0     C61785   5.749   0.331   7.483 -1.0479 -0.1059 -1.1733
  469MOL0     C61786   5.626   0.340   7.392 -1.0515  0.6491 -0.4687
  469MOL0     C61787   5.608   0.205   7.322  0.6111 -0.7448 -0.0309
  469MOL0     C61788   5.472   0.199   7.249 -0.1898 -0.2537  0.2235
  469MOL0     C61789   5.440   0.057   7.213  0.4699 -0.0712  0.3784
  469MOL0     C61790   5.536  -0.008   7.119 -0.4911 -0.9097 -0.3601
  469MOL0     C61791   5.604  -0.130   7.195 -0.5056 -0.4440 -0.6928
  469MOL0     C61792   5.705  -0.194   7.095 -0.0876 -0.1362 -0.6308
  469MOL0     N61793   5.830  -0.120   7.081  0.5615 -0.5129  0.6291
  469MOL0     C61794   5.943  -0.127   7.161  0.4027 -0.0957  0.4479
  469MOL0     C61795   6.013  -0.014   7.145  0.1039  0.2444 -0.3385
  469MOL0     C61796   6.146   0.021   7.210 -0.0915 -0.2002  0.0215
  469MOL0     C61797   6.118  -0.003   7.361  0.3764 -0.1542  1.0539
  469MOL0     C61798   6.159   0.123   7.444 -0.2361 -0.4932 -0.0101
  469MOL0     C61799   6.317   0.105   7.485  0.2050  0.7510 -0.9912
  469MOL0     O61800   6.333   0.226   7.549  0.1870 -0.7086  0.3541
  469MOL0     C61801   6.464   0.272   7.579 -0.2141  0.6260  0.6409
  469MOL0     C61802   6.582   0.218   7.533  0.3569  0.1572  0.1949
  469MOL0     C61803   6.709   0.266   7.579 -0.6226 -0.0237 -0.4013
  469MOL0     C61804   6.716   0.382   7.661  0.7092  0.8198  0.1027
  469MOL0     C61805   6.847   0.426   7.708 -0.8896 -1.0341  0.3072
  469MOL0     O61806   6.953   0.360   7.665 -0.1801 -0.5013 -0.1805
  469MOL0     C61807   7.077   0.384   7.722  0.2666 -0.4176 -0.6235
  469MOL0     C61808   7.152   0.276   7.777 -0.1904 -0.3221 -0.2497
  469MOL0     C61809   7.283   0.297   7.821 -0.9847 -0.2813 -0.1542
  469MOL0     C61810   7.343   0.421   7.812 -0.2329  0.1955 -0.2562
  469MOL0     O61811   7.468   0.459   7.856 -0.0789 -0.1931  0.2508
  469MOL0     C61812   7.571   0.391   7.769  0.7814 -0.1535 -0.6580
  469MOL0     C61813   7.707   0.419   7.823  0.3031 -0.2666  0.2361
  469MOL0     C61814   7.810   0.328   7.758  0.8093 -0.2175 -0.0422
  469MOL0     C61815   7.816   0.344   7.603 -0.3014 -1.1481 -0.3875
  469MOL0     C61816   7.949   0.404   7.560 -0.1110 -0.1042 -0.8041
  469MOL0     C61817   8.060   0.307   7.591  0.0557  0.7768  0.3706
  469MOL0     C61818   8.209   0.354   7.558 -0.3147 -0.1650  0.1117
  469MOL0     C61819   8.291   0.227   7.542 -0.6913  0.1550 -0.1511
  469MOL0    Cl61820   8.295   0.134   7.695 -0.4766  0.2731 -0.3844
  469MOL0     C61821   7.272   0.521   7.753 -0.4346 -0.5499 -0.9684
  469MOL0     C61822   7.143   0.504   7.704  0.2102  0.2960 -0.1879
  469MOL0     O61823   6.852   0.525   7.781  0.2050  0.4479  0.1667
  469MOL0     C61824   6.600   0.437   7.705  0.6422 -1.2634 -0.3620
  469MOL0     C61825   6.474   0.387   7.659  0.1166 -0.9918  0.9151
  469MOL0     N61826   5.947   0.061   7.053  0.4824  0.0043 -0.5489
  469MOL0     N61827   5.842  -0.001   7.009  0.3300 -0.0731  0.0764
  469MOL0     C61828   5.949   0.337   7.679  0.0791  0.0853  0.5407
  469MOL0     C61829   6.052   0.338   7.769 -0.8768 -0.1947 -0.2698
  469MOL0     C61830   6.362   0.518   8.061  0.0136  0.7688  0.4928
  469MOL0     C61831   6.395   0.607   8.165  0.6851 -0.1179  0.7660
  469MOL0     C61832   6.515   0.592   8.237 -0.2720 -0.6786  0.3904
  469MOL0     C61833   6.606   0.483   8.203  0.4483 -0.0434  0.5138
  469MOL0     O61834   6.717   0.447   8.274  0.3011 -0.5421  0.0212
  469MOL0     C61835   6.846   0.480   8.214 -0.4589 -0.6754  0.4133
  469MOL0     C61836   6.956   0.383   8.259  0.4799 -0.2279  0.8702
  469MOL0     C61837   6.938   0.242   8.232 -0.0114 -0.3553 -0.1355
  469MOL0     C61838   7.023   0.196   8.113  1.1989  0.1829  0.7840
  469MOL0     C61839   7.144   0.136   8.154 -0.4090  0.5842 -0.6159
  469MOL0     C61840   7.254   0.094   8.181 -0.1711  0.4664 -0.3896
  469MOL0     C61841   6.568   0.398   8.098 -0.2808 -0.4714  0.4061
  469MOL0     C61842   6.448   0.410   8.032 -0.4377 -0.7746 -0.1868
  469MOL0     H61843   6.096   0.666   7.804 -1.4784  0.8269 -1.8553
  469MOL0     H61844   5.910   0.672   7.636 -0.3526  0.0517  2.3936
  469MOL0     H61845   5.713   0.257   7.554 -1.7062  0.1641 -1.2165
  469MOL0     H61846   5.839   0.305   7.426 -1.3747  1.6692 -2.5850
  469MOL0     H61847   5.640   0.429   7.329 -1.8079  0.1150 -1.4220
  469MOL0     H61848   5.545   0.359   7.463 -0.8586 -0.2018 -0.0088
  469MOL0     H61849   5.605   0.130   7.401 -1.1602  0.6328  1.2811
  469MOL0     H61850   5.690   0.195   7.250 -0.9178  0.2356 -2.0083
  469MOL0     H61851   5.393   0.241   7.312 -0.3850  0.8390 -0.7125
  469MOL0     H61852   5.463   0.258   7.158 -0.3894 -1.5934 -0.6386
  469MOL0     H61853   5.342   0.059   7.164 -0.5517 -1.1199  2.2571
  469MOL0     H61854   5.415  -0.004   7.301 -0.6619  0.2896  0.3104
  469MOL0     H61855   5.619   0.060   7.100 -0.6154 -0.6318  0.0751
  469MOL0     H61856   5.493  -0.037   7.023  2.3099 -0.5248 -1.8322
  469MOL0     H61857   5.654  -0.092   7.285 -1.0573  0.0931 -0.6067
  469MOL0     H61858   5.536  -0.209   7.229  1.4635 -0.9250  2.5986
  469MOL0     H61859   5.652  -0.200   6.999 -1.5840  0.6856  0.0981
  469MOL0     H61860   5.729  -0.294   7.131  0.5507  0.6100  1.1130
  469MOL0     H61861   5.966  -0.223   7.206 -0.5200  0.0362  1.2273
  469MOL0     H61862   6.175   0.125   7.197 -0.5300 -0.2323 -1.5217
  469MOL0     H61863   6.227  -0.043   7.173 -0.3871  0.4874 -1.9746
  469MOL0     H61864   6.175  -0.092   7.388  2.6271 -0.2512 -3.1844
  469MOL0     H61865   6.011  -0.019   7.375  0.1617  1.2280  1.1367
  469MOL0     H61866   6.137   0.216   7.390  0.3958  0.9071  2.0274
  469MOL0     H61867   6.090   0.127   7.529 -0.0293  1.6111  0.1055
  469MOL0     H61868   6.391   0.083   7.408 -1.3085 -1.2221 -1.9754
  469MOL0     H61869   6.338   0.023   7.555 -2.0779 -0.8729 -2.0881
  469MOL0     H61870   6.578   0.127   7.475 -0.0007  1.0116 -1.1438
  469MOL0     H61871   6.800   0.221   7.540 -0.0286 -0.8986  1.8390
  469MOL0     H61872   7.096   0.184   7.790  1.4588 -1.1291  1.6008
  469MOL0     H61873   7.335   0.218   7.874  2.1834  2.2970  0.9614
  469MOL0     H61874   7.551   0.437   7.672 -0.4414  0.6848 -0.0330
  469MOL0     H61875   7.555   0.283   7.757  0.5625 -0.1073 -0.7679
  469MOL0     H61876   7.708   0.390   7.928  0.6845 -0.5462  0.1591
  469MOL0     H61877   7.731   0.525   7.818 -2.6033  0.4435 -0.6663
  469MOL0     H61878   7.777   0.224   7.769  0.7368 -0.2942 -0.9321
  469MOL0     H61879   7.898   0.343   7.822 -1.7279  3.3321  3.0859
  469MOL0     H61880   7.790   0.246   7.564  0.0221 -0.5368 -2.2573
  469MOL0     H61881   7.739   0.419   7.580 -0.4990 -0.4329  2.2663
  469MOL0     H61882   7.967   0.502   7.605 -1.5772  0.9508 -2.3714
  469MOL0     H61883   7.942   0.429   7.453 -2.7124  2.0156 -0.2337
  469MOL0     H61884   8.047   0.223   7.523  2.4459  0.0990  0.6564
  469MOL0     H61885   8.043   0.272   7.694 -0.0968 -1.3571 -0.3423
  469MOL0     H61886   8.206   0.400   7.459 -0.2725 -1.2416 -0.4038
  469MOL0     H61887   8.239   0.418   7.642 -0.3154 -0.3371  0.2428
  469MOL0     H61888   8.391   0.244   7.503 -1.7854  0.2382 -3.2000
  469MOL0     H61889   8.235   0.168   7.470 -0.9982 -0.9490  0.9496
  469MOL0     H61890   7.323   0.612   7.722 -0.6032 -1.0103 -2.7082
  469MOL0     H61891   7.090   0.580   7.648  1.0647  0.6546 -0.5325
  469MOL0     H61892   6.593   0.531   7.758  3.5080 -1.0427 -0.2129
  469MOL0     H61893   6.377   0.436   7.669 -0.1705 -1.7196  1.8409
  469MOL0     H61894   5.923   0.237   7.645 -0.1596  1.0353 -2.3359
  469MOL0     H61895   6.090   0.243   7.806 -0.4835  0.9057  2.3430
  469MOL0     H61896   6.331   0.687   8.200 -0.9128 -0.1394 -1.7964
  469MOL0     H61897   6.534   0.660   8.320 -0.5844 -1.1246  0.8322
  469MOL0     H61898   6.873   0.585   8.229 -3.2130 -0.0428  1.6583
  469MOL0     H61899   6.830   0.464   8.106  2.8275 -2.2004  0.0522
  469MOL0     H61900   7.058   0.414   8.233  0.2926  1.0655  1.5787
  469MOL0     H61901   6.952   0.386   8.368 -0.8891 -0.4747  0.8454
  469MOL0     H61902   6.832   0.239   8.204  0.0027  0.5714 -0.3188
  469MOL0     H61903   6.949   0.184   8.324 -3.1266  2.1428  2.0635
  469MOL0     H61904   6.971   0.118   8.056  1.4508  1.1254 -0.8135
  469MOL0     H61905   7.038   0.276   8.039  0.0819 -0.0246  0.2983
  469MOL0     H61906   7.351   0.069   8.219 -0.5623  0.4534  0.6116
  469MOL0     H61907   6.644   0.324   8.077  2.5817  2.7922 -1.9254
  469MOL0     H61908   6.427   0.337   7.954  3.0890 -1.8717 -0.3213
  470MOL0     O61909   4.815   7.627   7.306 -0.2520  0.2166 -0.1047
  470MOL0     C61910   4.859   7.733   7.352  0.1038 -0.1131  0.4751
  470MOL0     O61911   4.777   7.843   7.394  0.1379 -0.2507  0.4811
  470MOL0     C61912   4.640   7.824   7.368  0.4644  0.1921 -0.0756
  470MOL0     C61913   4.565   7.921   7.293  0.6907 -0.3533 -0.4270
  470MOL0     C61914   4.424   7.912   7.298 -0.8733  1.1888 -0.7200
  470MOL0     C61915   4.358   7.807   7.361 -0.4727  0.5840  0.4352
  470MOL0     O61916   4.219   7.809   7.370  0.0821 -0.1342  0.2712
  470MOL0     C61917   4.153   7.694   7.422 -0.2656  0.8526  0.6861
  470MOL0     C61918   4.007   7.706   7.397  0.4668 -0.2093 -0.1282
  470MOL0     C61919   3.936   7.577   7.439 -0.3406  0.5791 -0.0085
  470MOL0     C61920   3.789   7.612   7.459  0.4185  0.4196 -1.6438
  470MOL0     C61921   3.706   7.503   7.530  0.3631 -0.2333  0.5275
  470MOL0     C61922   3.712   7.378   7.446 -0.1056  0.5318 -0.3072
  470MOL0     C61923   3.594   7.280   7.466 -0.4879  0.2659  0.2023
  470MOL0     C61924   3.543   7.251   7.610 -0.3868 -0.0093  0.5392
  470MOL0     N61925   3.409   7.189   7.615 -0.1734  0.2115  0.1411
  470MOL0     C61926   3.367   7.073   7.544  0.0493 -0.9396 -0.7731
  470MOL0     C61927   3.230   7.079   7.545 -0.0368  0.7241 -0.4051
  470MOL0     C61928   3.143   6.981   7.476 -1.0020  0.2254 -0.1431
  470MOL0     C61929   2.994   7.013   7.466 -0.3399 -0.4485 -0.8624
  470MOL0     C61930   2.924   7.018   7.601  0.2276 -0.5164 -0.0586
  470MOL0     C61931   2.769   7.024   7.584 -0.2728  0.2228 -0.1391
  470MOL0     O61932   2.726   7.023   7.719  0.0068 -0.4197 -0.4457
  470MOL0     C61933   2.608   6.964   7.749  0.7000  0.0345 -0.6699
  470MOL0     C61934   2.589   6.925   7.887 -0.4751 -0.8317 -0.5582
  470MOL0     C61935   2.475   6.842   7.917  0.6986  0.3056 -0.0114
  470MOL0     C61936   2.359   6.836   7.838 -0.0203 -0.2264  0.5425
  470MOL0     C61937   2.234   6.769   7.887 -0.3698  0.2035 -0.7720
  470MOL0     O61938   2.241   6.693   8.003  0.2842 -1.2523 -0.2529
  470MOL0     C61939   2.123   6.649   8.063 -0.2696 -0.5679 -0.0604
  470MOL0     C61940   2.120   6.512   8.082  0.1968  0.3368  0.6390
  470MOL0     C61941   2.008   6.461   8.142  0.0880  0.5642  0.9663
  470MOL0     C61942   1.898   6.540   8.174  0.8929 -0.4103 -0.4108
  470MOL0     O61943   1.784   6.476   8.212  0.6207  0.3067  0.5460
  470MOL0     C61944   1.666   6.550   8.247  0.5137 -0.0956 -0.0913
  470MOL0     C61945   1.531   6.495   8.208 -0.3760 -0.7994  0.5122
  470MOL0     C61946   1.497   6.367   8.270 -0.0289  0.7152  0.5940
  470MOL0     C61947   1.356   6.338   8.232  0.4679 -0.7244  0.4701
  470MOL0     C61948   1.308   6.194   8.271  0.4848 -1.0166  0.5576
  470MOL0     C61949   1.160   6.169   8.218 -0.8234 -0.1398 -0.5738
  470MOL0     C61950   1.109   6.032   8.266 -0.2938  0.1635 -0.0374
  470MOL0     C61951   0.964   6.013   8.205 -0.9259 -0.3913  0.8077
  470MOL0    Cl61952   0.905   5.856   8.251 -0.1034  0.6490 -0.3961
  470MOL0     C61953   1.903   6.680   8.152  0.6634 -0.0529  0.1587
  470MOL0     C61954   2.025   6.735   8.098  0.1417 -0.4093  0.3588
  470MOL0     O61955   2.131   6.801   7.831  0.1415 -0.6227  0.3492
  470MOL0     C61956   2.370   6.904   7.715 -0.5022  0.2352  0.2840
  470MOL0     C61957   2.492   6.959   7.672 -0.6229 -0.1978  0.5631
  470MOL0     N61958   3.189   7.186   7.624 -0.5724  0.6409 -0.8699
  470MOL0     N61959   3.299   7.251   7.669 -0.3367  0.2004 -0.1724
  470MOL0     C61960   4.434   7.707   7.426  0.2047  0.0523  0.1434
  470MOL0     C61961   4.574   7.718   7.430 -0.4677  0.2867  0.3332
  470MOL0     C61962   5.011   7.753   7.365  0.0342 -0.1477 -0.4370
  470MOL0     C61963   5.062   7.871   7.416 -0.5901 -0.2165  0.4514
  470MOL0     C61964   5.195   7.877   7.458 -0.3986 -0.1365  0.0066
  470MOL0     C61965   5.278   7.765   7.439  1.1018 -0.3056  0.7833
  470MOL0     O61966   5.407   7.756   7.472 -0.2020 -0.2116  0.0346
  470MOL0     C61967   5.458   7.843   7.568 -0.3564 -0.3979 -1.1003
  470MOL0     C61968   5.572   7.772   7.645  0.9196 -0.1526  0.4855
  470MOL0     C61969   5.522   7.636   7.707 -0.0628 -0.1959  0.0561
  470MOL0     C61970   5.639   7.564   7.780 -0.0808 -0.4019 -0.2196
  470MOL0     C61971   5.681   7.643   7.903  0.6643  0.5227 -0.9536
  470MOL0     C61972   5.705   7.706   8.004  1.0905 -0.1037 -0.1904
  470MOL0     C61973   5.225   7.649   7.364 -0.1417  0.2220 -0.8921
  470MOL0     C61974   5.093   7.649   7.334  0.3004  0.3150  0.8047
  470MOL0     H61975   4.604   8.007   7.240 -5.1337  1.2192 -2.9859
  470MOL0     H61976   4.362   7.986   7.248  0.3003  1.4524 -1.8374
  470MOL0     H61977   4.173   7.678   7.529  0.7246  1.5060  0.6085
  470MOL0     H61978   4.187   7.605   7.369  2.0984  1.2531  1.4296
  470MOL0     H61979   3.996   7.730   7.291  3.6348 -2.1537 -1.0328
  470MOL0     H61980   3.978   7.788   7.464 -0.7251 -1.0655  0.4451
  470MOL0     H61981   3.979   7.545   7.534  0.7134 -0.8776 -0.9379
  470MOL0     H61982   3.944   7.501   7.360 -0.7148  2.3735 -1.8513
  470MOL0     H61983   3.772   7.711   7.504  0.5421 -0.5321  0.6045
  470MOL0     H61984   3.746   7.625   7.359 -0.4125 -2.4586 -1.7471
  470MOL0     H61985   3.603   7.541   7.537  0.1308 -0.9734  1.3001
  470MOL0     H61986   3.741   7.494   7.633  1.3181 -0.3202  0.2033
  470MOL0     H61987   3.801   7.317   7.464  0.2816  1.3239  0.5221
  470MOL0     H61988   3.718   7.401   7.339 -2.2060 -0.6980 -0.7685
  470MOL0     H61989   3.511   7.317   7.405  1.6659  2.1704 -1.7870
  470MOL0     H61990   3.626   7.182   7.430 -3.1242 -0.6360  0.1361
  470MOL0     H61991   3.543   7.342   7.670  0.0369  1.3833 -1.4717
  470MOL0     H61992   3.620   7.182   7.645  0.4301 -0.5352 -2.0763
  470MOL0     H61993   3.423   7.011   7.475 -1.8843  0.8082 -4.1865
  470MOL0     H61994   3.147   6.889   7.536 -0.1356  0.5915  0.3673
  470MOL0     H61995   3.189   6.963   7.379  0.4700 -1.5725  0.8170
  470MOL0     H61996   2.945   6.940   7.401 -2.2631  1.3348 -1.4888
  470MOL0     H61997   2.966   7.109   7.424 -0.4289 -0.0339  0.1147
  470MOL0     H61998   2.942   6.935   7.670  0.3448  1.0214  1.8422
  470MOL0     H61999   2.960   7.104   7.658 -1.3442  0.5937 -0.6875
  470MOL0     H62000   2.730   6.935   7.534  0.0521 -0.4594  0.7928
  470MOL0     H62001   2.727   7.111   7.532  0.2943 -0.8476 -2.5681
  470MOL0     H62002   2.666   6.942   7.961 -1.4852 -0.8073  0.5285
  470MOL0     H62003   2.461   6.793   8.012 -1.1766  2.2731  0.8086
  470MOL0     H62004   2.208   6.452   8.063  0.9188  1.3630  0.6663
  470MOL0     H62005   2.006   6.353   8.155  1.1586  0.2000 -1.4217
  470MOL0     H62006   1.662   6.652   8.207 -0.5399  1.4693  3.5802
  470MOL0     H62007   1.670   6.554   8.357  1.1745 -3.1143  0.0768
  470MOL0     H62008   1.524   6.482   8.099  0.1512  0.3124  0.3280
  470MOL0     H62009   1.453   6.569   8.230  1.2573  0.6364  1.7170
  470MOL0     H62010   1.505   6.369   8.379 -1.0725  1.1115  0.6834
  470MOL0     H62011   1.569   6.292   8.237  0.5560  0.7803  1.6672
  470MOL0     H62012   1.290   6.414   8.275  0.9374  1.4309 -2.2857
  470MOL0     H62013   1.345   6.352   8.124  2.1647  5.4287  0.6876
  470MOL0     H62014   1.320   6.182   8.380  1.8528 -0.1208  0.5312
  470MOL0     H62015   1.371   6.117   8.224  0.8766 -0.8638  0.8231
  470MOL0     H62016   1.141   6.169   8.111  1.3382 -1.3408 -1.0145
  470MOL0     H62017   1.100   6.251   8.259  0.7904  1.9724 -2.2243
  470MOL0     H62018   1.186   5.958   8.240  0.0298  0.4557  0.0856
  470MOL0     H62019   1.107   6.020   8.374  0.7910  0.5238  0.0370
  470MOL0     H62020   0.964   6.026   8.096 -0.8236  0.6182  0.9208
  470MOL0     H62021   0.890   6.081   8.248  0.4611  1.5495  0.2281
  470MOL0     H62022   1.829   6.757   8.172  0.7211  0.4784 -1.5226
  470MOL0     H62023   2.033   6.843   8.086 -0.8511 -0.0688  2.4008
  470MOL0     H62024   2.293   6.915   7.640 -0.6946 -0.7461  0.3252
  470MOL0     H62025   2.504   6.993   7.570  3.3350 -4.0520 -0.5574
  470MOL0     H62026   4.393   7.626   7.486 -1.2474  0.3704 -0.3880
  470MOL0     H62027   4.613   7.636   7.488 -1.8000 -0.8912 -0.3697
  470MOL0     H62028   5.013   7.966   7.432 -0.3747 -0.0023 -0.1271
  470MOL0     H62029   5.231   7.973   7.492  1.3510 -0.3485 -1.1100
  470MOL0     H62030   5.380   7.871   7.640  1.4352 -1.7832  1.5329
  470MOL0     H62031   5.500   7.939   7.537 -1.0860  1.2147  2.4137
  470MOL0     H62032   5.659   7.750   7.581 -0.9868  0.7234 -2.6196
  470MOL0     H62033   5.604   7.841   7.724  1.0222  2.0818 -1.3944
  470MOL0     H62034   5.491   7.563   7.631  2.9137 -0.4599 -1.0355
  470MOL0     H62035   5.441   7.654   7.777 -2.5515 -3.0042 -1.8390
  470MOL0     H62036   5.604   7.466   7.816 -2.3897  1.3120  2.6409
  470MOL0     H62037   5.723   7.569   7.710  0.6957  1.7289  0.8060
  470MOL0     H62038   5.720   7.751   8.101 -0.0059 -3.3006  1.6207
  470MOL0     H62039   5.281   7.559   7.343 -1.0614 -0.9689  1.4090
  470MOL0     H62040   5.046   7.575   7.269  1.5182  0.4006 -0.2223
  471MOL0     O62041   1.508   2.756   5.823 -0.4046 -0.0454 -0.3047
  471MOL0     C62042   1.530   2.848   5.741  0.7089 -0.7039  0.3989
  471MOL0     O62043   1.456   2.957   5.729  0.2025  0.3808 -0.1625
  471MOL0     C62044   1.331   2.954   5.777 -0.1511  0.8478  0.6047
  471MOL0     C62045   1.254   2.847   5.749 -0.2036 -0.5588 -0.2775
  471MOL0     C62046   1.132   2.842   5.819  0.2056 -0.4013 -0.7502
  471MOL0     C62047   1.075   2.942   5.896 -0.4134 -0.3322  0.0859
  471MOL0     O62048   0.945   2.931   5.944 -0.4664  0.5040 -0.0593
  471MOL0     C62049   0.877   2.806   5.925 -0.6174 -0.0417 -0.2462
  471MOL0     C62050   0.745   2.809   6.002  1.1180  0.7327 -0.0188
  471MOL0     C62051   0.744   2.807   6.153 -0.6067  0.5584  0.8485
  471MOL0     C62052   0.809   2.675   6.199  0.3264 -0.1973 -0.1246
  471MOL0     C62053   0.797   2.648   6.354 -0.0268  0.2874  0.6720
  471MOL0     C62054   0.875   2.532   6.408 -0.5138  0.1449 -0.2662
  471MOL0     C62055   1.026   2.535   6.391  0.0524 -0.4121 -0.5918
  471MOL0     C62056   1.099   2.422   6.453  0.9781  0.7344 -0.6095
  471MOL0     N62057   1.076   2.302   6.381 -0.2068  0.3486 -0.8920
  471MOL0     C62058   1.145   2.259   6.276 -0.6275 -0.1398 -0.3760
  471MOL0     C62059   1.077   2.146   6.223  0.0826  0.1394 -0.2322
  471MOL0     C62060   1.125   2.072   6.107  0.3875 -0.6171  0.1579
  471MOL0     C62061   1.065   1.929   6.084  0.3312  0.0015 -0.4116
  471MOL0     C62062   1.147   1.871   5.969 -0.3054  0.5829  0.3915
  471MOL0     C62063   1.103   1.727   5.937  0.0271  0.0100  0.6347
  471MOL0     O62064   0.966   1.710   5.923  0.5292  0.5472 -0.2007
  471MOL0     C62065   0.895   1.736   5.807 -0.8055 -0.9422 -0.2594
  471MOL0     C62066   0.957   1.773   5.682  0.3156  0.0297 -0.5212
  471MOL0     C62067   0.881   1.789   5.568  0.1478  0.3236 -0.2192
  471MOL0     C62068   0.742   1.753   5.557  0.2451 -0.7615  0.6588
  471MOL0     C62069   0.670   1.767   5.435  0.1773  0.0277 -1.2316
  471MOL0     O62070   0.737   1.794   5.312  0.4237  0.3968  0.1455
  471MOL0     C62071   0.679   1.767   5.186  0.7792  0.2329 -0.5669
  471MOL0     C62072   0.610   1.647   5.165  0.4611 -1.1600 -0.0984
  471MOL0     C62073   0.552   1.627   5.043  0.2158 -0.2462  0.0937
  471MOL0     C62074   0.560   1.720   4.940 -0.8735  0.5530  0.2181
  471MOL0     O62075   0.496   1.680   4.824 -0.2048  1.1262  0.0767
  471MOL0     C62076   0.491   1.759   4.700 -0.3273  0.0887  0.0249
  471MOL0     C62077   0.422   1.685   4.578  0.5155  0.2634  0.0546
  471MOL0     C62078   0.281   1.632   4.603 -0.4069  0.0052 -0.2491
  471MOL0     C62079   0.231   1.591   4.456 -0.6922 -0.1110 -0.1968
  471MOL0     C62080   0.086   1.541   4.442  0.5165 -0.1101 -0.3860
  471MOL0     C62081  -0.017   1.638   4.511 -0.0674  0.3912 -0.6702
  471MOL0     C62082  -0.004   1.790   4.488  0.5198 -0.1420 -0.8369
  471MOL0     C62083  -0.119   1.861   4.554 -0.3813 -0.4370 -0.4537
  471MOL0    Cl62084  -0.150   1.838   4.728 -0.1286 -0.4748 -0.1902
  471MOL0     C62085   0.631   1.840   4.959  0.2339  0.2049 -0.5674
  471MOL0     C62086   0.689   1.862   5.081  0.4378  0.8502 -0.1113
  471MOL0     O62087   0.546   1.759   5.458 -0.9958  0.2635  0.7635
  471MOL0     C62088   0.683   1.714   5.675 -0.0527 -0.2593  0.8480
  471MOL0     C62089   0.758   1.707   5.796 -0.7148  0.0208 -0.1245
  471MOL0     N62090   0.972   2.124   6.306 -0.2016 -0.0934 -0.1967
  471MOL0     N62091   0.969   2.215   6.400  0.0476 -0.3191  0.1549
  471MOL0     C62092   1.148   3.060   5.918 -0.1895  1.0415 -0.4444
  471MOL0     C62093   1.272   3.067   5.852  0.1969  0.6829  0.2202
  471MOL0     C62094   1.661   2.857   5.666 -0.4059 -0.3280 -0.8009
  471MOL0     C62095   1.691   2.970   5.586 -0.4357  0.1136 -0.3353
  471MOL0     C62096   1.819   2.986   5.525  0.0904  0.0086 -0.4507
  471MOL0     C62097   1.918   2.894   5.546 -0.3926 -0.5037  0.1308
  471MOL0     O62098   2.043   2.900   5.496  0.1208 -0.1117 -0.1989
  471MOL0     C62099   2.091   3.001   5.403 -0.2399  0.0082  0.2917
  471MOL0     C62100   2.208   2.951   5.321  0.6870 -0.3459 -0.1248
  471MOL0     C62101   2.223   3.031   5.198  0.3698  0.8018 -0.0366
  471MOL0     C62102   2.362   3.007   5.147 -0.3836  0.6524 -0.1583
  471MOL0     C62103   2.374   2.870   5.096 -0.4874  0.4831  0.2326
  471MOL0     C62104   2.373   2.763   5.043  0.0192 -0.0767  0.5447
  471MOL0     C62105   1.893   2.790   5.630  0.0125 -0.1768  0.5419
  471MOL0     C62106   1.768   2.768   5.689  0.0026  1.0608  0.8493
  471MOL0     H62107   1.290   2.774   5.677  0.8474 -1.4782  1.1422
  471MOL0     H62108   1.084   2.749   5.789 -0.9313 -0.2045  0.3902
  471MOL0     H62109   0.933   2.714   5.944  0.9856  0.9075 -0.1342
  471MOL0     H62110   0.854   2.820   5.819 -1.2310 -1.4066 -0.3174
  471MOL0     H62111   0.690   2.726   5.956  0.3205  1.1756  0.1190
  471MOL0     H62112   0.685   2.895   5.971  3.1761  2.1762 -0.1794
  471MOL0     H62113   0.641   2.813   6.189 -0.8486  1.2977  0.0786
  471MOL0     H62114   0.800   2.894   6.190  0.9901 -0.8037  1.8050
  471MOL0     H62115   0.768   2.588   6.146  0.2829 -1.2850  1.6139
  471MOL0     H62116   0.917   2.675   6.181  0.4683  0.3552  0.6767
  471MOL0     H62117   0.693   2.629   6.380 -0.3296  0.6988 -0.1906
  471MOL0     H62118   0.824   2.732   6.418 -1.9483 -1.0670  3.4326
  471MOL0     H62119   0.842   2.438   6.363  0.7277 -0.4672  0.0586
  471MOL0     H62120   0.859   2.523   6.516  0.4917 -1.3391 -0.2005
  471MOL0     H62121   1.053   2.540   6.285 -0.0952 -1.5046 -0.6881
  471MOL0     H62122   1.051   2.632   6.436 -2.8969 -0.4077  1.3353
  471MOL0     H62123   1.051   2.416   6.551  1.4644  1.2534 -0.3383
  471MOL0     H62124   1.205   2.445   6.464  1.7206 -2.5748  0.2760
  471MOL0     H62125   1.241   2.302   6.246 -0.4795  0.1147  0.4311
  471MOL0     H62126   1.234   2.063   6.104  0.2575 -3.6574  0.9288
  471MOL0     H62127   1.105   2.140   6.024 -2.2583 -0.7027  0.6213
  471MOL0     H62128   0.961   1.940   6.053  0.0173 -0.2437  0.5239
  471MOL0     H62129   1.082   1.873   6.176  0.3517  1.3385  0.4105
  471MOL0     H62130   1.121   1.930   5.881 -0.8614 -1.5843 -0.9675
  471MOL0     H62131   1.252   1.876   6.000 -0.4798 -0.8114  1.3110
  471MOL0     H62132   1.134   1.652   6.011 -2.8613 -0.8472  1.0695
  471MOL0     H62133   1.160   1.709   5.846 -0.1873  0.2932  0.4467
  471MOL0     H62134   1.062   1.797   5.671  0.3481  0.0934 -0.0801
  471MOL0     H62135   0.932   1.826   5.480  1.5048  4.7088  2.1171
  471MOL0     H62136   0.595   1.568   5.238  0.5490 -0.3191  0.8548
  471MOL0     H62137   0.494   1.537   5.028  0.6376 -0.3697 -0.9235
  471MOL0     H62138   0.595   1.792   4.689 -1.0699  2.0024 -1.8771
  471MOL0     H62139   0.430   1.847   4.717  0.8887  1.0140 -0.2514
  471MOL0     H62140   0.489   1.603   4.552  1.2331  0.2867  1.6910
  471MOL0     H62141   0.430   1.747   4.488 -1.1015 -0.3532 -0.5587
  471MOL0     H62142   0.219   1.707   4.653 -1.6625 -1.7678  0.9672
  471MOL0     H62143   0.271   1.546   4.669 -1.3095 -0.2303 -0.6741
  471MOL0     H62144   0.243   1.675   4.388  2.0807 -1.8717 -2.0694
  471MOL0     H62145   0.299   1.510   4.426 -1.4288 -1.4087  1.4259
  471MOL0     H62146   0.077   1.446   4.496 -0.4499  0.1116 -0.1325
  471MOL0     H62147   0.055   1.534   4.337 -2.2383  0.9365  0.2745
  471MOL0     H62148  -0.012   1.619   4.619  0.6814  1.7359 -0.4454
  471MOL0     H62149  -0.113   1.608   4.468  0.6508  0.2559 -2.2405
  471MOL0     H62150   0.090   1.833   4.524  1.0802 -1.6783 -0.3742
  471MOL0     H62151  -0.003   1.819   4.383 -0.2310  1.1845 -0.4941
  471MOL0     H62152  -0.204   1.839   4.489  0.2371  1.4586 -2.0063
  471MOL0     H62153  -0.118   1.970   4.541 -1.0017 -0.3785 -0.0469
  471MOL0     H62154   0.631   1.915   4.881 -2.4556 -0.0133 -0.8456
  471MOL0     H62155   0.740   1.956   5.102 -1.3597  1.5831  1.3218
  471MOL0     H62156   0.575   1.707   5.684 -0.1204  0.4540  0.6317
  471MOL0     H62157   0.705   1.695   5.890 -0.8213  1.3367  0.0026
  471MOL0     H62158   1.110   3.132   5.990  1.2242 -0.1219  1.5516
  471MOL0     H62159   1.336   3.154   5.850  0.1847  0.7314 -2.8678
  471MOL0     H62160   1.623   3.054   5.588  0.2892  0.6984  0.5379
  471MOL0     H62161   1.854   3.067   5.462  1.9669 -1.1554 -0.9881
  471MOL0     H62162   2.114   3.092   5.459 -0.3927 -0.6867  1.5207
  471MOL0     H62163   2.009   3.033   5.338 -1.6346  1.4100  2.5878
  471MOL0     H62164   2.296   2.958   5.387 -1.2929  2.7665  2.4859
  471MOL0     H62165   2.187   2.847   5.296 -0.0738 -0.5622  1.2930
  471MOL0     H62166   2.207   3.137   5.215  0.5994  0.5183  2.2646
  471MOL0     H62167   2.150   3.007   5.120  0.7210  1.6501 -0.6425
  471MOL0     H62168   2.374   3.073   5.061  1.2992  0.1981 -0.3109
  471MOL0     H62169   2.429   3.030   5.232 -2.3811  0.1527  1.6345
  471MOL0     H62170   2.371   2.668   4.994  1.4476 -0.8925  1.9807
  471MOL0     H62171   1.968   2.718   5.663  1.6865  0.3236 -1.9036
  471MOL0     H62172   1.753   2.676   5.745  2.6495  1.3320  2.1995
  472MOL0     O62173   8.995   5.025   8.390 -0.9103 -0.7962 -0.0230
  472MOL0     C62174   9.028   5.099   8.478  1.4024 -0.1538 -0.2332
  472MOL0     O62175   8.943   5.181   8.544 -0.0810  1.0258 -0.0452
  472MOL0     C62176   8.811   5.185   8.510  1.1525 -0.1833  0.4935
  472MOL0     C62177   8.719   5.080   8.498 -0.6387 -0.5326  0.0323
  472MOL0     C62178   8.578   5.103   8.497  0.1530  0.2508 -0.2988
  472MOL0     C62179   8.528   5.232   8.491  0.4081 -0.5458  0.2229
  472MOL0     O62180   8.390   5.256   8.493  0.5686 -0.0019 -0.0494
  472MOL0     C62181   8.348   5.393   8.506  0.1225 -0.0610 -0.4147
  472MOL0     C62182   8.194   5.395   8.506 -0.0880  0.3128 -0.4739
  472MOL0     C62183   8.137   5.534   8.513  0.1003  0.3031 -0.3157
  472MOL0     C62184   7.989   5.517   8.535 -0.1477 -0.8374  0.1873
  472MOL0     C62185   7.917   5.660   8.538 -0.5145  0.1490  0.2028
  472MOL0     C62186   7.942   5.731   8.672 -0.0206 -0.6818  0.3778
  472MOL0     C62187   7.855   5.669   8.780 -0.0092  0.3302 -0.2269
  472MOL0     C62188   7.929   5.662   8.916  0.1220  0.0534 -0.7594
  472MOL0     N62189   8.050   5.577   8.914 -0.1148  0.5217 -0.8031
  472MOL0     C62190   8.061   5.439   8.896 -0.0823 -0.0779  0.4088
  472MOL0     C62191   8.195   5.407   8.916  1.0624 -0.3257 -0.0362
  472MOL0     C62192   8.258   5.273   8.912 -0.2784  0.1295 -0.9435
  472MOL0     C62193   8.405   5.291   8.906  0.5252  1.3878  0.0968
  472MOL0     C62194   8.470   5.158   8.882 -0.6956 -0.2754  0.3194
  472MOL0     C62195   8.624   5.166   8.873 -0.0967  0.2097  0.4466
  472MOL0     O62196   8.671   5.184   9.014  0.3902  0.3704  0.1195
  472MOL0     C62197   8.806   5.163   9.053 -0.7565 -0.8113 -0.0955
  472MOL0     C62198   8.903   5.126   8.958 -0.2105 -0.2772  0.3765
  472MOL0     C62199   9.038   5.107   8.990  0.5126 -0.6682 -0.1416
  472MOL0     C62200   9.090   5.158   9.111  0.1820 -0.0430 -0.4387
  472MOL0     C62201   9.238   5.162   9.147  0.9297 -0.2308  0.3298
  472MOL0     O62202   9.326   5.114   9.053 -0.5596 -0.1153  0.7379
  472MOL0     C62203   9.458   5.137   9.085  0.2913  0.2292  0.3883
  472MOL0     C62204   9.506   5.265   9.103 -0.0096  0.7373  0.4465
  472MOL0     C62205   9.643   5.288   9.137 -0.0392  0.2805  0.5551
  472MOL0     C62206   9.735   5.175   9.149 -0.1204 -0.2944  0.0754
  472MOL0     O62207   9.866   5.206   9.180  0.1670  0.1565  0.6593
  472MOL0     C62208   9.922   5.318   9.109 -0.0630 -0.2057  0.5268
  472MOL0     C62209  10.071   5.295   9.105  0.0853 -0.0201 -0.3360
  472MOL0     C62210  10.142   5.433   9.096 -0.9944  0.8997 -0.6627
  472MOL0     C62211  10.291   5.422   9.080  0.4566  0.4647  0.1672
  472MOL0     C62212  10.350   5.552   9.035 -0.0828  0.3295  0.0092
  472MOL0     C62213  10.496   5.571   9.063 -0.2138 -0.1265 -0.0657
  472MOL0     C62214  10.555   5.717   9.045  0.7403  0.7300 -0.2233
  472MOL0     C62215  10.708   5.730   9.056 -0.1842  0.7622 -0.2979
  472MOL0    Cl62216  10.753   5.713   9.234  0.2497 -0.0276 -0.2038
  472MOL0     C62217   9.687   5.048   9.123 -0.0495  0.0207  0.3504
  472MOL0     C62218   9.552   5.029   9.089  0.4061 -0.0532 -0.0773
  472MOL0     O62219   9.271   5.201   9.262 -0.4702  0.1783  1.3433
  472MOL0     C62220   8.992   5.201   9.209  0.4379  0.4665 -0.5212
  472MOL0     C62221   8.851   5.205   9.180  0.2112 -0.1976  0.2849
  472MOL0     N62222   8.247   5.522   8.954  0.3837 -0.4445 -0.4469
  472MOL0     N62223   8.172   5.626   8.948  0.5242  0.4560  0.0859
  472MOL0     C62224   8.623   5.346   8.504  0.3192  0.2295  0.5606
  472MOL0     C62225   8.756   5.311   8.504  0.3058 -0.1715  0.3528
  472MOL0     C62226   9.167   5.078   8.526  0.0937 -0.0553 -0.4106
  472MOL0     C62227   9.238   4.958   8.493  0.1283  0.9403 -0.5820
  472MOL0     C62228   9.364   4.933   8.550 -0.1186 -0.0454 -0.4026
  472MOL0     C62229   9.421   5.016   8.651 -0.0270 -0.3735  0.3232
  472MOL0     O62230   9.538   4.991   8.716  0.1365 -0.3400 -0.0310
  472MOL0     C62231   9.629   4.899   8.655 -0.0621 -0.7171  0.7752
  472MOL0     C62232   9.749   4.909   8.750  0.2988 -0.2418  0.7163
  472MOL0     C62233   9.828   5.038   8.726  0.1337 -0.0557  0.2347
  472MOL0     C62234   9.949   5.070   8.815  0.1408 -0.2669  0.0116
  472MOL0     C62235  10.054   4.972   8.798 -0.0741 -0.4394 -0.0562
  472MOL0     C62236  10.130   4.882   8.783 -0.3258  0.4685 -0.0267
  472MOL0     C62237   9.349   5.130   8.684  0.0659 -0.4162  0.4854
  472MOL0     C62238   9.229   5.163   8.620  0.2080  0.0047  0.0811
  472MOL0     H62239   8.763   4.981   8.493 -1.4819 -0.9128 -0.1461
  472MOL0     H62240   8.508   5.022   8.480  0.7637 -0.6959  1.4220
  472MOL0     H62241   8.389   5.459   8.429  0.2143 -2.4128 -2.5020
  472MOL0     H62242   8.382   5.432   8.602 -0.4474  0.9422 -0.6090
  472MOL0     H62243   8.160   5.336   8.592 -4.5129  0.7714 -1.6254
  472MOL0     H62244   8.159   5.348   8.414  3.1768  0.9436 -2.1711
  472MOL0     H62245   8.157   5.585   8.418  0.0570  0.6022 -0.1666
  472MOL0     H62246   8.174   5.586   8.601 -2.8105  3.2420 -0.6114
  472MOL0     H62247   7.947   5.466   8.447 -2.0615  2.1233 -0.7767
  472MOL0     H62248   7.966   5.442   8.611 -0.5984 -0.1360  0.7587
  472MOL0     H62249   7.812   5.632   8.526  0.1081 -3.0074  1.2147
  472MOL0     H62250   7.945   5.716   8.448 -2.1584 -1.7340 -1.5719
  472MOL0     H62251   7.916   5.836   8.653  1.7072 -0.1983  0.4959
  472MOL0     H62252   8.050   5.726   8.688  0.0504 -1.2519 -0.2502
  472MOL0     H62253   7.761   5.721   8.802 -1.7848 -3.0006  0.8207
  472MOL0     H62254   7.834   5.569   8.739  0.8581 -0.9657  2.2771
  472MOL0     H62255   7.871   5.617   8.997 -1.0927 -0.8169 -2.0603
  472MOL0     H62256   7.959   5.761   8.951  0.0015 -0.0796 -0.2807
  472MOL0     H62257   7.976   5.383   8.858 -1.3265  1.5095  0.7266
  472MOL0     H62258   8.212   5.217   8.830 -0.6287 -1.7096  0.4509
  472MOL0     H62259   8.236   5.229   9.009 -0.4780  2.5766  0.1993
  472MOL0     H62260   8.440   5.319   9.005  2.3278 -0.9189  0.1952
  472MOL0     H62261   8.430   5.369   8.834  0.0913  1.0487 -0.4363
  472MOL0     H62262   8.424   5.081   8.943 -0.2862  0.1335  1.1638
  472MOL0     H62263   8.444   5.126   8.780  1.3657 -0.7742 -0.0980
  472MOL0     H62264   8.645   5.255   8.814  1.2809  0.7277  1.6430
  472MOL0     H62265   8.664   5.072   8.834  1.4761  0.7183  0.7505
  472MOL0     H62266   8.885   5.106   8.853  2.8317 -1.1085 -0.0805
  472MOL0     H62267   9.109   5.078   8.913  1.9804 -1.2974  1.3818
  472MOL0     H62268   9.434   5.346   9.092  0.6066  1.2670  0.2332
  472MOL0     H62269   9.684   5.384   9.165  2.9771  0.0648 -2.5252
  472MOL0     H62270   9.903   5.417   9.153  2.6964  1.0609 -0.9352
  472MOL0     H62271   9.894   5.316   9.004  3.7322  0.5426 -0.6411
  472MOL0     H62272  10.092   5.228   9.020 -1.3853 -2.0560  0.8132
  472MOL0     H62273  10.114   5.247   9.193 -0.9872 -0.1911  0.1096
  472MOL0     H62274  10.129   5.496   9.185 -1.9160  0.7882 -0.7136
  472MOL0     H62275  10.096   5.503   9.025 -0.4834  1.1935 -0.7178
  472MOL0     H62276  10.328   5.390   9.178  1.2451 -1.5226 -0.7415
  472MOL0     H62277  10.312   5.343   9.007  1.1931 -0.4501  1.3359
  472MOL0     H62278  10.289   5.627   9.086 -3.4274 -1.4975 -0.9465
  472MOL0     H62279  10.327   5.578   8.931  1.6783  1.1679 -0.1888
  472MOL0     H62280  10.563   5.506   9.006  0.2084 -2.6259  2.9895
  472MOL0     H62281  10.513   5.543   9.168  1.1448 -0.2836 -0.3128
  472MOL0     H62282  10.524   5.746   8.944 -1.4436 -0.5532  0.0184
  472MOL0     H62283  10.515   5.796   9.110  1.9302  0.3531  1.0294
  472MOL0     H62284  10.732   5.826   9.008 -1.4249 -0.9720 -5.0219
  472MOL0     H62285  10.753   5.649   8.998 -0.8162  1.5347 -1.9349
  472MOL0     H62286   9.754   4.964   9.137 -2.0723 -1.6540  0.5516
  472MOL0     H62287   9.506   4.932   9.078 -0.7384  0.3040  1.3076
  472MOL0     H62288   9.019   5.223   9.312 -0.7112  1.7586 -0.4718
  472MOL0     H62289   8.768   5.241   9.239 -0.8728  2.2235 -2.4879
  472MOL0     H62290   8.588   5.448   8.514  2.2549  1.2284 -1.7163
  472MOL0     H62291   8.832   5.389   8.502 -2.3874  2.6038 -0.1054
  472MOL0     H62292   9.192   4.883   8.430  2.0248  0.9421 -2.0663
  472MOL0     H62293   9.415   4.846   8.510  1.7508  1.8478 -2.3989
  472MOL0     H62294   9.655   4.948   8.561 -2.0858 -0.2585  0.4084
  472MOL0     H62295   9.588   4.798   8.647 -0.5388 -0.4331 -0.6840
  472MOL0     H62296   9.731   4.900   8.858 -1.4402  1.4498  0.6310
  472MOL0     H62297   9.814   4.825   8.724  3.2872  1.2779  2.7007
  472MOL0     H62298   9.751   5.112   8.751 -1.5836 -1.7790  0.3223
  472MOL0     H62299   9.851   5.040   8.619  4.4428  0.2308  0.9735
  472MOL0     H62300   9.989   5.171   8.800  0.1214 -0.3243 -0.4280
  472MOL0     H62301   9.916   5.050   8.918  4.3320  0.6110  1.7168
  472MOL0     H62302  10.192   4.795   8.773 -2.2100 -0.8004 -1.4495
  472MOL0     H62303   9.391   5.201   8.754  0.0822  1.3487 -1.2097
  472MOL0     H62304   9.185   5.255   8.656  2.8117  0.3890  2.6734
  473MOL0     O62305   5.881   0.316   4.515 -0.2255  0.5934 -0.0673
  473MOL0     C62306   5.898   0.395   4.420 -0.3625 -0.0656 -0.5203
  473MOL0     O62307   5.799   0.466   4.367  0.4821 -0.2200 -0.2365
  473MOL0     C62308   5.670   0.452   4.418  0.4958  0.5757 -0.0066
  473MOL0     C62309   5.600   0.328   4.412  0.3085 -0.3027 -0.0631
  473MOL0     C62310   5.472   0.319   4.469  0.0830  0.1610  0.3501
  473MOL0     C62311   5.419   0.425   4.548  0.2847 -0.0853 -0.7718
  473MOL0     O62312   5.300   0.429   4.617 -0.7256  0.3066 -0.1511
  473MOL0     C62313   5.234   0.302   4.632 -0.6866 -0.6160  1.0111
  473MOL0     C62314   5.105   0.322   4.707 -0.3367  0.2529 -0.1513
  473MOL0     C62315   5.015   0.407   4.621  0.1320 -0.3405  0.0741
  473MOL0     C62316   4.877   0.430   4.684  1.1579  0.1333 -0.8308
  473MOL0     C62317   4.795   0.517   4.591  0.3987  0.2629 -0.4370
  473MOL0     C62318   4.652   0.528   4.647 -0.6604  0.3304  0.4872
  473MOL0     C62319   4.547   0.598   4.564 -0.2727 -0.2801 -0.3287
  473MOL0     C62320   4.492   0.508   4.450 -1.2540 -0.2315 -0.5033
  473MOL0     N62321   4.408   0.396   4.498  0.6975 -0.8847 -0.2663
  473MOL0     C62322   4.328   0.395   4.611  1.0652  0.6751  0.0126
  473MOL0     C62323   4.263   0.268   4.612 -0.9120  0.3972  0.0122
  473MOL0     C62324   4.169   0.203   4.703 -0.2499 -0.0477 -0.1880
  473MOL0     C62325   4.101   0.295   4.798  0.1747 -1.1461 -0.0254
  473MOL0     C62326   3.974   0.225   4.852  1.3180 -1.1853  0.2727
  473MOL0     C62327   4.000   0.091   4.919  0.1887  0.4031 -0.2423
  473MOL0     O62328   3.876   0.054   4.980 -0.2335 -0.8596 -0.4439
  473MOL0     C62329   3.866  -0.057   5.054 -0.8360 -0.2977 -0.7278
  473MOL0     C62330   3.737  -0.105   5.058  0.0545  0.4849 -0.6047
  473MOL0     C62331   3.712  -0.218   5.134  0.0466  0.4292  0.4245
  473MOL0     C62332   3.805  -0.272   5.223  0.5993  0.1084  0.3994
  473MOL0     C62333   3.759  -0.380   5.325 -0.1403  0.0484 -0.6042
  473MOL0     O62334   3.851  -0.442   5.401  0.0791 -0.3062 -0.6281
  473MOL0     C62335   3.826  -0.557   5.467 -0.1751  0.8752 -0.2223
  473MOL0     C62336   3.800  -0.675   5.390 -0.2255  0.0597 -0.0278
  473MOL0     C62337   3.788  -0.797   5.456 -0.0284 -0.2269  1.2691
  473MOL0     C62338   3.803  -0.810   5.592  0.0888 -0.4130  0.7976
  473MOL0     O62339   3.784  -0.935   5.653 -0.4085 -0.0872  0.4914
  473MOL0     C62340   3.734  -0.934   5.788  1.1214 -0.0909 -0.7726
  473MOL0     C62341   3.720  -1.082   5.850 -0.0589  0.2993  1.1006
  473MOL0     C62342   3.610  -1.108   5.942  0.0112  0.2126  1.4179
  473MOL0     C62343   3.575  -1.252   5.954 -0.1667  0.8650 -0.1469
  473MOL0     C62344   3.669  -1.333   6.038  0.0938  0.7161 -0.3975
  473MOL0     C62345   3.611  -1.477   6.055 -0.6142 -0.1344 -0.1505
  473MOL0     C62346   3.709  -1.548   6.151 -0.3453  0.5653 -0.1566
  473MOL0     C62347   3.677  -1.704   6.158 -0.2868  0.2168 -0.0285
  473MOL0    Cl62348   3.532  -1.715   6.253  0.1113  0.1560 -0.3325
  473MOL0     C62349   3.828  -0.691   5.670 -0.0003  0.5964 -0.5029
  473MOL0     C62350   3.831  -0.571   5.608 -0.2522 -0.0296  0.1428
  473MOL0     O62351   3.639  -0.400   5.340 -0.2943 -0.7117  0.3471
  473MOL0     C62352   3.928  -0.211   5.227 -0.4011  0.2585  0.3910
  473MOL0     C62353   3.964  -0.105   5.139  0.1863 -0.2311  0.3671
  473MOL0     N62354   4.310   0.202   4.496 -0.4982 -0.4541 -0.5431
  473MOL0     N62355   4.396   0.277   4.437 -0.7953  0.0159  0.0246
  473MOL0     C62356   5.495   0.544   4.548  0.2272  0.1523  0.4843
  473MOL0     C62357   5.618   0.557   4.491 -0.4034  0.0542  0.9280
  473MOL0     C62358   6.035   0.420   4.362 -0.5437 -0.5101  0.6589
  473MOL0     C62359   6.144   0.330   4.409 -0.9041 -0.4428  0.2501
  473MOL0     C62360   6.267   0.341   4.349  0.6258 -0.2277  0.1566
  473MOL0     C62361   6.290   0.430   4.234 -0.1463 -0.5195  0.2562
  473MOL0     O62362   6.406   0.446   4.170 -0.5329  0.1389  0.8010
  473MOL0     C62363   6.511   0.382   4.226 -0.5118 -0.3152  0.3057
  473MOL0     C62364   6.628   0.422   4.132 -0.0822 -0.1713  0.1426
  473MOL0     C62365   6.756   0.345   4.172 -0.0474  0.0624 -0.0636
  473MOL0     C62366   6.882   0.402   4.114 -0.0786  0.1516 -0.9037
  473MOL0     C62367   6.880   0.436   3.969 -0.5587  0.6020  0.5519
  473MOL0     C62368   6.866   0.470   3.854  0.5285 -0.4765  0.2870
  473MOL0     C62369   6.184   0.511   4.194  0.1469  0.5145  0.6386
  473MOL0     C62370   6.056   0.513   4.253 -0.3277 -0.3425 -0.0326
  473MOL0     H62371   5.641   0.241   4.362 -0.5074 -0.3526 -0.6630
  473MOL0     H62372   5.428   0.220   4.471  0.9148 -0.3690 -2.5148
  473MOL0     H62373   5.300   0.235   4.687 -0.7436 -0.5485  1.1615
  473MOL0     H62374   5.207   0.257   4.536 -3.6953 -1.9114  2.3374
  473MOL0     H62375   5.122   0.372   4.802  0.7125 -1.6337  0.7135
  473MOL0     H62376   5.061   0.225   4.732 -0.0541  0.4463  1.1537
  473MOL0     H62377   4.991   0.357   4.527 -1.5735  0.3295  0.1052
  473MOL0     H62378   5.064   0.503   4.603 -1.5889 -0.0149 -3.9285
  473MOL0     H62379   4.837   0.331   4.707  0.0979  0.4221 -1.3918
  473MOL0     H62380   4.884   0.479   4.782 -0.2157 -3.7116  1.4281
  473MOL0     H62381   4.784   0.456   4.500  0.2847 -0.9172  0.3406
  473MOL0     H62382   4.828   0.621   4.583  0.0370  0.2359 -3.8116
  473MOL0     H62383   4.664   0.587   4.739  0.0955 -1.2553  1.4561
  473MOL0     H62384   4.619   0.425   4.665 -0.3092  0.1933  0.3579
  473MOL0     H62385   4.459   0.632   4.621 -2.3498 -4.1661 -0.8224
  473MOL0     H62386   4.596   0.681   4.513  0.4690  0.1037  0.9844
  473MOL0     H62387   4.577   0.458   4.402 -1.7449 -1.7278  0.1285
  473MOL0     H62388   4.435   0.563   4.375  1.4739  1.9068 -1.2070
  473MOL0     H62389   4.323   0.472   4.688 -2.2987  0.2786  0.3421
  473MOL0     H62390   4.222   0.119   4.750 -2.0003 -2.1365 -1.6819
  473MOL0     H62391   4.098   0.152   4.637 -0.6008 -0.4569  0.4880
  473MOL0     H62392   4.080   0.385   4.739  3.7308 -0.4177 -0.4146
  473MOL0     H62393   4.163   0.329   4.882  1.0824  0.1963 -1.2024
  473MOL0     H62394   3.936   0.297   4.926  0.6221 -1.5910  0.3195
  473MOL0     H62395   3.902   0.208   4.772  0.8052 -0.6711  0.6141
  473MOL0     H62396   4.085   0.104   4.987  1.9900  1.2387 -2.5303
  473MOL0     H62397   4.039   0.017   4.849  1.5132  1.5442 -0.7576
  473MOL0     H62398   3.664  -0.043   5.008 -0.4242  0.9276  0.6127
  473MOL0     H62399   3.611  -0.257   5.120  0.4287 -0.1088 -1.0288
  473MOL0     H62400   3.792  -0.672   5.282  0.1608  1.3318 -0.0353
  473MOL0     H62401   3.766  -0.880   5.389  1.4494 -0.6253  1.2374
  473MOL0     H62402   3.643  -0.875   5.794  1.9238  1.0871  0.8546
  473MOL0     H62403   3.807  -0.889   5.857  0.2594 -0.3024  0.2966
  473MOL0     H62404   3.818  -1.089   5.899  1.4210  0.1871 -1.6975
  473MOL0     H62405   3.727  -1.155   5.769  3.0098  1.3578  0.2451
  473MOL0     H62406   3.522  -1.066   5.893  2.1653  4.6704  0.8759
  473MOL0     H62407   3.625  -1.054   6.036  0.5759  0.6125  1.1081
  473MOL0     H62408   3.476  -1.248   6.000  1.4289 -0.1513  3.8152
  473MOL0     H62409   3.577  -1.308   5.860  6.6182 -0.7798  0.4579
  473MOL0     H62410   3.658  -1.282   6.134 -2.7919  2.1161 -1.3202
  473MOL0     H62411   3.775  -1.333   6.013 -0.0158 -0.6510 -0.9312
  473MOL0     H62412   3.630  -1.529   5.961  2.0735  1.0124 -0.3539
  473MOL0     H62413   3.508  -1.471   6.091 -0.3722  0.1842  0.5040
  473MOL0     H62414   3.812  -1.538   6.116  0.4894  0.2592  2.0573
  473MOL0     H62415   3.699  -1.508   6.252 -2.5485 -0.7844  0.2201
  473MOL0     H62416   3.761  -1.757   6.202 -1.0692 -0.7690  0.3146
  473MOL0     H62417   3.647  -1.745   6.061 -1.4420  2.7418 -0.8233
  473MOL0     H62418   3.840  -0.703   5.777 -1.6707 -2.7130 -0.5490
  473MOL0     H62419   3.842  -0.480   5.667  1.7224 -0.2418  0.1730
  473MOL0     H62420   4.007  -0.252   5.288  1.0970  0.1377 -1.5324
  473MOL0     H62421   4.062  -0.058   5.145  0.4103 -0.8172  1.7923
  473MOL0     H62422   5.451   0.622   4.609 -0.2502  0.0546  0.2756
  473MOL0     H62423   5.677   0.645   4.515  0.1394 -0.2479  0.7246
  473MOL0     H62424   6.126   0.264   4.493 -0.4222  1.0321  1.5675
  473MOL0     H62425   6.339   0.263   4.375  1.8039  1.2170  1.3504
  473MOL0     H62426   6.507   0.273   4.217  1.7539 -0.3312 -1.6150
  473MOL0     H62427   6.523   0.418   4.328 -2.1739  0.5207  0.2355
  473MOL0     H62428   6.606   0.406   4.026 -1.1295  0.4281  0.2585
  473MOL0     H62429   6.651   0.529   4.134 -0.2367 -0.0337 -2.0333
  473MOL0     H62430   6.748   0.244   4.130 -2.2712  0.1516  0.0186
  473MOL0     H62431   6.780   0.340   4.278  2.1376  1.0084 -0.4721
  473MOL0     H62432   6.897   0.497   4.166 -1.5251  0.2414 -0.6069
  473MOL0     H62433   6.953   0.322   4.135  0.2975  0.1313 -2.1777
  473MOL0     H62434   6.846   0.501   3.753  0.1714 -2.3151 -0.2409
  473MOL0     H62435   6.192   0.582   4.112 -0.1774 -0.9154 -0.6747
  473MOL0     H62436   5.978   0.580   4.218  0.6638  1.0398  0.3346
  474MOL0     O62437   4.112  10.944   0.775 -0.4277  0.3634  0.4627
  474MOL0     C62438   4.204  11.000   0.832  0.0037 -0.4132 -0.1876
  474MOL0     O62439   4.184  11.082   0.946  0.5119 -0.4342  0.0088
  474MOL0     C62440   4.058  11.093   1.003 -0.2604 -0.0979 -0.0162
  474MOL0     C62441   4.022  11.222   1.036  0.3141  0.1088 -0.4254
  474MOL0     C62442   3.890  11.239   1.087  0.5455 -0.6045 -0.5133
  474MOL0     C62443   3.795  11.139   1.105 -0.9840 -0.1416  0.7852
  474MOL0     O62444   3.663  11.169   1.136 -0.3852 -0.0013 -0.4582
  474MOL0     C62445   3.580  11.060   1.199 -0.3072  0.4687  0.4058
  474MOL0     C62446   3.428  11.113   1.205 -0.4730  0.6714 -0.2858
  474MOL0     C62447   3.323  10.991   1.228  0.1025 -0.0175  0.3816
  474MOL0     C62448   3.180  11.045   1.226  0.2893  0.1502  0.0632
  474MOL0     C62449   3.084  10.928   1.247  0.4800  0.9825  0.3574
  474MOL0     C62450   2.937  10.954   1.246  0.2906  0.1806  0.2713
  474MOL0     C62451   2.869  11.046   1.143  0.0529  0.1578 -0.0579
  474MOL0     C62452   2.721  11.057   1.170  0.5160 -0.0509  0.4329
  474MOL0     N62453   2.692  11.129   1.293 -0.5052  0.0988 -0.1128
  474MOL0     C62454   2.674  11.264   1.312 -0.3089  0.1388 -0.2700
  474MOL0     C62455   2.637  11.272   1.442 -0.0821 -0.0984 -0.5029
  474MOL0     C62456   2.608  11.393   1.520  0.2955 -0.2817  0.5158
  474MOL0     C62457   2.569  11.355   1.668 -0.0936  0.5819  0.9276
  474MOL0     C62458   2.519  11.482   1.733  0.0349  0.2608  0.6813
  474MOL0     C62459   2.506  11.451   1.881 -0.2067 -0.1723 -0.3808
  474MOL0     O62460   2.401  11.355   1.901  0.2099  1.0783  0.0440
  474MOL0     C62461   2.265  11.385   1.887 -0.2205 -0.2383 -0.6580
  474MOL0     C62462   2.188  11.464   1.978 -0.1516 -0.1685  0.4103
  474MOL0     C62463   2.052  11.484   1.969  0.5372  0.4948  0.3010
  474MOL0     C62464   1.976  11.412   1.876  0.8803  0.1183  0.1141
  474MOL0     C62465   1.826  11.427   1.865 -0.0647  0.4092  0.6632
  474MOL0     O62466   1.769  11.511   1.944 -0.2692 -0.9785  0.1751
  474MOL0     C62467   1.637  11.537   1.929 -0.6476  0.3406 -0.2628
  474MOL0     C62468   1.592  11.658   1.978  0.3769 -0.4975 -0.4000
  474MOL0     C62469   1.459  11.689   1.976  0.6409  0.3625 -0.2070
  474MOL0     C62470   1.362  11.598   1.935 -0.7763 -0.3431 -0.0467
  474MOL0     O62471   1.230  11.640   1.932 -0.4261  0.1196  0.3023
  474MOL0     C62472   1.174  11.713   2.036 -0.5249  0.6388 -0.1236
  474MOL0     C62473   1.027  11.744   2.016  0.4130 -0.5304  0.3486
  474MOL0     C62474   0.972  11.828   2.132 -0.6682  0.2320  0.2052
  474MOL0     C62475   0.838  11.896   2.103 -0.7129  0.6565 -0.3589
  474MOL0     C62476   0.808  11.990   2.223  0.1656  0.0334 -0.6204
  474MOL0     C62477   0.645  12.011   2.223 -0.7815 -0.0316 -0.2409
  474MOL0     C62478   0.613  12.055   2.368  0.5938 -1.0698 -0.3000
  474MOL0     C62479   0.471  12.067   2.394  0.4260 -0.1634 -0.0267
  474MOL0    Cl62480   0.381  11.911   2.375 -0.1090 -0.0205  0.6766
  474MOL0     C62481   1.408  11.477   1.888  0.1007 -0.3863  0.8196
  474MOL0     C62482   1.540  11.448   1.888 -0.3258  0.3631  0.5647
  474MOL0     O62483   1.774  11.365   1.772 -0.1377 -0.3648  0.1729
  474MOL0     C62484   2.048  11.323   1.790 -0.2009  0.6085 -0.2638
  474MOL0     C62485   2.189  11.321   1.787  0.0288  0.6756  0.1469
  474MOL0     N62486   2.618  11.144   1.492  0.1332 -0.5997 -0.2611
  474MOL0     N62487   2.642  11.065   1.405 -0.2207 -0.0384 -0.3121
  474MOL0     C62488   3.853  11.012   1.095  0.9852  0.3236 -0.0493
  474MOL0     C62489   3.973  10.987   1.028  0.4318 -0.5019 -0.0769
  474MOL0     C62490   4.333  11.010   0.765  0.1012  0.1607 -0.4072
  474MOL0     C62491   4.346  10.973   0.631 -0.4508  0.8171  0.4066
  474MOL0     C62492   4.467  10.972   0.555  0.3996 -0.0826 -0.6316
  474MOL0     C62493   4.584  11.018   0.616 -0.2249 -0.8529 -0.2928
  474MOL0     O62494   4.694  11.010   0.535  0.1790  0.3503 -0.1646
  474MOL0     C62495   4.722  11.128   0.466  0.3778  0.3643 -0.0190
  474MOL0     C62496   4.856  11.100   0.400  0.4636  0.0556 -0.2916
  474MOL0     C62497   4.967  11.073   0.503 -0.0296  0.0068  0.2882
  474MOL0     C62498   5.095  11.041   0.431  0.1154 -0.5460  0.2105
  474MOL0     C62499   5.127  11.150   0.333  0.9693  0.0407  0.7514
  474MOL0     C62500   5.147  11.227   0.247  0.0749  0.9368 -0.0417
  474MOL0     C62501   4.578  11.067   0.746 -0.3700  0.5752 -0.0315
  474MOL0     C62502   4.459  11.064   0.823  0.9055 -0.4693 -0.2372
  474MOL0     H62503   4.089  11.306   1.021 -0.2574  0.5597 -0.5305
  474MOL0     H62504   3.852  11.340   1.091 -0.8649 -1.1379  0.1725
  474MOL0     H62505   3.616  11.028   1.297  1.0534  0.7794  0.0307
  474MOL0     H62506   3.580  10.972   1.133  2.1474 -0.1797  1.1604
  474MOL0     H62507   3.417  11.149   1.103 -1.8461  0.8131 -0.1091
  474MOL0     H62508   3.418  11.195   1.277  0.9466  1.1072 -0.5531
  474MOL0     H62509   3.326  10.953   1.330 -0.4254  0.6206  0.6461
  474MOL0     H62510   3.341  10.918   1.149 -0.0153  0.7425 -0.3726
  474MOL0     H62511   3.163  11.117   1.306  1.7850  0.5588  0.0235
  474MOL0     H62512   3.167  11.087   1.126  0.9166 -0.8080 -0.4350
  474MOL0     H62513   3.106  10.878   1.341 -0.5578  0.3232  0.2638
  474MOL0     H62514   3.111  10.858   1.168  2.6370  0.0289  1.8374
  474MOL0     H62515   2.920  10.996   1.345  2.7077  0.9524  0.4041
  474MOL0     H62516   2.885  10.858   1.250 -1.6013  1.1986  2.5062
  474MOL0     H62517   2.911  11.147   1.144 -1.3967  0.7771 -0.2184
  474MOL0     H62518   2.892  11.006   1.043 -0.6321 -0.8792  0.1863
  474MOL0     H62519   2.668  10.962   1.159  2.0205 -0.6186 -4.0914
  474MOL0     H62520   2.684  11.118   1.087  1.6903  0.9235  0.6077
  474MOL0     H62521   2.708  11.349   1.253 -1.3366 -0.6759 -2.1116
  474MOL0     H62522   2.527  11.450   1.472 -1.8205 -1.6404  2.2579
  474MOL0     H62523   2.698  11.455   1.524  0.3626 -0.2219 -1.1680
  474MOL0     H62524   2.661  11.313   1.707 -0.9840 -2.3300  0.1698
  474MOL0     H62525   2.496  11.274   1.680 -0.5303  1.1145  2.0181
  474MOL0     H62526   2.590  11.564   1.719 -0.9916  1.1055  0.2358
  474MOL0     H62527   2.425  11.508   1.684  0.8507 -0.5930 -1.4232
  474MOL0     H62528   2.483  11.540   1.940 -0.4060 -0.2380 -0.3566
  474MOL0     H62529   2.599  11.412   1.922 -2.1416 -2.4018  2.3258
  474MOL0     H62530   2.245  11.517   2.053  0.6244  0.3913 -0.5450
  474MOL0     H62531   2.010  11.568   2.024 -1.3012  2.4356 -3.6817
  474MOL0     H62532   1.658  11.730   2.026 -1.5577  2.0305 -1.2957
  474MOL0     H62533   1.430  11.786   2.015  0.7214  1.1619 -2.0607
  474MOL0     H62534   1.218  11.813   2.029 -0.5012  0.6375  0.0059
  474MOL0     H62535   1.190  11.661   2.131  0.2738  1.7021  0.3438
  474MOL0     H62536   0.972  11.651   1.998 -4.0496  2.0548 -1.0730
  474MOL0     H62537   1.016  11.804   1.925 -0.1935 -0.1271  0.6749
  474MOL0     H62538   1.048  11.903   2.155  0.4097 -0.7875  0.0174
  474MOL0     H62539   0.960  11.756   2.213 -2.3229 -0.2108 -0.3905
  474MOL0     H62540   0.857  11.951   2.011  1.4077 -1.3762 -1.2561
  474MOL0     H62541   0.762  11.820   2.086  0.0321 -0.4778  1.1046
  474MOL0     H62542   0.869  12.080   2.215 -0.7201  0.6534 -0.4241
  474MOL0     H62543   0.837  11.938   2.315  0.8343  0.0458 -0.8154
  474MOL0     H62544   0.597  11.914   2.208 -2.1230  0.6477 -0.4188
  474MOL0     H62545   0.613  12.080   2.144 -1.2062  0.2922  0.2124
  474MOL0     H62546   0.658  11.981   2.435 -0.3714 -0.3575  1.1816
  474MOL0     H62547   0.653  12.153   2.397 -2.9329  0.4693 -0.1723
  474MOL0     H62548   0.435  12.140   2.321 -0.1568 -1.2042 -0.8141
  474MOL0     H62549   0.447  12.104   2.494 -1.0877 -1.1719  0.0191
  474MOL0     H62550   1.339  11.407   1.843  0.6107 -1.3388  1.4891
  474MOL0     H62551   1.552  11.342   1.867 -4.3219  0.0037 -0.7395
  474MOL0     H62552   1.996  11.266   1.713  1.5532 -0.0317 -1.0409
  474MOL0     H62553   2.253  11.264   1.720  0.0808  0.2857  0.5241
  474MOL0     H62554   3.802  10.922   1.129 -1.5398  2.5802  2.7601
  474MOL0     H62555   4.008  10.884   1.017  0.5177 -0.4794 -0.0117
  474MOL0     H62556   4.263  10.943   0.567 -1.1360 -1.0877  2.0767
  474MOL0     H62557   4.477  10.948   0.450 -1.9763 -0.8203 -0.7450
  474MOL0     H62558   4.721  11.218   0.527  0.3350  0.5011 -0.2221
  474MOL0     H62559   4.642  11.133   0.392 -0.9189 -1.9721  1.0875
  474MOL0     H62560   4.838  11.011   0.339  0.1174 -0.8846  1.1323
  474MOL0     H62561   4.873  11.184   0.332  3.7279 -0.4667 -0.3094
  474MOL0     H62562   4.942  10.987   0.565 -1.8794  0.3164  0.0355
  474MOL0     H62563   4.974  11.161   0.568 -0.7749 -1.5104  2.5445
  474MOL0     H62564   5.187  11.026   0.489 -0.2691  2.2666  1.7337
  474MOL0     H62565   5.088  10.942   0.385  4.4619 -0.2517 -1.5759
  474MOL0     H62566   5.184  11.281   0.162  2.4670  2.5417  1.8889
  474MOL0     H62567   4.663  11.118   0.791  0.8863 -2.4114  1.3284
  474MOL0     H62568   4.461  11.100   0.926  2.1452 -1.7126  0.2080
  475MOL0     O62569   7.043   8.054   7.693  0.5409  0.4749 -0.1331
  475MOL0     C62570   7.098   8.051   7.799 -0.2388 -0.5119 -0.3420
  475MOL0     O62571   7.069   7.971   7.902 -0.8751 -0.4520  0.3550
  475MOL0     C62572   6.944   7.916   7.907 -0.0687  0.6295  0.6667
  475MOL0     C62573   6.825   7.978   7.876  0.0784  0.4659 -0.8587
  475MOL0     C62574   6.702   7.904   7.889  0.4817  0.2710  0.2778
  475MOL0     C62575   6.698   7.766   7.912  0.8764  0.0063 -0.0155
  475MOL0     O62576   6.586   7.688   7.915 -0.1067 -0.2826 -0.0693
  475MOL0     C62577   6.561   7.615   8.044 -0.2752  0.4006  0.3086
  475MOL0     C62578   6.532   7.698   8.173  1.0764 -0.2951  0.0911
  475MOL0     C62579   6.400   7.787   8.157 -0.1201 -0.0810 -0.4222
  475MOL0     C62580   6.366   7.847   8.296  0.7775 -0.3281 -0.4912
  475MOL0     C62581   6.262   7.956   8.296 -0.5201  0.2069 -0.2318
  475MOL0     C62582   6.119   7.896   8.298 -0.1880 -0.0471 -0.6632
  475MOL0     C62583   6.011   7.997   8.288  0.1971 -0.2865 -0.3681
  475MOL0     C62584   5.876   7.920   8.280  0.2324 -0.2540  0.7148
  475MOL0     N62585   5.766   8.025   8.278  0.1942  0.1810 -0.7605
  475MOL0     C62586   5.680   8.064   8.376 -0.1944 -0.6600  0.4046
  475MOL0     C62587   5.642   8.188   8.340  0.0336 -0.4459  1.4248
  475MOL0     C62588   5.560   8.277   8.427  0.3276 -0.0611 -0.7444
  475MOL0     C62589   5.418   8.309   8.366  0.3380  0.5106  0.2664
  475MOL0     C62590   5.331   8.187   8.378  0.0853 -0.0467  0.5581
  475MOL0     C62591   5.186   8.218   8.339  0.5221 -0.4912 -0.5593
  475MOL0     O62592   5.098   8.102   8.336 -0.3770 -0.3804 -0.1492
  475MOL0     C62593   4.974   8.127   8.287 -0.0283 -0.4786 -0.3603
  475MOL0     C62594   4.905   8.013   8.247 -0.3456 -0.1825  0.0789
  475MOL0     C62595   4.777   8.019   8.196 -0.7093  0.3231 -0.5039
  475MOL0     C62596   4.714   8.139   8.188  0.2793  0.0801  0.1127
  475MOL0     C62597   4.571   8.148   8.166 -0.2782  0.0859  0.1215
  475MOL0     O62598   4.509   8.030   8.161  0.2502  0.6859  0.4455
  475MOL0     C62599   4.373   8.045   8.153  0.1767  0.4461  0.3758
  475MOL0     C62600   4.300   8.027   8.029  0.1030  0.4583  0.0392
  475MOL0     C62601   4.163   8.056   8.031 -0.9580  0.0152  0.1214
  475MOL0     C62602   4.097   8.097   8.148  0.2176  0.2210  1.0895
  475MOL0     O62603   3.966   8.133   8.160 -0.2049 -0.0737 -0.1055
  475MOL0     C62604   3.911   8.191   8.039 -0.4141  0.0633 -0.0730
  475MOL0     C62605   3.781   8.259   8.077 -0.5018  0.7381 -0.2864
  475MOL0     C62606   3.670   8.158   8.117 -0.2714 -1.0103  1.2277
  475MOL0     C62607   3.535   8.227   8.153 -0.0088  0.2581  0.3742
  475MOL0     C62608   3.474   8.272   8.023 -0.2516  0.7416  0.0119
  475MOL0     C62609   3.325   8.284   8.028  0.1410  1.0618  0.2324
  475MOL0     C62610   3.277   8.323   7.890 -0.2814  0.3108 -0.9942
  475MOL0     C62611   3.129   8.334   7.883  0.0063 -0.4460  0.0495
  475MOL0    Cl62612   3.036   8.180   7.918 -0.1576 -0.2664  0.3594
  475MOL0     C62613   4.169   8.102   8.272 -0.5527  0.2917 -0.0104
  475MOL0     C62614   4.307   8.080   8.279 -0.2388 -0.1571  0.7019
  475MOL0     O62615   4.526   8.265   8.152  0.1461 -0.6308 -0.4208
  475MOL0     C62616   4.788   8.259   8.212  0.1390 -0.6104 -0.4277
  475MOL0     C62617   4.917   8.250   8.265  0.9068 -0.2320  0.7652
  475MOL0     N62618   5.684   8.213   8.200 -0.2082 -0.3644 -0.4235
  475MOL0     N62619   5.761   8.116   8.170  0.2402  0.8684 -0.8056
  475MOL0     C62620   6.823   7.703   7.939 -0.7038  0.7735 -0.2981
  475MOL0     C62621   6.939   7.785   7.951  0.8417 -0.5036 -0.3329
  475MOL0     C62622   7.207   8.146   7.798 -0.7023 -0.0766 -0.4569
  475MOL0     C62623   7.213   8.258   7.714 -0.3870  0.2744  0.7741
  475MOL0     C62624   7.321   8.344   7.719 -0.5125 -0.1213  0.2804
  475MOL0     C62625   7.424   8.332   7.811  0.8056 -0.6713 -0.4053
  475MOL0     O62626   7.517   8.429   7.800 -0.6811 -0.0107  0.1025
  475MOL0     C62627   7.609   8.446   7.914  0.7874  0.1391  0.2801
  475MOL0     C62628   7.724   8.538   7.878  0.1866 -0.2059 -0.5413
  475MOL0     C62629   7.822   8.550   7.993 -0.3301  0.3983 -0.4153
  475MOL0     C62630   7.899   8.677   7.992 -0.3786 -0.4884  0.6024
  475MOL0     C62631   7.989   8.686   7.871  0.3388  0.5142  0.7010
  475MOL0     C62632   8.064   8.697   7.773 -0.4849  0.0718 -0.3933
  475MOL0     C62633   7.415   8.227   7.907  0.3619 -0.3717 -0.1109
  475MOL0     C62634   7.303   8.146   7.896 -0.2450  0.2263 -1.0195
  475MOL0     H62635   6.824   8.085   7.855  2.3317  1.4789  3.1835
  475MOL0     H62636   6.609   7.952   7.860  0.7755 -0.3777 -1.9121
  475MOL0     H62637   6.650   7.556   8.067 -1.1588 -0.7715  0.7946
  475MOL0     H62638   6.472   7.554   8.025  0.1455  0.2014 -1.1124
  475MOL0     H62639   6.621   7.760   8.188  0.1123  1.9893 -2.6562
  475MOL0     H62640   6.522   7.634   8.260 -0.2356 -0.1441  0.0758
  475MOL0     H62641   6.321   7.726   8.112 -1.2013 -0.4744  1.8704
  475MOL0     H62642   6.408   7.873   8.089 -1.7174  0.2063 -0.2721
  475MOL0     H62643   6.331   7.770   8.366 -0.8547 -0.8777 -1.8296
  475MOL0     H62644   6.462   7.890   8.324 -0.9612  3.1700  0.7290
  475MOL0     H62645   6.276   8.017   8.205 -0.0053 -0.6343 -0.7276
  475MOL0     H62646   6.279   8.017   8.385 -0.6686 -2.2043  1.5353
  475MOL0     H62647   6.117   7.835   8.390  0.2158 -1.0755 -1.3209
  475MOL0     H62648   6.107   7.823   8.218 -0.9175  1.1819 -1.7057
  475MOL0     H62649   6.011   8.064   8.375 -0.3991  1.5158 -1.6964
  475MOL0     H62650   6.016   8.058   8.198 -0.0193 -2.0704 -1.6425
  475MOL0     H62651   5.851   7.844   8.355  0.3636 -0.3141  0.6990
  475MOL0     H62652   5.871   7.867   8.185 -1.2355 -0.2571  0.7761
  475MOL0     H62653   5.661   8.027   8.477 -0.9491  1.3366  1.0483
  475MOL0     H62654   5.615   8.367   8.456  5.6150 -3.4886  1.5118
  475MOL0     H62655   5.539   8.237   8.527  0.3890  1.0967 -0.2541
  475MOL0     H62656   5.427   8.350   8.265 -2.5308  0.1747 -0.1839
  475MOL0     H62657   5.378   8.387   8.431 -0.6758 -1.7897  2.5476
  475MOL0     H62658   5.361   8.107   8.309 -0.6694 -1.5157  1.8547
  475MOL0     H62659   5.339   8.136   8.474  1.7371  0.0579  0.5153
  475MOL0     H62660   5.180   8.278   8.248 -1.4663  2.0733  1.1460
  475MOL0     H62661   5.152   8.287   8.416 -0.8835 -1.2414 -0.4701
  475MOL0     H62662   4.965   7.922   8.251  1.5575  1.0577  1.8586
  475MOL0     H62663   4.723   7.927   8.177 -0.2948  0.2539 -1.4463
  475MOL0     H62664   4.345   7.997   7.935  1.9903  0.2232  0.9794
  475MOL0     H62665   4.102   8.030   7.944 -2.2122 -2.1080  1.5376
  475MOL0     H62666   3.882   8.120   7.961  3.5196  0.1242 -1.7935
  475MOL0     H62667   3.984   8.262   7.998  0.7598 -1.7974 -1.3303
  475MOL0     H62668   3.745   8.313   7.989 -2.7665  2.0024  1.3006
  475MOL0     H62669   3.796   8.329   8.160 -1.8400  0.6735  0.0418
  475MOL0     H62670   3.705   8.107   8.208  0.3694 -0.3520  1.3589
  475MOL0     H62671   3.653   8.077   8.046 -1.4956 -1.5979  2.1508
  475MOL0     H62672   3.468   8.150   8.192 -1.6655  0.9278 -1.0313
  475MOL0     H62673   3.551   8.311   8.221 -1.3268 -1.0508  2.3977
  475MOL0     H62674   3.503   8.192   7.955  1.0753  0.3090  1.0406
  475MOL0     H62675   3.519   8.362   7.980  1.4042 -0.3345 -0.6116
  475MOL0     H62676   3.297   8.358   8.103  0.8606  1.2417  0.3303
  475MOL0     H62677   3.283   8.192   8.068  1.5512  0.6720  0.8639
  475MOL0     H62678   3.310   8.426   7.871 -3.2184  1.1535 -2.1468
  475MOL0     H62679   3.311   8.253   7.813  0.7138  0.9894 -1.1966
  475MOL0     H62680   3.093   8.348   7.780  0.3329  0.2249  0.0201
  475MOL0     H62681   3.096   8.407   7.958  0.5828 -0.0240 -0.1013
  475MOL0     H62682   4.123   8.114   8.370  0.0880  3.7388  0.0078
  475MOL0     H62683   4.361   8.095   8.372  0.2576 -0.6295  0.4939
  475MOL0     H62684   4.742   8.356   8.193 -0.7345 -1.0360 -0.5869
  475MOL0     H62685   4.965   8.348   8.263 -0.0412  0.2564  1.1227
  475MOL0     H62686   6.828   7.597   7.962  1.7705  1.2217  1.6289
  475MOL0     H62687   7.030   7.735   7.981 -1.0280 -2.6702  2.1315
  475MOL0     H62688   7.142   8.274   7.634  1.5703  2.4176 -0.6561
  475MOL0     H62689   7.311   8.427   7.649  0.7040  1.1594  1.5699
  475MOL0     H62690   7.655   8.350   7.940 -0.4778 -0.7233 -0.5148
  475MOL0     H62691   7.559   8.480   8.005  1.6301 -0.5696  1.0221
  475MOL0     H62692   7.781   8.490   7.798 -1.5483 -4.0140  0.2874
  475MOL0     H62693   7.691   8.633   7.836 -0.5041 -0.9661 -1.7544
  475MOL0     H62694   7.886   8.462   8.004 -0.9625  0.1232  1.3591
  475MOL0     H62695   7.762   8.551   8.085  0.2817  2.0236 -0.0033
  475MOL0     H62696   7.825   8.757   7.997 -0.5476 -0.7370  3.1975
  475MOL0     H62697   7.959   8.690   8.082  0.4835  2.1517 -0.2584
  475MOL0     H62698   8.133   8.712   7.693  0.1342  1.6150  0.3873
  475MOL0     H62699   7.478   8.199   7.991  0.9399  1.3598  0.0704
  475MOL0     H62700   7.300   8.066   7.969  5.1706  0.3528 -0.3003
  476MOL0     O62701   0.239   2.512   5.063 -0.2609 -0.0282 -0.0421
  476MOL0     C62702   0.275   2.527   5.177 -0.4629  0.3362  0.8411
  476MOL0     O62703   0.398   2.556   5.221  0.2881  0.5747 -0.5774
  476MOL0     C62704   0.510   2.561   5.145  0.6398  0.5652 -0.2288
  476MOL0     C62705   0.602   2.663   5.172 -0.5301 -0.3358 -0.5001
  476MOL0     C62706   0.713   2.676   5.093  0.2276 -0.7878  0.2850
  476MOL0     C62707   0.749   2.572   5.008 -0.1876 -0.0449 -0.0630
  476MOL0     O62708   0.867   2.564   4.942 -0.0809  0.1030 -0.0039
  476MOL0     C62709   0.984   2.625   5.002 -0.3101  0.9866 -0.6993
  476MOL0     C62710   1.099   2.530   5.007 -0.6374  0.0484  0.0837
  476MOL0     C62711   1.066   2.422   5.104  0.1463  0.2527  0.0600
  476MOL0     C62712   1.183   2.321   5.120  0.2972  0.6499 -0.0875
  476MOL0     C62713   1.130   2.186   5.154  0.4464 -0.3309 -0.9653
  476MOL0     C62714   1.236   2.085   5.123  0.1989 -0.0337  0.9918
  476MOL0     C62715   1.207   1.943   5.176  0.2555 -0.5280 -0.2958
  476MOL0     C62716   1.189   1.940   5.333  0.9304 -0.5940 -0.0838
  476MOL0     N62717   1.172   1.801   5.381  1.1793  0.4352  0.2704
  476MOL0     C62718   1.089   1.705   5.308  0.7337 -0.6391 -0.0890
  476MOL0     C62719   1.105   1.595   5.373 -0.2984 -0.5789 -0.4831
  476MOL0     C62720   1.040   1.461   5.349  0.0923 -0.6949  0.4063
  476MOL0     C62721   0.886   1.453   5.361  0.3834  0.1192 -1.3861
  476MOL0     C62722   0.844   1.310   5.369  0.5274 -0.4988 -0.3296
  476MOL0     C62723   0.695   1.287   5.382 -0.2684  0.0520 -0.0206
  476MOL0     O62724   0.618   1.316   5.264 -0.0427 -0.4112  0.0284
  476MOL0     C62725   0.481   1.295   5.268 -0.0404  0.1147 -0.6304
  476MOL0     C62726   0.405   1.351   5.370  0.2775  0.3952 -0.5362
  476MOL0     C62727   0.261   1.348   5.363 -0.5886  0.9038 -1.3376
  476MOL0     C62728   0.197   1.287   5.256 -0.3995  0.0131 -0.0809
  476MOL0     C62729   0.055   1.287   5.227 -0.0371 -0.3532  0.9930
  476MOL0     O62730   0.002   1.198   5.150  0.5269 -0.7625 -0.2420
  476MOL0     C62731  -0.133   1.169   5.163 -0.3945 -0.3166 -0.6685
  476MOL0     C62732  -0.204   1.143   5.049  0.7716 -1.0126  0.4531
  476MOL0     C62733  -0.339   1.107   5.051  1.0023  0.1748 -0.2275
  476MOL0     C62734  -0.414   1.101   5.171  0.0809  0.6639  0.0825
  476MOL0     O62735  -0.545   1.065   5.166  0.0752  0.2570  0.0779
  476MOL0     C62736  -0.620   1.058   5.286 -0.0600  0.3168 -0.2277
  476MOL0     C62737  -0.768   1.034   5.265 -0.5565 -0.4022  0.5559
  476MOL0     C62738  -0.832   1.003   5.400  0.5064  0.5207 -0.2762
  476MOL0     C62739  -0.985   0.972   5.374  0.1142 -0.1514 -0.3794
  476MOL0     C62740  -1.082   1.088   5.375 -0.3862  0.2857 -0.0208
  476MOL0     C62741  -1.225   1.056   5.348  0.5969  0.1893 -0.5601
  476MOL0     C62742  -1.306   1.187   5.331  0.0756 -0.0106  0.5298
  476MOL0     C62743  -1.455   1.168   5.301  0.2441  0.5492  0.5504
  476MOL0    Cl62744  -1.541   1.113   5.453 -0.0383 -0.1882 -0.0127
  476MOL0     C62745  -0.341   1.120   5.286  0.4389 -0.0565 -0.8138
  476MOL0     C62746  -0.204   1.161   5.286  0.2528  0.0295 -0.5544
  476MOL0     O62747  -0.016   1.377   5.273  0.3644  0.5139 -0.0167
  476MOL0     C62748   0.278   1.227   5.154 -0.3720  0.3948  0.2417
  476MOL0     C62749   0.418   1.225   5.162 -0.5917  0.6016  0.4507
  476MOL0     N62750   1.188   1.626   5.476  0.5127  0.5735 -0.2202
  476MOL0     N62751   1.229   1.743   5.484  0.4132 -0.4419  0.2206
  476MOL0     C62752   0.657   2.470   4.982 -1.0439 -0.2000  0.0132
  476MOL0     C62753   0.543   2.458   5.054  0.3654 -0.2947  0.5324
  476MOL0     C62754   0.174   2.523   5.283  0.8606  0.6870 -0.7821
  476MOL0     C62755   0.189   2.587   5.406  0.4221 -0.5950  0.5418
  476MOL0     C62756   0.080   2.584   5.501 -0.0511 -1.5940  0.7152
  476MOL0     C62757  -0.042   2.524   5.471  0.7784  0.0434  0.5691
  476MOL0     O62758  -0.152   2.532   5.551 -0.3675  0.6551  0.5418
  476MOL0     C62759  -0.124   2.538   5.693 -0.2430  0.0419  0.3622
  476MOL0     C62760  -0.247   2.520   5.771 -0.2572 -0.0813  0.6504
  476MOL0     C62761  -0.295   2.375   5.754  0.0345  0.2049  0.2826
  476MOL0     C62762  -0.398   2.340   5.858  0.1879 -0.1128 -0.4446
  476MOL0     C62763  -0.448   2.203   5.830 -0.2868 -0.5398 -0.4632
  476MOL0     C62764  -0.491   2.091   5.813  0.6984 -0.2013  0.1753
  476MOL0     C62765  -0.054   2.452   5.347  0.2474 -0.1211 -1.1384
  476MOL0     C62766   0.055   2.450   5.260 -0.6791 -0.3500 -0.4888
  476MOL0     H62767   0.571   2.744   5.238  0.5192 -0.7005  0.4697
  476MOL0     H62768   0.772   2.765   5.111 -1.7213  0.5511  0.3231
  476MOL0     H62769   0.964   2.667   5.101 -0.2749  0.3212 -0.4025
  476MOL0     H62770   1.013   2.708   4.938  1.9777  0.7779 -0.0158
  476MOL0     H62771   1.193   2.579   5.032  0.3944 -1.8552  0.1672
  476MOL0     H62772   1.115   2.479   4.911  2.2853 -0.2460  0.6479
  476MOL0     H62773   0.980   2.367   5.065  0.2954  0.3592 -0.4221
  476MOL0     H62774   1.025   2.464   5.197  1.5973 -2.2950  1.9810
  476MOL0     H62775   1.241   2.334   5.028 -0.0780  5.1469  0.0772
  476MOL0     H62776   1.249   2.356   5.200 -1.0255  0.3678  1.1512
  476MOL0     H62777   1.044   2.162   5.091  1.7072 -0.3938 -2.7444
  476MOL0     H62778   1.112   2.182   5.262 -0.1599  0.8634 -1.0073
  476MOL0     H62779   1.331   2.116   5.167  0.3159 -1.1029  1.5405
  476MOL0     H62780   1.249   2.076   5.015  0.0556  0.4059  0.9366
  476MOL0     H62781   1.111   1.907   5.137 -1.9796  3.5861  0.8269
  476MOL0     H62782   1.283   1.876   5.135 -2.1349 -3.9013  0.3436
  476MOL0     H62783   1.092   1.987   5.356 -0.2426 -1.8337 -2.1835
  476MOL0     H62784   1.263   1.992   5.394  0.0820 -1.1769  1.5228
  476MOL0     H62785   1.036   1.731   5.216 -0.9758  1.3141  1.3467
  476MOL0     H62786   1.083   1.396   5.426  3.6971 -0.0549 -0.8457
  476MOL0     H62787   1.065   1.427   5.248  1.4088  1.3484 -0.0274
  476MOL0     H62788   0.837   1.506   5.279 -1.7043 -1.1694 -1.0581
  476MOL0     H62789   0.850   1.499   5.453  0.6541 -0.3473 -1.0459
  476MOL0     H62790   0.868   1.260   5.275  1.7428 -3.2565  1.3314
  476MOL0     H62791   0.898   1.253   5.445  0.3046 -0.7650 -0.3704
  476MOL0     H62792   0.661   1.346   5.468  3.0355 -1.5987  2.7039
  476MOL0     H62793   0.688   1.181   5.409  0.3361  0.3912  1.6199
  476MOL0     H62794   0.457   1.398   5.452  2.5240 -3.0196  0.2138
  476MOL0     H62795   0.202   1.384   5.447  0.9910  0.2730  0.1056
  476MOL0     H62796  -0.143   1.153   4.960 -1.5574 -1.0487 -1.2066
  476MOL0     H62797  -0.385   1.077   4.957  2.9599 -3.1722 -0.3203
  476MOL0     H62798  -0.614   1.153   5.340 -1.0433 -0.6584  1.7122
  476MOL0     H62799  -0.579   0.984   5.356 -0.4457  1.0306  0.7857
  476MOL0     H62800  -0.770   0.949   5.195  0.7070 -0.3141  0.3900
  476MOL0     H62801  -0.816   1.125   5.228 -1.5096 -0.6574  1.1459
  476MOL0     H62802  -0.818   1.082   5.474 -0.1360 -0.8318  1.3647
  476MOL0     H62803  -0.788   0.911   5.440  2.0683  0.9957 -0.8241
  476MOL0     H62804  -0.985   0.926   5.275  3.1022 -2.1632  0.4133
  476MOL0     H62805  -1.019   0.900   5.449  1.7530 -0.3163  0.2575
  476MOL0     H62806  -1.055   1.167   5.304 -0.3492  1.1398  0.9106
  476MOL0     H62807  -1.087   1.122   5.479 -1.1496 -1.7239  0.6544
  476MOL0     H62808  -1.266   0.998   5.431  0.4694 -1.2701 -1.5936
  476MOL0     H62809  -1.239   0.989   5.262  2.7387 -0.8577 -0.1585
  476MOL0     H62810  -1.305   1.253   5.418 -1.2453  2.2647 -1.0885
  476MOL0     H62811  -1.255   1.238   5.249 -0.8393 -0.3708 -0.2803
  476MOL0     H62812  -1.464   1.090   5.225 -0.0606 -0.2363  1.3833
  476MOL0     H62813  -1.505   1.256   5.260 -1.4511 -0.3056  0.7223
  476MOL0     H62814  -0.382   1.107   5.386  2.0582 -2.4002 -0.3684
  476MOL0     H62815  -0.138   1.167   5.372 -0.1162 -2.2925 -0.0505
  476MOL0     H62816   0.239   1.195   5.058 -0.2166  1.7291 -0.3009
  476MOL0     H62817   0.473   1.193   5.074 -0.7042  1.7576 -0.0671
  476MOL0     H62818   0.695   2.398   4.910  0.5125  3.3496 -3.0710
  476MOL0     H62819   0.476   2.378   5.023 -0.2868  0.7764 -0.9655
  476MOL0     H62820   0.279   2.643   5.428  0.5809  0.2833 -1.9157
  476MOL0     H62821   0.100   2.643   5.590 -2.3313 -0.2918  0.4400
  476MOL0     H62822  -0.084   2.638   5.713 -0.6416  0.9129 -2.6245
  476MOL0     H62823  -0.040   2.473   5.718  2.2245  1.9564 -2.2292
  476MOL0     H62824  -0.244   2.549   5.877 -2.8571  1.6503  0.3342
  476MOL0     H62825  -0.327   2.584   5.732  0.8036  1.5727  1.0914
  476MOL0     H62826  -0.206   2.312   5.766  0.4475  0.9808  1.4877
  476MOL0     H62827  -0.331   2.361   5.652  0.9168  0.0136 -0.0134
  476MOL0     H62828  -0.343   2.343   5.952  0.3217  1.2334 -0.5511
  476MOL0     H62829  -0.481   2.410   5.870  1.6384  1.3752  1.3988
  476MOL0     H62830  -0.530   1.995   5.787 -2.4077  0.1719  2.7898
  476MOL0     H62831  -0.152   2.407   5.333 -1.0438  1.3747  2.1486
  476MOL0     H62832   0.057   2.401   5.163 -1.1619 -1.7640  0.1783
  477MOL0     O62833   2.633   8.468   5.818  0.4157 -0.4392 -0.4102
  477MOL0     C62834   2.728   8.445   5.745  0.7217  1.5792  0.4036
  477MOL0     O62835   2.727   8.451   5.609 -0.0433  0.0744  0.1057
  477MOL0     C62836   2.611   8.495   5.551  0.7860 -0.5974  0.3492
  477MOL0     C62837   2.570   8.631   5.549 -1.0288  0.0564  0.2335
  477MOL0     C62838   2.452   8.669   5.483 -0.4674  0.2354 -0.7870
  477MOL0     C62839   2.368   8.568   5.423  0.2070  0.0918  0.5201
  477MOL0     O62840   2.252   8.608   5.360  0.3169 -0.0778  0.4850
  477MOL0     C62841   2.141   8.525   5.385 -0.2311  0.5191  0.1651
  477MOL0     C62842   2.006   8.600   5.357 -0.0118 -0.8581 -0.0468
  477MOL0     C62843   1.891   8.511   5.397 -0.3052  0.9961  0.0717
  477MOL0     C62844   1.752   8.567   5.364  0.1590 -0.8111 -0.2955
  477MOL0     C62845   1.647   8.458   5.375  0.5498  0.6783 -0.1704
  477MOL0     C62846   1.507   8.498   5.409 -0.6861 -0.6966 -0.0046
  477MOL0     C62847   1.394   8.422   5.324 -0.2351 -0.3535 -0.5670
  477MOL0     C62848   1.251   8.452   5.371  0.7849  0.1276  0.0496
  477MOL0     N62849   1.157   8.376   5.293 -0.2872 -0.3921  0.5615
  477MOL0     C62850   1.080   8.268   5.338 -0.2955  0.0827  0.3518
  477MOL0     C62851   0.999   8.250   5.230 -0.0495 -0.7622  0.0734
  477MOL0     C62852   0.881   8.149   5.222  0.2915 -0.0584  0.3761
  477MOL0     C62853   0.789   8.184   5.090 -0.2239 -1.1332 -0.8164
  477MOL0     C62854   0.667   8.102   5.111 -0.5326 -1.1468  1.0825
  477MOL0     C62855   0.564   8.140   4.992 -0.2305 -0.3735 -0.3918
  477MOL0     O62856   0.496   8.256   5.040  0.1564 -0.0616  0.1195
  477MOL0     C62857   0.359   8.266   5.022 -0.1335  0.0263  0.4530
  477MOL0     C62858   0.301   8.213   4.903 -0.5026  0.4907  0.0323
  477MOL0     C62859   0.162   8.220   4.881  0.1767 -1.1627  0.4563
  477MOL0     C62860   0.079   8.275   4.981 -1.0398  0.4994  0.6330
  477MOL0     C62861  -0.068   8.288   4.960  0.1667 -0.2255  0.0787
  477MOL0     O62862  -0.137   8.371   5.051  0.2053 -0.6186  0.8228
  477MOL0     C62863  -0.268   8.417   5.033  0.5520  0.1176 -0.4243
  477MOL0     C62864  -0.305   8.536   5.103  0.2107  0.6071 -0.1777
  477MOL0     C62865  -0.439   8.575   5.117 -0.5045 -0.5037 -0.1518
  477MOL0     C62866  -0.535   8.498   5.062 -0.1081 -0.2853 -0.1839
  477MOL0     O62867  -0.668   8.520   5.098  0.7491  0.2661 -0.5718
  477MOL0     C62868  -0.756   8.501   4.989  0.3276 -0.6086 -0.2822
  477MOL0     C62869  -0.896   8.563   5.012  0.8647 -0.3923  0.1927
  477MOL0     C62870  -0.982   8.491   5.126 -0.0009 -0.1280  0.2242
  477MOL0     C62871  -1.133   8.519   5.117 -0.4001  0.7319 -0.8284
  477MOL0     C62872  -1.205   8.422   5.217 -0.9336  0.3760  0.6623
  477MOL0     C62873  -1.345   8.468   5.241  0.7055  0.7906 -0.0952
  477MOL0     C62874  -1.441   8.354   5.277 -0.3858 -0.4261  0.4061
  477MOL0     C62875  -1.569   8.395   5.349  0.0824 -0.3336  0.5044
  477MOL0    Cl62876  -1.548   8.538   5.445 -0.1111 -0.2996  0.2456
  477MOL0     C62877  -0.506   8.384   4.988  0.6473  0.0459  0.2922
  477MOL0     C62878  -0.373   8.346   4.972  0.4806  0.9069  0.2704
  477MOL0     O62879  -0.115   8.216   4.870  0.1287 -0.1746 -0.0529
  477MOL0     C62880   0.138   8.321   5.097  0.1653  0.7117  0.3075
  477MOL0     C62881   0.279   8.323   5.121  0.0259 -0.3863 -0.3016
  477MOL0     N62882   1.030   8.334   5.129  0.1187  0.4730  0.3391
  477MOL0     N62883   1.119   8.413   5.166 -1.2493 -0.7513 -0.2998
  477MOL0     C62884   2.410   8.432   5.427 -0.5533  0.0759 -0.5554
  477MOL0     C62885   2.535   8.402   5.483 -0.5453  0.4658 -0.0877
  477MOL0     C62886   2.843   8.399   5.817 -0.4062 -0.4963  0.5928
  477MOL0     C62887   2.964   8.381   5.751  0.7932 -0.0061  0.5904
  477MOL0     C62888   3.074   8.325   5.812 -0.1316  0.2648 -0.1489
  477MOL0     C62889   3.085   8.305   5.948 -0.2307 -1.2394  0.1909
  477MOL0     O62890   3.199   8.274   6.022 -0.6734  0.2174  0.8167
  477MOL0     C62891   3.302   8.187   5.975  0.3154  0.3020  0.1343
  477MOL0     C62892   3.417   8.269   5.943 -0.2833 -0.7679 -0.0270
  477MOL0     C62893   3.533   8.182   5.879  0.0271 -0.6335  0.2052
  477MOL0     C62894   3.657   8.274   5.872 -0.1360  0.1771  0.0408
  477MOL0     C62895   3.777   8.195   5.853 -0.4866  1.2016  0.7377
  477MOL0     C62896   3.883   8.139   5.842  0.2297 -0.8699  0.5216
  477MOL0     C62897   2.973   8.342   6.020  0.1968  0.1087 -0.1224
  477MOL0     C62898   2.848   8.379   5.958 -0.2927 -0.2327  0.1526
  477MOL0     H62899   2.638   8.705   5.591  1.7988 -1.8261 -0.7070
  477MOL0     H62900   2.421   8.773   5.486 -0.8970  0.1121  2.6381
  477MOL0     H62901   2.146   8.478   5.484 -0.3082  2.1927  0.9843
  477MOL0     H62902   2.151   8.444   5.312 -3.4350  0.6435 -0.5583
  477MOL0     H62903   2.001   8.609   5.248  1.9730 -0.9580 -0.1703
  477MOL0     H62904   1.994   8.697   5.405  1.2250  0.6491 -2.5579
  477MOL0     H62905   1.891   8.493   5.504 -1.5557 -0.8959 -0.2025
  477MOL0     H62906   1.903   8.417   5.342 -0.5985  1.2830 -0.5026
  477MOL0     H62907   1.724   8.646   5.434  0.8679  0.1833 -1.1039
  477MOL0     H62908   1.750   8.618   5.268 -1.1653  0.5933  0.4435
  477MOL0     H62909   1.676   8.393   5.459  0.5739  1.3676  0.3604
  477MOL0     H62910   1.650   8.389   5.290  2.1416  0.6282 -0.1052
  477MOL0     H62911   1.487   8.603   5.388  1.9450 -0.0359  0.5471
  477MOL0     H62912   1.487   8.489   5.516 -1.6551 -1.1348 -0.2020
  477MOL0     H62913   1.394   8.447   5.218 -3.2445 -0.1026 -0.6039
  477MOL0     H62914   1.418   8.317   5.346  1.8356  0.5344  1.8068
  477MOL0     H62915   1.234   8.559   5.355 -0.8658  0.2054  1.9696
  477MOL0     H62916   1.236   8.442   5.479 -1.3137  2.1950  0.0404
  477MOL0     H62917   1.077   8.219   5.435 -2.3331 -1.3135 -0.3558
  477MOL0     H62918   0.833   8.164   5.319  0.6831 -0.4024  0.6229
  477MOL0     H62919   0.928   8.051   5.213 -1.5379 -0.9300 -0.1813
  477MOL0     H62920   0.847   8.153   5.003  3.2046 -0.9280  1.2125
  477MOL0     H62921   0.770   8.291   5.106  2.6517 -0.9333  2.8551
  477MOL0     H62922   0.686   7.997   5.089  0.7131 -0.7467  0.1271
  477MOL0     H62923   0.618   8.115   5.208  0.9739 -0.1239  1.7487
  477MOL0     H62924   0.503   8.049   4.989  1.2743 -1.5197  1.3480
  477MOL0     H62925   0.624   8.148   4.901  1.9745  1.9424  1.1423
  477MOL0     H62926   0.369   8.169   4.831  0.3504 -0.3210  1.2927
  477MOL0     H62927   0.120   8.166   4.797  0.9555 -3.9467  1.7457
  477MOL0     H62928  -0.233   8.589   5.164  1.3665 -0.3142 -0.6942
  477MOL0     H62929  -0.467   8.657   5.183 -3.9228 -1.9166  0.3871
  477MOL0     H62930  -0.774   8.395   4.968  6.1310 -1.8850 -0.4464
  477MOL0     H62931  -0.707   8.540   4.899  2.3709  2.2200  1.8981
  477MOL0     H62932  -0.955   8.571   4.920  0.7597 -2.9894 -0.0314
  477MOL0     H62933  -0.879   8.664   5.051  1.9512 -0.3382 -0.3952
  477MOL0     H62934  -0.937   8.526   5.219  2.0806 -0.4736 -0.6024
  477MOL0     H62935  -0.975   8.382   5.123 -2.3672 -0.3394  0.3845
  477MOL0     H62936  -1.155   8.621   5.148 -4.0278  0.8335 -3.1628
  477MOL0     H62937  -1.180   8.495   5.021 -1.1500 -0.4744 -0.1930
  477MOL0     H62938  -1.153   8.412   5.312  0.7844 -1.2570 -0.3706
  477MOL0     H62939  -1.197   8.320   5.178  1.6238  1.4830 -2.0486
  477MOL0     H62940  -1.381   8.517   5.150  2.2581  0.1955 -1.0611
  477MOL0     H62941  -1.335   8.542   5.321  1.4842 -0.6887  1.2362
  477MOL0     H62942  -1.464   8.295   5.188 -0.4024 -0.2350  0.2851
  477MOL0     H62943  -1.390   8.291   5.352 -0.5904  0.5222  1.3716
  477MOL0     H62944  -1.592   8.307   5.409  1.8611 -1.0743  0.1785
  477MOL0     H62945  -1.645   8.422   5.275  1.8083  1.7169 -0.6504
  477MOL0     H62946  -0.582   8.332   4.931 -0.3229  3.2226 -1.5083
  477MOL0     H62947  -0.363   8.252   4.919  1.4258  1.0180  0.2406
  477MOL0     H62948   0.070   8.360   5.173 -0.0613  1.2452 -0.1608
  477MOL0     H62949   0.311   8.357   5.219 -2.1569  1.7719 -0.2476
  477MOL0     H62950   2.348   8.356   5.380 -0.8305  0.1289 -0.2813
  477MOL0     H62951   2.562   8.297   5.490 -2.2475 -0.0452 -0.6680
  477MOL0     H62952   2.966   8.386   5.643  0.2442 -0.0494  0.5719
  477MOL0     H62953   3.153   8.284   5.751  1.3001  2.3333  0.1999
  477MOL0     H62954   3.277   8.121   5.890 -0.5492  0.5121  0.2179
  477MOL0     H62955   3.322   8.127   6.064  2.4643  1.7060  0.6662
  477MOL0     H62956   3.388   8.351   5.876 -1.5920 -1.7060 -0.6515
  477MOL0     H62957   3.444   8.310   6.041  2.3177 -1.1492 -0.5097
  477MOL0     H62958   3.520   8.144   5.777  1.1482 -1.6118  0.4084
  477MOL0     H62959   3.554   8.100   5.948 -1.6194 -0.1578  1.3412
  477MOL0     H62960   3.650   8.346   5.790 -1.3099 -0.7177 -0.6702
  477MOL0     H62961   3.659   8.331   5.966 -3.8822  1.7774 -0.6835
  477MOL0     H62962   3.984   8.112   5.819  0.2029  0.1044 -0.8598
  477MOL0     H62963   2.986   8.313   6.124  2.3082 -0.6129 -0.5356
  477MOL0     H62964   2.762   8.387   6.024 -0.9971  0.1948 -0.7740
  478MOL0     O62965   9.198   4.610  10.294  0.2580 -0.1442 -0.1829
  478MOL0     C62966   9.282   4.557  10.226 -0.3806  1.1829 -0.2039
  478MOL0     O62967   9.249   4.448  10.143 -0.3719 -0.2901  0.3109
  478MOL0     C62968   9.126   4.394  10.123 -0.1562  0.4086  0.5727
  478MOL0     C62969   9.026   4.461  10.053  0.3355  0.8212  0.5767
  478MOL0     C62970   8.908   4.392  10.031  0.9524 -0.2285  0.2237
  478MOL0     C62971   8.883   4.262  10.073 -0.3403 -0.2247  0.6988
  478MOL0     O62972   8.763   4.211  10.028 -0.6252 -0.1305  0.1511
  478MOL0     C62973   8.651   4.276  10.081 -0.5541  0.1842 -0.5460
  478MOL0     C62974   8.530   4.187  10.071 -0.2349 -0.0814 -0.2156
  478MOL0     C62975   8.413   4.271  10.137  0.2433  0.6714  0.3419
  478MOL0     C62976   8.293   4.191  10.160  1.2960 -0.3898  0.1425
  478MOL0     C62977   8.168   4.282  10.182 -0.4439 -0.0779 -0.7993
  478MOL0     C62978   8.059   4.231  10.283  0.4580  0.1648  0.1717
  478MOL0     C62979   7.992   4.101  10.223 -0.3381 -0.8815 -0.5791
  478MOL0     C62980   7.872   4.054  10.312  0.1301  0.2285 -0.2448
  478MOL0     N62981   7.745   4.125  10.297  0.1668 -0.1115  0.2872
  478MOL0     C62982   7.668   4.132  10.185  0.3693  0.0447  0.2361
  478MOL0     C62983   7.540   4.164  10.220  0.0436 -0.1373 -1.5174
  478MOL0     C62984   7.417   4.184  10.137 -0.2679 -0.3658  0.3053
  478MOL0     C62985   7.441   4.321  10.070  0.9381  0.2732  0.3555
  478MOL0     C62986   7.332   4.369   9.981 -0.1189  0.9561 -0.4279
  478MOL0     C62987   7.347   4.305   9.837 -0.2094  0.5471  0.0971
  478MOL0     O62988   7.228   4.339   9.762  0.5626  0.5809 -0.6758
  478MOL0     C62989   7.100   4.287   9.788  0.5536 -0.9820 -0.5840
  478MOL0     C62990   7.074   4.195   9.885 -0.5263  0.4480 -0.2694
  478MOL0     C62991   6.950   4.132   9.901  1.1994 -0.6810 -0.0290
  478MOL0     C62992   6.846   4.179   9.812  0.9592  0.2298  1.0378
  478MOL0     C62993   6.701   4.147   9.826  0.1490  0.2765  0.6994
  478MOL0     O62994   6.662   4.093   9.941  0.3992  0.0895  0.4599
  478MOL0     C62995   6.527   4.076   9.958 -0.6095  0.2252 -0.1439
  478MOL0     C62996   6.468   3.953   9.938  0.4909 -0.9454 -0.5263
  478MOL0     C62997   6.332   3.937   9.964  0.3464  0.1210 -0.3593
  478MOL0     C62998   6.249   4.043  10.007  0.1130 -0.0155 -0.8405
  478MOL0     O62999   6.121   4.008  10.040 -0.1164 -0.3368  1.1360
  478MOL0     C63000   6.027   4.113  10.054  0.3057  0.1790 -0.2797
  478MOL0     C63001   5.898   4.038  10.052  0.1121  0.7020 -0.5070
  478MOL0     C63002   5.860   3.995   9.917  0.1442  0.2546  0.4203
  478MOL0     C63003   5.729   3.909   9.914  0.2849  0.1782  0.0510
  478MOL0     C63004   5.673   3.871   9.772 -0.8020 -0.3073 -0.1044
  478MOL0     C63005   5.538   3.800   9.788 -0.2233  0.3065 -0.1037
  478MOL0     C63006   5.481   3.742   9.663 -0.3759  0.2162  0.3891
  478MOL0     C63007   5.350   3.664   9.681  0.0174 -0.2531 -0.3737
  478MOL0    Cl63008   5.212   3.762   9.696 -0.6554 -0.5306 -0.2394
  478MOL0     C63009   6.316   4.171  10.022  0.6428 -0.1737  0.5524
  478MOL0     C63010   6.452   4.185   9.999  0.3390 -0.5872 -0.2629
  478MOL0     O63011   6.624   4.185   9.733  0.1791  0.3417 -0.4504
  478MOL0     C63012   6.880   4.269   9.710  0.6335 -0.3386  0.5821
  478MOL0     C63013   7.004   4.319   9.696 -0.5652  0.1067  0.0268
  478MOL0     N63014   7.550   4.186  10.355  1.0284  0.2520  0.0103
  478MOL0     N63015   7.667   4.169  10.401 -0.6236 -0.5565 -0.9085
  478MOL0     C63016   8.980   4.203  10.147 -1.4436  0.4517 -1.0203
  478MOL0     C63017   9.099   4.269  10.171 -0.4412 -0.5254  0.3702
  478MOL0     C63018   9.416   4.593  10.234 -0.0379 -0.8864 -0.3936
  478MOL0     C63019   9.446   4.731  10.258  0.1436  0.6640  0.1314
  478MOL0     C63020   9.578   4.777  10.275 -0.2489  0.2508 -0.0612
  478MOL0     C63021   9.681   4.683  10.264  0.1334 -0.5756 -0.1595
  478MOL0     O63022   9.812   4.722  10.291 -0.1173 -0.3032 -0.1877
  478MOL0     C63023   9.853   4.700  10.424 -0.0801 -0.6029 -0.8961
  478MOL0     C63024  10.010   4.699  10.427 -0.4151  0.1428  0.3563
  478MOL0     C63025  10.078   4.820  10.374  0.0006  0.5270 -0.7092
  478MOL0     C63026  10.232   4.795  10.371 -1.4637 -0.8625 -0.0087
  478MOL0     C63027  10.321   4.906  10.337  0.6164  0.0227  0.7890
  478MOL0     C63028  10.408   4.994  10.318  0.0504 -0.2960  0.0216
  478MOL0     C63029   9.655   4.548  10.240 -0.4531 -0.3751  0.3228
  478MOL0     C63030   9.531   4.503  10.218  0.7162  0.4555  0.1838
  478MOL0     H63031   9.042   4.559  10.011 -0.0464  1.3396  1.6123
  478MOL0     H63032   8.842   4.439   9.959 -0.2442 -0.3872  1.1737
  478MOL0     H63033   8.633   4.372  10.031 -0.0141  0.9445  0.6496
  478MOL0     H63034   8.658   4.299  10.188  0.1833  2.3200 -1.0115
  478MOL0     H63035   8.543   4.097  10.131 -1.8581  0.0964  0.4479
  478MOL0     H63036   8.500   4.164   9.968  1.2403 -1.7753 -0.3038
  478MOL0     H63037   8.392   4.352  10.067 -0.9217  0.1579  0.0855
  478MOL0     H63038   8.446   4.307  10.235  3.6650  0.2070 -0.4989
  478MOL0     H63039   8.269   4.131  10.071  2.0691 -1.2484  0.5084
  478MOL0     H63040   8.311   4.121  10.242  0.8659 -1.9436 -1.0403
  478MOL0     H63041   8.120   4.293  10.084 -1.1900  4.3884 -0.1395
  478MOL0     H63042   8.207   4.381  10.207  0.5432 -0.3852 -1.0404
  478MOL0     H63043   7.983   4.308  10.299  0.1054  0.0566 -0.9286
  478MOL0     H63044   8.101   4.195  10.378 -0.2898  1.9413  1.2327
  478MOL0     H63045   7.963   4.122  10.120  2.9016  0.1089 -1.4154
  478MOL0     H63046   8.058   4.013  10.219 -2.2247 -2.3482 -0.5361
  478MOL0     H63047   7.889   4.051  10.420  1.0585  0.1841 -0.3897
  478MOL0     H63048   7.854   3.948  10.289 -0.4626  0.5299 -1.2208
  478MOL0     H63049   7.699   4.126  10.082  0.7341  0.6186  0.3072
  478MOL0     H63050   7.324   4.180  10.194 -2.1888  0.6632 -2.5157
  478MOL0     H63051   7.402   4.109  10.059 -0.8410  0.4014 -0.3380
  478MOL0     H63052   7.538   4.319  10.019  0.6960  0.8616 -0.1476
  478MOL0     H63053   7.448   4.401  10.144 -0.8778 -1.2946  2.3119
  478MOL0     H63054   7.234   4.353  10.026 -0.6090  1.2334 -1.3735
  478MOL0     H63055   7.334   4.478   9.971 -0.8572  1.1042  0.8460
  478MOL0     H63056   7.368   4.198   9.844  2.5509  1.0935  1.8261
  478MOL0     H63057   7.430   4.364   9.797 -2.0501  3.2994  0.0375
  478MOL0     H63058   7.157   4.168   9.950  1.7940  2.6581 -2.1029
  478MOL0     H63059   6.928   4.056   9.976  0.4699  1.5142  2.1270
  478MOL0     H63060   6.532   3.872   9.904  3.1642 -0.2582  2.3769
  478MOL0     H63061   6.294   3.836   9.953  3.2349 -0.8358 -2.9454
  478MOL0     H63062   6.024   4.178   9.966 -0.3159 -0.0529 -0.4328
  478MOL0     H63063   6.043   4.180  10.139 -2.8694  0.5610  0.1149
  478MOL0     H63064   5.825   4.093  10.112  1.3486  1.9537 -0.1020
  478MOL0     H63065   5.905   3.944  10.108  0.9844  1.8417  1.3879
  478MOL0     H63066   5.937   3.934   9.867 -0.3723  1.1457 -1.5830
  478MOL0     H63067   5.837   4.085   9.859 -0.9907 -1.5853 -2.2182
  478MOL0     H63068   5.726   3.822   9.980  2.2817  1.8646  2.5533
  478MOL0     H63069   5.658   3.971   9.970  1.7276 -1.6134  4.2781
  478MOL0     H63070   5.755   3.809   9.733 -0.0802 -0.2896  1.3176
  478MOL0     H63071   5.662   3.959   9.708 -0.9459 -0.9542 -0.9777
  478MOL0     H63072   5.469   3.873   9.832 -0.6301  0.6976 -1.3426
  478MOL0     H63073   5.556   3.711   9.849  1.8817  0.4020 -0.4937
  478MOL0     H63074   5.469   3.822   9.589  0.8412 -1.1582 -1.3802
  478MOL0     H63075   5.550   3.668   9.623 -2.1432 -0.7607 -1.0024
  478MOL0     H63076   5.360   3.600   9.769 -2.3663  0.2446  0.3099
  478MOL0     H63077   5.334   3.612   9.586 -1.8615  1.0014 -0.7974
  478MOL0     H63078   6.266   4.261  10.056 -1.4671 -0.5884 -1.2258
  478MOL0     H63079   6.503   4.280  10.012 -0.0377 -0.5007  0.6588
  478MOL0     H63080   6.814   4.310   9.634  2.3868 -0.1110 -0.8771
  478MOL0     H63081   7.030   4.390   9.617  0.7998  0.0614  0.4134
  478MOL0     H63082   8.972   4.099  10.179 -0.1311  0.3870 -0.8569
  478MOL0     H63083   9.178   4.216  10.224 -0.7248 -0.0408  1.2920
  478MOL0     H63084   9.365   4.802  10.278 -2.9555 -3.3288  3.7047
  478MOL0     H63085   9.607   4.879  10.298  2.3605  0.0882 -2.1407
  478MOL0     H63086   9.813   4.604  10.461 -0.7230  0.4370  1.2947
  478MOL0     H63087   9.804   4.768  10.495  1.2671  1.3597 -1.7685
  478MOL0     H63088  10.042   4.682  10.530 -2.0010 -0.0970  0.8418
  478MOL0     H63089  10.039   4.611  10.370 -0.9135  0.0700  0.2099
  478MOL0     H63090  10.072   4.907  10.441  2.2031  1.8449 -2.0896
  478MOL0     H63091  10.032   4.853  10.280  0.7250  1.5173 -0.7391
  478MOL0     H63092  10.274   4.755  10.463  1.9790 -0.1139 -1.1105
  478MOL0     H63093  10.245   4.726  10.286 -2.1635  1.9059 -2.5509
  478MOL0     H63094  10.470   5.082  10.309 -1.1547  0.7560  1.4005
  478MOL0     H63095   9.733   4.473  10.238  2.2199  2.0968  2.5775
  478MOL0     H63096   9.507   4.399  10.197 -0.5938  1.1592 -2.2381
  479MOL0     O63097   2.772   7.062  11.188 -0.3464 -0.0764 -0.3100
  479MOL0     C63098   2.754   6.938  11.195  0.0149 -0.1219  0.2569
  479MOL0     O63099   2.638   6.875  11.237  0.0384 -0.2028 -0.2805
  479MOL0     C63100   2.521   6.935  11.226  0.2882 -0.5363 -0.4613
  479MOL0     C63101   2.428   6.889  11.318  0.3309  0.3813 -0.6535
  479MOL0     C63102   2.297   6.929  11.322  0.3748  0.0436 -0.8913
  479MOL0     C63103   2.248   7.029  11.244 -0.7467 -0.2436 -0.6042
  479MOL0     O63104   2.121   7.072  11.264  0.5926  0.2507 -0.5950
  479MOL0     C63105   2.047   7.123  11.152  0.1589 -0.1787 -0.3842
  479MOL0     C63106   1.903   7.059  11.156  0.2053  0.6316 -0.3689
  479MOL0     C63107   1.795   7.143  11.097  0.4532 -0.0518  0.4941
  479MOL0     C63108   1.659   7.106  11.140  0.3904  0.2300  0.5575
  479MOL0     C63109   1.549   7.186  11.073  0.0845  0.0468  0.1870
  479MOL0     C63110   1.420   7.158  11.140  0.2732 -0.3119 -0.1942
  479MOL0     C63111   1.311   7.240  11.073 -0.1004 -0.4708  0.3096
  479MOL0     C63112   1.172   7.233  11.142 -0.1700 -0.0051 -0.4376
  479MOL0     N63113   1.074   7.322  11.100  0.0012  1.0724 -0.3929
  479MOL0     C63114   1.032   7.426  11.178  0.3253 -0.3335  0.3486
  479MOL0     C63115   0.923   7.478  11.112  0.2728 -0.2217 -0.3255
  479MOL0     C63116   0.823   7.588  11.151 -0.3606  0.3837  0.6869
  479MOL0     C63117   0.744   7.527  11.279  0.3300 -0.1921  0.5698
  479MOL0     C63118   0.613   7.606  11.316 -0.4827  0.5353 -0.0862
  479MOL0     C63119   0.566   7.557  11.449 -1.2578  0.5290 -0.2206
  479MOL0     O63120   0.446   7.632  11.468  0.1861 -0.2994 -0.3810
  479MOL0     C63121   0.352   7.583  11.559 -0.5155  0.0898 -0.8134
  479MOL0     C63122   0.364   7.463  11.635  0.6760  0.1588  0.2708
  479MOL0     C63123   0.251   7.400  11.701  0.1536 -0.6790 -0.5577
  479MOL0     C63124   0.132   7.479  11.714  1.0134  0.9410  1.1597
  479MOL0     C63125   0.018   7.428  11.792  0.6682 -0.0341 -0.1619
  479MOL0     O63126  -0.087   7.512  11.801 -0.1370 -0.3934  0.2107
  479MOL0     C63127  -0.205   7.476  11.868  0.1438 -0.5908  0.5200
  479MOL0     C63128  -0.245   7.344  11.890  0.3921  0.2363  0.2969
  479MOL0     C63129  -0.373   7.321  11.944  0.3093 -0.2302 -0.2329
  479MOL0     C63130  -0.465   7.425  11.970 -0.1700 -0.7407 -0.4971
  479MOL0     O63131  -0.587   7.413  12.023 -0.1688 -0.6054 -0.8279
  479MOL0     C63132  -0.663   7.293  12.000 -0.4706  0.3569  0.8338
  479MOL0     C63133  -0.812   7.319  12.025 -0.0211 -0.4845  0.4512
  479MOL0     C63134  -0.891   7.183  12.017 -0.4669 -0.1924 -0.5082
  479MOL0     C63135  -1.042   7.191  12.015 -0.2508 -0.3914 -0.4688
  479MOL0     C63136  -1.118   7.060  12.003  0.0529  1.3877 -0.7647
  479MOL0     C63137  -1.254   7.082  11.918 -0.2374 -0.3240  0.0320
  479MOL0     C63138  -1.337   6.948  11.918  0.8045 -0.6291 -0.1823
  479MOL0     C63139  -1.483   6.977  11.875 -0.1420 -0.4870  0.9179
  479MOL0    Cl63140  -1.550   7.093  11.999  0.1935 -0.1554 -0.3035
  479MOL0     C63141  -0.418   7.556  11.938  0.1367 -0.0765 -0.9299
  479MOL0     C63142  -0.290   7.581  11.895 -0.0449 -0.1287 -0.8619
  479MOL0     O63143   0.038   7.327  11.868 -0.9773 -0.2741 -0.1719
  479MOL0     C63144   0.124   7.611  11.654 -0.1773  1.4660  0.7146
  479MOL0     C63145   0.231   7.654  11.574 -0.5606 -0.5182 -0.4383
  479MOL0     N63146   0.914   7.410  10.993 -0.4519 -0.1126  0.2114
  479MOL0     N63147   1.003   7.315  10.988  0.0133 -0.2914  0.3115
  479MOL0     C63148   2.341   7.091  11.144  0.2113 -0.1146  1.2396
  479MOL0     C63149   2.473   7.041  11.137  0.6363  0.9218 -0.6201
  479MOL0     C63150   2.859   6.858  11.131 -0.2879 -0.7793  0.0986
  479MOL0     C63151   2.995   6.899  11.113 -0.9364 -0.4763  0.4758
  479MOL0     C63152   3.091   6.822  11.052  0.6129  0.3854  0.3715
  479MOL0     C63153   3.062   6.695  11.002 -0.0177 -0.3838 -0.8349
  479MOL0     O63154   3.135   6.624  10.921 -0.4348 -0.1911  0.3137
  479MOL0     C63155   3.266   6.603  10.969 -0.1741 -0.0259 -0.6462
  479MOL0     C63156   3.313   6.472  10.901 -0.0131 -0.7177 -0.8545
  479MOL0     C63157   3.427   6.407  10.972  0.3371  0.8977  0.5784
  479MOL0     C63158   3.470   6.270  10.914 -0.2509  1.1545  0.2740
  479MOL0     C63159   3.601   6.228  10.957 -0.6937  0.7736 -0.4959
  479MOL0     C63160   3.713   6.195  11.009  0.3247  0.2348  0.2094
  479MOL0     C63161   2.931   6.652  11.017 -0.0987 -0.2526  0.0550
  479MOL0     C63162   2.833   6.732  11.079  0.0332  1.0720 -0.3176
  479MOL0     H63163   2.456   6.810  11.387  1.0149 -0.5992 -2.0009
  479MOL0     H63164   2.224   6.904  11.399  0.0875  5.4859  1.0301
  479MOL0     H63165   2.084   7.105  11.051  0.9858  3.5034 -0.8731
  479MOL0     H63166   2.029   7.229  11.174 -1.7114 -0.2050 -1.5604
  479MOL0     H63167   1.875   7.032  11.258 -1.4886  0.1079 -0.9376
  479MOL0     H63168   1.907   6.969  11.094 -0.5461 -0.4649  1.1172
  479MOL0     H63169   1.794   7.131  10.989  1.2788  1.2767  0.3030
  479MOL0     H63170   1.814   7.248  11.123 -1.2322  0.7835 -1.4739
  479MOL0     H63171   1.638   7.004  11.106  3.4404  0.4347 -2.4268
  479MOL0     H63172   1.657   7.128  11.247  0.9429  0.5150  0.5132
  479MOL0     H63173   1.547   7.169  10.965 -0.0779 -1.3836  0.4019
  479MOL0     H63174   1.579   7.287  11.102  1.4432  0.0940 -1.2100
  479MOL0     H63175   1.422   7.172  11.249  0.1241 -1.7006  0.0141
  479MOL0     H63176   1.392   7.055  11.114  0.5049  0.2498 -2.9268
  479MOL0     H63177   1.330   7.347  11.086  0.3370 -0.2642 -1.7934
  479MOL0     H63178   1.303   7.202  10.971  1.9499  1.4366 -0.6519
  479MOL0     H63179   1.197   7.249  11.247 -2.2810  0.0531  0.1051
  479MOL0     H63180   1.127   7.133  11.140 -0.7416  0.1284  2.1579
  479MOL0     H63181   1.069   7.460  11.274 -0.1964 -1.4528  0.9695
  479MOL0     H63182   0.758   7.621  11.069  1.8437 -0.1414 -1.3853
  479MOL0     H63183   0.873   7.681  11.180  1.3168  0.6649 -2.5703
  479MOL0     H63184   0.804   7.508  11.368 -0.4178 -2.7286  0.6227
  479MOL0     H63185   0.713   7.432  11.233 -0.7932  0.8995 -1.0179
  479MOL0     H63186   0.644   7.710  11.329  1.8292 -0.1385  0.2713
  479MOL0     H63187   0.542   7.607  11.233 -1.1133  3.0255  0.4165
  479MOL0     H63188   0.635   7.586  11.528  1.7735  0.1817 -2.5467
  479MOL0     H63189   0.558   7.448  11.441 -1.9547  0.5655 -0.0608
  479MOL0     H63190   0.450   7.398  11.621 -1.1744 -2.1105 -1.4875
  479MOL0     H63191   0.271   7.302  11.744  0.6193  0.4708  2.0462
  479MOL0     H63192  -0.178   7.259  11.881  2.3982  1.3627  3.0174
  479MOL0     H63193  -0.424   7.228  11.965 -2.2236  1.1039 -0.1869
  479MOL0     H63194  -0.637   7.216  12.073 -0.7968  1.3450  2.0276
  479MOL0     H63195  -0.654   7.265  11.895  1.1121  2.9746  0.1777
  479MOL0     H63196  -0.854   7.397  11.961 -1.5325 -1.0807  0.6725
  479MOL0     H63197  -0.831   7.352  12.128 -1.7114  1.6887 -0.4636
  479MOL0     H63198  -0.864   7.122  12.103 -1.4053 -0.3974 -0.3430
  479MOL0     H63199  -0.862   7.125  11.929 -3.8592 -0.5421 -1.5285
  479MOL0     H63200  -1.079   7.255  12.095 -0.7108 -0.5025 -0.5909
  479MOL0     H63201  -1.064   7.249  11.924  0.8671  1.3224  0.2938
  479MOL0     H63202  -1.137   7.023  12.104 -2.3021  3.5538 -0.3199
  479MOL0     H63203  -1.056   6.985  11.952  0.4960  1.6050 -0.5401
  479MOL0     H63204  -1.227   7.099  11.813 -2.8484 -0.3545 -0.7201
  479MOL0     H63205  -1.307   7.171  11.952  1.3216  1.3625 -1.7464
  479MOL0     H63206  -1.284   6.872  11.859 -1.4302 -0.9113 -1.9819
  479MOL0     H63207  -1.332   6.918  12.023  1.8557 -0.9254 -0.3060
  479MOL0     H63208  -1.538   6.882  11.878  0.0616 -0.7117 -1.0994
  479MOL0     H63209  -1.470   7.019  11.775  1.9039  0.6761  1.6156
  479MOL0     H63210  -0.481   7.640  11.967 -1.3362 -1.4128 -0.0877
  479MOL0     H63211  -0.271   7.685  11.869  1.1849 -0.5290 -1.6422
  479MOL0     H63212   0.037   7.676  11.651 -1.2899  0.0084 -0.5174
  479MOL0     H63213   0.235   7.748  11.520 -1.7857 -0.6704 -0.8335
  479MOL0     H63214   2.324   7.173  11.075  4.1766 -1.1597 -1.3267
  479MOL0     H63215   2.548   7.093  11.078  1.2704  2.6762  1.6146
  479MOL0     H63216   3.032   6.996  11.143  0.3777 -0.7631 -0.1745
  479MOL0     H63217   3.194   6.855  11.043 -0.3517  3.1665 -2.5948
  479MOL0     H63218   3.267   6.583  11.077 -3.7076  1.9178 -0.0595
  479MOL0     H63219   3.336   6.683  10.943  3.3971 -2.1591  1.6145
  479MOL0     H63220   3.229   6.404  10.889 -2.9383  2.8993 -3.0463
  479MOL0     H63221   3.351   6.501  10.803 -3.6376 -0.3745 -2.3141
  479MOL0     H63222   3.395   6.377  11.072 -0.4585 -3.7628 -0.8425
  479MOL0     H63223   3.510   6.478  10.966  2.7383 -1.7353  0.4985
  479MOL0     H63224   3.390   6.198  10.932  0.6986 -0.2310 -0.7946
  479MOL0     H63225   3.474   6.272  10.805 -1.4329 -1.4980  0.1134
  479MOL0     H63226   3.815   6.184  11.037  0.1320  1.5841  1.5284
  479MOL0     H63227   2.903   6.552  10.984 -0.0590 -0.4004  0.4662
  479MOL0     H63228   2.730   6.697  11.084  1.0055 -1.8829  2.5677
  480MOL0     O63229   0.787   2.587   4.422 -0.0536 -0.3819  0.2409
  480MOL0     C63230   0.847   2.699   4.421 -0.3611  0.5467  0.4218
  480MOL0     O63231   0.809   2.807   4.490 -0.0356  0.4588 -0.5924
  480MOL0     C63232   0.689   2.801   4.557  0.4159  0.4068  0.5915
  480MOL0     C63233   0.696   2.774   4.695  0.2807  0.4696 -0.6601
  480MOL0     C63234   0.572   2.779   4.769  0.7529  0.1148 -0.9595
  480MOL0     C63235   0.448   2.802   4.704  0.3656 -0.1503 -0.2880
  480MOL0     O63236   0.320   2.784   4.754 -0.4647 -0.4365 -0.1864
  480MOL0     C63237   0.294   2.797   4.890 -0.4349 -0.0221  0.0324
  480MOL0     C63238   0.141   2.780   4.908 -0.7538  0.5410  0.0388
  480MOL0     C63239   0.108   2.817   5.051  0.3409  0.5104  0.2693
  480MOL0     C63240  -0.043   2.770   5.081  0.1684 -0.3878  0.5605
  480MOL0     C63241  -0.084   2.804   5.227  0.7064 -0.3710 -0.1676
  480MOL0     C63242  -0.224   2.750   5.266  0.2508 -0.2046  0.5034
  480MOL0     C63243  -0.279   2.801   5.396  0.6553 -0.2021  0.2152
  480MOL0     C63244  -0.424   2.758   5.398 -0.0904 -0.4622 -0.1709
  480MOL0     N63245  -0.476   2.820   5.521 -0.3365  0.3598 -0.3355
  480MOL0     C63246  -0.506   2.953   5.534  0.1881  0.0372  0.6968
  480MOL0     C63247  -0.577   2.963   5.654  0.2502  0.8472 -0.1287
  480MOL0     C63248  -0.638   3.089   5.710  0.3544  0.1481 -1.2410
  480MOL0     C63249  -0.782   3.112   5.683  0.0545 -0.1707 -0.3511
  480MOL0     C63250  -0.851   2.983   5.734 -0.0119 -0.1606  0.0174
  480MOL0     C63251  -0.997   2.990   5.691 -1.1266  0.5535  0.4263
  480MOL0     O63252  -1.057   3.107   5.738 -0.0040  0.1678 -0.5147
  480MOL0     C63253  -1.192   3.110   5.717 -0.1592  0.3017  1.2213
  480MOL0     C63254  -1.243   3.219   5.642 -1.2394  0.5391  0.0826
  480MOL0     C63255  -1.375   3.224   5.621  0.7804  0.0797  0.7474
  480MOL0     C63256  -1.470   3.144   5.695 -0.2635 -0.1556  0.0048
  480MOL0     C63257  -1.615   3.163   5.682 -0.3078  0.1818  0.3659
  480MOL0     O63258  -1.699   3.082   5.760 -0.8075 -0.4615  0.0735
  480MOL0     C63259  -1.830   3.079   5.745  1.0358 -0.6422 -0.2346
  480MOL0     C63260  -1.897   2.967   5.808 -0.5675  1.7753 -0.5869
  480MOL0     C63261  -2.037   2.949   5.794  0.2014  0.7033 -0.1615
  480MOL0     C63262  -2.119   3.023   5.707 -0.6413  1.2569 -0.3624
  480MOL0     O63263  -2.250   2.989   5.696  0.6201 -0.3461  0.0384
  480MOL0     C63264  -2.293   2.937   5.567 -0.2170  0.0476 -0.2245
  480MOL0     C63265  -2.410   3.004   5.502 -0.3779  0.6978 -0.1270
  480MOL0     C63266  -2.543   2.986   5.564  0.5278  0.3268  0.6518
  480MOL0     C63267  -2.660   3.047   5.495 -1.1550  0.1417  0.6026
  480MOL0     C63268  -2.795   3.059   5.575 -0.2225 -0.5557 -0.0057
  480MOL0     C63269  -2.815   2.937   5.671 -0.2463  0.5748 -0.5147
  480MOL0     C63270  -2.963   2.960   5.716 -0.4513  0.6803  0.3335
  480MOL0     C63271  -3.025   2.840   5.781  0.8063 -0.1698  0.1791
  480MOL0    Cl63272  -2.928   2.753   5.908  0.0031  0.2840  0.2693
  480MOL0     C63273  -2.053   3.120   5.638 -0.5418  0.1228 -0.1079
  480MOL0     C63274  -1.916   3.159   5.660  0.1481 -0.3964  0.6359
  480MOL0     O63275  -1.651   3.241   5.599  0.4516 -0.1299  0.2010
  480MOL0     C63276  -1.419   3.042   5.771  0.7065  0.3207 -0.1543
  480MOL0     C63277  -1.283   3.020   5.779 -0.4176 -0.1496 -0.5579
  480MOL0     N63278  -0.573   2.829   5.714 -0.0428  0.0338  0.3206
  480MOL0     N63279  -0.520   2.745   5.630 -0.3381  0.3283  0.4939
  480MOL0     C63280   0.456   2.828   4.568  0.1844  1.0919 -0.3796
  480MOL0     C63281   0.570   2.821   4.490  0.2244 -0.4245 -1.0217
  480MOL0     C63282   0.981   2.690   4.348  0.6284  0.3852  0.0801
  480MOL0     C63283   1.084   2.778   4.370 -0.5510  0.0802  0.4893
  480MOL0     C63284   1.197   2.781   4.284 -0.4971 -0.8167  0.6036
  480MOL0     C63285   1.206   2.694   4.182 -0.5962  0.1823  0.4580
  480MOL0     O63286   1.312   2.694   4.088  0.1247  0.2138 -0.0979
  480MOL0     C63287   1.409   2.801   4.103  0.2106  0.1019  0.0413
  480MOL0     C63288   1.506   2.813   3.978  0.3129  0.5618 -0.4513
  480MOL0     C63289   1.611   2.702   3.960 -0.4221 -0.4192  0.4084
  480MOL0     C63290   1.733   2.728   4.040 -0.4511  0.3333 -0.2537
  480MOL0     C63291   1.814   2.854   4.009  0.1319 -0.4751 -0.9533
  480MOL0     C63292   1.861   2.965   3.978 -0.6073 -0.3879  0.1855
  480MOL0     C63293   1.112   2.588   4.167  0.0619 -0.0533 -0.0269
  480MOL0     C63294   1.002   2.591   4.253 -0.4278  0.3372  0.2218
  480MOL0     H63295   0.794   2.749   4.733  1.1376  2.3798 -1.4521
  480MOL0     H63296   0.569   2.749   4.873 -0.0290 -3.1487 -1.8175
  480MOL0     H63297   0.336   2.891   4.925 -1.9453 -0.3573  3.1414
  480MOL0     H63298   0.346   2.722   4.949  0.1850  0.8955  0.6734
  480MOL0     H63299   0.109   2.676   4.898 -0.8621  0.6463 -0.7542
  480MOL0     H63300   0.088   2.844   4.837 -0.1008  2.5033  1.2121
  480MOL0     H63301   0.125   2.924   5.063 -0.7947  0.8599 -1.0388
  480MOL0     H63302   0.172   2.766   5.124 -1.6293  1.1807  2.5854
  480MOL0     H63303  -0.107   2.823   5.010  0.9417 -1.7861 -1.2537
  480MOL0     H63304  -0.063   2.663   5.069 -1.1711 -0.1645  0.6736
  480MOL0     H63305  -0.080   2.913   5.230  2.8026 -0.3830 -1.1636
  480MOL0     H63306  -0.006   2.768   5.295  1.6953 -0.1271 -1.1423
  480MOL0     H63307  -0.221   2.641   5.279 -0.9681 -0.2469  0.5096
  480MOL0     H63308  -0.287   2.771   5.180 -0.4798 -2.7174  0.3260
  480MOL0     H63309  -0.232   2.756   5.483 -1.2887  1.0590  2.0195
  480MOL0     H63310  -0.268   2.910   5.395 -2.1438  0.2461  2.4454
  480MOL0     H63311  -0.437   2.650   5.398  0.9936 -0.6404 -1.8324
  480MOL0     H63312  -0.466   2.811   5.311  3.2507 -0.8999 -2.2179
  480MOL0     H63313  -0.487   3.028   5.458 -1.9516 -0.3606 -0.3240
  480MOL0     H63314  -0.580   3.170   5.665  2.1522 -1.2049 -1.4750
  480MOL0     H63315  -0.615   3.098   5.817 -4.7358 -3.0692  0.5107
  480MOL0     H63316  -0.793   3.140   5.578 -2.4691 -2.4788 -0.8143
  480MOL0     H63317  -0.813   3.202   5.737 -0.2184 -0.0732 -0.6659
  480MOL0     H63318  -0.814   2.890   5.691 -2.5693  0.1907 -3.3667
  480MOL0     H63319  -0.843   2.983   5.843  1.5216  0.6648 -0.0803
  480MOL0     H63320  -1.047   2.895   5.711  1.0297 -0.5399  0.9358
  480MOL0     H63321  -1.001   2.994   5.581 -1.5822  1.7907  0.4704
  480MOL0     H63322  -1.176   3.293   5.597 -0.5139 -0.6324 -0.8098
  480MOL0     H63323  -1.414   3.298   5.551  0.9502 -0.9203 -0.4430
  480MOL0     H63324  -1.833   2.908   5.872 -1.7965  2.9011  1.7871
  480MOL0     H63325  -2.097   2.872   5.840 -0.4359  1.8901  1.0565
  480MOL0     H63326  -2.323   2.834   5.591  0.5381 -0.3512 -0.9294
  480MOL0     H63327  -2.216   2.919   5.491 -0.9680 -2.8017 -0.4454
  480MOL0     H63328  -2.414   2.976   5.396  0.2993  0.6427 -0.1415
  480MOL0     H63329  -2.397   3.112   5.500 -1.2241  0.8392  1.1584
  480MOL0     H63330  -2.530   3.035   5.661 -0.5248  0.7155  0.6098
  480MOL0     H63331  -2.564   2.879   5.572 -0.6453  0.1672 -2.8586
  480MOL0     H63332  -2.623   3.142   5.454  1.9479 -1.1678  0.1412
  480MOL0     H63333  -2.675   2.989   5.404 -0.8790  0.5573  0.2853
  480MOL0     H63334  -2.879   3.066   5.505 -2.1346 -1.7244  2.0690
  480MOL0     H63335  -2.789   3.150   5.636 -2.0598 -1.9757  2.4644
  480MOL0     H63336  -2.748   2.924   5.757 -0.1651  3.3485 -0.0582
  480MOL0     H63337  -2.807   2.841   5.618 -1.9024  0.8916 -1.4009
  480MOL0     H63338  -2.963   3.039   5.792 -3.0172 -0.4124  1.5967
  480MOL0     H63339  -3.033   2.999   5.641  0.6881  1.9604 -0.1190
  480MOL0     H63340  -3.049   2.770   5.700 -0.1689  1.3301 -0.8667
  480MOL0     H63341  -3.121   2.870   5.824  1.7528  3.0531  0.2716
  480MOL0     H63342  -2.126   3.166   5.572 -1.6214  0.8963  1.5336
  480MOL0     H63343  -1.878   3.236   5.593 -1.0977  0.7186  1.1545
  480MOL0     H63344  -1.484   2.969   5.819  0.1809 -1.0736 -2.8008
  480MOL0     H63345  -1.248   2.928   5.825 -1.2840  0.2415  0.9383
  480MOL0     H63346   0.361   2.845   4.517 -0.5702 -0.1312  0.5757
  480MOL0     H63347   0.568   2.848   4.384  1.5252 -0.2369 -1.0128
  480MOL0     H63348   1.078   2.858   4.443 -0.8269 -1.1499  1.8531
  480MOL0     H63349   1.265   2.863   4.302 -2.8179  1.2495  0.3936
  480MOL0     H63350   1.474   2.778   4.188  0.1865 -1.9676 -0.4523
  480MOL0     H63351   1.355   2.896   4.103 -1.0287 -0.5539 -1.3838
  480MOL0     H63352   1.453   2.822   3.883  0.5232  2.3754 -0.4198
  480MOL0     H63353   1.551   2.910   4.000  0.3050  0.3628  0.4926
  480MOL0     H63354   1.636   2.686   3.855  2.1579 -0.5102  0.9908
  480MOL0     H63355   1.565   2.605   3.980 -0.6335 -0.2817  0.6115
  480MOL0     H63356   1.694   2.729   4.142  0.0743  0.7005 -0.0499
  480MOL0     H63357   1.805   2.647   4.027 -0.2717  0.3071  0.7641
  480MOL0     H63358   1.910   3.050   3.937  0.9358 -0.8870  0.9253
  480MOL0     H63359   1.133   2.519   4.086 -0.9604 -0.1225 -0.2499
  480MOL0     H63360   0.933   2.508   4.236  2.0804 -1.5612 -1.3221
  481MOL0     O63361   9.870   5.250   5.903 -0.3231  0.3163  0.0967
  481MOL0     C63362   9.917   5.265   5.789 -0.4173  0.6991  0.1333
  481MOL0     O63363   9.856   5.285   5.668  0.1783 -0.0078 -0.9915
  481MOL0     C63364   9.719   5.278   5.671  0.0470  0.3811  0.1177
  481MOL0     C63365   9.634   5.386   5.704  0.7284  0.4423 -0.1901
  481MOL0     C63366   9.496   5.366   5.725 -0.9275 -0.2303 -0.2360
  481MOL0     C63367   9.447   5.238   5.712  0.6296 -0.7322  0.0282
  481MOL0     O63368   9.310   5.230   5.739  0.2310  0.2744 -0.2553
  481MOL0     C63369   9.258   5.092   5.764  0.4130 -0.3630 -0.3707
  481MOL0     C63370   9.120   5.108   5.826 -0.7654 -0.4425 -0.6381
  481MOL0     C63371   9.044   4.975   5.829 -0.8499  0.9347  0.5275
  481MOL0     C63372   8.903   4.982   5.880 -0.8665 -0.0273  0.4847
  481MOL0     C63373   8.831   4.853   5.859  0.3481  0.1855 -0.3894
  481MOL0     C63374   8.684   4.879   5.896 -0.3921 -0.5173 -0.1628
  481MOL0     C63375   8.608   4.744   5.917 -0.5397 -0.9225  0.3685
  481MOL0     C63376   8.467   4.779   5.964  0.6043  0.5775 -0.5407
  481MOL0     N63377   8.377   4.811   5.854  0.2192  0.7270  0.4198
  481MOL0     C63378   8.339   4.933   5.810 -0.3747  0.2835  0.2172
  481MOL0     C63379   8.280   4.915   5.699  0.2212  0.0765  0.5385
  481MOL0     C63380   8.231   5.026   5.615  0.1909 -1.1327 -0.1482
  481MOL0     C63381   8.119   5.106   5.678  0.8779  0.1410  0.0077
  481MOL0     C63382   8.081   5.216   5.580  0.3265 -1.0839 -0.3556
  481MOL0     C63383   7.959   5.285   5.624  0.4673  0.4456  0.1551
  481MOL0     O63384   7.848   5.194   5.638  0.4889 -0.4603  0.0820
  481MOL0     C63385   7.765   5.170   5.536  1.0739 -0.1727 -0.0327
  481MOL0     C63386   7.783   5.214   5.399 -0.2016  0.5287 -0.2204
  481MOL0     C63387   7.690   5.186   5.302 -0.0783  0.8863  0.3450
  481MOL0     C63388   7.568   5.125   5.332  0.4304 -0.7641  0.5738
  481MOL0     C63389   7.463   5.096   5.242 -0.0940 -0.9577  0.1817
  481MOL0     O63390   7.354   5.024   5.279  0.4840  0.2181 -0.0036
  481MOL0     C63391   7.233   5.028   5.221 -0.2720 -0.1803  0.8765
  481MOL0     C63392   7.145   4.926   5.271  0.6654  0.1762  0.3755
  481MOL0     C63393   7.012   4.915   5.229  0.3016 -0.6799 -0.1981
  481MOL0     C63394   6.963   5.017   5.146  0.0742 -0.3266  0.0829
  481MOL0     O63395   6.832   5.017   5.105  0.4924 -0.3797  0.7439
  481MOL0     C63396   6.721   4.983   5.189  0.3305  0.7014  0.5809
  481MOL0     C63397   6.682   4.831   5.176  0.8178  0.3755 -0.8175
  481MOL0     C63398   6.563   4.785   5.270 -0.3437 -0.5098 -0.4044
  481MOL0     C63399   6.578   4.812   5.424  0.4602 -0.7996  0.1638
  481MOL0     C63400   6.466   4.738   5.497  0.1300  0.1031  0.1021
  481MOL0     C63401   6.325   4.799   5.466 -0.0863 -1.0056 -0.3473
  481MOL0     C63402   6.209   4.727   5.524  0.1722  0.4041 -0.7843
  481MOL0     C63403   6.177   4.744   5.674  0.9037 -1.2647 -0.2139
  481MOL0    Cl63404   6.096   4.903   5.688  0.2121 -0.3648  0.2057
  481MOL0     C63405   7.053   5.113   5.088  0.7552  0.8199  0.2279
  481MOL0     C63406   7.182   5.117   5.122 -0.2611  0.3624 -0.2755
  481MOL0     O63407   7.477   5.148   5.134 -0.4058 -0.3198  0.7063
  481MOL0     C63408   7.542   5.092   5.470  0.8658  0.3443 -0.8606
  481MOL0     C63409   7.641   5.117   5.566 -0.0457 -0.1879 -0.1350
  481MOL0     N63410   8.263   4.778   5.674 -0.1752  0.1081  0.2588
  481MOL0     N63411   8.319   4.717   5.777  0.9426 -0.3182  0.1725
  481MOL0     C63412   9.526   5.130   5.681 -0.3233  0.3968  0.4422
  481MOL0     C63413   9.664   5.148   5.670 -0.6066 -0.5485  0.3285
  481MOL0     C63414  10.067   5.258   5.776 -0.1456  0.5988  0.6766
  481MOL0     C63415  10.136   5.172   5.860  0.0202 -0.0829 -0.0330
  481MOL0     C63416  10.280   5.177   5.860 -0.7321  0.7246  0.5099
  481MOL0     C63417  10.348   5.256   5.768  0.5309 -0.3618  0.0530
  481MOL0     O63418  10.485   5.252   5.766  0.5927 -1.2378  0.9108
  481MOL0     C63419  10.539   5.141   5.692  0.5296  0.4130 -0.8167
  481MOL0     C63420  10.680   5.111   5.710 -0.5699 -0.2008  0.2275
  481MOL0     C63421  10.721   5.001   5.613 -0.4297 -0.9078 -0.3606
  481MOL0     C63422  10.856   4.948   5.666  0.4553 -0.6813  0.2138
  481MOL0     C63423  10.957   5.055   5.675  0.2908  0.5746  0.2486
  481MOL0     C63424  11.044   5.136   5.650  0.0825  0.9334  0.1100
  481MOL0     C63425  10.276   5.338   5.677  0.5872  0.4908 -0.3351
  481MOL0     C63426  10.135   5.337   5.684  0.4151 -0.1616  0.2115
  481MOL0     H63427   9.675   5.485   5.725 -0.1872  0.2964  2.6785
  481MOL0     H63428   9.436   5.452   5.753  1.8935  2.0269 -0.6673
  481MOL0     H63429   9.321   5.043   5.839 -1.4698 -0.2000  1.3987
  481MOL0     H63430   9.255   5.045   5.665  1.4254  0.6350 -0.8995
  481MOL0     H63431   9.072   5.177   5.757  0.7057  0.4623 -0.7964
  481MOL0     H63432   9.126   5.153   5.926  3.8841 -2.4943  0.2761
  481MOL0     H63433   9.102   4.892   5.870  0.0170  1.3806  0.2245
  481MOL0     H63434   9.037   4.950   5.723 -1.5347  4.1735 -0.3041
  481MOL0     H63435   8.906   5.012   5.985  0.8417  3.8583 -0.4846
  481MOL0     H63436   8.854   5.062   5.823  2.3692  2.1032  0.4102
  481MOL0     H63437   8.869   4.787   5.938  0.6731  0.3997 -0.3671
  481MOL0     H63438   8.838   4.803   5.762 -1.6375  2.2784 -1.7226
  481MOL0     H63439   8.638   4.938   5.817  2.3043 -0.9208 -2.2014
  481MOL0     H63440   8.675   4.935   5.990 -1.7480 -0.0858 -0.5412
  481MOL0     H63441   8.613   4.680   5.828  3.0718  1.8625 -1.7351
  481MOL0     H63442   8.662   4.695   5.998 -1.2765  0.2021  1.5747
  481MOL0     H63443   8.471   4.850   6.047 -2.0044  0.6246 -0.3783
  481MOL0     H63444   8.438   4.681   6.003 -0.9209  1.2200  0.0152
  481MOL0     H63445   8.369   5.031   5.844  1.7614 -0.7204  1.4259
  481MOL0     H63446   8.199   4.987   5.518  1.0480 -1.3336 -0.3560
  481MOL0     H63447   8.319   5.088   5.599 -0.1571 -0.6114 -0.0925
  481MOL0     H63448   8.136   5.149   5.777 -1.5497  1.2083  0.0246
  481MOL0     H63449   8.031   5.040   5.682 -2.2891  3.9141 -0.8650
  481MOL0     H63450   8.161   5.290   5.573  0.2890 -0.9966  0.1378
  481MOL0     H63451   8.068   5.181   5.477 -0.5679  0.4228 -0.7882
  481MOL0     H63452   7.935   5.364   5.553 -1.1340 -3.4598 -4.1624
  481MOL0     H63453   7.977   5.334   5.720  2.1765  1.9635 -0.8894
  481MOL0     H63454   7.880   5.246   5.363  0.6372 -0.5663  0.9566
  481MOL0     H63455   7.708   5.203   5.197 -0.7270 -2.0353 -0.3458
  481MOL0     H63456   7.173   4.860   5.352 -2.4622  1.0635  2.3376
  481MOL0     H63457   6.953   4.831   5.265 -1.8129  1.2657  1.1802
  481MOL0     H63458   6.642   5.055   5.163  0.3830  0.1138 -1.3519
  481MOL0     H63459   6.744   5.007   5.294  0.4141  4.1042 -0.1032
  481MOL0     H63460   6.767   4.766   5.198  0.5086  0.0975 -0.4255
  481MOL0     H63461   6.640   4.809   5.077 -0.5485  3.5345 -1.0572
  481MOL0     H63462   6.559   4.676   5.255 -0.5463 -0.7797  1.3746
  481MOL0     H63463   6.474   4.828   5.223  1.0055  0.2432 -2.3985
  481MOL0     H63464   6.674   4.783   5.467  1.0579  1.5625  0.5693
  481MOL0     H63465   6.580   4.921   5.431  4.4428 -0.6693 -0.6224
  481MOL0     H63466   6.488   4.752   5.603  3.3727 -0.7088 -0.3599
  481MOL0     H63467   6.469   4.634   5.463 -1.0335  0.5129 -1.3688
  481MOL0     H63468   6.317   4.795   5.358  0.5004  2.7462 -0.6789
  481MOL0     H63469   6.320   4.903   5.501  1.9668 -0.9090 -0.2050
  481MOL0     H63470   6.113   4.734   5.472 -2.1403 -0.1799  3.0237
  481MOL0     H63471   6.241   4.622   5.524  0.5966  0.4802  1.4024
  481MOL0     H63472   6.271   4.746   5.731  0.7652 -0.9094  0.0054
  481MOL0     H63473   6.119   4.659   5.708  1.5363 -1.4151  0.5125
  481MOL0     H63474   7.011   5.189   5.023 -1.0499  0.3040  0.7505
  481MOL0     H63475   7.246   5.202   5.100  0.0419  0.2716  0.2336
  481MOL0     H63476   7.449   5.049   5.506  2.5172 -2.0050  0.9880
  481MOL0     H63477   7.619   5.087   5.668  2.0433  2.0987  1.1038
  481MOL0     H63478   9.490   5.029   5.665 -0.6316  0.1313  2.5786
  481MOL0     H63479   9.732   5.065   5.654  0.3377  0.2252  0.2744
  481MOL0     H63480  10.078   5.109   5.927  1.8201  0.6692  2.4007
  481MOL0     H63481  10.338   5.115   5.928  0.9109 -0.1950 -1.6023
  481MOL0     H63482  10.514   5.157   5.587  1.6798  0.8463 -1.0371
  481MOL0     H63483  10.482   5.052   5.722  0.1661  0.1550 -2.2157
  481MOL0     H63484  10.745   5.198   5.693  1.0933 -1.4967 -0.3065
  481MOL0     H63485  10.693   5.084   5.815 -4.4697  0.0928  0.9532
  481MOL0     H63486  10.703   5.035   5.510 -1.1565 -2.6034 -0.8342
  481MOL0     H63487  10.653   4.916   5.627  0.3620 -1.3942  0.6525
  481MOL0     H63488  10.846   4.902   5.764  1.1750 -3.0535 -0.7652
  481MOL0     H63489  10.894   4.871   5.599  0.8276  1.2906 -1.9859
  481MOL0     H63490  11.132   5.196   5.642  0.9237 -0.3324 -0.3291
  481MOL0     H63491  10.328   5.395   5.601 -1.1619  0.7076 -1.4382
  481MOL0     H63492  10.080   5.396   5.612 -1.9241 -0.0430  1.9952
  482MOL0     O63493  10.296   9.140   8.604  0.1425  0.0636  0.1614
  482MOL0     C63494  10.284   9.044   8.682  0.1777  0.3321 -0.1271
  482MOL0     O63495  10.186   9.032   8.775  0.3095  0.9850  0.8624
  482MOL0     C63496  10.101   9.132   8.799 -0.6281  0.2811 -0.3314
  482MOL0     C63497  10.130   9.270   8.811  0.6729  0.0121 -0.1395
  482MOL0     C63498  10.031   9.364   8.829  1.0437  0.0469  0.4815
  482MOL0     C63499   9.893   9.331   8.835  0.0757  0.2406 -0.7542
  482MOL0     O63500   9.791   9.423   8.840  1.1190 -0.8208 -0.0428
  482MOL0     C63501   9.818   9.566   8.853 -0.0681  0.3683  0.1285
  482MOL0     C63502   9.680   9.647   8.851 -0.9021  0.2222  0.2339
  482MOL0     C63503   9.610   9.603   8.982  0.5283 -0.4994  0.1752
  482MOL0     C63504   9.642   9.692   9.107 -0.2886 -0.2826 -0.0795
  482MOL0     C63505   9.573   9.829   9.109 -0.1968 -0.0012 -0.0509
  482MOL0     C63506   9.615   9.882   9.250 -0.3032 -0.2263  0.5983
  482MOL0     C63507   9.603  10.036   9.244  0.7488 -0.2102 -0.3313
  482MOL0     C63508   9.685  10.102   9.351 -0.4380 -0.2861  0.3889
  482MOL0     N63509   9.625  10.060   9.484 -0.3613 -0.0407 -0.0174
  482MOL0     C63510   9.492  10.044   9.521 -0.1215  0.1374  0.3975
  482MOL0     C63511   9.489  10.024   9.655  1.6090 -0.1050 -0.7043
  482MOL0     C63512   9.359  10.013   9.738  0.1044 -0.2605  0.4888
  482MOL0     C63513   9.344   9.861   9.764 -0.1881 -0.0492  0.5224
  482MOL0     C63514   9.271   9.831   9.894  0.2774 -0.4296 -0.7823
  482MOL0     C63515   9.129   9.888   9.903  0.3016 -0.7599 -0.5536
  482MOL0     O63516   9.058   9.821   9.804 -0.1257  0.3748  0.3370
  482MOL0     C63517   8.919   9.836   9.780  0.8478  0.0661 -0.4748
  482MOL0     C63518   8.862   9.734   9.703 -0.2689  0.1567 -0.4313
  482MOL0     C63519   8.727   9.736   9.680 -0.2545 -0.2441  0.4304
  482MOL0     C63520   8.646   9.849   9.711 -0.3709  0.5424 -0.3500
  482MOL0     C63521   8.504   9.853   9.665 -0.2290  0.5052  0.2513
  482MOL0     O63522   8.475   9.762   9.572 -0.6218 -0.2263 -0.3463
  482MOL0     C63523   8.380   9.780   9.476 -0.1302 -0.4804  0.7056
  482MOL0     C63524   8.412   9.819   9.349  0.2241  0.1813 -0.0210
  482MOL0     C63525   8.308   9.834   9.250  0.4536 -0.5530  0.1374
  482MOL0     C63526   8.173   9.813   9.279 -0.2271 -0.3505 -0.4814
  482MOL0     O63527   8.079   9.833   9.184 -0.0007 -0.6344 -0.1443
  482MOL0     C63528   7.945   9.773   9.196  0.7179 -0.0876  0.1158
  482MOL0     C63529   7.852   9.835   9.297  0.7268 -0.3741 -0.4390
  482MOL0     C63530   7.712   9.821   9.238 -0.6778  0.4434 -0.5294
  482MOL0     C63531   7.659   9.678   9.258  0.3421 -0.0163  0.5227
  482MOL0     C63532   7.501   9.687   9.267 -0.4229  0.8749 -0.0215
  482MOL0     C63533   7.441   9.733   9.131  1.3639  0.2911 -0.0347
  482MOL0     C63534   7.284   9.752   9.153  0.0163  0.3396 -0.3514
  482MOL0     C63535   7.212   9.782   9.017  0.3577  1.0996 -0.1218
  482MOL0    Cl63536   7.031   9.820   9.027 -0.3545  0.0649 -0.3100
  482MOL0     C63537   8.146   9.772   9.409  0.1615 -0.3312 -0.0942
  482MOL0     C63538   8.248   9.757   9.503 -0.3300 -0.7836 -0.4924
  482MOL0     O63539   8.427   9.933   9.709  0.6111 -0.1722  0.0952
  482MOL0     C63540   8.708   9.950   9.788  0.0784 -0.4549  0.3161
  482MOL0     C63541   8.839   9.945   9.825  0.0203 -0.1465 -0.6669
  482MOL0     N63542   9.617  10.018   9.690  0.2729 -0.3882  0.4230
  482MOL0     N63543   9.696  10.053   9.597  0.4509  0.2073 -0.8247
  482MOL0     C63544   9.870   9.195   8.834  0.7808 -0.5972 -0.3386
  482MOL0     C63545   9.968   9.095   8.815 -0.0692  0.5723 -0.1142
  482MOL0     C63546  10.372   8.934   8.664 -0.0460 -0.4954 -0.3248
  482MOL0     C63547  10.494   8.935   8.590  0.0972  0.0974 -0.0183
  482MOL0     C63548  10.584   8.827   8.587  0.5274 -0.5987  0.5747
  482MOL0     C63549  10.561   8.715   8.655  0.4050  0.3374  0.3744
  482MOL0     O63550  10.646   8.611   8.639  0.1393 -0.2743  0.2090
  482MOL0     C63551  10.627   8.479   8.693  0.3490 -0.3982 -0.5556
  482MOL0     C63552  10.690   8.363   8.619  0.0548 -0.6442 -0.5854
  482MOL0     C63553  10.839   8.386   8.638 -0.1132  0.4769 -0.1960
  482MOL0     C63554  10.913   8.279   8.561  0.9477  0.0665  0.8211
  482MOL0     C63555  11.048   8.319   8.520  0.3098  0.0297 -0.3791
  482MOL0     C63556  11.163   8.339   8.491 -0.1808 -0.5921 -1.2821
  482MOL0     C63557  10.444   8.709   8.736  0.2109  0.2701  0.4977
  482MOL0     C63558  10.353   8.816   8.736 -0.7832  0.9504 -0.1482
  482MOL0     H63559  10.235   9.295   8.802  0.9851 -1.3408 -0.5259
  482MOL0     H63560  10.058   9.470   8.825  0.7284  0.1851  1.7285
  482MOL0     H63561   9.879   9.601   8.769  0.0278 -0.4796 -0.1664
  482MOL0     H63562   9.878   9.583   8.943  3.0989 -2.5631 -1.1902
  482MOL0     H63563   9.619   9.634   8.761  1.2936  1.1761 -1.4784
  482MOL0     H63564   9.710   9.751   8.867  1.3178 -0.4287  0.5226
  482MOL0     H63565   9.621   9.496   9.005  0.4073 -0.5567 -0.0339
  482MOL0     H63566   9.507   9.623   8.950  1.6979  0.3365 -3.4527
  482MOL0     H63567   9.599   9.638   9.192  0.0234 -0.2626  0.0913
  482MOL0     H63568   9.750   9.697   9.125 -0.5143  2.7109  1.0191
  482MOL0     H63569   9.466   9.807   9.115  0.0496 -0.8532  2.3837
  482MOL0     H63570   9.582   9.897   9.024 -2.5672 -1.6955 -1.7686
  482MOL0     H63571   9.719   9.867   9.280  1.1949  3.9620 -1.7161
  482MOL0     H63572   9.543   9.841   9.321  1.1360 -0.8696  1.7404
  482MOL0     H63573   9.652  10.080   9.156  3.4260  1.9912  2.0265
  482MOL0     H63574   9.499  10.069   9.256  0.6753 -0.9133  1.2231
  482MOL0     H63575   9.681  10.211   9.336  0.9733 -0.3943 -1.0241
  482MOL0     H63576   9.787  10.067   9.339 -0.5310  0.2570 -2.8074
  482MOL0     H63577   9.402  10.050   9.460 -1.6800  0.0957  2.5754
  482MOL0     H63578   9.273  10.058   9.689  0.8508 -0.0170 -0.6469
  482MOL0     H63579   9.378  10.064   9.833 -0.4358  1.9083 -0.5071
  482MOL0     H63580   9.441   9.810   9.767  0.2556  0.5621 -1.7762
  482MOL0     H63581   9.286   9.816   9.682 -1.5275 -0.9103  1.8828
  482MOL0     H63582   9.271   9.723   9.909  2.3071 -0.5363 -1.3801
  482MOL0     H63583   9.331   9.868   9.978  2.8126 -1.2541 -2.1490
  482MOL0     H63584   9.130   9.996   9.889  2.9205 -0.8693 -1.9145
  482MOL0     H63585   9.077   9.857   9.995 -0.0396  0.1023 -0.4521
  482MOL0     H63586   8.934   9.658   9.674  0.8448  0.3732  1.5875
  482MOL0     H63587   8.691   9.645   9.634  3.2721 -1.1476 -0.8346
  482MOL0     H63588   8.518   9.839   9.334  1.1698 -2.6305  1.8867
  482MOL0     H63589   8.336   9.879   9.155 -1.9590  1.1719  0.1515
  482MOL0     H63590   7.959   9.667   9.222 -0.3776 -1.0453 -2.8170
  482MOL0     H63591   7.901   9.772   9.096 -2.7510 -0.9147  1.4810
  482MOL0     H63592   7.881   9.941   9.303  3.5576 -1.0476 -0.4353
  482MOL0     H63593   7.865   9.788   9.395 -0.9331 -1.4640 -0.7209
  482MOL0     H63594   7.698   9.859   9.137  0.2574 -0.0008 -0.8413
  482MOL0     H63595   7.642   9.879   9.299 -0.8308 -2.7912  2.7234
  482MOL0     H63596   7.692   9.616   9.174 -0.3678  0.9700 -0.5153
  482MOL0     H63597   7.698   9.635   9.350 -1.4409 -0.9490  0.8999
  482MOL0     H63598   7.469   9.759   9.343 -0.6292  0.8810 -0.1157
  482MOL0     H63599   7.474   9.584   9.292 -0.3744  0.6860 -0.7326
  482MOL0     H63600   7.461   9.651   9.061 -0.4700  0.1385 -0.4486
  482MOL0     H63601   7.490   9.825   9.100 -0.1428  0.9989 -0.4413
  482MOL0     H63602   7.245   9.658   9.193  0.0355  1.2776  1.9861
  482MOL0     H63603   7.269   9.837   9.220  0.8993 -0.9168  1.5153
  482MOL0     H63604   7.218   9.688   8.961 -1.3398 -0.2240  1.7577
  482MOL0     H63605   7.269   9.857   8.961  2.5243 -1.3217 -1.3658
  482MOL0     H63606   8.044   9.765   9.445  0.3703  1.1019  0.8674
  482MOL0     H63607   8.214   9.736   9.603 -0.7634  2.7624  0.2360
  482MOL0     H63608   8.644  10.035   9.809 -1.5644 -1.5581 -0.0226
  482MOL0     H63609   8.880  10.032   9.873 -0.3382  1.4918 -3.1347
  482MOL0     H63610   9.771   9.151   8.846  0.7757 -0.3057  0.7902
  482MOL0     H63611   9.942   8.990   8.820  2.1876 -0.0767 -0.9025
  482MOL0     H63612  10.516   9.029   8.540  1.3561  0.0518  0.4134
  482MOL0     H63613  10.679   8.840   8.536  1.5992  0.4587  2.7029
  482MOL0     H63614  10.521   8.454   8.702  0.1626  1.0502  2.8930
  482MOL0     H63615  10.659   8.476   8.798 -1.7457 -1.6775  0.1010
  482MOL0     H63616  10.661   8.266   8.660  0.6252 -1.1044 -1.2505
  482MOL0     H63617  10.656   8.371   8.516  0.8137  1.1097 -0.7351
  482MOL0     H63618  10.865   8.369   8.743  0.4382  1.7580 -0.1077
  482MOL0     H63619  10.876   8.486   8.614  1.1613  0.5923  1.9603
  482MOL0     H63620  10.930   8.193   8.625  2.2455 -0.1069  0.2948
  482MOL0     H63621  10.867   8.251   8.466  1.1686  0.5772  0.5586
  482MOL0     H63622  11.269   8.337   8.473  0.1395  2.2365 -0.1513
  482MOL0     H63623  10.414   8.624   8.797 -0.5741  1.6950  2.2203
  482MOL0     H63624  10.261   8.801   8.791  1.5770  0.2427  4.0845
  483MOL0     O63625   5.272   6.202   5.077  0.1954  0.0275  0.5457
  483MOL0     C63626   5.315   6.094   5.032  0.1407  0.0947 -0.1910
  483MOL0     O63627   5.280   5.973   5.082  0.0365 -0.5998  0.2709
  483MOL0     C63628   5.182   5.953   5.181 -0.0322  0.0186 -0.6608
  483MOL0     C63629   5.084   6.046   5.222 -0.4110  0.2370 -0.2854
  483MOL0     C63630   4.987   6.000   5.313  0.4697  0.9249 -0.3302
  483MOL0     C63631   4.993   5.886   5.376  0.6486  1.1468 -0.3422
  483MOL0     O63632   4.891   5.869   5.473 -0.0033 -0.5194  0.7166
  483MOL0     C63633   4.855   5.740   5.523  0.0088  0.4357  0.3826
  483MOL0     C63634   4.819   5.752   5.671 -0.2533  0.3276 -0.3774
  483MOL0     C63635   4.697   5.840   5.684  0.1487 -0.1928 -0.0431
  483MOL0     C63636   4.663   5.837   5.842  0.1364  0.0888 -0.0184
  483MOL0     C63637   4.522   5.895   5.857  0.4504  0.6069 -0.6744
  483MOL0     C63638   4.472   5.848   5.995  0.2955 -0.0551  0.1970
  483MOL0     C63639   4.327   5.904   6.003 -0.1628  0.7165 -0.5558
  483MOL0     C63640   4.246   5.853   6.127  0.0771  0.3528 -0.0933
  483MOL0     N63641   4.128   5.942   6.155  0.3828 -0.5899  0.5976
  483MOL0     C63642   4.045   6.008   6.070  0.1000  0.3483 -0.2319
  483MOL0     C63643   3.973   6.097   6.144 -0.9899 -0.5968 -0.0618
  483MOL0     C63644   3.878   6.200   6.100  0.7228 -1.1053  0.1585
  483MOL0     C63645   3.955   6.329   6.036  0.3715  1.1576  0.1669
  483MOL0     C63646   3.881   6.454   6.067  0.4999  0.0482  0.3082
  483MOL0     C63647   3.929   6.503   6.201  0.1500 -0.0889  0.0549
  483MOL0     O63648   3.873   6.629   6.243 -0.2463 -0.6367 -0.6044
  483MOL0     C63649   3.742   6.645   6.273  0.5428  0.3905  0.1691
  483MOL0     C63650   3.699   6.779   6.268 -0.3998 -0.2753  0.8727
  483MOL0     C63651   3.568   6.813   6.306  0.5116 -0.0129  0.0183
  483MOL0     C63652   3.476   6.710   6.338  0.8781  0.2689 -0.3326
  483MOL0     C63653   3.336   6.742   6.370 -0.9756  0.5293 -0.6579
  483MOL0     O63654   3.299   6.868   6.381 -0.1997  0.0494 -0.2704
  483MOL0     C63655   3.187   6.906   6.448  0.1276 -0.4344  0.4243
  483MOL0     C63656   3.144   6.842   6.562 -0.1262 -0.1800  0.3460
  483MOL0     C63657   3.026   6.871   6.629  0.2211  0.0969  0.4251
  483MOL0     C63658   2.947   6.968   6.573  0.1107  0.3790 -0.9837
  483MOL0     O63659   2.830   6.991   6.639 -0.6764  0.8861 -0.3472
  483MOL0     C63660   2.723   7.064   6.565 -0.5731  0.3092 -1.0669
  483MOL0     C63661   2.584   7.071   6.632  0.1083 -0.1853  0.2613
  483MOL0     C63662   2.609   7.102   6.785 -0.2212 -0.0708  0.3894
  483MOL0     C63663   2.472   7.142   6.842 -0.1385 -0.8990 -1.4842
  483MOL0     C63664   2.501   7.202   6.973 -0.1263  0.6295  0.1097
  483MOL0     C63665   2.513   7.357   6.976 -0.0420  0.1298 -0.5934
  483MOL0     C63666   2.565   7.409   7.113 -0.5947 -0.1234  0.2428
  483MOL0     C63667   2.716   7.401   7.132  0.1751 -0.2830 -0.5691
  483MOL0    Cl63668   2.809   7.461   6.998  0.6562 -0.3136  0.1359
  483MOL0     C63669   2.990   7.045   6.467 -0.0291  0.5311 -0.2370
  483MOL0     C63670   3.107   7.010   6.406 -0.4290  0.1582  0.2203
  483MOL0     O63671   3.266   6.644   6.396  0.3539 -0.1870 -0.4552
  483MOL0     C63672   3.520   6.579   6.340 -0.1896  0.0797 -0.6949
  483MOL0     C63673   3.652   6.546   6.309  0.4157 -0.5809 -0.6222
  483MOL0     N63674   4.010   6.082   6.280  0.1188 -0.1343 -0.3866
  483MOL0     N63675   4.104   5.988   6.281 -0.2632 -0.0534 -0.2384
  483MOL0     C63676   5.087   5.794   5.340  0.3244 -0.3356  0.1929
  483MOL0     C63677   5.181   5.824   5.239  0.2975  0.3570  0.5153
  483MOL0     C63678   5.417   6.096   4.924  1.1732  0.3232 -0.0055
  483MOL0     C63679   5.450   6.211   4.858  0.1960 -0.6100  0.1359
  483MOL0     C63680   5.535   6.198   4.748 -0.6634  0.5266  0.3541
  483MOL0     C63681   5.584   6.083   4.702  0.1653  0.1715 -0.4224
  483MOL0     O63682   5.644   6.065   4.586 -1.1704 -0.1078 -0.3293
  483MOL0     C63683   5.676   6.179   4.503 -0.7072 -0.1215  0.1995
  483MOL0     C63684   5.559   6.254   4.434 -0.2615  0.5332 -0.2534
  483MOL0     C63685   5.453   6.167   4.361  0.8820 -0.8486  0.5953
  483MOL0     C63686   5.516   6.099   4.237  0.7206 -0.8165  0.5031
  483MOL0     C63687   5.565   6.188   4.124  0.7595  1.8716 -0.1038
  483MOL0     C63688   5.609   6.252   4.028  0.5982 -0.7469  0.1627
  483MOL0     C63689   5.545   5.969   4.764 -0.7334  0.7652 -0.5839
  483MOL0     C63690   5.460   5.968   4.876  0.3283 -0.3568  0.0741
  483MOL0     H63691   5.075   6.142   5.174 -0.5839 -0.1161 -0.9759
  483MOL0     H63692   4.913   6.077   5.335  1.2829  1.1839  1.7996
  483MOL0     H63693   4.938   5.669   5.514 -2.1045 -2.3925  1.6823
  483MOL0     H63694   4.774   5.691   5.467  0.4073 -0.3088  0.4506
  483MOL0     H63695   4.906   5.792   5.723  1.4503 -1.7194 -1.4941
  483MOL0     H63696   4.797   5.653   5.711 -2.8705  0.5038 -1.2224
  483MOL0     H63697   4.618   5.799   5.621  0.3058 -1.0160  0.2817
  483MOL0     H63698   4.716   5.942   5.648  1.3907 -0.8785 -1.4359
  483MOL0     H63699   4.667   5.735   5.883 -1.5846 -0.9718 -2.2618
  483MOL0     H63700   4.729   5.903   5.898 -0.7820  1.5846 -0.6520
  483MOL0     H63701   4.461   5.865   5.772  1.3473  1.6341 -1.7096
  483MOL0     H63702   4.512   6.004   5.858 -2.9009  0.5319  3.3592
  483MOL0     H63703   4.530   5.883   6.081 -0.7518 -1.4546  1.5346
  483MOL0     H63704   4.473   5.738   6.001  0.4581  0.0146  1.8472
  483MOL0     H63705   4.329   6.013   5.998 -0.0548  0.7201 -0.4424
  483MOL0     H63706   4.272   5.875   5.913 -2.1610 -2.0563  1.3988
  483MOL0     H63707   4.304   5.841   6.219 -1.3907 -1.1368  0.7026
  483MOL0     H63708   4.198   5.759   6.099 -0.0521  0.7479 -1.2468
  483MOL0     H63709   4.036   5.988   5.964 -0.8302  0.3437 -0.1562
  483MOL0     H63710   3.817   6.235   6.184 -1.3776  1.6527 -2.2952
  483MOL0     H63711   3.818   6.151   6.023 -1.7044  1.5084  0.2033
  483MOL0     H63712   3.975   6.310   5.931  0.8143  0.1354  0.4265
  483MOL0     H63713   4.054   6.342   6.081 -0.1820 -0.3005  1.9490
  483MOL0     H63714   3.911   6.522   5.987  0.1610 -0.0900  0.0626
  483MOL0     H63715   3.773   6.438   6.060  0.7502 -1.0131 -3.5088
  483MOL0     H63716   4.036   6.521   6.192  0.2656 -1.4089 -1.9071
  483MOL0     H63717   3.924   6.423   6.277 -1.4959  0.3931  0.4902
  483MOL0     H63718   3.777   6.855   6.267  0.5848 -1.2480  0.5717
  483MOL0     H63719   3.539   6.917   6.311  1.7902  0.3274  0.9609
  483MOL0     H63720   3.210   6.763   6.598  1.3309  0.7437 -0.1924
  483MOL0     H63721   2.991   6.810   6.711 -0.1866 -1.7210 -1.0358
  483MOL0     H63722   2.715   7.023   6.464  1.0327 -1.4638 -0.5273
  483MOL0     H63723   2.770   7.163   6.562  1.4748 -0.5006  0.9227
  483MOL0     H63724   2.533   6.975   6.619 -2.3328  0.8633  1.4813
  483MOL0     H63725   2.526   7.148   6.581  1.5235  1.4954  1.1148
  483MOL0     H63726   2.682   7.182   6.802 -3.5246  2.9106  1.7908
  483MOL0     H63727   2.648   7.014   6.837  0.7638 -1.2184 -2.1250
  483MOL0     H63728   2.414   7.210   6.779  1.6544  3.4370  1.1181
  483MOL0     H63729   2.408   7.054   6.857  1.4926 -1.9340 -0.2954
  483MOL0     H63730   2.594   7.158   7.010  2.9410  3.0046 -3.8976
  483MOL0     H63731   2.418   7.172   7.037  0.8893  2.1529  2.2323
  483MOL0     H63732   2.408   7.387   6.967 -0.5121 -0.9423  0.8310
  483MOL0     H63733   2.572   7.397   6.893 -0.4109  1.1526 -0.3740
  483MOL0     H63734   2.529   7.511   7.130 -3.1445 -1.4155  3.7337
  483MOL0     H63735   2.514   7.354   7.192  1.8547 -0.4906  1.6804
  483MOL0     H63736   2.734   7.294   7.146 -0.2566 -0.0928  1.9605
  483MOL0     H63737   2.740   7.458   7.222 -2.6203 -0.6104  0.4878
  483MOL0     H63738   2.923   7.117   6.420  1.1522  2.3154  0.6660
  483MOL0     H63739   3.136   7.066   6.317 -1.5050 -1.7727 -1.4422
  483MOL0     H63740   3.454   6.498   6.370  1.2151 -0.6107  0.6791
  483MOL0     H63741   3.684   6.443   6.311  2.4864  0.0066  2.3133
  483MOL0     H63742   5.091   5.693   5.381 -2.5246 -2.4142 -3.8876
  483MOL0     H63743   5.239   5.743   5.196 -2.9912  0.0772 -4.2633
  483MOL0     H63744   5.398   6.302   4.885 -1.0149 -0.4481 -2.4215
  483MOL0     H63745   5.560   6.290   4.698 -0.0403 -1.4437 -3.3406
  483MOL0     H63746   5.746   6.140   4.428 -1.4195  0.3667 -0.7453
  483MOL0     H63747   5.725   6.254   4.566 -2.3128  0.2465  1.0581
  483MOL0     H63748   5.494   6.299   4.510 -2.5347 -0.4007 -1.5703
  483MOL0     H63749   5.597   6.338   4.375 -3.3929  3.3606  1.4453
  483MOL0     H63750   5.377   6.229   4.313  3.6504  3.1200  0.9094
  483MOL0     H63751   5.409   6.095   4.430 -1.2821 -0.2246 -0.0388
  483MOL0     H63752   5.607   6.056   4.279  3.3495  1.2597 -2.5579
  483MOL0     H63753   5.442   6.032   4.192  0.7957  0.6070 -1.9181
  483MOL0     H63754   5.637   6.310   3.942 -1.5002  1.1684  0.6920
  483MOL0     H63755   5.575   5.883   4.706  1.7714  2.3467 -1.7889
  483MOL0     H63756   5.435   5.875   4.926  0.2568 -1.1325 -1.3650
  484MOL0     O63757   4.990   5.964  10.082 -0.2843 -0.2723 -0.0752
  484MOL0     C63758   5.043   5.893  10.165 -0.2103  0.3619  0.0024
  484MOL0     O63759   4.975   5.806  10.248 -0.2895 -0.6733 -0.1545
  484MOL0     C63760   4.839   5.816  10.285 -0.1705 -0.5470  0.4955
  484MOL0     C63761   4.760   5.925  10.249 -0.2031 -0.0086 -0.4503
  484MOL0     C63762   4.629   5.941  10.304 -0.6097  0.2823  1.2059
  484MOL0     C63763   4.583   5.839  10.387 -0.3995 -0.3359  0.4424
  484MOL0     O63764   4.454   5.846  10.432 -0.5860  0.4398  0.1967
  484MOL0     C63765   4.432   5.925  10.550 -0.1285 -0.0551  0.0512
  484MOL0     C63766   4.430   5.856  10.682  0.2860  0.1424  0.3312
  484MOL0     C63767   4.349   5.724  10.689  0.3302 -0.0314  0.7419
  484MOL0     C63768   4.198   5.748  10.643 -0.3188  1.2292  0.8988
  484MOL0     C63769   4.111   5.809  10.753 -0.4508 -0.8244  0.6158
  484MOL0     C63770   3.965   5.823  10.700 -0.0146  0.7936  0.1026
  484MOL0     C63771   3.874   5.878  10.813 -0.1705 -0.4678  0.1167
  484MOL0     C63772   3.743   5.926  10.754  0.7630  0.7280 -0.0460
  484MOL0     N63773   3.666   5.826  10.672 -0.2642  0.2084  0.1768
  484MOL0     C63774   3.594   5.717  10.718  0.2058  0.6773  0.0837
  484MOL0     C63775   3.539   5.664  10.609  0.6099  0.0666  0.3478
  484MOL0     C63776   3.446   5.543  10.621  0.1650 -1.0718 -1.3434
  484MOL0     C63777   3.314   5.595  10.652  0.5196 -0.0835 -0.6428
  484MOL0     C63778   3.214   5.473  10.649  0.7950 -0.8304  0.5915
  484MOL0     C63779   3.073   5.527  10.668  0.7343  0.5628 -0.0845
  484MOL0     O63780   3.024   5.493  10.800 -0.5760  0.1517  0.1413
  484MOL0     C63781   2.901   5.529  10.838  0.0320  0.0373 -0.6619
  484MOL0     C63782   2.853   5.465  10.956  0.1484  0.0105  0.2029
  484MOL0     C63783   2.726   5.485  10.999 -0.0874 -0.8466 -0.1210
  484MOL0     C63784   2.635   5.557  10.921  0.3650  0.3969 -0.6147
  484MOL0     C63785   2.501   5.580  10.972  0.1307 -0.1020 -0.4875
  484MOL0     O63786   2.414   5.617  10.877  0.7911 -0.4357 -0.4903
  484MOL0     C63787   2.288   5.661  10.910 -0.0077 -0.7213 -0.7215
  484MOL0     C63788   2.254   5.780  10.849 -0.6134  0.0877  0.1272
  484MOL0     C63789   2.120   5.815  10.866 -0.2026  0.2405  0.0701
  484MOL0     C63790   2.032   5.757  10.956 -0.5755 -0.6252 -0.0700
  484MOL0     O63791   1.906   5.788  10.994  0.8189 -0.1946  0.5566
  484MOL0     C63792   1.873   5.926  10.979  0.1730 -0.3128  0.4240
  484MOL0     C63793   1.738   5.962  11.039 -0.3672 -0.1633  0.3589
  484MOL0     C63794   1.746   5.956  11.189 -0.0410  0.2019 -1.0599
  484MOL0     C63795   1.608   5.989  11.262 -0.2247 -0.4908  0.0304
  484MOL0     C63796   1.614   5.974  11.405  0.2876  0.4861  0.2626
  484MOL0     C63797   1.478   6.006  11.476 -0.0853  0.7130  0.8244
  484MOL0     C63798   1.400   5.878  11.529  0.4011 -0.2706 -0.1812
  484MOL0     C63799   1.258   5.910  11.573 -0.0945 -0.7711  0.6422
  484MOL0    Cl63800   1.259   6.008  11.719  0.2041  0.0127  0.0925
  484MOL0     C63801   2.082   5.644  11.018  0.0534 -0.6040 -0.3286
  484MOL0     C63802   2.208   5.599  11.003 -0.0507 -0.7028 -0.0875
  484MOL0     O63803   2.479   5.572  11.094 -0.0961  0.9381  0.1525
  484MOL0     C63804   2.676   5.608  10.802 -0.2321  0.6722  0.3687
  484MOL0     C63805   2.805   5.591  10.755  0.2652  0.2966  0.1904
  484MOL0     N63806   3.579   5.728  10.497 -0.2969 -1.0380 -0.2831
  484MOL0     N63807   3.661   5.824  10.536  0.5456 -0.3618 -0.0017
  484MOL0     C63808   4.669   5.741  10.427 -0.5464  0.6387 -0.8970
  484MOL0     C63809   4.798   5.724  10.379 -0.3380 -0.7855 -0.9318
  484MOL0     C63810   5.193   5.886  10.179 -0.3031  0.4836  0.5045
  484MOL0     C63811   5.251   5.817  10.283 -0.2256 -0.4049  0.6773
  484MOL0     C63812   5.387   5.798  10.284 -0.4332 -0.3296 -0.6960
  484MOL0     C63813   5.474   5.843  10.185  0.7198  1.0530 -0.1432
  484MOL0     O63814   5.614   5.833  10.203  0.4506 -0.0386  0.4110
  484MOL0     C63815   5.700   5.852  10.092  0.3574  0.1381 -0.4547
  484MOL0     C63816   5.840   5.782  10.123  0.3500  0.0670 -0.2315
  484MOL0     C63817   5.946   5.849  10.030 -0.2293  0.0224  0.1374
  484MOL0     C63818   6.084   5.786  10.040 -0.3720 -1.4712 -0.4186
  484MOL0     C63819   6.080   5.651   9.986 -0.7589 -0.0066  0.4749
  484MOL0     C63820   6.053   5.532   9.956  0.3481 -0.8109 -0.0168
  484MOL0     C63821   5.414   5.914  10.081  0.2020  0.1410  1.0228
  484MOL0     C63822   5.277   5.932  10.077  0.5387  0.1942 -0.4893
  484MOL0     H63823   4.794   6.002  10.180  0.0431  1.0373  0.8048
  484MOL0     H63824   4.565   6.017  10.262 -0.1019  0.2402  0.3261
  484MOL0     H63825   4.343   5.986  10.529 -0.6050  0.5630  3.3338
  484MOL0     H63826   4.503   6.008  10.561 -1.4522  1.5448 -2.3990
  484MOL0     H63827   4.395   5.925  10.759 -0.0205  0.7626 -0.3540
  484MOL0     H63828   4.533   5.823  10.696 -0.6038 -2.6761  0.8141
  484MOL0     H63829   4.355   5.682  10.790 -1.1130 -1.6414  0.2044
  484MOL0     H63830   4.389   5.650  10.620 -0.0737 -1.3121  1.8375
  484MOL0     H63831   4.192   5.805  10.550  0.2415  2.7496  1.7638
  484MOL0     H63832   4.159   5.647  10.628  1.4520  0.4436  1.2659
  484MOL0     H63833   4.150   5.910  10.773 -1.4731 -0.6554  1.8535
  484MOL0     H63834   4.129   5.747  10.840 -0.7360  0.6842  1.8009
  484MOL0     H63835   3.930   5.722  10.678 -0.8250  0.9375  0.7245
  484MOL0     H63836   3.950   5.886  10.612 -0.7775  2.3985  1.3437
  484MOL0     H63837   3.870   5.805  10.894 -3.4899 -1.9503 -1.2025
  484MOL0     H63838   3.920   5.968  10.855 -0.5464  0.4485 -1.3366
  484MOL0     H63839   3.757   6.018  10.696  0.4533  1.3711  0.8785
  484MOL0     H63840   3.688   5.960  10.842 -0.5792  1.2614 -1.0476
  484MOL0     H63841   3.593   5.686  10.822  0.5577 -1.0765 -0.3969
  484MOL0     H63842   3.467   5.477  10.705 -2.6753  0.5647  0.8585
  484MOL0     H63843   3.451   5.499  10.521  0.9802 -2.3762 -0.7594
  484MOL0     H63844   3.287   5.667  10.575  1.6744  1.3086  0.2037
  484MOL0     H63845   3.317   5.644  10.749 -2.3381 -1.1546  0.0766
  484MOL0     H63846   3.211   5.440  10.544  1.4930  1.4292 -0.1943
  484MOL0     H63847   3.222   5.392  10.721 -1.1174 -0.9392  0.7379
  484MOL0     H63848   3.006   5.499  10.585  1.1914  1.2615 -0.7022
  484MOL0     H63849   3.079   5.636  10.661  1.3415  0.4700 -1.2651
  484MOL0     H63850   2.925   5.412  11.016  0.5996 -0.2050 -0.5166
  484MOL0     H63851   2.696   5.442  11.094 -0.3165  1.0611  0.7202
  484MOL0     H63852   2.329   5.829  10.787 -0.0949  1.2792  1.6223
  484MOL0     H63853   2.079   5.897  10.808  0.5652  0.7522  0.2235
  484MOL0     H63854   1.867   5.944  10.871 -2.0499  1.4892  0.7493
  484MOL0     H63855   1.946   6.001  11.011  0.1563  1.4461 -3.1467
  484MOL0     H63856   1.655   5.894  11.018 -0.5545 -0.1259  0.9507
  484MOL0     H63857   1.711   6.060  10.998 -0.7518 -0.2530  0.3970
  484MOL0     H63858   1.822   6.026  11.226  2.5529 -3.0910  0.4633
  484MOL0     H63859   1.783   5.859  11.223  1.4086  0.7731 -0.9293
  484MOL0     H63860   1.571   6.090  11.244  0.4430 -0.4016 -0.8828
  484MOL0     H63861   1.528   5.922  11.228  1.2540 -2.5408  0.4371
  484MOL0     H63862   1.683   6.040  11.459 -2.0131  1.0754  2.7293
  484MOL0     H63863   1.639   5.868  11.412  0.6767  0.6467  1.7211
  484MOL0     H63864   1.412   6.046  11.398  0.0220  2.8418  1.7600
  484MOL0     H63865   1.490   6.079  11.557  0.7918 -1.5102  2.8158
  484MOL0     H63866   1.397   5.795  11.458 -2.1439  1.4368 -2.2720
  484MOL0     H63867   1.447   5.838  11.619 -1.9488 -0.5724  0.9555
  484MOL0     H63868   1.207   5.815  11.587  0.3324 -1.3798 -1.5182
  484MOL0     H63869   1.206   5.958  11.489  1.5002  0.4168  0.2716
  484MOL0     H63870   2.015   5.599  11.090 -1.9130  1.2216 -0.9275
  484MOL0     H63871   2.240   5.506  11.049  2.1686 -0.3926 -0.8986
  484MOL0     H63872   2.606   5.670  10.747 -1.3074 -1.4659 -0.8143
  484MOL0     H63873   2.830   5.631  10.658 -2.2164 -2.5602 -1.7913
  484MOL0     H63874   4.623   5.664  10.488 -0.0958  0.9292 -0.1858
  484MOL0     H63875   4.859   5.646  10.424  1.8728  1.9654  1.2525
  484MOL0     H63876   5.191   5.767  10.359  0.8725  0.1364  1.9258
  484MOL0     H63877   5.431   5.745  10.368 -0.4514 -1.6509 -1.5019
  484MOL0     H63878   5.707   5.959  10.069 -0.5696  0.3581  0.2294
  484MOL0     H63879   5.664   5.804  10.001  1.2706  1.1099 -1.3567
  484MOL0     H63880   5.862   5.813  10.225  0.6967 -0.3865 -0.1660
  484MOL0     H63881   5.830   5.674  10.113  0.2154  0.0317  0.3122
  484MOL0     H63882   5.949   5.952  10.067 -1.7083 -0.8461  2.9658
  484MOL0     H63883   5.918   5.864   9.925 -3.2522  0.3160  0.8867
  484MOL0     H63884   6.156   5.840   9.978 -2.2983  1.8979  0.0731
  484MOL0     H63885   6.122   5.784  10.142  1.4558 -1.2282 -1.0560
  484MOL0     H63886   6.028   5.429   9.942 -2.4537 -0.0013 -1.7006
  484MOL0     H63887   5.471   5.970  10.008 -2.7192  3.4640  1.0381
  484MOL0     H63888   5.231   5.977   9.989 -0.4825  1.6116  0.7101
  485MOL0     O63889   4.995   4.810  10.120  0.1620  0.9293 -0.8360
  485MOL0     C63890   4.960   4.691  10.116 -0.0953 -0.2948  0.0906
  485MOL0     O63891   5.038   4.586  10.097 -0.5343 -0.1320  0.3977
  485MOL0     C63892   5.158   4.614  10.038  0.2262  0.4483  0.2467
  485MOL0     C63893   5.276   4.584  10.106  0.3686  0.8890  0.1551
  485MOL0     C63894   5.388   4.616  10.045 -0.3760  0.2585  0.1883
  485MOL0     C63895   5.397   4.670   9.917  0.0812 -0.6086  0.7418
  485MOL0     O63896   5.518   4.703   9.853  0.7490  0.3028  0.0135
  485MOL0     C63897   5.616   4.772   9.926  0.1557 -0.1588  0.4106
  485MOL0     C63898   5.557   4.889  10.009  0.0468 -0.6701  0.6941
  485MOL0     C63899   5.483   4.985   9.913  0.3712 -0.5051 -0.0487
  485MOL0     C63900   5.431   5.117   9.971  0.0098  0.0405  0.3137
  485MOL0     C63901   5.300   5.159   9.903 -0.0926  0.3132 -0.4923
  485MOL0     C63902   5.179   5.092   9.975 -0.2153 -0.0552  0.0167
  485MOL0     C63903   5.044   5.100   9.901  0.3509 -0.5933  0.0297
  485MOL0     C63904   5.003   5.247   9.860  0.5447 -0.1028 -0.8632
  485MOL0     N63905   4.861   5.273   9.828 -0.3153  0.5297  0.1705
  485MOL0     C63906   4.772   5.346   9.908  0.0898  0.8484 -0.7436
  485MOL0     C63907   4.654   5.325   9.851  0.4298  0.4229  0.2583
  485MOL0     C63908   4.523   5.347   9.914 -0.1832  1.3270 -0.7603
  485MOL0     C63909   4.449   5.450   9.839  0.1373  0.7062 -0.3731
  485MOL0     C63910   4.357   5.530   9.931  0.1368  0.4444  0.2791
  485MOL0     C63911   4.243   5.439   9.993  0.9217 -0.0334 -0.6956
  485MOL0     O63912   4.149   5.395   9.895 -0.0211 -0.1276 -0.6443
  485MOL0     C63913   4.037   5.335   9.947 -0.2002 -0.1153  0.1786
  485MOL0     C63914   4.025   5.276  10.074 -0.5112 -0.4766  0.4887
  485MOL0     C63915   3.906   5.216  10.112 -0.0844  1.0102 -0.0446
  485MOL0     C63916   3.788   5.229  10.031 -0.8047 -1.1442 -0.0154
  485MOL0     C63917   3.657   5.189  10.093 -0.4939 -0.4724  0.4109
  485MOL0     O63918   3.643   5.174  10.223 -0.9623 -0.1285 -0.2129
  485MOL0     C63919   3.525   5.147  10.277  0.1566 -0.6899  0.6658
  485MOL0     C63920   3.481   5.223  10.384  0.5955  0.1130 -0.3513
  485MOL0     C63921   3.357   5.184  10.446 -0.4885  0.0872  0.5769
  485MOL0     C63922   3.293   5.070  10.411  0.5923  1.1640 -0.2730
  485MOL0     O63923   3.180   5.016  10.476  0.0939 -0.1612  0.5609
  485MOL0     C63924   3.107   5.095  10.568  0.3200 -0.1722 -0.4024
  485MOL0     C63925   2.961   5.053  10.575 -0.0596 -0.5649  0.5273
  485MOL0     C63926   2.877   5.154  10.659 -0.1443 -0.2295 -0.2244
  485MOL0     C63927   2.730   5.105  10.668  0.7686 -0.0961  0.0348
  485MOL0     C63928   2.646   5.229  10.709  0.0381  0.3671  0.7091
  485MOL0     C63929   2.499   5.211  10.762  0.4651  0.4160  0.6140
  485MOL0     C63930   2.404   5.139  10.658 -0.4137 -0.7464  0.8050
  485MOL0     C63931   2.281   5.085  10.722 -0.8661  0.4385 -0.0927
  485MOL0    Cl63932   2.163   5.219  10.735  0.1129 -0.0139 -0.1808
  485MOL0     C63933   3.340   4.994  10.302 -0.6145 -0.0814 -0.3201
  485MOL0     C63934   3.462   5.031  10.236  0.8881  0.6261  0.7575
  485MOL0     O63935   3.564   5.194  10.012  0.6690  0.7702 -0.2910
  485MOL0     C63936   3.799   5.285   9.904 -0.2567 -0.4960 -0.9984
  485MOL0     C63937   3.928   5.333   9.860  0.1820  0.5380 -0.6614
  485MOL0     N63938   4.667   5.248   9.730 -0.4836 -0.8302  1.0209
  485MOL0     N63939   4.795   5.231   9.719  0.3474 -0.3475  0.2407
  485MOL0     C63940   5.276   4.698   9.846  0.1439 -0.2048 -0.1728
  485MOL0     C63941   5.156   4.670   9.911  0.1495  0.3265 -0.4728
  485MOL0     C63942   4.824   4.651  10.140  0.0015  0.1188 -0.4933
  485MOL0     C63943   4.772   4.527  10.113 -0.3801  0.4365 -0.0685
  485MOL0     C63944   4.635   4.505  10.116 -0.2513  0.0801 -0.2106
  485MOL0     C63945   4.548   4.604  10.153 -0.4978 -0.8370  0.1676
  485MOL0     O63946   4.411   4.574  10.143 -0.4040 -0.2172  0.2806
  485MOL0     C63947   4.319   4.657  10.213  1.1942  1.0332  0.0004
  485MOL0     C63948   4.196   4.580  10.233  0.1763  0.4165 -0.5979
  485MOL0     C63949   4.199   4.449  10.319  0.8663  0.2074  0.6541
  485MOL0     C63950   4.186   4.470  10.463  0.3154  0.3778 -0.8170
  485MOL0     C63951   4.316   4.486  10.522 -0.7314 -0.5373  1.0281
  485MOL0     C63952   4.423   4.504  10.574 -0.2581  0.0511 -0.4378
  485MOL0     C63953   4.601   4.726  10.200  0.2899 -0.6802 -0.1600
  485MOL0     C63954   4.736   4.748  10.189 -0.3045  0.5256  0.1881
  485MOL0     H63955   5.277   4.536  10.203  1.0778 -0.1283 -0.3285
  485MOL0     H63956   5.480   4.589  10.096  0.0934  1.8580  0.2341
  485MOL0     H63957   5.694   4.804   9.856 -0.4472  2.6211  0.8989
  485MOL0     H63958   5.669   4.705   9.994  2.3367  0.0300 -0.9872
  485MOL0     H63959   5.637   4.939  10.064  0.4080 -1.3252  0.7687
  485MOL0     H63960   5.489   4.856  10.088 -2.9790  0.7390 -1.1499
  485MOL0     H63961   5.395   4.937   9.870 -0.9987  1.7602  0.0961
  485MOL0     H63962   5.550   5.011   9.830  0.9838  2.8272  1.3644
  485MOL0     H63963   5.429   5.116  10.080 -3.8058 -2.8669  0.4121
  485MOL0     H63964   5.499   5.198   9.942 -1.7243  1.1251 -0.9045
  485MOL0     H63965   5.304   5.143   9.795  2.0394 -1.3227 -0.2323
  485MOL0     H63966   5.299   5.269   9.909 -1.1594  0.3295 -0.8747
  485MOL0     H63967   5.177   5.130  10.078  3.2409 -0.1898  0.2787
  485MOL0     H63968   5.201   4.986   9.984  1.3223  0.3715  2.1839
  485MOL0     H63969   5.046   5.032   9.815  2.2624 -1.3540  0.6090
  485MOL0     H63970   4.972   5.055   9.969 -1.9071  2.8935  0.1810
  485MOL0     H63971   5.059   5.278   9.771  1.2672  2.8364  0.4692
  485MOL0     H63972   5.020   5.309   9.949 -0.8404 -0.5003 -0.2925
  485MOL0     H63973   4.797   5.393  10.002  0.7260  0.8927 -0.9307
  485MOL0     H63974   4.543   5.363  10.020  0.6745  2.0688 -1.0264
  485MOL0     H63975   4.466   5.253   9.908 -0.2556  1.1122  1.9932
  485MOL0     H63976   4.393   5.400   9.760 -1.9337 -1.3416  2.2145
  485MOL0     H63977   4.523   5.513   9.789  2.5934 -1.3165  0.5088
  485MOL0     H63978   4.422   5.583  10.001  1.1392  1.3501 -1.2666
  485MOL0     H63979   4.315   5.608   9.867  0.6392 -0.8702 -1.7523
  485MOL0     H63980   4.181   5.501  10.058 -2.0964 -1.9963 -1.5115
  485MOL0     H63981   4.288   5.354  10.046 -0.1436  0.9463  1.9166
  485MOL0     H63982   4.107   5.284  10.145 -0.5830  2.4928  0.3763
  485MOL0     H63983   3.896   5.175  10.212  1.4594  1.1652  0.2021
  485MOL0     H63984   3.542   5.305  10.420  2.3362 -1.4893  0.5437
  485MOL0     H63985   3.326   5.242  10.532  1.7607  1.9177  0.2890
  485MOL0     H63986   3.116   5.200  10.540  0.5509  0.3351  1.4421
  485MOL0     H63987   3.149   5.079  10.668 -2.5360 -0.4876  0.8383
  485MOL0     H63988   2.947   4.953  10.617 -2.7118 -0.1237  0.8850
  485MOL0     H63989   2.918   5.056  10.475 -0.7936  3.3207  0.8044
  485MOL0     H63990   2.879   5.247  10.601 -0.6091  1.2921  2.0888
  485MOL0     H63991   2.918   5.179  10.757 -1.5129  2.1190 -0.1679
  485MOL0     H63992   2.691   5.073  10.571  0.6970 -0.9938  0.3526
  485MOL0     H63993   2.717   5.030  10.746  0.3925  0.4042  0.4619
  485MOL0     H63994   2.657   5.300  10.626  0.4170  1.2839  1.5308
  485MOL0     H63995   2.695   5.277  10.794 -0.7236 -2.3459  2.8244
  485MOL0     H63996   2.450   5.306  10.783  0.3381  0.0857  1.8927
  485MOL0     H63997   2.509   5.154  10.855  0.7980  2.1933  1.7322
  485MOL0     H63998   2.378   5.210  10.578 -5.1728 -1.2538  1.6100
  485MOL0     H63999   2.453   5.049  10.621  0.4404 -0.9944  2.4723
  485MOL0     H64000   2.309   5.049  10.821  2.2484  0.8408 -0.7039
  485MOL0     H64001   2.233   5.000  10.672 -2.8966 -0.6847  3.4047
  485MOL0     H64002   3.288   4.905  10.270  0.3906  0.0500 -2.4546
  485MOL0     H64003   3.491   4.963  10.157 -2.0433 -2.0825  1.7913
  485MOL0     H64004   3.714   5.304   9.840  0.5730 -0.1998 -2.0274
  485MOL0     H64005   3.934   5.357   9.754 -2.8112 -1.2966 -1.3656
  485MOL0     H64006   5.283   4.751   9.752  0.1160  0.3476  0.1275
  485MOL0     H64007   5.057   4.698   9.875 -0.5190 -1.7062 -0.3537
  485MOL0     H64008   4.831   4.444  10.076 -2.9688 -1.2121 -0.7297
  485MOL0     H64009   4.606   4.407  10.080  0.6588 -1.4929  3.0078
  485MOL0     H64010   4.297   4.747  10.155  1.3046  1.3767  0.4805
  485MOL0     H64011   4.349   4.692  10.312 -2.3061 -1.0107  2.0221
  485MOL0     H64012   4.122   4.648  10.276  0.0294 -0.7886  1.1735
  485MOL0     H64013   4.167   4.545  10.133  1.4244  1.2524 -1.2833
  485MOL0     H64014   4.293   4.403  10.289  1.1181  1.9152 -1.4210
  485MOL0     H64015   4.120   4.388  10.276  2.5482 -0.9341 -0.9573
  485MOL0     H64016   4.125   4.557  10.486  0.1189 -0.1123  0.6585
  485MOL0     H64017   4.134   4.387  10.512  0.3800  1.6731  1.6283
  485MOL0     H64018   4.511   4.520  10.633 -0.9442  0.9627  0.3758
  485MOL0     H64019   4.537   4.805  10.237 -1.8502 -1.4737 -1.9483
  485MOL0     H64020   4.772   4.848  10.210 -1.0365  0.7176  0.5842
  486MOL0     O64021  10.742   1.023   0.552 -0.4326  0.4340  0.2171
  486MOL0     C64022  10.731   0.904   0.513  0.9429 -0.1425  0.5007
  486MOL0     O64023  10.836   0.821   0.479 -0.2411  0.5802 -0.7831
  486MOL0     C64024  10.969   0.862   0.472  0.7719  0.2784 -0.1397
  486MOL0     C64025  11.047   0.827   0.364 -0.6544  0.5418  1.0131
  486MOL0     C64026  11.177   0.846   0.361 -0.7135 -0.0963 -0.3477
  486MOL0     C64027  11.243   0.903   0.471  0.7357  0.1842 -0.0904
  486MOL0     O64028  11.380   0.926   0.479  0.0230  0.0949  0.0688
  486MOL0     C64029  11.449   0.917   0.360 -0.0173  0.2808  0.3177
  486MOL0     C64030  11.597   0.928   0.398 -0.6348 -0.8780  0.2076
  486MOL0     C64031  11.621   1.072   0.466  0.0054  0.2534  0.2029
  486MOL0     C64032  11.774   1.104   0.488 -0.1102  0.4872  0.3646
  486MOL0     C64033  11.805   1.244   0.531 -0.0883 -0.3941  0.5956
  486MOL0     C64034  11.956   1.262   0.527  0.1942  0.1547 -0.2005
  486MOL0     C64035  12.004   1.411   0.542  0.1310  0.5577 -0.3438
  486MOL0     C64036  12.165   1.425   0.552 -0.3678  0.5101  0.3034
  486MOL0     N64037  12.229   1.336   0.447  0.5860  0.0022 -0.2213
  486MOL0     C64038  12.281   1.212   0.464  0.4122  0.0582 -0.2969
  486MOL0     C64039  12.331   1.183   0.346  0.3567 -0.2988  1.0677
  486MOL0     C64040  12.390   1.061   0.278  0.3054  0.4530  0.0422
  486MOL0     C64041  12.296   0.944   0.262  1.0914  0.2410 -0.7317
  486MOL0     C64042  12.191   0.984   0.151  0.1673  1.1670  0.6742
  486MOL0     C64043  12.088   0.869   0.113  0.4848 -0.1018 -0.0399
  486MOL0     O64044  12.025   0.822   0.232 -0.3859 -0.3963  0.1703
  486MOL0     C64045  11.905   0.756   0.220  0.0136  0.6279 -0.7509
  486MOL0     C64046  11.829   0.736   0.109  0.4613 -0.0631 -0.8304
  486MOL0     C64047  11.711   0.660   0.108  0.4512  0.3327  0.8833
  486MOL0     C64048  11.651   0.611   0.219 -0.3083 -0.7956  0.3967
  486MOL0     C64049  11.520   0.544   0.223  0.7554 -0.4448  0.3613
  486MOL0     O64050  11.484   0.479   0.333  0.3966 -0.9135 -0.7326
  486MOL0     C64051  11.363   0.414   0.334  0.2124 -0.2002 -0.4287
  486MOL0     C64052  11.337   0.293   0.266 -0.1139 -0.2339 -1.5239
  486MOL0     C64053  11.218   0.217   0.295  0.1696 -0.8529 -0.4992
  486MOL0     C64054  11.111   0.272   0.379  0.4950  0.0298  0.2382
  486MOL0     O64055  10.990   0.212   0.413 -0.1680  0.5653 -0.2869
  486MOL0     C64056  10.959   0.075   0.366 -0.4310 -0.4693  0.1245
  486MOL0     C64057  10.826   0.022   0.422  0.2645 -0.9710  0.0612
  486MOL0     C64058  10.722   0.122   0.380  0.8257 -0.4445  0.4376
  486MOL0     C64059  10.574   0.091   0.404  0.2223  0.0763  0.6583
  486MOL0     C64060  10.494   0.213   0.359  0.4800 -0.7643  0.3988
  486MOL0     C64061  10.349   0.183   0.388 -0.0227 -0.4757  0.9965
  486MOL0     C64062  10.268   0.308   0.336 -0.0453  0.0265  1.0543
  486MOL0     C64063  10.131   0.249   0.294  0.7611  0.4585  0.1106
  486MOL0    Cl64064  10.047   0.205   0.443  0.0421 -0.1811 -0.3596
  486MOL0     C64065  11.137   0.398   0.433 -0.7136  0.3779 -0.5642
  486MOL0     C64066  11.254   0.472   0.409  0.0458  1.0617 -0.5305
  486MOL0     O64067  11.446   0.558   0.124  0.2794  0.1053  0.1892
  486MOL0     C64068  11.722   0.640   0.342 -0.2472  0.7939  0.8712
  486MOL0     C64069  11.846   0.712   0.337  0.2502 -0.2047  0.5619
  486MOL0     N64070  12.311   1.290   0.262  0.2230 -0.3701  0.3622
  486MOL0     N64071  12.253   1.382   0.320 -0.7362 -0.3902 -0.4343
  486MOL0     C64072  11.162   0.942   0.582 -0.6557 -0.0921  0.3973
  486MOL0     C64073  11.024   0.928   0.579  0.3321 -0.7144  0.1156
  486MOL0     C64074  10.600   0.837   0.504  0.6569  0.4110 -0.7558
  486MOL0     C64075  10.583   0.699   0.490  0.6243  0.9332  0.5863
  486MOL0     C64076  10.459   0.632   0.483  0.2343 -0.7884  0.0670
  486MOL0     C64077  10.337   0.702   0.499  0.6462 -0.1628 -0.7321
  486MOL0     O64078  10.212   0.631   0.488  0.0038 -0.3741  0.1078
  486MOL0     C64079  10.097   0.710   0.527 -0.0186  0.6690 -0.1415
  486MOL0     C64080   9.980   0.619   0.485 -0.7058  0.0143 -0.0723
  486MOL0     C64081   9.933   0.542   0.610 -0.1094  0.7850 -0.5623
  486MOL0     C64082   9.805   0.462   0.571 -0.7151 -0.0107  0.0784
  486MOL0     C64083   9.690   0.549   0.559  0.0883 -0.3092  0.0801
  486MOL0     C64084   9.603   0.636   0.540 -0.9316  0.4954  0.3682
  486MOL0     C64085  10.348   0.842   0.525  0.4868  0.2999 -0.4249
  486MOL0     C64086  10.475   0.904   0.528 -0.1794  0.4180 -0.2015
  486MOL0     H64087  10.994   0.771   0.287 -0.0256  2.3781 -0.8804
  486MOL0     H64088  11.218   0.807   0.268 -0.2739 -1.1057  0.2458
  486MOL0     H64089  11.422   0.996   0.289 -1.2222  0.6642  1.1728
  486MOL0     H64090  11.430   0.818   0.317  0.0210 -0.3808  1.7806
  486MOL0     H64091  11.663   0.923   0.310  0.6908  1.2378  1.0029
  486MOL0     H64092  11.628   0.846   0.464  0.6582  0.3019  1.1076
  486MOL0     H64093  11.577   1.078   0.566  1.1190  1.2189  0.6466
  486MOL0     H64094  11.572   1.140   0.395 -0.6591 -1.3646 -0.9756
  486MOL0     H64095  11.824   1.040   0.561  1.1669 -0.2081 -1.0922
  486MOL0     H64096  11.824   1.093   0.392 -0.9399  0.3554 -0.0669
  486MOL0     H64097  11.773   1.272   0.632 -0.8865  0.4168  0.1343
  486MOL0     H64098  11.749   1.312   0.466 -0.4286 -1.2311 -0.0058
  486MOL0     H64099  11.991   1.235   0.427  0.9986  0.4519 -0.0097
  486MOL0     H64100  12.006   1.198   0.600 -0.5614  0.3600  0.5056
  486MOL0     H64101  11.973   1.464   0.452  0.7551 -0.6050 -1.2756
  486MOL0     H64102  11.962   1.456   0.632 -0.6545 -1.8669  0.5888
  486MOL0     H64103  12.203   1.396   0.650  0.4097 -1.9881 -0.6467
  486MOL0     H64104  12.194   1.528   0.529  0.8436 -0.0022 -0.5459
  486MOL0     H64105  12.279   1.138   0.544  0.1319 -2.5066 -2.5231
  486MOL0     H64106  12.476   1.025   0.336  2.3193  1.6244 -2.0395
  486MOL0     H64107  12.436   1.088   0.183 -1.0367  1.6746 -0.2812
  486MOL0     H64108  12.256   0.909   0.358 -3.4596  2.9074 -1.3478
  486MOL0     H64109  12.345   0.858   0.217 -2.0771 -1.5999 -0.9570
  486MOL0     H64110  12.132   1.071   0.183  1.9643  2.4772  0.6428
  486MOL0     H64111  12.254   1.020   0.069  0.1212 -0.4468 -0.0934
  486MOL0     H64112  12.126   0.781   0.060 -1.3984 -1.1164  0.2120
  486MOL0     H64113  12.018   0.915   0.043  1.3331  1.2161 -0.0826
  486MOL0     H64114  11.860   0.782   0.015  0.2923  2.9319  0.4614
  486MOL0     H64115  11.664   0.647   0.011  0.0518 -4.6361  1.4694
  486MOL0     H64116  11.415   0.251   0.203 -0.9594 -1.7700 -1.5985
  486MOL0     H64117  11.198   0.123   0.246  1.3553 -2.1333  1.3441
  486MOL0     H64118  11.030  -0.005   0.386 -3.2108 -2.1992  4.5192
  486MOL0     H64119  10.958   0.082   0.257  2.4397 -1.4414 -0.0619
  486MOL0     H64120  10.833   0.019   0.531 -0.1296  4.4419  0.5166
  486MOL0     H64121  10.797  -0.071   0.372 -2.8542  1.2613 -2.7080
  486MOL0     H64122  10.738   0.154   0.277  2.8824 -1.1202  0.5025
  486MOL0     H64123  10.750   0.211   0.438  3.9593 -1.0226 -0.0606
  486MOL0     H64124  10.544  -0.000   0.351 -2.9564 -0.1539  2.6182
  486MOL0     H64125  10.557   0.078   0.511 -1.0169 -0.3396  0.4171
  486MOL0     H64126  10.516   0.234   0.254 -1.1700  3.4351  0.6960
  486MOL0     H64127  10.535   0.299   0.413  1.4166 -0.1081 -1.2857
  486MOL0     H64128  10.332   0.170   0.496 -0.0168 -0.4311  1.0032
  486MOL0     H64129  10.311   0.089   0.349 -0.5057 -0.0827  0.5033
  486MOL0     H64130  10.252   0.385   0.412 -1.7808 -0.2996  1.0604
  486MOL0     H64131  10.312   0.348   0.244 -0.5637 -0.2652  0.6730
  486MOL0     H64132  10.151   0.164   0.228  1.7547 -0.0872  1.0893
  486MOL0     H64133  10.073   0.326   0.242  1.4411  2.6239  2.3467
  486MOL0     H64134  11.061   0.444   0.495  0.3385  0.8388  0.4277
  486MOL0     H64135  11.270   0.569   0.453 -1.0481  0.7673  0.5732
  486MOL0     H64136  11.686   0.596   0.434  1.7957 -1.1831  0.8333
  486MOL0     H64137  11.892   0.728   0.434  1.0988  0.5450  0.0491
  486MOL0     H64138  11.199   0.989   0.672  1.9668  2.0961 -1.6386
  486MOL0     H64139  10.959   0.964   0.659 -0.9452 -3.1202  0.2847
  486MOL0     H64140  10.668   0.631   0.484 -1.1341 -1.9651  4.1442
  486MOL0     H64141  10.464   0.524   0.476  1.8829 -0.6811 -0.9905
  486MOL0     H64142  10.101   0.803   0.470  0.4803  1.5322  1.2626
  486MOL0     H64143  10.083   0.727   0.634 -1.9466  1.4175 -0.4609
  486MOL0     H64144   9.904   0.686   0.444 -1.7535 -0.4733  1.0235
  486MOL0     H64145  10.007   0.555   0.400 -0.6806  0.9069 -0.7525
  486MOL0     H64146   9.919   0.611   0.694  2.6266 -0.5000  1.1006
  486MOL0     H64147  10.017   0.479   0.642 -0.9394  0.0776  0.2558
  486MOL0     H64148   9.810   0.409   0.475  1.7666  2.6522 -1.4050
  486MOL0     H64149   9.796   0.387   0.649  2.7839 -0.8491 -0.1952
  486MOL0     H64150   9.527   0.712   0.534 -0.4332  0.9727 -0.0177
  486MOL0     H64151  10.261   0.905   0.538  1.5799  1.4109  2.1589
  486MOL0     H64152  10.468   1.011   0.550 -4.1124  0.2297  0.2442
  487MOL0     O64153   5.204   0.627   6.499  0.0136 -0.3536 -0.3603
  487MOL0     C64154   5.159   0.650   6.390 -0.3470  0.1592  0.0919
  487MOL0     O64155   5.219   0.637   6.272 -0.5079  0.7246 -0.1642
  487MOL0     C64156   5.344   0.583   6.256  0.6943  0.1534 -0.6162
  487MOL0     C64157   5.420   0.639   6.157 -0.4748 -0.0562  0.4746
  487MOL0     C64158   5.551   0.595   6.125  0.5214 -0.5108 -0.5203
  487MOL0     C64159   5.611   0.498   6.201 -0.4179 -0.3460 -0.8659
  487MOL0     O64160   5.740   0.442   6.173  0.3915  0.0280  0.5567
  487MOL0     C64161   5.834   0.444   6.282  0.6186  1.1636 -0.2016
  487MOL0     C64162   5.975   0.431   6.220  0.5160 -0.8103  0.3736
  487MOL0     C64163   6.011   0.553   6.141 -0.5211 -0.0415  0.0416
  487MOL0     C64164   6.155   0.559   6.096  0.8494  1.6161  0.3571
  487MOL0     C64165   6.244   0.599   6.210  0.7126  0.0440 -0.5386
  487MOL0     C64166   6.391   0.577   6.183 -0.2880  0.0565 -0.5876
  487MOL0     C64167   6.453   0.670   6.078 -0.7655  0.0029  0.7333
  487MOL0     C64168   6.601   0.643   6.057  0.6843  0.2191  0.8286
  487MOL0     N64169   6.671   0.765   5.993 -0.7400  0.5410  0.1189
  487MOL0     C64170   6.800   0.795   6.010 -0.6081 -0.7743 -0.4886
  487MOL0     C64171   6.830   0.900   5.927 -0.5617  0.4489 -0.0284
  487MOL0     C64172   6.970   0.955   5.908  0.8098 -0.4659 -0.1908
  487MOL0     C64173   6.974   1.102   5.885  0.9358  0.0466  0.0439
  487MOL0     C64174   7.121   1.137   5.845  0.0894  0.8891 -0.8127
  487MOL0     C64175   7.126   1.281   5.795 -0.8097  0.6553  0.0762
  487MOL0     O64176   7.260   1.324   5.813 -0.0472 -0.3890  0.4034
  487MOL0     C64177   7.290   1.455   5.791  0.1352  0.3597  0.5066
  487MOL0     C64178   7.198   1.545   5.743  0.1756 -0.1527  0.6134
  487MOL0     C64179   7.228   1.681   5.721 -0.9935  0.1248  1.2359
  487MOL0     C64180   7.361   1.729   5.733  0.1109  0.1874 -0.1140
  487MOL0     C64181   7.399   1.862   5.694 -0.1619 -0.0516  0.2734
  487MOL0     O64182   7.291   1.940   5.684 -0.6227  0.0499 -0.2080
  487MOL0     C64183   7.286   2.067   5.634 -0.4153 -0.1385 -0.2438
  487MOL0     C64184   7.153   2.118   5.643  0.0581 -0.2976  0.3317
  487MOL0     C64185   7.120   2.249   5.586  0.7286 -0.5397  0.0400
  487MOL0     C64186   7.219   2.327   5.531 -1.3524 -0.2540  0.4717
  487MOL0     O64187   7.179   2.448   5.480 -0.4526  0.4051 -0.1756
  487MOL0     C64188   7.268   2.542   5.410 -0.0989 -0.0788  1.0513
  487MOL0     C64189   7.291   2.675   5.486  0.3806 -0.5972 -0.4637
  487MOL0     C64190   7.364   2.650   5.625  0.6839  0.8139  0.5597
  487MOL0     C64191   7.364   2.781   5.706 -0.0676 -0.2794 -0.4029
  487MOL0     C64192   7.473   2.878   5.667  0.2936 -0.3656  0.9658
  487MOL0     C64193   7.520   2.975   5.776  0.4147  0.7189  0.7494
  487MOL0     C64194   7.649   3.046   5.735 -0.1321  0.0625  0.3861
  487MOL0     C64195   7.738   3.104   5.856 -0.3973 -0.3889 -0.3716
  487MOL0    Cl64196   7.653   3.261   5.903  0.3884  0.3202 -0.1631
  487MOL0     C64197   7.350   2.272   5.526 -0.6683 -0.2164 -0.1292
  487MOL0     C64198   7.381   2.141   5.565  0.5818  0.2612  0.1383
  487MOL0     O64199   7.511   1.896   5.696  0.1308 -0.2854 -0.0785
  487MOL0     C64200   7.458   1.634   5.779  0.6551  0.3090  0.3811
  487MOL0     C64201   7.417   1.494   5.804 -0.0681 -0.3242  0.0088
  487MOL0     N64202   6.709   0.926   5.857 -0.6753  0.7141 -1.0820
  487MOL0     N64203   6.620   0.842   5.894 -0.3604 -0.2405  0.2775
  487MOL0     C64204   5.532   0.440   6.302  0.1229  0.7518 -0.1697
  487MOL0     C64205   5.402   0.478   6.335 -0.4195 -0.4664 -0.4542
  487MOL0     C64206   5.020   0.694   6.394  0.3000  0.4492 -0.2864
  487MOL0     C64207   4.960   0.751   6.507 -0.4479  0.7413  0.1082
  487MOL0     C64208   4.821   0.765   6.510  0.2620  1.1037 -0.3545
  487MOL0     C64209   4.739   0.735   6.403 -0.6768 -0.7339  0.5863
  487MOL0     O64210   4.608   0.790   6.420  0.1654  0.0392 -0.2376
  487MOL0     C64211   4.525   0.786   6.306 -0.1150  0.0357  0.3785
  487MOL0     C64212   4.396   0.854   6.342  1.0011 -0.2838  0.2250
  487MOL0     C64213   4.306   0.846   6.217  0.0017  0.9660  0.3896
  487MOL0     C64214   4.230   0.989   6.205 -0.2113  0.7901  0.0483
  487MOL0     C64215   4.335   1.095   6.186 -0.0808 -0.4019 -0.1847
  487MOL0     C64216   4.419   1.181   6.180 -0.0777 -0.0662  0.3046
  487MOL0     C64217   4.799   0.681   6.286  0.4789  0.9268 -0.4519
  487MOL0     C64218   4.939   0.668   6.282 -0.5396  0.6033 -0.3181
  487MOL0     H64219   5.386   0.712   6.084  0.7806  0.0790  0.0140
  487MOL0     H64220   5.603   0.637   6.040 -0.6709  0.0025 -1.0123
  487MOL0     H64221   5.812   0.351   6.336  3.8732 -0.6846 -1.7235
  487MOL0     H64222   5.814   0.524   6.353 -0.9122  1.4917 -0.9458
  487MOL0     H64223   5.975   0.342   6.157  0.8731 -0.2511 -0.4375
  487MOL0     H64224   6.043   0.416   6.305  1.7310  2.5336  0.1540
  487MOL0     H64225   5.997   0.638   6.208  0.6887 -0.1960  0.5030
  487MOL0     H64226   5.950   0.560   6.050  0.1480  1.9206 -0.2963
  487MOL0     H64227   6.179   0.458   6.060 -2.8196  0.4383  0.7232
  487MOL0     H64228   6.163   0.623   6.008 -1.7675  0.1320 -1.0924
  487MOL0     H64229   6.218   0.544   6.301 -0.0630 -2.2781 -2.0696
  487MOL0     H64230   6.234   0.706   6.231 -0.4480 -0.3275  0.9601
  487MOL0     H64231   6.402   0.470   6.161  3.7150  0.2640 -0.2569
  487MOL0     H64232   6.448   0.597   6.275  1.5884 -2.0108 -1.2126
  487MOL0     H64233   6.398   0.653   5.985  1.0614  1.1765 -0.6222
  487MOL0     H64234   6.442   0.775   6.108 -2.3503  0.0482  0.1063
  487MOL0     H64235   6.621   0.561   5.988 -0.7788 -0.5776  1.3166
  487MOL0     H64236   6.650   0.616   6.151  0.6010  0.0150  0.8148
  487MOL0     H64237   6.864   0.750   6.085 -1.3738 -0.5729  0.2969
  487MOL0     H64238   7.008   0.889   5.829 -1.2663 -2.3115  0.2319
  487MOL0     H64239   7.011   0.948   6.009  1.5837  1.8745 -0.2948
  487MOL0     H64240   6.942   1.161   5.972 -0.4108 -1.2311  0.4591
  487MOL0     H64241   6.903   1.139   5.810 -0.1014 -2.1769 -0.1405
  487MOL0     H64242   7.188   1.122   5.931 -1.3204  1.0728  0.3571
  487MOL0     H64243   7.157   1.070   5.766  0.2931 -0.1334  0.1103
  487MOL0     H64244   7.049   1.341   5.843 -6.0134 -4.4114 -0.8272
  487MOL0     H64245   7.107   1.274   5.687  0.9069 -0.0811 -0.2180
  487MOL0     H64246   7.092   1.526   5.732 -0.1708  1.9612 -0.0352
  487MOL0     H64247   7.150   1.744   5.680 -0.4210  0.4419  0.6218
  487MOL0     H64248   7.071   2.062   5.686 -1.6329 -1.0818 -3.5518
  487MOL0     H64249   7.025   2.299   5.572  1.0871  0.2909  0.5509
  487MOL0     H64250   7.229   2.571   5.312 -0.7495  1.0263  1.6135
  487MOL0     H64251   7.369   2.508   5.386  0.2311  0.6043  1.4349
  487MOL0     H64252   7.198   2.731   5.489  0.7597  0.0298  2.2621
  487MOL0     H64253   7.361   2.743   5.436  2.1183  0.5454  3.1835
  487MOL0     H64254   7.462   2.609   5.599 -0.1544 -0.0078 -1.5124
  487MOL0     H64255   7.305   2.579   5.684 -2.6597  2.0396 -1.0829
  487MOL0     H64256   7.263   2.822   5.705 -0.2696 -0.5946  2.0287
  487MOL0     H64257   7.379   2.751   5.810 -3.9082 -1.0127  0.0638
  487MOL0     H64258   7.434   2.927   5.577 -1.7106 -1.3693  1.2168
  487MOL0     H64259   7.554   2.812   5.633 -0.1505 -0.5684  0.2623
  487MOL0     H64260   7.537   2.917   5.867 -0.6838 -1.3491 -0.2879
  487MOL0     H64261   7.444   3.050   5.800 -0.7177 -0.0400 -0.3110
  487MOL0     H64262   7.712   2.971   5.686  0.5431  0.2124  1.0169
  487MOL0     H64263   7.611   3.120   5.664 -1.6549  0.9960  2.0753
  487MOL0     H64264   7.840   3.111   5.817 -1.4952  2.3209 -3.1119
  487MOL0     H64265   7.738   3.044   5.948  0.6269  0.0321 -0.0846
  487MOL0     H64266   7.427   2.343   5.497  0.0770 -1.3132 -0.8894
  487MOL0     H64267   7.484   2.109   5.561  0.7785  0.9575 -2.0316
  487MOL0     H64268   7.562   1.662   5.786  1.7257 -3.5313  2.9496
  487MOL0     H64269   7.498   1.429   5.838  2.1083  2.0965 -0.2780
  487MOL0     H64270   5.574   0.367   6.370 -2.0850 -0.4273  0.0269
  487MOL0     H64271   5.360   0.423   6.419  1.1215 -0.5821  0.2634
  487MOL0     H64272   5.019   0.771   6.597  0.7842  3.1381 -1.1237
  487MOL0     H64273   4.783   0.805   6.603  0.7555  1.2280 -0.2024
  487MOL0     H64274   4.509   0.683   6.271  1.2476  0.0858 -0.4441
  487MOL0     H64275   4.573   0.838   6.223 -1.0812 -1.1076 -0.9502
  487MOL0     H64276   4.354   0.798   6.427  1.3479 -1.2292 -0.2146
  487MOL0     H64277   4.414   0.958   6.372  2.8242  0.6490 -3.5691
  487MOL0     H64278   4.235   0.763   6.220  0.2297  0.6608 -1.4188
  487MOL0     H64279   4.362   0.836   6.123 -2.1770  1.5814 -1.0229
  487MOL0     H64280   4.169   0.985   6.115 -1.0183 -2.7260  0.5838
  487MOL0     H64281   4.172   1.015   6.294  0.9622  1.0647  0.7573
  487MOL0     H64282   4.497   1.254   6.174  1.3519 -1.5713  0.0241
  487MOL0     H64283   4.742   0.649   6.200 -2.9246 -3.0811  2.8646
  487MOL0     H64284   4.977   0.616   6.194 -0.6026  0.4810 -0.2727
  488MOL0     O64285   1.118   3.543   4.666  0.1102 -0.5410 -0.0955
  488MOL0     C64286   1.081   3.632   4.580 -0.2959 -0.1709 -0.2894
  488MOL0     O64287   0.959   3.659   4.541  0.3308  0.8351 -0.2381
  488MOL0     C64288   0.853   3.638   4.630 -0.5692  0.0310  0.0816
  488MOL0     C64289   0.738   3.635   4.563  1.1888  0.0780 -0.2019
  488MOL0     C64290   0.616   3.621   4.627  0.4345  0.7636 -0.6076
  488MOL0     C64291   0.607   3.612   4.765 -0.5784  0.2720  0.2250
  488MOL0     O64292   0.482   3.591   4.815  0.2735 -0.0341  0.5940
  488MOL0     C64293   0.470   3.601   4.962  0.2754  0.7416 -0.3117
  488MOL0     C64294   0.314   3.596   4.995  0.1709 -0.7365  0.3356
  488MOL0     C64295   0.291   3.580   5.142 -0.1043 -0.0558  0.5639
  488MOL0     C64296   0.150   3.605   5.190  0.6945  0.1147 -0.4297
  488MOL0     C64297   0.125   3.573   5.335  0.2965 -0.1016  0.1719
  488MOL0     C64298  -0.021   3.517   5.342  0.1991  0.5989  0.1696
  488MOL0     C64299  -0.082   3.487   5.481  0.3243 -1.2117  0.4200
  488MOL0     C64300  -0.213   3.413   5.466 -0.6245  0.4527  0.1628
  488MOL0     N64301  -0.298   3.415   5.592 -0.0958  0.1315  0.4465
  488MOL0     C64302  -0.400   3.504   5.617  1.6777 -0.6360  0.3972
  488MOL0     C64303  -0.456   3.469   5.728  0.3174  0.9835  0.4871
  488MOL0     C64304  -0.589   3.517   5.795 -0.8184 -0.1699  0.4376
  488MOL0     C64305  -0.714   3.499   5.710  0.6549  0.2190 -0.3186
  488MOL0     C64306  -0.755   3.628   5.639  0.6076  0.2171  0.4976
  488MOL0     C64307  -0.845   3.615   5.518 -0.0648 -0.6864 -0.5044
  488MOL0     O64308  -0.815   3.499   5.439 -0.2359  0.4532  0.1214
  488MOL0     C64309  -0.708   3.498   5.349  0.6072  0.2763  0.3455
  488MOL0     C64310  -0.687   3.376   5.287  0.1832 -0.5082  0.1632
  488MOL0     C64311  -0.571   3.361   5.206  0.3791  0.2935  0.1403
  488MOL0     C64312  -0.481   3.476   5.193  0.1448 -0.2085 -0.5915
  488MOL0     C64313  -0.347   3.459   5.126  0.3351  0.5242 -0.3226
  488MOL0     O64314  -0.324   3.336   5.061 -0.5123  0.6764  0.5101
  488MOL0     C64315  -0.199   3.313   5.006 -0.2526  0.5740 -0.6889
  488MOL0     C64316  -0.108   3.406   4.951 -0.4993 -0.2458  0.1627
  488MOL0     C64317   0.016   3.365   4.897  0.0182 -0.3228  1.1932
  488MOL0     C64318   0.055   3.223   4.896 -0.1582  0.2032  0.2091
  488MOL0     O64319   0.170   3.168   4.843  0.5353 -0.0545 -0.2619
  488MOL0     C64320   0.255   3.263   4.782  0.2179 -0.5516 -0.2180
  488MOL0     C64321   0.375   3.190   4.720  0.1997 -0.0950 -0.1936
  488MOL0     C64322   0.493   3.283   4.705  0.4150  0.2789  0.5626
  488MOL0     C64323   0.617   3.193   4.668  0.1085  0.1028 -0.0729
  488MOL0     C64324   0.744   3.275   4.627  0.2601 -0.0905  0.0670
  488MOL0     C64325   0.858   3.184   4.570  0.4395  0.8365  0.1247
  488MOL0     C64326   0.985   3.254   4.584 -0.3746 -0.0496  0.4012
  488MOL0     C64327   1.111   3.163   4.547  0.5438  0.3881  0.6409
  488MOL0    Cl64328   1.114   3.127   4.368 -0.0381  0.1687  0.1832
  488MOL0     C64329  -0.032   3.131   4.934  0.2597  0.7580  0.1552
  488MOL0     C64330  -0.157   3.181   4.987 -0.0371 -0.7760  0.0054
  488MOL0     O64331  -0.269   3.558   5.127  0.6500  0.4311 -0.5024
  488MOL0     C64332  -0.516   3.601   5.250  0.2265  0.0428  0.3804
  488MOL0     C64333  -0.631   3.613   5.324 -0.3378  0.2955 -0.4168
  488MOL0     N64334  -0.383   3.363   5.781  1.0465 -0.0246  0.4699
  488MOL0     N64335  -0.286   3.338   5.701 -0.0908  0.1371 -0.7551
  488MOL0     C64336   0.723   3.613   4.829  0.1410  0.1491 -0.0800
  488MOL0     C64337   0.853   3.625   4.769 -0.8143 -0.7086 -0.3337
  488MOL0     C64338   1.194   3.689   4.502  0.6291  0.0615  0.2250
  488MOL0     C64339   1.325   3.672   4.541  0.3984  0.1848  0.6325
  488MOL0     C64340   1.428   3.740   4.472 -0.2670 -0.7652 -0.2537
  488MOL0     C64341   1.405   3.840   4.369  0.6958  0.7008  0.2212
  488MOL0     O64342   1.499   3.919   4.313 -0.1313  0.5902  0.2728
  488MOL0     C64343   1.624   3.944   4.373 -0.5417 -0.5037 -0.5624
  488MOL0     C64344   1.735   3.838   4.350  0.5803  0.4885 -0.1738
  488MOL0     C64345   1.725   3.762   4.219 -0.7767  0.8092 -0.5357
  488MOL0     C64346   1.865   3.698   4.184  0.0664 -0.4665  0.5469
  488MOL0     C64347   1.839   3.649   4.049  0.2835 -0.0585  0.7351
  488MOL0     C64348   1.826   3.608   3.937  0.0849  0.1283 -0.0603
  488MOL0     C64349   1.266   3.859   4.344 -0.6556  0.6627  0.5914
  488MOL0     C64350   1.166   3.785   4.400  0.3816 -0.2598 -0.2289
  488MOL0     H64351   0.726   3.662   4.458  3.3052  0.6463 -0.3346
  488MOL0     H64352   0.533   3.613   4.557  0.5315 -0.6721 -0.5780
  488MOL0     H64353   0.500   3.701   4.994 -1.7176  0.5639  2.4930
  488MOL0     H64354   0.523   3.521   5.015 -2.9289 -0.8811  0.6863
  488MOL0     H64355   0.272   3.515   4.935 -1.4704 -0.9769  1.7333
  488MOL0     H64356   0.267   3.690   4.966 -2.1175 -1.0353  2.7138
  488MOL0     H64357   0.355   3.652   5.195  1.2928 -0.6433 -0.2731
  488MOL0     H64358   0.316   3.479   5.177  0.2442  0.3641  1.5700
  488MOL0     H64359   0.116   3.708   5.174  0.1338 -0.0470 -0.3046
  488MOL0     H64360   0.082   3.549   5.126 -1.0613  1.0417  0.5601
  488MOL0     H64361   0.124   3.664   5.395  0.2009 -0.2853  0.4494
  488MOL0     H64362   0.195   3.501   5.377  1.4073  0.6543 -0.3562
  488MOL0     H64363  -0.027   3.434   5.271  0.0673 -0.0652  0.9404
  488MOL0     H64364  -0.088   3.590   5.295 -0.3197 -0.1714 -0.3259
  488MOL0     H64365  -0.014   3.425   5.539 -1.6764 -2.8279  1.1852
  488MOL0     H64366  -0.101   3.587   5.520 -0.3978  0.8641 -4.5285
  488MOL0     H64367  -0.184   3.311   5.439 -2.3107  0.3660 -1.4859
  488MOL0     H64368  -0.260   3.462   5.380  0.2243 -1.5480 -1.5201
  488MOL0     H64369  -0.440   3.576   5.546 -2.9445 -2.5133  0.7511
  488MOL0     H64370  -0.572   3.625   5.805 -1.0422 -0.0479 -0.3745
  488MOL0     H64371  -0.597   3.465   5.890  1.6812  1.3806  1.5953
  488MOL0     H64372  -0.800   3.467   5.770  1.9550  0.1625  1.6004
  488MOL0     H64373  -0.697   3.414   5.643  2.9144 -0.4824  1.0476
  488MOL0     H64374  -0.811   3.692   5.707  2.6129 -0.0084  2.4897
  488MOL0     H64375  -0.671   3.691   5.606  0.3538 -0.6750 -2.0715
  488MOL0     H64376  -0.842   3.707   5.460  0.3234 -0.2231  0.2405
  488MOL0     H64377  -0.946   3.595   5.555  1.4892 -1.6797  3.7454
  488MOL0     H64378  -0.764   3.302   5.305  2.1628 -2.7305 -0.0453
  488MOL0     H64379  -0.552   3.268   5.154 -0.5342  0.3681 -0.3487
  488MOL0     H64380  -0.134   3.510   4.933 -1.5098 -0.4152  0.5776
  488MOL0     H64381   0.076   3.444   4.854  0.4965 -1.6309 -0.6922
  488MOL0     H64382   0.286   3.333   4.861  2.6955 -0.0663 -1.5129
  488MOL0     H64383   0.203   3.314   4.700 -0.3446  0.7664  0.9190
  488MOL0     H64384   0.345   3.143   4.626  0.0936 -0.0605 -0.1773
  488MOL0     H64385   0.406   3.112   4.790  1.5602  1.6342  1.2247
  488MOL0     H64386   0.512   3.340   4.796  0.3183  2.3954 -0.6700
  488MOL0     H64387   0.473   3.358   4.628 -2.3211 -0.8060  0.1208
  488MOL0     H64388   0.645   3.124   4.748 -0.2082 -1.5843 -1.3448
  488MOL0     H64389   0.589   3.136   4.579  2.4816  2.3882 -2.4784
  488MOL0     H64390   0.775   3.321   4.721 -2.5402 -0.8358  1.4567
  488MOL0     H64391   0.712   3.347   4.551  1.2204  2.3509  1.8330
  488MOL0     H64392   0.841   3.153   4.466  0.1694 -0.4134  0.5262
  488MOL0     H64393   0.856   3.090   4.625  0.1152 -0.5172 -2.0533
  488MOL0     H64394   0.987   3.349   4.529 -1.2095  0.4036  1.1178
  488MOL0     H64395   0.991   3.273   4.692  1.4888  0.5649  0.2284
  488MOL0     H64396   1.104   3.072   4.607  1.9808 -0.9919 -1.1364
  488MOL0     H64397   1.201   3.221   4.568  2.6360 -0.4411 -4.3767
  488MOL0     H64398  -0.010   3.025   4.944  1.9878  1.1963  1.5708
  488MOL0     H64399  -0.218   3.108   5.038 -0.1446 -1.4546 -1.0580
  488MOL0     H64400  -0.445   3.683   5.253  0.7466 -0.4125  2.3883
  488MOL0     H64401  -0.640   3.705   5.380  0.8873 -0.0512  0.3695
  488MOL0     H64402   0.731   3.605   4.937  0.4657  1.0732 -0.0286
  488MOL0     H64403   0.938   3.640   4.835 -1.1868  0.7759 -0.1520
  488MOL0     H64404   1.351   3.606   4.624 -0.6763 -1.8551 -0.5882
  488MOL0     H64405   1.529   3.712   4.498 -0.7646 -2.6145 -0.1416
  488MOL0     H64406   1.603   3.964   4.478 -2.1586  1.2649 -1.1796
  488MOL0     H64407   1.658   4.039   4.330  1.9942 -1.0738 -0.0080
  488MOL0     H64408   1.833   3.886   4.354  1.2565 -0.8587 -0.2679
  488MOL0     H64409   1.735   3.762   4.428  0.0304  1.8254  1.1877
  488MOL0     H64410   1.675   3.825   4.145  1.7723 -1.1299 -4.1912
  488MOL0     H64411   1.664   3.672   4.226 -0.3868  0.3796 -2.3599
  488MOL0     H64412   1.944   3.773   4.190  0.3345 -0.6106 -0.8794
  488MOL0     H64413   1.898   3.614   4.247 -0.2077 -1.7101 -0.8989
  488MOL0     H64414   1.815   3.566   3.839 -0.7267  0.5329 -0.1477
  488MOL0     H64415   1.248   3.935   4.269 -1.9973 -2.1160 -2.1233
  488MOL0     H64416   1.063   3.810   4.373  0.3159 -1.1570 -0.8490
  489MOL0     O64417   1.254  10.427   7.519 -0.2239  0.1933 -0.2935
  489MOL0     C64418   1.293  10.540   7.537 -0.0889  0.0539  0.2137
  489MOL0     O64419   1.224  10.632   7.605  0.0939 -0.4375  0.2472
  489MOL0     C64420   1.104  10.597   7.660 -0.9101 -0.5384  0.6288
  489MOL0     C64421   0.994  10.549   7.588  0.9335  0.3905  0.2474
  489MOL0     C64422   0.875  10.514   7.661 -0.1381  0.1418  0.3773
  489MOL0     C64423   0.881  10.518   7.806  0.5196  0.7815  0.4360
  489MOL0     O64424   0.767  10.479   7.880  0.0968 -0.3431 -0.0546
  489MOL0     C64425   0.659  10.575   7.874  0.4852  0.2581 -0.2086
  489MOL0     C64426   0.692  10.687   7.969  0.3946  0.2859 -0.6977
  489MOL0     C64427   0.684  10.636   8.115  0.4271 -1.1555  0.1264
  489MOL0     C64428   0.750  10.738   8.215 -0.1701 -0.4508  0.2120
  489MOL0     C64429   0.904  10.719   8.217  0.1526 -0.1991 -0.0858
  489MOL0     C64430   0.968  10.814   8.311 -0.3220  0.5408 -0.2836
  489MOL0     C64431   0.999  10.947   8.238  0.2863  0.1365  0.2701
  489MOL0     C64432   1.103  11.021   8.312  0.4599  0.2664 -0.9500
  489MOL0     N64433   1.237  10.983   8.288 -0.0965  0.0054 -0.0349
  489MOL0     C64434   1.345  11.004   8.373 -0.0263 -0.0757  0.0253
  489MOL0     C64435   1.454  11.016   8.299  0.2380 -0.5361 -0.4016
  489MOL0     C64436   1.590  11.018   8.375  0.1981 -0.1748 -0.1921
  489MOL0     C64437   1.718  10.993   8.295  0.3243 -0.3350 -0.2748
  489MOL0     C64438   1.830  11.056   8.378  0.8893  0.3774 -0.3522
  489MOL0     C64439   1.966  11.093   8.299  0.9928 -0.0970  0.9884
  489MOL0     O64440   2.049  11.153   8.397 -0.3174 -0.2254  0.1593
  489MOL0     C64441   2.181  11.151   8.375  0.0088 -0.2634  0.9279
  489MOL0     C64442   2.241  11.183   8.249  0.0854 -0.4298 -0.2115
  489MOL0     C64443   2.376  11.185   8.237 -0.1084  0.5864 -0.3778
  489MOL0     C64444   2.459  11.143   8.344  0.4769  0.0584  0.4466
  489MOL0     C64445   2.600  11.143   8.325  0.3167 -0.3146 -0.5465
  489MOL0     O64446   2.669  11.152   8.444  0.0753 -0.5924  0.0156
  489MOL0     C64447   2.803  11.124   8.442 -0.5373 -0.2572  0.4352
  489MOL0     C64448   2.857  11.016   8.514  0.7754 -0.2424  0.3050
  489MOL0     C64449   2.997  11.007   8.539 -0.0286  0.4475  0.0751
  489MOL0     C64450   3.083  11.095   8.476  0.2494  0.0080 -0.6472
  489MOL0     O64451   3.219  11.092   8.505  0.1323 -0.1733 -0.3747
  489MOL0     C64452   3.311  11.079   8.389  1.2026 -0.5345  0.1189
  489MOL0     C64453   3.445  11.093   8.456 -0.2510 -0.2741 -0.9911
  489MOL0     C64454   3.540  11.174   8.370  1.4828 -0.6474 -0.7730
  489MOL0     C64455   3.669  11.212   8.437  0.4927  0.3137  0.3691
  489MOL0     C64456   3.757  11.278   8.333  0.1450  0.1978 -0.3170
  489MOL0     C64457   3.726  11.432   8.319 -0.6059 -0.1266  0.0380
  489MOL0     C64458   3.825  11.507   8.228  0.4429 -0.3728  0.3994
  489MOL0     C64459   3.815  11.463   8.089 -0.0081  0.1492  0.9121
  489MOL0    Cl64460   3.647  11.490   8.016 -0.0476 -0.1181 -0.0768
  489MOL0     C64461   3.031  11.195   8.399 -0.2050  0.1147  0.3629
  489MOL0     C64462   2.895  11.214   8.384  0.1480  0.1545  0.2311
  489MOL0     O64463   2.653  11.142   8.213  0.2088 -0.6684 -0.3754
  489MOL0     C64464   2.406  11.112   8.471  0.3906 -0.0975  0.0684
  489MOL0     C64465   2.269  11.116   8.474 -0.2069 -0.1726 -0.1778
  489MOL0     N64466   1.418  10.988   8.170 -0.4097  0.1275  0.2383
  489MOL0     N64467   1.292  10.970   8.165 -0.5862 -0.7899 -0.4055
  489MOL0     C64468   0.996  10.560   7.874  0.1755 -0.6275 -0.1079
  489MOL0     C64469   1.100  10.605   7.797 -0.1315 -0.3084  0.2085
  489MOL0     C64470   1.418  10.576   7.459 -0.5879 -0.0471 -0.8575
  489MOL0     C64471   1.492  10.474   7.393  0.4128 -0.3953  0.2322
  489MOL0     C64472   1.610  10.510   7.317  0.1506 -0.4358 -0.2297
  489MOL0     C64473   1.642  10.645   7.303 -0.2339 -0.6880  0.3684
  489MOL0     O64474   1.746  10.676   7.215 -0.3184 -0.1841 -1.0045
  489MOL0     C64475   1.794  10.810   7.217 -0.5408 -0.1552  0.2686
  489MOL0     C64476   1.944  10.804   7.183  0.2048  0.5618  0.1619
  489MOL0     C64477   2.027  10.750   7.305  0.4523  0.2776 -0.0740
  489MOL0     C64478   2.177  10.783   7.287  0.8200 -0.8800 -0.0610
  489MOL0     C64479   2.204  10.927   7.278 -0.6837 -0.0899  0.2729
  489MOL0     C64480   2.225  11.045   7.259  0.4863 -0.1896 -0.0043
  489MOL0     C64481   1.561  10.743   7.358 -0.0458 -0.3773  0.4812
  489MOL0     C64482   1.455  10.710   7.443  0.2429  0.5264 -0.0335
  489MOL0     H64483   1.003  10.537   7.481 -1.2755 -0.0789  0.0803
  489MOL0     H64484   0.794  10.486   7.594 -0.7896  0.9531  0.8071
  489MOL0     H64485   0.557  10.537   7.885  0.1888  0.6309 -1.4789
  489MOL0     H64486   0.665  10.626   7.778  0.7688 -1.1696 -0.9757
  489MOL0     H64487   0.614  10.763   7.955  0.6119  0.4364 -1.1241
  489MOL0     H64488   0.789  10.731   7.943  0.5133  0.6354  0.3202
  489MOL0     H64489   0.742  10.543   8.121  0.7510 -0.9099  0.9849
  489MOL0     H64490   0.577  10.627   8.138  0.1863 -3.1781 -1.5045
  489MOL0     H64491   0.731  10.845   8.200 -0.6867 -0.5901 -0.1539
  489MOL0     H64492   0.718  10.702   8.313  0.8478  0.4274  0.8934
  489MOL0     H64493   0.962  10.728   8.124  1.2178 -2.3730  0.2928
  489MOL0     H64494   0.910  10.617   8.255 -2.8325  0.0622  1.3736
  489MOL0     H64495   1.067  10.775   8.332  0.0898 -0.1095 -3.0657
  489MOL0     H64496   0.912  10.830   8.404  3.1533  1.1561  1.8615
  489MOL0     H64497   1.036  10.931   8.136  1.5577 -2.4252  1.0439
  489MOL0     H64498   0.904  11.002   8.242  0.2056 -0.0792  2.0092
  489MOL0     H64499   1.084  11.023   8.420  2.1805  1.0771 -0.6362
  489MOL0     H64500   1.101  11.124   8.276 -2.4536 -0.7262 -4.1839
  489MOL0     H64501   1.338  11.015   8.481 -0.1988  1.2823 -0.1045
  489MOL0     H64502   1.583  10.955   8.464 -0.8596  0.3269  0.0862
  489MOL0     H64503   1.592  11.121   8.412  1.7953 -0.0002 -0.6820
  489MOL0     H64504   1.713  11.059   8.207 -1.3790  1.0334  0.7719
  489MOL0     H64505   1.724  10.890   8.259 -0.9873 -0.5002 -0.0815
  489MOL0     H64506   1.785  11.146   8.421 -3.4593 -3.1360  3.5313
  489MOL0     H64507   1.856  10.981   8.453 -1.5462 -0.5087 -0.3073
  489MOL0     H64508   1.943  11.166   8.221 -2.3179 -0.7700  1.1928
  489MOL0     H64509   2.012  11.008   8.248 -1.6285 -1.1109  0.1274
  489MOL0     H64510   2.174  11.216   8.170  0.8852  0.5643 -0.5007
  489MOL0     H64511   2.417  11.222   8.144 -1.9581  0.6017 -1.2307
  489MOL0     H64512   2.780  10.954   8.559 -0.3077  0.9570  0.1828
  489MOL0     H64513   3.044  10.930   8.598 -2.0068 -0.4258  0.5999
  489MOL0     H64514   3.296  11.161   8.318  2.8367 -1.3293 -1.2182
  489MOL0     H64515   3.301  10.989   8.328 -0.6954  0.2503 -0.8154
  489MOL0     H64516   3.488  10.997   8.490 -2.5623 -1.3494 -0.9283
  489MOL0     H64517   3.437  11.148   8.550 -4.4589 -1.1876 -0.6292
  489MOL0     H64518   3.486  11.261   8.332  0.1859 -1.0855 -0.0180
  489MOL0     H64519   3.562  11.103   8.289 -0.5759 -1.6500 -0.5169
  489MOL0     H64520   3.664  11.281   8.522  1.8474  0.4222  0.3773
  489MOL0     H64521   3.710  11.115   8.467 -0.2888  0.5648  2.4280
  489MOL0     H64522   3.748  11.219   8.241  4.1879 -0.0766 -0.6974
  489MOL0     H64523   3.858  11.256   8.368  0.6435 -2.1755 -2.8272
  489MOL0     H64524   3.724  11.474   8.420  1.4877 -0.5109  0.2910
  489MOL0     H64525   3.620  11.438   8.292 -0.8586 -2.3321  0.3587
  489MOL0     H64526   3.795  11.612   8.234  0.8599 -0.3303  3.0737
  489MOL0     H64527   3.926  11.488   8.264 -0.3871 -2.2810  1.9049
  489MOL0     H64528   3.831  11.355   8.075 -3.7053 -0.4440  0.3487
  489MOL0     H64529   3.889  11.520   8.031  0.8521  2.2246  3.8154
  489MOL0     H64530   3.103  11.262   8.353  1.2674 -1.0939  0.7895
  489MOL0     H64531   2.856  11.298   8.327 -1.1402  0.0707  0.9446
  489MOL0     H64532   2.467  11.094   8.558  1.0303 -0.6014 -0.4767
  489MOL0     H64533   2.224  11.089   8.569  1.6196  1.5823  1.2725
  489MOL0     H64534   0.998  10.551   7.982 -0.1433  0.8965  0.0481
  489MOL0     H64535   1.194  10.623   7.847  0.3606 -0.3217 -0.7003
  489MOL0     H64536   1.460  10.371   7.401 -1.2835 -0.1112 -2.0334
  489MOL0     H64537   1.667  10.437   7.261 -1.3133 -0.4368 -1.8228
  489MOL0     H64538   1.783  10.865   7.311  0.7572  0.1231  0.2659
  489MOL0     H64539   1.734  10.872   7.149 -0.3277 -2.8133 -2.5644
  489MOL0     H64540   1.961  10.753   7.088  0.2430  1.5193 -0.3591
  489MOL0     H64541   1.979  10.904   7.156  1.3465 -0.6319 -3.3139
  489MOL0     H64542   2.023  10.641   7.320 -0.6039  0.4923  1.4738
  489MOL0     H64543   1.982  10.799   7.392 -0.2287 -0.4518  0.0006
  489MOL0     H64544   2.234  10.752   7.375  1.6011  5.0934  2.0045
  489MOL0     H64545   2.207  10.730   7.196 -3.0234 -2.0298 -0.8667
  489MOL0     H64546   2.265  11.144   7.262  0.3783 -0.1302 -0.5064
  489MOL0     H64547   1.584  10.849   7.353 -1.7271 -0.0364 -1.2985
  489MOL0     H64548   1.398  10.786   7.495 -1.5198 -0.8650  0.1715
  490MOL0     O64549   8.272   7.342   8.104  0.3751 -0.0121 -0.3076
  490MOL0     C64550   8.304   7.228   8.064 -0.0124 -0.4905  0.0293
  490MOL0     O64551   8.229   7.119   8.083 -0.7770  0.4160  0.3363
  490MOL0     C64552   8.117   7.118   8.149  0.6015 -0.0866  0.4374
  490MOL0     C64553   8.071   6.990   8.175  0.4597  0.6351 -0.0695
  490MOL0     C64554   7.931   6.963   8.204 -1.0022  0.8232  0.0481
  490MOL0     C64555   7.839   7.065   8.212  0.0378  0.6500 -0.1910
  490MOL0     O64556   7.717   7.025   8.267 -0.1587  0.1726 -0.0373
  490MOL0     C64557   7.603   7.097   8.232  0.5586  0.9518  0.4838
  490MOL0     C64558   7.486   7.036   8.310  0.1602  0.3670  0.2412
  490MOL0     C64559   7.348   7.102   8.295 -0.1588  0.0031 -0.0821
  490MOL0     C64560   7.250   7.025   8.376  0.3168  0.2763 -0.1868
  490MOL0     C64561   7.272   7.004   8.520  0.9533 -0.4213 -0.7806
  490MOL0     C64562   7.137   6.974   8.588 -0.5121 -0.3017 -0.3930
  490MOL0     C64563   7.084   6.829   8.562 -0.0594 -0.3381  0.2513
  490MOL0     C64564   6.953   6.822   8.638 -0.1309  0.5701  0.1165
  490MOL0     N64565   6.847   6.876   8.562  0.3374 -0.3471  0.4531
  490MOL0     C64566   6.800   6.845   8.437 -0.5411  0.7106  0.0824
  490MOL0     C64567   6.726   6.947   8.400 -0.2383 -0.5783  0.1940
  490MOL0     C64568   6.650   6.940   8.279  0.5765 -0.2220 -0.0737
  490MOL0     C64569   6.516   6.872   8.285 -0.5724 -0.5207 -0.2308
  490MOL0     C64570   6.452   6.869   8.153  0.5540 -0.5270  0.3866
  490MOL0     C64571   6.299   6.837   8.162  0.4329  0.3841 -0.5727
  490MOL0     O64572   6.213   6.943   8.202  0.3989  0.1497  0.3586
  490MOL0     C64573   6.079   6.919   8.228 -0.7897  0.0921  0.5723
  490MOL0     C64574   6.007   7.002   8.315 -0.3957 -0.7877  0.3142
  490MOL0     C64575   5.873   6.973   8.349  0.0976  0.8941 -0.9998
  490MOL0     C64576   5.804   6.857   8.304  0.3162 -0.4580  0.1148
  490MOL0     C64577   5.671   6.825   8.345 -0.1084  0.1839  0.1608
  490MOL0     O64578   5.598   6.920   8.411  0.3001  0.6440 -0.4569
  490MOL0     C64579   5.462   6.909   8.423 -0.1486 -0.1502  0.5689
  490MOL0     C64580   5.378   6.817   8.352  0.6522 -0.4166 -0.4112
  490MOL0     C64581   5.239   6.816   8.369 -0.6365 -0.4757  0.6459
  490MOL0     C64582   5.188   6.902   8.471 -0.8548 -0.5415  0.4105
  490MOL0     O64583   5.053   6.906   8.492  0.1645  1.4980 -0.0432
  490MOL0     C64584   4.987   7.026   8.540  0.5288  0.1398  0.1865
  490MOL0     C64585   4.991   7.135   8.434 -0.1854 -0.3673  0.1016
  490MOL0     C64586   4.923   7.101   8.303 -0.3454  0.3916  0.2323
  490MOL0     C64587   5.005   7.017   8.209  0.1072  0.0537 -0.9840
  490MOL0     C64588   4.963   7.015   8.067  0.0127 -0.4013 -0.6338
  490MOL0     C64589   5.077   6.962   7.971  0.0723  0.3707  0.4188
  490MOL0     C64590   5.019   6.906   7.845 -0.1484  0.0802  1.0274
  490MOL0     C64591   4.964   6.756   7.863  0.0984  0.1243  0.4681
  490MOL0    Cl64592   5.090   6.662   7.939  0.0787  0.0648 -0.2183
  490MOL0     C64593   5.267   6.993   8.541  0.1070 -0.4950  0.7008
  490MOL0     C64594   5.406   6.995   8.506 -0.5972 -0.1127  0.6626
  490MOL0     O64595   5.647   6.709   8.335 -0.3571 -0.0788  0.3111
  490MOL0     C64596   5.872   6.780   8.217 -1.0799 -0.3304  0.9354
  490MOL0     C64597   6.009   6.814   8.184  1.1923 -0.0756  1.1415
  490MOL0     N64598   6.724   7.043   8.499 -0.4090  0.3290  0.1654
  490MOL0     N64599   6.795   6.995   8.603 -0.6287  0.2624  0.0448
  490MOL0     C64600   7.881   7.196   8.185  0.3283  0.5098 -0.7255
  490MOL0     C64601   8.013   7.218   8.137 -0.2195  0.2994 -0.0560
  490MOL0     C64602   8.443   7.214   8.018 -0.1619 -1.2214 -0.7354
  490MOL0     C64603   8.499   7.094   7.994 -0.6379  0.2904  0.1119
  490MOL0     C64604   8.636   7.091   7.953  0.3943  0.2877  0.1901
  490MOL0     C64605   8.715   7.205   7.929 -0.3613 -0.2812  0.5061
  490MOL0     O64606   8.850   7.208   7.888  0.4054  0.0842 -0.1510
  490MOL0     C64607   8.912   7.085   7.846  0.2236  0.2447 -0.6664
  490MOL0     C64608   8.959   7.011   7.978  0.5386 -0.6291 -0.1649
  490MOL0     C64609   9.069   7.102   8.048  0.1861 -0.2491  0.5550
  490MOL0     C64610   9.169   7.003   8.119 -0.4909 -0.0090  0.6039
  490MOL0     C64611   9.263   6.934   8.021  0.7752  0.4570 -0.2018
  490MOL0     C64612   9.328   6.869   7.943  0.2442  0.7716 -0.1026
  490MOL0     C64613   8.642   7.330   7.955 -1.1779  0.2249 -0.2213
  490MOL0     C64614   8.512   7.333   7.994 -0.3448 -0.5072  0.3873
  490MOL0     H64615   8.143   6.910   8.161 -0.5853 -0.5038  0.7640
  490MOL0     H64616   7.915   6.861   8.235  2.2333 -0.1172 -0.9675
  490MOL0     H64617   7.586   7.081   8.125 -0.0614 -0.5144  0.7761
  490MOL0     H64618   7.607   7.202   8.262  2.0423  0.9595  0.3228
  490MOL0     H64619   7.515   7.046   8.415 -2.2860 -0.4881  1.0754
  490MOL0     H64620   7.496   6.932   8.275  0.1482  0.2824  0.4873
  490MOL0     H64621   7.320   7.094   8.190 -1.2263 -1.3572  0.2742
  490MOL0     H64622   7.351   7.208   8.320 -0.8713  0.1143 -0.4389
  490MOL0     H64623   7.153   7.074   8.362 -0.5811 -2.0629 -2.9437
  490MOL0     H64624   7.239   6.934   8.318 -1.7349 -0.1847  0.8217
  490MOL0     H64625   7.306   7.099   8.561 -2.7721 -0.5966  3.4681
  490MOL0     H64626   7.349   6.930   8.543  2.1296  0.9064 -0.3023
  490MOL0     H64627   7.060   7.045   8.560 -1.6736  0.1629  3.4139
  490MOL0     H64628   7.138   6.981   8.698 -1.0924 -1.8059 -0.2681
  490MOL0     H64629   7.064   6.817   8.455  0.2451 -0.7275  0.2348
  490MOL0     H64630   7.151   6.751   8.599 -2.4100 -1.6766  1.9815
  490MOL0     H64631   6.964   6.873   8.734  2.6428 -1.8927  1.2515
  490MOL0     H64632   6.927   6.717   8.658 -0.5855  0.9229  1.4970
  490MOL0     H64633   6.821   6.757   8.376 -0.3807  0.9554 -0.2145
  490MOL0     H64634   6.714   6.901   8.199  0.5259  1.5115 -1.0115
  490MOL0     H64635   6.643   7.047   8.256  1.4413 -0.2330 -0.4362
  490MOL0     H64636   6.454   6.933   8.351 -1.2917 -0.9099 -0.5336
  490MOL0     H64637   6.529   6.772   8.326 -0.3346  0.0063  1.0057
  490MOL0     H64638   6.453   6.959   8.091 -0.1929 -0.7604  0.0248
  490MOL0     H64639   6.495   6.787   8.095 -4.5775 -4.1479  0.9564
  490MOL0     H64640   6.281   6.760   8.238 -0.8960  1.1632 -0.0669
  490MOL0     H64641   6.270   6.801   8.062  1.0114 -1.6925 -0.0375
  490MOL0     H64642   6.045   7.098   8.347 -1.7364 -1.0607  3.0080
  490MOL0     H64643   5.819   7.048   8.406  1.6258  1.4848 -0.2782
  490MOL0     H64644   5.418   6.744   8.282  0.7310 -0.0764 -0.7293
  490MOL0     H64645   5.175   6.745   8.318 -1.2159  1.1627 -1.0032
  490MOL0     H64646   5.029   7.068   8.632 -1.9002  0.7119  1.1202
  490MOL0     H64647   4.883   7.005   8.565  0.3589  0.2987 -0.3770
  490MOL0     H64648   5.095   7.157   8.407 -0.4179 -0.8920 -1.3686
  490MOL0     H64649   4.947   7.228   8.470  0.5887  0.1262 -0.1944
  490MOL0     H64650   4.897   7.197   8.257 -0.5608  1.2058  1.9966
  490MOL0     H64651   4.829   7.049   8.321 -0.6274  0.6746 -0.4034
  490MOL0     H64652   5.102   7.067   8.210  0.9535 -1.5370 -0.5688
  490MOL0     H64653   5.023   6.917   8.247 -1.5019 -0.7668 -2.2647
  490MOL0     H64654   4.934   7.116   8.037 -0.1357 -0.5664 -1.0535
  490MOL0     H64655   4.878   6.949   8.052 -1.3319  0.7386  1.4358
  490MOL0     H64656   5.136   6.890   8.028  2.8311 -0.2755 -2.8866
  490MOL0     H64657   5.132   7.055   7.952  0.2351  0.2894  0.4921
  490MOL0     H64658   4.937   6.970   7.812 -1.1700 -0.6815  2.0129
  490MOL0     H64659   5.098   6.915   7.770  0.4389  0.2082  1.6477
  490MOL0     H64660   4.941   6.711   7.766  1.5102 -1.0258  0.6377
  490MOL0     H64661   4.873   6.762   7.922 -0.3451 -1.2907 -0.0467
  490MOL0     H64662   5.241   7.065   8.618 -0.3615 -0.9041  0.9256
  490MOL0     H64663   5.467   7.075   8.548 -0.0941 -1.0556  1.7908
  490MOL0     H64664   5.837   6.684   8.180 -2.5732 -0.9795  3.8053
  490MOL0     H64665   6.067   6.749   8.120  1.7233 -0.1183  1.6564
  490MOL0     H64666   7.805   7.272   8.196 -0.5161 -0.1543 -1.8353
  490MOL0     H64667   8.033   7.316   8.096  1.1233  0.2467  0.4421
  490MOL0     H64668   8.438   7.004   7.994 -1.8415  1.0659 -0.9615
  490MOL0     H64669   8.677   6.992   7.936  0.5212  0.6460 -1.9406
  490MOL0     H64670   8.993   7.102   7.775 -1.0403 -1.5515 -2.6711
  490MOL0     H64671   8.833   7.026   7.798 -1.9875  1.8141  0.8161
  490MOL0     H64672   8.886   6.993   8.057 -1.4281  1.6287 -1.3599
  490MOL0     H64673   9.000   6.913   7.954  1.1607 -0.2732 -0.6089
  490MOL0     H64674   9.029   7.180   8.113 -0.1246  0.5250 -0.5467
  490MOL0     H64675   9.131   7.148   7.971 -1.4951  0.2769 -0.5479
  490MOL0     H64676   9.236   7.064   8.181  0.7374  0.8902 -1.5049
  490MOL0     H64677   9.113   6.938   8.186  2.4890 -2.5435  0.8829
  490MOL0     H64678   9.379   6.804   7.874  1.3599  0.6964  0.7577
  490MOL0     H64679   8.699   7.422   7.948  1.6346 -1.3907 -0.2300
  490MOL0     H64680   8.471   7.432   8.010  1.5300  0.2595  0.6215
  491MOL0     O64681   6.033   0.182  11.176  0.3840 -0.1409  0.1829
  491MOL0     C64682   6.040   0.171  11.295 -0.7976  1.7672  0.4918
  491MOL0     O64683   6.142   0.211  11.363 -0.1746  0.3450 -0.2195
  491MOL0     C64684   6.260   0.246  11.311  0.6321  0.5047 -0.1456
  491MOL0     C64685   6.270   0.368  11.243 -0.3706  0.1268 -0.1845
  491MOL0     C64686   6.388   0.416  11.192  0.0039 -0.1307  0.7384
  491MOL0     C64687   6.504   0.335  11.195 -0.4859 -0.2601  1.0378
  491MOL0     O64688   6.621   0.385  11.136  0.2451 -0.4756 -0.3759
  491MOL0     C64689   6.727   0.288  11.094  0.4224  0.3284  0.1418
  491MOL0     C64690   6.835   0.348  11.013 -0.8257  0.6614 -0.1996
  491MOL0     C64691   6.922   0.237  10.955 -0.6591 -0.1439  0.2395
  491MOL0     C64692   7.042   0.304  10.888 -0.2360  0.1101  0.9211
  491MOL0     C64693   7.114   0.198  10.809 -0.5054 -0.4946 -0.2221
  491MOL0     C64694   7.247   0.235  10.772 -0.1328  0.4932 -0.6741
  491MOL0     C64695   7.319   0.117  10.710 -0.0458 -0.1628 -0.0958
  491MOL0     C64696   7.348  -0.006  10.794 -0.3984 -0.2684 -0.6748
  491MOL0     N64697   7.458   0.012  10.892  0.5088  0.2165 -0.3021
  491MOL0     C64698   7.583   0.048  10.860  0.5684  0.3235 -0.0225
  491MOL0     C64699   7.651   0.048  10.975 -0.4220  0.1260 -0.1141
  491MOL0     C64700   7.797   0.083  10.985 -0.4174  0.1517 -1.1488
  491MOL0     C64701   7.822   0.232  11.020 -0.1613 -1.0129  0.0893
  491MOL0     C64702   7.922   0.291  10.924  0.1909  0.4241 -0.2730
  491MOL0     C64703   8.050   0.294  11.001  0.0539  0.4055  0.2753
  491MOL0     O64704   8.154   0.332  10.912 -0.0631 -0.4324 -0.3833
  491MOL0     C64705   8.279   0.364  10.974 -0.2304  0.7453 -0.0002
  491MOL0     C64706   8.305   0.360  11.115  0.5488  0.0034 -0.1027
  491MOL0     C64707   8.419   0.390  11.170 -0.6375 -0.4029 -0.2516
  491MOL0     C64708   8.524   0.445  11.093 -0.0418  0.6549  0.0897
  491MOL0     C64709   8.658   0.490  11.155 -0.4537  0.0774  0.2586
  491MOL0     O64710   8.734   0.566  11.067 -0.5804 -0.3874  0.3607
  491MOL0     C64711   8.871   0.581  11.083  0.6858 -0.6069  0.1590
  491MOL0     C64712   8.937   0.692  11.027  0.1211 -0.0867  0.3055
  491MOL0     C64713   9.077   0.702  11.032 -0.0425  0.5025  0.3298
  491MOL0     C64714   9.159   0.599  11.090  0.2338 -0.8699 -0.3206
  491MOL0     O64715   9.292   0.593  11.092 -0.2699 -0.2821  0.1028
  491MOL0     C64716   9.374   0.713  11.052  0.6301  0.1439 -0.0443
  491MOL0     C64717   9.518   0.673  11.016  0.6179 -0.4858  0.6664
  491MOL0     C64718   9.611   0.794  10.995 -0.6338  0.2017  0.1808
  491MOL0     C64719   9.754   0.737  10.988  0.8364 -0.0002 -1.0139
  491MOL0     C64720   9.868   0.830  11.001  0.3301 -0.4460 -0.4299
  491MOL0     C64721   9.855   0.942  10.903  0.3625 -0.1959 -0.2565
  491MOL0     C64722   9.970   1.036  10.901  0.0281 -0.2204 -0.1620
  491MOL0     C64723   9.973   1.129  11.025 -0.1761  0.7272  0.9802
  491MOL0    Cl64724  10.093   1.256  11.007 -0.1088  0.0214  0.2248
  491MOL0     C64725   9.094   0.492  11.145  0.4199  0.1768 -0.4934
  491MOL0     C64726   8.952   0.484  11.148  0.7633  0.4493 -0.2309
  491MOL0     O64727   8.689   0.444  11.268  0.2444 -0.0111  0.8225
  491MOL0     C64728   8.498   0.466  10.951 -0.2828  0.0140  0.1795
  491MOL0     C64729   8.374   0.428  10.897 -0.2548  0.3322 -0.7762
  491MOL0     N64730   7.559   0.027  11.070 -0.6130  0.3574 -0.1511
  491MOL0     N64731   7.449   0.003  11.023 -0.1071 -0.6650 -0.5270
  491MOL0     C64732   6.498   0.220  11.277 -0.5881  0.2438  0.4099
  491MOL0     C64733   6.377   0.170  11.329  0.3908 -0.3049  0.1824
  491MOL0     C64734   5.925   0.106  11.358  0.3914 -0.3606  0.2682
  491MOL0     C64735   5.804   0.092  11.292 -0.2808 -0.8218  0.2604
  491MOL0     C64736   5.692   0.042  11.358 -0.1135 -0.9466 -0.0711
  491MOL0     C64737   5.696   0.001  11.491 -1.2819 -0.6231  0.3477
  491MOL0     O64738   5.582  -0.056  11.539 -0.4538 -1.1091 -0.0837
  491MOL0     C64739   5.540  -0.002  11.661  0.2224 -0.4081  0.8212
  491MOL0     C64740   5.498   0.141  11.645 -0.3425 -0.9356  0.1778
  491MOL0     C64741   5.431   0.190  11.770 -0.6355  0.4236 -0.4707
  491MOL0     C64742   5.279   0.189  11.756 -0.0987 -0.5100  0.5683
  491MOL0     C64743   5.224   0.305  11.825  0.2550  0.5664  0.3342
  491MOL0     C64744   5.157   0.391  11.880  0.3320 -0.1632 -0.4717
  491MOL0     C64745   5.818   0.011  11.553  0.1067 -0.3124 -0.3183
  491MOL0     C64746   5.929   0.065  11.493  0.4218  0.4582  0.6037
  491MOL0     H64747   6.184   0.433  11.255  0.7070  1.2782  1.8599
  491MOL0     H64748   6.401   0.514  11.147 -1.3039 -1.4405 -2.9020
  491MOL0     H64749   6.669   0.217  11.033  1.0616  0.7142 -0.9521
  491MOL0     H64750   6.773   0.231  11.174 -0.5094  0.3775  0.7212
  491MOL0     H64751   6.892   0.412  11.080 -1.6925  1.6986 -0.4353
  491MOL0     H64752   6.800   0.417  10.936  1.1140 -0.3358 -2.0821
  491MOL0     H64753   6.869   0.175  10.882  1.3265  0.1630 -1.5603
  491MOL0     H64754   6.964   0.168  11.029  0.8468 -1.4894 -1.7359
  491MOL0     H64755   7.007   0.389  10.829 -1.1124 -1.2425 -0.6114
  491MOL0     H64756   7.106   0.348  10.964  1.1321  1.1569 -0.7735
  491MOL0     H64757   7.050   0.174  10.723 -1.4070 -1.7887  0.7696
  491MOL0     H64758   7.113   0.112  10.877  0.6593  1.1935  2.0795
  491MOL0     H64759   7.310   0.245  10.861 -1.6883 -2.3526  0.9111
  491MOL0     H64760   7.249   0.326  10.712  1.4036 -0.3815 -2.0572
  491MOL0     H64761   7.261   0.084  10.624  1.4292 -1.1456 -0.7590
  491MOL0     H64762   7.418   0.145  10.673  1.1431  0.1011  3.0053
  491MOL0     H64763   7.371  -0.093  10.731 -2.0249 -0.3262 -1.2362
  491MOL0     H64764   7.257  -0.029  10.850  0.5661 -0.1105  1.0418
  491MOL0     H64765   7.631   0.073  10.766  1.5992  1.8851  0.8807
  491MOL0     H64766   7.849   0.051  10.894  0.5264  0.2826 -0.6668
  491MOL0     H64767   7.835   0.022  11.067  0.3535  0.5874 -1.1639
  491MOL0     H64768   7.844   0.241  11.127  3.1932  1.8850 -0.6883
  491MOL0     H64769   7.729   0.286  10.998  0.2882  0.6475  2.0163
  491MOL0     H64770   7.947   0.229  10.838  2.6366 -3.7664  3.0655
  491MOL0     H64771   7.902   0.393  10.889 -0.0870  0.0767 -1.1635
  491MOL0     H64772   8.074   0.194  11.038 -0.1100 -0.6993 -2.4041
  491MOL0     H64773   8.042   0.367  11.082 -2.2035  1.1696 -0.5627
  491MOL0     H64774   8.233   0.316  11.183  1.9766 -0.2033  1.3321
  491MOL0     H64775   8.436   0.379  11.277  1.6913  0.8718 -0.4298
  491MOL0     H64776   8.876   0.763  10.972  0.4948  0.3212  0.4160
  491MOL0     H64777   9.122   0.791  10.990 -0.0857  0.2888 -0.1757
  491MOL0     H64778   9.368   0.789  11.130 -1.6254  0.2891 -0.2882
  491MOL0     H64779   9.329   0.775  10.973  0.0757  0.0418  0.1880
  491MOL0     H64780   9.526   0.606  10.930 -0.5043 -0.4963  0.5535
  491MOL0     H64781   9.550   0.622  11.107 -1.8486 -0.6819  1.4910
  491MOL0     H64782   9.598   0.864  11.078 -1.1377 -0.3907  0.6149
  491MOL0     H64783   9.604   0.858  10.906  1.3548  0.9352  0.4907
  491MOL0     H64784   9.769   0.666  11.070  1.3792  3.1189  1.8076
  491MOL0     H64785   9.755   0.688  10.890 -1.0867  2.3655 -2.3361
  491MOL0     H64786   9.954   0.768  10.975  1.1081 -0.3033  1.6694
  491MOL0     H64787   9.889   0.881  11.096  1.1210  2.7116 -2.1312
  491MOL0     H64788   9.765   0.997  10.928  1.8528  0.5402  4.5730
  491MOL0     H64789   9.841   0.894  10.806  0.7427  3.2119 -2.1363
  491MOL0     H64790  10.066   0.987  10.883 -1.3399 -3.5249  0.8065
  491MOL0     H64791   9.954   1.106  10.818 -0.1307  0.6856  0.6133
  491MOL0     H64792  10.008   1.064  11.106  1.6965 -2.3090 -2.0184
  491MOL0     H64793   9.879   1.185  11.032 -0.9037 -0.1636 -1.0372
  491MOL0     H64794   9.159   0.425  11.202 -1.3974 -1.0020  0.2747
  491MOL0     H64795   8.908   0.414  11.219 -1.8473  2.4151  0.2745
  491MOL0     H64796   8.577   0.506  10.888 -1.0699  1.9372  0.3667
  491MOL0     H64797   8.346   0.431  10.792  0.9866  0.7164 -1.1024
  491MOL0     H64798   6.588   0.159  11.280  1.3191  2.6730 -2.1168
  491MOL0     H64799   6.375   0.069  11.370 -0.9845 -1.3608 -2.2780
  491MOL0     H64800   5.793   0.115  11.187  1.5287  0.3421  0.2886
  491MOL0     H64801   5.608   0.008  11.298 -2.0268  1.3914  1.1375
  491MOL0     H64802   5.613   0.012  11.741 -0.0208  2.0081  0.6983
  491MOL0     H64803   5.467  -0.074  11.700  0.7544 -1.7191 -0.4851
  491MOL0     H64804   5.585   0.206  11.634 -1.1424  0.4109  1.3992
  491MOL0     H64805   5.431   0.150  11.559  0.5867  2.4428 -0.3328
  491MOL0     H64806   5.464   0.290  11.799 -0.2509 -0.6056  3.2291
  491MOL0     H64807   5.475   0.137  11.855 -0.3837 -0.2217 -0.9950
  491MOL0     H64808   5.244   0.195  11.652 -0.6440  0.5626  0.8013
  491MOL0     H64809   5.236   0.099  11.801 -2.3739  0.3664  0.2842
  491MOL0     H64810   5.095   0.466  11.925  0.8946  0.8119 -1.2773
  491MOL0     H64811   5.829  -0.026  11.654 -1.7786  1.7011  0.7059
  491MOL0     H64812   6.029   0.081  11.534  1.5531 -1.2338 -1.3004
  492MOL0     O64813   6.195   5.044   2.499 -0.3206  0.9772 -0.2660
  492MOL0     C64814   6.168   4.924   2.487 -0.0764  0.4191  0.3306
  492MOL0     O64815   6.194   4.852   2.374 -0.1815  0.3638  0.1379
  492MOL0     C64816   6.266   4.905   2.267 -0.8281 -0.1213  0.0300
  492MOL0     C64817   6.397   4.872   2.243 -0.7400 -0.0000 -0.2007
  492MOL0     C64818   6.469   4.926   2.133  0.1608  0.6428 -0.5721
  492MOL0     C64819   6.408   5.024   2.053 -0.1110 -0.7984 -0.9622
  492MOL0     O64820   6.476   5.068   1.947 -0.1692 -0.0469  0.7895
  492MOL0     C64821   6.418   5.184   1.877  0.3142  0.7904  0.1723
  492MOL0     C64822   6.522   5.248   1.794 -0.5367  0.5447 -0.5050
  492MOL0     C64823   6.649   5.291   1.874  0.3153  0.1873 -0.9291
  492MOL0     C64824   6.624   5.390   1.987  0.5852  0.6011 -0.4568
  492MOL0     C64825   6.754   5.429   2.052  0.4377  0.2370 -0.0762
  492MOL0     C64826   6.735   5.527   2.168  0.5657  0.1760 -0.8514
  492MOL0     C64827   6.860   5.566   2.233 -0.8200 -0.3732  0.9086
  492MOL0     C64828   6.834   5.636   2.363 -0.4251  0.0977  0.5536
  492MOL0     N64829   6.955   5.675   2.439 -0.3870  0.2172 -0.1517
  492MOL0     C64830   7.026   5.582   2.506  0.1789 -0.1551 -0.0283
  492MOL0     C64831   7.118   5.653   2.581 -0.0294  0.1227 -0.1272
  492MOL0     C64832   7.219   5.602   2.679  0.9974  0.3572  0.6362
  492MOL0     C64833   7.154   5.580   2.819  0.6183 -0.0220  0.6086
  492MOL0     C64834   7.120   5.710   2.895 -0.5219 -0.0123  0.6614
  492MOL0     C64835   7.013   5.694   2.998 -0.2465  0.1162  0.2394
  492MOL0     O64836   6.901   5.610   2.964  0.2867 -0.4183  0.4026
  492MOL0     C64837   6.779   5.669   2.984  0.4598  0.3681 -0.6450
  492MOL0     C64838   6.700   5.644   3.096 -0.0582 -0.0899 -0.2802
  492MOL0     C64839   6.575   5.697   3.114  0.1481 -0.8317 -0.4414
  492MOL0     C64840   6.519   5.785   3.021 -0.0285  0.0298  0.2897
  492MOL0     C64841   6.398   5.867   3.039 -0.5375 -0.5031 -0.5355
  492MOL0     O64842   6.314   5.835   3.141 -0.1821  0.3835  0.7263
  492MOL0     C64843   6.245   5.942   3.193  0.2391  0.5100  0.4362
  492MOL0     C64844   6.104   5.939   3.193 -0.2066 -0.3197  0.2093
  492MOL0     C64845   6.025   6.029   3.273  0.0939  0.9705  0.5891
  492MOL0     C64846   6.096   6.112   3.364 -0.4941  0.1507 -0.6346
  492MOL0     O64847   6.029   6.201   3.443  0.1513 -0.1068  0.5936
  492MOL0     C64848   5.900   6.151   3.490  0.0309 -0.5302  0.0429
  492MOL0     C64849   5.846   6.249   3.595 -0.2715 -1.1063 -0.0431
  492MOL0     C64850   5.902   6.254   3.733  0.1370 -0.7378  0.1596
  492MOL0     C64851   6.038   6.325   3.746 -0.9168  0.7237 -0.3381
  492MOL0     C64852   6.110   6.307   3.878 -0.4444 -0.4283 -0.1083
  492MOL0     C64853   6.038   6.373   3.991 -0.0645 -0.2866  0.4765
  492MOL0     C64854   6.143   6.374   4.107  0.0036  0.5493  0.0321
  492MOL0     C64855   6.096   6.456   4.224  0.2033 -0.5107  0.8966
  492MOL0    Cl64856   5.953   6.390   4.311  0.1440 -0.1902 -0.7322
  492MOL0     C64857   6.236   6.115   3.360 -0.6788  0.3357  1.1790
  492MOL0     C64858   6.308   6.032   3.273 -0.1617 -0.8743  0.1357
  492MOL0     O64859   6.402   5.976   2.980 -0.5003 -0.0366  0.4712
  492MOL0     C64860   6.597   5.809   2.909 -0.0960  0.1852 -0.4217
  492MOL0     C64861   6.724   5.749   2.893  0.3803 -1.0053  0.6192
  492MOL0     N64862   7.105   5.784   2.545  0.6931 -0.2731  0.0717
  492MOL0     N64863   7.022   5.786   2.443 -0.8103 -0.0410 -0.4109
  492MOL0     C64864   6.271   5.059   2.084  0.0775 -0.1063 -0.4318
  492MOL0     C64865   6.207   5.000   2.193 -0.4662  0.6718 -0.9524
  492MOL0     C64866   6.083   4.862   2.584 -0.1582 -0.2556  0.7909
  492MOL0     C64867   6.022   4.738   2.575 -0.1098  0.4311  0.1253
  492MOL0     C64868   5.937   4.690   2.671  0.1095 -0.1857 -0.6639
  492MOL0     C64869   5.911   4.759   2.791  0.5484 -0.0730 -0.1669
  492MOL0     O64870   5.824   4.714   2.877  0.9146  0.0114 -0.6201
  492MOL0     C64871   5.816   4.761   3.012 -0.6387  0.2916  0.1232
  492MOL0     C64872   5.734   4.653   3.088 -0.5597  0.4421  1.1857
  492MOL0     C64873   5.586   4.659   3.072 -0.0542 -0.1120  0.4195
  492MOL0     C64874   5.514   4.553   3.160 -0.3838  0.5156 -0.2243
  492MOL0     C64875   5.370   4.541   3.150  0.3516  0.3111 -0.2649
  492MOL0     C64876   5.254   4.532   3.142  0.3023 -1.0160  0.5453
  492MOL0     C64877   5.991   4.873   2.808  0.0091 -0.5706  0.4454
  492MOL0     C64878   6.080   4.921   2.709  0.7068  0.2744  0.1951
  492MOL0     H64879   6.442   4.792   2.302  1.3795 -0.4439 -2.2517
  492MOL0     H64880   6.572   4.897   2.120  1.1840  4.1502 -1.3193
  492MOL0     H64881   6.387   5.265   1.943 -2.6193 -0.1996  0.1478
  492MOL0     H64882   6.341   5.140   1.813  0.3555 -1.9984  1.8614
  492MOL0     H64883   6.476   5.336   1.748  0.1506  2.0499  1.5269
  492MOL0     H64884   6.547   5.184   1.709  1.8358  1.5454 -0.6314
  492MOL0     H64885   6.718   5.335   1.801 -0.2016 -0.2603 -1.7080
  492MOL0     H64886   6.699   5.205   1.921 -0.4013  0.1106 -0.2991
  492MOL0     H64887   6.571   5.475   1.943 -0.9469 -0.3306 -0.4608
  492MOL0     H64888   6.555   5.355   2.064  1.8450 -0.4582  0.2405
  492MOL0     H64889   6.826   5.475   1.984  1.8097  1.7614  2.2806
  492MOL0     H64890   6.806   5.335   2.072 -0.8002 -0.6188 -0.7302
  492MOL0     H64891   6.673   5.466   2.235  0.1524 -0.8056 -2.0775
  492MOL0     H64892   6.685   5.619   2.138  3.3474  2.6395  1.4840
  492MOL0     H64893   6.929   5.482   2.236 -2.1237 -1.5132  0.2255
  492MOL0     H64894   6.915   5.642   2.177 -0.4065 -0.6142  0.9856
  492MOL0     H64895   6.778   5.568   2.427 -0.7248 -1.9550 -1.7584
  492MOL0     H64896   6.767   5.722   2.348 -2.1250 -0.9526  1.7662
  492MOL0     H64897   7.018   5.475   2.523  0.5190  0.1580  2.4848
  492MOL0     H64898   7.307   5.667   2.674  1.6463 -0.5598 -3.2834
  492MOL0     H64899   7.259   5.509   2.638 -0.9229  0.2418 -1.1812
  492MOL0     H64900   7.220   5.528   2.889  1.0600  1.7233  1.5469
  492MOL0     H64901   7.062   5.525   2.796 -0.6555  1.9519  0.7312
  492MOL0     H64902   7.208   5.747   2.947 -0.2701  3.2349 -1.7598
  492MOL0     H64903   7.085   5.783   2.821 -1.0245  1.8349  2.6273
  492MOL0     H64904   6.974   5.794   3.017 -0.3566  0.3766 -1.2342
  492MOL0     H64905   7.066   5.659   3.087  4.3610  0.6292 -2.0293
  492MOL0     H64906   6.735   5.585   3.180 -1.7689 -0.3768  0.2647
  492MOL0     H64907   6.523   5.685   3.208 -1.5711 -0.0520 -1.2451
  492MOL0     H64908   6.065   5.875   3.115  1.9697 -1.0739 -0.3536
  492MOL0     H64909   5.917   6.026   3.269  0.1520 -1.6735 -0.7212
  492MOL0     H64910   5.909   6.050   3.531  0.4186 -0.8290 -0.7726
  492MOL0     H64911   5.826   6.161   3.410 -0.1510 -0.3936  0.2269
  492MOL0     H64912   5.740   6.228   3.607 -0.5557  0.5637  0.5838
  492MOL0     H64913   5.847   6.348   3.549 -0.3508 -1.3732 -0.6271
  492MOL0     H64914   5.917   6.149   3.761  2.7538  0.2060  2.8539
  492MOL0     H64915   5.824   6.299   3.796  1.1756  0.5350  0.5933
  492MOL0     H64916   6.106   6.289   3.668 -3.5155 -0.7717 -2.0305
  492MOL0     H64917   6.027   6.433   3.730  1.7461  1.2920  0.9849
  492MOL0     H64918   6.210   6.348   3.859  0.4153 -1.1160  2.4371
  492MOL0     H64919   6.113   6.200   3.898  0.6987 -0.6695 -1.4270
  492MOL0     H64920   5.945   6.323   4.019 -2.7453  2.1235 -3.0977
  492MOL0     H64921   6.004   6.472   3.957  1.7390  0.9273  2.0062
  492MOL0     H64922   6.136   6.271   4.144 -1.1556  0.0906 -1.3681
  492MOL0     H64923   6.244   6.396   4.073  1.0156 -0.4647  2.1970
  492MOL0     H64924   6.075   6.555   4.182  0.8162 -0.5049  0.5845
  492MOL0     H64925   6.187   6.464   4.284  2.5595 -1.7490 -2.2268
  492MOL0     H64926   6.289   6.187   3.422 -1.7085  2.3400 -0.1752
  492MOL0     H64927   6.416   6.046   3.269 -0.3544  0.6185 -0.9129
  492MOL0     H64928   6.548   5.875   2.838 -3.7715 -0.7758  0.9933
  492MOL0     H64929   6.773   5.778   2.801  0.3274 -3.1438 -0.1211
  492MOL0     H64930   6.216   5.133   2.028  1.1950 -0.4974 -2.0992
  492MOL0     H64931   6.103   5.023   2.212  0.1282  0.7344  3.1326
  492MOL0     H64932   6.050   4.678   2.490  3.2535  2.7210 -0.5707
  492MOL0     H64933   5.891   4.592   2.665 -0.1360 -0.1005 -0.2217
  492MOL0     H64934   5.769   4.860   3.015 -1.7419 -0.1958 -0.7782
  492MOL0     H64935   5.918   4.772   3.052 -0.0676  0.7872 -1.3789
  492MOL0     H64936   5.777   4.556   3.064  0.0216  0.3615  2.4815
  492MOL0     H64937   5.756   4.669   3.194 -1.0761 -4.3715  2.2343
  492MOL0     H64938   5.558   4.653   2.966  0.0629  0.6973  0.3306
  492MOL0     H64939   5.543   4.751   3.112 -0.6495 -1.0793  2.1143
  492MOL0     H64940   5.550   4.455   3.128 -0.4830 -0.1683  1.6566
  492MOL0     H64941   5.542   4.572   3.264 -2.7777  0.2072  0.5152
  492MOL0     H64942   5.150   4.507   3.135  0.3531 -0.8738 -1.9889
  492MOL0     H64943   5.995   4.934   2.897 -2.6937  0.0732  0.1901
  492MOL0     H64944   6.135   5.012   2.732  2.0224 -1.1574  3.3918
  493MOL0     O64945   2.747   4.875   6.262  0.5209  0.2504  0.0103
  493MOL0     C64946   2.747   4.904   6.141  0.9662  0.4069 -0.8200
  493MOL0     O64947   2.638   4.930   6.069  0.5047  0.4920 -0.1860
  493MOL0     C64948   2.517   4.984   6.116  0.8457  0.3302  0.1261
  493MOL0     C64949   2.446   4.936   6.225 -0.2935  0.0710  0.2176
  493MOL0     C64950   2.332   4.996   6.269 -0.0289  0.0179  0.0956
  493MOL0     C64951   2.259   5.097   6.193  0.1750  0.2262 -0.3788
  493MOL0     O64952   2.135   5.145   6.231  0.3788  0.0905  0.2992
  493MOL0     C64953   2.083   5.258   6.155  0.7807  0.2265  0.8625
  493MOL0     C64954   1.948   5.303   6.226  0.0408  0.3129  0.2933
  493MOL0     C64955   1.850   5.179   6.212 -0.0644 -0.0356  0.5227
  493MOL0     C64956   1.703   5.223   6.195  0.3433 -0.4076 -0.0595
  493MOL0     C64957   1.649   5.303   6.308  0.7789 -0.1969 -0.4212
  493MOL0     C64958   1.502   5.334   6.309  0.5972 -0.0223 -0.5444
  493MOL0     C64959   1.478   5.412   6.448 -0.4494 -0.2435 -0.3727
  493MOL0     C64960   1.543   5.551   6.453 -0.1349 -0.4322  0.1522
  493MOL0     N64961   1.488   5.651   6.543  1.1182 -0.0159 -0.2639
  493MOL0     C64962   1.565   5.724   6.635 -0.0111  0.4824 -0.1551
  493MOL0     C64963   1.472   5.803   6.701  0.8082 -0.3875 -0.2932
  493MOL0     C64964   1.499   5.883   6.829  0.1061  0.6178 -1.0321
  493MOL0     C64965   1.646   5.938   6.853 -0.2088  0.4495  0.2549
  493MOL0     C64966   1.659   5.984   6.999 -0.1368  0.1578 -0.3924
  493MOL0     C64967   1.809   5.981   7.025 -0.0746 -0.5022  0.4779
  493MOL0     O64968   1.864   6.087   6.960  0.3723 -0.7924  0.0963
  493MOL0     C64969   2.004   6.109   6.959  0.5203  0.1952  0.8397
  493MOL0     C64970   2.053   6.215   6.883  0.6770 -0.3479 -0.0234
  493MOL0     C64971   2.190   6.233   6.866  0.1996 -0.4583 -0.7704
  493MOL0     C64972   2.285   6.161   6.946  0.2246 -0.3424  0.5838
  493MOL0     C64973   2.424   6.200   6.929 -0.3257 -0.4205 -0.4089
  493MOL0     O64974   2.505   6.116   6.992  0.0015  0.6364  0.5687
  493MOL0     C64975   2.640   6.107   6.978  0.1420 -0.2952 -0.1770
  493MOL0     C64976   2.694   5.984   6.975  0.7303  0.3478  0.8592
  493MOL0     C64977   2.829   5.958   6.971  0.0918  0.0334 -0.2201
  493MOL0     C64978   2.911   6.066   6.942 -1.0008  0.0527 -0.0249
  493MOL0     O64979   3.043   6.031   6.922 -0.4399 -1.1123 -0.7364
  493MOL0     C64980   3.137   6.145   6.893 -0.6245  0.2134 -0.5210
  493MOL0     C64981   3.286   6.089   6.886 -0.0571 -0.1938 -0.1944
  493MOL0     C64982   3.310   5.959   6.791  1.0168 -0.1768 -0.4990
  493MOL0     C64983   3.465   5.928   6.776 -0.3422  0.2427 -0.4413
  493MOL0     C64984   3.495   5.835   6.661  0.3263 -0.3358  0.6535
  493MOL0     C64985   3.643   5.801   6.642 -1.3016 -0.1734 -0.3174
  493MOL0     C64986   3.684   5.700   6.533 -0.4349  0.1046 -0.5221
  493MOL0     C64987   3.783   5.748   6.439 -1.1358  0.3146  0.4567
  493MOL0    Cl64988   3.705   5.809   6.299 -0.2592  0.5256  0.1318
  493MOL0     C64989   2.865   6.196   6.952  0.4809 -0.0220 -0.3000
  493MOL0     C64990   2.731   6.219   6.978 -0.0309  0.3147 -0.9158
  493MOL0     O64991   2.459   6.289   6.852 -0.3084 -0.2813 -0.4084
  493MOL0     C64992   2.234   6.061   7.030 -0.6352  0.5128  0.3811
  493MOL0     C64993   2.094   6.039   7.040  0.1819  0.3782  0.5602
  493MOL0     N64994   1.359   5.798   6.622  0.6357 -0.1912  0.1599
  493MOL0     N64995   1.372   5.717   6.518 -0.1549 -0.0557 -1.0905
  493MOL0     C64996   2.325   5.130   6.073  0.6380  0.0999  0.4396
  493MOL0     C64997   2.444   5.067   6.032  0.1223 -0.3318 -0.0466
  493MOL0     C64998   2.874   4.907   6.072  0.1126  0.6190 -0.4168
  493MOL0     C64999   2.873   4.888   5.937 -0.8098  0.0608 -0.2582
  493MOL0     C65000   2.997   4.877   5.867  0.3503  0.0433 -0.9382
  493MOL0     C65001   3.122   4.890   5.932 -0.1817 -0.5740 -0.0367
  493MOL0     O65002   3.233   4.880   5.842  0.2635 -0.6151  0.1913
  493MOL0     C65003   3.361   4.847   5.902 -0.0590  0.1781 -0.0129
  493MOL0     C65004   3.468   4.832   5.797 -0.1910 -0.9783 -0.2351
  493MOL0     C65005   3.601   4.782   5.853 -0.4616  0.2347 -0.8148
  493MOL0     C65006   3.713   4.735   5.754 -0.8763  0.8062  0.6122
  493MOL0     C65007   3.672   4.622   5.683  0.1558  0.3224 -0.7553
  493MOL0     C65008   3.627   4.530   5.616 -0.4065 -0.3474 -1.4455
  493MOL0     C65009   3.122   4.911   6.071 -0.0405  0.4153 -0.3089
  493MOL0     C65010   2.999   4.910   6.141  0.1843 -0.0183 -0.5134
  493MOL0     H65011   2.495   4.861   6.286  3.4583  0.7541 -1.6414
  493MOL0     H65012   2.287   4.960   6.362 -0.7914  1.2342  0.2107
  493MOL0     H65013   2.065   5.224   6.053  2.1913  1.2303  0.2268
  493MOL0     H65014   2.159   5.337   6.153  1.7058 -0.5971  2.0861
  493MOL0     H65015   1.907   5.388   6.171 -1.6869 -1.3856 -1.1932
  493MOL0     H65016   1.968   5.328   6.330  1.5327  1.0752 -0.1418
  493MOL0     H65017   1.863   5.115   6.299 -0.0426  0.5883  0.9874
  493MOL0     H65018   1.878   5.118   6.126  0.2458 -0.2564  0.7762
  493MOL0     H65019   1.704   5.284   6.105  1.6441  0.8829  0.7803
  493MOL0     H65020   1.643   5.134   6.172  0.5065 -0.7736  0.8755
  493MOL0     H65021   1.707   5.395   6.311 -0.5880  0.7941 -2.4877
  493MOL0     H65022   1.676   5.242   6.395  0.4067  0.4165  0.1288
  493MOL0     H65023   1.456   5.235   6.317  1.3383 -0.2850  0.6496
  493MOL0     H65024   1.479   5.402   6.227  3.6563  3.3272  1.0718
  493MOL0     H65025   1.373   5.423   6.477 -0.1583  0.1361  0.5728
  493MOL0     H65026   1.525   5.354   6.527 -2.4753 -3.5859 -1.4192
  493MOL0     H65027   1.558   5.591   6.353  1.9701  0.6774  0.8537
  493MOL0     H65028   1.642   5.534   6.497  0.1922 -1.7575 -1.0032
  493MOL0     H65029   1.670   5.707   6.657  0.6538  1.7710 -2.0347
  493MOL0     H65030   1.471   5.821   6.915  0.6543 -0.0569 -1.3334
  493MOL0     H65031   1.428   5.966   6.824  0.9884  1.2722 -3.5022
  493MOL0     H65032   1.663   6.020   6.784  1.7708 -0.7017 -0.7080
  493MOL0     H65033   1.717   5.859   6.826  0.6511  1.4968 -0.5931
  493MOL0     H65034   1.616   6.084   6.992 -0.7143 -0.1638 -1.5360
  493MOL0     H65035   1.602   5.926   7.072 -0.4784  0.1884 -0.6369
  493MOL0     H65036   1.847   5.883   6.994  0.4815 -0.6998  1.7219
  493MOL0     H65037   1.815   5.995   7.134 -0.6589  1.7975  0.2515
  493MOL0     H65038   1.975   6.273   6.835  1.0056 -0.4167 -0.6626
  493MOL0     H65039   2.206   6.324   6.808 -0.0742  1.4952  1.9793
  493MOL0     H65040   2.617   5.909   6.994  0.2583  1.0315  1.7233
  493MOL0     H65041   2.861   5.855   6.981 -3.3588 -1.0221  2.1943
  493MOL0     H65042   3.148   6.223   6.970  0.7181 -0.6974  0.2607
  493MOL0     H65043   3.110   6.199   6.802  0.3700 -0.1892 -1.0752
  493MOL0     H65044   3.322   6.065   6.986  1.9732  0.0332 -0.8155
  493MOL0     H65045   3.344   6.172   6.845  1.7360  0.1895  2.8509
  493MOL0     H65046   3.277   5.963   6.687 -0.1419 -3.2003 -0.3449
  493MOL0     H65047   3.260   5.870   6.831 -0.2841 -0.5345 -2.7652
  493MOL0     H65048   3.516   6.022   6.757  1.6365  0.1099  3.2818
  493MOL0     H65049   3.498   5.879   6.868 -0.7308  1.1926  0.2068
  493MOL0     H65050   3.460   5.880   6.568  2.5951  0.4757  0.1174
  493MOL0     H65051   3.443   5.739   6.666 -0.8818  0.2570 -0.1507
  493MOL0     H65052   3.678   5.746   6.730  1.6642  0.7697 -0.7983
  493MOL0     H65053   3.700   5.894   6.635  0.3225 -1.2248 -1.7082
  493MOL0     H65054   3.712   5.606   6.581 -1.5617 -0.6826 -1.3413
  493MOL0     H65055   3.590   5.678   6.480 -0.6518  2.3606 -1.2121
  493MOL0     H65056   3.846   5.664   6.407 -1.5734  0.5085 -0.9733
  493MOL0     H65057   3.843   5.823   6.492  0.4877 -0.4779 -0.1936
  493MOL0     H65058   2.929   6.284   6.939 -0.6048  0.8909  0.3550
  493MOL0     H65059   2.690   6.320   6.978 -0.9806 -0.0370  0.6261
  493MOL0     H65060   2.295   6.002   7.098 -1.7532 -1.7394 -0.4725
  493MOL0     H65061   2.060   5.954   7.098  2.0470 -2.0226 -1.5993
  493MOL0     H65062   2.280   5.199   6.002 -2.5271 -1.0123  1.1751
  493MOL0     H65063   2.487   5.106   5.940 -0.4416  0.4421  0.0148
  493MOL0     H65064   2.780   4.880   5.883 -1.4730 -2.0298  1.0920
  493MOL0     H65065   2.996   4.868   5.758  1.0445  2.4764 -1.2232
  493MOL0     H65066   3.350   4.754   5.958 -0.0237 -0.2369 -0.6849
  493MOL0     H65067   3.395   4.928   5.968  0.1634 -0.0793  0.1882
  493MOL0     H65068   3.427   4.769   5.717 -0.8305 -0.4682 -0.3254
  493MOL0     H65069   3.496   4.924   5.744  2.0773 -2.5371 -1.9463
  493MOL0     H65070   3.576   4.703   5.925  1.5352 -0.8269 -1.2248
  493MOL0     H65071   3.638   4.867   5.911 -0.7244 -0.4772  0.4483
  493MOL0     H65072   3.739   4.811   5.680  1.2560 -1.8994 -1.6248
  493MOL0     H65073   3.804   4.717   5.812 -0.5970  0.9077  0.2057
  493MOL0     H65074   3.587   4.444   5.565  2.4250 -1.5866 -1.7620
  493MOL0     H65075   3.219   4.917   6.121  0.8652 -0.4878 -1.8723
  493MOL0     H65076   3.007   4.922   6.248  2.7033 -1.9987 -0.3721
  494MOL0     O65077  10.458   1.302   2.663 -0.2923 -0.1481 -0.2634
  494MOL0     C65078  10.370   1.382   2.686 -0.2947 -0.9319 -0.5403
  494MOL0     O65079  10.239   1.358   2.708  0.3213 -0.0516  0.1582
  494MOL0     C65080  10.192   1.232   2.724  0.2913 -1.1475 -0.6399
  494MOL0     C65081  10.261   1.110   2.767 -0.0602 -1.2113 -0.2411
  494MOL0     C65082  10.192   0.996   2.790  0.4091  1.0038 -0.3535
  494MOL0     C65083  10.044   0.990   2.791 -0.4219 -0.0663  0.8258
  494MOL0     O65084   9.983   0.869   2.821  0.0082 -0.5291 -0.5229
  494MOL0     C65085   9.840   0.860   2.799  0.4469  0.4484 -0.0266
  494MOL0     C65086   9.806   0.722   2.743  0.1491  0.1513  0.0430
  494MOL0     C65087   9.875   0.597   2.802 -0.4637 -0.8654  0.3489
  494MOL0     C65088   9.839   0.465   2.728 -0.2684  0.3720 -0.2930
  494MOL0     C65089   9.697   0.401   2.783 -0.0248  0.4141  0.5488
  494MOL0     C65090   9.571   0.469   2.733  0.0017 -0.2564  0.4662
  494MOL0     C65091   9.446   0.376   2.737 -0.2489 -1.1191  0.5316
  494MOL0     C65092   9.402   0.348   2.878 -0.1096 -0.0034 -0.8172
  494MOL0     N65093   9.329   0.461   2.929  0.2944  0.1819 -0.5933
  494MOL0     C65094   9.188   0.481   2.908 -0.2890 -0.1419 -0.7746
  494MOL0     C65095   9.163   0.599   2.977 -0.0222 -0.0123  0.6169
  494MOL0     C65096   9.035   0.675   3.004  0.4888 -0.3193 -0.5859
  494MOL0     C65097   9.055   0.829   3.003 -0.1254  0.0359 -0.3711
  494MOL0     C65098   8.938   0.895   3.088 -0.1518  0.4602 -0.2264
  494MOL0     C65099   8.793   0.848   3.055 -0.5646 -0.5834 -1.0248
  494MOL0     O65100   8.770   0.882   2.918  0.1161 -0.3388 -0.6793
  494MOL0     C65101   8.651   0.853   2.867  0.6178  0.2335 -0.0760
  494MOL0     C65102   8.531   0.816   2.931  1.0702 -0.4932  0.7027
  494MOL0     C65103   8.425   0.787   2.849 -0.1131  0.4097  0.3919
  494MOL0     C65104   8.418   0.820   2.716 -0.4251 -0.2212  0.0891
  494MOL0     C65105   8.292   0.792   2.644  0.0489 -0.0512  0.4002
  494MOL0     O65106   8.298   0.820   2.507 -0.3466  0.2749 -0.3064
  494MOL0     C65107   8.195   0.838   2.427  0.2549  0.3407 -0.2628
  494MOL0     C65108   8.224   0.836   2.286  0.8325  0.6757  0.6341
  494MOL0     C65109   8.110   0.845   2.194 -0.3242  0.2600  0.6587
  494MOL0     C65110   7.976   0.866   2.245 -0.6886  0.2750  0.0464
  494MOL0     O65111   7.876   0.879   2.158  0.4604 -0.5065 -0.3421
  494MOL0     C65112   7.821   1.011   2.154 -0.2413  1.4135  0.5178
  494MOL0     C65113   7.752   1.041   2.023 -0.4149  0.8619  0.0654
  494MOL0     C65114   7.609   0.978   2.028  0.4744 -0.3311  0.2320
  494MOL0     C65115   7.541   1.003   1.898  1.5055 -1.2276  0.1622
  494MOL0     C65116   7.405   0.927   1.882 -0.4217  0.0536 -0.1732
  494MOL0     C65117   7.310   0.968   1.776  0.1251 -0.0221  0.1853
  494MOL0     C65118   7.176   0.896   1.769  0.8213 -0.3521 -0.1977
  494MOL0     C65119   7.072   0.962   1.676  0.1841  0.8512 -0.5368
  494MOL0    Cl65120   7.019   1.106   1.759  0.2070  0.0599 -0.2395
  494MOL0     C65121   7.960   0.887   2.382 -0.2451 -0.0362  0.5555
  494MOL0     C65122   8.065   0.874   2.470 -0.3264 -1.0163  0.1425
  494MOL0     O65123   8.187   0.768   2.703  0.7582  0.0089 -0.2607
  494MOL0     C65124   8.531   0.871   2.654  0.4756 -0.9655 -0.7639
  494MOL0     C65125   8.651   0.888   2.729  0.2257 -0.0416 -0.3904
  494MOL0     N65126   9.283   0.645   3.025 -0.4437  0.5042  0.7154
  494MOL0     N65127   9.379   0.558   3.003 -0.1910  0.0436  0.7375
  494MOL0     C65128   9.979   1.112   2.766 -0.4099  0.2095  0.1286
  494MOL0     C65129  10.049   1.228   2.733 -0.3575  0.2277 -0.5385
  494MOL0     C65130  10.401   1.526   2.700  0.6519  0.3380  0.0601
  494MOL0     C65131  10.301   1.631   2.705  0.0877  0.5985  0.7144
  494MOL0     C65132  10.344   1.761   2.696  0.0119 -0.1277 -0.2109
  494MOL0     C65133  10.479   1.798   2.702  0.5789  0.0094 -0.3405
  494MOL0     O65134  10.504   1.934   2.714  0.4201  0.2562 -0.3488
  494MOL0     C65135  10.644   1.970   2.725  0.8952 -0.3918  0.2736
  494MOL0     C65136  10.662   2.121   2.754 -0.5644 -0.5389  0.5635
  494MOL0     C65137  10.809   2.148   2.779  0.1762 -0.2797 -0.3222
  494MOL0     C65138  10.815   2.236   2.898 -0.0735 -0.5955 -0.1996
  494MOL0     C65139  10.947   2.271   2.930 -0.8482 -0.3401 -0.3143
  494MOL0     C65140  11.059   2.298   2.971  0.5017  0.0558 -0.2420
  494MOL0     C65141  10.575   1.697   2.709 -0.1003 -0.8068 -0.2791
  494MOL0     C65142  10.535   1.568   2.699  1.0203 -0.2418 -0.3501
  494MOL0     H65143  10.362   1.126   2.801 -0.5064  0.4877  0.4141
  494MOL0     H65144  10.237   0.905   2.826 -2.4646  0.4616  2.3737
  494MOL0     H65145   9.797   0.927   2.724  1.2087 -1.2663 -2.1312
  494MOL0     H65146   9.781   0.882   2.888  1.0664  1.0842  0.2346
  494MOL0     H65147   9.849   0.732   2.643  1.0296 -0.6292  0.3333
  494MOL0     H65148   9.700   0.702   2.722  0.0608 -0.6883  1.1673
  494MOL0     H65149   9.847   0.591   2.908 -1.5563  3.5444  0.5056
  494MOL0     H65150   9.984   0.605   2.801 -0.3460 -2.2230  0.3966
  494MOL0     H65151   9.845   0.484   2.621  1.8097 -1.3691 -0.5281
  494MOL0     H65152   9.917   0.390   2.742  0.3159  0.8159 -1.0722
  494MOL0     H65153   9.710   0.392   2.892  0.1516  2.7459  0.7604
  494MOL0     H65154   9.703   0.301   2.739  0.7951  1.1623 -1.1378
  494MOL0     H65155   9.590   0.500   2.630 -2.8117  2.6398  0.6661
  494MOL0     H65156   9.561   0.558   2.796  1.8483 -1.6478  2.9291
  494MOL0     H65157   9.352   0.405   2.689 -0.0833 -0.6333  0.4936
  494MOL0     H65158   9.475   0.283   2.688  1.1504 -1.0858  1.2532
  494MOL0     H65159   9.486   0.329   2.946  0.3379 -2.7225 -1.9582
  494MOL0     H65160   9.332   0.264   2.887  0.7690 -0.5726  1.4579
  494MOL0     H65161   9.119   0.417   2.853  0.7083 -0.9257 -1.1414
  494MOL0     H65162   9.010   0.634   3.103 -0.6798 -0.9684 -1.1216
  494MOL0     H65163   8.963   0.641   2.929 -0.4097 -0.6880  0.4061
  494MOL0     H65164   9.054   0.862   2.899  2.4335  2.8909  0.3518
  494MOL0     H65165   9.151   0.868   3.039 -1.5614  0.9111  2.7817
  494MOL0     H65166   8.951   0.873   3.195 -2.4894  2.1151  0.5016
  494MOL0     H65167   8.938   1.003   3.074 -3.5470  0.5126 -0.8642
  494MOL0     H65168   8.725   0.902   3.123 -0.2006  1.9526 -2.5232
  494MOL0     H65169   8.774   0.741   3.065  0.5460 -0.9679 -2.6151
  494MOL0     H65170   8.533   0.799   3.038  2.0720 -0.8591  0.6380
  494MOL0     H65171   8.342   0.744   2.904  1.8059 -2.5941  1.1788
  494MOL0     H65172   8.323   0.803   2.256 -0.0859 -1.8627  0.0650
  494MOL0     H65173   8.130   0.822   2.090  0.5847 -0.7259  1.0327
  494MOL0     H65174   7.896   1.088   2.172 -0.7257  2.0630 -0.1792
  494MOL0     H65175   7.750   1.018   2.238 -0.9600  1.0603 -0.0505
  494MOL0     H65176   7.806   1.000   1.937  1.2406  0.0588  1.4237
  494MOL0     H65177   7.749   1.149   2.012  1.6307  0.9800  0.4118
  494MOL0     H65178   7.558   1.042   2.101 -0.3456  0.7122 -1.1942
  494MOL0     H65179   7.613   0.876   2.068  0.9903 -0.2146  0.4906
  494MOL0     H65180   7.525   1.110   1.881  2.2221 -1.3137 -1.2385
  494MOL0     H65181   7.610   0.977   1.817  0.5548 -0.5222 -0.9271
  494MOL0     H65182   7.360   0.940   1.981 -0.7211 -2.2245  0.0342
  494MOL0     H65183   7.430   0.821   1.873  1.4227  0.3414  1.1604
  494MOL0     H65184   7.354   0.968   1.675 -1.8192  1.6928 -0.7416
  494MOL0     H65185   7.291   1.072   1.801 -0.9633 -0.5788  1.8273
  494MOL0     H65186   7.196   0.799   1.723  0.9078  0.3071 -1.6190
  494MOL0     H65187   7.130   0.885   1.868 -1.9595 -0.4107 -1.4066
  494MOL0     H65188   6.991   0.891   1.655  1.1286  0.2378 -2.3520
  494MOL0     H65189   7.125   0.981   1.582  0.3061 -2.1020 -1.1770
  494MOL0     H65190   7.862   0.923   2.411 -0.3233  0.9044 -0.7942
  494MOL0     H65191   8.044   0.890   2.575  0.2165 -1.0485  0.2544
  494MOL0     H65192   8.519   0.899   2.550  0.2496 -2.1013 -1.0621
  494MOL0     H65193   8.741   0.930   2.684 -0.8424  0.5099 -2.1271
  494MOL0     H65194   9.871   1.112   2.781 -0.1662  0.0941  2.1488
  494MOL0     H65195   9.984   1.313   2.718 -1.3046 -0.6903 -1.8175
  494MOL0     H65196  10.195   1.609   2.695  0.3643 -0.3327 -0.2049
  494MOL0     H65197  10.268   1.837   2.681  1.1945  1.1280 -0.0539
  494MOL0     H65198  10.697   1.955   2.631 -0.0523  0.2066 -0.3671
  494MOL0     H65199  10.677   1.900   2.803 -2.2297 -3.7674 -1.1177
  494MOL0     H65200  10.618   2.184   2.676 -4.6314 -3.4349  0.2121
  494MOL0     H65201  10.594   2.143   2.836 -0.2941 -1.4915  1.0576
  494MOL0     H65202  10.853   2.183   2.685 -1.1748  2.1132 -0.1356
  494MOL0     H65203  10.866   2.056   2.800  0.8582  0.7850  2.9846
  494MOL0     H65204  10.764   2.333   2.893 -1.0202 -1.0316  0.6438
  494MOL0     H65205  10.774   2.191   2.989 -1.9003  0.0965 -0.6435
  494MOL0     H65206  11.153   2.329   3.012  1.1492  0.6731 -2.0906
  494MOL0     H65207  10.681   1.722   2.707 -0.3725  0.4331  0.0980
  494MOL0     H65208  10.612   1.495   2.678  2.2493  1.1144 -0.7393
  495MOL0     O65209   1.906   0.950   7.471 -0.1482 -0.0758 -0.3774
  495MOL0     C65210   1.917   1.068   7.484  0.3605  0.5693  0.0342
  495MOL0     O65211   1.817   1.156   7.510 -0.5703 -0.0353  0.0990
  495MOL0     C65212   1.700   1.103   7.555 -0.6025 -0.0946  0.0893
  495MOL0     C65213   1.607   1.045   7.470  0.5351  0.6719 -0.9548
  495MOL0     C65214   1.489   0.983   7.527 -0.0962  0.5822 -0.1622
  495MOL0     C65215   1.463   0.985   7.665 -1.0164  0.0167 -0.0433
  495MOL0     O65216   1.355   0.927   7.716 -0.3347 -0.0430  0.0438
  495MOL0     C65217   1.252   1.018   7.720 -0.4498 -1.2264 -0.4270
  495MOL0     C65218   1.116   0.956   7.749  0.2843  1.0014  0.1988
  495MOL0     C65219   0.990   1.046   7.739  0.9794 -0.2512 -0.0579
  495MOL0     C65220   0.864   0.973   7.784 -1.1360  0.3536 -0.3274
  495MOL0     C65221   0.748   1.073   7.766 -0.8146 -0.1533  0.7696
  495MOL0     C65222   0.614   1.029   7.819  0.4365 -0.4557  0.8635
  495MOL0     C65223   0.509   1.130   7.770 -0.5224  0.1565 -0.8066
  495MOL0     C65224   0.363   1.091   7.812 -0.7250 -0.8163  0.1423
  495MOL0     N65225   0.268   1.206   7.805  0.5010  0.6658 -0.0923
  495MOL0     C65226   0.208   1.249   7.687 -0.9222 -0.4999  0.7636
  495MOL0     C65227   0.120   1.342   7.725 -0.0244 -0.1280  0.4055
  495MOL0     C65228   0.023   1.421   7.634  0.3198 -0.5801  0.3838
  495MOL0     C65229  -0.104   1.473   7.706  0.8155  0.1111 -0.5882
  495MOL0     C65230  -0.197   1.366   7.746 -0.3047 -0.0515  1.4060
  495MOL0     C65231  -0.342   1.416   7.762  0.3706  0.9386 -0.8642
  495MOL0     O65232  -0.405   1.450   7.636 -0.7559  0.3101 -0.7360
  495MOL0     C65233  -0.542   1.471   7.642  0.3067 -0.1464 -1.0725
  495MOL0     C65234  -0.624   1.413   7.738  0.0282 -0.1728  0.6706
  495MOL0     C65235  -0.755   1.463   7.745 -0.1622 -0.1211 -0.4842
  495MOL0     C65236  -0.809   1.565   7.667  0.5856 -0.5333  0.5295
  495MOL0     C65237  -0.954   1.602   7.670  0.2150 -0.7336 -0.2084
  495MOL0     O65238  -0.984   1.723   7.630  0.6818  0.0568  0.0206
  495MOL0     C65239  -1.116   1.769   7.610 -0.9810  0.0939  0.0533
  495MOL0     C65240  -1.223   1.684   7.584  0.7519 -0.3233  0.3931
  495MOL0     C65241  -1.345   1.746   7.559  0.0789  0.7705  0.6771
  495MOL0     C65242  -1.365   1.877   7.546  0.7814 -0.9992  0.2269
  495MOL0     O65243  -1.482   1.939   7.501 -0.2920 -0.0468  0.5651
  495MOL0     C65244  -1.553   1.997   7.615 -0.6457  0.5788  0.4911
  495MOL0     C65245  -1.666   2.089   7.576 -0.4826  0.5576 -0.5044
  495MOL0     C65246  -1.797   2.036   7.537  0.3804  0.5398 -0.8275
  495MOL0     C65247  -1.805   1.935   7.430 -0.2509  0.2545 -0.7002
  495MOL0     C65248  -1.956   1.891   7.414  0.4142 -0.4586  0.3088
  495MOL0     C65249  -1.982   1.763   7.486  0.8752  0.7697 -0.5378
  495MOL0     C65250  -2.104   1.685   7.435  0.1750  0.3690  0.0034
  495MOL0     C65251  -2.124   1.568   7.536  0.2703 -0.2239  0.1606
  495MOL0    Cl65252  -1.997   1.441   7.505 -0.0497  0.0313  0.2567
  495MOL0     C65253  -1.257   1.965   7.564 -0.5223 -0.4159  0.0651
  495MOL0     C65254  -1.131   1.910   7.592 -0.2934 -0.0031  0.3394
  495MOL0     O65255  -1.036   1.520   7.712 -0.3886  0.3101  0.5000
  495MOL0     C65256  -0.731   1.617   7.561  0.2128  0.4835  0.1715
  495MOL0     C65257  -0.594   1.568   7.549  0.4281  0.4270 -0.0195
  495MOL0     N65258   0.117   1.355   7.858  0.4361  0.7671 -0.3663
  495MOL0     N65259   0.206   1.271   7.908 -1.0311  0.2771 -0.4226
  495MOL0     C65260   1.547   1.058   7.745 -0.0436  0.3484 -0.0534
  495MOL0     C65261   1.670   1.108   7.694  0.3102  0.1655 -0.5148
  495MOL0     C65262   2.055   1.123   7.460 -0.0787 -0.8813  0.5748
  495MOL0     C65263   2.156   1.048   7.407 -0.7086 -0.2482 -1.1020
  495MOL0     C65264   2.281   1.107   7.376 -0.2406 -0.1897 -0.7225
  495MOL0     C65265   2.308   1.241   7.410 -0.5648 -0.1093  0.0381
  495MOL0     O65266   2.438   1.275   7.379 -0.4321 -0.0793 -0.3432
  495MOL0     C65267   2.473   1.415   7.377  0.5308  0.4139  0.7219
  495MOL0     C65268   2.606   1.438   7.311  0.3433  0.6097  0.5445
  495MOL0     C65269   2.707   1.345   7.386 -0.0180  0.8092  0.1324
  495MOL0     C65270   2.851   1.390   7.344  0.0562  0.0304 -0.1094
  495MOL0     C65271   2.935   1.355   7.462  0.1523 -0.3827  0.8525
  495MOL0     C65272   3.004   1.331   7.553 -0.4816  0.6547  0.1047
  495MOL0     C65273   2.214   1.314   7.474 -0.0873  0.1290 -0.2863
  495MOL0     C65274   2.086   1.258   7.492  0.4680  0.9906  0.6305
  495MOL0     H65275   1.634   1.037   7.365  1.4070 -1.0456 -0.6386
  495MOL0     H65276   1.411   0.943   7.464 -1.2542  1.7429  0.4952
  495MOL0     H65277   1.237   1.056   7.619 -0.1592  0.5515  0.1603
  495MOL0     H65278   1.275   1.102   7.786  0.5202 -0.8031 -1.2778
  495MOL0     H65279   1.130   0.908   7.847  2.5815 -1.0170 -0.9851
  495MOL0     H65280   1.106   0.878   7.673 -0.2821  0.4212  0.8504
  495MOL0     H65281   0.972   1.071   7.634 -0.9518 -3.3521 -0.5903
  495MOL0     H65282   1.011   1.136   7.798 -0.2927  0.2838 -0.3753
  495MOL0     H65283   0.851   0.879   7.731 -1.4392 -0.9340  1.9054
  495MOL0     H65284   0.884   0.948   7.889  2.1985 -2.2569 -1.4051
  495MOL0     H65285   0.739   1.087   7.657  0.0145 -3.1602  0.2327
  495MOL0     H65286   0.776   1.165   7.818  0.1342 -1.4115  2.5642
  495MOL0     H65287   0.620   1.020   7.928  1.3647 -0.5676  0.8076
  495MOL0     H65288   0.593   0.929   7.779 -0.7745  0.2630 -0.3800
  495MOL0     H65289   0.535   1.225   7.817 -0.0432 -0.2517 -0.2242
  495MOL0     H65290   0.507   1.145   7.661 -3.0222 -1.0925 -0.9964
  495MOL0     H65291   0.372   1.042   7.909  2.6971  2.7746  1.9423
  495MOL0     H65292   0.326   1.025   7.733  1.5057  0.2273 -1.8980
  495MOL0     H65293   0.214   1.204   7.589 -4.0634  0.7705 -0.1038
  495MOL0     H65294  -0.022   1.362   7.554 -0.5794 -1.3025  1.4068
  495MOL0     H65295   0.070   1.508   7.587 -1.0219  1.1075  2.0112
  495MOL0     H65296  -0.164   1.556   7.667 -0.2033  1.9812  4.3186
  495MOL0     H65297  -0.072   1.515   7.802 -4.6884  1.1730  1.1621
  495MOL0     H65298  -0.212   1.293   7.666 -1.3525  0.8979  0.6976
  495MOL0     H65299  -0.159   1.321   7.837  0.9247  1.1853  1.5346
  495MOL0     H65300  -0.356   1.499   7.832 -0.4655  1.2460 -1.3814
  495MOL0     H65301  -0.387   1.329   7.809  4.2326 -0.7173  0.1728
  495MOL0     H65302  -0.577   1.342   7.806  4.0767 -0.0446 -1.6427
  495MOL0     H65303  -0.820   1.400   7.804  3.7866 -1.8229  2.5409
  495MOL0     H65304  -1.209   1.576   7.577  1.1457 -0.3948  1.9746
  495MOL0     H65305  -1.427   1.676   7.545  2.0503 -1.7943  1.1000
  495MOL0     H65306  -1.488   2.067   7.669 -0.2258 -0.8264  1.8946
  495MOL0     H65307  -1.583   1.912   7.677  1.7428 -1.4048 -0.9252
  495MOL0     H65308  -1.637   2.159   7.497  0.6080  1.7966  0.9496
  495MOL0     H65309  -1.687   2.161   7.656  0.7538  0.0233  0.3264
  495MOL0     H65310  -1.867   2.106   7.490 -0.8609 -1.5010 -2.2242
  495MOL0     H65311  -1.846   1.994   7.626 -0.6309  1.6580 -0.8302
  495MOL0     H65312  -1.776   1.984   7.337 -1.8971 -2.1266 -2.5817
  495MOL0     H65313  -1.740   1.851   7.457  0.3048  1.0989  0.6830
  495MOL0     H65314  -1.961   1.883   7.306 -1.5238  2.1169  0.0836
  495MOL0     H65315  -2.032   1.969   7.426 -0.9344 -1.8918  1.6546
  495MOL0     H65316  -2.003   1.788   7.590 -2.9716  1.1633 -1.2744
  495MOL0     H65317  -1.889   1.707   7.475  0.7163  0.0942  1.2302
  495MOL0     H65318  -2.192   1.749   7.430  0.9080  1.2951 -1.8476
  495MOL0     H65319  -2.082   1.632   7.342  4.6930 -0.0099  1.0294
  495MOL0     H65320  -2.226   1.531   7.522 -1.8755  5.2204 -0.6971
  495MOL0     H65321  -2.116   1.604   7.639  1.3873  0.3194 -0.0992
  495MOL0     H65322  -1.260   2.071   7.541 -1.6041 -0.4021  0.2295
  495MOL0     H65323  -1.045   1.976   7.597 -1.1098  1.1367 -0.4009
  495MOL0     H65324  -0.772   1.691   7.492 -0.6245  1.5646  1.7522
  495MOL0     H65325  -0.522   1.604   7.477 -1.7173  2.0090 -1.5081
  495MOL0     H65326   1.523   1.066   7.850 -1.8665  1.5459 -0.5189
  495MOL0     H65327   1.739   1.136   7.773 -1.2268  0.6070  0.7157
  495MOL0     H65328   2.136   0.943   7.384  0.9774 -0.7316 -0.5026
  495MOL0     H65329   2.359   1.047   7.331  0.1551  1.4730 -2.3481
  495MOL0     H65330   2.475   1.466   7.474  4.1168  1.9080  0.0117
  495MOL0     H65331   2.404   1.471   7.313 -0.0928 -0.0177  1.0087
  495MOL0     H65332   2.613   1.407   7.206 -2.8886 -0.2665  0.4804
  495MOL0     H65333   2.637   1.541   7.331  1.7529  0.0813  1.1962
  495MOL0     H65334   2.695   1.240   7.359  1.6952  0.4187  0.8120
  495MOL0     H65335   2.681   1.350   7.493  3.0745 -0.0690  1.0206
  495MOL0     H65336   2.883   1.332   7.257  0.7715 -0.3002  0.3600
  495MOL0     H65337   2.857   1.498   7.324 -0.4410 -0.0554 -0.7576
  495MOL0     H65338   3.069   1.295   7.631  0.6066  1.8896 -0.1989
  495MOL0     H65339   2.255   1.412   7.493  1.1393 -0.4834  0.2976
  495MOL0     H65340   2.011   1.333   7.516 -0.3095  0.3133  0.3815
  496MOL0     O65341   0.900   6.291   8.111  0.6573 -0.2515 -0.6111
  496MOL0     C65342   0.822   6.379   8.153 -0.5031  0.1216  0.5651
  496MOL0     O65343   0.853   6.509   8.171  0.0196  0.0633 -0.4782
  496MOL0     C65344   0.968   6.577   8.151 -0.3125 -0.7367 -0.5746
  496MOL0     C65345   0.978   6.708   8.210 -0.2634  0.1278  0.7088
  496MOL0     C65346   1.101   6.770   8.203  0.9420 -0.3919  0.0546
  496MOL0     C65347   1.206   6.730   8.113  0.3974 -0.6063  0.2387
  496MOL0     O65348   1.325   6.799   8.110 -0.5446  0.1570 -0.1367
  496MOL0     C65349   1.410   6.786   7.996  0.2483 -0.5788  0.4248
  496MOL0     C65350   1.502   6.911   7.982  0.3296 -0.2935  0.1598
  496MOL0     C65351   1.620   6.887   7.883  0.1167  0.0189  1.2919
  496MOL0     C65352   1.710   7.006   7.881  0.3517 -0.6362  1.2573
  496MOL0     C65353   1.816   7.008   7.763 -0.1936  0.2336 -0.0556
  496MOL0     C65354   1.894   7.136   7.762 -0.0553 -0.2730 -0.1722
  496MOL0     C65355   2.014   7.124   7.664 -1.1490 -0.8128 -0.2664
  496MOL0     C65356   2.082   7.266   7.659  0.0189  0.2869  0.7982
  496MOL0     N65357   2.154   7.303   7.542 -0.5379 -0.1139  0.7204
  496MOL0     C65358   2.097   7.338   7.419 -0.0207 -0.4927  0.4075
  496MOL0     C65359   2.194   7.416   7.360 -0.2583 -0.4431 -0.4857
  496MOL0     C65360   2.169   7.491   7.233  0.0116  0.4212  0.1794
  496MOL0     C65361   2.119   7.399   7.123  0.3645 -0.2101  0.6914
  496MOL0     C65362   2.074   7.480   7.000 -0.4298  0.3054 -0.8014
  496MOL0     C65363   1.927   7.517   7.024  0.2574 -0.6998  0.7242
  496MOL0     O65364   1.869   7.546   6.892 -0.5658 -0.0421 -0.4128
  496MOL0     C65365   1.739   7.608   6.885  0.7998  0.5704  0.0740
  496MOL0     C65366   1.682   7.647   6.764 -0.0936  0.1447 -0.3850
  496MOL0     C65367   1.542   7.665   6.748 -0.4521 -0.7547  0.0041
  496MOL0     C65368   1.459   7.684   6.861 -0.0618  0.1996 -0.6118
  496MOL0     C65369   1.307   7.700   6.852  0.4721  0.2009 -0.0435
  496MOL0     O65370   1.241   7.673   6.968 -0.5193  0.2770 -0.6049
  496MOL0     C65371   1.105   7.649   6.973 -0.9999 -0.2354  0.4380
  496MOL0     C65372   1.044   7.708   7.087  0.5519  0.2187 -0.8385
  496MOL0     C65373   0.899   7.707   7.110 -0.6569 -0.2076 -0.7770
  496MOL0     C65374   0.822   7.652   7.013  0.7565 -0.6551  0.2914
  496MOL0     O65375   0.686   7.636   7.012 -0.2843 -0.8637  0.8294
  496MOL0     C65376   0.606   7.742   7.072  0.3550 -0.2026  0.5973
  496MOL0     C65377   0.460   7.705   7.049  0.3659  0.5862  0.2419
  496MOL0     C65378   0.365   7.781   7.139  0.8316  0.1948 -0.1372
  496MOL0     C65379   0.215   7.751   7.122  0.1340 -0.4460  0.5297
  496MOL0     C65380   0.127   7.819   7.229 -0.7812 -0.3009 -0.8123
  496MOL0     C65381  -0.022   7.788   7.219 -0.6172  0.8264 -0.8440
  496MOL0     C65382  -0.100   7.866   7.320 -0.1262 -0.5905 -0.4517
  496MOL0     C65383  -0.253   7.843   7.314 -0.3193 -0.3029  0.5182
  496MOL0    Cl65384  -0.319   7.874   7.157  0.0198  0.1779  0.1338
  496MOL0     C65385   0.882   7.602   6.885  0.3260  0.1113 -0.5192
  496MOL0     C65386   1.021   7.594   6.873  0.5661 -0.1200  0.5701
  496MOL0     O65387   1.253   7.739   6.746 -0.2338 -0.9730  0.0893
  496MOL0     C65388   1.520   7.644   6.983 -0.0407 -0.5681 -0.4167
  496MOL0     C65389   1.653   7.604   6.996 -1.0424  0.0246  0.9037
  496MOL0     N65390   2.311   7.401   7.428 -0.4532  0.1512  0.3720
  496MOL0     N65391   2.287   7.332   7.534 -0.2295  0.3801 -0.8059
  496MOL0     C65392   1.194   6.608   8.049  0.0890 -0.0304  0.1405
  496MOL0     C65393   1.081   6.530   8.073  0.0400  0.5754  0.1461
  496MOL0     C65394   0.682   6.331   8.176 -0.3803  0.1258  0.1915
  496MOL0     C65395   0.635   6.205   8.138 -0.0972  0.5380 -0.0216
  496MOL0     C65396   0.511   6.149   8.169  0.2321  0.0461  0.4290
  496MOL0     C65397   0.424   6.216   8.254  0.5696  0.3210 -0.4082
  496MOL0     O65398   0.296   6.185   8.300  0.1311 -0.0558 -0.4988
  496MOL0     C65399   0.254   6.052   8.309 -0.0721 -0.3373  0.9804
  496MOL0     C65400   0.140   6.026   8.214 -0.0168 -0.4668  0.1994
  496MOL0     C65401   0.065   5.893   8.236  0.5633 -0.8659  0.2716
  496MOL0     C65402  -0.033   5.912   8.348 -0.8242  0.3532 -0.7105
  496MOL0     C65403  -0.082   5.780   8.394 -0.1411 -0.1160  0.8100
  496MOL0     C65404  -0.112   5.665   8.417 -0.0572 -0.0596  0.5666
  496MOL0     C65405   0.469   6.348   8.294 -0.3266 -0.4037 -0.8571
  496MOL0     C65406   0.595   6.403   8.265 -0.4745  0.2693  0.2701
  496MOL0     H65407   0.897   6.754   8.266 -1.2618  1.4494 -1.6729
  496MOL0     H65408   1.112   6.867   8.251  0.4037 -1.1537  1.7519
  496MOL0     H65409   1.354   6.752   7.908 -1.9141 -1.1530  1.9447
  496MOL0     H65410   1.476   6.702   8.019 -0.0765 -0.8698  0.3073
  496MOL0     H65411   1.538   6.947   8.079  1.3214  2.3667 -1.0950
  496MOL0     H65412   1.436   6.991   7.949  1.6624  1.0649  0.6662
  496MOL0     H65413   1.575   6.865   7.786 -0.3682 -0.6265  1.6522
  496MOL0     H65414   1.679   6.798   7.905 -2.2428 -1.4937  1.9713
  496MOL0     H65415   1.648   7.096   7.875 -1.2004 -1.4600  3.5150
  496MOL0     H65416   1.764   7.000   7.976  0.1137 -2.1263  1.3233
  496MOL0     H65417   1.767   6.981   7.668  1.6840  0.9858 -1.3107
  496MOL0     H65418   1.895   6.934   7.782 -1.4368 -0.3723  3.3088
  496MOL0     H65419   1.945   7.145   7.859  0.1287  1.0035 -0.3801
  496MOL0     H65420   1.832   7.224   7.746  1.9687  1.4168  0.7404
  496MOL0     H65421   2.092   7.058   7.703  1.1522  0.8855 -1.7302
  496MOL0     H65422   1.979   7.106   7.562 -0.0459 -1.1403 -0.6051
  496MOL0     H65423   2.150   7.270   7.744  1.7559 -1.8017 -0.4082
  496MOL0     H65424   2.014   7.351   7.659  2.1518  2.0710  0.6220
  496MOL0     H65425   2.003   7.312   7.372 -0.4367  0.4486  0.6890
  496MOL0     H65426   2.261   7.539   7.200  0.7628 -0.9896  0.1742
  496MOL0     H65427   2.098   7.571   7.259  0.4263  0.9881 -0.4144
  496MOL0     H65428   2.036   7.333   7.151 -1.2218 -0.4192 -3.6656
  496MOL0     H65429   2.204   7.333   7.107  0.9247  0.0618  2.3578
  496MOL0     H65430   2.118   7.579   6.988 -0.1006  0.2183 -0.3646
  496MOL0     H65431   2.093   7.422   6.910 -0.5593 -1.3671  0.2122
  496MOL0     H65432   1.916   7.605   7.088  1.3289  0.8824 -1.1620
  496MOL0     H65433   1.874   7.434   7.072 -0.2219 -0.1836  1.1085
  496MOL0     H65434   1.740   7.642   6.672 -2.2138  2.1522 -1.9420
  496MOL0     H65435   1.487   7.674   6.655 -2.3076 -0.2212  1.0905
  496MOL0     H65436   1.104   7.751   7.166  1.1029 -0.3873 -0.9143
  496MOL0     H65437   0.856   7.759   7.195 -0.0060  2.0226 -1.7406
  496MOL0     H65438   0.629   7.838   7.023  0.4647 -1.4437 -1.9426
  496MOL0     H65439   0.622   7.745   7.180 -1.7357 -3.7521  1.1403
  496MOL0     H65440   0.452   7.598   7.068  1.4517  0.7086  1.5041
  496MOL0     H65441   0.436   7.732   6.946 -0.9132  1.4803  0.7381
  496MOL0     H65442   0.378   7.890   7.136 -0.6684  0.4293  0.6733
  496MOL0     H65443   0.379   7.748   7.242 -1.6670 -0.7438 -0.0266
  496MOL0     H65444   0.184   7.780   7.021  1.7411 -0.7168 -0.0723
  496MOL0     H65445   0.200   7.643   7.133  1.0034 -0.5921  0.3801
  496MOL0     H65446   0.136   7.927   7.213  3.4529 -0.5958 -1.5964
  496MOL0     H65447   0.160   7.797   7.331  0.7798  1.5121 -0.8530
  496MOL0     H65448  -0.032   7.680   7.233  1.3849  0.5486 -1.2928
  496MOL0     H65449  -0.056   7.801   7.116  0.4660 -0.0308 -1.3308
  496MOL0     H65450  -0.074   7.837   7.423 -0.6820  0.4269 -0.0132
  496MOL0     H65451  -0.075   7.972   7.315  1.2427 -0.6121  3.0708
  496MOL0     H65452  -0.302   7.900   7.393  1.0681  2.3291 -0.4137
  496MOL0     H65453  -0.272   7.743   7.353 -1.2602 -0.5385 -0.5158
  496MOL0     H65454   0.816   7.563   6.808  1.7212 -0.8695 -1.2659
  496MOL0     H65455   1.058   7.571   6.773  1.2525  1.5231  0.4052
  496MOL0     H65456   1.461   7.650   7.074 -0.4328 -2.9297 -0.4526
  496MOL0     H65457   1.688   7.563   7.090  3.5100  2.0643  0.3419
  496MOL0     H65458   1.274   6.570   7.987  0.4837 -0.1746  0.7244
  496MOL0     H65459   1.088   6.437   8.017  2.8965 -0.6944  2.3562
  496MOL0     H65460   0.707   6.154   8.074 -1.3529 -1.5962  0.1562
  496MOL0     H65461   0.492   6.050   8.131  0.6607 -0.7447  2.1444
  496MOL0     H65462   0.224   6.032   8.413 -0.4405 -0.8130  0.7843
  496MOL0     H65463   0.341   5.993   8.277  1.9966  2.8252  0.3494
  496MOL0     H65464   0.060   6.101   8.219 -0.4381 -0.7842 -1.4234
  496MOL0     H65465   0.178   6.024   8.112 -0.4786 -2.4435  0.0123
  496MOL0     H65466   0.133   5.810   8.256  1.4197  0.0109  1.0535
  496MOL0     H65467   0.007   5.875   8.145  0.5047 -3.9545  0.8213
  496MOL0     H65468   0.010   5.959   8.437  1.3503  1.6369 -2.3353
  496MOL0     H65469  -0.116   5.969   8.304 -0.9880  0.5257 -0.1807
  496MOL0     H65470  -0.156   5.573   8.450  0.2145  0.2737  1.9369
  496MOL0     H65471   0.409   6.408   8.362  1.7993 -0.0162  0.7801
  496MOL0     H65472   0.628   6.499   8.305 -0.1701  0.3707 -0.2217
  497MOL0     O65473   9.685   6.995   7.054 -0.5423 -0.0675  0.6767
  497MOL0     C65474   9.761   6.916   6.992 -0.5229 -0.3420  0.7711
  497MOL0     O65475   9.735   6.832   6.890 -0.2386  0.3098  0.0192
  497MOL0     C65476   9.607   6.802   6.848 -0.4899  0.2438 -1.0921
  497MOL0     C65477   9.482   6.863   6.876 -0.7273  0.5729 -0.6335
  497MOL0     C65478   9.363   6.823   6.824  0.7437  0.2764  0.2381
  497MOL0     C65479   9.363   6.716   6.737 -0.5840 -0.1469 -0.0559
  497MOL0     O65480   9.242   6.677   6.676  0.0811  0.6433  0.0442
  497MOL0     C65481   9.113   6.719   6.723  0.4217  0.2751 -0.2680
  497MOL0     C65482   9.016   6.685   6.612  0.5712  0.5249 -0.0351
  497MOL0     C65483   8.876   6.757   6.614 -0.7213  0.3497  0.1653
  497MOL0     C65484   8.789   6.676   6.510 -0.4303  0.2285  0.1891
  497MOL0     C65485   8.644   6.702   6.511  0.0959  0.2001  0.0392
  497MOL0     C65486   8.615   6.849   6.480  0.9766 -1.1242 -0.1616
  497MOL0     C65487   8.469   6.873   6.436 -0.5320  0.5443 -0.4054
  497MOL0     C65488   8.450   7.009   6.388  1.1046  0.3113 -0.1650
  497MOL0     N65489   8.315   7.012   6.328  0.3120  0.5225 -0.0839
  497MOL0     C65490   8.288   7.094   6.223  0.3399 -0.5833  0.1208
  497MOL0     C65491   8.156   7.097   6.207  0.2073 -0.1536 -0.1354
  497MOL0     C65492   8.088   7.175   6.091  0.2447 -0.1658  0.2222
  497MOL0     C65493   8.013   7.084   6.001 -0.6105  0.0045  0.3750
  497MOL0     C65494   7.916   7.159   5.906 -0.2731 -0.3402  0.5280
  497MOL0     C65495   7.794   7.078   5.852 -0.7296 -0.2442  0.1662
  497MOL0     O65496   7.702   7.168   5.789  0.3126  0.9024 -0.5914
  497MOL0     C65497   7.566   7.155   5.819  0.5427 -0.0080 -0.4191
  497MOL0     C65498   7.502   7.050   5.756  0.0806 -0.6306 -0.1520
  497MOL0     C65499   7.364   7.041   5.769  0.2056  0.9399 -0.5299
  497MOL0     C65500   7.288   7.124   5.856 -0.2483  0.1337 -0.1768
  497MOL0     C65501   7.142   7.098   5.868  0.8031 -0.0875  0.5942
  497MOL0     O65502   7.073   7.028   5.766  0.3064 -0.4720  0.2774
  497MOL0     C65503   6.936   7.017   5.781  0.4632  0.0207 -0.2780
  497MOL0     C65504   6.849   7.126   5.796  0.0470  0.6469  0.8850
  497MOL0     C65505   6.714   7.106   5.790 -0.3304 -0.2935 -0.5647
  497MOL0     C65506   6.664   6.978   5.801  0.9030  0.1727 -0.1161
  497MOL0     O65507   6.534   6.937   5.788 -0.6492  0.5560  0.3696
  497MOL0     C65508   6.429   7.035   5.813 -0.3010 -0.2179  0.4673
  497MOL0     C65509   6.321   6.949   5.868  0.6373 -0.5498  0.1453
  497MOL0     C65510   6.188   7.034   5.893  0.4289 -0.6397 -0.0046
  497MOL0     C65511   6.066   6.953   5.950 -0.0977 -0.3264  0.0793
  497MOL0     C65512   5.959   7.054   6.008  0.0952 -0.2043  0.3079
  497MOL0     C65513   5.848   6.984   6.085 -0.2551 -0.1222  0.0602
  497MOL0     C65514   5.774   6.875   5.999  0.2738 -0.1597 -0.0135
  497MOL0     C65515   5.732   6.917   5.866  0.4612  0.4182  0.4487
  497MOL0    Cl65516   5.709   6.773   5.768 -0.3447 -0.9457  0.3124
  497MOL0     C65517   6.755   6.872   5.809 -0.7261  1.1265 -0.0097
  497MOL0     C65518   6.894   6.888   5.805  0.0408  0.1052 -1.3965
  497MOL0     O65519   7.087   7.137   5.978  0.0504 -0.0847  0.6524
  497MOL0     C65520   7.357   7.224   5.929  0.4460 -0.9206 -0.3555
  497MOL0     C65521   7.501   7.238   5.912 -0.7498 -0.0049  0.3044
  497MOL0     N65522   8.103   7.032   6.317  0.4597 -1.0199 -0.6441
  497MOL0     N65523   8.196   6.983   6.382 -0.3345  0.2836  0.4069
  497MOL0     C65524   9.482   6.656   6.689  0.3889  0.2877 -0.6082
  497MOL0     C65525   9.597   6.691   6.757 -0.4245  1.1122 -0.5208
  497MOL0     C65526   9.909   6.925   7.026  0.1198  0.5050  0.1136
  497MOL0     C65527   9.969   7.036   7.098  0.1248  0.7759  0.3599
  497MOL0     C65528  10.107   7.040   7.127  0.0909  0.3467  0.2909
  497MOL0     C65529  10.188   6.936   7.082  0.1733 -0.0871 -0.1764
  497MOL0     O65530  10.323   6.935   7.107  0.5999 -0.0791 -0.2283
  497MOL0     C65531  10.368   6.901   7.235 -0.3742  0.0348  0.1493
  497MOL0     C65532  10.514   6.953   7.258  0.4053 -0.1501 -0.0512
  497MOL0     C65533  10.530   7.102   7.233 -0.9310 -0.2225 -0.0904
  497MOL0     C65534  10.681   7.145   7.266  0.7370  0.5949  0.7624
  497MOL0     C65535  10.700   7.284   7.242 -0.3277 -0.7020  0.0190
  497MOL0     C65536  10.699   7.404   7.211  0.2933  0.6601  0.0571
  497MOL0     C65537  10.131   6.837   7.007  0.3751 -0.6883 -0.5411
  497MOL0     C65538   9.996   6.830   6.974  0.5417 -0.0922  0.5638
  497MOL0     H65539   9.472   6.955   6.933 -4.0566 -0.2153  0.2506
  497MOL0     H65540   9.272   6.875   6.854 -1.7949 -3.0224 -1.0328
  497MOL0     H65541   9.094   6.826   6.733 -1.2068  0.2851 -2.5242
  497MOL0     H65542   9.087   6.668   6.817 -1.9356  0.6728 -0.6307
  497MOL0     H65543   9.015   6.576   6.596  0.9955  0.9272 -3.6070
  497MOL0     H65544   9.072   6.694   6.519  1.9883 -4.4832  0.0101
  497MOL0     H65545   8.882   6.863   6.589  2.4305 -0.0375 -1.1182
  497MOL0     H65546   8.830   6.750   6.714 -0.8160 -1.2743  0.0351
  497MOL0     H65547   8.833   6.709   6.415  2.2054 -0.6120  1.0397
  497MOL0     H65548   8.808   6.570   6.524 -2.1733 -0.5065 -2.3592
  497MOL0     H65549   8.605   6.686   6.612 -2.8800  1.2340 -0.8388
  497MOL0     H65550   8.593   6.634   6.442  3.7894 -0.5587 -2.2552
  497MOL0     H65551   8.671   6.891   6.396  0.3515  0.1114  0.0251
  497MOL0     H65552   8.638   6.899   6.574 -1.8627  1.2402 -0.6128
  497MOL0     H65553   8.448   6.800   6.357  2.6092  1.0126 -1.8236
  497MOL0     H65554   8.406   6.862   6.525 -0.1839 -2.1867 -0.4023
  497MOL0     H65555   8.526   7.039   6.315  1.2249  1.6307  0.4746
  497MOL0     H65556   8.462   7.079   6.471  2.4803  0.9535 -0.8734
  497MOL0     H65557   8.357   7.145   6.158 -0.2554 -0.7617 -0.6723
  497MOL0     H65558   8.163   7.224   6.028 -0.6604 -1.2805 -1.8058
  497MOL0     H65559   8.024   7.254   6.131 -0.0065  0.4698 -1.3702
  497MOL0     H65560   7.944   7.029   6.066  0.8685 -1.1479  1.0361
  497MOL0     H65561   8.078   7.008   5.956 -0.3497  0.1866  0.4468
  497MOL0     H65562   7.888   7.246   5.967  0.0119 -0.4904  0.8776
  497MOL0     H65563   7.966   7.205   5.820  1.2164 -1.0328  0.9916
  497MOL0     H65564   7.728   7.030   5.925 -4.4899  2.6532 -0.9965
  497MOL0     H65565   7.840   7.009   5.781  1.9555 -0.4510  1.9667
  497MOL0     H65566   7.547   6.970   5.699 -0.9152  0.4039 -2.5116
  497MOL0     H65567   7.322   6.954   5.718  0.1921 -1.8348  3.6673
  497MOL0     H65568   6.893   7.225   5.784  0.0252  1.0820  3.8136
  497MOL0     H65569   6.652   7.195   5.781  0.2431  0.0839 -0.7834
  497MOL0     H65570   6.404   7.080   5.716 -0.6955  1.0169  1.1290
  497MOL0     H65571   6.452   7.116   5.882  0.4262  0.3069 -0.3676
  497MOL0     H65572   6.351   6.912   5.966 -0.8830  1.9030  1.6395
  497MOL0     H65573   6.298   6.861   5.807 -0.7543  0.7532 -1.3108
  497MOL0     H65574   6.170   7.078   5.795  2.2272  0.1923 -0.0090
  497MOL0     H65575   6.205   7.103   5.976 -1.2901 -0.5358  0.2831
  497MOL0     H65576   6.012   6.889   5.879 -1.3025  0.0269  0.6578
  497MOL0     H65577   6.101   6.884   6.028 -0.9725  0.0745  0.8429
  497MOL0     H65578   5.917   7.108   5.923 -0.0395 -1.0795 -0.1922
  497MOL0     H65579   6.001   7.135   6.069 -2.4815  3.0734 -1.9289
  497MOL0     H65580   5.776   7.064   6.103 -2.4067 -1.7335 -0.9617
  497MOL0     H65581   5.883   6.942   6.179 -1.0442  1.1219  0.9264
  497MOL0     H65582   5.836   6.785   5.987 -0.5274 -0.8521  0.8695
  497MOL0     H65583   5.690   6.840   6.059 -0.1639  0.3123 -0.3499
  497MOL0     H65584   5.805   6.983   5.818  0.7212 -1.0893 -1.3447
  497MOL0     H65585   5.634   6.966   5.865  0.6909  0.8914  0.0637
  497MOL0     H65586   6.721   6.769   5.814  2.4945 -0.0214  3.6879
  497MOL0     H65587   6.964   6.805   5.804 -0.9356 -0.7471 -3.0657
  497MOL0     H65588   7.297   7.278   6.001 -0.1884 -2.2773  0.1537
  497MOL0     H65589   7.568   7.311   5.956  0.7992  0.8982 -3.2050
  497MOL0     H65590   9.491   6.568   6.626  0.3187 -0.9239  1.0021
  497MOL0     H65591   9.688   6.641   6.726 -1.9360 -0.4921 -2.5718
  497MOL0     H65592   9.901   7.113   7.130  1.8949  2.5173  0.1485
  497MOL0     H65593  10.138   7.121   7.193 -1.1410  1.3912 -0.3656
  497MOL0     H65594  10.359   6.792   7.247  0.7003  0.1475  2.3745
  497MOL0     H65595  10.294   6.943   7.304 -0.0129  0.8173  0.0597
  497MOL0     H65596  10.538   6.928   7.362 -0.4499 -2.1834 -0.2931
  497MOL0     H65597  10.585   6.893   7.201  0.1713 -1.2247  0.7521
  497MOL0     H65598  10.453   7.165   7.278  0.5650  2.8512 -1.4957
  497MOL0     H65599  10.523   7.119   7.125  0.3640  3.0532  0.2242
  497MOL0     H65600  10.715   7.121   7.368 -0.0091 -0.7123  0.7346
  497MOL0     H65601  10.745   7.081   7.205 -1.8990 -1.7460  0.2155
  497MOL0     H65602  10.700   7.503   7.169  0.0184  0.2129 -1.0205
  497MOL0     H65603  10.184   6.745   6.984  0.3210 -1.0588  0.7349
  497MOL0     H65604   9.970   6.738   6.922  2.2442 -0.1395 -0.2905
  498MOL0     O65605   8.759   4.775   1.531  0.3581 -0.6967  0.4545
  498MOL0     C65606   8.839   4.691   1.497 -0.6968 -0.0761  0.0094
  498MOL0     O65607   8.807   4.566   1.449  0.4583  0.4277  0.1499
  498MOL0     C65608   8.676   4.514   1.469  0.5846  0.5027 -0.7347
  498MOL0     C65609   8.562   4.597   1.456  0.2440 -0.2817  0.0666
  498MOL0     C65610   8.432   4.549   1.486 -0.5391 -0.1221 -0.6036
  498MOL0     C65611   8.409   4.413   1.518  0.8931 -0.3691  0.0471
  498MOL0     O65612   8.281   4.386   1.551 -0.5770 -0.1851 -0.3923
  498MOL0     C65613   8.245   4.247   1.563 -0.2957  0.0352 -0.3131
  498MOL0     C65614   8.090   4.234   1.565 -0.6005 -0.8989  0.3109
  498MOL0     C65615   8.042   4.259   1.712  0.5468  0.8497  0.8566
  498MOL0     C65616   7.891   4.269   1.729 -0.0513 -0.0524 -0.2592
  498MOL0     C65617   7.804   4.141   1.714 -0.4122 -0.5633  0.0571
  498MOL0     C65618   7.655   4.181   1.697 -1.0292  0.4477 -0.8216
  498MOL0     C65619   7.563   4.056   1.692 -0.0059  0.3285  0.8266
  498MOL0     C65620   7.421   4.105   1.714  0.6797 -0.2350 -0.0810
  498MOL0     N65621   7.317   4.000   1.711  0.4271  0.0847  0.6309
  498MOL0     C65622   7.274   3.932   1.824  0.6243 -0.7676  0.2153
  498MOL0     C65623   7.182   3.846   1.780 -0.6397  0.3604 -0.1257
  498MOL0     C65624   7.093   3.759   1.865 -0.3377 -1.4346  0.8303
  498MOL0     C65625   6.948   3.806   1.856  0.8604  0.4714  0.0641
  498MOL0     C65626   6.853   3.700   1.907 -0.2157  0.3191 -0.3518
  498MOL0     C65627   6.708   3.737   1.886  0.0419 -1.0179 -0.0012
  498MOL0     O65628   6.629   3.621   1.920  0.1385  0.4244  0.5321
  498MOL0     C65629   6.499   3.615   1.871  0.0509  0.1078 -0.4820
  498MOL0     C65630   6.434   3.491   1.884 -0.3264 -0.4314  0.6292
  498MOL0     C65631   6.305   3.479   1.842 -0.0858  0.4514  0.2783
  498MOL0     C65632   6.237   3.592   1.794  0.0775  0.4790  0.7472
  498MOL0     C65633   6.102   3.568   1.728 -0.7908  0.0737  0.5927
  498MOL0     O65634   6.063   3.438   1.734  0.4930  0.1262 -0.0514
  498MOL0     C65635   5.942   3.417   1.681 -0.2098 -0.2428 -0.5828
  498MOL0     C65636   5.922   3.298   1.616  0.3696  0.0109 -0.1459
  498MOL0     C65637   5.796   3.247   1.572 -0.2840  0.1824 -0.5305
  498MOL0     C65638   5.688   3.328   1.592  0.4007 -0.5826  0.4782
  498MOL0     O65639   5.569   3.272   1.541  0.2675  0.3797  0.1895
  498MOL0     C65640   5.507   3.354   1.437  0.6276  0.5141  0.4860
  498MOL0     C65641   5.374   3.301   1.392 -0.2233 -0.5174 -0.1986
  498MOL0     C65642   5.266   3.359   1.485  0.7431  0.2921 -0.3031
  498MOL0     C65643   5.149   3.271   1.471  0.1731  0.0331 -0.1894
  498MOL0     C65644   5.020   3.348   1.501 -0.6743 -0.3738  0.7199
  498MOL0     C65645   4.898   3.269   1.473  0.1716  0.4744  0.2512
  498MOL0     C65646   4.770   3.345   1.514 -0.4873  0.1545  0.2545
  498MOL0     C65647   4.660   3.244   1.547  0.2206  0.5734  0.3364
  498MOL0    Cl65648   4.517   3.332   1.612 -0.4322 -0.2522 -0.1056
  498MOL0     C65649   5.698   3.452   1.650 -0.9000 -0.6409 -0.9933
  498MOL0     C65650   5.823   3.493   1.704  0.4657  0.0081  0.4143
  498MOL0     O65651   6.048   3.658   1.672  0.9362 -0.1337  0.2861
  498MOL0     C65652   6.292   3.718   1.803 -0.1258 -1.3612  0.0833
  498MOL0     C65653   6.426   3.736   1.843  0.2519  0.1911  0.5460
  498MOL0     N65654   7.165   3.866   1.647 -0.1670 -0.2654 -0.3135
  498MOL0     N65655   7.244   3.956   1.608 -0.1651 -0.6403  0.7872
  498MOL0     C65656   8.521   4.327   1.521  0.0515  0.3169 -0.4472
  498MOL0     C65657   8.648   4.375   1.506  0.4349 -0.1065 -0.4953
  498MOL0     C65658   8.984   4.725   1.484 -0.7932  0.2769 -0.4800
  498MOL0     C65659   9.047   4.850   1.513  0.4856  0.3338  0.1960
  498MOL0     C65660   9.187   4.864   1.504  0.2986  0.8805 -0.6901
  498MOL0     C65661   9.262   4.765   1.449  0.2055 -0.4550  0.6027
  498MOL0     O65662   9.392   4.777   1.417  0.7509 -0.1938  0.1489
  498MOL0     C65663   9.465   4.907   1.429 -0.0882  0.2840 -0.5585
  498MOL0     C65664   9.601   4.895   1.360  0.7399 -0.5040 -0.4352
  498MOL0     C65665   9.688   4.797   1.438  0.2046 -0.9258 -0.0951
  498MOL0     C65666   9.839   4.808   1.402  0.5517 -0.3297 -0.6862
  498MOL0     C65667   9.870   4.799   1.264  0.3189  0.1093 -0.9958
  498MOL0     C65668   9.909   4.798   1.154 -0.5099  0.4684 -1.3931
  498MOL0     C65669   9.204   4.645   1.414  0.7480 -1.4184  0.3039
  498MOL0     C65670   9.071   4.629   1.435  0.4552  0.1178 -0.0826
  498MOL0     H65671   8.565   4.701   1.425  0.9374  0.6125  2.8466
  498MOL0     H65672   8.349   4.617   1.499 -2.8081 -2.3365 -2.4416
  498MOL0     H65673   8.296   4.203   1.650  3.6771 -0.4073 -2.6364
  498MOL0     H65674   8.286   4.193   1.477  1.4422  0.3362  0.2672
  498MOL0     H65675   8.064   4.136   1.523  2.1924 -1.0052 -1.4374
  498MOL0     H65676   8.058   4.308   1.491  1.6058  0.9290  1.0985
  498MOL0     H65677   8.088   4.351   1.748 -1.6318  2.3990 -0.1401
  498MOL0     H65678   8.066   4.174   1.777 -3.6385  1.1766  3.1365
  498MOL0     H65679   7.878   4.307   1.831 -2.1217 -0.9813 -0.1085
  498MOL0     H65680   7.858   4.348   1.660 -1.7922  0.0439  0.6220
  498MOL0     H65681   7.819   4.073   1.798  0.4538 -0.6992 -0.2051
  498MOL0     H65682   7.828   4.081   1.626 -1.6181 -2.0454  0.6966
  498MOL0     H65683   7.646   4.232   1.600  1.6531  1.3999 -0.6498
  498MOL0     H65684   7.631   4.247   1.781  2.7011 -1.8172  2.3517
  498MOL0     H65685   7.566   3.990   1.605  3.0371 -0.4654  1.4109
  498MOL0     H65686   7.580   3.994   1.781 -2.1768  0.1872  1.2106
  498MOL0     H65687   7.399   4.181   1.639 -1.9400 -0.4039  0.4403
  498MOL0     H65688   7.420   4.161   1.808 -1.4224  2.3631 -1.5184
  498MOL0     H65689   7.304   3.950   1.927 -0.0362 -2.7770  0.8104
  498MOL0     H65690   7.122   3.766   1.970  3.3573  4.0894 -0.1375
  498MOL0     H65691   7.094   3.656   1.828 -0.7968 -0.2929 -2.7786
  498MOL0     H65692   6.919   3.830   1.753  2.4601  0.3457 -0.4325
  498MOL0     H65693   6.947   3.897   1.917 -0.1307 -0.0077  0.7996
  498MOL0     H65694   6.875   3.612   1.847 -0.2211 -1.0724  1.5784
  498MOL0     H65695   6.876   3.687   2.013 -1.1754  1.3570  0.0041
  498MOL0     H65696   6.697   3.770   1.783 -0.2523  1.0482  0.6477
  498MOL0     H65697   6.680   3.823   1.948  1.7778  0.2933 -0.9435
  498MOL0     H65698   6.490   3.406   1.922 -1.5907 -1.8240 -0.4716
  498MOL0     H65699   6.259   3.381   1.849 -1.8492  1.3472  2.5242
  498MOL0     H65700   6.008   3.238   1.590  1.0378  1.0723 -0.4357
  498MOL0     H65701   5.777   3.152   1.523 -1.6979  1.1834 -2.0498
  498MOL0     H65702   5.576   3.337   1.354 -1.9732  0.5605 -1.8461
  498MOL0     H65703   5.512   3.461   1.459  1.2975  0.6370 -0.2016
  498MOL0     H65704   5.371   3.192   1.400 -2.2953 -0.4545  0.3490
  498MOL0     H65705   5.345   3.330   1.290  0.2630  1.0899  0.0821
  498MOL0     H65706   5.232   3.456   1.448 -0.1089  0.9142  1.9235
  498MOL0     H65707   5.306   3.379   1.585  3.1383  1.9092 -1.5201
  498MOL0     H65708   5.136   3.235   1.369  0.8377 -0.4580 -0.1071
  498MOL0     H65709   5.151   3.180   1.532 -1.5374  0.5913  0.7767
  498MOL0     H65710   5.019   3.431   1.431  1.7145 -1.5125 -0.8080
  498MOL0     H65711   5.019   3.391   1.601 -0.0849  2.4068 -0.3896
  498MOL0     H65712   4.897   3.173   1.527  0.2768  0.0201 -0.5331
  498MOL0     H65713   4.898   3.242   1.367  1.0332 -0.8654  0.5579
  498MOL0     H65714   4.796   3.408   1.599 -0.7820 -1.4814  1.5937
  498MOL0     H65715   4.750   3.410   1.428 -1.6672 -0.7907 -0.2128
  498MOL0     H65716   4.694   3.171   1.622  0.8121  0.6327  0.1261
  498MOL0     H65717   4.623   3.186   1.462  4.1426 -0.5712 -0.7757
  498MOL0     H65718   5.615   3.517   1.677  0.3863 -0.1154  1.9659
  498MOL0     H65719   5.848   3.585   1.756 -1.0070 -0.4444  2.0029
  498MOL0     H65720   6.241   3.812   1.784 -1.0524 -1.5859  1.3626
  498MOL0     H65721   6.467   3.835   1.823 -0.3017  0.3697  0.2792
  498MOL0     H65722   8.510   4.225   1.557 -0.3706  1.3924  2.8251
  498MOL0     H65723   8.735   4.312   1.519  0.7451  0.5244  0.6619
  498MOL0     H65724   8.981   4.926   1.554  0.2725 -0.3793  1.2156
  498MOL0     H65725   9.242   4.951   1.539 -2.0930  2.2646 -0.0888
  498MOL0     H65726   9.467   4.937   1.534 -1.1165  1.9668 -0.9744
  498MOL0     H65727   9.413   4.989   1.377 -0.0240  1.3910  1.0603
  498MOL0     H65728   9.583   4.853   1.260  1.6386 -1.5770 -0.1636
  498MOL0     H65729   9.640   4.997   1.350 -1.4662  0.3428 -0.9125
  498MOL0     H65730   9.645   4.697   1.429 -2.6302 -0.2059  3.2593
  498MOL0     H65731   9.682   4.822   1.544 -0.6614 -2.4090  0.2303
  498MOL0     H65732   9.871   4.907   1.435  2.1034 -0.9451 -0.2828
  498MOL0     H65733   9.885   4.725   1.457 -1.0827 -1.1527 -0.4902
  498MOL0     H65734   9.963   4.797   1.061 -0.1409 -1.1239 -1.1927
  498MOL0     H65735   9.260   4.566   1.366  0.4687 -1.4377  0.0025
  498MOL0     H65736   9.034   4.530   1.411  3.8292 -1.1937 -0.3611
  499MOL0     O65737  11.160   8.497   9.511  0.5814  0.6774 -0.0328
  499MOL0     C65738  11.234   8.519   9.605  0.3778  0.7307  0.2778
  499MOL0     O65739  11.352   8.585   9.592  0.3308 -0.4797 -0.2175
  499MOL0     C65740  11.397   8.638   9.468 -0.2133  0.0796 -0.4753
  499MOL0     C65741  11.466   8.760   9.482  0.3713  0.1275 -0.1623
  499MOL0     C65742  11.532   8.820   9.375 -0.0044  0.5060 -0.4347
  499MOL0     C65743  11.533   8.764   9.252 -0.5204 -0.3134  0.5808
  499MOL0     O65744  11.590   8.821   9.140 -0.1337 -0.0258 -0.0614
  499MOL0     C65745  11.727   8.856   9.147  0.7418  0.1320  0.1875
  499MOL0     C65746  11.765   8.911   9.002  0.5623 -0.1609  0.9876
  499MOL0     C65747  11.905   8.962   8.995 -0.0288 -0.3244  0.3199
  499MOL0     C65748  11.929   9.059   8.877  0.1874  0.5355 -0.3454
  499MOL0     C65749  12.067   9.121   8.864  0.0837  0.2491  0.3007
  499MOL0     C65750  12.179   9.019   8.838  0.4008 -0.5328  0.0860
  499MOL0     C65751  12.306   9.089   8.786 -0.1110  0.0664  0.4738
  499MOL0     C65752  12.364   9.206   8.866 -0.2337 -0.7513 -0.8105
  499MOL0     N65753  12.482   9.269   8.812 -0.2747 -0.4473  0.4804
  499MOL0     C65754  12.591   9.198   8.770 -1.4130 -0.2220  0.3242
  499MOL0     C65755  12.684   9.293   8.735  0.0083 -0.2124  0.0260
  499MOL0     C65756  12.826   9.257   8.673 -0.3749  0.0248 -0.5801
  499MOL0     C65757  12.910   9.202   8.786  0.4791  0.9974 -0.9589
  499MOL0     C65758  12.952   9.309   8.898  0.4905 -1.4801  0.2179
  499MOL0     C65759  12.983   9.227   9.017  0.5424 -0.8783 -0.3151
  499MOL0     O65760  13.087   9.133   9.002  0.4707 -0.2778  0.0861
  499MOL0     C65761  13.211   9.175   8.962  0.7617  0.7579 -0.6292
  499MOL0     C65762  13.286   9.279   9.029 -0.3545 -0.8703 -0.1747
  499MOL0     C65763  13.422   9.306   8.995 -1.0984  0.8200 -0.1500
  499MOL0     C65764  13.481   9.238   8.891  0.5566 -0.5525  0.9766
  499MOL0     C65765  13.626   9.247   8.881  0.3115  0.1178 -0.6494
  499MOL0     O65766  13.689   9.143   8.817 -0.0156 -0.5910 -0.1009
  499MOL0     C65767  13.827   9.167   8.793  0.0437  0.2020 -0.2108
  499MOL0     C65768  13.922   9.203   8.891  0.1167 -0.2382 -0.2916
  499MOL0     C65769  14.057   9.225   8.849  0.5185 -0.1111  0.6876
  499MOL0     C65770  14.095   9.211   8.712 -0.3995 -0.0153  0.7670
  499MOL0     O65771  14.231   9.224   8.692 -0.0545 -0.2266  0.4839
  499MOL0     C65772  14.276   9.247   8.560 -0.3553  0.8660  0.7785
  499MOL0     C65773  14.432   9.266   8.559  0.6577  0.0699 -0.2883
  499MOL0     C65774  14.503   9.194   8.446 -0.7836 -0.5975 -1.0031
  499MOL0     C65775  14.603   9.097   8.503 -0.5674  0.8317  0.3342
  499MOL0     C65776  14.669   9.028   8.381  0.4736 -0.2805  0.0392
  499MOL0     C65777  14.794   9.098   8.317  0.3455  0.0448 -0.2413
  499MOL0     C65778  14.880   9.000   8.231 -0.8820  0.5830 -0.1590
  499MOL0     C65779  14.978   9.082   8.143 -0.7572  0.2353 -0.5247
  499MOL0    Cl65780  14.897   9.199   8.039  0.2767  0.2235 -0.3692
  499MOL0     C65781  13.995   9.184   8.620  0.1946  0.5310 -0.1355
  499MOL0     C65782  13.865   9.160   8.661  0.0183 -0.0039  0.4671
  499MOL0     O65783  13.680   9.343   8.928 -0.2412 -0.6128  0.1742
  499MOL0     C65784  13.409   9.147   8.817  0.1075 -0.3733 -0.3824
  499MOL0     C65785  13.278   9.115   8.850 -0.5361  0.1052  0.0809
  499MOL0     N65786  12.625   9.423   8.739  0.5283  0.0722  1.1188
  499MOL0     N65787  12.506   9.406   8.781  0.4884  0.2487  0.1276
  499MOL0     C65788  11.462   8.647   9.227  0.3408  0.4461 -0.2834
  499MOL0     C65789  11.401   8.582   9.343  0.8292  0.4711 -0.3118
  499MOL0     C65790  11.199   8.469   9.738  1.3681  0.3372 -0.4197
  499MOL0     C65791  11.070   8.403   9.761  0.0269  0.2960  0.5730
  499MOL0     C65792  11.042   8.339   9.878  0.2352 -0.5812  0.0394
  499MOL0     C65793  11.138   8.334   9.980  0.8889  0.2173 -0.2256
  499MOL0     O65794  11.109   8.268  10.096  0.1928 -0.6098  0.2324
  499MOL0     C65795  11.112   8.120  10.092  0.4176 -0.6597  0.3586
  499MOL0     C65796  10.991   8.055  10.017 -0.0165 -0.0526 -0.0193
  499MOL0     C65797  10.858   8.097  10.088 -0.3657  0.3893 -0.1982
  499MOL0     C65798  10.734   8.022  10.052 -0.7426  0.5361 -0.2737
  499MOL0     C65799  10.612   8.078  10.102  1.3057 -0.0855  0.2484
  499MOL0     C65800  10.504   8.134  10.117  0.6152 -0.3150 -0.5730
  499MOL0     C65801  11.260   8.391   9.957  0.4762 -0.8308  0.4660
  499MOL0     C65802  11.298   8.452   9.835 -0.2579  0.3090 -0.2651
  499MOL0     H65803  11.487   8.796   9.582 -0.4228 -0.7972  0.3527
  499MOL0     H65804  11.581   8.916   9.385  0.9817  0.1774 -1.7737
  499MOL0     H65805  11.790   8.766   9.150  0.2990 -0.1677  0.6674
  499MOL0     H65806  11.743   8.937   9.219  1.7395  1.0138 -0.9960
  499MOL0     H65807  11.694   8.991   8.976 -0.5292 -1.3755  0.0986
  499MOL0     H65808  11.753   8.834   8.925 -1.5577  1.2859 -0.2511
  499MOL0     H65809  11.977   8.881   8.987  0.7444  0.3963 -0.1083
  499MOL0     H65810  11.925   9.017   9.087 -3.6891  0.7948  0.6012
  499MOL0     H65811  11.910   9.001   8.786 -0.1876  0.3016 -0.1185
  499MOL0     H65812  11.858   9.142   8.881  0.4221  0.7411 -0.3798
  499MOL0     H65813  12.096   9.183   8.949 -2.0645  1.2887  0.3310
  499MOL0     H65814  12.067   9.200   8.788 -0.2851  0.3498  0.4027
  499MOL0     H65815  12.152   8.948   8.760 -0.7440 -3.9083  3.2523
  499MOL0     H65816  12.197   8.968   8.933 -0.9886  0.7860  1.1146
  499MOL0     H65817  12.380   9.009   8.779  2.4882  2.4100 -0.6322
  499MOL0     H65818  12.291   9.131   8.686 -0.2564 -0.1833  0.3893
  499MOL0     H65819  12.400   9.170   8.963 -0.3788  0.3485 -0.3387
  499MOL0     H65820  12.282   9.278   8.872 -0.0777 -0.5401 -1.1831
  499MOL0     H65821  12.610   9.093   8.753 -2.9567 -0.1466 -2.6595
  499MOL0     H65822  12.882   9.343   8.635  0.1619  0.9712  2.1207
  499MOL0     H65823  12.811   9.182   8.595  2.9904  0.5086 -1.8928
  499MOL0     H65824  13.002   9.164   8.739 -0.7397 -1.3806 -1.5316
  499MOL0     H65825  12.847   9.124   8.828  0.8631  1.0796 -0.2041
  499MOL0     H65826  13.039   9.364   8.861 -1.0232  1.1190  0.2856
  499MOL0     H65827  12.872   9.383   8.911  2.6007  1.8898 -3.5099
  499MOL0     H65828  12.893   9.180   9.058 -0.2873  0.0381 -1.0390
  499MOL0     H65829  13.022   9.296   9.093  0.9796 -0.2293 -1.1194
  499MOL0     H65830  13.240   9.339   9.107 -0.3164  0.0597 -0.8499
  499MOL0     H65831  13.479   9.379   9.051  2.7738 -2.5252  0.7116
  499MOL0     H65832  13.891   9.210   8.995 -2.6089  1.4408 -1.1238
  499MOL0     H65833  14.122   9.223   8.936  3.9412  0.1571 -1.6412
  499MOL0     H65834  14.217   9.322   8.506 -1.5562  1.4759  2.8154
  499MOL0     H65835  14.255   9.158   8.501 -0.9987  1.4641  0.0811
  499MOL0     H65836  14.478   9.235   8.653 -0.7019  0.4709  0.5306
  499MOL0     H65837  14.454   9.373   8.552  0.4848  0.4729  3.3406
  499MOL0     H65838  14.564   9.261   8.385 -0.9231  2.1228  1.5985
  499MOL0     H65839  14.438   9.151   8.370 -4.2393  3.0936 -0.4860
  499MOL0     H65840  14.673   9.137   8.577 -0.9955 -1.4071  2.0932
  499MOL0     H65841  14.548   9.013   8.547  2.3428 -0.6494  1.4123
  499MOL0     H65842  14.595   9.007   8.303 -0.8579 -3.4720  1.9708
  499MOL0     H65843  14.703   8.931   8.419  2.0295 -0.4779 -1.6966
  499MOL0     H65844  14.857   9.149   8.390  0.2678 -0.6743  0.3418
  499MOL0     H65845  14.758   9.178   8.251  3.0727 -0.0162 -1.9699
  499MOL0     H65846  14.925   8.921   8.292 -2.6560  0.6008  1.2429
  499MOL0     H65847  14.807   8.948   8.169  0.4161 -2.9286  1.0112
  499MOL0     H65848  15.047   9.016   8.089 -2.8572 -1.8430 -0.7922
  499MOL0     H65849  15.037   9.141   8.214  1.1994 -1.1773 -0.8969
  499MOL0     H65850  14.016   9.178   8.513 -4.0876 -0.0285 -1.1033
  499MOL0     H65851  13.784   9.132   8.594  1.9345 -2.0560 -1.1624
  499MOL0     H65852  13.456   9.093   8.735 -2.5798 -0.7966 -1.7453
  499MOL0     H65853  13.225   9.035   8.799 -3.0640  0.4749  1.9542
  499MOL0     H65854  11.468   8.600   9.130  3.1511 -0.9972  0.4783
  499MOL0     H65855  11.349   8.487   9.335 -1.8638  1.5831  2.0917
  499MOL0     H65856  10.985   8.414   9.694 -1.3685 -1.6677  1.9110
  499MOL0     H65857  10.939   8.307   9.890 -0.5043  1.8030  0.6755
  499MOL0     H65858  11.120   8.081  10.194  1.7849 -1.6892 -0.1171
  499MOL0     H65859  11.201   8.094  10.035 -0.0671 -0.1440 -0.6651
  499MOL0     H65860  10.979   8.082   9.912  0.6590  0.4559  0.0295
  499MOL0     H65861  10.999   7.946  10.024  0.8054  0.0456  0.9148
  499MOL0     H65862  10.853   8.206  10.076  2.8887  1.1575  3.3345
  499MOL0     H65863  10.870   8.060  10.191  0.5246 -3.2412 -1.4483
  499MOL0     H65864  10.721   7.999   9.946 -0.7455 -1.1094  0.0530
  499MOL0     H65865  10.740   7.926  10.105 -1.6174  0.6372  0.0302
  499MOL0     H65866  10.404   8.171  10.125  0.4781 -0.1774 -2.4507
  499MOL0     H65867  11.336   8.378  10.034  1.1725 -2.7262 -0.4585
  499MOL0     H65868  11.398   8.490   9.819 -0.2980 -0.5508 -3.0489
  500MOL0     O65869   6.310   7.643   8.696  0.1354  0.3776  0.1805
  500MOL0     C65870   6.321   7.708   8.803 -0.4039  0.2323  0.2997
  500MOL0     O65871   6.221   7.759   8.877 -0.3943 -0.4406 -0.5116
  500MOL0     C65872   6.096   7.797   8.837  0.0671  0.2678  0.1821
  500MOL0     C65873   6.075   7.861   8.714  0.4050  0.7915  0.2345
  500MOL0     C65874   5.946   7.891   8.670  1.0264  0.2114  0.2724
  500MOL0     C65875   5.836   7.871   8.758  0.7280 -0.8044  0.2233
  500MOL0     O65876   5.714   7.900   8.708 -0.3871 -0.1680 -0.2675
  500MOL0     C65877   5.594   7.843   8.757 -0.0591  0.0106  0.8665
  500MOL0     C65878   5.474   7.889   8.675  0.0142 -0.6138  0.5084
  500MOL0     C65879   5.334   7.860   8.736  0.5744 -0.0288  0.2953
  500MOL0     C65880   5.231   7.939   8.648  0.7675 -0.1086  0.4345
  500MOL0     C65881   5.089   7.917   8.701 -0.2059 -0.5335  0.1567
  500MOL0     C65882   4.972   7.978   8.622 -0.5507 -0.2695 -0.6181
  500MOL0     C65883   4.838   7.917   8.690 -0.1062  1.0492  0.1738
  500MOL0     C65884   4.716   7.986   8.644 -0.5366  0.3505  0.2399
  500MOL0     N65885   4.592   7.906   8.629  0.1480  0.4209  0.2613
  500MOL0     C65886   4.520   7.842   8.722 -0.0968 -0.6016 -0.1324
  500MOL0     C65887   4.399   7.812   8.666 -0.0185 -0.1382  0.2633
  500MOL0     C65888   4.287   7.728   8.733 -0.5744 -0.8078 -0.0100
  500MOL0     C65889   4.146   7.783   8.708  0.5909  0.1218 -0.0975
  500MOL0     C65890   4.066   7.738   8.833 -0.2714 -0.5753  0.8626
  500MOL0     C65891   3.918   7.783   8.838 -0.2488 -0.5302  1.5890
  500MOL0     O65892   3.870   7.768   8.968 -0.0232 -0.0342  0.1242
  500MOL0     C65893   3.735   7.752   8.960 -0.6312  1.0431 -0.6032
  500MOL0     C65894   3.664   7.870   8.927 -0.7423  0.5079  0.6851
  500MOL0     C65895   3.528   7.867   8.910 -1.2740 -0.2766  0.3298
  500MOL0     C65896   3.468   7.741   8.922  0.2429 -0.0279  0.2078
  500MOL0     C65897   3.321   7.742   8.905  0.1386 -0.3455  0.5040
  500MOL0     O65898   3.258   7.627   8.932 -0.0976  1.2003  0.0582
  500MOL0     C65899   3.115   7.624   8.939  0.1485 -0.2300  0.1950
  500MOL0     C65900   3.024   7.663   8.843  0.0189 -0.4012  0.1125
  500MOL0     C65901   2.884   7.649   8.866 -0.3493 -0.4349  0.6372
  500MOL0     C65902   2.829   7.584   8.985  0.0883  0.3450 -1.0523
  500MOL0     O65903   2.694   7.570   9.025 -0.2157 -0.2813  0.0671
  500MOL0     C65904   2.585   7.612   8.939  0.2355  0.4035  0.6982
  500MOL0     C65905   2.453   7.598   9.011 -1.4972 -0.0408 -0.0160
  500MOL0     C65906   2.343   7.674   8.937  0.3401  0.0008  0.5449
  500MOL0     C65907   2.209   7.674   9.012 -0.5699  0.3271 -0.6943
  500MOL0     C65908   2.116   7.771   8.941  0.6383  0.4742 -0.3841
  500MOL0     C65909   1.965   7.753   8.984 -0.5674 -0.3917  0.7885
  500MOL0     C65910   1.871   7.824   8.892  0.3106 -0.2118 -1.0435
  500MOL0     C65911   1.743   7.872   8.960  0.0998 -0.5512 -0.6296
  500MOL0    Cl65912   1.645   7.725   8.998 -0.2061 -0.4534  0.4464
  500MOL0     C65913   2.926   7.528   9.070  0.1587 -0.6809 -0.5323
  500MOL0     C65914   3.065   7.555   9.052  0.5057 -0.4466  0.2248
  500MOL0     O65915   3.268   7.844   8.862  0.2039 -0.5418 -0.4440
  500MOL0     C65916   3.543   7.625   8.966 -0.4808  0.1130  0.0089
  500MOL0     C65917   3.680   7.628   8.982  0.4418  0.0142 -0.5974
  500MOL0     N65918   4.410   7.851   8.533 -0.6372  0.0770 -0.8163
  500MOL0     N65919   4.528   7.904   8.513 -0.4762  0.2599 -0.9463
  500MOL0     C65920   5.857   7.823   8.884 -0.1950 -0.3860 -0.1627
  500MOL0     C65921   5.985   7.780   8.918 -0.1865 -0.7148  0.8852
  500MOL0     C65922   6.461   7.714   8.852  0.1478 -0.2287  0.1554
  500MOL0     C65923   6.502   7.814   8.942 -0.2924 -0.7294  0.4948
  500MOL0     C65924   6.636   7.827   8.984 -0.1434 -0.1744 -0.1052
  500MOL0     C65925   6.740   7.751   8.927  0.7279 -0.3538  0.4407
  500MOL0     O65926   6.867   7.772   8.968  0.7732 -0.5891 -0.2560
  500MOL0     C65927   6.979   7.756   8.883 -0.4821 -0.7416 -0.6119
  500MOL0     C65928   7.102   7.805   8.968  0.3737 -0.6642  0.1045
  500MOL0     C65929   7.135   7.716   9.084 -0.0091  0.4548  0.1724
  500MOL0     C65930   7.258   7.763   9.155 -0.4501 -0.6645  0.4368
  500MOL0     C65931   7.376   7.756   9.076 -1.3647  0.3432  0.3942
  500MOL0     C65932   7.479   7.724   9.018  0.0519 -0.0860  0.4479
  500MOL0     C65933   6.708   7.663   8.824  1.0039  0.5969 -0.4103
  500MOL0     C65934   6.568   7.640   8.790  0.0017  0.7700  0.7853
  500MOL0     H65935   6.164   7.873   8.653 -0.9629  1.9429 -1.6545
  500MOL0     H65936   5.924   7.943   8.577  2.1124  0.1401 -0.0343
  500MOL0     H65937   5.575   7.860   8.863 -1.0805 -1.3307  0.9373
  500MOL0     H65938   5.603   7.734   8.753 -0.8499 -0.0654  0.9180
  500MOL0     H65939   5.486   7.833   8.582 -0.4208  0.0004  0.0783
  500MOL0     H65940   5.488   7.995   8.657  0.5023 -0.7542  0.0345
  500MOL0     H65941   5.332   7.903   8.836  2.0106 -1.3332  0.9272
  500MOL0     H65942   5.320   7.753   8.754  0.2837 -0.5000 -2.2838
  500MOL0     H65943   5.259   8.044   8.664  3.2973 -0.7487  0.5205
  500MOL0     H65944   5.233   7.922   8.540 -0.2289  2.7587 -0.1456
  500MOL0     H65945   5.083   7.944   8.807 -3.4588  1.8979 -0.5057
  500MOL0     H65946   5.072   7.810   8.685  0.8098 -0.5384 -1.0669
  500MOL0     H65947   4.978   7.960   8.514 -0.5597  1.0484 -0.8553
  500MOL0     H65948   4.969   8.087   8.636  1.7773 -0.5829  3.7783
  500MOL0     H65949   4.831   7.817   8.648  3.1527  1.5069 -1.7473
  500MOL0     H65950   4.850   7.906   8.798  0.0800 -0.2187  0.0325
  500MOL0     H65951   4.728   8.041   8.550  0.6399  0.5043  0.4580
  500MOL0     H65952   4.701   8.062   8.721  1.2153  0.2604  0.7227
  500MOL0     H65953   4.558   7.820   8.822 -0.6005  0.5835  0.3454
  500MOL0     H65954   4.304   7.710   8.840  0.6150  1.9012  0.3565
  500MOL0     H65955   4.307   7.630   8.690  4.9706  0.5227 -1.1360
  500MOL0     H65956   4.102   7.728   8.625  3.1267 -1.3346 -0.6136
  500MOL0     H65957   4.142   7.890   8.687  0.6776 -0.0966 -1.2737
  500MOL0     H65958   4.068   7.631   8.857 -3.1027 -1.1300 -0.9315
  500MOL0     H65959   4.110   7.790   8.919 -3.0916  3.0516  0.3745
  500MOL0     H65960   3.864   7.721   8.766  0.6450  1.5722 -1.0368
  500MOL0     H65961   3.921   7.889   8.811  3.4540 -0.4596  1.8140
  500MOL0     H65962   3.722   7.960   8.913 -1.6650  1.1364  0.8537
  500MOL0     H65963   3.476   7.959   8.887 -0.2540  0.2755  0.1581
  500MOL0     H65964   3.059   7.716   8.755 -1.2133 -1.4858 -1.0644
  500MOL0     H65965   2.826   7.700   8.789  1.7072  3.0417  1.1803
  500MOL0     H65966   2.569   7.545   8.854 -0.3184  0.1456  1.0072
  500MOL0     H65967   2.603   7.713   8.901  0.6530 -0.0323 -0.2951
  500MOL0     H65968   2.480   7.645   9.106  0.1204  0.1827 -0.5463
  500MOL0     H65969   2.423   7.494   9.027 -2.2215  0.4606  2.1636
  500MOL0     H65970   2.331   7.630   8.837  0.0295  1.0715  0.1005
  500MOL0     H65971   2.382   7.775   8.924 -0.5076  0.3314  0.5075
  500MOL0     H65972   2.169   7.572   9.007  1.0426 -0.2609 -2.9533
  500MOL0     H65973   2.226   7.706   9.115  0.0612  0.5708 -0.8733
  500MOL0     H65974   2.126   7.750   8.834 -0.7650 -0.9130 -0.2942
  500MOL0     H65975   2.138   7.876   8.959 -1.9282  0.9867  0.1960
  500MOL0     H65976   1.958   7.787   9.087 -1.9051  0.7899  0.3253
  500MOL0     H65977   1.928   7.650   8.980  1.1750 -1.0935  1.3928
  500MOL0     H65978   1.929   7.912   8.863 -0.6550  0.5159 -0.8363
  500MOL0     H65979   1.844   7.761   8.806 -0.1609 -0.3001 -0.8364
  500MOL0     H65980   1.678   7.929   8.894 -0.6449 -2.4982 -1.6643
  500MOL0     H65981   1.755   7.932   9.051 -1.3119  1.5907 -1.7778
  500MOL0     H65982   2.902   7.465   9.156 -1.6982  1.3097  0.5021
  500MOL0     H65983   3.140   7.529   9.126  1.1193  3.3776  1.1313
  500MOL0     H65984   3.491   7.531   8.984  2.7150 -1.2374  3.3814
  500MOL0     H65985   3.721   7.532   9.012 -3.5638 -1.1183  2.0197
  500MOL0     H65986   5.778   7.822   8.958  0.4870 -1.2895  0.5828
  500MOL0     H65987   6.003   7.737   9.016  1.1452 -0.8155  0.6229
  500MOL0     H65988   6.421   7.876   8.981 -2.3574  0.1920 -4.4888
  500MOL0     H65989   6.655   7.893   9.068  0.4837 -1.5400  0.8665
  500MOL0     H65990   6.967   7.820   8.795 -1.1042  0.6173  0.4197
  500MOL0     H65991   6.989   7.652   8.851  3.1219 -0.8776  0.4856
  500MOL0     H65992   7.194   7.809   8.909 -0.4791 -4.6390 -1.8506
  500MOL0     H65993   7.077   7.901   9.014 -1.6470 -2.4374  3.0362
  500MOL0     H65994   7.146   7.613   9.048  0.9875  1.1596 -1.6227
  500MOL0     H65995   7.052   7.726   9.155  0.0551 -1.6050  0.6039
  500MOL0     H65996   7.245   7.864   9.195  2.3407  0.7935 -1.8742
  500MOL0     H65997   7.284   7.704   9.244 -0.6879  0.3120  1.1685
  500MOL0     H65998   7.561   7.704   8.953 -0.9377 -1.9451 -0.3023
  500MOL0     H65999   6.784   7.612   8.766  2.0764  0.0701  1.3951
  500MOL0     H66000   6.542   7.566   8.714  1.5961 -1.6221  2.4159
  501MOL0     O66001   8.248   0.093   4.370  0.3172  0.1731  0.5631
  501MOL0     C66002   8.325   0.052   4.287 -0.6001 -0.5028  0.4137
  501MOL0     O66003   8.291  -0.031   4.180 -0.1501  0.2414  0.0096
  501MOL0     C66004   8.158  -0.086   4.163 -0.1694  0.2849 -0.2988
  501MOL0     C66005   8.139  -0.220   4.120 -0.3087 -0.2525 -0.2184
  501MOL0     C66006   8.013  -0.268   4.101 -0.5838 -0.2850  0.0056
  501MOL0     C66007   7.898  -0.192   4.136 -0.3019  0.3866  0.5321
  501MOL0     O66008   7.776  -0.251   4.110  0.6908  0.1208 -0.4523
  501MOL0     C66009   7.656  -0.171   4.134 -0.4562  0.2935 -0.2285
  501MOL0     C66010   7.540  -0.248   4.094  0.4739 -0.1289 -0.0609
  501MOL0     C66011   7.401  -0.204   4.166  0.3438 -0.4625 -0.4623
  501MOL0     C66012   7.280  -0.272   4.105 -0.5358 -0.2929 -0.4754
  501MOL0     C66013   7.160  -0.190   4.156  0.4022  0.1967  0.6965
  501MOL0     C66014   7.031  -0.230   4.088  0.4916  0.0135  0.0801
  501MOL0     C66015   6.909  -0.149   4.118  0.3130 -0.4865  0.5514
  501MOL0     C66016   6.820  -0.216   4.233  0.5448 -0.7714  0.3218
  501MOL0     N66017   6.691  -0.152   4.234 -1.0161 -0.2354  0.3887
  501MOL0     C66018   6.594  -0.170   4.136  0.9427  0.1840  0.2310
  501MOL0     C66019   6.498  -0.082   4.166  1.3080 -0.1545  0.0992
  501MOL0     C66020   6.380  -0.067   4.070  0.3520 -0.5164 -0.3837
  501MOL0     C66021   6.269   0.001   4.149  0.0154 -1.1486  0.8391
  501MOL0     C66022   6.139   0.032   4.069 -1.0691  0.9314  0.1673
  501MOL0     C66023   6.025  -0.056   4.114 -0.9125  0.1226  0.1348
  501MOL0     O66024   5.974   0.007   4.231 -0.5406 -0.5429  0.3835
  501MOL0     C66025   5.855  -0.044   4.284 -0.4106  0.2783  0.7421
  501MOL0     C66026   5.767  -0.135   4.219 -0.9270  0.0271 -0.3916
  501MOL0     C66027   5.651  -0.175   4.282  0.2254  0.1309 -0.0187
  501MOL0     C66028   5.605  -0.124   4.404  0.2231 -0.2726  0.4938
  501MOL0     C66029   5.481  -0.171   4.475 -0.5868  0.2870 -0.4442
  501MOL0     O66030   5.390  -0.237   4.397 -0.1388  0.0070  0.6808
  501MOL0     C66031   5.276  -0.279   4.456  0.0707  0.4011  0.2856
  501MOL0     C66032   5.160  -0.202   4.434  0.6897 -0.3279  0.3376
  501MOL0     C66033   5.035  -0.242   4.496  0.4658 -0.0030  0.2952
  501MOL0     C66034   5.035  -0.364   4.579 -0.6504 -0.6671  1.3970
  501MOL0     O66035   4.934  -0.434   4.636  0.4176  0.7707  0.2446
  501MOL0     C66036   4.802  -0.387   4.591 -0.1203 -0.0477 -0.1073
  501MOL0     C66037   4.767  -0.455   4.462  0.2837  0.2687  0.0820
  501MOL0     C66038   4.621  -0.421   4.410  0.2211  0.5163 -0.0337
  501MOL0     C66039   4.509  -0.496   4.485 -0.0713 -0.0886  0.3828
  501MOL0     C66040   4.375  -0.492   4.418  0.5691 -0.6100  0.5977
  501MOL0     C66041   4.265  -0.558   4.507 -0.5515 -0.1268 -0.3103
  501MOL0     C66042   4.118  -0.563   4.441 -0.1872 -0.5868 -0.0695
  501MOL0     C66043   4.054  -0.680   4.506  0.8268  0.5357 -0.0815
  501MOL0    Cl66044   4.109  -0.830   4.438  0.0490  0.1662  0.4003
  501MOL0     C66045   5.158  -0.430   4.599  0.0640  0.2400 -0.7788
  501MOL0     C66046   5.276  -0.394   4.542 -0.8663 -0.4457 -0.3731
  501MOL0     O66047   5.458  -0.139   4.594  0.3739  1.2424 -0.3881
  501MOL0     C66048   5.691  -0.031   4.469 -0.3897 -0.5997  0.5507
  501MOL0     C66049   5.811   0.010   4.407 -0.0206  0.8846 -0.0036
  501MOL0     N66050   6.537  -0.016   4.280  0.2949  0.0343  0.1570
  501MOL0     N66051   6.646  -0.061   4.322  0.0306  0.3687  0.5092
  501MOL0     C66052   7.916  -0.055   4.166  0.2021 -0.4845 -0.2328
  501MOL0     C66053   8.046  -0.005   4.179 -0.7591 -0.4114  0.5186
  501MOL0     C66054   8.470   0.098   4.308 -0.1693  0.0604 -0.0415
  501MOL0     C66055   8.570   0.032   4.222  0.6233 -0.2127 -0.0227
  501MOL0     C66056   8.705   0.061   4.247 -0.3287 -0.2656 -0.0194
  501MOL0     C66057   8.741   0.159   4.350  0.6511 -0.1620 -0.3880
  501MOL0     O66058   8.877   0.166   4.363 -0.4995  0.2897  0.3808
  501MOL0     C66059   8.923   0.217   4.487  0.1182  0.2171 -0.5567
  501MOL0     C66060   9.064   0.169   4.521 -0.2810 -0.4298  0.6194
  501MOL0     C66061   9.165   0.243   4.435 -0.2055 -0.7352 -0.4250
  501MOL0     C66062   9.307   0.223   4.487  0.2849 -0.3610 -0.5652
  501MOL0     C66063   9.357   0.091   4.452  0.4011  0.1739  0.5506
  501MOL0     C66064   9.403  -0.016   4.414 -0.6003  0.1338  0.0294
  501MOL0     C66065   8.643   0.230   4.418  0.3489  0.0461  0.0267
  501MOL0     C66066   8.505   0.196   4.397  0.2702  0.0735  0.3719
  501MOL0     H66067   8.223  -0.288   4.109 -0.4358 -0.5801  0.7559
  501MOL0     H66068   7.998  -0.366   4.057 -0.9809 -0.4784  0.5580
  501MOL0     H66069   7.653  -0.090   4.061 -2.3421  0.2900 -0.2077
  501MOL0     H66070   7.641  -0.126   4.233 -0.1938  2.4608 -1.1171
  501MOL0     H66071   7.552  -0.352   4.126  2.8601  0.2837  0.5417
  501MOL0     H66072   7.523  -0.247   3.986 -0.2936 -2.2325 -0.0149
  501MOL0     H66073   7.405  -0.097   4.147  3.8174 -0.6308 -1.3704
  501MOL0     H66074   7.414  -0.221   4.273  2.0085  1.1479 -0.3702
  501MOL0     H66075   7.280  -0.270   3.996  1.3071  4.4205 -0.6266
  501MOL0     H66076   7.276  -0.376   4.138  2.4995 -0.1578  0.6388
  501MOL0     H66077   7.170  -0.083   4.137 -1.5462  0.8237  2.7908
  501MOL0     H66078   7.155  -0.205   4.264  0.3192 -0.4043  0.6115
  501MOL0     H66079   7.013  -0.333   4.121  0.5891 -0.5786 -1.6086
  501MOL0     H66080   7.045  -0.226   3.979 -1.9594 -2.9305 -0.4875
  501MOL0     H66081   6.934  -0.046   4.144  2.9023 -0.7878 -0.4699
  501MOL0     H66082   6.851  -0.142   4.026 -1.6432 -1.4243  1.6565
  501MOL0     H66083   6.877  -0.202   4.325 -2.4792  1.1078  2.0947
  501MOL0     H66084   6.807  -0.319   4.199  1.2384 -1.2149  1.3489
  501MOL0     H66085   6.578  -0.241   4.056 -1.1318  0.2928  0.4958
  501MOL0     H66086   6.344  -0.159   4.023  0.8480 -1.8658  1.7220
  501MOL0     H66087   6.420  -0.003   3.991  0.8401  2.4760  2.0797
  501MOL0     H66088   6.300   0.098   4.187  0.8406 -0.0350 -2.3230
  501MOL0     H66089   6.241  -0.066   4.230 -0.2642  1.5892  3.1392
  501MOL0     H66090   6.114   0.134   4.102  0.1876  0.9497  1.1342
  501MOL0     H66091   6.155   0.028   3.961 -0.2858 -0.0472  0.3042
  501MOL0     H66092   6.053  -0.160   4.130  0.0453 -0.0044 -1.9402
  501MOL0     H66093   5.952  -0.066   4.033  0.2280 -1.5992 -0.7326
  501MOL0     H66094   5.785  -0.180   4.122 -2.2896 -1.5839  0.0423
  501MOL0     H66095   5.580  -0.250   4.245 -0.8449 -0.6482  3.2752
  501MOL0     H66096   5.163  -0.111   4.374 -2.5297 -0.3361 -0.0066
  501MOL0     H66097   4.950  -0.180   4.471  0.5252  0.7631  1.8486
  501MOL0     H66098   4.807  -0.278   4.587 -1.3273 -0.0103 -3.2136
  501MOL0     H66099   4.727  -0.410   4.668  1.5141  0.3828  1.6726
  501MOL0     H66100   4.774  -0.560   4.494  1.1768  1.1094  2.9255
  501MOL0     H66101   4.840  -0.446   4.382  0.8900 -1.1411  0.4440
  501MOL0     H66102   4.620  -0.442   4.302 -2.5052  1.5863 -0.2843
  501MOL0     H66103   4.598  -0.316   4.425  2.8731  1.2384 -0.5170
  501MOL0     H66104   4.543  -0.600   4.490 -1.7921 -0.8110 -1.4467
  501MOL0     H66105   4.501  -0.463   4.589 -0.9078 -3.5497  1.5525
  501MOL0     H66106   4.375  -0.543   4.322 -1.6104 -1.7868  1.1602
  501MOL0     H66107   4.348  -0.387   4.403  0.5846 -0.8138 -0.9681
  501MOL0     H66108   4.258  -0.500   4.600  0.3209  0.3873 -0.5431
  501MOL0     H66109   4.295  -0.657   4.542  0.6747  0.9295  1.8821
  501MOL0     H66110   4.061  -0.473   4.467 -1.4497 -0.6129 -2.4217
  501MOL0     H66111   4.114  -0.574   4.332 -1.6676 -1.9430  0.0939
  501MOL0     H66112   3.946  -0.668   4.495  0.6869  2.1010  2.1565
  501MOL0     H66113   4.071  -0.675   4.614 -0.3646 -2.3676  0.3356
  501MOL0     H66114   5.155  -0.519   4.661  1.4471  0.1160 -0.8449
  501MOL0     H66115   5.366  -0.455   4.550 -0.3599  0.3115 -0.2507
  501MOL0     H66116   5.664   0.021   4.561 -0.6424 -0.8322  0.6076
  501MOL0     H66117   5.878   0.087   4.444  4.3107 -1.5761 -2.0575
  501MOL0     H66118   7.828   0.008   4.172 -1.6823 -3.1085  2.9494
  501MOL0     H66119   8.048   0.102   4.196  0.3290 -0.2684 -0.4253
  501MOL0     H66120   8.554  -0.042   4.144  0.6073 -2.2031  1.7690
  501MOL0     H66121   8.786   0.011   4.194 -0.8145 -0.1024 -0.9361
  501MOL0     H66122   8.855   0.177   4.562 -1.4920 -0.0828 -2.1158
  501MOL0     H66123   8.907   0.326   4.484 -4.9300 -0.2949 -2.9761
  501MOL0     H66124   9.084   0.196   4.625  1.8933  2.4975 -0.4059
  501MOL0     H66125   9.073   0.061   4.510 -1.5538 -0.4918 -0.0745
  501MOL0     H66126   9.156   0.352   4.441  0.3288 -0.6152 -1.5136
  501MOL0     H66127   9.151   0.209   4.332 -1.9751 -1.1448 -0.0829
  501MOL0     H66128   9.377   0.300   4.454  0.9874 -0.8595 -0.2604
  501MOL0     H66129   9.311   0.231   4.596 -0.3898  1.3444 -0.6432
  501MOL0     H66130   9.444  -0.100   4.361  2.7237  1.4929  0.1710
  501MOL0     H66131   8.678   0.308   4.484  2.2228  0.1447 -0.9995
  501MOL0     H66132   8.428   0.248   4.452 -0.2952  2.7212 -2.6059
  502MOL0     O66133   3.958   6.177   1.929  0.2861  0.4322 -0.0295
  502MOL0     C66134   4.019   6.074   1.884 -1.0841 -0.2718 -0.4845
  502MOL0     O66135   3.967   5.954   1.881  0.7464  1.3838  0.7751
  502MOL0     C66136   3.840   5.929   1.916 -0.4097  0.3950 -0.1151
  502MOL0     C66137   3.789   5.946   2.046 -0.3454  0.1182 -0.0147
  502MOL0     C66138   3.653   5.934   2.077 -0.9871  0.5429  0.0138
  502MOL0     C66139   3.565   5.899   1.978  0.0974  0.9470 -0.3835
  502MOL0     O66140   3.434   5.886   2.001  0.8153  0.0537  0.1061
  502MOL0     C66141   3.376   5.893   2.137 -0.2089  0.5355 -0.1239
  502MOL0     C66142   3.227   5.849   2.135 -0.9234 -0.4010 -0.8683
  502MOL0     C66143   3.179   5.824   2.274  0.1092 -0.5869  0.0101
  502MOL0     C66144   3.053   5.740   2.266 -0.6793 -0.1535 -0.9556
  502MOL0     C66145   2.937   5.787   2.181  0.1132 -0.4476 -0.6370
  502MOL0     C66146   2.861   5.922   2.209  0.2441  0.4023 -0.5799
  502MOL0     C66147   2.782   5.909   2.347 -1.1397  0.4601 -1.2602
  502MOL0     C66148   2.686   6.019   2.374 -0.1677  0.3344  0.7674
  502MOL0     N66149   2.548   5.993   2.320 -0.1458 -0.0685  0.0113
  502MOL0     C66150   2.455   5.932   2.404 -0.3131 -0.2000  0.6098
  502MOL0     C66151   2.336   5.939   2.333 -0.5627  0.1423 -0.4092
  502MOL0     C66152   2.204   5.898   2.379 -0.1485 -0.2520  0.0138
  502MOL0     C66153   2.115   5.833   2.266 -0.0296  0.4469  0.3964
  502MOL0     C66154   1.973   5.805   2.321 -1.1447  0.6256  0.1187
  502MOL0     C66155   1.871   5.763   2.216 -0.4445 -0.6993  0.1680
  502MOL0     O66156   1.737   5.724   2.275 -0.4780 -0.7748  0.0676
  502MOL0     C66157   1.720   5.594   2.336 -0.2692 -0.1281  0.6687
  502MOL0     C66158   1.591   5.576   2.388 -0.8235 -0.1285  0.7785
  502MOL0     C66159   1.556   5.441   2.436 -0.5703 -0.6337  1.1540
  502MOL0     C66160   1.648   5.334   2.434 -0.3835  0.1532  0.3178
  502MOL0     C66161   1.601   5.194   2.449 -0.4169  0.4767 -0.0436
  502MOL0     O66162   1.470   5.178   2.456 -0.5967 -0.2726  0.5036
  502MOL0     C66163   1.407   5.057   2.466  0.2559  1.0775 -0.2775
  502MOL0     C66164   1.457   4.932   2.422 -0.0586  0.3970 -0.3306
  502MOL0     C66165   1.381   4.808   2.441 -0.3151 -0.9023 -0.2433
  502MOL0     C66166   1.259   4.804   2.501  0.5897 -0.3038  0.2847
  502MOL0     O66167   1.190   4.687   2.500 -0.0867  0.3432  0.2402
  502MOL0     C66168   1.083   4.675   2.603  0.6451 -0.0303 -0.5478
  502MOL0     C66169   0.956   4.716   2.524  0.2046  0.1490 -0.0708
  502MOL0     C66170   0.895   4.604   2.447  1.2717  0.3000  0.1695
  502MOL0     C66171   0.767   4.629   2.374  0.0047  0.2077  0.5944
  502MOL0     C66172   0.722   4.503   2.299  0.5568  0.2342 -0.1590
  502MOL0     C66173   0.661   4.386   2.379  0.5603 -0.8183  0.1310
  502MOL0     C66174   0.518   4.417   2.437  0.3233 -0.2055  0.1005
  502MOL0     C66175   0.468   4.293   2.519 -0.3720  0.0203  0.5627
  502MOL0    Cl66176   0.325   4.348   2.616 -0.5658  0.3171  0.5188
  502MOL0     C66177   1.208   4.926   2.538  0.2266 -0.4861  0.1140
  502MOL0     C66178   1.281   5.048   2.529 -0.5828  0.7938  0.7649
  502MOL0     O66179   1.688   5.104   2.448  0.1963  0.4067 -0.0946
  502MOL0     C66180   1.780   5.365   2.390 -0.4408  0.1369 -0.0695
  502MOL0     C66181   1.809   5.495   2.346 -0.2452  0.0911  0.2020
  502MOL0     N66182   2.368   5.996   2.208 -0.0007 -0.4296  0.0341
  502MOL0     N66183   2.491   6.027   2.200 -0.0064  0.0368 -0.0255
  502MOL0     C66184   3.615   5.863   1.849  0.4371  0.6964 -0.4456
  502MOL0     C66185   3.751   5.881   1.817  0.2326  0.4706  0.4394
  502MOL0     C66186   4.166   6.092   1.860 -0.3481  0.2889 -0.0132
  502MOL0     C66187   4.255   5.984   1.855 -0.1070 -0.1588 -0.0009
  502MOL0     C66188   4.390   6.001   1.825  0.5228 -0.4926 -0.9113
  502MOL0     C66189   4.453   6.128   1.819  0.5168 -0.8807  0.2939
  502MOL0     O66190   4.590   6.129   1.798  0.2653  0.0461  0.3140
  502MOL0     C66191   4.668   6.244   1.812 -0.4900  0.5127 -0.3207
  502MOL0     C66192   4.826   6.219   1.821  0.2491 -0.0686  0.1654
  502MOL0     C66193   4.885   6.163   1.945 -0.2989 -0.6577 -0.6763
  502MOL0     C66194   4.837   6.023   1.972  0.0407 -0.0277  0.0502
  502MOL0     C66195   4.887   5.962   2.097 -0.2996  0.1326  0.6507
  502MOL0     C66196   4.935   5.910   2.194  0.6053 -0.2196  0.9322
  502MOL0     C66197   4.369   6.239   1.829  0.5020  0.0612  0.7363
  502MOL0     C66198   4.226   6.221   1.840 -0.3794  0.3354  0.2401
  502MOL0     H66199   3.860   5.978   2.122 -1.8378  1.8602  0.7236
  502MOL0     H66200   3.623   5.978   2.172  0.5033 -0.0502  0.7985
  502MOL0     H66201   3.381   5.993   2.180 -0.3818 -0.0706  1.4002
  502MOL0     H66202   3.425   5.831   2.213  2.8550  0.8877 -1.6623
  502MOL0     H66203   3.214   5.760   2.071  0.2018 -1.1545 -0.0983
  502MOL0     H66204   3.161   5.926   2.095 -1.5761  0.1779  1.2328
  502MOL0     H66205   3.155   5.917   2.327  1.1138  1.1069 -2.3679
  502MOL0     H66206   3.251   5.768   2.334  3.1426  0.7951 -2.1150
  502MOL0     H66207   3.082   5.640   2.232 -0.2416 -1.4962  2.8487
  502MOL0     H66208   3.032   5.732   2.374  4.4806  0.0669  0.3298
  502MOL0     H66209   2.861   5.709   2.175 -3.0275  2.3345  0.2214
  502MOL0     H66210   2.976   5.788   2.079  0.1102 -0.4743 -0.6386
  502MOL0     H66211   2.796   5.938   2.123 -1.1220 -1.0288  0.1394
  502MOL0     H66212   2.927   6.008   2.222  1.2637 -0.6574  2.0406
  502MOL0     H66213   2.722   5.818   2.346 -0.2980 -0.2132  1.6219
  502MOL0     H66214   2.845   5.907   2.436  0.8260 -0.3118 -2.5845
  502MOL0     H66215   2.728   6.106   2.322 -0.8699 -0.2543 -0.8373
  502MOL0     H66216   2.681   6.034   2.482 -2.9050  0.7135  0.6566
  502MOL0     H66217   2.469   5.886   2.501 -3.1338 -0.9864  0.7070
  502MOL0     H66218   2.147   5.975   2.431 -0.3177  0.8352 -1.7065
  502MOL0     H66219   2.222   5.822   2.456  0.8242 -1.1329 -1.0455
  502MOL0     H66220   2.154   5.744   2.217  1.0132  0.1436  1.7057
  502MOL0     H66221   2.100   5.903   2.184  0.0082 -3.5038 -3.3159
  502MOL0     H66222   1.982   5.736   2.405  2.2251 -0.0174 -0.6051
  502MOL0     H66223   1.932   5.901   2.354 -1.7504  0.4018  0.0275
  502MOL0     H66224   1.903   5.684   2.147 -0.4747  0.5352 -1.3053
  502MOL0     H66225   1.851   5.852   2.156  2.1809  0.2302  0.5749
  502MOL0     H66226   1.509   5.645   2.375 -0.4180  0.5394  1.6428
  502MOL0     H66227   1.452   5.415   2.456 -1.5392  0.4701 -1.8397
  502MOL0     H66228   1.549   4.922   2.366 -0.5515  1.4028 -1.3504
  502MOL0     H66229   1.421   4.708   2.424  2.6890  0.1839 -0.2256
  502MOL0     H66230   1.095   4.743   2.688  0.6390 -0.8844  0.1504
  502MOL0     H66231   1.071   4.574   2.644 -4.3471  1.0706  1.4798
  502MOL0     H66232   0.976   4.808   2.468 -0.2488 -0.7888 -1.8487
  502MOL0     H66233   0.877   4.742   2.595  0.2711  0.2592 -0.0380
  502MOL0     H66234   0.866   4.525   2.516 -1.8932 -0.7899 -2.1888
  502MOL0     H66235   0.960   4.565   2.367 -0.1434 -0.4460 -0.6542
  502MOL0     H66236   0.698   4.663   2.452 -1.6933 -0.5668 -0.5048
  502MOL0     H66237   0.778   4.717   2.310  1.9214 -0.2204  0.2965
  502MOL0     H66238   0.805   4.463   2.241  1.8531 -0.7264  2.2028
  502MOL0     H66239   0.634   4.530   2.240  0.1339 -2.4526 -0.8785
  502MOL0     H66240   0.722   4.363   2.467  2.2134 -2.7138 -1.4142
  502MOL0     H66241   0.664   4.300   2.311  0.4085 -0.5193 -0.2594
  502MOL0     H66242   0.517   4.510   2.493  0.3220  0.4838 -1.0059
  502MOL0     H66243   0.450   4.426   2.351  1.1223  0.4352 -0.4759
  502MOL0     H66244   0.549   4.268   2.587  2.0247 -0.0877 -2.1256
  502MOL0     H66245   0.443   4.205   2.459 -0.6750  1.4568 -1.5245
  502MOL0     H66246   1.110   4.923   2.584  0.6818 -1.9009  1.0678
  502MOL0     H66247   1.233   5.136   2.570  2.8711  1.5396  3.6924
  502MOL0     H66248   1.868   5.303   2.403 -0.5198  0.0522  0.0681
  502MOL0     H66249   1.901   5.510   2.291  0.1838 -0.7127  0.6846
  502MOL0     H66250   3.542   5.810   1.788  0.1496  0.4122  0.1380
  502MOL0     H66251   3.786   5.852   1.718 -0.5753 -0.1556  0.3334
  502MOL0     H66252   4.211   5.886   1.866  2.6765 -1.3508  1.4160
  502MOL0     H66253   4.449   5.910   1.827  0.0669 -0.7789 -0.0652
  502MOL0     H66254   4.630   6.297   1.900 -1.4191 -1.4992  0.5574
  502MOL0     H66255   4.660   6.297   1.717 -0.4877  1.6592  0.2989
  502MOL0     H66256   4.857   6.156   1.737  0.1992 -0.2865  0.3083
  502MOL0     H66257   4.881   6.311   1.801 -0.3416 -0.0987 -1.8344
  502MOL0     H66258   4.861   6.232   2.027 -2.7567 -2.7806  0.5466
  502MOL0     H66259   4.993   6.153   1.937 -0.0069  0.4475  1.1536
  502MOL0     H66260   4.727   6.027   1.977 -0.4082 -3.7606 -2.6817
  502MOL0     H66261   4.855   5.962   1.883 -1.0098 -1.0888  0.5343
  502MOL0     H66262   4.972   5.854   2.277  0.6590  0.9322  1.7148
  502MOL0     H66263   4.396   6.343   1.815 -2.4170  1.0708  1.7547
  502MOL0     H66264   4.165   6.310   1.844  0.0883  0.6218  1.8519
  503MOL0     O66265   3.512  10.138   1.139 -0.3293  0.1327  0.2774
  503MOL0     C66266   3.509  10.096   1.023  0.1601  0.3647  0.5162
  503MOL0     O66267   3.407  10.108   0.945  0.4319 -0.2932  0.3602
  503MOL0     C66268   3.283  10.147   0.996 -0.3445  0.7570 -1.0693
  503MOL0     C66269   3.177  10.070   0.962  0.4866 -0.2599  0.2085
  503MOL0     C66270   3.043  10.107   0.995  0.0777 -0.6947  0.0338
  503MOL0     C66271   3.022  10.233   1.056  0.6295  0.1468 -0.3691
  503MOL0     O66272   2.899  10.291   1.057  0.2068 -0.6740 -0.0285
  503MOL0     C66273   2.813  10.226   1.142 -0.6724  0.1194 -0.3616
  503MOL0     C66274   2.698  10.324   1.164  0.0737 -0.0872  0.3430
  503MOL0     C66275   2.598  10.269   1.260  0.0680  0.7624  0.3242
  503MOL0     C66276   2.481  10.363   1.276 -0.5642  0.5236  0.9759
  503MOL0     C66277   2.380  10.321   1.378  0.0502 -0.0175 -0.7058
  503MOL0     C66278   2.429  10.330   1.527 -0.2291  0.8456  0.0873
  503MOL0     C66279   2.388  10.212   1.617 -0.1952 -0.3232 -0.9708
  503MOL0     C66280   2.228  10.216   1.608  0.2166 -0.0603  0.0157
  503MOL0     N66281   2.157  10.116   1.695 -0.5373 -0.4469  0.5355
  503MOL0     C66282   2.064  10.023   1.653 -0.5859  1.3339  0.7151
  503MOL0     C66283   2.007   9.975   1.772  0.1495  0.0554  0.7581
  503MOL0     C66284   1.900   9.874   1.779  0.0183  0.6737  0.0044
  503MOL0     C66285   1.752   9.925   1.744  1.0282 -0.3684 -0.1414
  503MOL0     C66286   1.646   9.826   1.782  0.2424  0.3146 -0.1369
  503MOL0     C66287   1.504   9.876   1.749 -0.1067 -0.1370 -0.7034
  503MOL0     O66288   1.475   9.862   1.607 -0.8198  0.1064 -0.5951
  503MOL0     C66289   1.364   9.920   1.548 -0.3745 -0.7242  0.5253
  503MOL0     C66290   1.254   9.963   1.624 -0.3140  0.3070 -0.1710
  503MOL0     C66291   1.142  10.013   1.570  0.0107 -0.1547  0.7185
  503MOL0     C66292   1.131  10.019   1.428 -0.7436  0.2860 -0.6481
  503MOL0     C66293   1.007  10.062   1.374 -0.0139  0.1442  0.9010
  503MOL0     O66294   0.925  10.136   1.452 -1.1467 -0.0282 -0.7389
  503MOL0     C66295   0.810  10.192   1.410  0.0833  0.3610  0.2423
  503MOL0     C66296   0.708  10.184   1.500 -0.5143  0.4671 -0.2752
  503MOL0     C66297   0.586  10.238   1.468  0.2240  0.0307  0.1688
  503MOL0     C66298   0.570  10.318   1.351 -0.3258 -1.1268 -0.5918
  503MOL0     O66299   0.467  10.389   1.304  0.1022 -0.3128 -0.4139
  503MOL0     C66300   0.363  10.428   1.395 -0.0068 -0.8649 -0.5307
  503MOL0     C66301   0.249  10.326   1.407  0.4810 -0.0901  0.6791
  503MOL0     C66302   0.141  10.370   1.514 -0.1749  0.2973  0.2044
  503MOL0     C66303   0.008  10.292   1.492  0.6567 -0.2718  0.0433
  503MOL0     C66304  -0.089  10.300   1.613  0.8503 -0.3617  1.3307
  503MOL0     C66305  -0.243  10.312   1.565 -0.4581  0.3200 -0.5494
  503MOL0     C66306  -0.332  10.227   1.655 -0.6298 -0.8974 -0.5229
  503MOL0     C66307  -0.473  10.275   1.653 -0.0819 -0.1344  0.7511
  503MOL0    Cl66308  -0.571  10.170   1.762 -0.3794 -0.7097  0.4449
  503MOL0     C66309   0.673  10.312   1.262 -0.6147 -1.0696 -0.1475
  503MOL0     C66310   0.796  10.256   1.291  0.0415  0.0392  0.1215
  503MOL0     O66311   0.977  10.019   1.262  0.2455  0.0315 -0.2704
  503MOL0     C66312   1.242   9.975   1.351 -0.1800 -0.1272 -0.4368
  503MOL0     C66313   1.358   9.925   1.408 -0.3434  0.1054  0.4539
  503MOL0     N66314   2.068  10.042   1.877 -0.0899 -0.8026  0.3064
  503MOL0     N66315   2.157  10.120   1.831 -0.2000  0.2862 -0.1016
  503MOL0     C66316   3.133  10.318   1.082 -0.0258  0.5646  0.7408
  503MOL0     C66317   3.259  10.267   1.060 -0.1578  0.4955 -0.6582
  503MOL0     C66318   3.629  10.043   0.961  0.1196 -0.9795 -0.1187
  503MOL0     C66319   3.733  10.000   1.036 -0.1223 -0.5624  0.8798
  503MOL0     C66320   3.849   9.954   0.983 -0.9005  0.0494 -0.1444
  503MOL0     C66321   3.865   9.952   0.843 -0.8480 -0.0635  0.3987
  503MOL0     O66322   3.973   9.901   0.779 -0.1435 -0.7103  0.6131
  503MOL0     C66323   4.052   9.804   0.852  0.1447 -0.4729 -0.6809
  503MOL0     C66324   4.145   9.737   0.737  0.6959 -1.0521  0.0930
  503MOL0     C66325   4.266   9.831   0.696 -0.2562  0.0474 -0.2750
  503MOL0     C66326   4.306   9.792   0.559 -0.7114 -0.9611  0.0896
  503MOL0     C66327   4.434   9.849   0.521 -0.8328  1.9156  0.1292
  503MOL0     C66328   4.551   9.895   0.505  0.3831  0.6233 -0.8555
  503MOL0     C66329   3.762   9.996   0.767 -0.0719 -0.8775  0.3506
  503MOL0     C66330   3.644  10.040   0.821  0.2518 -0.6000  0.7972
  503MOL0     H66331   3.202   9.981   0.905 -0.5680 -1.5516  1.6759
  503MOL0     H66332   2.960  10.040   0.974  0.5577 -2.4028  3.0580
  503MOL0     H66333   2.857  10.206   1.240  1.4385  1.3766 -0.9791
  503MOL0     H66334   2.792  10.123   1.110 -1.5830  0.2228 -0.1038
  503MOL0     H66335   2.660  10.348   1.065 -0.5863  0.5389  0.7449
  503MOL0     H66336   2.741  10.413   1.211  2.8120 -1.2101  0.1450
  503MOL0     H66337   2.649  10.254   1.356  3.3559  1.8555 -1.1280
  503MOL0     H66338   2.563  10.174   1.219  2.6735  0.1872 -0.7754
  503MOL0     H66339   2.516  10.463   1.303 -1.8323  0.7971  1.6961
  503MOL0     H66340   2.432  10.366   1.179 -1.2974  3.0467  1.3284
  503MOL0     H66341   2.367  10.216   1.350  1.9015 -0.0185 -1.6825
  503MOL0     H66342   2.283  10.372   1.371 -0.6348 -0.7298  2.1952
  503MOL0     H66343   2.384  10.418   1.574  1.8076  1.3340  1.2717
  503MOL0     H66344   2.539  10.334   1.528 -0.0365 -1.8405  2.0758
  503MOL0     H66345   2.426  10.113   1.591  0.5759 -1.0928  2.4949
  503MOL0     H66346   2.433  10.221   1.716  1.2883 -2.4559 -1.3897
  503MOL0     H66347   2.191  10.201   1.506 -0.5525 -0.1551  0.3073
  503MOL0     H66348   2.199  10.317   1.641 -1.0063  0.1513 -1.5740
  503MOL0     H66349   2.042   9.994   1.551  1.1268 -0.4220  0.8070
  503MOL0     H66350   1.892   9.820   1.875  2.1080 -2.3146 -1.3431
  503MOL0     H66351   1.933   9.798   1.708  1.0908  1.4661 -0.3558
  503MOL0     H66352   1.734   9.945   1.638 -1.0443 -0.2670  0.1736
  503MOL0     H66353   1.742  10.020   1.797  0.3798 -1.0445  0.9884
  503MOL0     H66354   1.673   9.737   1.725  1.9516 -0.2694  1.4791
  503MOL0     H66355   1.648   9.804   1.890 -1.3432 -3.5885 -0.7282
  503MOL0     H66356   1.495   9.981   1.778  1.5091 -0.2311  0.2383
  503MOL0     H66357   1.445   9.821   1.822  1.2422  0.8503  1.2115
  503MOL0     H66358   1.242   9.957   1.732  2.1665  3.4804  0.4244
  503MOL0     H66359   1.063  10.034   1.641  0.1411 -0.0339  0.8288
  503MOL0     H66360   0.710  10.139   1.599  1.4196  2.2499  0.5715
  503MOL0     H66361   0.500  10.239   1.533  1.1610 -1.2099  1.4887
  503MOL0     H66362   0.323  10.524   1.361 -1.0689 -1.0880  0.0539
  503MOL0     H66363   0.399  10.450   1.496  1.8766 -1.0381 -1.1146
  503MOL0     H66364   0.293  10.230   1.433  0.4631  0.0691  1.3253
  503MOL0     H66365   0.203  10.313   1.309  0.3736 -0.0291  0.7200
  503MOL0     H66366   0.117  10.475   1.500 -1.2870  0.0897  0.4410
  503MOL0     H66367   0.186  10.357   1.613  0.8409 -1.2349 -0.4012
  503MOL0     H66368  -0.038  10.327   1.399 -0.1007 -1.0863  0.1031
  503MOL0     H66369   0.032  10.189   1.467 -1.9734 -0.7072 -0.9528
  503MOL0     H66370  -0.062  10.380   1.682  0.5192  0.8276  0.1079
  503MOL0     H66371  -0.079  10.207   1.670 -1.9575 -0.8724  1.1256
  503MOL0     H66372  -0.255  10.277   1.462 -2.1000 -1.2112  0.0927
  503MOL0     H66373  -0.260  10.420   1.573 -0.6317  0.3752 -1.4876
  503MOL0     H66374  -0.322  10.124   1.619 -1.2893 -0.3688 -2.3823
  503MOL0     H66375  -0.287  10.241   1.753  0.2580 -0.8904 -0.9190
  503MOL0     H66376  -0.491  10.265   1.546  0.4194  1.8342  0.4423
  503MOL0     H66377  -0.491  10.381   1.674 -1.9311 -0.6596  2.1493
  503MOL0     H66378   0.662  10.358   1.164  1.0184 -0.9568 -0.3108
  503MOL0     H66379   0.866  10.246   1.209 -0.5694 -3.9273 -0.0940
  503MOL0     H66380   1.230   9.975   1.243  0.8718  0.9486 -0.5710
  503MOL0     H66381   1.435   9.886   1.343  1.5454  1.0123  2.0680
  503MOL0     H66382   3.113  10.416   1.123 -1.1378  0.4103  0.5842
  503MOL0     H66383   3.343  10.328   1.091  1.1111 -0.8898 -1.2887
  503MOL0     H66384   3.724   9.999   1.144 -2.0867  1.4276  0.7991
  503MOL0     H66385   3.920   9.911   1.052 -0.6359  2.7566  1.4425
  503MOL0     H66386   3.991   9.734   0.910  1.6284 -0.6933  0.6973
  503MOL0     H66387   4.127   9.847   0.919  0.8070 -1.3610 -0.8269
  503MOL0     H66388   4.175   9.638   0.774  0.5127 -0.4150  2.0159
  503MOL0     H66389   4.092   9.708   0.645  1.3161  1.4219 -1.1228
  503MOL0     H66390   4.346   9.817   0.770  0.3702 -1.2881 -1.1674
  503MOL0     H66391   4.234   9.935   0.703 -1.5197 -0.4027  1.3735
  503MOL0     H66392   4.318   9.684   0.545  1.4530 -0.7556  0.1426
  503MOL0     H66393   4.244   9.835   0.480 -1.1052  0.2665  1.0365
  503MOL0     H66394   4.648   9.938   0.495 -0.2018  1.5528 -3.4733
  503MOL0     H66395   3.767   9.985   0.659  0.5537 -1.2145  0.4079
  503MOL0     H66396   3.572  10.081   0.751  0.2708 -0.9161  0.5903
  504MOL0     O66397   7.060   7.187   1.159 -0.3997 -0.6820 -0.0540
  504MOL0     C66398   7.072   7.104   1.071 -0.8599 -0.1014 -0.1401
  504MOL0     O66399   6.982   7.078   0.983 -0.0235 -0.4569 -0.1680
  504MOL0     C66400   6.848   7.077   1.002  0.7967 -0.3827  0.6383
  504MOL0     C66401   6.784   7.075   1.124  0.3188  0.8584  0.0047
  504MOL0     C66402   6.643   7.055   1.128 -0.1867  0.6518 -0.4813
  504MOL0     C66403   6.561   7.045   1.009 -0.6523  0.3896  0.4179
  504MOL0     O66404   6.429   7.030   1.034  0.2160  0.1478 -0.3997
  504MOL0     C66405   6.338   7.050   0.922 -0.7311 -0.6694  0.1050
  504MOL0     C66406   6.191   7.052   0.955  0.6513  0.3504 -0.3108
  504MOL0     C66407   6.133   6.919   1.008 -0.1498  0.3759  0.5105
  504MOL0     C66408   6.180   6.866   1.141 -0.3705 -0.0058  0.3656
  504MOL0     C66409   6.072   6.798   1.220  0.5816  0.3075  0.1356
  504MOL0     C66410   5.965   6.893   1.284 -0.2939  0.2614  0.5417
  504MOL0     C66411   5.845   6.817   1.349 -0.9603  0.1326 -0.7970
  504MOL0     C66412   5.760   6.905   1.439 -0.4927  0.1395 -0.0804
  504MOL0     N66413   5.636   6.844   1.482 -0.6416 -0.4449 -0.6477
  504MOL0     C66414   5.624   6.731   1.558  0.6423  0.0798  0.0989
  504MOL0     C66415   5.494   6.708   1.566 -0.4557  0.4480  0.6838
  504MOL0     C66416   5.431   6.590   1.626 -0.3352 -1.2403  0.3207
  504MOL0     C66417   5.313   6.631   1.724 -0.6283  0.5975  0.0975
  504MOL0     C66418   5.247   6.504   1.768  0.4333 -0.1203  0.0026
  504MOL0     C66419   5.132   6.533   1.871  0.1795  0.3392  0.0653
  504MOL0     O66420   5.029   6.612   1.806  0.6514  0.1908  0.1447
  504MOL0     C66421   4.908   6.606   1.862  0.0420  0.8289 -0.1997
  504MOL0     C66422   4.805   6.672   1.793 -0.4624  0.3022  0.5019
  504MOL0     C66423   4.672   6.664   1.834  0.4101 -0.1902  0.3955
  504MOL0     C66424   4.636   6.586   1.944 -0.5466  0.5462  0.3824
  504MOL0     C66425   4.491   6.581   1.986 -0.8765 -0.1982  0.7727
  504MOL0     O66426   4.470   6.563   2.115  0.0842 -0.1535 -0.2915
  504MOL0     C66427   4.348   6.524   2.162  0.8902 -0.0085  0.3518
  504MOL0     C66428   4.242   6.615   2.186 -0.4996  0.4387 -0.1794
  504MOL0     C66429   4.111   6.566   2.194  0.3717  0.3881 -0.3575
  504MOL0     C66430   4.085   6.428   2.217  0.9403 -0.1791 -0.1433
  504MOL0     O66431   3.954   6.395   2.242 -0.2252  0.2116  0.4956
  504MOL0     C66432   3.931   6.256   2.261  0.3484  0.0323  0.3735
  504MOL0     C66433   3.776   6.221   2.255 -0.2480  0.7529 -0.4026
  504MOL0     C66434   3.693   6.311   2.336 -0.3634  0.1616  0.2371
  504MOL0     C66435   3.542   6.273   2.336  0.5631 -0.4822  0.7937
  504MOL0     C66436   3.466   6.359   2.435 -0.6499  0.2119  0.7231
  504MOL0     C66437   3.318   6.312   2.443  0.1827 -0.0509 -0.9115
  504MOL0     C66438   3.250   6.304   2.303 -0.1706 -0.4092 -0.4036
  504MOL0     C66439   3.096   6.305   2.309 -0.0597 -0.1967  0.2873
  504MOL0    Cl66440   3.041   6.200   2.443 -0.0230  0.0359 -0.3292
  504MOL0     C66441   4.195   6.343   2.201  0.1981  0.2876  0.0976
  504MOL0     C66442   4.319   6.392   2.172  0.0485 -0.5386 -1.2283
  504MOL0     O66443   4.410   6.570   1.895  0.3144 -0.2844 -0.2134
  504MOL0     C66444   4.732   6.510   2.009 -0.5616 -0.0719  0.0544
  504MOL0     C66445   4.866   6.533   1.974  0.2764  0.9612  0.8716
  504MOL0     N66446   5.421   6.808   1.500 -0.2944  0.5561  0.2438
  504MOL0     N66447   5.509   6.888   1.451  0.2054  0.2405 -0.0342
  504MOL0     C66448   6.634   7.043   0.890 -0.1357  0.5491  0.2630
  504MOL0     C66449   6.775   7.055   0.885  0.2063 -1.2032 -0.4700
  504MOL0     C66450   7.216   7.055   1.056 -0.1396 -0.6459  1.0476
  504MOL0     C66451   7.313   7.095   1.147 -0.4035  0.3453  1.1015
  504MOL0     C66452   7.448   7.057   1.135 -0.5593  0.2486 -0.2806
  504MOL0     C66453   7.491   6.970   1.032  0.1701  0.5243  0.0536
  504MOL0     O66454   7.622   6.926   1.024 -0.2452  0.1937 -0.3070
  504MOL0     C66455   7.656   6.808   0.955  0.0318  0.3144 -0.1820
  504MOL0     C66456   7.711   6.852   0.822 -0.2769  0.2894  0.1985
  504MOL0     C66457   7.739   6.726   0.734 -0.6743  0.3482  1.1296
  504MOL0     C66458   7.796   6.767   0.605  0.0727 -1.0030  0.0799
  504MOL0     C66459   7.691   6.835   0.532 -0.1224  0.6059 -0.5321
  504MOL0     C66460   7.602   6.906   0.487 -1.1528 -0.3361  0.3518
  504MOL0     C66461   7.393   6.921   0.944 -0.6514  0.7718  0.2622
  504MOL0     C66462   7.261   6.967   0.953 -0.1542 -0.0181 -0.4821
  504MOL0     H66463   6.825   7.099   1.221 -0.3054  2.1365 -0.0283
  504MOL0     H66464   6.589   7.051   1.222 -0.0821 -1.8197 -0.4610
  504MOL0     H66465   6.359   6.974   0.847 -0.5460 -1.5239  1.0082
  504MOL0     H66466   6.367   7.146   0.877 -3.0582  0.4314  0.7761
  504MOL0     H66467   6.136   7.066   0.861 -0.2879  1.0982  0.3382
  504MOL0     H66468   6.172   7.135   1.023  3.1862  1.7068 -1.1262
  504MOL0     H66469   6.139   6.833   0.941  2.0871  0.5645  0.3821
  504MOL0     H66470   6.025   6.930   1.016 -0.2822 -0.3097 -0.1995
  504MOL0     H66471   6.265   6.801   1.120 -0.1094  0.6395 -0.6635
  504MOL0     H66472   6.217   6.949   1.202  0.0942 -0.0947  0.2048
  504MOL0     H66473   6.116   6.753   1.309  1.9562  0.5408 -0.4028
  504MOL0     H66474   6.015   6.728   1.159  0.6988  0.3868 -0.0659
  504MOL0     H66475   5.931   6.966   1.210  1.1472 -0.1064 -0.5244
  504MOL0     H66476   6.009   6.954   1.364  0.7934  0.7383 -0.3846
  504MOL0     H66477   5.787   6.764   1.273  1.4941 -0.1047 -2.6045
  504MOL0     H66478   5.884   6.732   1.406  1.1103  0.9487 -0.9170
  504MOL0     H66479   5.735   6.996   1.383  1.9865  2.4053  2.2148
  504MOL0     H66480   5.811   6.940   1.529  0.8030 -2.6765  0.3846
  504MOL0     H66481   5.697   6.663   1.599 -0.7100 -0.9765  0.8229
  504MOL0     H66482   5.510   6.537   1.681  0.3043 -0.0267  0.5970
  504MOL0     H66483   5.403   6.521   1.545 -2.3458  1.3318 -1.3102
  504MOL0     H66484   5.252   6.708   1.677  0.8078  0.9682 -1.2739
  504MOL0     H66485   5.357   6.668   1.817 -1.2503 -1.0400  1.0961
  504MOL0     H66486   5.206   6.447   1.684  1.4682  0.0195 -0.6056
  504MOL0     H66487   5.322   6.441   1.814  0.4832 -1.5662 -1.9232
  504MOL0     H66488   5.167   6.588   1.959  1.6300  0.0444 -0.2965
  504MOL0     H66489   5.096   6.438   1.909  2.5071 -0.1308  1.2764
  504MOL0     H66490   4.820   6.737   1.708  1.7125 -1.6178 -0.6756
  504MOL0     H66491   4.593   6.718   1.782 -0.1287 -0.7227  0.6550
  504MOL0     H66492   4.248   6.723   2.173 -0.5830  0.7025  1.6429
  504MOL0     H66493   4.027   6.635   2.197 -0.6227 -0.8180  0.4859
  504MOL0     H66494   3.972   6.232   2.360  2.7613  1.6802 -0.1459
  504MOL0     H66495   3.976   6.193   2.184 -0.5774  0.1366 -0.2693
  504MOL0     H66496   3.771   6.117   2.286  1.2926  0.9079  0.4723
  504MOL0     H66497   3.734   6.227   2.154 -1.2046  1.2293  0.0056
  504MOL0     H66498   3.701   6.413   2.296 -1.9686 -0.1250 -0.9417
  504MOL0     H66499   3.727   6.320   2.440  2.8750 -1.0956 -0.6088
  504MOL0     H66500   3.500   6.274   2.235 -0.9024 -1.9854  1.3442
  504MOL0     H66501   3.540   6.167   2.364  0.5578 -0.5900  0.3932
  504MOL0     H66502   3.470   6.466   2.415 -0.3057  0.5958  2.6712
  504MOL0     H66503   3.496   6.349   2.540  1.7837  3.0564  0.4284
  504MOL0     H66504   3.259   6.383   2.501 -1.4602 -1.3732 -0.8894
  504MOL0     H66505   3.317   6.211   2.483 -1.8858  1.2680  2.7922
  504MOL0     H66506   3.288   6.390   2.247 -1.1177  1.3802  1.5676
  504MOL0     H66507   3.280   6.212   2.252 -0.7537 -1.7709  1.5941
  504MOL0     H66508   3.050   6.269   2.216  3.1128 -0.6642 -1.2311
  504MOL0     H66509   3.068   6.408   2.334  3.7115  0.8942  0.5897
  504MOL0     H66510   4.185   6.236   2.213 -1.9978  0.6187  1.8346
  504MOL0     H66511   4.392   6.315   2.150  2.9720  2.1189 -1.4614
  504MOL0     H66512   4.696   6.453   2.094 -1.5313  0.9827  0.3664
  504MOL0     H66513   4.937   6.480   2.037  0.0395 -0.0192  0.3389
  504MOL0     H66514   6.576   7.040   0.799  0.7488 -1.1485 -0.2853
  504MOL0     H66515   6.824   7.048   0.789  1.9357 -0.4105  0.3251
  504MOL0     H66516   7.287   7.156   1.233  0.2335  1.0113  0.8323
  504MOL0     H66517   7.513   7.088   1.217 -0.5642 -1.2006  0.3108
  504MOL0     H66518   7.573   6.738   0.946 -1.9382  2.1686  2.3246
  504MOL0     H66519   7.737   6.751   1.001  0.3987  1.2351  0.3483
  504MOL0     H66520   7.638   6.919   0.776  0.5547 -0.4173 -2.2893
  504MOL0     H66521   7.808   6.901   0.832  0.3723 -0.9672  0.3897
  504MOL0     H66522   7.649   6.665   0.720 -0.5574  0.3684  0.2539
  504MOL0     H66523   7.815   6.663   0.781  1.0780  0.1328 -1.7440
  504MOL0     H66524   7.881   6.837   0.613 -0.7301  0.0847 -0.5269
  504MOL0     H66525   7.824   6.685   0.539  1.6245 -0.2739 -0.2223
  504MOL0     H66526   7.545   6.987   0.445 -0.4743  0.3491  0.7356
  504MOL0     H66527   7.427   6.857   0.864  0.9511 -0.8880  2.1333
  504MOL0     H66528   7.182   6.939   0.884 -1.4374 -1.0967  1.3093
  505MOL0     O66529   6.517   3.058   4.630 -0.6112 -0.4749  0.9293
  505MOL0     C66530   6.617   3.055   4.558  0.1870  0.4963 -0.7621
  505MOL0     O66531   6.637   3.126   4.442 -0.4841 -0.0865 -0.3993
  505MOL0     C66532   6.526   3.200   4.402 -0.5219  0.2205  0.9440
  505MOL0     C66533   6.423   3.138   4.327  0.8668 -0.2582  0.2125
  505MOL0     C66534   6.308   3.218   4.296 -0.6997  0.2669 -0.4668
  505MOL0     C66535   6.298   3.345   4.341  0.3461 -0.9075  0.3638
  505MOL0     O66536   6.184   3.417   4.321 -0.3480 -0.3205  0.0520
  505MOL0     C66537   6.142   3.429   4.182  0.2196 -0.8513 -0.5735
  505MOL0     C66538   6.034   3.542   4.171  0.4322  0.2927 -0.1209
  505MOL0     C66539   5.891   3.506   4.222  0.5120  0.4706  0.2284
  505MOL0     C66540   5.793   3.613   4.193  0.5364  1.0976  0.2821
  505MOL0     C66541   5.663   3.589   4.275  0.1767  0.0323  0.3716
  505MOL0     C66542   5.553   3.697   4.247 -1.1087 -0.2247  0.6115
  505MOL0     C66543   5.448   3.692   4.347  0.1935 -0.4159  0.6312
  505MOL0     C66544   5.378   3.553   4.348  0.1201 -0.1970  0.0176
  505MOL0     N66545   5.258   3.556   4.418 -0.2842 -0.0792  0.5972
  505MOL0     C66546   5.135   3.549   4.359  0.4999 -0.3510 -0.2945
  505MOL0     C66547   5.042   3.585   4.454 -0.6533 -0.0280 -0.1473
  505MOL0     C66548   4.892   3.580   4.424 -0.1675  0.2902 -0.0356
  505MOL0     C66549   4.833   3.705   4.355  0.3337 -0.3120  0.5950
  505MOL0     C66550   4.702   3.754   4.412 -0.6115  0.0384  0.1083
  505MOL0     C66551   4.602   3.653   4.460  0.0680  0.7929  0.4683
  505MOL0     O66552   4.474   3.711   4.462  0.6050 -0.0983  0.1228
  505MOL0     C66553   4.364   3.638   4.484  0.5720  0.1539  0.8080
  505MOL0     C66554   4.252   3.716   4.458  0.2667  0.9190 -0.2950
  505MOL0     C66555   4.122   3.661   4.471 -0.8236 -0.8328 -0.0054
  505MOL0     C66556   4.102   3.527   4.512 -0.2037 -0.3369 -0.0719
  505MOL0     C66557   3.970   3.472   4.530  0.3899  0.5752  0.0498
  505MOL0     O66558   3.870   3.537   4.462 -0.0533  0.0254  0.5293
  505MOL0     C66559   3.740   3.528   4.491 -0.5681 -0.8977 -0.6712
  505MOL0     C66560   3.696   3.507   4.625  0.0091  0.1129  0.0192
  505MOL0     C66561   3.555   3.515   4.639 -0.5298  0.4157 -0.0266
  505MOL0     C66562   3.466   3.538   4.538  0.2765  0.3491 -0.1324
  505MOL0     O66563   3.325   3.561   4.556 -0.2256  0.1919 -0.3325
  505MOL0     C66564   3.276   3.590   4.690  0.0698  0.3441 -0.3552
  505MOL0     C66565   3.122   3.603   4.679  0.1322 -0.0090 -0.2890
  505MOL0     C66566   3.039   3.605   4.816  1.1252  0.5218  0.0634
  505MOL0     C66567   2.898   3.628   4.783  0.8778 -0.5260  0.0914
  505MOL0     C66568   2.811   3.617   4.910 -0.1960 -0.5107  0.7648
  505MOL0     C66569   2.825   3.723   5.018 -0.1275 -0.5161  0.4733
  505MOL0     C66570   2.810   3.865   4.967 -0.1120  0.3300 -0.1127
  505MOL0     C66571   2.785   3.965   5.081 -0.1276  0.1456 -0.5928
  505MOL0    Cl66572   2.642   3.910   5.174  0.1321 -0.3223  0.2161
  505MOL0     C66573   3.511   3.549   4.411 -0.5408  0.7971  0.5259
  505MOL0     C66574   3.647   3.544   4.388 -0.1148  0.1665  0.1846
  505MOL0     O66575   3.953   3.379   4.613 -0.2480 -0.5896  0.5529
  505MOL0     C66576   4.223   3.452   4.543  0.0614  0.6630  0.8687
  505MOL0     C66577   4.344   3.503   4.520  0.6064 -0.1199  0.0615
  505MOL0     N66578   5.112   3.628   4.564 -0.5272 -0.3115  0.1448
  505MOL0     N66579   5.244   3.615   4.540  0.7593  0.2467  0.4020
  505MOL0     C66580   6.409   3.409   4.401  0.1905 -0.1586 -0.0571
  505MOL0     C66581   6.518   3.338   4.442 -1.4840  0.4193 -0.7283
  505MOL0     C66582   6.733   2.985   4.612 -0.4912  0.4726 -0.2280
  505MOL0     C66583   6.861   2.986   4.542  0.2641 -0.7652  0.2781
  505MOL0     C66584   6.970   2.923   4.599 -0.9732  0.9388 -0.1579
  505MOL0     C66585   6.963   2.853   4.724  0.4587  0.3801  0.4434
  505MOL0     O66586   7.058   2.769   4.768  0.4364  0.4203  0.1543
  505MOL0     C66587   7.183   2.771   4.699 -0.2473 -0.5178 -0.5422
  505MOL0     C66588   7.290   2.678   4.760 -0.3432  0.7508  0.8892
  505MOL0     C66589   7.311   2.710   4.907  0.0576  0.6309 -0.0460
  505MOL0     C66590   7.457   2.683   4.942  0.1737  0.0153  0.2374
  505MOL0     C66591   7.466   2.741   5.077 -0.8465 -0.5970  0.1682
  505MOL0     C66592   7.481   2.782   5.188 -0.3730  0.1874 -0.1994
  505MOL0     C66593   6.840   2.852   4.787  0.1020  0.1000  0.0819
  505MOL0     C66594   6.726   2.911   4.737  0.0681  0.1281 -0.2416
  505MOL0     H66595   6.415   3.035   4.292  0.6477 -0.6235  1.3191
  505MOL0     H66596   6.213   3.182   4.257  0.3081 -0.9587 -1.9109
  505MOL0     H66597   6.101   3.339   4.135 -5.7392 -0.2915  2.5100
  505MOL0     H66598   6.229   3.459   4.124 -0.5546 -0.2464 -1.4392
  505MOL0     H66599   6.025   3.571   4.066  0.1020  1.7239  0.2885
  505MOL0     H66600   6.059   3.632   4.227 -1.2784  0.4634  0.4312
  505MOL0     H66601   5.886   3.496   4.331  1.5440 -1.3294  0.1587
  505MOL0     H66602   5.853   3.410   4.185 -0.6296  1.5082 -1.4547
  505MOL0     H66603   5.827   3.716   4.207  0.9717  1.0300 -0.2420
  505MOL0     H66604   5.762   3.614   4.088 -1.8190 -1.4652  0.8337
  505MOL0     H66605   5.688   3.581   4.381 -0.4451  1.8632  0.6876
  505MOL0     H66606   5.630   3.490   4.241  1.1392  0.2502 -1.3209
  505MOL0     H66607   5.507   3.693   4.148 -1.5189 -0.0980  0.7965
  505MOL0     H66608   5.606   3.792   4.249  1.9044 -1.7744  1.0936
  505MOL0     H66609   5.490   3.710   4.447 -1.5721  0.2935  1.2861
  505MOL0     H66610   5.375   3.773   4.335 -0.6268 -1.2512 -0.0968
  505MOL0     H66611   5.450   3.489   4.399  1.5680  1.9420  0.8323
  505MOL0     H66612   5.352   3.506   4.253 -2.8603  3.2999 -1.1641
  505MOL0     H66613   5.125   3.510   4.258  0.3322 -0.4675 -0.2327
  505MOL0     H66614   4.847   3.564   4.522 -1.1075 -0.4255 -0.5636
  505MOL0     H66615   4.866   3.493   4.362 -0.3774  1.1407 -1.1749
  505MOL0     H66616   4.817   3.677   4.250 -0.8703 -0.2381  0.7438
  505MOL0     H66617   4.906   3.786   4.354 -1.5823  1.4862 -0.0299
  505MOL0     H66618   4.732   3.819   4.494  1.1607  0.8051 -1.1004
  505MOL0     H66619   4.642   3.808   4.339 -3.1065 -1.3026  1.0201
  505MOL0     H66620   4.635   3.606   4.554  0.3071  0.5869  0.2804
  505MOL0     H66621   4.602   3.565   4.395  0.2364  2.7364 -2.3387
  505MOL0     H66622   4.265   3.822   4.440 -1.2891  1.3868  1.0373
  505MOL0     H66623   4.036   3.724   4.453 -0.1339  0.3932  0.8703
  505MOL0     H66624   3.758   3.506   4.715  0.7175 -0.8506 -0.4642
  505MOL0     H66625   3.515   3.502   4.739 -0.2394 -0.3682 -0.0104
  505MOL0     H66626   3.313   3.686   4.727 -2.0785  0.4193  1.8182
  505MOL0     H66627   3.310   3.516   4.762  0.5313  3.8921  3.4266
  505MOL0     H66628   3.088   3.509   4.634 -1.7759  1.3677 -1.9542
  505MOL0     H66629   3.104   3.689   4.614 -0.8738  1.0750  1.3642
  505MOL0     H66630   3.077   3.689   4.874  0.0473  1.3678 -0.4007
  505MOL0     H66631   3.064   3.518   4.877  1.0383  1.5448  1.6013
  505MOL0     H66632   2.887   3.722   4.728  0.1622 -2.5904 -3.6142
  505MOL0     H66633   2.859   3.552   4.715 -1.2788  0.1522  0.4812
  505MOL0     H66634   2.839   3.517   4.945 -0.0601  0.1090  2.5126
  505MOL0     H66635   2.705   3.618   4.883 -0.8328 -1.9291  2.9627
  505MOL0     H66636   2.923   3.705   5.062  1.4032 -0.8699 -2.8209
  505MOL0     H66637   2.740   3.703   5.084 -0.1805 -1.0397  0.2527
  505MOL0     H66638   2.892   3.905   4.907  1.3800  1.0822  2.2708
  505MOL0     H66639   2.715   3.865   4.912  0.0670 -1.4316 -0.4720
  505MOL0     H66640   2.772   4.059   5.028  0.5535  0.0409 -0.9491
  505MOL0     H66641   2.871   3.985   5.145  1.2837  1.6245 -2.8068
  505MOL0     H66642   3.445   3.564   4.326  0.2292 -0.0664 -0.2525
  505MOL0     H66643   3.690   3.542   4.288  3.7648  2.3523  1.5931
  505MOL0     H66644   4.201   3.346   4.554  0.6304  0.4936  0.3808
  505MOL0     H66645   4.422   3.433   4.549  1.2965 -0.9241 -3.2922
  505MOL0     H66646   6.406   3.511   4.439  1.6489 -0.6848  1.6142
  505MOL0     H66647   6.596   3.373   4.509 -0.4688 -2.9163  0.0082
  505MOL0     H66648   6.872   3.042   4.450  0.6652  0.5995  1.1365
  505MOL0     H66649   7.065   2.929   4.548 -0.4773  3.2946  0.9423
  505MOL0     H66650   7.230   2.870   4.704  1.5157 -1.2262 -1.8960
  505MOL0     H66651   7.173   2.750   4.592 -0.4223 -0.3119 -0.5671
  505MOL0     H66652   7.261   2.573   4.753  2.5778 -0.2886  2.3288
  505MOL0     H66653   7.384   2.695   4.707  0.3202 -2.0026  1.0323
  505MOL0     H66654   7.247   2.643   4.966  0.4380  1.3360  1.2017
  505MOL0     H66655   7.290   2.815   4.924  1.0031  1.4347 -3.2636
  505MOL0     H66656   7.487   2.578   4.948  4.2559  1.1165  3.4710
  505MOL0     H66657   7.526   2.736   4.875 -0.1375  3.4181  2.3812
  505MOL0     H66658   7.495   2.842   5.276 -0.4630 -1.3492  0.9129
  505MOL0     H66659   6.836   2.805   4.885 -0.1834 -0.2048 -0.0772
  505MOL0     H66660   6.634   2.895   4.793  0.4456  3.4959  1.6003
  506MOL0     O66661   2.676   1.222   0.552 -0.2136  0.0088  0.1246
  506MOL0     C66662   2.660   1.102   0.567  0.9271  0.2304 -0.7207
  506MOL0     O66663   2.541   1.043   0.618 -0.0390 -0.5719  0.4520
  506MOL0     C66664   2.437   1.123   0.642 -0.0615 -0.7453 -0.2288
  506MOL0     C66665   2.316   1.099   0.567  0.2395 -0.2162 -0.2001
  506MOL0     C66666   2.202   1.175   0.600  0.2733 -0.2157  0.5266
  506MOL0     C66667   2.196   1.263   0.706  0.9544  0.2881  0.3426
  506MOL0     O66668   2.073   1.321   0.730 -0.1474 -0.2749 -0.3058
  506MOL0     C66669   2.056   1.406   0.851 -0.3883 -0.8349  0.6393
  506MOL0     C66670   1.923   1.479   0.836  0.0757  1.3468 -0.1715
  506MOL0     C66671   1.909   1.581   0.950 -0.1867 -0.1400  0.4257
  506MOL0     C66672   1.781   1.661   0.931 -0.2412 -0.8628  0.5145
  506MOL0     C66673   1.799   1.787   0.840 -0.6648 -0.0165 -0.6913
  506MOL0     C66674   1.673   1.872   0.810  0.9317 -1.2775  0.2069
  506MOL0     C66675   1.546   1.872   0.900 -0.1803 -0.4222  0.8241
  506MOL0     C66676   1.435   1.969   0.856 -0.2318  0.2941 -0.2228
  506MOL0     N66677   1.453   2.105   0.885  0.0372  0.5637 -0.3845
  506MOL0     C66678   1.419   2.176   0.997 -0.8165 -0.2244  0.3111
  506MOL0     C66679   1.439   2.307   0.972  0.3803 -0.8627  0.0288
  506MOL0     C66680   1.407   2.421   1.060 -0.7583  0.0573  1.0990
  506MOL0     C66681   1.266   2.471   1.023 -0.2402  0.4511  0.4727
  506MOL0     C66682   1.226   2.568   1.129 -0.4334 -0.1368  0.5883
  506MOL0     C66683   1.081   2.612   1.109 -0.7322 -0.0191 -0.1685
  506MOL0     O66684   1.069   2.705   0.994 -0.4079  0.6149 -0.1340
  506MOL0     C66685   0.947   2.727   0.948  0.0063 -0.2215 -0.0080
  506MOL0     C66686   0.830   2.687   1.013 -0.2507  0.8536  0.0841
  506MOL0     C66687   0.711   2.725   0.958 -0.0408 -0.4288 -0.3318
  506MOL0     C66688   0.699   2.790   0.836  0.4819  0.3178  0.7389
  506MOL0     C66689   0.570   2.834   0.773 -0.2426  1.0974  0.2573
  506MOL0     O66690   0.462   2.786   0.838  0.1664  0.6576 -0.0802
  506MOL0     C66691   0.341   2.823   0.789  0.1889 -0.6405  0.0310
  506MOL0     C66692   0.282   2.781   0.672  0.3079  0.3275  0.1039
  506MOL0     C66693   0.162   2.839   0.626  0.4277  0.6441  0.7731
  506MOL0     C66694   0.097   2.943   0.695  0.9390 -0.1833 -0.1873
  506MOL0     O66695  -0.031   2.992   0.669 -0.5504  0.0325 -0.4469
  506MOL0     C66696  -0.118   2.920   0.581 -0.1367 -0.0771  0.2236
  506MOL0     C66697  -0.262   2.962   0.627  0.1365  0.1444  0.0639
  506MOL0     C66698  -0.365   2.873   0.553 -0.0264 -0.1054  0.5104
  506MOL0     C66699  -0.498   2.876   0.615 -0.0989  0.6643  0.5945
  506MOL0     C66700  -0.596   2.790   0.536 -0.9601  0.2060  0.0357
  506MOL0     C66701  -0.737   2.813   0.586 -0.1159 -0.2335  0.4195
  506MOL0     C66702  -0.770   2.775   0.729  0.0995  0.1707  0.3399
  506MOL0     C66703  -0.893   2.859   0.773 -0.0195 -0.4480  0.2838
  506MOL0    Cl66704  -1.041   2.820   0.687 -0.4221  0.2024 -0.1144
  506MOL0     C66705   0.157   2.980   0.819 -0.3229  0.3278  0.0547
  506MOL0     C66706   0.278   2.925   0.863 -0.3018 -0.2583 -0.3776
  506MOL0     O66707   0.570   2.901   0.669  0.9152 -0.1298 -0.1281
  506MOL0     C66708   0.821   2.820   0.769 -0.9766 -0.4233 -0.4094
  506MOL0     C66709   0.938   2.788   0.825 -0.7968 -0.2356 -1.2865
  506MOL0     N66710   1.512   2.317   0.849 -0.0566 -0.6867 -0.6341
  506MOL0     N66711   1.511   2.191   0.801 -0.4338 -0.4263  0.1918
  506MOL0     C66712   2.306   1.278   0.783  0.2572  0.0743 -1.1464
  506MOL0     C66713   2.426   1.212   0.748 -0.6684  0.0432 -0.3257
  506MOL0     C66714   2.762   1.012   0.522  0.4920 -0.3672  0.2030
  506MOL0     C66715   2.902   1.046   0.530  0.6027 -0.7652  0.4546
  506MOL0     C66716   3.001   0.964   0.485 -0.7095  0.0127  0.3508
  506MOL0     C66717   2.963   0.842   0.429 -0.3114 -0.5186  0.3576
  506MOL0     O66718   3.054   0.743   0.425  0.4587  0.0285 -0.2485
  506MOL0     C66719   3.070   0.654   0.310  0.0478 -0.3235  0.8978
  506MOL0     C66720   3.148   0.732   0.210  0.6355 -0.1316  0.4081
  506MOL0     C66721   3.191   0.650   0.081  1.5013 -0.1893  0.5966
  506MOL0     C66722   3.300   0.553   0.101 -0.6092  0.6345 -0.4479
  506MOL0     C66723   3.426   0.601   0.162  0.2406 -0.1259  0.1043
  506MOL0     C66724   3.534   0.636   0.213  0.9908  0.6446 -0.4882
  506MOL0     C66725   2.833   0.803   0.432  0.8681 -0.2297  0.1395
  506MOL0     C66726   2.734   0.888   0.475  0.4193 -0.5376  0.5281
  506MOL0     H66727   2.305   1.023   0.489 -1.9156 -0.2067  0.0428
  506MOL0     H66728   2.106   1.169   0.550  1.2414 -0.7074 -1.3371
  506MOL0     H66729   2.137   1.479   0.859  0.5058 -1.6765 -0.3535
  506MOL0     H66730   2.058   1.347   0.943  4.1416  0.0875  1.3834
  506MOL0     H66731   1.839   1.409   0.845 -0.0553  1.5829  0.5684
  506MOL0     H66732   1.916   1.520   0.735  0.5208 -0.7867 -1.1109
  506MOL0     H66733   1.991   1.652   0.937 -0.4925 -0.1602 -2.0553
  506MOL0     H66734   1.914   1.539   1.051 -1.0571  2.1051  1.4527
  506MOL0     H66735   1.703   1.603   0.882 -1.1985  1.2051 -0.4910
  506MOL0     H66736   1.743   1.692   1.029  1.0086  2.4600  0.0838
  506MOL0     H66737   1.857   1.754   0.754  1.3197 -0.2957  0.6831
  506MOL0     H66738   1.871   1.851   0.892  2.2608 -2.2995 -1.6192
  506MOL0     H66739   1.647   1.855   0.705  0.4864 -0.5510  0.1920
  506MOL0     H66740   1.701   1.977   0.802 -0.2795 -0.9974 -0.6935
  506MOL0     H66741   1.502   1.771   0.905 -1.1937 -0.1212 -1.1698
  506MOL0     H66742   1.578   1.899   1.001  0.6079 -3.7702  1.5950
  506MOL0     H66743   1.339   1.925   0.885 -2.4800  0.8931 -5.5740
  506MOL0     H66744   1.433   1.961   0.747  2.0665 -1.2578 -0.2177
  506MOL0     H66745   1.381   2.130   1.088  0.7469  0.7185  1.4949
  506MOL0     H66746   1.488   2.493   1.046 -1.6525  0.6790 -1.3170
  506MOL0     H66747   1.412   2.381   1.162  1.8550  0.6409  1.2712
  506MOL0     H66748   1.200   2.384   1.023 -1.2790  1.2020 -1.3157
  506MOL0     H66749   1.276   2.517   0.924  1.6762 -0.8640 -0.0097
  506MOL0     H66750   1.228   2.500   1.215 -0.0007  0.2999  0.9266
  506MOL0     H66751   1.293   2.655   1.130 -3.1159  2.0699  0.6115
  506MOL0     H66752   1.079   2.678   1.196  1.8675  1.8925 -1.4238
  506MOL0     H66753   1.016   2.526   1.127  3.4749 -3.9103 -1.5456
  506MOL0     H66754   0.825   2.630   1.106  0.4671 -0.9834 -0.9484
  506MOL0     H66755   0.624   2.696   1.017 -1.1644  1.4888 -0.9285
  506MOL0     H66756   0.336   2.723   0.598 -1.3431  0.3008 -1.1283
  506MOL0     H66757   0.118   2.791   0.539  1.2701 -0.1089  0.7523
  506MOL0     H66758  -0.106   2.811   0.582 -2.8919 -0.5181 -2.2112
  506MOL0     H66759  -0.099   2.953   0.478 -0.8246  1.0825  0.4616
  506MOL0     H66760  -0.284   3.067   0.605  1.3014  0.4438  0.2612
  506MOL0     H66761  -0.269   2.964   0.736 -2.6278  1.9145 -0.0508
  506MOL0     H66762  -0.338   2.768   0.566 -3.6826 -0.9861  1.9411
  506MOL0     H66763  -0.360   2.896   0.446  0.8392 -2.4020 -0.0060
  506MOL0     H66764  -0.493   2.838   0.717 -1.4602 -0.6861  0.1960
  506MOL0     H66765  -0.544   2.975   0.612 -2.0229 -0.1965 -0.4628
  506MOL0     H66766  -0.577   2.682   0.546  1.9252  0.7242  1.3330
  506MOL0     H66767  -0.594   2.809   0.428  1.3928  1.7130  0.2666
  506MOL0     H66768  -0.812   2.764   0.523  0.6901 -1.8098  0.6162
  506MOL0     H66769  -0.757   2.917   0.559  0.7710 -0.6356 -2.0438
  506MOL0     H66770  -0.798   2.670   0.735 -1.2483  0.4860 -0.0771
  506MOL0     H66771  -0.684   2.798   0.793  1.0818 -1.2136 -0.4138
  506MOL0     H66772  -0.862   2.961   0.748 -0.3749 -0.1778  0.9159
  506MOL0     H66773  -0.910   2.856   0.881 -1.4146  3.4404  0.3426
  506MOL0     H66774   0.110   3.056   0.880 -1.0873  1.0072 -1.3185
  506MOL0     H66775   0.330   2.961   0.952  2.8281 -0.2310 -2.0790
  506MOL0     H66776   0.816   2.866   0.671 -0.1696  0.4772 -0.0422
  506MOL0     H66777   1.027   2.821   0.773  1.6624 -0.7417  2.2404
  506MOL0     H66778   2.313   1.355   0.860 -2.7633 -0.0396 -0.6421
  506MOL0     H66779   2.513   1.231   0.811  0.7433 -0.7358 -1.9732
  506MOL0     H66780   2.921   1.146   0.567 -0.2267  0.3607 -1.8999
  506MOL0     H66781   3.108   0.981   0.490  0.0663 -3.9422  0.8720
  506MOL0     H66782   2.973   0.624   0.270 -0.2529  1.9116 -0.2281
  506MOL0     H66783   3.137   0.570   0.327  1.7155  0.5457 -0.9551
  506MOL0     H66784   3.087   0.817   0.178  2.5366  1.2955  0.4504
  506MOL0     H66785   3.234   0.775   0.261  0.4659  0.2199  0.4047
  506MOL0     H66786   3.235   0.713   0.003  1.4986  1.3369  1.7889
  506MOL0     H66787   3.097   0.608   0.045  1.2297  0.7413  0.1848
  506MOL0     H66788   3.268   0.479   0.176  1.6142  0.8267  0.7782
  506MOL0     H66789   3.312   0.500   0.006 -0.8632  0.4003 -0.3519
  506MOL0     H66790   3.621   0.664   0.268  0.9979 -3.5464  2.1119
  506MOL0     H66791   2.792   0.708   0.399 -2.2474  1.1286 -0.3312
  506MOL0     H66792   2.634   0.846   0.466  1.0515 -2.2376  0.9500
  507MOL0     O66793   9.449   7.619   0.345 -0.2204 -0.4543  0.4985
  507MOL0     C66794   9.381   7.665   0.263 -0.4121 -0.0829  0.7058
  507MOL0     O66795   9.252   7.685   0.266  0.0361 -0.1373  0.0144
  507MOL0     C66796   9.187   7.659   0.379  0.6156 -0.1323 -0.4326
  507MOL0     C66797   9.061   7.595   0.364  0.4742 -0.4010 -0.9329
  507MOL0     C66798   8.975   7.595   0.469  0.1167  0.7322  0.1603
  507MOL0     C66799   9.008   7.643   0.592  0.7581 -0.0711  0.8185
  507MOL0     O66800   8.919   7.621   0.693 -0.7482 -0.3270 -0.5888
  507MOL0     C66801   8.919   7.710   0.810  0.5267  0.1040 -1.5325
  507MOL0     C66802   8.786   7.687   0.887  0.4135  0.7568  0.7281
  507MOL0     C66803   8.662   7.700   0.799 -0.5952 -0.1437  0.7648
  507MOL0     C66804   8.659   7.841   0.728  0.1827  0.1491  0.0007
  507MOL0     C66805   8.535   7.845   0.634 -0.3687  0.2571 -0.5280
  507MOL0     C66806   8.530   7.735   0.531 -0.4476 -0.7299  0.1773
  507MOL0     C66807   8.420   7.759   0.428  0.1105  0.1972 -0.0977
  507MOL0     C66808   8.447   7.675   0.302  0.1078  0.5484 -0.9915
  507MOL0     N66809   8.578   7.710   0.256 -0.0623 -0.2654 -0.2629
  507MOL0     C66810   8.639   7.833   0.240  0.5692 -0.0456 -0.3173
  507MOL0     C66811   8.756   7.807   0.189  0.4359  0.1782  0.1685
  507MOL0     C66812   8.842   7.929   0.162  0.1335  0.7907 -0.5298
  507MOL0     C66813   8.982   7.892   0.112  1.2756 -0.2923 -1.0291
  507MOL0     C66814   9.065   8.018   0.076 -0.6676 -0.5769  0.3000
  507MOL0     C66815   9.200   7.997   0.007 -1.0143 -0.2695 -0.5328
  507MOL0     O66816   9.195   7.950  -0.125 -0.2923 -0.4463  0.6780
  507MOL0     C66817   9.311   7.970  -0.197 -0.3283 -0.5890  0.0558
  507MOL0     C66818   9.442   7.993  -0.146 -0.1685 -0.0644 -0.5397
  507MOL0     C66819   9.557   8.021  -0.227  0.3252 -0.1305  0.0652
  507MOL0     C66820   9.548   8.032  -0.367 -0.4495 -0.1272  0.1324
  507MOL0     C66821   9.673   8.063  -0.458  0.2607 -0.0054 -0.3023
  507MOL0     O66822   9.794   8.032  -0.406 -0.0671 -0.0123  0.1728
  507MOL0     C66823   9.900   8.040  -0.494  0.7036 -0.2769 -0.0780
  507MOL0     C66824   9.975   8.165  -0.499  0.0264 -0.8055 -0.1982
  507MOL0     C66825  10.102   8.169  -0.554  0.0065  0.0301 -0.6380
  507MOL0     C66826  10.155   8.055  -0.619  0.3983 -0.1359  0.0801
  507MOL0     O66827  10.280   8.051  -0.666 -0.4488  0.0282 -0.2605
  507MOL0     C66828  10.368   8.156  -0.623  0.4859  0.7829 -0.1560
  507MOL0     C66829  10.506   8.135  -0.684  0.3224 -0.0430  0.4876
  507MOL0     C66830  10.579   8.273  -0.684  0.2429  0.0621  0.8495
  507MOL0     C66831  10.707   8.276  -0.763  0.2760 -0.3151 -1.0946
  507MOL0     C66832  10.779   8.408  -0.744  0.3621  0.7990  0.6524
  507MOL0     C66833  10.914   8.410  -0.824  0.1861  0.2708  0.2556
  507MOL0     C66834  10.998   8.529  -0.785 -0.1426  0.2143 -0.0578
  507MOL0     C66835  11.116   8.535  -0.882 -0.7410 -0.8858 -0.1236
  507MOL0    Cl66836  11.194   8.694  -0.842  0.2195 -0.1660 -0.0771
  507MOL0     C66837  10.081   7.938  -0.622 -0.1195 -0.1331  0.1714
  507MOL0     C66838   9.955   7.933  -0.564  0.4038  0.1942  0.4724
  507MOL0     O66839   9.659   8.091  -0.579  0.2901  0.1003  0.1783
  507MOL0     C66840   9.418   8.003  -0.420 -0.3214 -1.2438  0.4343
  507MOL0     C66841   9.306   7.976  -0.342  0.8059 -0.1409 -0.1203
  507MOL0     N66842   8.778   7.672   0.182  0.1777  0.5558 -0.3758
  507MOL0     N66843   8.670   7.616   0.229 -0.6314  0.3120 -0.4205
  507MOL0     C66844   9.132   7.699   0.619  0.3183 -0.5463 -0.5157
  507MOL0     C66845   9.225   7.715   0.506  0.4451 -0.4446 -0.7127
  507MOL0     C66846   9.444   7.690   0.128  0.7235  0.4149 -1.0389
  507MOL0     C66847   9.586   7.709   0.125  0.3440  0.0957 -0.2196
  507MOL0     C66848   9.652   7.720   0.004  0.4717  0.1710  0.4252
  507MOL0     C66849   9.580   7.708  -0.115 -0.2848  0.1569  0.9619
  507MOL0     O66850   9.644   7.698  -0.243 -0.2605  0.6762  0.0162
  507MOL0     C66851   9.781   7.649  -0.235  0.1650  0.2289 -0.0684
  507MOL0     C66852   9.821   7.596  -0.376  0.4693  0.1366 -0.0425
  507MOL0     C66853   9.965   7.539  -0.381  0.2299 -0.2137  0.0631
  507MOL0     C66854   9.983   7.448  -0.494  0.2814  0.9981  0.1835
  507MOL0     C66855   9.917   7.317  -0.462  0.2340 -0.3550  0.1479
  507MOL0     C66856   9.878   7.204  -0.444 -0.0022  0.1124  0.1256
  507MOL0     C66857   9.440   7.677  -0.115 -0.2346 -0.2911  0.2429
  507MOL0     C66858   9.376   7.682   0.003  0.1123 -0.4887 -0.3423
  507MOL0     H66859   9.024   7.563   0.267 -0.9692  0.0235 -0.5561
  507MOL0     H66860   8.880   7.543   0.463 -0.2391  1.3506  0.3667
  507MOL0     H66861   8.933   7.815   0.781  2.1693  0.8347  1.4457
  507MOL0     H66862   9.007   7.684   0.870  0.9429  2.6402 -0.9014
  507MOL0     H66863   8.786   7.747   0.978 -0.1517  1.6703  0.1372
  507MOL0     H66864   8.780   7.586   0.929  0.9153  0.1132 -0.7008
  507MOL0     H66865   8.571   7.694   0.860 -2.9783  1.1621 -2.3627
  507MOL0     H66866   8.667   7.619   0.726 -1.7111 -0.1931  0.7215
  507MOL0     H66867   8.659   7.920   0.804  0.4512  1.6938 -1.5455
  507MOL0     H66868   8.750   7.855   0.669 -0.3626  0.1988 -0.8353
  507MOL0     H66869   8.542   7.940   0.579 -2.5546 -2.6421 -6.7185
  507MOL0     H66870   8.442   7.835   0.690 -0.5325 -0.4111 -0.9106
  507MOL0     H66871   8.521   7.635   0.574 -1.9053 -0.9282 -0.5160
  507MOL0     H66872   8.628   7.734   0.481 -0.4921 -0.7763  0.0904
  507MOL0     H66873   8.326   7.727   0.475 -0.4422 -0.7964 -1.7723
  507MOL0     H66874   8.413   7.864   0.398  1.2272 -0.0342 -1.2758
  507MOL0     H66875   8.371   7.708   0.231  1.4450  1.8765 -1.8527
  507MOL0     H66876   8.434   7.568   0.322 -0.0505  0.9649  1.4305
  507MOL0     H66877   8.592   7.922   0.280  0.3136 -0.6462  0.7387
  507MOL0     H66878   8.849   7.979   0.259 -2.6364  0.8465 -0.2660
  507MOL0     H66879   8.792   7.993   0.089 -2.4979  0.7543  1.0874
  507MOL0     H66880   8.974   7.833   0.020  1.2047 -1.0647 -0.5335
  507MOL0     H66881   9.040   7.827   0.179  0.6048 -0.1798 -0.3239
  507MOL0     H66882   9.018   8.079  -0.002 -1.4092  0.3295  1.4342
  507MOL0     H66883   9.080   8.094   0.154 -1.2578  1.0972 -1.1346
  507MOL0     H66884   9.256   7.920   0.061  0.6884  0.5317 -1.0916
  507MOL0     H66885   9.267   8.083   0.012 -1.4543  0.1277 -1.2894
  507MOL0     H66886   9.465   7.980  -0.040  0.6314 -0.3664 -0.7410
  507MOL0     H66887   9.652   8.041  -0.178 -0.2829 -1.9705  2.2027
  507MOL0     H66888   9.940   8.259  -0.457 -1.6591 -1.3339 -0.3612
  507MOL0     H66889  10.154   8.261  -0.531 -0.1372 -0.0484  0.0349
  507MOL0     H66890  10.370   8.155  -0.514  1.1793  1.9995 -0.1374
  507MOL0     H66891  10.329   8.256  -0.649  1.8402  1.0794 -1.1693
  507MOL0     H66892  10.494   8.103  -0.788  0.0678 -3.5235  1.4692
  507MOL0     H66893  10.561   8.058  -0.629 -0.3905 -1.2319 -0.4152
  507MOL0     H66894  10.597   8.303  -0.581 -0.4886  0.4180  0.8825
  507MOL0     H66895  10.510   8.348  -0.722  2.3105  2.5612  1.7743
  507MOL0     H66896  10.770   8.204  -0.710 -0.1619  0.8068  1.0601
  507MOL0     H66897  10.692   8.248  -0.868 -0.8811  2.4842 -1.7777
  507MOL0     H66898  10.802   8.438  -0.641  0.9967  1.0092  0.4498
  507MOL0     H66899  10.722   8.495  -0.781  1.5726  1.2880 -0.1103
  507MOL0     H66900  10.899   8.405  -0.932 -0.5341 -1.6245  0.4091
  507MOL0     H66901  10.965   8.319  -0.793 -2.3114 -0.9296  1.1196
  507MOL0     H66902  10.937   8.618  -0.802 -0.5737 -0.0593  0.0406
  507MOL0     H66903  11.030   8.520  -0.681  0.7423 -0.3658 -0.3642
  507MOL0     H66904  11.075   8.541  -0.983 -3.0954  0.9779  0.8511
  507MOL0     H66905  11.190   8.455  -0.870 -0.5627 -0.8210 -0.7788
  507MOL0     H66906  10.132   7.852  -0.664 -2.1338 -1.7494  0.8676
  507MOL0     H66907   9.899   7.841  -0.545  0.7454  0.2944  2.1708
  507MOL0     H66908   9.403   7.993  -0.528 -4.9619 -0.5986  0.8050
  507MOL0     H66909   9.208   7.961  -0.386  1.2201  1.0568 -1.5250
  507MOL0     H66910   9.153   7.735   0.719 -3.0872 -0.0836  0.1699
  507MOL0     H66911   9.312   7.779   0.517 -0.9465  1.3267  0.6183
  507MOL0     H66912   9.634   7.717   0.222  0.1417  0.8451 -0.1820
  507MOL0     H66913   9.756   7.752   0.009 -0.4039  3.9620 -1.6210
  507MOL0     H66914   9.780   7.567  -0.162 -4.9621  0.4065  0.4852
  507MOL0     H66915   9.854   7.726  -0.210 -0.8155  0.5948  1.8829
  507MOL0     H66916   9.761   7.513  -0.415  3.1575 -0.2953 -3.7187
  507MOL0     H66917   9.814   7.676  -0.451  0.9360  0.6737  0.4784
  507MOL0     H66918   9.974   7.491  -0.283  1.0527  4.4744  2.5834
  507MOL0     H66919  10.039   7.619  -0.381 -0.4012  0.4046 -1.1518
  507MOL0     H66920   9.959   7.491  -0.591 -0.9634  0.4209  0.2010
  507MOL0     H66921  10.090   7.437  -0.514 -0.1080  0.5548 -1.8596
  507MOL0     H66922   9.830   7.112  -0.417 -0.4780 -0.1875 -1.6129
  507MOL0     H66923   9.387   7.650  -0.206  1.7765 -2.2929 -0.4410
  507MOL0     H66924   9.270   7.659  -0.003 -0.2927  1.0532  0.2838
  508MOL0     O66925   1.579   9.410   2.979  0.4707  0.1895 -0.2751
  508MOL0     C66926   1.588   9.329   2.886  0.0273  0.1950 -0.6587
  508MOL0     O66927   1.690   9.247   2.865 -1.2040 -0.6115  0.6696
  508MOL0     C66928   1.802   9.265   2.947 -0.5017  0.1267 -0.5231
  508MOL0     C66929   1.851   9.149   3.005 -0.3621  0.0639 -0.2448
  508MOL0     C66930   1.982   9.152   3.062 -0.5220  0.1760  1.3028
  508MOL0     C66931   2.053   9.276   3.066  0.3310 -0.4073  0.0890
  508MOL0     O66932   2.175   9.266   3.120  0.1643  0.1957 -0.7325
  508MOL0     C66933   2.223   9.382   3.187  0.3143  0.0514  0.5410
  508MOL0     C66934   2.365   9.371   3.247 -0.2154 -0.3791 -0.5259
  508MOL0     C66935   2.371   9.236   3.324  0.0072 -0.2264 -0.0951
  508MOL0     C66936   2.278   9.225   3.454  0.0013  0.5381  0.0891
  508MOL0     C66937   2.280   9.078   3.514  0.8680 -1.1092 -0.0301
  508MOL0     C66938   2.235   9.075   3.665  0.0534  0.7083  0.5535
  508MOL0     C66939   2.211   8.941   3.723 -0.7815 -0.4229 -0.2257
  508MOL0     C66940   2.096   8.872   3.652 -0.3887 -0.2265 -0.2532
  508MOL0     N66941   2.065   8.740   3.712  0.4172 -0.1748  0.3917
  508MOL0     C66942   1.986   8.646   3.638 -0.5406 -0.6146  0.3655
  508MOL0     C66943   1.962   8.545   3.717  0.3207 -0.4621 -0.5318
  508MOL0     C66944   1.893   8.409   3.685 -0.8306  0.5205  0.5193
  508MOL0     C66945   1.751   8.419   3.638  0.2996  0.4184  0.3087
  508MOL0     C66946   1.644   8.483   3.741  0.1536  0.7276 -0.1765
  508MOL0     C66947   1.509   8.535   3.681  0.0346  0.3235  0.2651
  508MOL0     O66948   1.531   8.612   3.568  0.2208 -0.0693  0.2443
  508MOL0     C66949   1.567   8.738   3.580  0.4192  0.0750  0.2371
  508MOL0     C66950   1.521   8.828   3.681  0.8473  0.2436  0.4009
  508MOL0     C66951   1.542   8.959   3.668 -0.9555 -0.0044  1.0526
  508MOL0     C66952   1.613   9.013   3.556 -0.7735  0.1799 -0.5558
  508MOL0     C66953   1.647   9.154   3.551 -0.3652  0.1056 -0.3727
  508MOL0     O66954   1.718   9.188   3.440  0.1750 -0.2141 -0.2138
  508MOL0     C66955   1.783   9.308   3.417  0.3131  0.0450 -0.7358
  508MOL0     C66956   1.752   9.376   3.296 -0.0454 -0.0061  0.1237
  508MOL0     C66957   1.809   9.501   3.276  0.3485 -0.9783 -0.4311
  508MOL0     C66958   1.901   9.558   3.363  0.1196  0.0688 -0.8004
  508MOL0     O66959   1.957   9.687   3.356 -0.3070 -0.4902  0.5009
  508MOL0     C66960   1.952   9.763   3.233  0.6781  0.3423 -0.3898
  508MOL0     C66961   1.820   9.852   3.238  0.4507 -0.1073 -0.1406
  508MOL0     C66962   1.787   9.927   3.117  0.2318 -0.1378 -0.1098
  508MOL0     C66963   1.721   9.844   3.008 -0.2745 -0.4115 -0.8996
  508MOL0     C66964   1.681   9.925   2.883 -0.0415 -0.2098  0.0948
  508MOL0     C66965   1.629   9.830   2.780 -0.3847 -0.0171 -0.3475
  508MOL0     C66966   1.601   9.898   2.645  0.4587 -0.1022 -0.4589
  508MOL0     C66967   1.549   9.797   2.543  0.0024 -0.3006  0.1931
  508MOL0    Cl66968   1.404   9.706   2.599  0.1583 -0.3139  0.0066
  508MOL0     C66969   1.917   9.497   3.490  0.5943 -0.1608 -0.1333
  508MOL0     C66970   1.855   9.371   3.518 -0.1907 -0.3903  0.5405
  508MOL0     O66971   1.621   9.228   3.647  0.4505  0.2723  0.7942
  508MOL0     C66972   1.664   8.924   3.456  0.5411 -1.2046  0.3745
  508MOL0     C66973   1.645   8.785   3.474  0.5735  0.4770 -0.4012
  508MOL0     N66974   2.017   8.579   3.841 -0.2663  0.8762  0.2932
  508MOL0     N66975   2.085   8.691   3.837  0.1631 -0.1657  0.2254
  508MOL0     C66976   1.992   9.390   3.020  0.4210  0.6634 -0.1805
  508MOL0     C66977   1.866   9.384   2.957  0.7182  0.5204  0.7326
  508MOL0     C66978   1.474   9.314   2.794  0.6097  0.1036 -0.1126
  508MOL0     C66979   1.485   9.240   2.677  0.0637 -0.1028  0.4742
  508MOL0     C66980   1.375   9.224   2.599 -0.9016  0.0435  1.1347
  508MOL0     C66981   1.258   9.291   2.618  0.4612 -1.1013 -0.2881
  508MOL0     O66982   1.155   9.264   2.537 -0.4556  0.4293  0.0745
  508MOL0     C66983   1.161   9.356   2.422 -0.2494  0.1699 -1.1949
  508MOL0     C66984   1.077   9.485   2.437  0.2565 -0.5812 -0.3163
  508MOL0     C66985   0.927   9.452   2.462 -0.0722  0.2312  0.0882
  508MOL0     C66986   0.846   9.579   2.492 -0.3729 -0.2710 -0.2339
  508MOL0     C66987   0.839   9.681   2.384 -0.5075 -0.1995  0.6467
  508MOL0     C66988   0.847   9.776   2.303  0.6180  0.2551  0.1810
  508MOL0     C66989   1.247   9.367   2.732  0.0428  0.7561  0.3282
  508MOL0     C66990   1.355   9.393   2.814 -0.1451  0.0157  0.0882
  508MOL0     H66991   1.787   9.062   2.999 -2.1116  1.2374  0.3707
  508MOL0     H66992   2.038   9.068   3.100  0.2032  1.1501  2.4580
  508MOL0     H66993   2.156   9.415   3.268 -0.1733  1.8129 -0.5266
  508MOL0     H66994   2.217   9.464   3.116 -1.8514 -0.3542  0.1914
  508MOL0     H66995   2.389   9.452   3.318 -4.6109 -0.1838  1.0414
  508MOL0     H66996   2.444   9.368   3.171  0.0984  0.1305 -0.2252
  508MOL0     H66997   2.473   9.229   3.363 -0.9930  0.8785  3.0587
  508MOL0     H66998   2.340   9.153   3.261 -0.5209 -0.3883  0.3674
  508MOL0     H66999   2.319   9.294   3.529  0.9092 -1.8885  1.9565
  508MOL0     H67000   2.175   9.252   3.428 -0.4679 -2.5666 -1.7782
  508MOL0     H67001   2.385   9.050   3.499  0.8267 -0.7919 -0.9783
  508MOL0     H67002   2.225   9.002   3.457 -0.6934 -1.5483  1.9132
  508MOL0     H67003   2.142   9.132   3.671  1.3411  2.8922  0.4895
  508MOL0     H67004   2.320   9.122   3.714  0.0681  0.5410  0.6890
  508MOL0     H67005   2.300   8.878   3.723 -1.3240 -1.3310 -2.8940
  508MOL0     H67006   2.177   8.964   3.825 -1.1854 -0.1918 -0.4096
  508MOL0     H67007   2.115   8.856   3.545 -0.4171  1.0272 -0.4634
  508MOL0     H67008   2.007   8.935   3.659  0.2192  0.5540  0.6182
  508MOL0     H67009   1.956   8.651   3.534  1.3392  0.0727 -0.1859
  508MOL0     H67010   1.893   8.338   3.768 -1.6861 -0.7759 -0.5643
  508MOL0     H67011   1.954   8.359   3.609  0.6097  1.0786  1.2470
  508MOL0     H67012   1.705   8.326   3.600 -0.6298  0.6033  0.9468
  508MOL0     H67013   1.746   8.485   3.551  1.8256  0.3157  0.1218
  508MOL0     H67014   1.617   8.408   3.816 -2.0637  0.2004 -1.3965
  508MOL0     H67015   1.691   8.568   3.791 -0.2736  0.3455  0.8854
  508MOL0     H67016   1.458   8.586   3.764 -0.1299 -0.5210  0.6984
  508MOL0     H67017   1.449   8.447   3.654  2.7097 -0.8036 -2.5425
  508MOL0     H67018   1.456   8.799   3.763 -0.5404  1.4808 -0.2167
  508MOL0     H67019   1.522   9.029   3.748  3.0229 -0.1413  2.3883
  508MOL0     H67020   1.699   9.339   3.209  0.7170  0.3830 -0.5264
  508MOL0     H67021   1.783   9.557   3.186  3.3649 -0.4535 -1.0727
  508MOL0     H67022   1.960   9.694   3.149 -3.4436 -1.0417  0.1318
  508MOL0     H67023   2.036   9.833   3.227  0.2659  1.1354  1.8819
  508MOL0     H67024   1.824   9.922   3.322  1.0259  0.3197 -0.5143
  508MOL0     H67025   1.728   9.794   3.246  2.1144 -2.7632  1.2073
  508MOL0     H67026   1.880   9.970   3.079  0.6029 -2.1113 -1.6056
  508MOL0     H67027   1.722  10.010   3.147 -1.7294 -1.5282 -0.3295
  508MOL0     H67028   1.771   9.752   2.974 -1.1227 -1.3897  0.4063
  508MOL0     H67029   1.632   9.797   3.051  2.2216 -3.2068  1.6450
  508MOL0     H67030   1.774   9.969   2.847 -1.2215  2.7427  0.3933
  508MOL0     H67031   1.606  10.001   2.909 -1.7151 -1.2212 -1.5798
  508MOL0     H67032   1.532   9.790   2.811  0.1842 -2.2575 -1.2665
  508MOL0     H67033   1.695   9.743   2.776  1.8164  1.2129  3.7106
  508MOL0     H67034   1.524   9.975   2.654  1.8933  1.7372 -2.7755
  508MOL0     H67035   1.693   9.944   2.609 -0.3195  0.1808 -2.1706
  508MOL0     H67036   1.633   9.729   2.526  0.2812 -0.4182  1.9053
  508MOL0     H67037   1.516   9.854   2.456 -1.8799 -2.3425 -0.5517
  508MOL0     H67038   1.978   9.547   3.566  1.0360 -0.8187 -0.0496
  508MOL0     H67039   1.859   9.334   3.620 -2.8246  2.5793  1.8827
  508MOL0     H67040   1.712   8.948   3.362 -0.4232  0.7640  0.3386
  508MOL0     H67041   1.687   8.716   3.401 -0.9978 -0.0236 -0.8792
  508MOL0     H67042   2.046   9.484   3.023  0.4416  0.6312  0.5781
  508MOL0     H67043   1.816   9.473   2.918  1.6309  0.5485 -0.4187
  508MOL0     H67044   1.563   9.169   2.653  0.0417  0.7623 -2.5676
  508MOL0     H67045   1.388   9.162   2.511  2.1980  0.9646  0.8144
  508MOL0     H67046   1.124   9.295   2.339 -0.1486  0.2097 -1.2693
  508MOL0     H67047   1.265   9.389   2.414 -0.1994  0.5115  0.4978
  508MOL0     H67048   1.109   9.547   2.521  0.6733 -0.5503 -0.4955
  508MOL0     H67049   1.083   9.544   2.345  1.9209  0.4849  0.4321
  508MOL0     H67050   0.921   9.374   2.539  2.4770 -0.0993  0.0439
  508MOL0     H67051   0.882   9.402   2.375 -0.5743  1.4211 -0.3506
  508MOL0     H67052   0.741   9.556   2.509 -1.9472  4.1103 -2.5023
  508MOL0     H67053   0.890   9.631   2.577 -0.6963 -0.4399  0.0388
  508MOL0     H67054   0.852   9.855   2.232  1.9891 -0.2735 -0.3416
  508MOL0     H67055   1.153   9.421   2.746 -0.0531  0.6577  0.0833
  508MOL0     H67056   1.346   9.460   2.899  0.7852 -1.5116  1.4544
  509MOL0     O67057   1.220   0.150   9.917 -1.0222 -0.4148  0.3415
  509MOL0     C67058   1.153   0.237   9.964  0.7441 -1.1719  0.6497
  509MOL0     O67059   1.192   0.352  10.014  0.3391  0.0927  0.2989
  509MOL0     C67060   1.325   0.377  10.025 -0.3949 -0.7350 -0.1303
  509MOL0     C67061   1.435   0.284  10.029  0.8610 -0.7538 -0.7172
  509MOL0     C67062   1.570   0.329  10.020  0.2959  0.6814 -0.3219
  509MOL0     C67063   1.600   0.466  10.016 -0.4137  0.1051 -0.0282
  509MOL0     O67064   1.728   0.521  10.026  0.7381  0.0327  0.3347
  509MOL0     C67065   1.842   0.435  10.045  0.1345 -0.3684 -0.3870
  509MOL0     C67066   1.964   0.536  10.054  0.3808  0.0099  0.4578
  509MOL0     C67067   2.095   0.469  10.037 -0.6055 -0.7964 -0.4289
  509MOL0     C67068   2.114   0.367  10.145  0.0722  0.2125 -0.2108
  509MOL0     C67069   2.254   0.329  10.170  0.3333  0.0569 -0.1421
  509MOL0     C67070   2.329   0.309  10.034  0.9860 -0.2549 -0.9262
  509MOL0     C67071   2.464   0.253  10.071 -0.2438 -0.1752  0.5061
  509MOL0     C67072   2.551   0.251   9.946 -0.2551 -0.6206 -0.6390
  509MOL0     N67073   2.692   0.212   9.967 -0.1936  0.7764  0.9077
  509MOL0     C67074   2.754   0.186  10.082  0.5493  0.4003  0.7632
  509MOL0     C67075   2.891   0.178  10.039 -1.0882 -0.2019  0.5186
  509MOL0     C67076   3.013   0.159  10.134 -0.4514  0.8165 -0.3667
  509MOL0     C67077   3.042   0.007  10.156 -0.2390 -0.2883  0.3296
  509MOL0     C67078   2.985  -0.050  10.283  0.0533 -0.4461  0.2697
  509MOL0     C67079   2.964  -0.205  10.273  0.2030  0.7509 -0.1522
  509MOL0     O67080   2.908  -0.257  10.394 -0.3607  0.7915  0.4372
  509MOL0     C67081   2.774  -0.275  10.415 -0.2588 -0.0061  0.2549
  509MOL0     C67082   2.718  -0.226  10.536 -0.7501  0.4665 -0.3082
  509MOL0     C67083   2.583  -0.263  10.570 -0.4220 -0.9747 -0.2460
  509MOL0     C67084   2.504  -0.343  10.480 -0.6817  0.6231  0.3132
  509MOL0     C67085   2.363  -0.374  10.507 -0.7267  0.7424 -0.3571
  509MOL0     O67086   2.279  -0.412  10.405  0.4240  0.2868  0.3073
  509MOL0     C67087   2.150  -0.447  10.446  0.2822  0.2946 -0.8034
  509MOL0     C67088   2.039  -0.391  10.389  0.0439  0.5561  0.4066
  509MOL0     C67089   1.914  -0.445  10.414 -0.0277 -0.9314  0.2651
  509MOL0     C67090   1.893  -0.543  10.511  0.1521  0.6899  0.1347
  509MOL0     O67091   1.757  -0.559  10.544  0.2989 -0.0299 -0.2910
  509MOL0     C67092   1.726  -0.685  10.611  0.1707 -0.7027 -0.4548
  509MOL0     C67093   1.575  -0.687  10.631 -0.1848 -0.1672 -0.2157
  509MOL0     C67094   1.484  -0.693  10.505 -0.2858 -1.0168  0.2256
  509MOL0     C67095   1.325  -0.685  10.517 -0.1392  0.0700  0.2658
  509MOL0     C67096   1.270  -0.825  10.535 -1.0318 -0.1312 -0.3229
  509MOL0     C67097   1.120  -0.826  10.502  0.7965 -0.3490 -0.2068
  509MOL0     C67098   1.056  -0.950  10.546  0.4068  0.1724  0.3749
  509MOL0     C67099   0.904  -0.946  10.538  0.0516  0.4729 -0.1853
  509MOL0    Cl67100   0.824  -1.111  10.549  0.1475 -0.2338  0.1513
  509MOL0     C67101   2.007  -0.598  10.571 -0.0167 -0.3223 -0.4616
  509MOL0     C67102   2.134  -0.546  10.541  0.2558  0.3684 -0.1954
  509MOL0     O67103   2.329  -0.359  10.624 -0.1477  0.8221  0.3519
  509MOL0     C67104   2.564  -0.379  10.356 -0.0836 -0.1604 -0.6376
  509MOL0     C67105   2.698  -0.349  10.321  0.6532 -0.2952 -0.2837
  509MOL0     N67106   2.891   0.181   9.899 -0.2011 -0.5063  0.0691
  509MOL0     N67107   2.774   0.197   9.859 -0.1974  0.1016 -0.0562
  509MOL0     C67108   1.496   0.558  10.013 -0.5005 -0.3671 -0.4855
  509MOL0     C67109   1.362   0.510  10.017  0.7144  0.4749  0.1806
  509MOL0     C67110   1.001   0.222   9.937  0.0514 -0.5977 -1.1111
  509MOL0     C67111   0.910   0.314   9.986  0.3494  0.2572 -0.4571
  509MOL0     C67112   0.774   0.297   9.959 -0.2367 -0.2805 -0.3815
  509MOL0     C67113   0.732   0.192   9.876 -0.2780 -0.1257  0.3724
  509MOL0     O67114   0.608   0.171   9.839  0.4678 -0.4175  0.0949
  509MOL0     C67115   0.502   0.254   9.896 -0.0120  0.1400 -0.0095
  509MOL0     C67116   0.364   0.220   9.844  0.3952  0.6691  0.3983
  509MOL0     C67117   0.304   0.080   9.882  0.9500 -0.5907  0.0011
  509MOL0     C67118   0.198   0.097   9.997 -0.4764  0.1494  0.3414
  509MOL0     C67119   0.150  -0.035  10.037  0.1760  0.1877  0.0969
  509MOL0     C67120   0.113  -0.146  10.070  0.5795 -0.0105 -0.8625
  509MOL0     C67121   0.826   0.106   9.824  0.9205  0.4158  0.4894
  509MOL0     C67122   0.957   0.117   9.860 -0.5692 -0.6035 -0.1448
  509MOL0     H67123   1.423   0.176  10.018  0.1113 -1.0290  2.1147
  509MOL0     H67124   1.638   0.245  10.015 -1.0395 -0.4218 -0.7649
  509MOL0     H67125   1.855   0.373   9.956  0.4895  0.0881 -0.6592
  509MOL0     H67126   1.850   0.380  10.139  0.2885 -1.1965 -0.8712
  509MOL0     H67127   1.950   0.576  10.155 -0.8869 -0.4888  0.4964
  509MOL0     H67128   1.953   0.613   9.977  2.1899 -0.4580 -0.3037
  509MOL0     H67129   2.172   0.545  10.050 -0.3673 -1.1509  0.3524
  509MOL0     H67130   2.117   0.426   9.939 -0.4745  1.5512 -1.4897
  509MOL0     H67131   2.068   0.399  10.239  2.9160 -1.0015  1.7343
  509MOL0     H67132   2.059   0.280  10.108  1.5197 -0.4807 -0.8509
  509MOL0     H67133   2.256   0.247  10.242  0.1510  0.8690  0.8187
  509MOL0     H67134   2.302   0.415  10.218 -1.2533  0.9728 -0.1163
  509MOL0     H67135   2.342   0.400   9.975  1.3657  0.7846  0.7311
  509MOL0     H67136   2.285   0.240   9.960 -0.5538 -0.8521  0.4961
  509MOL0     H67137   2.513   0.322  10.141  2.4058  1.4105 -2.6153
  509MOL0     H67138   2.470   0.153  10.116  0.8659  0.1306  1.0917
  509MOL0     H67139   2.554   0.349   9.898 -1.3123  0.9364  2.2844
  509MOL0     H67140   2.508   0.174   9.881 -2.8005  2.2145 -2.5969
  509MOL0     H67141   2.720   0.193  10.184 -3.1318  0.1078 -0.2979
  509MOL0     H67142   3.000   0.199  10.235 -2.3080 -1.6236  0.4533
  509MOL0     H67143   3.103   0.209  10.099 -0.1527  1.9945  1.9209
  509MOL0     H67144   3.148  -0.015  10.142 -0.2044  1.4163 -3.1110
  509MOL0     H67145   2.983  -0.044  10.080  0.6543  0.1730 -0.7012
  509MOL0     H67146   3.044  -0.026  10.371  0.9614 -0.4347 -0.3242
  509MOL0     H67147   2.884  -0.014  10.300  0.6286  1.8790 -0.8586
  509MOL0     H67148   3.059  -0.258  10.271 -1.0571 -1.6449 -1.0465
  509MOL0     H67149   2.914  -0.227  10.178 -2.4414  0.1905  1.2751
  509MOL0     H67150   2.779  -0.162  10.599  0.5405 -0.1408 -0.9046
  509MOL0     H67151   2.545  -0.224  10.664  1.5250 -1.5953  0.8393
  509MOL0     H67152   2.041  -0.299  10.330 -1.1175  1.3789  1.5965
  509MOL0     H67153   1.830  -0.389  10.375 -0.5386 -1.7515  0.1717
  509MOL0     H67154   1.781  -0.690  10.706  1.2507 -0.4462 -1.0527
  509MOL0     H67155   1.758  -0.771  10.552 -0.1746  0.4493 -2.3913
  509MOL0     H67156   1.561  -0.593  10.686 -0.8868 -0.7922  0.7080
  509MOL0     H67157   1.536  -0.762  10.701  0.6014 -1.1791 -0.8267
  509MOL0     H67158   1.513  -0.781  10.446 -0.1167  0.8059 -2.6073
  509MOL0     H67159   1.500  -0.611  10.435 -0.2996 -0.4925  0.8225
  509MOL0     H67160   1.293  -0.620  10.598 -0.7024 -0.9013  0.8414
  509MOL0     H67161   1.290  -0.652  10.419  1.7362 -1.3154 -0.9526
  509MOL0     H67162   1.298  -0.850  10.638  1.5204  0.1890 -0.8802
  509MOL0     H67163   1.327  -0.896  10.476 -0.5186 -1.1437  1.3228
  509MOL0     H67164   1.108  -0.817  10.394  1.1426 -1.3185 -0.3407
  509MOL0     H67165   1.065  -0.747  10.553 -0.3577 -0.1788 -1.6581
  509MOL0     H67166   1.101  -1.034  10.493  0.6325  0.1779  0.5533
  509MOL0     H67167   1.076  -0.964  10.653 -1.5916  2.1098  1.0728
  509MOL0     H67168   0.866  -0.890  10.452  0.5259  0.9917 -0.0630
  509MOL0     H67169   0.872  -0.892  10.628 -2.0646 -0.1560 -0.4928
  509MOL0     H67170   1.995  -0.689  10.629  1.0719  0.3625  0.9032
  509MOL0     H67171   2.220  -0.596  10.583  0.1685  0.4475  0.0798
  509MOL0     H67172   2.506  -0.435  10.283 -2.8406 -0.1465  1.3807
  509MOL0     H67173   2.738  -0.390  10.229 -0.3739 -2.7939  0.2889
  509MOL0     H67174   1.521   0.662  10.033  0.2172 -0.5899 -0.1807
  509MOL0     H67175   1.273   0.572  10.014  0.3699  0.0509  1.1117
  509MOL0     H67176   0.938   0.397  10.050 -0.5652 -0.2941  0.7074
  509MOL0     H67177   0.705   0.370   9.999 -0.9008 -0.6181 -0.8927
  509MOL0     H67178   0.529   0.359   9.882 -0.0912  0.1161 -0.3468
  509MOL0     H67179   0.497   0.233  10.003  0.5308  0.4708  0.0810
  509MOL0     H67180   0.296   0.300   9.875  0.1647  1.1012 -1.1626
  509MOL0     H67181   0.379   0.230   9.737  0.6276  0.2486  0.3904
  509MOL0     H67182   0.376   0.004   9.915 -0.5089 -0.7366  3.2564
  509MOL0     H67183   0.253   0.040   9.794  0.7950 -2.6321  0.9760
  509MOL0     H67184   0.253   0.146  10.078 -1.1049  0.8582  0.3443
  509MOL0     H67185   0.109   0.155   9.974 -0.7008 -1.0546 -2.1935
  509MOL0     H67186   0.058  -0.234  10.100 -1.2897  0.8312 -1.6663
  509MOL0     H67187   0.794   0.032   9.751 -1.1134  0.1272  1.6326
  509MOL0     H67188   1.031   0.050   9.818 -1.8927 -0.5469 -2.7389
  510MOL0     O67189   6.928   3.584   6.906  0.5330 -0.4882  0.4886
  510MOL0     C67190   7.025   3.653   6.933 -0.1263  0.4323 -0.4123
  510MOL0     O67191   7.025   3.756   7.020  0.2460 -0.6465 -0.5798
  510MOL0     C67192   6.917   3.788   7.087 -0.2181 -0.8100  0.8307
  510MOL0     C67193   6.894   3.746   7.216  0.2582  1.1865  0.2389
  510MOL0     C67194   6.776   3.776   7.280  0.1401  0.1395  0.4809
  510MOL0     C67195   6.679   3.854   7.210 -0.1277  0.5393 -0.4035
  510MOL0     O67196   6.558   3.889   7.260 -0.2368 -0.1350  0.3207
  510MOL0     C67197   6.517   3.812   7.370 -1.0434  0.5026 -0.0983
  510MOL0     C67198   6.366   3.845   7.402 -0.0541  0.1483  0.5406
  510MOL0     C67199   6.334   3.770   7.533 -0.1989 -0.3724 -0.0924
  510MOL0     C67200   6.231   3.846   7.623  0.2670 -1.1248  0.0665
  510MOL0     C67201   6.209   3.780   7.758  0.3377  0.7575 -0.1694
  510MOL0     C67202   6.149   3.639   7.730 -0.9098  0.2796 -0.2804
  510MOL0     C67203   6.095   3.577   7.863 -0.5631  0.0574 -0.0185
  510MOL0     C67204   5.990   3.653   7.937  0.0120 -0.2135 -0.2771
  510MOL0     N67205   5.937   3.577   8.046 -0.4358 -0.3804 -0.1586
  510MOL0     C67206   5.861   3.463   8.037  0.0246  0.2483  0.2529
  510MOL0     C67207   5.796   3.454   8.157  0.0493  0.2396  0.4328
  510MOL0     C67208   5.696   3.360   8.202 -1.1998  0.0897  0.0010
  510MOL0     C67209   5.724   3.287   8.330  0.1460  0.5015 -0.4248
  510MOL0     C67210   5.610   3.181   8.363 -0.0205 -0.0360 -0.2546
  510MOL0     C67211   5.468   3.228   8.380  0.5199 -0.1725 -0.0919
  510MOL0     O67212   5.387   3.121   8.426 -0.0886  0.4476 -0.6992
  510MOL0     C67213   5.251   3.136   8.430  0.2317 -0.0253  0.1585
  510MOL0     C67214   5.177   3.255   8.421  0.1383 -0.2160 -0.0638
  510MOL0     C67215   5.034   3.238   8.412 -0.0298 -0.1262  0.1374
  510MOL0     C67216   4.969   3.114   8.434  0.2794  0.0898 -0.6901
  510MOL0     C67217   4.822   3.108   8.438  0.5905  0.2722  0.7907
  510MOL0     O67218   4.767   2.982   8.433  0.2226  0.0086  0.0506
  510MOL0     C67219   4.630   2.949   8.412  0.2106 -0.1815  0.6880
  510MOL0     C67220   4.581   2.825   8.451 -0.6684 -0.0001  0.2959
  510MOL0     C67221   4.450   2.787   8.429 -0.2056 -0.3283  0.2173
  510MOL0     C67222   4.359   2.883   8.382  0.1209 -0.2834  0.1197
  510MOL0     O67223   4.225   2.844   8.368 -0.2781  0.2619 -0.5033
  510MOL0     C67224   4.168   2.812   8.499 -0.5489  0.4090  0.4725
  510MOL0     C67225   4.013   2.843   8.486  0.3925  0.3133  0.6076
  510MOL0     C67226   3.921   2.796   8.604  0.1315 -0.5888  0.4903
  510MOL0     C67227   3.798   2.884   8.650  0.5675  0.2215 -0.0419
  510MOL0     C67228   3.739   2.838   8.791  0.2098  0.2468  0.1440
  510MOL0     C67229   3.667   2.955   8.857 -0.6010 -0.7536 -0.0148
  510MOL0     C67230   3.604   2.921   8.994 -0.5698  0.0537 -0.4684
  510MOL0     C67231   3.482   2.844   8.987  0.2936  0.7084 -0.5935
  510MOL0    Cl67232   3.424   2.819   9.150  0.1342  0.2556  0.1559
  510MOL0     C67233   4.401   3.000   8.326  0.3966 -0.0042  0.0510
  510MOL0     C67234   4.540   3.037   8.343  0.1285  0.2998 -0.1602
  510MOL0     O67235   4.760   3.213   8.428 -0.2682  0.1187  0.4033
  510MOL0     C67236   5.047   2.999   8.439  0.2088  0.0106 -0.4634
  510MOL0     C67237   5.186   3.013   8.433  0.8719  0.0996 -0.7223
  510MOL0     N67238   5.840   3.554   8.234 -0.1193 -0.2071 -0.8877
  510MOL0     N67239   5.928   3.623   8.173 -0.2338 -0.1389  0.0974
  510MOL0     C67240   6.701   3.903   7.081 -0.0246  0.2979 -0.2405
  510MOL0     C67241   6.822   3.878   7.019  0.4918 -0.2783 -0.7198
  510MOL0     C67242   7.149   3.606   6.868  0.5369 -0.3722 -0.3737
  510MOL0     C67243   7.172   3.469   6.845  0.2483  0.2124 -0.3677
  510MOL0     C67244   7.294   3.419   6.788 -0.3540 -0.3824 -0.1691
  510MOL0     C67245   7.393   3.514   6.746 -1.2969  0.4444  0.4610
  510MOL0     O67246   7.502   3.463   6.678 -0.4057 -0.7900  0.0586
  510MOL0     C67247   7.613   3.548   6.629  0.3697 -0.0341  0.4636
  510MOL0     C67248   7.745   3.474   6.646 -0.7299 -0.0543 -0.7425
  510MOL0     C67249   7.756   3.338   6.573  0.1452 -0.4926 -0.2182
  510MOL0     C67250   7.842   3.332   6.455  0.3563  1.9063  1.5794
  510MOL0     C67251   7.858   3.197   6.401 -1.6626  0.2225  0.1653
  510MOL0     C67252   7.893   3.092   6.345 -0.6649 -0.1308 -0.3619
  510MOL0     C67253   7.374   3.652   6.776 -0.3002  0.1395  0.8043
  510MOL0     C67254   7.253   3.691   6.838 -0.2299 -0.7880  0.1213
  510MOL0     H67255   6.966   3.680   7.263  0.5843  1.8203  0.6440
  510MOL0     H67256   6.763   3.750   7.385  2.3978 -2.3988  0.2662
  510MOL0     H67257   6.587   3.843   7.448  1.7767  0.0217 -2.2495
  510MOL0     H67258   6.538   3.707   7.346  1.3942  0.8723  0.1547
  510MOL0     H67259   6.290   3.811   7.331  0.1715 -1.0491  0.8509
  510MOL0     H67260   6.369   3.952   7.425  3.9402  0.2203  0.5323
  510MOL0     H67261   6.425   3.761   7.594 -0.6179  1.4789  0.8747
  510MOL0     H67262   6.303   3.671   7.500  1.5235 -0.5552 -1.2627
  510MOL0     H67263   6.258   3.952   7.629 -2.1707 -0.4339 -0.3259
  510MOL0     H67264   6.129   3.852   7.584  0.7069  1.7779 -0.8707
  510MOL0     H67265   6.132   3.841   7.805 -3.9479 -4.8154  1.1795
  510MOL0     H67266   6.296   3.779   7.824  0.8731  3.2280 -0.7662
  510MOL0     H67267   6.237   3.582   7.698 -0.5173  1.7971 -2.1023
  510MOL0     H67268   6.071   3.622   7.655  0.2198 -1.5386 -1.1420
  510MOL0     H67269   6.059   3.475   7.843 -3.9017  0.8562  1.3372
  510MOL0     H67270   6.187   3.559   7.920  1.4763 -3.1533 -3.7715
  510MOL0     H67271   5.915   3.686   7.865  2.7598  2.5124 -2.1577
  510MOL0     H67272   6.042   3.740   7.979  3.9747 -0.6436 -3.6096
  510MOL0     H67273   5.819   3.397   7.961 -1.2392  1.4233 -0.1137
  510MOL0     H67274   5.675   3.285   8.125 -0.5381 -0.4280  0.3034
  510MOL0     H67275   5.609   3.426   8.212  0.2452  2.2808 -1.2433
  510MOL0     H67276   5.733   3.340   8.425 -0.7327  0.1769 -0.1462
  510MOL0     H67277   5.810   3.223   8.310 -0.7520 -0.8436 -0.0793
  510MOL0     H67278   5.610   3.113   8.278  1.2090 -0.2317 -0.1196
  510MOL0     H67279   5.641   3.117   8.447  1.4449 -0.1562 -0.8588
  510MOL0     H67280   5.435   3.263   8.281 -0.4957 -1.4331 -0.2197
  510MOL0     H67281   5.462   3.313   8.449  1.4421  1.5294 -2.0021
  510MOL0     H67282   5.225   3.352   8.416  1.1756 -0.7637 -1.1218
  510MOL0     H67283   4.977   3.330   8.402  0.8820  0.2374 -2.3741
  510MOL0     H67284   4.640   2.749   8.501 -1.4468 -0.1481  1.0257
  510MOL0     H67285   4.413   2.692   8.468 -2.3123  0.4624  0.3036
  510MOL0     H67286   4.207   2.879   8.576 -0.7895  0.9829  0.1088
  510MOL0     H67287   4.182   2.707   8.526 -3.8229 -0.7083 -1.5198
  510MOL0     H67288   3.981   2.801   8.390  3.9438 -0.2620 -0.5033
  510MOL0     H67289   3.996   2.951   8.484 -1.3323  0.0518 -0.6288
  510MOL0     H67290   3.989   2.789   8.689 -1.1081  2.7590  1.9113
  510MOL0     H67291   3.894   2.692   8.584  0.1395 -0.5347  0.1769
  510MOL0     H67292   3.828   2.988   8.664  0.8608  0.0806  0.4166
  510MOL0     H67293   3.716   2.878   8.578  1.6303 -0.8625 -1.2169
  510MOL0     H67294   3.822   2.807   8.856 -0.4946 -1.5350  0.2451
  510MOL0     H67295   3.670   2.754   8.781  0.1697  0.1654  1.0203
  510MOL0     H67296   3.596   2.998   8.785 -0.1465  3.4548  1.7437
  510MOL0     H67297   3.732   3.038   8.888 -1.6404  0.4327 -0.8829
  510MOL0     H67298   3.673   2.851   9.044  0.8952  0.5767 -1.6713
  510MOL0     H67299   3.587   3.014   9.049 -0.1234  0.1243 -0.4415
  510MOL0     H67300   3.505   2.748   8.939  1.6414 -0.7107  2.5863
  510MOL0     H67301   3.401   2.897   8.937 -0.5857  0.3999  0.4645
  510MOL0     H67302   4.335   3.066   8.271  1.6826 -1.8127 -4.1053
  510MOL0     H67303   4.577   3.137   8.319  1.1895  0.4513  1.8665
  510MOL0     H67304   5.010   2.900   8.463 -1.7150  1.0505  1.1086
  510MOL0     H67305   5.245   2.922   8.444  0.3671 -0.2755 -1.0607
  510MOL0     H67306   6.627   3.961   7.027 -0.4117 -0.5236 -0.6064
  510MOL0     H67307   6.844   3.915   6.919  4.0164  2.5103  0.8652
  510MOL0     H67308   7.095   3.400   6.876  0.9943 -0.1394  0.7560
  510MOL0     H67309   7.310   3.315   6.761 -0.8863 -1.1602  2.2098
  510MOL0     H67310   7.620   3.652   6.662 -0.3165  0.9968 -2.3050
  510MOL0     H67311   7.607   3.548   6.519 -0.9882 -0.4174  0.5174
  510MOL0     H67312   7.828   3.528   6.600  1.8334 -1.2700  2.0806
  510MOL0     H67313   7.767   3.459   6.752 -2.0112  0.5514 -0.3748
  510MOL0     H67314   7.652   3.316   6.549 -0.6189  0.8592  1.6583
  510MOL0     H67315   7.794   3.268   6.648  4.0628  0.9527 -0.5905
  510MOL0     H67316   7.793   3.394   6.380 -0.4231  0.9487  1.2653
  510MOL0     H67317   7.944   3.365   6.478  1.0711 -0.7007  2.5456
  510MOL0     H67318   7.927   2.999   6.304  1.4299  0.1812  0.5231
  510MOL0     H67319   7.444   3.730   6.747 -1.2167  1.0912  1.1187
  510MOL0     H67320   7.240   3.793   6.873 -0.8167 -0.6948 -0.3651
  511MOL0     O67321   1.608   7.387   4.635 -0.1170  0.0203 -0.2322
  511MOL0     C67322   1.648   7.500   4.626  0.1602 -0.4341 -0.0986
  511MOL0     O67323   1.585   7.607   4.684  0.0907  0.6096 -0.6712
  511MOL0     C67324   1.466   7.584   4.747 -0.1289 -0.3972  0.2468
  511MOL0     C67325   1.456   7.583   4.886 -0.9880  0.3459 -0.2577
  511MOL0     C67326   1.331   7.573   4.961  0.5584 -0.2459  0.1136
  511MOL0     C67327   1.216   7.542   4.886 -0.1001  0.5880  0.1318
  511MOL0     O67328   1.095   7.512   4.943  0.3462  0.3333  0.4027
  511MOL0     C67329   1.081   7.499   5.085 -0.2528 -0.2227 -0.2785
  511MOL0     C67330   0.943   7.497   5.140  0.8112 -0.4219  0.6070
  511MOL0     C67331   0.873   7.371   5.101  0.6727 -1.0126 -0.2176
  511MOL0     C67332   0.726   7.365   5.145 -0.4172  0.3958  0.1211
  511MOL0     C67333   0.635   7.450   5.061  0.4855  0.3191  0.0176
  511MOL0     C67334   0.489   7.428   5.104 -0.1182  0.2816 -0.5818
  511MOL0     C67335   0.382   7.502   5.027 -0.0846  0.3176  0.4797
  511MOL0     C67336   0.377   7.649   5.065 -0.4943 -0.5872 -0.5928
  511MOL0     N67337   0.293   7.726   4.967  0.3110  0.1250  0.3333
  511MOL0     C67338   0.162   7.732   4.973  0.5986 -0.1804 -0.2731
  511MOL0     C67339   0.123   7.791   4.859 -0.1709 -0.5268  0.4262
  511MOL0     C67340  -0.018   7.841   4.824  0.4640  0.3468  0.1201
  511MOL0     C67341  -0.120   7.727   4.811  1.2485 -0.1340 -0.1201
  511MOL0     C67342  -0.081   7.618   4.722 -0.3063 -0.4320  0.2662
  511MOL0     C67343  -0.186   7.509   4.717  0.7178 -0.0905 -1.0791
  511MOL0     O67344  -0.235   7.481   4.846 -0.0132  0.5711 -0.1030
  511MOL0     C67345  -0.356   7.426   4.854  0.5499  1.5070  0.1757
  511MOL0     C67346  -0.445   7.453   4.957 -0.3537  0.1402  0.0108
  511MOL0     C67347  -0.576   7.418   4.948  0.6250  0.2147 -0.3498
  511MOL0     C67348  -0.625   7.338   4.846  0.2511 -0.0859 -0.4591
  511MOL0     C67349  -0.769   7.310   4.825 -0.1569  0.3056 -0.2909
  511MOL0     O67350  -0.859   7.336   4.928 -0.6308 -0.1773  0.3631
  511MOL0     C67351  -0.977   7.277   4.933 -0.2824  0.1368  0.7331
  511MOL0     C67352  -1.092   7.356   4.936  0.0088  0.4232 -1.2997
  511MOL0     C67353  -1.224   7.309   4.946  0.6868 -0.1723  0.0177
  511MOL0     C67354  -1.245   7.170   4.949  0.4340 -0.9414  0.1614
  511MOL0     O67355  -1.374   7.132   4.976  0.0092  0.2488 -0.0056
  511MOL0     C67356  -1.397   6.990   5.001  0.3431 -0.0337  0.3649
  511MOL0     C67357  -1.544   6.959   5.052 -0.0415 -0.8397 -0.2851
  511MOL0     C67358  -1.656   6.977   4.942 -0.2204 -0.5161  0.3456
  511MOL0     C67359  -1.799   6.990   4.995 -0.0515  0.4673 -0.8921
  511MOL0     C67360  -1.901   7.020   4.891 -0.3107 -0.5775  0.0380
  511MOL0     C67361  -2.042   7.017   4.963 -0.6222 -0.4981  0.2383
  511MOL0     C67362  -2.135   7.124   4.909 -0.2177 -0.0240 -0.1979
  511MOL0     C67363  -2.276   7.094   4.956 -0.1931 -0.6864 -0.1790
  511MOL0    Cl67364  -2.291   7.073   5.134 -0.3432 -0.2289 -0.2074
  511MOL0     C67365  -1.138   7.089   4.915 -0.0867  0.0499 -0.5602
  511MOL0     C67366  -1.000   7.133   4.915  0.1243  0.4395  0.0455
  511MOL0     O67367  -0.802   7.270   4.716  0.4147  0.7443  0.0074
  511MOL0     C67368  -0.527   7.291   4.753  0.5092  0.4574 -0.5651
  511MOL0     C67369  -0.398   7.332   4.754 -0.8951  0.0378  0.9336
  511MOL0     N67370   0.238   7.815   4.780  0.9923 -0.0093 -0.1813
  511MOL0     N67371   0.343   7.770   4.849  0.7822 -0.1380 -0.2862
  511MOL0     C67372   1.233   7.522   4.744  0.1479 -0.1291 -0.1417
  511MOL0     C67373   1.349   7.554   4.682 -0.2833 -0.2673  0.2543
  511MOL0     C67374   1.785   7.520   4.571  0.3527 -0.4935 -0.3481
  511MOL0     C67375   1.844   7.642   4.585  0.5923 -0.3816 -0.5330
  511MOL0     C67376   1.965   7.669   4.522  0.8120  0.1677 -0.4199
  511MOL0     C67377   2.038   7.572   4.452 -0.1525 -0.8135 -0.9140
  511MOL0     O67378   2.157   7.605   4.399  0.6692 -0.3609  0.0276
  511MOL0     C67379   2.163   7.602   4.257  0.3783 -0.0211  0.8974
  511MOL0     C67380   2.272   7.698   4.204  0.1071  0.4273 -0.3019
  511MOL0     C67381   2.282   7.699   4.053 -1.0846  0.2571 -0.2229
  511MOL0     C67382   2.357   7.579   3.987 -0.2178 -0.0904 -0.4977
  511MOL0     C67383   2.281   7.455   3.980 -0.2428  0.2100 -0.2368
  511MOL0     C67384   2.227   7.351   3.968 -0.2693 -0.3087 -0.0353
  511MOL0     C67385   1.975   7.446   4.439  0.4294  0.3637 -1.0073
  511MOL0     C67386   1.850   7.421   4.498  0.4540 -0.4616 -0.7172
  511MOL0     H67387   1.545   7.608   4.943 -0.7397  0.7853 -0.8213
  511MOL0     H67388   1.336   7.564   5.069  1.6002  2.1351  0.3212
  511MOL0     H67389   1.133   7.584   5.130 -0.0086  0.0658 -1.0810
  511MOL0     H67390   1.131   7.409   5.121  0.1659 -0.4407 -1.3632
  511MOL0     H67391   0.899   7.578   5.080  1.8530 -0.7594 -0.6415
  511MOL0     H67392   0.943   7.512   5.248  3.0506  0.2339  0.5512
  511MOL0     H67393   0.930   7.287   5.142  1.1447 -0.0451  1.1861
  511MOL0     H67394   0.866   7.357   4.992 -2.5921 -0.0686 -0.2108
  511MOL0     H67395   0.698   7.262   5.120 -1.1879  0.6202  0.0278
  511MOL0     H67396   0.715   7.391   5.250 -0.5606  0.1868  0.1570
  511MOL0     H67397   0.657   7.424   4.958  5.0705  1.2633  0.5285
  511MOL0     H67398   0.659   7.557   5.053 -0.0538  0.3332 -1.7342
  511MOL0     H67399   0.478   7.462   5.207 -2.2191 -1.3394 -0.1867
  511MOL0     H67400   0.464   7.322   5.095 -0.1329  0.4235 -2.8448
  511MOL0     H67401   0.403   7.497   4.920 -1.1896  3.4264  0.0330
  511MOL0     H67402   0.284   7.454   5.035  0.8442 -2.0861 -1.3778
  511MOL0     H67403   0.480   7.683   5.069 -0.0843 -1.7477 -0.7519
  511MOL0     H67404   0.332   7.679   5.160  1.7775  0.2305  0.2764
  511MOL0     H67405   0.103   7.695   5.056  4.2357 -1.0013  2.1972
  511MOL0     H67406  -0.019   7.904   4.735  0.5642 -0.9830 -0.8554
  511MOL0     H67407  -0.043   7.900   4.912  0.5478 -2.1564  1.9396
  511MOL0     H67408  -0.209   7.784   4.781  2.2873  2.3791  1.1800
  511MOL0     H67409  -0.135   7.681   4.909  0.3438 -4.3977 -2.0398
  511MOL0     H67410  -0.077   7.668   4.624  1.0708  0.5750  0.7900
  511MOL0     H67411   0.014   7.575   4.754  0.0162  0.5694  0.6824
  511MOL0     H67412  -0.130   7.429   4.667  0.5224 -1.7679  1.2043
  511MOL0     H67413  -0.269   7.544   4.657 -0.9360  1.4223  1.8767
  511MOL0     H67414  -0.423   7.521   5.039 -0.0299 -0.2867  0.2833
  511MOL0     H67415  -0.647   7.450   5.023 -1.0628  0.5180 -1.9889
  511MOL0     H67416  -1.079   7.464   4.929  0.9083  0.5067  0.7753
  511MOL0     H67417  -1.309   7.373   4.968  0.4187 -1.1376  1.9872
  511MOL0     H67418  -1.327   6.949   5.074  2.8662 -1.0965 -2.4295
  511MOL0     H67419  -1.376   6.931   4.911  2.1582  0.4522  0.4371
  511MOL0     H67420  -1.561   7.031   5.133 -2.6836  1.9625 -3.0379
  511MOL0     H67421  -1.550   6.857   5.091  2.6624  0.5050  4.4210
  511MOL0     H67422  -1.653   6.896   4.868  1.7422  0.4226 -0.6852
  511MOL0     H67423  -1.637   7.067   4.883 -2.4455  0.7337  1.4152
  511MOL0     H67424  -1.823   6.895   5.043 -1.6484  0.9214 -0.7228
  511MOL0     H67425  -1.802   7.062   5.078  0.4913  1.4269 -1.6873
  511MOL0     H67426  -1.902   6.946   4.810  0.5370  1.0927 -1.5501
  511MOL0     H67427  -1.885   7.121   4.853  0.4648 -1.0612 -0.9778
  511MOL0     H67428  -2.040   7.022   5.072 -2.4833  0.6504  0.2658
  511MOL0     H67429  -2.092   6.925   4.933  0.1469 -1.4236  1.6925
  511MOL0     H67430  -2.115   7.225   4.947 -0.3492 -0.4265  0.9861
  511MOL0     H67431  -2.128   7.125   4.800  1.4718 -1.6484 -0.1528
  511MOL0     H67432  -2.310   7.005   4.902  2.3661 -1.5666 -0.4730
  511MOL0     H67433  -2.337   7.180   4.927  0.0161  0.6828  2.9644
  511MOL0     H67434  -1.152   6.981   4.916  0.0476  0.0243  1.3506
  511MOL0     H67435  -0.918   7.066   4.893  0.7557  1.5967 -1.3319
  511MOL0     H67436  -0.562   7.231   4.670 -1.1211  0.2257  0.2574
  511MOL0     H67437  -0.320   7.293   4.689 -2.1515  2.9307 -2.6209
  511MOL0     H67438   1.144   7.487   4.693 -0.1398 -3.5394  2.3131
  511MOL0     H67439   1.348   7.557   4.573 -0.1455 -1.9382  0.1880
  511MOL0     H67440   1.792   7.722   4.638 -2.8410 -2.3296 -0.6173
  511MOL0     H67441   2.009   7.768   4.520  2.0206 -0.3612 -1.5568
  511MOL0     H67442   2.069   7.602   4.201  1.1407 -0.6381 -0.4167
  511MOL0     H67443   2.202   7.504   4.231 -3.1036 -0.3042 -5.2273
  511MOL0     H67444   2.242   7.802   4.218  2.8774  1.5958 -2.2997
  511MOL0     H67445   2.362   7.671   4.259  1.4851 -0.0237 -2.6373
  511MOL0     H67446   2.330   7.786   4.008  1.2673 -2.9639 -4.7818
  511MOL0     H67447   2.182   7.696   4.009 -0.7426  0.1116 -1.0044
  511MOL0     H67448   2.381   7.605   3.884  2.1655 -1.8336 -0.4618
  511MOL0     H67449   2.454   7.551   4.029 -0.1471 -0.3079 -0.8089
  511MOL0     H67450   2.194   7.252   3.946  0.1768 -0.2171 -1.1506
  511MOL0     H67451   2.030   7.371   4.383 -0.5470  0.3217 -1.9512
  511MOL0     H67452   1.804   7.325   4.475  0.3538 -0.4671 -0.4937
  512MOL0     O67453   6.117   0.737   6.944 -0.0355  0.3794  0.4048
  512MOL0     C67454   6.111   0.841   6.878 -0.0593  0.6847 -0.5756
  512MOL0     O67455   6.201   0.879   6.781  0.6455  0.6908  0.3732
  512MOL0     C67456   6.294   0.784   6.751 -0.1278 -0.4737  0.8042
  512MOL0     C67457   6.372   0.733   6.846  0.1739 -1.0397 -0.3547
  512MOL0     C67458   6.460   0.630   6.825 -0.3753  0.1004 -0.6808
  512MOL0     C67459   6.483   0.575   6.698 -0.0731  0.5533 -0.1791
  512MOL0     O67460   6.587   0.482   6.697 -0.1626 -0.0657 -0.3151
  512MOL0     C67461   6.598   0.411   6.572 -0.3102 -0.4568 -0.6022
  512MOL0     C67462   6.710   0.299   6.585  0.1261 -0.7027 -0.0535
  512MOL0     C67463   6.828   0.361   6.651  0.4201  0.3686 -0.0599
  512MOL0     C67464   6.928   0.243   6.646 -0.6318  0.0239  0.0958
  512MOL0     C67465   7.059   0.271   6.717  0.6074 -0.7137 -0.7066
  512MOL0     C67466   7.129   0.392   6.678 -0.2955 -0.5965  0.3144
  512MOL0     C67467   7.288   0.389   6.680  0.6293  0.2755 -0.3284
  512MOL0     C67468   7.334   0.512   6.603  0.5213  0.3409  0.6525
  512MOL0     N67469   7.479   0.501   6.596 -0.3062 -0.2866  0.0635
  512MOL0     C67470   7.566   0.477   6.701  0.1666  0.4376 -0.6266
  512MOL0     C67471   7.693   0.480   6.653 -0.0055  0.0085 -0.6137
  512MOL0     C67472   7.815   0.447   6.738 -0.6648  0.2753  0.5593
  512MOL0     C67473   7.932   0.375   6.661 -0.3915 -0.7755 -0.2471
  512MOL0     C67474   8.043   0.328   6.751  0.0937  0.2168 -0.2341
  512MOL0     C67475   8.142   0.241   6.664 -0.4524  0.7774  0.0109
  512MOL0     O67476   8.256   0.203   6.749 -0.7507  0.9573  0.4917
  512MOL0     C67477   8.384   0.229   6.698  0.6777  0.5283  0.7803
  512MOL0     C67478   8.483   0.131   6.667 -0.3202  0.0008 -0.0952
  512MOL0     C67479   8.616   0.177   6.675 -0.1926 -0.6959  0.2186
  512MOL0     C67480   8.648   0.312   6.671 -0.5243  0.0647 -0.6782
  512MOL0     C67481   8.786   0.357   6.649 -0.8396  0.7727  0.1026
  512MOL0     O67482   8.869   0.269   6.584 -0.6145 -0.1916 -0.0427
  512MOL0     C67483   8.992   0.326   6.558 -0.5694 -0.0068  0.3464
  512MOL0     C67484   9.089   0.329   6.668 -0.0296 -0.2612 -0.2514
  512MOL0     C67485   9.220   0.363   6.623 -0.2103 -0.4608  0.2457
  512MOL0     C67486   9.251   0.395   6.490 -0.4623 -0.5309 -0.3277
  512MOL0     O67487   9.373   0.436   6.448 -0.1522 -0.6297 -0.1042
  512MOL0     C67488   9.482   0.385   6.517  0.1126  0.3822  0.4845
  512MOL0     C67489   9.615   0.391   6.435 -0.4426  1.0047 -0.6168
  512MOL0     C67490   9.733   0.389   6.534  0.5169 -0.2183  0.5416
  512MOL0     C67491   9.864   0.405   6.449 -0.1450  0.0794  0.0736
  512MOL0     C67492   9.893   0.546   6.383  0.6813  0.4028  0.3266
  512MOL0     C67493  10.015   0.530   6.295 -0.4989  0.7794 -0.3074
  512MOL0     C67494  10.042   0.651   6.210 -0.3484  0.2341  0.0241
  512MOL0     C67495  10.179   0.646   6.134  0.2659 -0.3659 -0.4975
  512MOL0    Cl67496  10.310   0.636   6.256  0.0238 -0.4071  0.1223
  512MOL0     C67497   9.153   0.389   6.397  0.6500 -0.2219  0.1701
  512MOL0     C67498   9.022   0.363   6.421  0.1637 -0.2382 -0.3319
  512MOL0     O67499   8.818   0.473   6.680  0.6637 -0.3622 -0.1289
  512MOL0     C67500   8.545   0.406   6.695  0.1464  0.9656 -0.4663
  512MOL0     C67501   8.416   0.361   6.705 -0.4888  0.3526 -0.6211
  512MOL0     N67502   7.689   0.498   6.520 -1.0532  0.0366  0.3423
  512MOL0     N67503   7.566   0.521   6.480 -0.2021 -0.6930  0.4774
  512MOL0     C67504   6.402   0.628   6.596 -0.6165  0.5804  0.3539
  512MOL0     C67505   6.304   0.726   6.618 -0.0746 -0.1054  1.0013
  512MOL0     C67506   5.980   0.920   6.878 -0.1151  0.8494  0.3030
  512MOL0     C67507   5.896   0.927   6.988  0.2617 -0.1095 -0.0071
  512MOL0     C67508   5.786   1.005   6.986  0.0385  0.3181 -0.0454
  512MOL0     C67509   5.745   1.079   6.877  0.1695 -0.7235 -0.3907
  512MOL0     O67510   5.642   1.177   6.874  0.0147 -0.2487  0.6676
  512MOL0     C67511   5.534   1.153   6.971 -0.2045  0.1489  0.1588
  512MOL0     C67512   5.423   1.247   6.950 -0.2154  0.2454  0.4442
  512MOL0     C67513   5.354   1.224   6.814  0.2291  0.2610 -0.1437
  512MOL0     C67514   5.252   1.343   6.763 -0.8973 -0.2631 -0.5298
  512MOL0     C67515   5.150   1.344   6.869 -0.1010  0.6759 -0.0324
  512MOL0     C67516   5.072   1.335   6.970  0.6342 -0.6685 -0.0768
  512MOL0     C67517   5.836   1.072   6.770 -0.4598 -0.6292  0.2429
  512MOL0     C67518   5.951   0.997   6.763 -0.1750  0.3536 -0.0230
  512MOL0     H67519   6.371   0.778   6.945 -1.4288  1.1330 -1.2767
  512MOL0     H67520   6.520   0.596   6.909 -0.2090  0.0098 -0.8359
  512MOL0     H67521   6.620   0.477   6.487 -1.0841 -0.0524 -0.4987
  512MOL0     H67522   6.505   0.360   6.543  0.2658  0.3529 -4.5113
  512MOL0     H67523   6.735   0.253   6.489 -0.3291  2.1807 -1.6661
  512MOL0     H67524   6.668   0.226   6.655 -2.1933 -0.8361 -1.4891
  512MOL0     H67525   6.810   0.401   6.752 -0.8932 -1.5191  0.5067
  512MOL0     H67526   6.865   0.444   6.591  0.4523 -0.3013 -0.9803
  512MOL0     H67527   6.880   0.154   6.688 -0.7980 -0.5450 -1.2459
  512MOL0     H67528   6.952   0.227   6.540  0.0144  1.4182  0.0089
  512MOL0     H67529   7.118   0.181   6.700  1.5207 -0.7420  2.1087
  512MOL0     H67530   7.038   0.254   6.823  1.5027  0.4513 -0.3146
  512MOL0     H67531   7.101   0.480   6.736 -0.8339 -0.8760  0.4885
  512MOL0     H67532   7.100   0.409   6.574  1.4973  2.1572  0.1511
  512MOL0     H67533   7.324   0.400   6.783  3.0700 -2.4201 -0.7913
  512MOL0     H67534   7.307   0.288   6.644 -0.8083 -0.9463  2.0341
  512MOL0     H67535   7.298   0.606   6.646 -0.3006  0.7126 -0.7650
  512MOL0     H67536   7.295   0.496   6.502 -0.0867 -0.2110  0.9643
  512MOL0     H67537   7.546   0.465   6.807  2.5220  2.5631  0.1448
  512MOL0     H67538   7.779   0.381   6.817 -0.3284  0.1858  0.6367
  512MOL0     H67539   7.851   0.542   6.779  1.0801  0.5227 -1.3630
  512MOL0     H67540   7.979   0.441   6.589 -0.2295  1.5342  1.8334
  512MOL0     H67541   7.899   0.286   6.607 -0.5623 -2.1914  2.0354
  512MOL0     H67542   8.088   0.418   6.793 -0.6726  1.0805 -1.2136
  512MOL0     H67543   8.000   0.269   6.833 -0.7124 -0.1637 -0.9134
  512MOL0     H67544   8.176   0.283   6.569 -0.0437 -0.8412 -0.5898
  512MOL0     H67545   8.090   0.146   6.659 -3.9859  2.3721  2.4188
  512MOL0     H67546   8.456   0.027   6.650 -0.3914 -0.1506  0.8890
  512MOL0     H67547   8.690   0.102   6.648  0.2850 -0.6297  1.2624
  512MOL0     H67548   9.062   0.297   6.769  0.3201 -1.4603 -0.5193
  512MOL0     H67549   9.293   0.387   6.700  0.1069 -0.0422 -0.1802
  512MOL0     H67550   9.457   0.280   6.536 -2.1127  0.1894 -2.6441
  512MOL0     H67551   9.497   0.435   6.613 -1.3730 -1.0220  1.5181
  512MOL0     H67552   9.613   0.485   6.378 -3.3844  1.5847  0.2954
  512MOL0     H67553   9.626   0.304   6.370  0.0275 -0.9622  1.9313
  512MOL0     H67554   9.739   0.295   6.590 -0.9769  0.6007  2.1481
  512MOL0     H67555   9.708   0.467   6.607 -2.9251 -2.3649  1.9024
  512MOL0     H67556   9.940   0.380   6.524 -0.2389 -1.4517 -0.2989
  512MOL0     H67557   9.864   0.319   6.381 -2.2454 -0.2751  0.4483
  512MOL0     H67558   9.910   0.612   6.468  0.9436  0.0503  0.5470
  512MOL0     H67559   9.809   0.583   6.323  1.5087  2.6698  0.4591
  512MOL0     H67560  10.005   0.450   6.221  2.6551 -1.0807  1.0867
  512MOL0     H67561  10.103   0.523   6.360 -0.0898 -1.1763 -1.0184
  512MOL0     H67562   9.955   0.676   6.148 -1.9380 -1.2158  1.5524
  512MOL0     H67563  10.051   0.734   6.281  1.5652  0.0407  0.0515
  512MOL0     H67564  10.181   0.733   6.067 -0.6975  1.3640  1.6024
  512MOL0     H67565  10.179   0.549   6.083  4.4941 -0.0269 -1.4999
  512MOL0     H67566   9.183   0.428   6.300  2.1551 -0.9167  0.3257
  512MOL0     H67567   8.952   0.362   6.339  0.3785  0.0716 -0.5207
  512MOL0     H67568   8.563   0.512   6.697  0.5320  0.9007  1.2490
  512MOL0     H67569   8.332   0.426   6.726 -0.9000 -0.5286  0.5520
  512MOL0     H67570   6.424   0.585   6.498  0.0662  0.6088  0.4926
  512MOL0     H67571   6.251   0.765   6.533  0.4149 -0.4866  0.5104
  512MOL0     H67572   5.917   0.863   7.073  0.0835  1.8635  1.5914
  512MOL0     H67573   5.712   0.988   7.063 -2.9598  2.1374 -2.2966
  512MOL0     H67574   5.571   1.153   7.074 -0.3175 -0.5709  0.2079
  512MOL0     H67575   5.496   1.051   6.961  2.5928 -1.3116  2.8081
  512MOL0     H67576   5.344   1.225   7.022 -0.9636  0.0929 -0.4061
  512MOL0     H67577   5.451   1.352   6.962  0.4333 -0.1307  2.6463
  512MOL0     H67578   5.288   1.137   6.821  0.6402  0.0499  1.2573
  512MOL0     H67579   5.425   1.202   6.734 -0.0976 -0.1996 -0.3086
  512MOL0     H67580   5.290   1.446   6.755 -1.7805  0.4315  2.9231
  512MOL0     H67581   5.210   1.316   6.665 -0.0999  0.4767 -1.0959
  512MOL0     H67582   4.994   1.335   7.043 -0.4175 -2.4668 -1.1533
  512MOL0     H67583   5.823   1.143   6.689  1.4758  0.2629  0.6473
  512MOL0     H67584   6.008   1.005   6.671  0.0189 -0.1921  0.0463
  513MOL0     O67585   2.572   6.420   9.355  0.0438  0.1960  0.0258
  513MOL0     C67586   2.649   6.368   9.275  0.9537  0.2908  0.1761
  513MOL0     O67587   2.622   6.259   9.191 -0.5728  0.1541  0.3668
  513MOL0     C67588   2.503   6.190   9.196 -0.7698  0.6977  0.0103
  513MOL0     C67589   2.519   6.053   9.197 -1.0462  0.1809 -0.2851
  513MOL0     C67590   2.407   5.968   9.217  0.0135 -0.3992  0.8969
  513MOL0     C67591   2.279   6.024   9.242 -0.3620  0.4659  0.6129
  513MOL0     O67592   2.188   5.930   9.276 -0.2036  0.2372  0.9753
  513MOL0     C67593   2.049   5.959   9.278 -0.7743 -0.7612  0.5403
  513MOL0     C67594   1.980   5.819   9.289  0.0039 -0.6170  0.3854
  513MOL0     C67595   1.830   5.831   9.305  0.2107  0.3595  0.4011
  513MOL0     C67596   1.792   5.856   9.451  0.0294  0.3561  0.0711
  513MOL0     C67597   1.643   5.843   9.455  0.2663  0.0785 -0.0019
  513MOL0     C67598   1.599   5.877   9.588  0.0811  0.2978  0.3527
  513MOL0     C67599   1.446   5.916   9.604 -0.7331 -0.2747  0.2914
  513MOL0     C67600   1.407   5.975   9.741 -0.0566 -0.2600  0.0354
  513MOL0     N67601   1.443   5.881   9.850 -0.0726 -0.1057  0.3386
  513MOL0     C67602   1.544   5.902   9.939 -0.1211 -0.0929 -1.1069
  513MOL0     C67603   1.505   5.830  10.042 -0.4560 -0.2090  0.2135
  513MOL0     C67604   1.584   5.821  10.181  0.0493 -0.0725  0.7330
  513MOL0     C67605   1.507   5.719  10.265 -0.5898  0.6602  0.2098
  513MOL0     C67606   1.569   5.717  10.412  0.8337  0.7116  0.6148
  513MOL0     C67607   1.464   5.655  10.516  0.2136  0.3993 -0.6768
  513MOL0     O67608   1.342   5.726  10.523 -0.2934  0.4436  0.0069
  513MOL0     C67609   1.255   5.691  10.626 -0.3498 -0.6823  0.7811
  513MOL0     C67610   1.246   5.566  10.677  0.4387 -0.4252 -0.9778
  513MOL0     C67611   1.139   5.532  10.761  0.0474  0.3289  0.0922
  513MOL0     C67612   1.051   5.632  10.807  0.0602  0.5731 -0.1461
  513MOL0     C67613   0.938   5.591  10.893 -0.2395 -0.0910  1.0647
  513MOL0     O67614   0.851   5.688  10.928 -0.3926 -0.5108 -0.2081
  513MOL0     C67615   0.770   5.685  11.046 -0.5808  0.5416 -0.3887
  513MOL0     C67616   0.651   5.752  11.052  0.6582  0.5145  0.8301
  513MOL0     C67617   0.572   5.763  11.160 -0.0877 -0.0066  0.2829
  513MOL0     C67618   0.606   5.702  11.280  0.4218  0.1440 -0.5474
  513MOL0     O67619   0.549   5.706  11.402  0.4057 -0.1970 -0.3364
  513MOL0     C67620   0.430   5.777  11.416 -0.4495  0.4158 -0.1114
  513MOL0     C67621   0.394   5.764  11.562 -0.4041  0.2145 -0.1199
  513MOL0     C67622   0.262   5.841  11.590  0.3947 -0.1055  0.1545
  513MOL0     C67623   0.178   5.763  11.685  0.6790  0.1813 -0.0402
  513MOL0     C67624   0.050   5.833  11.719  0.7907 -0.2958  0.4496
  513MOL0     C67625  -0.062   5.739  11.770 -0.9336 -0.3761  0.1939
  513MOL0     C67626  -0.175   5.821  11.835 -0.3259 -0.0584  0.4205
  513MOL0     C67627  -0.279   5.729  11.906 -0.2195 -0.4918  0.3213
  513MOL0    Cl67628  -0.354   5.596  11.798  0.0329  0.0076  0.2287
  513MOL0     C67629   0.724   5.628  11.279 -0.3181 -0.1984  0.0649
  513MOL0     C67630   0.805   5.619  11.167  0.0251 -0.1230  0.4768
  513MOL0     O67631   0.931   5.478  10.931  0.0508  0.0612 -0.9612
  513MOL0     C67632   1.065   5.764  10.767  0.0546  0.1584 -0.4230
  513MOL0     C67633   1.153   5.785  10.658 -0.8840 -1.0342 -0.7715
  513MOL0     N67634   1.385   5.761  10.011  0.2353 -0.4813  0.2872
  513MOL0     N67635   1.347   5.799   9.893  0.4202  0.6889 -1.0302
  513MOL0     C67636   2.268   6.159   9.248 -0.6358  0.2444  0.2719
  513MOL0     C67637   2.377   6.239   9.232 -0.0354 -0.1367 -0.3258
  513MOL0     C67638   2.788   6.423   9.260 -0.4975 -0.5366 -0.5264
  513MOL0     C67639   2.872   6.387   9.150  0.2226 -0.8748  0.1700
  513MOL0     C67640   2.998   6.444   9.123 -0.2334  0.0057 -0.2154
  513MOL0     C67641   3.045   6.539   9.218 -0.3767  0.0603  0.0501
  513MOL0     O67642   3.170   6.586   9.211 -0.3949  0.4541  0.0999
  513MOL0     C67643   3.242   6.582   9.090  0.3758  0.7393  0.1145
  513MOL0     C67644   3.355   6.677   9.088 -0.3634 -0.3992  0.0328
  513MOL0     C67645   3.474   6.612   9.020  0.4776 -0.3822  0.1533
  513MOL0     C67646   3.600   6.713   9.018  0.0252  0.3020 -0.4611
  513MOL0     C67647   3.732   6.654   9.000 -0.2289  0.1795 -0.0305
  513MOL0     C67648   3.838   6.596   8.972 -0.5825  0.5461 -0.3753
  513MOL0     C67649   2.956   6.582   9.319 -0.6440  0.1337 -0.7851
  513MOL0     C67650   2.828   6.533   9.346  0.7119  0.5998 -0.5948
  513MOL0     H67651   2.616   6.005   9.187 -0.6129  1.1297 -0.7797
  513MOL0     H67652   2.420   5.860   9.220  1.4316 -0.3348 -1.0894
  513MOL0     H67653   2.024   6.003   9.181  0.5859 -0.8182  0.1449
  513MOL0     H67654   2.020   6.022   9.363 -1.4160 -1.0161  0.5190
  513MOL0     H67655   2.035   5.749   9.353  0.8995 -1.0428 -0.8086
  513MOL0     H67656   1.996   5.761   9.198  2.0652 -1.8332  1.4406
  513MOL0     H67657   1.779   5.743   9.266  0.7399  0.9326 -1.6801
  513MOL0     H67658   1.791   5.916   9.248  0.4158 -0.0792 -0.4034
  513MOL0     H67659   1.839   5.777   9.511  0.9068  1.1595  0.4873
  513MOL0     H67660   1.820   5.956   9.487  0.9709 -0.2425  1.0780
  513MOL0     H67661   1.614   5.737   9.450  0.9781 -0.2508  1.8695
  513MOL0     H67662   1.606   5.914   9.380 -1.0363  0.2154  0.7405
  513MOL0     H67663   1.662   5.962   9.617  2.4988 -0.2193 -2.7280
  513MOL0     H67664   1.621   5.801   9.663 -2.2250  0.9763  1.8056
  513MOL0     H67665   1.419   5.996   9.535 -3.0481 -0.9627  0.3138
  513MOL0     H67666   1.390   5.824   9.583 -1.4324  0.2987 -0.3601
  513MOL0     H67667   1.301   5.994   9.756 -0.0339  0.6063 -0.8074
  513MOL0     H67668   1.453   6.072   9.763  2.1521 -1.0407 -0.7618
  513MOL0     H67669   1.633   5.964   9.938 -0.3233  0.2450  0.1780
  513MOL0     H67670   1.598   5.922  10.219  4.7789  0.0101 -0.5832
  513MOL0     H67671   1.688   5.788  10.170 -0.0399 -0.1475  0.0609
  513MOL0     H67672   1.512   5.615  10.231 -2.5132  0.0300  1.6505
  513MOL0     H67673   1.402   5.748  10.261  0.0181  2.8993 -0.8695
  513MOL0     H67674   1.649   5.643  10.407 -2.3605 -3.0590 -0.0058
  513MOL0     H67675   1.608   5.817  10.434  1.0645  0.5698  0.8549
  513MOL0     H67676   1.500   5.665  10.619 -4.2092  2.9383  0.9384
  513MOL0     H67677   1.442   5.552  10.485 -1.0884  0.8977 -1.5097
  513MOL0     H67678   1.312   5.488  10.642 -1.8097 -2.4906 -0.8836
  513MOL0     H67679   1.126   5.427  10.783 -0.1510 -0.1092 -1.9062
  513MOL0     H67680   0.629   5.810  10.963 -1.5091 -0.5520  0.6120
  513MOL0     H67681   0.492   5.836  11.162  1.2338  1.5388 -0.4985
  513MOL0     H67682   0.347   5.747  11.352  0.2500  1.3757 -1.5304
  513MOL0     H67683   0.447   5.881  11.387  1.3577 -0.2751 -1.7970
  513MOL0     H67684   0.478   5.801  11.621  0.1741 -1.1145 -0.0814
  513MOL0     H67685   0.389   5.658  11.587  1.0644 -0.1132 -1.1008
  513MOL0     H67686   0.194   5.846  11.504  1.3646 -2.4897 -0.8417
  513MOL0     H67687   0.284   5.944  11.621  1.0161 -0.4418  0.8625
  513MOL0     H67688   0.146   5.671  11.634 -1.9757  1.7309 -1.3845
  513MOL0     H67689   0.228   5.734  11.778 -0.5237 -1.1341  0.2492
  513MOL0     H67690   0.006   5.870  11.626  2.8394  0.1803 -0.3871
  513MOL0     H67691   0.068   5.902  11.801  1.1660  1.2566 -0.8838
  513MOL0     H67692  -0.017   5.672  11.844 -0.0463 -1.8856 -1.6053
  513MOL0     H67693  -0.096   5.685  11.681  0.2144  0.2393 -0.6399
  513MOL0     H67694  -0.130   5.892  11.904 -0.8469  0.7848 -0.0990
  513MOL0     H67695  -0.224   5.882  11.760  0.2781  0.7736  0.6912
  513MOL0     H67696  -0.368   5.788  11.928 -0.4898 -0.6035 -0.4488
  513MOL0     H67697  -0.235   5.682  11.995  1.7499 -1.3048 -1.0251
  513MOL0     H67698   0.766   5.576  11.364 -1.2774 -1.9429 -0.4836
  513MOL0     H67699   0.895   5.560  11.178  1.3491  1.5250 -0.8725
  513MOL0     H67700   0.999   5.843  10.802  2.4616  1.9813  0.2432
  513MOL0     H67701   1.155   5.882  10.610  1.8906 -0.4467  0.3637
  513MOL0     H67702   2.174   6.207   9.274 -1.0207  0.4847 -1.4325
  513MOL0     H67703   2.364   6.344   9.255  2.2908 -0.1343  1.3342
  513MOL0     H67704   2.829   6.324   9.072 -2.1724  1.0626 -0.1916
  513MOL0     H67705   3.061   6.403   9.045  1.1051 -0.3332  0.9839
  513MOL0     H67706   3.182   6.589   8.999 -0.4034 -3.8036  0.0429
  513MOL0     H67707   3.277   6.480   9.075 -0.4624  0.5138 -0.3972
  513MOL0     H67708   3.329   6.766   9.030 -0.5868 -0.6563 -0.2608
  513MOL0     H67709   3.387   6.712   9.187  0.9960  2.6915 -1.3424
  513MOL0     H67710   3.455   6.584   8.916  0.7837 -1.5789  0.4072
  513MOL0     H67711   3.493   6.525   9.083 -1.7139  0.2626  1.8323
  513MOL0     H67712   3.588   6.785   8.936  1.5087  1.2899  0.1369
  513MOL0     H67713   3.589   6.778   9.105 -1.7643 -2.2954  1.4196
  513MOL0     H67714   3.929   6.551   8.941 -1.2053 -0.7042 -0.4582
  513MOL0     H67715   2.983   6.659   9.390 -1.6866 -0.4643  0.3128
  513MOL0     H67716   2.778   6.576   9.432  2.0804  0.8635  0.1080
  514MOL0     O67717   2.688   2.717   9.112  0.3226  0.4520  0.6397
  514MOL0     C67718   2.702   2.827   9.170 -0.2774  0.1586 -0.5344
  514MOL0     O67719   2.609   2.893   9.248 -0.2593  0.6064  0.1708
  514MOL0     C67720   2.480   2.833   9.247  0.0546 -0.4040 -0.4489
  514MOL0     C67721   2.405   2.810   9.126  0.2503 -0.0457  0.1421
  514MOL0     C67722   2.288   2.735   9.131  0.2734  0.1630  0.4071
  514MOL0     C67723   2.225   2.701   9.252  0.0300  0.0554  0.2295
  514MOL0     O67724   2.107   2.637   9.259  0.5149  0.0546  0.3957
  514MOL0     C67725   2.013   2.662   9.368  0.5077 -0.5200 -1.1301
  514MOL0     C67726   1.860   2.649   9.332 -0.5283 -0.4015 -0.4571
  514MOL0     C67727   1.819   2.739   9.212  0.0722 -0.4173 -0.0204
  514MOL0     C67728   1.673   2.707   9.181 -0.1070  0.2394 -0.4877
  514MOL0     C67729   1.614   2.773   9.057  0.1174  0.0705  0.1460
  514MOL0     C67730   1.455   2.752   9.035 -0.4401  0.4685 -0.0862
  514MOL0     C67731   1.398   2.887   8.987  0.9059  0.4952 -0.4848
  514MOL0     C67732   1.253   2.919   8.991  0.4345  0.2247  0.1629
  514MOL0     N67733   1.213   2.932   9.134  0.3110  0.0766  0.2109
  514MOL0     C67734   1.169   2.830   9.220  0.8973  0.6287 -0.0577
  514MOL0     C67735   1.118   2.893   9.329  0.1724  0.6153  0.3656
  514MOL0     C67736   1.073   2.817   9.444 -0.1080  0.1491 -0.2849
  514MOL0     C67737   0.925   2.780   9.426  0.1659  0.1126  0.3667
  514MOL0     C67738   0.823   2.887   9.387 -0.2590  0.4623 -0.2353
  514MOL0     C67739   0.679   2.853   9.399  0.2349  0.0056  0.1163
  514MOL0     O67740   0.611   2.978   9.356 -0.3380  0.5995 -0.3756
  514MOL0     C67741   0.473   2.992   9.372  0.4020 -0.2708  0.7714
  514MOL0     C67742   0.392   2.925   9.467  0.9123  0.2595 -0.0600
  514MOL0     C67743   0.258   2.948   9.470  0.8215  0.8742  0.0297
  514MOL0     C67744   0.190   3.035   9.385  0.3417 -0.0413 -0.5602
  514MOL0     C67745   0.038   3.044   9.394  0.6757  0.6469  1.1966
  514MOL0     O67746  -0.039   2.943   9.444  0.1664  0.1875 -0.6571
  514MOL0     C67747  -0.174   2.946   9.423  1.4630 -0.1354 -0.5432
  514MOL0     C67748  -0.237   2.842   9.347 -0.3820 -0.0076 -0.7604
  514MOL0     C67749  -0.376   2.833   9.319 -0.2861  0.2996 -0.0926
  514MOL0     C67750  -0.456   2.941   9.350 -0.0541 -0.4363  0.3379
  514MOL0     O67751  -0.589   2.923   9.326  0.9353  0.5892  0.1633
  514MOL0     C67752  -0.683   3.016   9.372 -0.0848  0.6183  0.3994
  514MOL0     C67753  -0.820   3.002   9.320  0.6427  0.3148  0.3339
  514MOL0     C67754  -0.907   3.118   9.374  0.8851  0.7009  0.4525
  514MOL0     C67755  -1.030   3.128   9.288  0.4090 -0.2363 -0.5503
  514MOL0     C67756  -1.124   3.014   9.278  0.1006 -0.0674  0.0623
  514MOL0     C67757  -1.207   2.994   9.403  0.1385  0.4201 -0.1468
  514MOL0     C67758  -1.295   2.867   9.401 -0.2574 -0.2077 -0.1979
  514MOL0     C67759  -1.405   2.858   9.498 -0.1797 -0.5756 -0.3839
  514MOL0    Cl67760  -1.496   2.706   9.471 -0.2436 -0.1243 -0.5316
  514MOL0     C67761  -0.398   3.046   9.424  0.1765  0.3961 -0.8764
  514MOL0     C67762  -0.263   3.050   9.460 -0.0881 -0.1702  0.0150
  514MOL0     O67763  -0.009   3.143   9.346  0.0359  0.0256  1.1243
  514MOL0     C67764   0.266   3.112   9.302  0.7118  0.3624  0.2064
  514MOL0     C67765   0.407   3.093   9.296  1.0414 -0.0168  0.8764
  514MOL0     N67766   1.128   3.028   9.315  0.2917  0.7609 -0.0036
  514MOL0     N67767   1.189   3.054   9.197  0.3435  0.5409 -0.2580
  514MOL0     C67768   2.297   2.729   9.367 -0.4105 -1.0819 -0.9394
  514MOL0     C67769   2.429   2.787   9.368  0.1219 -0.0332 -0.2230
  514MOL0     C67770   2.827   2.897   9.151 -0.7096 -0.1281  1.6131
  514MOL0     C67771   2.853   3.032   9.176  0.2152  0.1994 -0.0261
  514MOL0     C67772   2.980   3.092   9.148 -0.4220  0.2627 -0.3713
  514MOL0     C67773   3.088   3.016   9.096  1.4002 -1.4834  0.2804
  514MOL0     O67774   3.212   3.070   9.075  0.1211 -0.4087 -0.4062
  514MOL0     C67775   3.213   3.214   9.055  0.3793 -0.0455  0.2649
  514MOL0     C67776   3.354   3.241   9.014 -0.3347  0.2422 -0.0051
  514MOL0     C67777   3.370   3.392   8.984  1.0579  0.0613  0.3459
  514MOL0     C67778   3.511   3.429   8.933 -0.0132  0.2444  1.1661
  514MOL0     C67779   3.557   3.365   8.803  0.6918  0.3534 -0.1971
  514MOL0     C67780   3.620   3.303   8.720 -0.5245  0.3092  0.7800
  514MOL0     C67781   3.059   2.889   9.069 -0.6479  0.0384 -0.3101
  514MOL0     C67782   2.937   2.832   9.099  0.8179 -0.0047  0.5097
  514MOL0     H67783   2.452   2.852   9.038  2.8865  1.5032  2.0940
  514MOL0     H67784   2.239   2.703   9.039  0.6315 -0.6065  0.4774
  514MOL0     H67785   2.036   2.754   9.422  2.2393 -2.0533  0.9519
  514MOL0     H67786   2.035   2.585   9.443  2.5027 -0.3444 -1.4712
  514MOL0     H67787   1.816   2.675   9.429  2.8120  0.4751  0.9495
  514MOL0     H67788   1.833   2.547   9.303 -2.0687 -0.5070  1.1650
  514MOL0     H67789   1.873   2.718   9.119  0.0044  1.3219 -0.4907
  514MOL0     H67790   1.824   2.847   9.232 -4.4059 -0.2058  0.8231
  514MOL0     H67791   1.648   2.602   9.166 -2.8615  0.4772  1.5795
  514MOL0     H67792   1.617   2.744   9.268  1.0493  1.8128 -0.3666
  514MOL0     H67793   1.646   2.714   8.971 -3.7042 -2.7370  0.3426
  514MOL0     H67794   1.645   2.877   9.052  0.6210 -0.1369 -1.5211
  514MOL0     H67795   1.416   2.727   9.134 -1.6170  0.6063 -0.5014
  514MOL0     H67796   1.429   2.674   8.963 -0.0340 -0.2943  0.5829
  514MOL0     H67797   1.443   2.971   9.042  1.1446  0.0458  0.0064
  514MOL0     H67798   1.423   2.907   8.882 -1.6677 -1.9828 -1.6911
  514MOL0     H67799   1.206   2.831   8.948 -0.6395  0.1321  1.4507
  514MOL0     H67800   1.245   3.018   8.944  0.0179  0.6042  1.0039
  514MOL0     H67801   1.173   2.723   9.206 -0.8823  0.2804  1.6216
  514MOL0     H67802   1.084   2.880   9.533  1.3131  3.6193 -2.6828
  514MOL0     H67803   1.137   2.730   9.456  0.8846  0.4750 -2.7702
  514MOL0     H67804   0.892   2.723   9.513 -0.9741 -1.1771 -0.8540
  514MOL0     H67805   0.923   2.704   9.347 -3.6882  0.0147  0.3338
  514MOL0     H67806   0.846   2.963   9.462  2.7778 -0.9296  0.3490
  514MOL0     H67807   0.847   2.926   9.288  2.3770 -0.5319 -0.0438
  514MOL0     H67808   0.655   2.841   9.505  0.3410 -0.5491  0.0802
  514MOL0     H67809   0.653   2.774   9.328  1.1215  0.2394 -0.4954
  514MOL0     H67810   0.435   2.869   9.550  2.2437  3.2821  1.4337
  514MOL0     H67811   0.198   2.890   9.539  0.7396  2.2988  1.2170
  514MOL0     H67812  -0.173   2.763   9.309 -1.5685 -2.0587  1.2739
  514MOL0     H67813  -0.423   2.744   9.278  0.2421  1.4141 -3.4135
  514MOL0     H67814  -0.645   3.117   9.352  1.5973  0.1177  0.8172
  514MOL0     H67815  -0.680   3.008   9.482  0.6655 -0.6195  0.3104
  514MOL0     H67816  -0.857   2.901   9.340  0.9202 -1.2220 -5.3002
  514MOL0     H67817  -0.820   3.011   9.211 -4.9175  0.0916  0.0277
  514MOL0     H67818  -0.856   3.215   9.372  1.7183  0.2898  0.8741
  514MOL0     H67819  -0.930   3.099   9.479 -1.0674  0.4548  0.0233
  514MOL0     H67820  -1.084   3.213   9.330  0.3813 -0.7143  0.3998
  514MOL0     H67821  -0.995   3.159   9.188 -1.0913  0.0077 -1.0245
  514MOL0     H67822  -1.068   2.927   9.244 -0.9434  0.1986 -2.6281
  514MOL0     H67823  -1.196   3.033   9.198  1.4973 -2.1317 -1.7936
  514MOL0     H67824  -1.266   3.085   9.412  1.8767  1.4482  1.7263
  514MOL0     H67825  -1.139   2.993   9.489 -0.3892 -2.6857  0.3647
  514MOL0     H67826  -1.340   2.864   9.302 -0.4589  0.3824 -0.1284
  514MOL0     H67827  -1.231   2.780   9.416 -0.1394  0.1334  1.5634
  514MOL0     H67828  -1.472   2.944   9.505  0.6824 -0.0426  3.3838
  514MOL0     H67829  -1.366   2.857   9.600 -1.5411 -1.6481  0.1701
  514MOL0     H67830  -0.468   3.126   9.447 -0.0723 -0.4014  1.4243
  514MOL0     H67831  -0.213   3.131   9.512  0.8745 -0.5525 -0.2936
  514MOL0     H67832   0.212   3.180   9.236 -1.6615 -2.3647 -0.8911
  514MOL0     H67833   0.461   3.153   9.223  1.2028 -0.3997  0.6761
  514MOL0     H67834   2.272   2.707   9.470 -0.4345 -0.2347 -0.7593
  514MOL0     H67835   2.473   2.797   9.467 -1.1894  2.4321  0.1869
  514MOL0     H67836   2.779   3.093   9.226 -1.0554 -1.1035 -0.2585
  514MOL0     H67837   3.001   3.192   9.186 -0.7968 -0.2921  1.4262
  514MOL0     H67838   3.182   3.274   9.141 -2.2378  0.3174 -0.8495
  514MOL0     H67839   3.146   3.243   8.974  0.8131 -0.7301 -0.3498
  514MOL0     H67840   3.417   3.195   9.090 -3.0519 -0.7199  1.8129
  514MOL0     H67841   3.376   3.183   8.923  1.9308  0.9423  0.0395
  514MOL0     H67842   3.335   3.454   9.067  2.4647  2.0885 -0.4862
  514MOL0     H67843   3.305   3.427   8.903 -1.2891 -1.0341  1.6672
  514MOL0     H67844   3.506   3.536   8.911  0.8046 -0.2788 -2.1665
  514MOL0     H67845   3.587   3.397   9.004  0.2970 -1.3532  0.1645
  514MOL0     H67846   3.681   3.257   8.645 -0.3580 -0.8811  1.6114
  514MOL0     H67847   3.139   2.826   9.030 -0.1037  0.5089  0.0374
  514MOL0     H67848   2.927   2.726   9.077  0.3392 -0.0172  0.7826
  515MOL0     O67849   5.757   3.737   9.391 -0.1640 -0.5714  0.2447
  515MOL0     C67850   5.825   3.788   9.304 -0.2760 -0.4448  0.4473
  515MOL0     O67851   5.803   3.904   9.238  0.4589 -0.0246  0.9328
  515MOL0     C67852   5.695   3.984   9.267 -0.3545  0.5012 -0.5804
  515MOL0     C67853   5.713   4.120   9.244 -0.9170 -0.2019 -0.1924
  515MOL0     C67854   5.605   4.209   9.279  0.7342  0.0055 -0.1979
  515MOL0     C67855   5.479   4.165   9.316  0.3239 -0.1141 -0.5546
  515MOL0     O67856   5.387   4.266   9.341 -0.0345 -0.2794  0.9713
  515MOL0     C67857   5.256   4.229   9.380  0.7961  0.0944 -1.3855
  515MOL0     C67858   5.187   4.366   9.416 -0.0269 -0.5183 -0.7126
  515MOL0     C67859   5.034   4.380   9.409 -0.5455  0.2515  0.3923
  515MOL0     C67860   4.995   4.522   9.448 -0.2788  0.2204  0.3953
  515MOL0     C67861   4.848   4.549   9.423 -0.4689  0.2651 -0.1273
  515MOL0     C67862   4.754   4.451   9.494  0.2770  0.2525 -0.9071
  515MOL0     C67863   4.612   4.506   9.508 -0.6427  0.3011 -1.1039
  515MOL0     C67864   4.539   4.515   9.372  0.4930  0.3748 -0.5569
  515MOL0     N67865   4.390   4.521   9.398  0.0721 -0.0841 -0.1468
  515MOL0     C67866   4.322   4.638   9.424  0.4858 -0.1325  0.5409
  515MOL0     C67867   4.192   4.599   9.437  0.0716 -0.6092 -0.1607
  515MOL0     C67868   4.070   4.686   9.441 -0.9623 -0.4864 -0.2108
  515MOL0     C67869   3.942   4.609   9.426 -0.5595 -0.2386  0.1948
  515MOL0     C67870   3.821   4.693   9.381  0.7818  0.4271  0.2619
  515MOL0     C67871   3.703   4.603   9.354  0.3398  0.2730 -0.6017
  515MOL0     O67872   3.649   4.551   9.476 -0.3744 -0.4016 -0.7824
  515MOL0     C67873   3.520   4.507   9.482  0.8034  0.0442  0.3109
  515MOL0     C67874   3.485   4.425   9.590  0.0519 -0.2136 -0.6826
  515MOL0     C67875   3.361   4.383   9.620  0.2307 -0.6240 -0.6292
  515MOL0     C67876   3.255   4.404   9.525 -0.2725 -0.2492 -0.4739
  515MOL0     C67877   3.112   4.368   9.553  0.7897  0.4719 -0.8198
  515MOL0     O67878   3.020   4.419   9.469 -0.2135  0.1847 -0.4670
  515MOL0     C67879   2.891   4.406   9.505  0.1406 -0.0753 -0.0060
  515MOL0     C67880   2.834   4.280   9.497  0.3934  0.0028 -0.1092
  515MOL0     C67881   2.707   4.258   9.530 -0.9984  0.2113  0.2427
  515MOL0     C67882   2.633   4.357   9.580 -0.4971 -0.3320 -0.0595
  515MOL0     O67883   2.503   4.350   9.630  0.0420  0.0238 -0.4707
  515MOL0     C67884   2.485   4.219   9.695 -0.5142  0.7480 -0.2254
  515MOL0     C67885   2.414   4.124   9.598 -0.0338 -0.1937 -0.3261
  515MOL0     C67886   2.270   4.186   9.566  0.5501  0.1366 -0.5127
  515MOL0     C67887   2.193   4.096   9.475 -0.0578 -0.8799 -0.1010
  515MOL0     C67888   2.048   4.153   9.445 -0.7733 -0.1452 -0.1989
  515MOL0     C67889   1.980   4.071   9.340 -0.8096  0.7642 -0.1090
  515MOL0     C67890   2.013   4.106   9.194 -0.6104  0.6042 -0.4410
  515MOL0     C67891   1.941   4.011   9.098  0.1964 -0.3898 -0.9341
  515MOL0    Cl67892   1.757   4.030   9.102 -0.3055 -0.2911 -0.2894
  515MOL0     C67893   2.683   4.487   9.572  0.3793 -0.5601 -0.1267
  515MOL0     C67894   2.808   4.512   9.535  0.4799 -0.1214  0.4482
  515MOL0     O67895   3.085   4.301   9.657 -0.3420 -0.0391 -0.2371
  515MOL0     C67896   3.288   4.464   9.402  0.2390 -0.4881 -0.1147
  515MOL0     C67897   3.416   4.522   9.385  0.9983 -0.8499  0.2025
  515MOL0     N67898   4.196   4.460   9.426  0.0621 -0.8701  0.1423
  515MOL0     N67899   4.312   4.416   9.402  0.6649 -0.2117  0.5068
  515MOL0     C67900   5.460   4.029   9.329  0.7570  0.3725 -0.2285
  515MOL0     C67901   5.565   3.942   9.304  0.6027  0.3184 -0.1768
  515MOL0     C67902   5.958   3.713   9.277 -0.4991 -0.2473  0.8035
  515MOL0     C67903   6.050   3.767   9.179 -0.0340  1.2945 -0.8519
  515MOL0     C67904   6.170   3.696   9.152 -1.1040 -0.2524  0.2628
  515MOL0     C67905   6.204   3.587   9.221 -0.4286 -0.3790 -0.4469
  515MOL0     O67906   6.324   3.518   9.204  0.4183 -0.1943  0.1523
  515MOL0     C67907   6.426   3.544   9.101  0.0456 -0.0409  0.0954
  515MOL0     C67908   6.420   3.450   8.976  0.7159 -0.6011 -0.1417
  515MOL0     C67909   6.531   3.491   8.882 -0.0150 -0.4199  0.0113
  515MOL0     C67910   6.529   3.412   8.753 -0.2367  0.0032 -0.5780
  515MOL0     C67911   6.634   3.453   8.667  0.4636 -0.0915 -0.1433
  515MOL0     C67912   6.723   3.490   8.584  1.4786 -0.7596  0.3534
  515MOL0     C67913   6.112   3.531   9.317 -0.3932 -0.2336  1.5917
  515MOL0     C67914   5.988   3.594   9.337 -1.2411 -0.6349 -0.0594
  515MOL0     H67915   5.801   4.152   9.189 -0.6130  1.6004  1.2494
  515MOL0     H67916   5.617   4.316   9.273 -0.2888  0.1035 -0.7496
  515MOL0     H67917   5.261   4.160   9.464 -0.0374  0.8675 -0.6732
  515MOL0     H67918   5.198   4.180   9.301  1.1522  0.0383 -1.6113
  515MOL0     H67919   5.231   4.442   9.351 -0.2734  1.1188  0.9408
  515MOL0     H67920   5.222   4.397   9.515 -0.3414  2.8807 -1.5423
  515MOL0     H67921   4.984   4.306   9.472 -0.4041 -3.0111 -2.9917
  515MOL0     H67922   5.006   4.369   9.304  0.5356  0.0120  0.1189
  515MOL0     H67923   5.004   4.546   9.555  0.8869  0.5078  0.2460
  515MOL0     H67924   5.051   4.604   9.402 -0.2299  0.6734  1.2360
  515MOL0     H67925   4.836   4.549   9.314  1.0250 -2.1625 -0.3768
  515MOL0     H67926   4.837   4.644   9.477 -1.0816 -0.3315  0.8095
  515MOL0     H67927   4.791   4.421   9.592 -3.4977  0.5372  0.7873
  515MOL0     H67928   4.752   4.365   9.427  0.2056  0.2906 -0.9551
  515MOL0     H67929   4.561   4.436   9.575  2.5134  0.2814  1.5339
  515MOL0     H67930   4.613   4.601   9.563 -1.2629  0.1222 -0.7696
  515MOL0     H67931   4.562   4.428   9.309  0.3851 -0.9448  1.1643
  515MOL0     H67932   4.584   4.600   9.320  1.2169 -0.4008 -1.2327
  515MOL0     H67933   4.366   4.736   9.406  0.9273 -0.5214 -0.5417
  515MOL0     H67934   4.084   4.767   9.369  2.8157  0.8493  1.7526
  515MOL0     H67935   4.069   4.729   9.542 -0.1800 -2.9642  0.9172
  515MOL0     H67936   3.913   4.553   9.516 -2.8851 -0.3362 -0.5584
  515MOL0     H67937   3.957   4.524   9.359  0.9559 -0.5384  0.8629
  515MOL0     H67938   3.800   4.775   9.450  0.0746  2.2574 -1.9798
  515MOL0     H67939   3.857   4.728   9.283 -2.3207 -1.3403 -1.6550
  515MOL0     H67940   3.729   4.510   9.303 -1.4712  0.3812 -1.8477
  515MOL0     H67941   3.631   4.665   9.300 -0.0761  0.3703  0.0489
  515MOL0     H67942   3.552   4.412   9.674 -1.2818  1.3808  0.7190
  515MOL0     H67943   3.338   4.336   9.715 -2.4387  1.4601 -0.0916
  515MOL0     H67944   2.890   4.196   9.457 -1.6504 -1.6330  0.2763
  515MOL0     H67945   2.669   4.158   9.512 -1.5437  0.6879 -1.3653
  515MOL0     H67946   2.431   4.230   9.790  1.8911  0.7894  1.2334
  515MOL0     H67947   2.575   4.167   9.728 -0.5390 -0.1284 -1.4871
  515MOL0     H67948   2.402   4.029   9.652  0.0240  0.2275  0.4435
  515MOL0     H67949   2.469   4.107   9.506  1.0082  0.1931  0.2063
  515MOL0     H67950   2.273   4.286   9.522  0.6309  1.6184  2.5878
  515MOL0     H67951   2.219   4.198   9.662 -1.6596  0.8525 -1.7146
  515MOL0     H67952   2.251   4.083   9.384 -0.9513 -2.5253 -0.4739
  515MOL0     H67953   2.197   4.005   9.535  0.3462 -0.0369  1.2026
  515MOL0     H67954   2.059   4.254   9.404  1.0925 -0.2903 -0.1376
  515MOL0     H67955   1.986   4.157   9.535  0.1534  2.9793  0.4284
  515MOL0     H67956   1.874   4.097   9.353 -1.4936 -1.7463 -0.1767
  515MOL0     H67957   1.985   3.964   9.360 -1.6806  0.5386 -1.0164
  515MOL0     H67958   1.993   4.210   9.169  0.5185  1.3334  1.4198
  515MOL0     H67959   2.122   4.093   9.186 -0.4247  0.3100  1.7811
  515MOL0     H67960   1.980   3.911   9.118  1.0208 -0.2420 -1.7743
  515MOL0     H67961   1.991   4.037   9.004  2.2357 -1.4805 -0.2082
  515MOL0     H67962   2.625   4.576   9.594 -0.5144 -1.1621 -0.0249
  515MOL0     H67963   2.862   4.606   9.543  3.4030 -1.6361 -0.2193
  515MOL0     H67964   3.214   4.486   9.326 -0.5980 -2.0144  0.2351
  515MOL0     H67965   3.436   4.587   9.301 -0.3356 -1.0993 -0.3489
  515MOL0     H67966   5.357   3.994   9.336  0.9579 -0.3645 -0.8400
  515MOL0     H67967   5.552   3.834   9.300 -1.8850  0.5329  0.3575
  515MOL0     H67968   6.032   3.863   9.132  1.0438  2.3727  0.8082
  515MOL0     H67969   6.237   3.732   9.074 -1.8356 -4.5856 -2.7248
  515MOL0     H67970   6.525   3.534   9.146  0.8003  4.0302 -0.2764
  515MOL0     H67971   6.423   3.642   9.053 -1.2482  0.1021  0.4263
  515MOL0     H67972   6.426   3.346   9.011 -0.2890 -0.5932  0.0746
  515MOL0     H67973   6.322   3.467   8.931 -0.2167  2.2098  2.6258
  515MOL0     H67974   6.631   3.482   8.926  0.8040  1.3395 -1.3372
  515MOL0     H67975   6.515   3.594   8.850 -0.1331 -0.3650  0.2465
  515MOL0     H67976   6.533   3.305   8.773  1.2993 -0.1674 -1.6107
  515MOL0     H67977   6.437   3.426   8.695 -0.3890 -4.6015 -1.8455
  515MOL0     H67978   6.805   3.500   8.517  0.7420  0.3251 -0.4120
  515MOL0     H67979   6.140   3.440   9.368  3.1951  1.5147  3.0765
  515MOL0     H67980   5.908   3.544   9.390 -1.5747  0.6947  0.7296
  516MOL0     O67981   9.804   6.436  10.012 -0.4333 -0.1706  0.7621
  516MOL0     C67982   9.739   6.512  10.086  0.3094  0.3580 -0.1543
  516MOL0     O67983   9.788   6.620  10.147  0.4453  0.1609  0.0140
  516MOL0     C67984   9.919   6.661  10.150  0.2324  0.0273 -0.5648
  516MOL0     C67985  10.035   6.577  10.145 -0.1216 -0.1220 -0.2709
  516MOL0     C67986  10.158   6.638  10.182 -0.1267  0.3150  0.0076
  516MOL0     C67987  10.181   6.780  10.185 -0.6940 -0.2930 -0.6493
  516MOL0     O67988  10.293   6.855  10.212 -0.0596  0.0978  0.0206
  516MOL0     C67989  10.402   6.780  10.265  0.5669 -0.1039  0.2666
  516MOL0     C67990  10.483   6.867  10.360  0.1965 -0.8901 -0.0091
  516MOL0     C67991  10.560   6.977  10.283 -0.5499 -0.3213  0.4440
  516MOL0     C67992  10.621   7.075  10.380  0.3905  0.3554  0.1680
  516MOL0     C67993  10.705   7.176  10.313 -0.7292  0.1768  0.3143
  516MOL0     C67994  10.753   7.278  10.407 -0.2799 -0.0065  0.6704
  516MOL0     C67995  10.826   7.392  10.340 -0.2833 -0.4475  0.1345
  516MOL0     C67996  10.982   7.377  10.342  0.0151 -0.0555 -0.0132
  516MOL0     N67997  11.018   7.260  10.267 -0.0720  0.1757 -0.1695
  516MOL0     C67998  11.083   7.148  10.306  0.2042 -0.6533 -0.5117
  516MOL0     C67999  11.116   7.087  10.185  0.1534 -0.1213 -0.3200
  516MOL0     C68000  11.182   6.954  10.187 -0.5709  0.0887 -0.5636
  516MOL0     C68001  11.160   6.872  10.053  0.5219  0.5884 -0.9004
  516MOL0     C68002  11.243   6.747  10.056 -0.1803 -0.1007  0.0895
  516MOL0     C68003  11.255   6.683   9.919 -0.2611  0.0454 -0.6618
  516MOL0     O68004  11.328   6.561   9.924  0.1600  0.7235 -0.2008
  516MOL0     C68005  11.257   6.436   9.921 -0.0758 -0.1187 -0.3544
  516MOL0     C68006  11.122   6.413   9.934  0.3707  0.4703 -0.3434
  516MOL0     C68007  11.068   6.277   9.944  0.8191 -0.3938 -0.6221
  516MOL0     C68008  11.160   6.166   9.953  0.5983  1.1701 -0.1218
  516MOL0     C68009  11.105   6.033   9.977  0.5116  0.4018  0.1704
  516MOL0     O68010  10.964   6.022   9.991  0.1648  0.3008  1.0221
  516MOL0     C68011  10.907   5.899  10.016 -0.2435 -0.6266 -0.1588
  516MOL0     C68012  10.944   5.805  10.111  0.7226  0.6381 -0.1500
  516MOL0     C68013  10.871   5.690  10.137  0.0714  0.5156  0.0817
  516MOL0     C68014  10.745   5.666  10.080 -0.8064 -1.1031  1.0349
  516MOL0     O68015  10.694   5.549  10.123  1.1835  0.3526  0.7295
  516MOL0     C68016  10.552   5.532  10.098 -0.0406  0.6392  0.6810
  516MOL0     C68017  10.497   5.456  10.216  0.3894  0.4665  0.1123
  516MOL0     C68018  10.363   5.405  10.173  0.5377 -0.4009  0.0307
  516MOL0     C68019  10.291   5.345  10.298  0.9281  0.4687 -0.2264
  516MOL0     C68020  10.149   5.291  10.268  0.0266  0.8263  0.4672
  516MOL0     C68021  10.061   5.244  10.391 -0.3499  0.7321 -0.3246
  516MOL0     C68022   9.944   5.157  10.346 -0.7080 -0.2488  0.2937
  516MOL0     C68023   9.843   5.128  10.458  0.0503 -0.3375  0.7995
  516MOL0    Cl68024   9.767   5.272  10.533 -0.4731 -0.0311  0.1933
  516MOL0     C68025  10.704   5.754   9.981 -0.6786  0.0353  0.1727
  516MOL0     C68026  10.785   5.868   9.952  0.7621 -0.4165  0.8692
  516MOL0     O68027  11.180   5.934   9.967  0.5147 -0.0914  0.2032
  516MOL0     C68028  11.298   6.193   9.925 -0.0100 -1.4183 -0.1899
  516MOL0     C68029  11.341   6.326   9.907  0.8154 -0.8917  0.5516
  516MOL0     N68030  11.063   7.157  10.082 -0.1213 -0.6557  0.0115
  516MOL0     N68031  11.006   7.260  10.131 -0.1762 -0.1470  0.2114
  516MOL0     C68032  10.068   6.861  10.177  0.0707 -0.3833 -0.1301
  516MOL0     C68033   9.941   6.794  10.156 -0.0849 -0.2111  0.1606
  516MOL0     C68034   9.595   6.473  10.109  0.5557  0.3183  0.4859
  516MOL0     C68035   9.519   6.572  10.158  0.1272  0.4078 -0.4468
  516MOL0     C68036   9.384   6.551  10.193  0.5124  1.0840  0.1620
  516MOL0     C68037   9.316   6.431  10.150  0.2395 -0.9945  0.4166
  516MOL0     O68038   9.177   6.427  10.157  0.5135 -0.4671  0.3429
  516MOL0     C68039   9.108   6.309  10.125  0.2557 -0.2699  0.1248
  516MOL0     C68040   8.956   6.310  10.115  0.6963 -0.7020  0.3135
  516MOL0     C68041   8.892   6.179  10.071  0.0665  0.9454 -0.6107
  516MOL0     C68042   8.737   6.190  10.084 -0.0227  0.4708 -0.0842
  516MOL0     C68043   8.688   6.071  10.023 -0.4881  1.0153 -0.4413
  516MOL0     C68044   8.672   5.968   9.964 -0.3679 -0.2539  0.1035
  516MOL0     C68045   9.398   6.326  10.100  0.3746 -0.4623  1.1157
  516MOL0     C68046   9.541   6.347  10.081 -0.1013 -0.3774  0.8063
  516MOL0     H68047  10.036   6.469  10.134  0.6095 -0.5123  2.7621
  516MOL0     H68048  10.241   6.573  10.208 -1.4040 -1.2733  0.3308
  516MOL0     H68049  10.461   6.742  10.182 -0.6538  0.4866 -0.9197
  516MOL0     H68050  10.371   6.689  10.317 -2.4881  0.1772 -0.8723
  516MOL0     H68051  10.561   6.811  10.414  0.4277 -0.3468  0.2318
  516MOL0     H68052  10.415   6.922  10.426  2.2753  1.3477  0.4166
  516MOL0     H68053  10.502   7.043  10.218  0.4456  1.0105  0.8556
  516MOL0     H68054  10.637   6.931  10.219 -0.0760 -1.6341  1.8924
  516MOL0     H68055  10.527   7.121  10.413 -0.0418 -0.4444  0.0738
  516MOL0     H68056  10.675   7.027  10.462 -0.6376  0.1201  0.7337
  516MOL0     H68057  10.664   7.219  10.221 -1.3841  4.8989  2.5014
  516MOL0     H68058  10.796   7.126  10.277 -1.1829 -0.1404 -0.3994
  516MOL0     H68059  10.817   7.242  10.489  0.5855  0.6917  0.3290
  516MOL0     H68060  10.662   7.321  10.449 -0.9774 -0.2377 -0.5928
  516MOL0     H68061  10.786   7.407  10.240  0.4805  0.4630 -0.0560
  516MOL0     H68062  10.801   7.486  10.391 -0.5717 -0.8637  0.7792
  516MOL0     H68063  11.018   7.367  10.445 -0.1956 -0.5656  0.0092
  516MOL0     H68064  11.029   7.467  10.299 -1.0009 -0.3585 -1.8847
  516MOL0     H68065  11.112   7.131  10.409  1.1596  2.4916 -0.1271
  516MOL0     H68066  11.132   6.891  10.262  2.0070 -0.7079  0.6010
  516MOL0     H68067  11.290   6.964  10.198 -0.3106 -2.6504  0.2915
  516MOL0     H68068  11.198   6.936   9.972 -0.3335  3.6139  0.9581
  516MOL0     H68069  11.054   6.850  10.039  0.7802  0.6620 -3.4697
  516MOL0     H68070  11.341   6.767  10.100  0.0854 -2.9248  0.9650
  516MOL0     H68071  11.184   6.683  10.123 -1.3706  2.1139  1.2620
  516MOL0     H68072  11.303   6.749   9.847 -0.8338 -2.8448 -3.9759
  516MOL0     H68073  11.150   6.669   9.891 -0.2768  0.8714 -1.0484
  516MOL0     H68074  11.046   6.489   9.945 -0.1019 -0.1024  0.4663
  516MOL0     H68075  10.960   6.269   9.950  0.5984  1.9312 -0.6292
  516MOL0     H68076  11.030   5.804  10.177 -0.3366 -0.8022  1.3089
  516MOL0     H68077  10.903   5.605  10.198  0.4376 -1.5669 -2.7842
  516MOL0     H68078  10.539   5.466  10.011 -1.0174  1.2398  0.3520
  516MOL0     H68079  10.497   5.624  10.076 -0.4697  0.5962  1.5348
  516MOL0     H68080  10.471   5.527  10.296  3.6329  0.0916  1.6737
  516MOL0     H68081  10.570   5.384  10.253  2.0562  1.8779 -0.2870
  516MOL0     H68082  10.373   5.330  10.094  3.3369  1.3878 -1.4825
  516MOL0     H68083  10.300   5.488  10.139 -0.4664 -1.1193  0.0940
  516MOL0     H68084  10.343   5.256  10.333  1.0290  0.9821  0.9614
  516MOL0     H68085  10.273   5.411  10.384 -0.5408 -0.5788  0.3222
  516MOL0     H68086  10.155   5.213  10.192 -0.1449  0.2692  1.0222
  516MOL0     H68087  10.092   5.367  10.214  1.1999  0.5139 -1.3177
  516MOL0     H68088  10.015   5.326  10.448  0.6327  1.5208 -0.6407
  516MOL0     H68089  10.134   5.184  10.446 -0.6656 -1.7494 -2.4336
  516MOL0     H68090   9.887   5.207  10.268  0.4328 -1.0937 -1.1305
  516MOL0     H68091   9.995   5.070  10.304  1.4560  0.9805  0.1901
  516MOL0     H68092   9.896   5.066  10.531 -0.1041 -2.6023 -0.9027
  516MOL0     H68093   9.773   5.061  10.408  1.0241 -0.2631 -0.7424
  516MOL0     H68094  10.618   5.727   9.921 -1.0204 -0.9133  1.0512
  516MOL0     H68095  10.751   5.944   9.883  0.2568  0.5134  2.0920
  516MOL0     H68096  11.366   6.109   9.918  0.2039 -1.2406 -0.2678
  516MOL0     H68097  11.445   6.349   9.890  0.2933  0.1353 -1.6954
  516MOL0     H68098  10.081   6.969  10.188 -0.6735 -0.0099 -2.4175
  516MOL0     H68099   9.851   6.853  10.145 -0.2289 -0.1318  1.5929
  516MOL0     H68100   9.560   6.672  10.162  1.8771 -0.2263 -1.2498
  516MOL0     H68101   9.318   6.629  10.229 -2.3005 -1.0007 -0.1329
  516MOL0     H68102   9.148   6.234  10.193  2.1625 -0.0439 -0.6933
  516MOL0     H68103   9.140   6.281  10.024  2.9546 -1.9357  1.3251
  516MOL0     H68104   8.915   6.351  10.208 -1.5647 -0.9189 -0.5270
  516MOL0     H68105   8.920   6.387  10.046 -0.7501 -1.3173  0.3512
  516MOL0     H68106   8.928   6.103  10.141 -0.9711  2.4560  1.6716
  516MOL0     H68107   8.930   6.160   9.970 -0.9174 -0.1434 -0.7988
  516MOL0     H68108   8.715   6.194  10.191  6.2629  2.8953  1.5835
  516MOL0     H68109   8.692   6.276  10.034 -1.3507  1.7828  3.0855
  516MOL0     H68110   8.660   5.874   9.914  2.1144 -2.2741  2.9696
  516MOL0     H68111   9.351   6.231  10.076  1.4895 -0.2544 -2.4765
  516MOL0     H68112   9.602   6.261  10.052  0.9548  0.7880 -0.5543
  517MOL0     O68113   9.053   5.329   2.997 -0.4755  0.1884  0.0141
  517MOL0     C68114   9.125   5.366   2.901  0.0945 -0.7130  0.2567
  517MOL0     O68115   9.073   5.381   2.778 -0.3173 -0.6230  0.6717
  517MOL0     C68116   8.936   5.383   2.772  0.2717 -0.4461  0.2017
  517MOL0     C68117   8.864   5.264   2.755  0.5873  0.4047  0.7143
  517MOL0     C68118   8.723   5.260   2.718  0.4799 -0.2509  0.6471
  517MOL0     C68119   8.659   5.388   2.709 -0.1191 -0.6111 -0.5854
  517MOL0     O68120   8.530   5.391   2.668 -0.0463  0.2133 -0.7222
  517MOL0     C68121   8.435   5.333   2.761  0.5693  0.2016 -0.1503
  517MOL0     C68122   8.304   5.365   2.702  0.0809  0.0317  0.1053
  517MOL0     C68123   8.184   5.309   2.789 -1.1403  0.0611  0.6928
  517MOL0     C68124   8.117   5.182   2.731 -1.1006  0.2598 -0.0121
  517MOL0     C68125   8.030   5.118   2.841 -0.0760  0.1634 -1.1563
  517MOL0     C68126   7.987   4.976   2.812 -0.1705 -0.9109 -0.1331
  517MOL0     C68127   7.884   4.927   2.917  0.1319  0.6487 -0.3916
  517MOL0     C68128   7.824   4.789   2.889 -0.0921 -0.0716  0.0177
  517MOL0     N68129   7.686   4.807   2.850  0.1191  1.0618 -0.8727
  517MOL0     C68130   7.579   4.834   2.934  1.3266 -0.1665 -0.0291
  517MOL0     C68131   7.466   4.825   2.859 -1.3860 -0.8962 -1.3186
  517MOL0     C68132   7.322   4.860   2.897  0.1945 -0.4946 -0.5777
  517MOL0     C68133   7.239   4.728   2.928  0.1531  0.3216 -0.4221
  517MOL0     C68134   7.295   4.635   3.044 -0.7919  0.3652 -0.3939
  517MOL0     C68135   7.196   4.522   3.066  0.1875 -0.3105 -0.2284
  517MOL0     O68136   7.079   4.581   3.119 -0.0863  0.1048 -0.0764
  517MOL0     C68137   6.978   4.481   3.133  0.1104 -0.0891 -0.4514
  517MOL0     C68138   6.849   4.522   3.158  0.5895 -0.2528  0.0857
  517MOL0     C68139   6.748   4.439   3.194  0.3402 -0.3551 -0.5760
  517MOL0     C68140   6.769   4.301   3.187 -0.2362  0.6586  0.6566
  517MOL0     C68141   6.657   4.210   3.201 -0.4366  0.4340  0.4246
  517MOL0     O68142   6.672   4.078   3.178 -0.1192  0.1981 -0.0761
  517MOL0     C68143   6.561   3.997   3.179  0.5380 -0.3706  0.1855
  517MOL0     C68144   6.543   3.897   3.270 -0.1654  0.1668 -0.5663
  517MOL0     C68145   6.429   3.814   3.271 -0.1584 -0.4173 -0.5152
  517MOL0     C68146   6.335   3.822   3.170 -0.0927  0.9516  0.5753
  517MOL0     O68147   6.233   3.724   3.162 -0.7175 -0.4480  0.7837
  517MOL0     C68148   6.133   3.742   3.054 -0.2444 -0.6247  0.1065
  517MOL0     C68149   6.036   3.634   3.099 -0.5552  0.5904 -0.1928
  517MOL0     C68150   5.896   3.633   3.044 -0.4754 -1.0297 -0.1557
  517MOL0     C68151   5.795   3.532   3.100  0.1924  0.8166  0.4296
  517MOL0     C68152   5.668   3.533   3.006 -0.0829  0.1824  0.1817
  517MOL0     C68153   5.535   3.491   3.077 -0.2845 -0.8780 -0.6500
  517MOL0     C68154   5.543   3.345   3.127 -0.1647 -0.5014 -0.8010
  517MOL0     C68155   5.412   3.301   3.198  1.3562 -0.2581  0.0681
  517MOL0    Cl68156   5.283   3.222   3.087 -0.5079 -0.5357  0.1771
  517MOL0     C68157   6.344   3.927   3.083  0.1594 -0.0566 -0.3947
  517MOL0     C68158   6.461   4.007   3.083 -0.4756 -0.0587 -0.2642
  517MOL0     O68159   6.561   4.266   3.246  0.3340 -1.0112 -0.1513
  517MOL0     C68160   6.901   4.251   3.158  1.0351 -0.8542 -1.0847
  517MOL0     C68161   7.001   4.338   3.133  0.1296  0.5626  0.1392
  517MOL0     N68162   7.502   4.810   2.730 -0.4737  0.1590 -0.2892
  517MOL0     N68163   7.636   4.805   2.729  0.4082 -0.3632  0.4107
  517MOL0     C68164   8.732   5.504   2.739  0.7191  0.1091 -0.0872
  517MOL0     C68165   8.867   5.507   2.775 -0.4403  0.1700 -0.1812
  517MOL0     C68166   9.265   5.394   2.918  0.1726  0.1951 -0.1035
  517MOL0     C68167   9.344   5.482   2.837  0.6327  0.5615 -0.0162
  517MOL0     C68168   9.477   5.507   2.866  0.2197 -1.0187 -0.3917
  517MOL0     C68169   9.534   5.446   2.975 -0.3441 -0.5493 -0.1373
  517MOL0     O68170   9.674   5.459   2.993  0.5682  0.1966  0.0866
  517MOL0     C68171   9.739   5.340   3.013  0.0352  0.4404 -0.2830
  517MOL0     C68172   9.885   5.362   2.962 -0.7829  0.1284 -0.1896
  517MOL0     C68173   9.972   5.246   3.013 -0.4155 -0.3290  0.6837
  517MOL0     C68174  10.122   5.257   2.966  0.7002  0.8758 -0.6153
  517MOL0     C68175  10.178   5.387   2.976  0.3415  0.2651  1.6163
  517MOL0     C68176  10.230   5.495   2.980  0.0082 -0.6169 -0.1482
  517MOL0     C68177   9.458   5.361   3.053 -0.0847  0.6006 -0.1433
  517MOL0     C68178   9.326   5.339   3.026  0.1916 -0.7387  0.1609
  517MOL0     H68179   8.913   5.167   2.764 -0.3724 -0.3683 -1.6086
  517MOL0     H68180   8.679   5.164   2.696 -0.3052  0.4620 -1.0872
  517MOL0     H68181   8.444   5.378   2.861  0.2461  0.7512 -0.3637
  517MOL0     H68182   8.446   5.224   2.768  1.0811  0.3139  1.1091
  517MOL0     H68183   8.299   5.319   2.603 -0.5341  1.8893 -0.7795
  517MOL0     H68184   8.289   5.473   2.695  0.3254 -0.0567 -3.9197
  517MOL0     H68185   8.109   5.388   2.784 -0.7621  0.3457 -1.7712
  517MOL0     H68186   8.219   5.297   2.892 -0.4713  0.7635  0.5549
  517MOL0     H68187   8.067   5.195   2.635  0.7825 -2.1677 -1.4474
  517MOL0     H68188   8.199   5.115   2.704 -1.5201 -0.8219  1.2824
  517MOL0     H68189   7.950   5.189   2.863  0.8004  0.9401 -0.4233
  517MOL0     H68190   8.091   5.113   2.932  0.2096  2.0927 -1.2142
  517MOL0     H68191   8.076   4.912   2.816  1.3661  0.9852 -1.8349
  517MOL0     H68192   7.948   4.973   2.710  1.5751  0.2669 -0.8877
  517MOL0     H68193   7.934   4.922   3.015 -1.1710 -4.0689  0.2917
  517MOL0     H68194   7.799   4.995   2.924 -1.1203 -0.6113 -2.4050
  517MOL0     H68195   7.829   4.729   2.981  2.1807 -1.6833 -1.0730
  517MOL0     H68196   7.866   4.737   2.803 -0.5453 -0.6409  0.1318
  517MOL0     H68197   7.591   4.870   3.036  0.8196  1.3443 -0.4773
  517MOL0     H68198   7.276   4.909   2.811 -0.4111 -2.6495 -1.5465
  517MOL0     H68199   7.317   4.936   2.975 -0.2154 -3.0277  2.0280
  517MOL0     H68200   7.232   4.681   2.829 -2.7396  1.9305 -1.0934
  517MOL0     H68201   7.136   4.753   2.955 -0.6841 -2.4417 -0.7578
  517MOL0     H68202   7.383   4.579   3.009 -1.3168  0.0237 -1.1809
  517MOL0     H68203   7.320   4.694   3.132 -1.5049  2.2374 -1.4030
  517MOL0     H68204   7.236   4.443   3.129  1.7596 -1.2555 -2.2831
  517MOL0     H68205   7.168   4.482   2.968  0.5844  1.3796 -1.0728
  517MOL0     H68206   6.837   4.630   3.157  2.2983 -0.0096 -2.0019
  517MOL0     H68207   6.652   4.485   3.213 -0.7264 -2.2517 -1.1013
  517MOL0     H68208   6.615   3.892   3.351 -0.0329  3.5774 -0.3328
  517MOL0     H68209   6.419   3.731   3.340 -1.2330 -0.9864 -1.3304
  517MOL0     H68210   6.163   3.734   2.949 -0.2682 -0.5639  0.0950
  517MOL0     H68211   6.074   3.833   3.064  0.7451  0.1631 -0.8997
  517MOL0     H68212   6.025   3.639   3.208  1.0461 -0.7182  0.0662
  517MOL0     H68213   6.074   3.535   3.074  2.0680  1.4408  0.1897
  517MOL0     H68214   5.917   3.624   2.937 -3.7306  2.8860 -1.3864
  517MOL0     H68215   5.855   3.735   3.048  1.0118 -0.1940 -3.2363
  517MOL0     H68216   5.837   3.431   3.108 -1.6545  0.0603  1.2355
  517MOL0     H68217   5.779   3.569   3.202  2.0000 -1.6876  1.7188
  517MOL0     H68218   5.688   3.471   2.918  0.3201  0.8126 -0.1680
  517MOL0     H68219   5.657   3.637   2.976  1.8248  0.9780  1.9913
  517MOL0     H68220   5.448   3.510   3.013 -0.3878 -0.9222 -0.5217
  517MOL0     H68221   5.524   3.555   3.165  2.8626 -0.4424 -0.4555
  517MOL0     H68222   5.563   3.283   3.038  1.7499  2.8027 -2.8946
  517MOL0     H68223   5.624   3.329   3.198  0.9651 -1.2148 -2.2038
  517MOL0     H68224   5.366   3.384   3.252 -1.3534  0.0176 -2.4240
  517MOL0     H68225   5.421   3.215   3.265 -2.2110 -4.2435 -3.9336
  517MOL0     H68226   6.273   3.941   3.002 -2.0634  0.1066  1.4730
  517MOL0     H68227   6.478   4.086   3.011 -1.5166  0.2225 -0.2165
  517MOL0     H68228   6.917   4.144   3.145 -0.9720 -1.6646  1.8915
  517MOL0     H68229   7.093   4.286   3.109  0.3013  0.8741  0.1190
  517MOL0     H68230   8.681   5.600   2.743 -0.0632 -0.3413  1.6769
  517MOL0     H68231   8.912   5.601   2.806  0.3167 -0.4886  0.7992
  517MOL0     H68232   9.303   5.541   2.755 -0.2372 -2.9854 -2.4063
  517MOL0     H68233   9.528   5.579   2.803 -3.7608  0.7823 -1.8790
  517MOL0     H68234   9.690   5.260   2.957 -0.8992  0.2719  0.7453
  517MOL0     H68235   9.734   5.312   3.119  0.3891  0.2598 -0.3117
  517MOL0     H68236   9.900   5.366   2.853 -0.2425  3.5100 -0.1071
  517MOL0     H68237   9.920   5.457   3.005  3.1777 -0.3246 -1.9091
  517MOL0     H68238   9.920   5.155   2.979 -0.5075 -0.9857  2.4789
  517MOL0     H68239   9.969   5.236   3.122 -0.0050 -1.1959  0.6258
  517MOL0     H68240  10.182   5.182   3.019  0.7723  0.8577 -0.7223
  517MOL0     H68241  10.122   5.233   2.860 -1.2627 -1.9540 -0.1080
  517MOL0     H68242  10.283   5.588   2.980 -1.3733  0.1831 -0.2283
  517MOL0     H68243   9.500   5.325   3.147  2.0222  0.6775 -1.0052
  517MOL0     H68244   9.267   5.268   3.082  0.1620 -2.1537 -1.5557
  518MOL0     O68245  11.116   5.538   2.983 -0.3958  0.0281 -0.0882
  518MOL0     C68246  11.027   5.459   2.957 -0.2400  0.3548 -0.3209
  518MOL0     O68247  11.036   5.361   2.860 -0.1957  0.6349  0.2065
  518MOL0     C68248  11.159   5.324   2.822  0.4324 -0.2319  0.4780
  518MOL0     C68249  11.216   5.389   2.708 -0.4321 -0.5244  0.0874
  518MOL0     C68250  11.336   5.326   2.646  0.2228 -0.4415 -0.6810
  518MOL0     C68251  11.400   5.216   2.706  0.6360 -0.6056 -0.5138
  518MOL0     O68252  11.510   5.151   2.663 -0.2808  0.0856 -0.0974
  518MOL0     C68253  11.595   5.196   2.555  0.5663  0.4124  0.0726
  518MOL0     C68254  11.685   5.317   2.603  0.3781  0.2506  0.2380
  518MOL0     C68255  11.828   5.319   2.534  0.2764  0.1301  0.0721
  518MOL0     C68256  11.917   5.421   2.593  0.5460  0.8850  0.6781
  518MOL0     C68257  12.040   5.439   2.506  0.0548  0.4486 -0.6496
  518MOL0     C68258  12.140   5.553   2.554  0.7725  0.4743  0.2369
  518MOL0     C68259  12.290   5.524   2.507  0.6625  0.6283 -0.3754
  518MOL0     C68260  12.386   5.645   2.526 -0.2861  0.2803  0.1046
  518MOL0     N68261  12.373   5.738   2.411 -0.2864  0.2680 -0.0698
  518MOL0     C68262  12.290   5.847   2.413  0.1811 -0.4417 -0.6092
  518MOL0     C68263  12.305   5.897   2.293  0.5245  0.6159  0.1149
  518MOL0     C68264  12.241   6.030   2.253 -0.9435  0.3621  0.3100
  518MOL0     C68265  12.324   6.146   2.298  0.4347 -0.5298 -0.4184
  518MOL0     C68266  12.328   6.169   2.448 -0.1339  0.0932  0.1139
  518MOL0     C68267  12.205   6.216   2.527  0.1944  0.4696 -0.0972
  518MOL0     O68268  12.117   6.103   2.565 -0.1623  0.4261 -0.0212
  518MOL0     C68269  11.982   6.125   2.586  0.0705  0.1982 -0.1868
  518MOL0     C68270  11.905   6.012   2.625 -0.3718  0.0687  1.2219
  518MOL0     C68271  11.763   6.018   2.638 -0.1906 -0.7995 -0.0629
  518MOL0     C68272  11.701   6.145   2.620  0.4094  0.0328  1.0346
  518MOL0     C68273  11.547   6.159   2.615 -0.3610  0.6104  0.7135
  518MOL0     O68274  11.497   6.280   2.666  0.3950 -0.1562 -0.2078
  518MOL0     C68275  11.362   6.298   2.687 -0.4317  0.2053  0.3226
  518MOL0     C68276  11.285   6.384   2.612 -0.1748 -0.3547 -0.4690
  518MOL0     C68277  11.141   6.384   2.625 -1.0482 -0.3714 -0.0499
  518MOL0     C68278  11.078   6.304   2.719 -0.2411 -0.6934 -0.5289
  518MOL0     O68279  10.940   6.305   2.733  0.9142 -0.8357  0.1762
  518MOL0     C68280  10.869   6.202   2.807  0.3391  0.6355  0.0569
  518MOL0     C68281  10.719   6.200   2.768  0.0596 -0.8946 -0.2158
  518MOL0     C68282  10.639   6.309   2.836 -0.2177  0.2173  0.2178
  518MOL0     C68283  10.622   6.277   2.986 -0.0403 -0.5235  0.1741
  518MOL0     C68284  10.565   6.392   3.072 -1.0284  0.1564 -0.7990
  518MOL0     C68285  10.449   6.475   3.024  0.9113  0.0520  0.1819
  518MOL0     C68286  10.321   6.385   3.026 -0.0708 -1.1118 -1.2001
  518MOL0     C68287  10.275   6.382   3.171  0.7042  0.0669  0.2068
  518MOL0    Cl68288  10.123   6.292   3.199 -0.0372 -0.1517  0.3785
  518MOL0     C68289  11.156   6.221   2.800  0.2072  0.5847  0.9438
  518MOL0     C68290  11.295   6.218   2.789 -0.4822 -0.8706 -0.5612
  518MOL0     O68291  11.475   6.062   2.578 -0.1849  0.0458 -0.1715
  518MOL0     C68292  11.780   6.260   2.614  0.6210  0.0200 -1.7991
  518MOL0     C68293  11.920   6.249   2.602 -0.6647  0.1363 -0.0494
  518MOL0     N68294  12.399   5.817   2.220 -0.6783 -0.1261 -0.3549
  518MOL0     N68295  12.443   5.722   2.297  0.6989  0.4534  0.3272
  518MOL0     C68296  11.343   5.172   2.828  0.2347 -0.7389  0.4974
  518MOL0     C68297  11.228   5.221   2.876  0.0639  0.2061 -0.5596
  518MOL0     C68298  10.899   5.451   3.037  0.5201  0.1987  0.3641
  518MOL0     C68299  10.824   5.333   3.028  0.0152 -0.2824  1.2692
  518MOL0     C68300  10.703   5.320   3.102 -0.3845 -0.3346 -0.6311
  518MOL0     C68301  10.660   5.426   3.182  0.3931  0.8820  0.4251
  518MOL0     O68302  10.549   5.430   3.257  0.4971 -0.3396  0.4303
  518MOL0     C68303  10.459   5.322   3.265  0.9021  0.7601  0.1602
  518MOL0     C68304  10.325   5.369   3.330  0.5755 -0.7776 -0.5143
  518MOL0     C68305  10.213   5.259   3.347  0.1222 -1.1353 -0.3600
  518MOL0     C68306  10.086   5.304   3.422  0.1845  0.0917  0.1818
  518MOL0     C68307  10.013   5.412   3.357 -0.5004  0.3060  0.5673
  518MOL0     C68308   9.950   5.495   3.293 -0.4049  0.3677  0.8743
  518MOL0     C68309  10.730   5.548   3.184 -0.2889 -0.4128 -0.9334
  518MOL0     C68310  10.851   5.563   3.118 -0.0479  0.0460  0.2309
  518MOL0     H68311  11.162   5.477   2.676 -1.8517 -1.6444 -0.7105
  518MOL0     H68312  11.368   5.373   2.553 -0.1511  0.3021 -0.4418
  518MOL0     H68313  11.545   5.222   2.462 -1.4610 -0.3949  0.8716
  518MOL0     H68314  11.658   5.108   2.541 -2.6856 -2.1018  0.1239
  518MOL0     H68315  11.698   5.310   2.712 -0.9156  3.5080  0.7183
  518MOL0     H68316  11.635   5.409   2.572  0.4849  0.3117  0.2467
  518MOL0     H68317  11.820   5.334   2.426  1.5718 -0.5671 -0.1410
  518MOL0     H68318  11.879   5.223   2.543 -2.0866 -1.2943 -0.8240
  518MOL0     H68319  11.867   5.518   2.601 -0.3928  0.4735 -0.0363
  518MOL0     H68320  11.946   5.389   2.694 -1.2541  1.1818  1.3220
  518MOL0     H68321  12.004   5.472   2.408  2.2463 -0.1350 -1.7017
  518MOL0     H68322  12.087   5.341   2.493 -1.6408 -0.8676  2.2477
  518MOL0     H68323  12.128   5.575   2.661  0.6199  3.5385 -0.3249
  518MOL0     H68324  12.107   5.647   2.509  0.0298 -0.1136 -0.4674
  518MOL0     H68325  12.326   5.438   2.565 -2.3385  1.3390  2.8161
  518MOL0     H68326  12.278   5.506   2.399 -0.5948  2.5520 -0.6077
  518MOL0     H68327  12.492   5.620   2.539  0.0444  1.8867  0.8046
  518MOL0     H68328  12.362   5.701   2.617  0.2542 -0.6724  0.8497
  518MOL0     H68329  12.228   5.886   2.494  2.4405 -1.5977  1.8450
  518MOL0     H68330  12.136   6.029   2.283 -1.0349 -0.9528  0.0392
  518MOL0     H68331  12.231   6.043   2.145 -0.2732  0.0729  0.2090
  518MOL0     H68332  12.290   6.240   2.253 -2.0681  0.9788  3.9640
  518MOL0     H68333  12.419   6.122   2.249  0.3747 -1.3666 -0.1300
  518MOL0     H68334  12.370   6.084   2.502  0.5309 -0.5399 -1.3485
  518MOL0     H68335  12.395   6.251   2.473 -1.1341  0.3693  2.1168
  518MOL0     H68336  12.163   6.290   2.457  1.6495 -0.4842 -2.0662
  518MOL0     H68337  12.235   6.260   2.623  1.0526  1.1426 -0.6502
  518MOL0     H68338  11.952   5.915   2.623  0.7312  0.5880 -0.6220
  518MOL0     H68339  11.694   5.938   2.661 -0.3715 -0.4848  0.5039
  518MOL0     H68340  11.342   6.436   2.536  0.2577 -1.4130 -0.8892
  518MOL0     H68341  11.082   6.444   2.556  0.8934 -0.5339 -1.9460
  518MOL0     H68342  10.884   6.233   2.911  1.6707  1.8592 -0.4653
  518MOL0     H68343  10.905   6.100   2.796 -1.2162 -0.1892  2.0472
  518MOL0     H68344  10.665   6.108   2.792  0.2036 -1.3238 -1.4712
  518MOL0     H68345  10.707   6.207   2.660 -2.7319 -0.9998  0.0166
  518MOL0     H68346  10.543   6.329   2.789  0.5485  2.5850 -0.4622
  518MOL0     H68347  10.705   6.397   2.835  0.0513  0.0961  2.1654
  518MOL0     H68348  10.536   6.210   2.991 -0.9350  0.3767 -2.0034
  518MOL0     H68349  10.713   6.236   3.031  0.0351  0.5023  1.0113
  518MOL0     H68350  10.649   6.461   3.087  0.9399 -1.7065 -2.4263
  518MOL0     H68351  10.541   6.342   3.166  1.1601 -0.7571 -0.6682
  518MOL0     H68352  10.470   6.500   2.920  1.9615 -1.8848 -0.1260
  518MOL0     H68353  10.426   6.566   3.080 -2.6734  0.7785 -2.1139
  518MOL0     H68354  10.246   6.444   2.972  2.2973  1.1118 -2.2713
  518MOL0     H68355  10.326   6.287   2.978 -0.5917  0.5102 -4.9090
  518MOL0     H68356  10.274   6.488   3.195  0.5938  0.2149 -0.4380
  518MOL0     H68357  10.344   6.335   3.242 -0.5679 -1.2714  0.6272
  518MOL0     H68358  11.106   6.146   2.860 -1.0221  0.3759 -0.2936
  518MOL0     H68359  11.351   6.148   2.850 -0.0470 -1.0355 -1.1483
  518MOL0     H68360  11.725   6.353   2.622  0.3323 -0.2530 -0.1416
  518MOL0     H68361  11.973   6.343   2.604  0.6864 -0.5379 -1.8180
  518MOL0     H68362  11.381   5.082   2.875 -2.4372 -1.3817  1.6123
  518MOL0     H68363  11.184   5.169   2.960 -0.9213  0.8900 -0.6319
  518MOL0     H68364  10.857   5.249   2.968  2.2456  0.2568  1.6812
  518MOL0     H68365  10.641   5.231   3.093  1.6390 -2.2415  2.3170
  518MOL0     H68366  10.501   5.243   3.327  0.2724 -1.5438 -2.1614
  518MOL0     H68367  10.437   5.280   3.166  3.2512 -1.1346  0.3669
  518MOL0     H68368  10.348   5.415   3.426  1.1297 -1.1578 -0.4545
  518MOL0     H68369  10.278   5.450   3.274 -2.4843 -1.7753  0.4377
  518MOL0     H68370  10.240   5.170   3.403 -1.9998 -0.2279  2.3189
  518MOL0     H68371  10.186   5.232   3.244 -1.5580 -0.1512 -0.2224
  518MOL0     H68372  10.020   5.219   3.438  2.2823 -1.3781  1.7253
  518MOL0     H68373  10.116   5.327   3.525  1.3297 -2.2714  0.4553
  518MOL0     H68374   9.896   5.569   3.238 -1.6957 -1.6188 -0.6344
  518MOL0     H68375  10.695   5.625   3.253  0.1028  0.5768 -1.8136
  518MOL0     H68376  10.902   5.658   3.116 -2.3813  1.3963  1.1833
  519MOL0     O68377   0.466   8.727   3.196  0.2823  0.3336 -0.4995
  519MOL0     C68378   0.525   8.787   3.106 -0.1294 -0.4239  0.1882
  519MOL0     O68379   0.462   8.869   3.020 -0.3892  0.0478  0.7639
  519MOL0     C68380   0.323   8.859   3.006  0.3679 -0.7816  0.3172
  519MOL0     C68381   0.259   8.973   2.968  0.4436 -0.6261  0.4340
  519MOL0     C68382   0.123   8.989   2.956 -0.6503 -0.0878 -0.7653
  519MOL0     C68383   0.039   8.878   2.977 -0.3078  0.2708  0.3735
  519MOL0     O68384  -0.097   8.900   2.979 -0.7345 -0.8751  0.8432
  519MOL0     C68385  -0.181   8.812   3.047 -0.0293 -0.1452  0.3862
  519MOL0     C68386  -0.316   8.885   3.020  0.3616 -0.2977 -0.2309
  519MOL0     C68387  -0.434   8.817   3.090  0.0426  0.1469 -0.0663
  519MOL0     C68388  -0.558   8.875   3.037 -0.0681  0.0503 -0.0387
  519MOL0     C68389  -0.686   8.806   3.077  0.1104  0.7007 -0.4396
  519MOL0     C68390  -0.697   8.777   3.232 -0.7232 -0.2357 -0.2107
  519MOL0     C68391  -0.839   8.718   3.250  0.0898 -0.1380 -0.0729
  519MOL0     C68392  -0.882   8.691   3.392  0.1038  0.3735 -0.5875
  519MOL0     N68393  -1.025   8.648   3.396  0.5662  0.7145 -0.5536
  519MOL0     C68394  -1.094   8.580   3.300  0.6278 -0.3603  0.7821
  519MOL0     C68395  -1.205   8.523   3.353  0.1940 -0.7165 -0.0930
  519MOL0     C68396  -1.313   8.461   3.267 -0.4062  0.5137 -0.2445
  519MOL0     C68397  -1.453   8.453   3.339 -0.0255  0.1373  0.1063
  519MOL0     C68398  -1.527   8.584   3.357  0.3036 -0.1077  0.4057
  519MOL0     C68399  -1.672   8.554   3.398  0.4107  0.2144  0.0797
  519MOL0     O68400  -1.749   8.485   3.295  0.6694  0.2441  0.0366
  519MOL0     C68401  -1.884   8.483   3.314  0.4043 -0.3526 -0.1926
  519MOL0     C68402  -1.957   8.530   3.424  0.0823 -0.5454  0.4872
  519MOL0     C68403  -2.097   8.506   3.435  0.1716 -0.5177 -0.2814
  519MOL0     C68404  -2.160   8.440   3.337  0.3113  1.0093 -0.7682
  519MOL0     C68405  -2.303   8.407   3.355 -0.0313  0.0754 -0.0996
  519MOL0     O68406  -2.356   8.403   3.480 -0.6936  0.3090 -0.1424
  519MOL0     C68407  -2.479   8.352   3.502  0.1678  0.3961  0.0292
  519MOL0     C68408  -2.504   8.242   3.589  0.6182  0.0307 -0.0518
  519MOL0     C68409  -2.633   8.211   3.630  0.1669 -0.2904 -0.6285
  519MOL0     C68410  -2.745   8.282   3.581  0.2313 -0.0294  0.0438
  519MOL0     O68411  -2.867   8.235   3.589  0.1026 -0.0414  0.3104
  519MOL0     C68412  -2.915   8.183   3.715 -0.0845 -0.0007 -0.6372
  519MOL0     C68413  -3.046   8.263   3.736  0.3646 -0.1328  0.4236
  519MOL0     C68414  -3.147   8.201   3.842 -1.1450  0.1609 -0.6541
  519MOL0     C68415  -3.264   8.295   3.866 -0.0413 -0.3648  0.2902
  519MOL0     C68416  -3.380   8.213   3.930  0.1431  0.1870  0.4113
  519MOL0     C68417  -3.352   8.180   4.071 -0.1907 -0.1542  0.0504
  519MOL0     C68418  -3.321   8.304   4.167 -0.0430  0.2192 -0.1282
  519MOL0     C68419  -3.347   8.269   4.322  0.6502 -0.1573  0.3715
  519MOL0    Cl68420  -3.294   8.105   4.378 -0.1762  0.0618  0.5403
  519MOL0     C68421  -2.721   8.395   3.500 -0.5999 -0.7829 -0.8169
  519MOL0     C68422  -2.587   8.429   3.464  0.4517  0.4909 -0.2152
  519MOL0     O68423  -2.371   8.403   3.253  0.0717 -0.4338 -0.0596
  519MOL0     C68424  -2.092   8.404   3.224 -0.1514  0.2963  0.6546
  519MOL0     C68425  -1.959   8.421   3.210  0.7227  0.1609 -0.6354
  519MOL0     N68426  -1.199   8.552   3.490 -0.0761 -0.6691  1.3203
  519MOL0     N68427  -1.093   8.620   3.512  0.1872  0.3631  0.1571
  519MOL0     C68428   0.094   8.759   3.011  0.1412 -0.1303 -0.8591
  519MOL0     C68429   0.232   8.749   3.016  0.9812 -0.0010 -0.2993
  519MOL0     C68430   0.674   8.770   3.097 -0.5542 -0.7053  1.1639
  519MOL0     C68431   0.750   8.681   3.177 -0.1025  0.1613  0.0676
  519MOL0     C68432   0.886   8.686   3.180 -0.8948 -0.2227  0.4808
  519MOL0     C68433   0.960   8.764   3.089  0.2483 -0.7904 -0.0305
  519MOL0     O68434   1.095   8.767   3.111  0.1163  0.0855 -1.0418
  519MOL0     C68435   1.163   8.864   3.039 -0.1862  0.1861  0.4911
  519MOL0     C68436   1.308   8.864   3.077 -0.7936  0.2794  0.3406
  519MOL0     C68437   1.384   8.899   2.942  0.3358 -0.5389  0.1860
  519MOL0     C68438   1.529   8.891   2.975 -0.5049 -0.7422 -0.1543
  519MOL0     C68439   1.610   8.881   2.854  0.0248 -0.1114  0.3629
  519MOL0     C68440   1.665   8.869   2.743  0.4879  0.1984  0.3781
  519MOL0     C68441   0.880   8.851   3.001  0.2885 -1.0149 -0.2719
  519MOL0     C68442   0.743   8.850   3.006 -0.7309  0.0897 -0.0533
  519MOL0     H68443   0.317   9.061   2.942  2.9428 -1.9506  1.1189
  519MOL0     H68444   0.083   9.085   2.926 -0.2319  0.4575  0.3481
  519MOL0     H68445  -0.154   8.808   3.153 -0.6413 -1.8106  0.5213
  519MOL0     H68446  -0.171   8.708   3.013 -0.5755  0.7897 -3.1005
  519MOL0     H68447  -0.339   8.881   2.913  0.3205 -0.7575 -0.2105
  519MOL0     H68448  -0.309   8.987   3.057 -3.7605 -0.1825  0.7005
  519MOL0     H68449  -0.412   8.829   3.196 -1.4456  2.2772  0.0606
  519MOL0     H68450  -0.432   8.710   3.066  1.3035  0.3038 -0.7576
  519MOL0     H68451  -0.576   8.980   3.061 -1.6740 -0.0696 -0.5590
  519MOL0     H68452  -0.559   8.863   2.928  0.7934 -7.0188  0.2824
  519MOL0     H68453  -0.690   8.708   3.027 -0.1774 -0.5172  1.8083
  519MOL0     H68454  -0.773   8.864   3.047  0.4872  0.5693 -1.8498
  519MOL0     H68455  -0.681   8.872   3.284 -1.3586 -0.9854  1.4519
  519MOL0     H68456  -0.622   8.703   3.262  1.0541  2.6685  3.2360
  519MOL0     H68457  -0.917   8.784   3.210  1.1624  0.3270 -1.4758
  519MOL0     H68458  -0.844   8.622   3.197 -0.1705 -1.3973  2.0893
  519MOL0     H68459  -0.876   8.780   3.455 -1.2139 -0.2971  0.5164
  519MOL0     H68460  -0.823   8.607   3.429  0.9773  0.3592 -1.9212
  519MOL0     H68461  -1.075   8.580   3.193  1.2532  0.3874  0.8834
  519MOL0     H68462  -1.295   8.355   3.248 -1.2789  0.1675  0.8131
  519MOL0     H68463  -1.321   8.524   3.177  2.2090  1.1068 -0.1374
  519MOL0     H68464  -1.442   8.410   3.439 -0.6571  0.1580  0.1878
  519MOL0     H68465  -1.521   8.386   3.285 -0.7986 -0.7235  2.0416
  519MOL0     H68466  -1.475   8.642   3.434 -0.4498 -1.1656  1.7807
  519MOL0     H68467  -1.531   8.634   3.260  2.1411  0.4742  0.5980
  519MOL0     H68468  -1.717   8.649   3.429 -0.7159  0.3151 -1.7600
  519MOL0     H68469  -1.675   8.484   3.482  0.6817 -0.2356 -0.2813
  519MOL0     H68470  -1.911   8.583   3.507  1.7617 -1.0209 -0.0840
  519MOL0     H68471  -2.143   8.528   3.531  0.8190  2.7521 -0.5900
  519MOL0     H68472  -2.419   8.187   3.629  0.8306  1.5136  1.6765
  519MOL0     H68473  -2.653   8.119   3.683  1.6627 -1.0540 -1.3282
  519MOL0     H68474  -2.849   8.210   3.798  1.1966  2.1750 -2.2271
  519MOL0     H68475  -2.923   8.074   3.715  3.1379 -0.3531 -1.8964
  519MOL0     H68476  -3.099   8.266   3.640  3.4148  2.3148 -1.3642
  519MOL0     H68477  -3.031   8.370   3.750  0.1545 -0.1956  1.1752
  519MOL0     H68478  -3.096   8.177   3.936 -1.3225 -2.3993 -1.1396
  519MOL0     H68479  -3.179   8.100   3.818 -1.0151 -0.3413  1.1217
  519MOL0     H68480  -3.237   8.384   3.923 -0.1528 -0.7595  0.9635
  519MOL0     H68481  -3.288   8.340   3.769  1.0533 -0.5386 -0.0755
  519MOL0     H68482  -3.408   8.119   3.883  0.8704 -0.9182  2.0745
  519MOL0     H68483  -3.467   8.279   3.929  1.2222  1.7126 -1.9650
  519MOL0     H68484  -3.281   8.097   4.080  0.9112  0.5834 -1.4746
  519MOL0     H68485  -3.449   8.142   4.107  0.3044 -3.2242 -1.5246
  519MOL0     H68486  -3.213   8.321   4.162 -0.1487  0.6465 -1.4079
  519MOL0     H68487  -3.369   8.393   4.125 -0.2128 -0.0002 -0.4029
  519MOL0     H68488  -3.455   8.284   4.335  0.2543 -2.1976 -0.0664
  519MOL0     H68489  -3.300   8.341   4.389  1.5117 -0.8326  0.5138
  519MOL0     H68490  -2.798   8.464   3.467 -2.2198 -0.0449  3.7695
  519MOL0     H68491  -2.585   8.510   3.393  0.3768 -2.1651 -3.4790
  519MOL0     H68492  -2.135   8.350   3.140  1.7305 -0.3441  0.0536
  519MOL0     H68493  -1.918   8.393   3.114 -1.2344  1.6727 -2.0122
  519MOL0     H68494   0.033   8.670   3.024 -0.8376  0.6610  0.2356
  519MOL0     H68495   0.274   8.650   3.029  1.1262  0.2811  1.8374
  519MOL0     H68496   0.714   8.617   3.257  0.0872 -0.9231 -0.6819
  519MOL0     H68497   0.946   8.627   3.247  1.0367 -0.5700 -1.4444
  519MOL0     H68498   1.124   8.965   3.054  0.2092  0.1433  1.9009
  519MOL0     H68499   1.148   8.851   2.931  1.6336  1.2388  0.0487
  519MOL0     H68500   1.317   8.938   3.156 -0.7263 -1.5668  2.1518
  519MOL0     H68501   1.346   8.765   3.103  2.7338  1.0218 -1.4080
  519MOL0     H68502   1.347   8.993   2.900 -1.3879 -1.2872 -0.0138
  519MOL0     H68503   1.362   8.830   2.860  1.1049 -0.7962  0.1828
  519MOL0     H68504   1.556   8.985   3.025  2.0939 -0.0150 -2.6703
  519MOL0     H68505   1.564   8.812   3.042  1.9428  1.3796  1.3106
  519MOL0     H68506   1.712   8.858   2.647  0.4717 -2.3429  0.5848
  519MOL0     H68507   0.935   8.900   2.921 -1.3076  0.2659 -0.6579
  519MOL0     H68508   0.686   8.912   2.937  2.0121  1.1202 -1.5777
  520MOL0     O68509   8.776   1.863   3.598  0.4882 -0.6850 -0.6447
  520MOL0     C68510   8.772   1.950   3.686 -0.4128  0.5621 -0.3033
  520MOL0     O68511   8.656   1.992   3.749 -0.2189 -0.1273 -0.5188
  520MOL0     C68512   8.542   1.927   3.707  0.6812  0.7829  0.4794
  520MOL0     C68513   8.525   1.789   3.732 -0.1639  0.2582  0.1274
  520MOL0     C68514   8.405   1.724   3.702 -0.1658  0.2197 -0.4001
  520MOL0     C68515   8.312   1.793   3.620  0.9903 -0.4138 -0.0343
  520MOL0     O68516   8.196   1.748   3.569  1.0112  0.5396  0.0405
  520MOL0     C68517   8.153   1.623   3.620 -0.2786 -0.4244  0.1945
  520MOL0     C68518   8.009   1.599   3.565 -0.1663  0.6568  0.1856
  520MOL0     C68519   8.010   1.536   3.422  0.7313  0.2214  0.5549
  520MOL0     C68520   7.875   1.544   3.367  0.2499 -0.8824  0.3680
  520MOL0     C68521   7.845   1.484   3.227 -0.8217  0.5105  0.3014
  520MOL0     C68522   7.724   1.547   3.167  0.7231  0.2980  1.2064
  520MOL0     C68523   7.725   1.546   3.009 -0.1380 -0.4204 -0.2442
  520MOL0     C68524   7.688   1.414   2.946  0.2978  0.6512 -0.3693
  520MOL0     N68525   7.563   1.354   2.995 -0.2989 -0.5158 -0.5263
  520MOL0     C68526   7.435   1.399   2.968  0.4263  0.4226 -0.3706
  520MOL0     C68527   7.363   1.326   3.056  0.1112 -0.8317  0.8214
  520MOL0     C68528   7.214   1.333   3.059  0.4752 -0.5561  0.1907
  520MOL0     C68529   7.153   1.246   2.957  0.2174  0.1854 -0.3049
  520MOL0     C68530   7.183   1.100   2.999  0.1036  0.2063 -0.0466
  520MOL0     C68531   7.128   1.008   2.897 -0.0586  0.9784 -0.0386
  520MOL0     O68532   6.997   1.046   2.856 -0.7161 -0.1381  1.1622
  520MOL0     C68533   6.909   0.955   2.825  0.6180  0.2082 -0.3384
  520MOL0     C68534   6.936   0.818   2.813 -0.4743  0.0700  0.4046
  520MOL0     C68535   6.830   0.732   2.782  0.2356  0.7811  0.6754
  520MOL0     C68536   6.697   0.778   2.778  0.4502  0.4930  0.1341
  520MOL0     C68537   6.589   0.682   2.769  0.2074 -0.0808  0.2417
  520MOL0     O68538   6.467   0.736   2.808 -0.1050 -0.2176 -0.3056
  520MOL0     C68539   6.348   0.669   2.785  0.5245  0.0156 -0.5480
  520MOL0     C68540   6.260   0.647   2.904  1.0761 -0.0196  0.4390
  520MOL0     C68541   6.140   0.584   2.901  0.2035 -1.2855  0.7084
  520MOL0     C68542   6.096   0.532   2.782  0.4314  0.1985 -0.3408
  520MOL0     O68543   5.976   0.464   2.757 -0.3493  0.1927  0.2602
  520MOL0     C68544   5.867   0.505   2.852 -0.0369  0.5271 -0.0523
  520MOL0     C68545   5.730   0.485   2.791  0.0302  0.2283 -0.6005
  520MOL0     C68546   5.708   0.360   2.717  0.3948  0.6094  0.1520
  520MOL0     C68547   5.586   0.288   2.776  0.6947 -0.0360 -0.1866
  520MOL0     C68548   5.550   0.166   2.692  0.0647  0.6265  0.3082
  520MOL0     C68549   5.432   0.082   2.747  0.2101 -0.4130 -0.4426
  520MOL0     C68550   5.376  -0.023   2.653  0.3970  0.2293  0.7160
  520MOL0     C68551   5.237  -0.070   2.692 -0.0387 -0.2909  0.0767
  520MOL0    Cl68552   5.112   0.062   2.692 -0.0788  0.0218 -0.6607
  520MOL0     C68553   6.184   0.545   2.665 -0.0877 -0.2911 -0.3558
  520MOL0     C68554   6.301   0.609   2.666 -0.3358 -0.8423  0.0274
  520MOL0     O68555   6.602   0.560   2.750 -0.7185  0.3438  0.8866
  520MOL0     C68556   6.674   0.917   2.799  0.2456 -0.4222 -0.4279
  520MOL0     C68557   6.776   1.007   2.819 -0.0619  0.8453 -0.3383
  520MOL0     N68558   7.445   1.251   3.137  1.0464 -0.6476 -0.1451
  520MOL0     N68559   7.566   1.265   3.093 -0.3229 -0.2770 -0.9301
  520MOL0     C68560   8.330   1.933   3.589 -0.5957  0.3281 -0.3370
  520MOL0     C68561   8.443   1.999   3.644  0.0463 -0.0326  0.4569
  520MOL0     C68562   8.906   2.005   3.716  0.2104  0.9402  0.0449
  520MOL0     C68563   8.920   2.094   3.819  0.2000 -0.1192 -0.6210
  520MOL0     C68564   9.033   2.152   3.848  0.4843 -1.0546  0.4375
  520MOL0     C68565   9.150   2.115   3.767  0.1838  0.5915  0.2267
  520MOL0     O68566   9.274   2.151   3.787 -0.3769 -0.6994 -0.3751
  520MOL0     C68567   9.288   2.284   3.848 -0.5411  0.1939 -0.9791
  520MOL0     C68568   9.413   2.362   3.809 -0.4592  0.4179  1.0089
  520MOL0     C68569   9.385   2.517   3.791  0.2106  0.6901  0.0736
  520MOL0     C68570   9.504   2.616   3.765 -0.2173 -0.3567 -0.0473
  520MOL0     C68571   9.608   2.558   3.685  0.1060  0.0497 -0.0887
  520MOL0     C68572   9.702   2.500   3.633  0.5888 -0.0683  0.3121
  520MOL0     C68573   9.145   2.021   3.664  0.2606 -0.2293 -0.6421
  520MOL0     C68574   9.021   1.963   3.644 -0.2542 -0.7679  1.1338
  520MOL0     H68575   8.601   1.725   3.775  0.3913  1.5719  1.1885
  520MOL0     H68576   8.393   1.620   3.731  1.9446  0.4145  1.4583
  520MOL0     H68577   8.146   1.626   3.729 -2.5603 -1.1794  0.1197
  520MOL0     H68578   8.223   1.551   3.577  1.9444  0.0944  2.6745
  520MOL0     H68579   7.942   1.684   3.558 -1.4310 -0.4565 -4.3241
  520MOL0     H68580   7.962   1.532   3.638 -2.1007  2.2848  0.4926
  520MOL0     H68581   8.059   1.438   3.418  2.5655  1.1283 -1.0377
  520MOL0     H68582   8.078   1.588   3.354  2.3615 -0.7720  1.3659
  520MOL0     H68583   7.816   1.482   3.436  1.4219 -1.0702  1.2310
  520MOL0     H68584   7.842   1.648   3.380  0.5561 -0.5846 -1.0358
  520MOL0     H68585   7.840   1.375   3.221  1.9844  0.3872 -1.7685
  520MOL0     H68586   7.925   1.512   3.157  0.6661 -1.8083  0.9441
  520MOL0     H68587   7.719   1.654   3.187  0.3970  0.9926 -1.9626
  520MOL0     H68588   7.632   1.509   3.213 -0.6368 -1.9592 -2.8422
  520MOL0     H68589   7.648   1.611   2.966 -1.3994 -1.0428  0.9850
  520MOL0     H68590   7.814   1.593   2.966 -1.5478  2.5732 -0.1259
  520MOL0     H68591   7.770   1.342   2.954  0.3416  0.7294 -0.1042
  520MOL0     H68592   7.667   1.430   2.840 -0.8264  2.2474  0.0561
  520MOL0     H68593   7.398   1.458   2.886 -1.6930 -2.1908 -1.4196
  520MOL0     H68594   7.181   1.436   3.042 -1.2600 -1.2694 -1.0807
  520MOL0     H68595   7.172   1.296   3.152 -1.5842  1.7953  0.3185
  520MOL0     H68596   7.190   1.264   2.855  0.6241 -0.3889 -0.2599
  520MOL0     H68597   7.046   1.266   2.966 -0.1237 -0.2493 -2.7313
  520MOL0     H68598   7.291   1.085   2.995  0.2214  1.1147 -0.6107
  520MOL0     H68599   7.136   1.072   3.094 -2.7603 -1.4222 -1.8104
  520MOL0     H68600   7.118   0.905   2.931 -3.3517  0.8180 -1.1214
  520MOL0     H68601   7.190   1.003   2.807  1.4416  1.1536  0.9412
  520MOL0     H68602   7.035   0.772   2.812 -1.0066 -1.1768  1.7927
  520MOL0     H68603   6.848   0.628   2.757  0.5573  1.4876 -2.4703
  520MOL0     H68604   6.285   0.685   3.003  0.0015 -1.1515  1.1767
  520MOL0     H68605   6.070   0.565   2.982 -0.2766 -1.8605  0.1668
  520MOL0     H68606   5.873   0.611   2.877  1.1928 -0.1727  3.1261
  520MOL0     H68607   5.876   0.439   2.939  3.0754  0.4817 -0.2769
  520MOL0     H68608   5.724   0.568   2.720 -1.8095  0.5233 -0.1408
  520MOL0     H68609   5.660   0.493   2.875 -1.6210 -2.2018 -1.6331
  520MOL0     H68610   5.799   0.299   2.722 -1.9572 -3.1846 -0.0051
  520MOL0     H68611   5.688   0.381   2.611  0.4949 -0.3945 -0.0768
  520MOL0     H68612   5.606   0.260   2.880 -0.7463  0.1695  0.1666
  520MOL0     H68613   5.498   0.353   2.773  0.3390 -0.2999  2.2165
  520MOL0     H68614   5.630   0.091   2.689  2.6607  3.2233  1.0344
  520MOL0     H68615   5.535   0.202   2.590  4.5412  3.2002  0.3291
  520MOL0     H68616   5.354   0.155   2.771  0.0821 -0.8346  0.4620
  520MOL0     H68617   5.467   0.033   2.838  1.3857  0.5297 -0.3630
  520MOL0     H68618   5.372   0.024   2.554  1.6863 -0.9931  0.0521
  520MOL0     H68619   5.442  -0.110   2.653 -1.7398 -1.4917  1.8797
  520MOL0     H68620   5.229  -0.118   2.790 -0.1973  0.3788  0.3987
  520MOL0     H68621   5.207  -0.146   2.619 -1.0254 -0.5300  0.7204
  520MOL0     H68622   6.162   0.494   2.571 -0.4688  0.9944 -0.9760
  520MOL0     H68623   6.358   0.619   2.575  1.7513  0.2957  1.3792
  520MOL0     H68624   6.577   0.965   2.810 -0.1289 -1.3622  0.5641
  520MOL0     H68625   6.747   1.108   2.846  0.9254  0.9329  0.4207
  520MOL0     H68626   8.253   1.980   3.528 -1.4106 -0.7292 -0.1374
  520MOL0     H68627   8.453   2.107   3.637 -1.5368  0.1117  0.0951
  520MOL0     H68628   8.833   2.116   3.881  1.6463  0.5277  1.2395
  520MOL0     H68629   9.027   2.224   3.929 -1.3432 -2.4916  1.6759
  520MOL0     H68630   9.306   2.275   3.956 -1.8229  3.4134 -0.3959
  520MOL0     H68631   9.201   2.348   3.833 -2.3840 -0.8854  3.3766
  520MOL0     H68632   9.501   2.352   3.874  1.5624  3.5171 -0.9766
  520MOL0     H68633   9.431   2.324   3.708 -4.1956  3.2172 -0.9369
  520MOL0     H68634   9.330   2.555   3.877 -2.1391 -0.8773 -0.6470
  520MOL0     H68635   9.314   2.532   3.710  2.1274  2.7966 -1.3382
  520MOL0     H68636   9.464   2.705   3.715  0.2140  0.3090  0.7750
  520MOL0     H68637   9.549   2.645   3.860 -0.4379  1.0055 -0.3388
  520MOL0     H68638   9.785   2.444   3.593  0.9560  2.0964 -2.1847
  520MOL0     H68639   9.231   1.998   3.602 -0.5974 -0.7879 -1.6611
  520MOL0     H68640   9.014   1.876   3.579 -0.3220 -0.6332  0.9588
  521MOL0     O68641   0.104  10.593   3.657  0.4520 -0.1399 -0.1086
  521MOL0     C68642   0.092  10.714   3.672  0.5293 -0.0487  1.1579
  521MOL0     O68643  -0.024  10.786   3.657 -0.1260  0.0920 -0.5173
  521MOL0     C68644  -0.147  10.723   3.650 -0.0134  0.6966  0.3371
  521MOL0     C68645  -0.253  10.795   3.594 -0.9509  0.2756 -0.8426
  521MOL0     C68646  -0.387  10.751   3.606 -0.5203 -0.1884  0.8666
  521MOL0     C68647  -0.416  10.624   3.661 -0.8708  0.8543  0.8560
  521MOL0     O68648  -0.548  10.600   3.678  0.1046  0.4447  0.2435
  521MOL0     C68649  -0.581  10.493   3.764  0.1379 -0.3499  0.8039
  521MOL0     C68650  -0.736  10.480   3.787  0.3118 -0.1840 -0.2336
  521MOL0     C68651  -0.758  10.377   3.898  0.2440 -0.4556 -0.0116
  521MOL0     C68652  -0.903  10.328   3.914  0.3689  0.3189 -0.2884
  521MOL0     C68653  -1.005  10.437   3.877  0.5685  0.3084 -0.6215
  521MOL0     C68654  -1.147  10.383   3.894  0.2761 -0.4600  0.3004
  521MOL0     C68655  -1.260  10.476   3.850  0.2109 -0.4288  0.4614
  521MOL0     C68656  -1.394  10.412   3.907 -0.8096 -0.7510 -0.3499
  521MOL0     N68657  -1.511  10.483   3.852  0.5146  0.2325 -0.8712
  521MOL0     C68658  -1.532  10.614   3.887  0.1028 -0.5081  0.0448
  521MOL0     C68659  -1.651  10.644   3.825  0.6018 -0.2274  0.0477
  521MOL0     C68660  -1.724  10.779   3.814  0.3308  0.0753  0.3461
  521MOL0     C68661  -1.869  10.785   3.850  0.7202 -0.0248  0.0687
  521MOL0     C68662  -1.905  10.733   3.987  0.1244  0.0566  0.4533
  521MOL0     C68663  -2.060  10.717   3.991 -0.3871 -0.6416  0.8678
  521MOL0     O68664  -2.125  10.846   3.972  0.0800  0.4397 -0.2536
  521MOL0     C68665  -2.252  10.847   3.911 -0.1374 -0.0076  0.0615
  521MOL0     C68666  -2.334  10.736   3.888 -0.0661 -0.6799  0.6688
  521MOL0     C68667  -2.460  10.760   3.833  0.0842 -0.1396  0.1218
  521MOL0     C68668  -2.515  10.886   3.820 -0.1069  0.2354  0.4933
  521MOL0     C68669  -2.653  10.896   3.765  0.1566 -0.4628 -0.0694
  521MOL0     O68670  -2.726  10.994   3.827 -0.1143  0.5454  0.4837
  521MOL0     C68671  -2.843  11.036   3.770  0.3130 -1.3084 -0.6011
  521MOL0     C68672  -2.906  11.012   3.647 -0.9058  0.2197 -0.3059
  521MOL0     C68673  -3.041  11.054   3.628 -0.9706  0.0395 -0.0528
  521MOL0     C68674  -3.104  11.118   3.723 -0.1235 -0.7790 -0.6898
  521MOL0     O68675  -3.237  11.140   3.707  0.2987 -0.4097 -1.0049
  521MOL0     C68676  -3.332  11.058   3.780 -0.2417  0.0979 -0.3396
  521MOL0     C68677  -3.317  10.899   3.746 -0.1225 -0.5138 -0.1467
  521MOL0     C68678  -3.432  10.853   3.665  1.4374 -0.1221 -0.9386
  521MOL0     C68679  -3.564  10.840   3.755 -0.8674  0.8259 -0.3295
  521MOL0     C68680  -3.692  10.770   3.686 -0.4308 -0.2390  0.2941
  521MOL0     C68681  -3.665  10.628   3.652 -0.4253 -0.7541  0.1992
  521MOL0     C68682  -3.794  10.556   3.622  1.1140  0.4833 -0.1715
  521MOL0     C68683  -3.776  10.433   3.536  0.6425  0.2816 -0.4712
  521MOL0    Cl68684  -3.946  10.360   3.504 -0.1303  0.0458 -0.1207
  521MOL0     C68685  -3.038  11.164   3.834  0.6870  0.5205 -0.4157
  521MOL0     C68686  -2.906  11.123   3.863  0.4405  0.0035 -0.0373
  521MOL0     O68687  -2.688  10.817   3.676  0.6948 -0.0613 -0.5435
  521MOL0     C68688  -2.439  10.999   3.849 -0.3916 -1.3112  0.5101
  521MOL0     C68689  -2.310  10.977   3.896  0.2070  0.2973 -0.3527
  521MOL0     N68690  -1.705  10.527   3.776 -0.2254  0.0433 -0.2446
  521MOL0     N68691  -1.619  10.427   3.796  0.2095 -0.3229  0.5263
  521MOL0     C68692  -0.304  10.549   3.711  0.7713  0.0858 -0.0435
  521MOL0     C68693  -0.179  10.595   3.705 -0.3348 -0.4951 -0.0794
  521MOL0     C68694   0.221  10.776   3.679 -0.0308  0.4814  0.1239
  521MOL0     C68695   0.340  10.700   3.654 -0.9202  0.4149 -0.2954
  521MOL0     C68696   0.465  10.757   3.674  0.3803 -0.1933  0.1086
  521MOL0     C68697   0.475  10.893   3.712  0.0967  0.1311  0.2317
  521MOL0     O68698   0.603  10.938   3.727  0.4590  0.1214 -0.8272
  521MOL0     C68699   0.629  11.061   3.802 -0.3524 -0.6483 -0.9382
  521MOL0     C68700   0.769  11.112   3.761  0.1657  0.0597 -0.0769
  521MOL0     C68701   0.770  11.135   3.617  1.0485 -0.6148  0.3934
  521MOL0     C68702   0.899  11.213   3.570 -1.0553 -0.6651  0.1600
  521MOL0     C68703   1.024  11.128   3.581  0.4271 -0.5166  0.2270
  521MOL0     C68704   1.128  11.065   3.581  0.5728  0.5354 -1.0679
  521MOL0     C68705   0.356  10.967   3.722  0.0862  0.0999 -0.2609
  521MOL0     C68706   0.232  10.904   3.708 -1.1000 -0.9220  0.7427
  521MOL0     H68707  -0.218  10.889   3.552  0.7298 -0.6073 -1.5205
  521MOL0     H68708  -0.458  10.830   3.582 -0.6851  0.6663  3.7354
  521MOL0     H68709  -0.536  10.500   3.864  1.9073  1.0233 -0.0373
  521MOL0     H68710  -0.548  10.397   3.723 -0.8445 -0.7317  0.8713
  521MOL0     H68711  -0.777  10.449   3.690  0.2597 -0.1963 -0.2077
  521MOL0     H68712  -0.778  10.577   3.816  0.3137 -0.2900  0.1216
  521MOL0     H68713  -0.736  10.424   3.994  1.7432  0.0573 -0.5796
  521MOL0     H68714  -0.696  10.289   3.879  2.1922  0.9470 -0.4584
  521MOL0     H68715  -0.916  10.239   3.852  2.0104  0.6163 -1.1018
  521MOL0     H68716  -0.914  10.303   4.020  0.2599 -0.0371 -0.3797
  521MOL0     H68717  -0.992  10.462   3.771 -3.6178  2.9569 -0.7937
  521MOL0     H68718  -0.996  10.526   3.940  0.3039 -0.8748  1.1493
  521MOL0     H68719  -1.168  10.361   3.999 -0.0428  0.1095  0.3611
  521MOL0     H68720  -1.154  10.288   3.840  2.2879 -0.8852  0.7259
  521MOL0     H68721  -1.242  10.578   3.887  2.4031  0.7764 -3.3076
  521MOL0     H68722  -1.260  10.478   3.741  2.8642  0.8273  0.3940
  521MOL0     H68723  -1.393  10.420   4.017 -1.1205 -1.5956 -0.2767
  521MOL0     H68724  -1.398  10.310   3.868 -3.1081 -0.7794 -0.1986
  521MOL0     H68725  -1.464  10.675   3.946  1.8267 -0.6391 -1.6963
  521MOL0     H68726  -1.719  10.816   3.712  1.2894  1.0620  0.7375
  521MOL0     H68727  -1.668  10.842   3.883  0.5920  0.6255 -0.3644
  521MOL0     H68728  -1.922  10.730   3.771  2.7620  0.0016 -1.3934
  521MOL0     H68729  -1.895  10.891   3.846  0.4056 -0.0853  0.4315
  521MOL0     H68730  -1.867  10.632   4.003  0.9617  0.3660  0.4521
  521MOL0     H68731  -1.874  10.805   4.063 -0.3343  1.9248 -1.0346
  521MOL0     H68732  -2.097  10.668   4.081  1.0166  1.4584  2.7011
  521MOL0     H68733  -2.087  10.662   3.900 -0.1392  1.1135 -0.3398
  521MOL0     H68734  -2.296  10.635   3.904 -0.7597 -1.3850 -1.6164
  521MOL0     H68735  -2.532  10.681   3.814  1.2089 -1.2077  0.1866
  521MOL0     H68736  -2.850  10.948   3.580  0.3527  0.2389  0.6943
  521MOL0     H68737  -3.095  11.027   3.539 -2.9122 -0.6276  1.2680
  521MOL0     H68738  -3.426  11.086   3.732  0.9321  1.7848 -1.8034
  521MOL0     H68739  -3.340  11.084   3.886  2.3459 -0.7812  0.1434
  521MOL0     H68740  -3.328  10.842   3.838 -0.2998 -3.2254 -1.7489
  521MOL0     H68741  -3.219  10.877   3.705  1.0703  1.1089  1.6700
  521MOL0     H68742  -3.395  10.755   3.631  0.3061 -0.5050 -1.1268
  521MOL0     H68743  -3.451  10.919   3.580 -2.8238  0.2563  0.1075
  521MOL0     H68744  -3.546  10.784   3.846 -2.9206 -1.5603 -1.2736
  521MOL0     H68745  -3.594  10.943   3.778 -2.3689  0.3580 -0.0860
  521MOL0     H68746  -3.731  10.817   3.595 -0.5811 -1.2906 -0.1929
  521MOL0     H68747  -3.767  10.772   3.765 -1.2280 -1.6258 -0.3846
  521MOL0     H68748  -3.609  10.577   3.731  0.9575 -1.7148 -1.3419
  521MOL0     H68749  -3.591  10.612   3.574  0.4509 -0.3975  0.9379
  521MOL0     H68750  -3.842  10.527   3.715 -1.4462  5.1938  0.2534
  521MOL0     H68751  -3.865  10.624   3.575  1.7238  1.6281  0.5296
  521MOL0     H68752  -3.707  10.366   3.589 -1.8071 -0.6021  1.7956
  521MOL0     H68753  -3.737  10.452   3.435  2.5336 -0.7886  0.0137
  521MOL0     H68754  -3.099  11.224   3.901 -1.1011 -2.5531  0.9352
  521MOL0     H68755  -2.848  11.158   3.948  1.4304 -0.3862 -0.5343
  521MOL0     H68756  -2.457  11.105   3.835  0.3263 -1.3345 -0.8193
  521MOL0     H68757  -2.244  11.059   3.920 -0.0432 -0.1093  1.8944
  521MOL0     H68758  -0.318  10.449   3.752 -2.1193  0.4409  0.0374
  521MOL0     H68759  -0.098  10.535   3.745  1.1541  2.4875  1.7485
  521MOL0     H68760   0.344  10.594   3.631 -0.2284 -0.5222  3.5218
  521MOL0     H68761   0.553  10.699   3.653  0.5989  0.4524 -0.7897
  521MOL0     H68762   0.629  11.048   3.910 -0.0849 -1.8096 -1.0638
  521MOL0     H68763   0.560  11.141   3.775 -0.4661  0.1404  1.4466
  521MOL0     H68764   0.814  11.191   3.822  0.1600  0.8728 -1.1041
  521MOL0     H68765   0.830  11.024   3.786  1.1828  0.6661 -0.3726
  521MOL0     H68766   0.679  11.186   3.587  2.6629  1.1073 -1.8784
  521MOL0     H68767   0.759  11.042   3.560  0.7670 -1.7386  2.1814
  521MOL0     H68768   0.872  11.236   3.467 -1.5914 -0.2372  0.3934
  521MOL0     H68769   0.910  11.309   3.620  0.6659 -0.3167 -0.8089
  521MOL0     H68770   1.219  11.009   3.574  0.7938  0.9725 -1.9355
  521MOL0     H68771   0.354  11.070   3.755 -0.3345 -0.3696  1.2310
  521MOL0     H68772   0.147  10.972   3.714  0.1067  1.0371 -2.1661
  522MOL0     O68773   4.756   8.721   1.996  0.0041 -0.1733  0.1028
  522MOL0     C68774   4.865   8.775   1.998  0.3201 -0.4749  0.1689
  522MOL0     O68775   4.897   8.880   2.078  0.5142  0.3334 -0.1754
  522MOL0     C68776   4.800   8.958   2.147 -0.9660  0.8852  0.3416
  522MOL0     C68777   4.660   8.964   2.132  0.2608  0.1324  0.1627
  522MOL0     C68778   4.585   9.048   2.215  0.5203 -0.5242 -0.0370
  522MOL0     C68779   4.637   9.144   2.299 -0.3450  0.8500  0.2164
  522MOL0     O68780   4.553   9.236   2.352  0.4852 -0.2425 -0.5973
  522MOL0     C68781   4.577   9.282   2.490  0.6917  0.1249  0.8797
  522MOL0     C68782   4.453   9.357   2.525 -0.1748 -0.0291  0.1996
  522MOL0     C68783   4.446   9.413   2.665 -0.1036 -0.1317  0.0070
  522MOL0     C68784   4.314   9.500   2.682 -0.0451  0.7006  0.2896
  522MOL0     C68785   4.313   9.580   2.813  0.5761 -0.1976  0.9014
  522MOL0     C68786   4.156   9.614   2.837  0.0711  0.4160 -0.1727
  522MOL0     C68787   4.140   9.684   2.972  0.0775 -0.1414  0.6841
  522MOL0     C68788   4.191   9.835   2.968  0.2146  0.5928  0.5237
  522MOL0     N68789   4.157   9.922   2.858  0.2798 -0.0845  0.7047
  522MOL0     C68790   4.030   9.986   2.841 -0.3490  0.2326 -1.3601
  522MOL0     C68791   4.049  10.055   2.728 -0.0114 -0.7194  0.0009
  522MOL0     C68792   3.944  10.151   2.663  0.0589 -0.2764 -0.2604
  522MOL0     C68793   3.798  10.111   2.688 -0.0767  0.0679 -0.3204
  522MOL0     C68794   3.694  10.159   2.584 -0.4156  0.3043 -0.6240
  522MOL0     C68795   3.665  10.303   2.594 -0.7915 -0.1775  0.2463
  522MOL0     O68796   3.570  10.330   2.486 -0.1880 -0.2517 -0.0140
  522MOL0     C68797   3.433  10.349   2.513 -0.7255  0.1668 -0.0930
  522MOL0     C68798   3.349  10.424   2.420 -1.1278 -0.1906 -0.4513
  522MOL0     C68799   3.212  10.445   2.440  0.4959  0.3494  0.1685
  522MOL0     C68800   3.152  10.395   2.558  0.9142 -0.0957 -0.6515
  522MOL0     C68801   3.013  10.424   2.599  0.1274  0.0384 -0.9928
  522MOL0     O68802   2.940  10.495   2.515  0.1000  0.7731 -0.8234
  522MOL0     C68803   2.807  10.528   2.543 -0.0520 -0.4174 -0.3763
  522MOL0     C68804   2.747  10.556   2.667 -0.0059  0.0418 -0.5504
  522MOL0     C68805   2.612  10.601   2.674  0.3852 -0.7232  0.4150
  522MOL0     C68806   2.539  10.623   2.556 -0.0964 -0.7420 -0.6117
  522MOL0     O68807   2.411  10.672   2.555 -0.0566 -0.5676  0.2376
  522MOL0     C68808   2.335  10.647   2.673 -0.1929 -0.1330 -0.2090
  522MOL0     C68809   2.196  10.700   2.651  0.3464  0.4321  0.0158
  522MOL0     C68810   2.194  10.850   2.658 -0.2720  0.8397 -0.3740
  522MOL0     C68811   2.058  10.909   2.641  0.0795  0.5034 -0.3368
  522MOL0     C68812   2.052  11.051   2.613  1.0317 -0.3294 -1.1948
  522MOL0     C68813   1.899  11.089   2.611 -0.4663 -0.3673 -0.2316
  522MOL0     C68814   1.885  11.235   2.575 -0.8982  0.0862  0.1508
  522MOL0     C68815   1.740  11.273   2.550  0.5385 -0.6505  0.3110
  522MOL0    Cl68816   1.651  11.246   2.707  0.0185  0.1433  0.2469
  522MOL0     C68817   2.608  10.609   2.435 -0.3635 -0.0821  0.0095
  522MOL0     C68818   2.739  10.557   2.428 -0.4785 -0.1596  0.0773
  522MOL0     O68819   2.972  10.362   2.694 -0.4531 -0.4573  0.0646
  522MOL0     C68820   3.229  10.310   2.640  1.4188 -0.8629  0.5287
  522MOL0     C68821   3.363  10.286   2.619 -1.3651 -0.8054  0.5357
  522MOL0     N68822   4.179  10.036   2.675  0.4149  0.8771 -0.0581
  522MOL0     N68823   4.232   9.946   2.746  0.0265  0.2567 -0.2830
  522MOL0     C68824   4.773   9.153   2.295 -0.1095  0.2773  0.1744
  522MOL0     C68825   4.854   9.055   2.232 -0.3084 -0.6710  0.3039
  522MOL0     C68826   4.971   8.723   1.905 -0.2528 -0.8965 -1.0018
  522MOL0     C68827   5.075   8.808   1.861 -0.4756  0.1566  0.6175
  522MOL0     C68828   5.180   8.755   1.788 -0.1407 -0.1571  0.3642
  522MOL0     C68829   5.170   8.618   1.745  0.0312  0.1799  0.2226
  522MOL0     O68830   5.263   8.558   1.659 -0.6766 -0.1805 -0.2256
  522MOL0     C68831   5.373   8.636   1.607 -0.0766  0.4920  0.5349
  522MOL0     C68832   5.454   8.549   1.512  0.0909 -0.5964 -0.4086
  522MOL0     C68833   5.591   8.602   1.472  0.0469  0.5143 -0.2175
  522MOL0     C68834   5.657   8.520   1.365  0.4136 -0.2786 -0.4909
  522MOL0     C68835   5.796   8.568   1.334  0.5109 -0.3920  0.8696
  522MOL0     C68836   5.899   8.626   1.312  0.0591  0.0332  0.7401
  522MOL0     C68837   5.068   8.544   1.788 -0.5229 -0.0523  0.1751
  522MOL0     C68838   4.968   8.598   1.870  0.4467 -0.3798  0.2958
  522MOL0     H68839   4.601   8.896   2.070 -2.6500  1.9193  0.7750
  522MOL0     H68840   4.477   9.050   2.207  0.4289 -0.8504  0.9886
  522MOL0     H68841   4.671   9.339   2.491  0.1851  0.9789  0.6564
  522MOL0     H68842   4.590   9.195   2.556  0.4836 -0.6085 -0.0204
  522MOL0     H68843   4.369   9.288   2.512  1.6446 -2.4305  0.6004
  522MOL0     H68844   4.433   9.442   2.459 -0.5100 -0.4542 -0.2523
  522MOL0     H68845   4.537   9.468   2.692  0.2256  0.1503 -1.5835
  522MOL0     H68846   4.447   9.335   2.743  0.6275  1.0267  1.2025
  522MOL0     H68847   4.296   9.565   2.596 -2.9911 -1.9685 -1.3080
  522MOL0     H68848   4.234   9.425   2.684  2.7019 -2.5636 -1.6325
  522MOL0     H68849   4.351   9.681   2.797  1.7964 -1.0706 -3.0338
  522MOL0     H68850   4.358   9.526   2.897  2.0253  0.0657  0.3237
  522MOL0     H68851   4.097   9.522   2.844  0.8952 -0.1627 -0.6415
  522MOL0     H68852   4.110   9.673   2.757  0.2364  0.8096  0.0213
  522MOL0     H68853   4.035   9.686   3.004 -0.2533  0.5309 -0.3713
  522MOL0     H68854   4.192   9.642   3.058 -1.4349  1.6702  2.6141
  522MOL0     H68855   4.299   9.831   2.952  0.0177  2.5169 -1.7552
  522MOL0     H68856   4.166   9.883   3.063 -0.8221 -0.4162  0.7875
  522MOL0     H68857   3.940   9.989   2.901  1.1994 -0.4339  1.1400
  522MOL0     H68858   3.968  10.164   2.557 -1.1615  1.1023 -0.4013
  522MOL0     H68859   3.945  10.246   2.717  0.6054 -1.4921  1.9908
  522MOL0     H68860   3.768  10.145   2.787 -1.5757  1.3121 -1.1595
  522MOL0     H68861   3.787  10.002   2.683  1.9556 -0.2627  0.9353
  522MOL0     H68862   3.732  10.134   2.485  2.7862  5.9053 -1.2231
  522MOL0     H68863   3.598  10.113   2.609  0.3231  0.0449  2.1407
  522MOL0     H68864   3.755  10.361   2.570 -0.7822 -0.4743 -0.4628
  522MOL0     H68865   3.623  10.332   2.691 -1.6734 -0.8120  0.0712
  522MOL0     H68866   3.408  10.462   2.338  0.7727  0.5902  1.2001
  522MOL0     H68867   3.159  10.519   2.380  1.4493  1.6701  0.9009
  522MOL0     H68868   2.797  10.523   2.757 -1.8579  0.6895  0.7853
  522MOL0     H68869   2.575  10.629   2.771 -0.4580  1.1984 -0.4187
  522MOL0     H68870   2.361  10.666   2.777 -2.9361 -1.0271  0.7200
  522MOL0     H68871   2.334  10.537   2.670  2.9376 -0.2322 -1.7593
  522MOL0     H68872   2.131  10.666   2.732  0.5221 -0.3233 -0.1466
  522MOL0     H68873   2.153  10.661   2.558  1.7636 -1.5626  0.1355
  522MOL0     H68874   2.267  10.883   2.584  0.4593  0.0872 -0.0038
  522MOL0     H68875   2.233  10.865   2.759  0.1297  0.6520 -0.5015
  522MOL0     H68876   1.995  10.866   2.563  0.0524  1.2094 -0.7151
  522MOL0     H68877   2.006  10.894   2.736 -3.3645  1.1680 -1.9953
  522MOL0     H68878   2.114  11.074   2.526  1.4085  2.6995 -0.2603
  522MOL0     H68879   2.096  11.110   2.694 -1.5029  3.8812 -2.5757
  522MOL0     H68880   1.862  11.067   2.712 -0.6491 -2.6179 -0.7441
  522MOL0     H68881   1.838  11.033   2.539 -2.0741  1.5413 -0.4417
  522MOL0     H68882   1.927  11.281   2.664  2.1795 -2.2030  0.0248
  522MOL0     H68883   1.946  11.268   2.490 -0.5551 -2.7502 -0.8176
  522MOL0     H68884   1.689  11.209   2.477 -1.9202  1.9252 -0.3951
  522MOL0     H68885   1.725  11.376   2.518 -3.4829 -0.9905  0.5880
  522MOL0     H68886   2.560  10.634   2.341  2.4975 -1.0036 -1.8367
  522MOL0     H68887   2.797  10.548   2.337  0.2664  2.1549  0.2753
  522MOL0     H68888   3.189  10.270   2.733 -1.7311  1.2345  0.2149
  522MOL0     H68889   3.417  10.219   2.685  1.2876  0.8816  0.2494
  522MOL0     H68890   4.822   9.242   2.333  0.4469  0.3656 -0.7031
  522MOL0     H68891   4.960   9.050   2.252 -0.1157 -2.6151 -0.9871
  522MOL0     H68892   5.079   8.911   1.895 -1.2761 -0.0647  1.3984
  522MOL0     H68893   5.261   8.825   1.766 -1.0420  2.4168  4.3250
  522MOL0     H68894   5.437   8.677   1.686 -0.1615  2.3282 -0.2951
  522MOL0     H68895   5.340   8.721   1.547  0.7035  1.1988  1.0859
  522MOL0     H68896   5.474   8.456   1.566 -0.1462 -1.4904 -1.8267
  522MOL0     H68897   5.397   8.528   1.422  0.2085 -4.6225  0.2988
  522MOL0     H68898   5.658   8.606   1.558 -1.0578 -0.3961  0.7129
  522MOL0     H68899   5.585   8.704   1.431  1.6939  1.5611  1.8884
  522MOL0     H68900   5.669   8.416   1.398  1.9132 -0.1012 -0.4215
  522MOL0     H68901   5.595   8.520   1.275  1.5418  2.3659 -1.3388
  522MOL0     H68902   5.987   8.668   1.268 -1.9168  1.8076 -1.7575
  522MOL0     H68903   5.078   8.437   1.771  0.0627 -0.2594  1.6616
  522MOL0     H68904   4.891   8.529   1.904 -0.6081 -1.2770 -3.5101
  523MOL0     O68905   6.698   7.254   7.881 -0.0731 -0.0073 -0.0187
  523MOL0     C68906   6.636   7.289   7.779  0.3360 -0.2373 -0.3940
  523MOL0     O68907   6.692   7.296   7.657 -0.5274 -0.2206 -0.1675
  523MOL0     C68908   6.830   7.294   7.654  0.4967 -0.3586 -0.3132
  523MOL0     C68909   6.903   7.182   7.682  0.3916  0.4535  0.3643
  523MOL0     C68910   7.036   7.180   7.650  0.8377 -0.0584 -0.1764
  523MOL0     C68911   7.097   7.282   7.579 -0.0187 -0.0903 -0.5947
  523MOL0     O68912   7.224   7.255   7.524  0.0156 -0.1644  0.1807
  523MOL0     C68913   7.325   7.355   7.515 -0.1035  0.8491  0.7028
  523MOL0     C68914   7.349   7.421   7.384  0.1664 -0.0724  0.9374
  523MOL0     C68915   7.457   7.531   7.375  0.0921  0.0219  0.1374
  523MOL0     C68916   7.600   7.459   7.384 -0.3616 -0.0121 -0.3438
  523MOL0     C68917   7.703   7.553   7.309  0.0625  1.2689 -0.3203
  523MOL0     C68918   7.766   7.494   7.180  0.0070  0.3087  0.6225
  523MOL0     C68919   7.790   7.601   7.084  0.4635 -0.3678  0.1915
  523MOL0     C68920   7.866   7.560   6.958  0.2850  0.0106  0.0047
  523MOL0     N68921   8.010   7.539   6.984  0.2475  0.2900 -0.4610
  523MOL0     C68922   8.088   7.582   7.098  0.0292 -0.1966  0.3291
  523MOL0     C68923   8.200   7.513   7.101  0.8038  0.4119 -0.2689
  523MOL0     C68924   8.297   7.483   7.211  0.8696 -0.5288 -0.8429
  523MOL0     C68925   8.446   7.498   7.164 -0.4523 -0.1949  0.2220
  523MOL0     C68926   8.502   7.638   7.204  0.2059  0.1940 -0.4723
  523MOL0     C68927   8.629   7.672   7.128  0.0420  0.5559  0.6928
  523MOL0     O68928   8.734   7.584   7.157 -0.3859 -0.0780 -0.2675
  523MOL0     C68929   8.848   7.598   7.086  0.6529  0.3788  0.6906
  523MOL0     C68930   8.967   7.601   7.150  0.0719  0.1771  0.0088
  523MOL0     C68931   9.084   7.631   7.084 -0.3759 -0.1553 -0.0440
  523MOL0     C68932   9.087   7.650   6.938  0.2213  0.5588 -0.4838
  523MOL0     C68933   9.212   7.661   6.856  0.1212 -0.1954 -0.7368
  523MOL0     O68934   9.329   7.687   6.922 -0.1692  0.0467  0.1742
  523MOL0     C68935   9.454   7.727   6.862 -0.2048  0.6960 -0.7234
  523MOL0     C68936   9.549   7.779   6.953  0.1172 -0.3014 -0.6524
  523MOL0     C68937   9.677   7.812   6.912 -1.4159 -0.2019 -1.0733
  523MOL0     C68938   9.719   7.798   6.779 -0.4623  0.3619 -0.5802
  523MOL0     O68939   9.850   7.823   6.753  0.4659  0.2112 -0.3103
  523MOL0     C68940   9.892   7.821   6.620  0.7366 -0.2795 -0.2136
  523MOL0     C68941  10.033   7.861   6.603  0.7101  0.0616 -0.7810
  523MOL0     C68942  10.125   7.773   6.679 -0.8164  0.3345 -0.2428
  523MOL0     C68943  10.267   7.811   6.647  0.2093 -0.3236 -0.3291
  523MOL0     C68944  10.377   7.721   6.709 -0.4109 -0.1283 -0.3603
  523MOL0     C68945  10.516   7.764   6.670  0.0038  0.7149 -0.1688
  523MOL0     C68946  10.625   7.680   6.746 -0.0583 -0.0652 -0.0133
  523MOL0     C68947  10.653   7.732   6.888  0.0005 -0.4922  1.4996
  523MOL0    Cl68948  10.775   7.615   6.953 -0.0546  0.5693  0.2937
  523MOL0     C68949   9.632   7.740   6.685  0.1749 -0.6754 -0.5049
  523MOL0     C68950   9.499   7.708   6.728  0.1463 -1.2205 -0.4007
  523MOL0     O68951   9.193   7.650   6.741 -0.3821  0.4433 -0.0181
  523MOL0     C68952   8.962   7.640   6.876 -0.4841 -0.2806 -0.5555
  523MOL0     C68953   8.841   7.613   6.946 -0.1244  0.9804 -0.3745
  523MOL0     N68954   8.204   7.435   6.982  0.1502 -0.6092  0.0827
  523MOL0     N68955   8.083   7.447   6.924  0.1873 -0.4465 -0.1104
  523MOL0     C68956   7.025   7.403   7.558 -0.2107 -0.2000  0.0321
  523MOL0     C68957   6.888   7.405   7.591 -0.0281 -0.4694  0.2068
  523MOL0     C68958   6.489   7.329   7.789 -0.3189  0.2985  0.0796
  523MOL0     C68959   6.410   7.308   7.902  0.1141  0.0388  0.0842
  523MOL0     C68960   6.276   7.348   7.897 -0.2345  1.1357  0.9282
  523MOL0     C68961   6.228   7.421   7.789 -0.1015  0.0703  1.1277
  523MOL0     O68962   6.100   7.458   7.792  0.4082 -0.1715 -0.6632
  523MOL0     C68963   6.056   7.578   7.725 -0.7616 -0.2216 -0.1807
  523MOL0     C68964   6.054   7.688   7.828  0.0290 -0.4241  0.1664
  523MOL0     C68965   6.003   7.824   7.760 -1.1776  0.4829  0.1924
  523MOL0     C68966   6.034   7.950   7.840 -0.3178 -0.3638 -0.8061
  523MOL0     C68967   6.174   7.978   7.860 -0.3519  0.0119 -0.6393
  523MOL0     C68968   6.295   8.004   7.848  0.1248  0.2362 -0.7511
  523MOL0     C68969   6.310   7.450   7.677  0.3821  0.5203  0.0758
  523MOL0     C68970   6.441   7.405   7.679  0.5603  0.0821 -0.0583
  523MOL0     H68971   6.861   7.093   7.729 -0.9244 -0.5263 -2.4564
  523MOL0     H68972   7.095   7.096   7.687  0.1950  0.8262  3.2410
  523MOL0     H68973   7.412   7.303   7.557 -0.1645  0.2980  0.1658
  523MOL0     H68974   7.310   7.430   7.593 -2.2287  3.7911 -2.2468
  523MOL0     H68975   7.255   7.469   7.356  0.7975 -0.2006 -1.7605
  523MOL0     H68976   7.382   7.336   7.323  0.1918  0.3284  0.3850
  523MOL0     H68977   7.433   7.600   7.456 -1.4196  0.4915 -0.6684
  523MOL0     H68978   7.437   7.583   7.280 -1.4790 -1.7195 -0.5437
  523MOL0     H68979   7.621   7.447   7.490  1.7568 -0.2409 -0.7473
  523MOL0     H68980   7.597   7.358   7.342 -0.9838 -0.1027 -0.0858
  523MOL0     H68981   7.791   7.559   7.374 -0.7264 -3.5566  1.5640
  523MOL0     H68982   7.651   7.649   7.299  1.4766  2.0647 -0.3477
  523MOL0     H68983   7.698   7.417   7.142 -1.8798  2.5604 -0.8384
  523MOL0     H68984   7.861   7.445   7.203  0.5311  0.3413 -1.2718
  523MOL0     H68985   7.700   7.652   7.049  1.6038  1.7867  0.1958
  523MOL0     H68986   7.849   7.676   7.138  0.0955 -0.6824  1.0536
  523MOL0     H68987   7.854   7.637   6.882  0.0268 -0.0531 -0.0203
  523MOL0     H68988   7.821   7.472   6.911 -1.0816  0.7292 -0.0896
  523MOL0     H68989   8.050   7.640   7.181  1.3971  0.4488  0.5275
  523MOL0     H68990   8.281   7.377   7.233  0.1292 -0.1559  0.5194
  523MOL0     H68991   8.275   7.537   7.303  0.7445 -1.8178 -0.0853
  523MOL0     H68992   8.450   7.488   7.055  1.8688 -0.1872  0.2400
  523MOL0     H68993   8.498   7.406   7.192  0.8701  0.1741 -0.8968
  523MOL0     H68994   8.427   7.716   7.192 -0.1076 -0.0165  0.0705
  523MOL0     H68995   8.536   7.633   7.308 -0.4599 -0.5667 -0.2824
  523MOL0     H68996   8.654   7.777   7.143  1.1764 -0.0076  3.2081
  523MOL0     H68997   8.596   7.656   7.025 -1.8687 -0.2586  1.3834
  523MOL0     H68998   8.976   7.592   7.258 -0.5336 -0.3969  0.0178
  523MOL0     H68999   9.179   7.633   7.136 -0.8616 -0.0301  0.8661
  523MOL0     H69000   9.527   7.786   7.059  0.6381 -1.0528 -0.4797
  523MOL0     H69001   9.759   7.859   6.965 -1.4006  1.0426 -2.1659
  523MOL0     H69002   9.829   7.890   6.562 -1.4789 -1.2870  0.8849
  523MOL0     H69003   9.889   7.723   6.572 -0.1179 -0.8800  1.0233
  523MOL0     H69004  10.038   7.964   6.638 -0.1969  0.0625 -0.6386
  523MOL0     H69005  10.064   7.855   6.498 -0.8350  2.1516 -1.4171
  523MOL0     H69006  10.109   7.666   6.661 -2.4915  0.4732  0.2924
  523MOL0     H69007  10.116   7.805   6.783 -0.8309  1.8130 -0.6854
  523MOL0     H69008  10.284   7.807   6.539  2.3028  0.7651 -0.0898
  523MOL0     H69009  10.289   7.914   6.676 -0.2666 -0.3563  0.1758
  523MOL0     H69010  10.364   7.617   6.678 -3.5200 -0.6049  2.0559
  523MOL0     H69011  10.366   7.719   6.818 -0.3667 -1.3871 -0.3637
  523MOL0     H69012  10.530   7.870   6.695  1.7818  0.4212  0.1869
  523MOL0     H69013  10.525   7.761   6.561 -2.5267  2.5673 -0.5339
  523MOL0     H69014  10.603   7.573   6.751  1.5606 -0.3527  2.3311
  523MOL0     H69015  10.722   7.678   6.695  0.6319 -1.3152  1.2742
  523MOL0     H69016  10.560   7.736   6.946  1.1554 -0.4976  3.3918
  523MOL0     H69017  10.701   7.829   6.874  0.1492 -0.5746  1.4387
  523MOL0     H69018   9.647   7.723   6.579 -0.9930 -1.4096 -0.5776
  523MOL0     H69019   9.438   7.664   6.650 -1.6341 -0.2804  0.4062
  523MOL0     H69020   8.940   7.647   6.769  0.3659 -4.3453 -1.1652
  523MOL0     H69021   8.751   7.601   6.887  0.9770  4.6181 -3.2578
  523MOL0     H69022   7.072   7.485   7.504 -2.6531  0.1177 -1.8162
  523MOL0     H69023   6.827   7.488   7.557  1.7061  0.2985 -1.1834
  523MOL0     H69024   6.449   7.263   7.992  0.9294 -1.6749 -1.0610
  523MOL0     H69025   6.222   7.332   7.990 -0.7652  0.7910  0.5645
  523MOL0     H69026   5.953   7.572   7.687  0.0818 -0.0784 -2.6253
  523MOL0     H69027   6.119   7.600   7.639  0.5408 -0.3082  0.7313
  523MOL0     H69028   5.976   7.671   7.903  1.6195  1.6639  2.4484
  523MOL0     H69029   6.147   7.707   7.883 -1.2938  2.2517  1.7351
  523MOL0     H69030   5.897   7.814   7.738 -1.3702  2.0080  0.3388
  523MOL0     H69031   6.040   7.838   7.658 -1.2151  1.6303  0.3247
  523MOL0     H69032   5.993   8.035   7.784 -0.7404 -0.1214 -0.1473
  523MOL0     H69033   5.986   7.934   7.937 -2.8062 -0.6817 -2.0329
  523MOL0     H69034   6.399   8.010   7.824 -0.0833  2.2700 -1.3250
  523MOL0     H69035   6.270   7.510   7.596 -0.9143  0.4417  0.6310
  523MOL0     H69036   6.503   7.419   7.591  1.9933 -0.4935  0.8168
  524MOL0     O69037   1.239   7.868   4.540  0.4785  0.5040  0.4462
  524MOL0     C69038   1.299   7.843   4.440  1.5906 -0.1066  0.3229
  524MOL0     O69039   1.246   7.791   4.326  0.5020  0.2765  0.1977
  524MOL0     C69040   1.120   7.743   4.320 -0.1023  0.4605  0.2597
  524MOL0     C69041   1.046   7.680   4.418 -0.3036  0.0665  0.2642
  524MOL0     C69042   0.940   7.603   4.389  0.4655 -0.0664 -0.4420
  524MOL0     C69043   0.901   7.581   4.267  0.1342 -0.2133 -0.2780
  524MOL0     O69044   0.794   7.501   4.247  0.3849 -0.2527 -0.2512
  524MOL0     C69045   0.761   7.450   4.122  0.6537 -0.4481 -0.0524
  524MOL0     C69046   0.639   7.355   4.139 -0.0890 -0.6968  0.1228
  524MOL0     C69047   0.674   7.246   4.243 -0.8244 -0.7669 -0.0465
  524MOL0     C69048   0.563   7.157   4.258  0.0946  0.1685  0.2645
  524MOL0     C69049   0.609   7.040   4.357  0.2321  0.3428 -0.6130
  524MOL0     C69050   0.524   6.910   4.341 -0.1338 -0.0883  0.3033
  524MOL0     C69051   0.371   6.912   4.355  0.1160  0.4795  0.3460
  524MOL0     C69052   0.308   6.770   4.306 -0.0446 -1.3018  0.0840
  524MOL0     N69053   0.329   6.662   4.405 -0.1690  0.1187 -0.4438
  524MOL0     C69054   0.260   6.653   4.519 -0.6969  0.4008 -0.0760
  524MOL0     C69055   0.301   6.535   4.575  0.5019 -0.5599  0.1088
  524MOL0     C69056   0.250   6.477   4.699  0.0786 -0.2604 -0.5957
  524MOL0     C69057   0.103   6.465   4.679  0.7390  0.2677  0.5215
  524MOL0     C69058   0.038   6.401   4.804 -0.4662 -0.4367 -0.0116
  524MOL0     C69059  -0.106   6.362   4.800 -0.3603  0.3288 -0.6065
  524MOL0     O69060  -0.201   6.468   4.795 -0.0985 -0.1118  0.3282
  524MOL0     C69061  -0.332   6.432   4.799 -0.3830  0.2887 -0.5333
  524MOL0     C69062  -0.393   6.323   4.752 -0.0619  0.3439  0.4782
  524MOL0     C69063  -0.530   6.297   4.773  0.2278 -0.2338 -0.5859
  524MOL0     C69064  -0.610   6.383   4.841  0.0539  0.1974  0.3656
  524MOL0     C69065  -0.754   6.356   4.871 -0.3211 -0.9633 -0.2873
  524MOL0     O69066  -0.807   6.249   4.809  0.3555  0.1838 -0.2284
  524MOL0     C69067  -0.929   6.195   4.832 -0.2271 -0.8653 -0.5715
  524MOL0     C69068  -0.982   6.108   4.741  0.0686  0.7783  0.2553
  524MOL0     C69069  -1.103   6.040   4.760  0.7288  0.2744  0.3257
  524MOL0     C69070  -1.172   6.052   4.879  0.0959  0.2769  0.8336
  524MOL0     O69071  -1.282   5.971   4.898  0.0618  0.2732 -0.9398
  524MOL0     C69072  -1.356   6.005   5.012  0.5125  0.3670 -0.6271
  524MOL0     C69073  -1.502   5.964   4.996 -0.4730  0.3259 -0.5957
  524MOL0     C69074  -1.563   5.888   5.120  0.4778  0.2045 -0.3885
  524MOL0     C69075  -1.715   5.900   5.101 -0.1414  0.8868 -0.9045
  524MOL0     C69076  -1.771   5.798   5.196  0.5207  1.0506  0.4840
  524MOL0     C69077  -1.929   5.798   5.201  0.0475  0.7269 -0.4523
  524MOL0     C69078  -1.983   5.707   5.310 -0.4421 -0.2266 -0.3695
  524MOL0     C69079  -1.909   5.702   5.443 -0.5927  0.4507 -0.6202
  524MOL0    Cl69080  -1.958   5.566   5.554  0.1766 -0.5038  0.2277
  524MOL0     C69081  -1.119   6.129   4.979 -0.1425  0.0344  0.0153
  524MOL0     C69082  -0.999   6.201   4.956  0.3633 -0.2005  0.4634
  524MOL0     O69083  -0.822   6.443   4.932 -0.8863 -0.6455 -0.0526
  524MOL0     C69084  -0.543   6.502   4.897  0.6132 -0.4139 -0.3262
  524MOL0     C69085  -0.409   6.520   4.870  0.3490  0.0409  0.0184
  524MOL0     N69086   0.400   6.485   4.499  0.2266  0.2978  0.3688
  524MOL0     N69087   0.421   6.566   4.398 -0.2287  0.2154  0.1553
  524MOL0     C69088   0.982   7.624   4.162 -0.3368  0.8167  0.5017
  524MOL0     C69089   1.088   7.715   4.189  0.0613  0.3898 -0.3179
  524MOL0     C69090   1.451   7.870   4.444 -0.0024  0.6514 -0.5204
  524MOL0     C69091   1.506   7.947   4.550 -0.7753  0.2182  0.2019
  524MOL0     C69092   1.638   7.983   4.543 -1.3359  0.0618  1.2263
  524MOL0     C69093   1.718   7.959   4.432  0.9370 -0.2682 -0.3291
  524MOL0     O69094   1.842   8.020   4.417  0.5431 -0.0660  0.6131
  524MOL0     C69095   1.900   8.103   4.519  0.2606 -0.1835  0.0224
  524MOL0     C69096   1.839   8.253   4.524 -0.2976  0.0280  0.7085
  524MOL0     C69097   1.843   8.319   4.653 -0.3619  0.0893 -0.7767
  524MOL0     C69098   1.827   8.474   4.636  0.3739  0.4544  1.0808
  524MOL0     C69099   1.724   8.524   4.535 -0.8171  0.2809 -0.8869
  524MOL0     C69100   1.635   8.556   4.463  0.8693 -0.0559 -0.1056
  524MOL0     C69101   1.659   7.890   4.334 -1.1996  0.4361  0.1649
  524MOL0     C69102   1.534   7.841   4.334 -0.4382  0.0574 -0.0953
  524MOL0     H69103   1.072   7.705   4.520 -2.0508  0.1988  0.7148
  524MOL0     H69104   0.900   7.553   4.477  0.7087  1.9380  0.9013
  524MOL0     H69105   0.841   7.379   4.097 -1.0775 -2.1923 -0.8964
  524MOL0     H69106   0.742   7.520   4.041 -2.0392  0.3781  1.1669
  524MOL0     H69107   0.600   7.312   4.047 -2.0663  4.1739 -1.6462
  524MOL0     H69108   0.557   7.422   4.165 -0.8251 -1.7542  0.5979
  524MOL0     H69109   0.696   7.288   4.342 -1.5412 -0.8872  0.1758
  524MOL0     H69110   0.759   7.191   4.203 -0.8287 -0.5947 -0.2898
  524MOL0     H69111   0.471   7.203   4.297  0.0968  0.3939  0.0044
  524MOL0     H69112   0.547   7.113   4.159  1.6744  0.0869  0.0222
  524MOL0     H69113   0.598   7.076   4.460 -1.1432 -1.4196 -0.0979
  524MOL0     H69114   0.712   7.007   4.345  0.5678  0.6787  1.1522
  524MOL0     H69115   0.557   6.853   4.428  2.6044  1.5705  0.4702
  524MOL0     H69116   0.556   6.872   4.243 -0.8367  2.0902 -0.8397
  524MOL0     H69117   0.345   6.930   4.460  0.2349 -1.6268  0.7839
  524MOL0     H69118   0.327   7.000   4.307  0.1637  0.8164  0.9082
  524MOL0     H69119   0.354   6.733   4.214  0.9705  1.7793 -0.7611
  524MOL0     H69120   0.205   6.786   4.274  0.2472  0.9906  0.1470
  524MOL0     H69121   0.191   6.733   4.544 -1.0478  0.2028 -0.3980
  524MOL0     H69122   0.256   6.543   4.786 -1.8516 -2.6832  1.5067
  524MOL0     H69123   0.288   6.376   4.715  1.3389  0.3269  0.2963
  524MOL0     H69124   0.081   6.411   4.587  4.6624  0.4084 -0.6491
  524MOL0     H69125   0.057   6.564   4.673  1.7823  0.8750  1.8437
  524MOL0     H69126   0.089   6.307   4.826  5.9914  2.3715 -0.7530
  524MOL0     H69127   0.049   6.467   4.890 -2.5792  1.3036 -0.9808
  524MOL0     H69128  -0.129   6.301   4.887  1.1205 -2.1493 -1.8364
  524MOL0     H69129  -0.138   6.298   4.717 -2.5193 -0.8093  0.9915
  524MOL0     H69130  -0.341   6.235   4.714 -1.2966 -1.5380  2.8313
  524MOL0     H69131  -0.563   6.201   4.736  2.0651  0.4188 -4.3950
  524MOL0     H69132  -0.943   6.087   4.642 -4.6356 -0.9780 -1.5452
  524MOL0     H69133  -1.142   5.979   4.679  0.3839  0.3565  0.4288
  524MOL0     H69134  -1.377   6.110   5.033  0.6765  0.4173 -0.7134
  524MOL0     H69135  -1.306   5.955   5.096 -1.4392  2.8815  2.2654
  524MOL0     H69136  -1.516   5.900   4.908 -1.9159  1.1346 -0.9930
  524MOL0     H69137  -1.557   6.056   4.972  0.6870  0.8909 -1.1678
  524MOL0     H69138  -1.531   5.945   5.208  0.0564  3.1311 -2.0134
  524MOL0     H69139  -1.527   5.785   5.129  1.5142  0.6267  0.5306
  524MOL0     H69140  -1.756   6.001   5.111 -3.6932 -0.5854  0.9834
  524MOL0     H69141  -1.749   5.866   5.003  1.0278 -0.1234 -0.9883
  524MOL0     H69142  -1.737   5.822   5.297  0.7953 -1.6078  1.0984
  524MOL0     H69143  -1.740   5.695   5.176 -0.0698  1.0493 -0.5141
  524MOL0     H69144  -1.973   5.761   5.108  3.0188 -2.7595 -0.6997
  524MOL0     H69145  -1.966   5.897   5.229 -1.7130 -0.1820  0.5781
  524MOL0     H69146  -2.085   5.740   5.334 -0.0840  2.2526 -1.8800
  524MOL0     H69147  -1.992   5.605   5.272  0.2594 -0.3292 -0.2708
  524MOL0     H69148  -1.914   5.800   5.491 -0.7288  0.4678 -0.6703
  524MOL0     H69149  -1.804   5.685   5.416  0.0090  1.8908  0.6377
  524MOL0     H69150  -1.158   6.142   5.079 -0.2839  0.1166 -0.0496
  524MOL0     H69151  -0.956   6.254   5.041  1.2574  1.0295 -0.7094
  524MOL0     H69152  -0.591   6.571   4.966  0.7408 -0.5808 -0.0709
  524MOL0     H69153  -0.355   6.607   4.905 -0.0723 -0.8135  3.1212
  524MOL0     H69154   0.956   7.596   4.060  2.7268 -1.0683  0.1169
  524MOL0     H69155   1.146   7.755   4.107  0.3227 -0.3368 -0.4940
  524MOL0     H69156   1.454   7.989   4.636 -0.1833  0.7668  0.3001
  524MOL0     H69157   1.676   8.035   4.631 -2.3397  0.6486  1.3287
  524MOL0     H69158   2.007   8.115   4.504  0.1934 -1.1656 -1.4267
  524MOL0     H69159   1.891   8.049   4.614  1.8826 -2.1293 -0.8497
  524MOL0     H69160   1.896   8.304   4.446  0.6471 -0.6063  0.9675
  524MOL0     H69161   1.734   8.250   4.495  0.1439 -1.8416 -0.8834
  524MOL0     H69162   1.941   8.307   4.701  0.1416  4.2120 -0.4098
  524MOL0     H69163   1.775   8.276   4.727  0.0310 -0.3530 -0.6716
  524MOL0     H69164   1.787   8.513   4.730 -4.3404 -1.6312  0.2029
  524MOL0     H69165   1.921   8.524   4.610 -0.6189  2.2716  0.8255
  524MOL0     H69166   1.556   8.568   4.392 -0.6660 -4.9095  0.4154
  524MOL0     H69167   1.725   7.887   4.249 -1.1420 -0.4423  0.2311
  524MOL0     H69168   1.500   7.777   4.253 -0.2641 -0.5165  0.2762
  525MOL0     O69169   6.268   4.119   6.356 -0.1402  0.7487 -0.3951
  525MOL0     C69170   6.278   3.993   6.366 -0.5331  1.0978 -0.1738
  525MOL0     O69171   6.230   3.891   6.276 -0.0376  0.1864  0.1743
  525MOL0     C69172   6.150   3.940   6.174  0.1854 -0.3847  0.5517
  525MOL0     C69173   6.195   4.044   6.083  0.0090 -0.0498  0.1454
  525MOL0     C69174   6.101   4.080   5.972 -0.3404 -0.5441 -0.4824
  525MOL0     C69175   5.977   4.021   5.949  0.4249 -0.3849  0.2761
  525MOL0     O69176   5.896   4.069   5.858  0.4806 -0.1312  0.7041
  525MOL0     C69177   5.752   4.054   5.884 -0.2808  0.4395  0.0564
  525MOL0     C69178   5.695   4.129   5.771 -0.0948 -0.6038 -0.0060
  525MOL0     C69179   5.542   4.144   5.793  0.0984 -0.4349 -0.2732
  525MOL0     C69180   5.488   4.189   5.656  0.4858  0.6836 -0.7025
  525MOL0     C69181   5.329   4.216   5.653 -0.6377  0.0526 -0.1276
  525MOL0     C69182   5.282   4.329   5.745  1.0329  0.4894  0.1212
  525MOL0     C69183   5.155   4.403   5.695 -0.1412 -0.1293  0.3922
  525MOL0     C69184   5.036   4.306   5.695  0.2034 -0.1558 -0.6690
  525MOL0     N69185   4.919   4.378   5.644  0.4106  0.8049  0.1933
  525MOL0     C69186   4.840   4.445   5.726  0.1674 -0.1465 -0.3338
  525MOL0     C69187   4.758   4.510   5.643  0.3507  0.1029 -0.2859
  525MOL0     C69188   4.628   4.583   5.683  0.6298 -0.1135 -0.0221
  525MOL0     C69189   4.494   4.495   5.688  0.6930  0.0089 -0.3590
  525MOL0     C69190   4.378   4.595   5.703  0.0284  0.8598  0.1674
  525MOL0     C69191   4.250   4.532   5.653 -0.6004  0.5948 -0.1993
  525MOL0     O69192   4.202   4.422   5.728 -0.8376 -0.2900  0.3589
  525MOL0     C69193   4.095   4.447   5.812 -1.0452  0.6705 -0.7364
  525MOL0     C69194   4.064   4.551   5.896 -0.0052 -0.5357  0.2081
  525MOL0     C69195   3.937   4.554   5.955  0.3155 -0.1141  0.8989
  525MOL0     C69196   3.841   4.454   5.943  0.6252 -0.1627  0.0653
  525MOL0     C69197   3.710   4.466   6.018 -0.0330 -0.5306 -0.4895
  525MOL0     O69198   3.620   4.369   5.991 -1.2107  0.0093 -0.4168
  525MOL0     C69199   3.501   4.388   6.053 -0.3675  0.2975 -0.6418
  525MOL0     C69200   3.465   4.315   6.162  0.7340 -0.1163  0.4642
  525MOL0     C69201   3.338   4.322   6.211  0.2030  0.1964  0.0759
  525MOL0     C69202   3.246   4.405   6.160 -1.0556  0.1332  0.1331
  525MOL0     O69203   3.125   4.401   6.225 -0.5215 -0.5877  0.0255
  525MOL0     C69204   3.072   4.534   6.235  0.4625  0.3055 -0.4178
  525MOL0     C69205   2.951   4.548   6.328  0.1092 -0.1937 -0.0870
  525MOL0     C69206   2.812   4.522   6.269 -0.2017 -0.3468  0.2090
  525MOL0     C69207   2.707   4.559   6.372 -0.5950  0.2507 -0.0992
  525MOL0     C69208   2.571   4.544   6.302 -0.4082  0.0575  0.0400
  525MOL0     C69209   2.458   4.597   6.387  0.2276 -0.4142  0.1285
  525MOL0     C69210   2.321   4.591   6.327 -0.4648 -0.4675  0.3524
  525MOL0     C69211   2.210   4.532   6.415  0.2958  0.5289  0.4218
  525MOL0    Cl69212   2.174   4.636   6.556  0.1832 -0.0187 -0.4825
  525MOL0     C69213   3.284   4.477   6.044  0.0027 -0.5496 -0.6689
  525MOL0     C69214   3.415   4.469   5.995 -0.2156 -0.2868 -0.3643
  525MOL0     O69215   3.707   4.552   6.107  0.5194 -0.5910  0.5057
  525MOL0     C69216   3.869   4.349   5.858 -0.5794 -0.2343 -0.1445
  525MOL0     C69217   3.997   4.352   5.791 -0.0705 -0.3551 -1.0082
  525MOL0     N69218   4.782   4.468   5.514 -0.3257  0.4733 -0.2594
  525MOL0     N69219   4.886   4.399   5.515 -0.3700  0.2404 -0.1585
  525MOL0     C69220   5.944   3.909   6.034 -0.6856 -0.4282 -0.1200
  525MOL0     C69221   6.031   3.869   6.146  0.8346 -0.4288 -0.5048
  525MOL0     C69222   6.368   3.939   6.467  0.0994 -0.1494  0.7532
  525MOL0     C69223   6.428   3.817   6.455 -0.1558  0.2572  0.4997
  525MOL0     C69224   6.541   3.774   6.531 -0.4339 -0.5224  0.1463
  525MOL0     C69225   6.588   3.859   6.636 -0.0958 -0.0685 -0.7092
  525MOL0     O69226   6.705   3.850   6.708  0.3595 -0.3785  0.3428
  525MOL0     C69227   6.821   3.787   6.640  0.9040 -1.0310  0.3762
  525MOL0     C69228   6.849   3.846   6.499  0.3747  0.4900 -0.1043
  525MOL0     C69229   6.870   3.999   6.498 -0.2787 -0.8230  0.4503
  525MOL0     C69230   6.991   4.047   6.414 -0.3739  0.6521  0.2487
  525MOL0     C69231   6.981   4.047   6.269 -0.9645  1.1066  0.1150
  525MOL0     C69232   6.974   4.047   6.152  0.0082 -0.3629  0.6165
  525MOL0     C69233   6.514   3.970   6.660 -0.4203 -0.0023 -0.2981
  525MOL0     C69234   6.414   4.010   6.576 -0.3214 -0.5330  0.1951
  525MOL0     H69235   6.289   4.098   6.093 -1.2414  1.9207  2.0846
  525MOL0     H69236   6.138   4.155   5.903 -1.7792  0.7595  0.1123
  525MOL0     H69237   5.707   4.099   5.973 -2.8297 -0.2249 -0.7980
  525MOL0     H69238   5.726   3.948   5.875 -1.2028  0.6985 -0.4567
  525MOL0     H69239   5.720   4.074   5.680  1.4325  1.1815 -0.7438
  525MOL0     H69240   5.739   4.229   5.774 -3.8382  1.3293 -2.3950
  525MOL0     H69241   5.510   4.215   5.871 -3.1886  0.1847 -1.9948
  525MOL0     H69242   5.503   4.052   5.836  2.6370 -0.6891  1.7540
  525MOL0     H69243   5.542   4.279   5.626  0.2020  1.6954  1.5792
  525MOL0     H69244   5.505   4.114   5.578 -1.4119 -0.5242 -0.0094
  525MOL0     H69245   5.281   4.120   5.676 -0.2104 -0.1537 -0.0834
  525MOL0     H69246   5.311   4.255   5.552  0.7790 -1.0250 -0.8343
  525MOL0     H69247   5.365   4.400   5.740  0.3570  1.3006  0.3833
  525MOL0     H69248   5.270   4.278   5.841 -0.1768  2.2263  0.9339
  525MOL0     H69249   5.122   4.487   5.757 -2.1780 -1.0587  0.6564
  525MOL0     H69250   5.166   4.447   5.596  0.3271  3.7274  1.9998
  525MOL0     H69251   5.023   4.289   5.803  0.1649 -1.3735 -0.8465
  525MOL0     H69252   5.058   4.219   5.632  0.8493  2.4648 -4.3267
  525MOL0     H69253   4.854   4.449   5.834 -1.7047  0.2878 -0.0823
  525MOL0     H69254   4.618   4.680   5.632  0.3455  1.0796  2.1607
  525MOL0     H69255   4.633   4.619   5.786 -1.9313  0.7502 -0.1302
  525MOL0     H69256   4.487   4.421   5.768  1.1843 -1.0980 -1.3082
  525MOL0     H69257   4.493   4.438   5.594  3.5627  0.7569 -0.9379
  525MOL0     H69258   4.361   4.607   5.810  0.2368 -0.1551  0.3228
  525MOL0     H69259   4.404   4.687   5.649  0.3164 -0.0598 -1.3104
  525MOL0     H69260   4.271   4.485   5.557 -0.5587  0.3090 -0.0516
  525MOL0     H69261   4.174   4.611   5.648 -0.5845  0.5963 -0.4384
  525MOL0     H69262   4.139   4.626   5.919  0.2258 -0.8661  0.5537
  525MOL0     H69263   3.911   4.638   6.017 -1.3053 -0.4558  0.7232
  525MOL0     H69264   3.533   4.240   6.201  2.8187  2.4234  1.9782
  525MOL0     H69265   3.306   4.259   6.293  0.7178 -1.8299 -1.2243
  525MOL0     H69266   3.034   4.576   6.141  1.8341 -1.4131 -1.8104
  525MOL0     H69267   3.138   4.610   6.278  0.0831  0.0602  0.6157
  525MOL0     H69268   2.942   4.652   6.360 -1.2978  0.1164 -1.3780
  525MOL0     H69269   2.975   4.485   6.414 -1.2961  0.2182  0.6204
  525MOL0     H69270   2.795   4.419   6.236  0.1675 -0.2201 -0.3896
  525MOL0     H69271   2.814   4.587   6.180 -0.6843  0.4681  0.7787
  525MOL0     H69272   2.722   4.494   6.458 -1.6429  0.0006 -0.1017
  525MOL0     H69273   2.715   4.665   6.401  0.3825  0.4981 -1.1569
  525MOL0     H69274   2.556   4.443   6.262  1.5680 -0.5922  0.7918
  525MOL0     H69275   2.583   4.603   6.211  0.8679 -1.8052 -1.0586
  525MOL0     H69276   2.482   4.701   6.410  2.5681 -0.4482 -1.6749
  525MOL0     H69277   2.475   4.547   6.483 -0.1410  3.1742  2.2241
  525MOL0     H69278   2.289   4.695   6.322  0.6829 -0.0544  1.1224
  525MOL0     H69279   2.326   4.541   6.230 -1.6052  2.3592 -1.2842
  525MOL0     H69280   2.244   4.429   6.431 -0.2975  0.1764 -0.4881
  525MOL0     H69281   2.130   4.521   6.342  2.6490  3.0913 -2.8690
  525MOL0     H69282   3.218   4.540   5.986 -1.3757  0.3732  1.7433
  525MOL0     H69283   3.438   4.529   5.907 -1.5004 -3.0851 -2.7913
  525MOL0     H69284   3.814   4.257   5.842  1.7752 -1.8517  0.5694
  525MOL0     H69285   4.021   4.264   5.733  0.6702  0.6750 -2.3159
  525MOL0     H69286   5.846   3.864   6.035 -1.7488  1.7496  1.2634
  525MOL0     H69287   6.000   3.789   6.213  0.7461  0.8780  1.0692
  525MOL0     H69288   6.401   3.749   6.374  0.1543  1.1956 -0.4076
  525MOL0     H69289   6.604   3.690   6.503  0.1987 -0.5824  1.6648
  525MOL0     H69290   6.806   3.679   6.634  0.3340 -0.9158 -0.3281
  525MOL0     H69291   6.906   3.816   6.702  0.0614 -0.5010  1.3286
  525MOL0     H69292   6.931   3.787   6.458 -2.3179 -3.5811 -0.1430
  525MOL0     H69293   6.771   3.823   6.426  2.1241  0.2616 -2.0003
  525MOL0     H69294   6.891   4.026   6.602 -0.4532  0.5904  0.1351
  525MOL0     H69295   6.776   4.042   6.462  0.0245 -0.7532 -0.2802
  525MOL0     H69296   7.017   4.144   6.458  1.0372 -0.5521  2.2541
  525MOL0     H69297   7.071   3.977   6.442 -1.1637 -0.5074 -0.2909
  525MOL0     H69298   6.973   4.055   6.045  1.2472  1.9059  0.7194
  525MOL0     H69299   6.545   4.029   6.746  0.3557 -3.3670  1.9272
  525MOL0     H69300   6.373   4.110   6.587  1.3144  0.2363 -0.3969
  526MOL0     O69301   2.107   2.151   4.326  0.0960 -0.5212 -0.1724
  526MOL0     C69302   2.149   2.193   4.220 -0.3031  0.0930  0.1931
  526MOL0     O69303   2.069   2.248   4.117  0.0339 -0.0947 -0.2207
  526MOL0     C69304   1.940   2.257   4.144 -0.1822  0.0810  0.2906
  526MOL0     C69305   1.884   2.386   4.155  0.2784 -0.3366 -0.7585
  526MOL0     C69306   1.745   2.396   4.159  0.5639  0.1992 -0.3517
  526MOL0     C69307   1.665   2.276   4.155 -0.1033  0.8077  0.1634
  526MOL0     O69308   1.529   2.284   4.139 -0.0116 -0.3494  0.0639
  526MOL0     C69309   1.452   2.378   4.217  0.2173  0.1910 -0.3039
  526MOL0     C69310   1.366   2.303   4.322  0.6378 -0.9096  0.1907
  526MOL0     C69311   1.256   2.213   4.247 -0.2320 -0.7019 -0.3723
  526MOL0     C69312   1.198   2.104   4.346 -0.1561 -0.0073 -0.4758
  526MOL0     C69313   1.094   2.164   4.447  0.0997 -0.6133  0.6006
  526MOL0     C69314   0.974   2.226   4.372  0.1630 -0.1222 -0.0156
  526MOL0     C69315   0.846   2.208   4.453 -0.0567 -0.6721 -0.7143
  526MOL0     C69316   0.870   2.259   4.590 -0.3062 -0.6627 -0.7523
  526MOL0     N69317   0.745   2.263   4.667  0.9471 -0.4799  0.6046
  526MOL0     C69318   0.641   2.355   4.646 -0.7704 -0.0315 -0.0493
  526MOL0     C69319   0.528   2.297   4.700  0.0883 -0.0094  0.5690
  526MOL0     C69320   0.395   2.364   4.718 -0.4474  0.1718  0.0792
  526MOL0     C69321   0.291   2.266   4.764 -0.4032  0.4402 -0.8717
  526MOL0     C69322   0.148   2.301   4.714  0.2971  0.4279  0.7971
  526MOL0     C69323   0.107   2.432   4.766 -0.4132  0.2739  0.1347
  526MOL0     O69324  -0.030   2.457   4.726  0.4935 -0.4110 -0.1781
  526MOL0     C69325  -0.127   2.459   4.824  0.1568 -0.7867 -0.3126
  526MOL0     C69326  -0.215   2.567   4.833 -0.3441  0.6077  0.2512
  526MOL0     C69327  -0.303   2.576   4.945 -0.5286 -0.1399  0.6854
  526MOL0     C69328  -0.317   2.465   5.033  0.2071 -0.3216  0.4569
  526MOL0     C69329  -0.422   2.455   5.132  0.4121  0.3663  0.5005
  526MOL0     O69330  -0.427   2.345   5.222 -0.5695  0.1691  0.2411
  526MOL0     C69331  -0.523   2.357   5.320  0.3330 -0.3830 -0.3416
  526MOL0     C69332  -0.482   2.416   5.445  1.2952  0.6184 -0.3142
  526MOL0     C69333  -0.582   2.444   5.536  1.1029  0.4949  0.5101
  526MOL0     C69334  -0.714   2.398   5.518  0.3958  0.2945 -0.3812
  526MOL0     O69335  -0.802   2.414   5.618 -0.2787  0.1683  0.9159
  526MOL0     C69336  -0.839   2.550   5.619 -0.4213 -0.2503 -0.2925
  526MOL0     C69337  -0.935   2.578   5.736  0.5490 -0.0438  0.0468
  526MOL0     C69338  -1.077   2.524   5.710 -0.1592 -0.3173  0.1473
  526MOL0     C69339  -1.174   2.563   5.823 -0.9690  0.9324 -0.0430
  526MOL0     C69340  -1.315   2.508   5.798  0.3541  0.4093 -0.5343
  526MOL0     C69341  -1.377   2.582   5.677  0.2423 -0.4247  0.1380
  526MOL0     C69342  -1.537   2.549   5.672  0.3534 -1.1103  0.4476
  526MOL0     C69343  -1.609   2.609   5.560 -0.2715 -0.1012  0.9231
  526MOL0    Cl69344  -1.586   2.788   5.570 -0.3753  0.2478  0.4161
  526MOL0     C69345  -0.755   2.334   5.400 -0.2438 -0.7227  0.0198
  526MOL0     C69346  -0.660   2.321   5.299  0.5988 -0.6806 -0.5124
  526MOL0     O69347  -0.494   2.554   5.132 -0.2964 -0.2173 -0.5477
  526MOL0     C69348  -0.223   2.364   5.023  0.2325 -0.4223  0.6543
  526MOL0     C69349  -0.128   2.356   4.920 -1.0742 -0.5698 -0.2171
  526MOL0     N69350   0.572   2.176   4.761  0.1021 -0.1859 -0.3149
  526MOL0     N69351   0.697   2.159   4.741  0.8036 -0.0013 -0.9394
  526MOL0     C69352   1.725   2.151   4.152 -0.5685 -0.1580 -0.1098
  526MOL0     C69353   1.862   2.134   4.145  1.2228 -0.2316  0.1995
  526MOL0     C69354   2.292   2.194   4.196  0.3756 -0.8610 -0.7420
  526MOL0     C69355   2.384   2.152   4.286 -0.5229 -0.0261  0.1662
  526MOL0     C69356   2.525   2.148   4.251  0.3394  0.3609  0.2521
  526MOL0     C69357   2.566   2.200   4.129 -0.2836 -0.9299  0.0428
  526MOL0     O69358   2.691   2.204   4.083 -0.0269 -0.1897  0.4121
  526MOL0     C69359   2.793   2.125   4.154  0.4678 -0.4489 -0.4359
  526MOL0     C69360   2.926   2.156   4.094 -0.5129 -0.1909 -0.0257
  526MOL0     C69361   2.980   2.299   4.126 -0.0585 -0.7713  0.4594
  526MOL0     C69362   3.127   2.309   4.108  0.0031  0.0391 -0.2854
  526MOL0     C69363   3.198   2.242   4.213  0.1029  0.3260  0.5505
  526MOL0     C69364   3.262   2.189   4.306  0.3670  0.2833  0.0261
  526MOL0     C69365   2.471   2.258   4.043 -0.0154  0.5771  0.1895
  526MOL0     C69366   2.333   2.255   4.079 -1.0457 -0.2367  0.0844
  526MOL0     H69367   1.949   2.474   4.158 -0.7093  0.4689 -2.0867
  526MOL0     H69368   1.693   2.491   4.161  1.2289  0.5550  0.7871
  526MOL0     H69369   1.395   2.449   4.157  0.0444  0.5175  0.2370
  526MOL0     H69370   1.520   2.442   4.275 -0.3927 -0.2226  0.9133
  526MOL0     H69371   1.315   2.375   4.387  0.4590 -0.9166  0.0583
  526MOL0     H69372   1.435   2.240   4.379  0.6597 -3.7802 -2.7419
  526MOL0     H69373   1.296   2.160   4.161 -0.2695 -0.6798 -0.4033
  526MOL0     H69374   1.183   2.279   4.200  2.5320  2.5040 -0.6165
  526MOL0     H69375   1.142   2.024   4.295  0.9791 -0.0705 -1.6756
  526MOL0     H69376   1.288   2.073   4.398  1.6053  3.3574 -1.2605
  526MOL0     H69377   1.141   2.235   4.516  3.8286 -3.3435  1.1814
  526MOL0     H69378   1.053   2.077   4.498 -1.2409 -0.3878 -0.0531
  526MOL0     H69379   0.955   2.181   4.274 -0.6037 -0.5939  0.3432
  526MOL0     H69380   0.985   2.333   4.352 -2.3036  0.0277 -0.8814
  526MOL0     H69381   0.757   2.257   4.412  0.4093 -0.2564 -1.2314
  526MOL0     H69382   0.817   2.102   4.453 -0.3673 -0.6506 -2.9715
  526MOL0     H69383   0.918   2.357   4.580 -1.4587 -0.1927 -1.9792
  526MOL0     H69384   0.924   2.194   4.660 -1.2778  0.3749  1.0453
  526MOL0     H69385   0.652   2.454   4.603 -1.0272 -0.5458 -1.3287
  526MOL0     H69386   0.374   2.412   4.622  0.3710 -1.9257 -1.2236
  526MOL0     H69387   0.404   2.442   4.794 -0.1044  0.5835 -0.3800
  526MOL0     H69388   0.288   2.264   4.874  0.0854  1.2524 -0.8417
  526MOL0     H69389   0.317   2.165   4.729  0.4918  0.2634  0.2244
  526MOL0     H69390   0.149   2.304   4.605 -1.6235 -0.9049  0.6940
  526MOL0     H69391   0.087   2.214   4.740  0.1419  0.5853  0.9649
  526MOL0     H69392   0.157   2.520   4.725 -2.6180  1.0931 -0.9795
  526MOL0     H69393   0.118   2.428   4.874  0.0544  0.9673  0.1166
  526MOL0     H69394  -0.211   2.651   4.764 -3.4982 -0.6130 -1.6505
  526MOL0     H69395  -0.367   2.663   4.949 -1.5643 -0.9260  1.6016
  526MOL0     H69396  -0.382   2.451   5.469  1.2886 -0.7750  2.0023
  526MOL0     H69397  -0.554   2.495   5.627  3.9319  1.6065 -0.8804
  526MOL0     H69398  -0.885   2.579   5.524  1.0682  0.1492 -0.9332
  526MOL0     H69399  -0.750   2.611   5.634 -1.3963  0.8132  1.3814
  526MOL0     H69400  -0.941   2.687   5.743 -1.6629  0.0344 -1.7099
  526MOL0     H69401  -0.886   2.540   5.826  3.0692 -0.8585 -1.5784
  526MOL0     H69402  -1.081   2.417   5.688 -1.5872  0.0696 -1.7271
  526MOL0     H69403  -1.114   2.577   5.622  2.1284  0.5786 -0.3361
  526MOL0     H69404  -1.142   2.525   5.921  3.8205 -1.4695 -2.1869
  526MOL0     H69405  -1.181   2.671   5.812 -1.4301  0.6504 -4.2773
  526MOL0     H69406  -1.382   2.518   5.884 -0.2949 -1.0260 -0.8352
  526MOL0     H69407  -1.310   2.402   5.770 -2.4051  0.4519 -1.5134
  526MOL0     H69408  -1.319   2.556   5.588 -0.4131 -2.9728  0.3756
  526MOL0     H69409  -1.373   2.691   5.691 -1.5367  0.0645 -2.4240
  526MOL0     H69410  -1.549   2.441   5.675  3.6620 -1.7534 -2.4915
  526MOL0     H69411  -1.579   2.599   5.760  3.1246  2.9165 -0.2200
  526MOL0     H69412  -1.714   2.586   5.579 -0.7198  0.6236 -0.5392
  526MOL0     H69413  -1.585   2.563   5.464  1.8592 -0.5942  1.6331
  526MOL0     H69414  -0.856   2.301   5.377  1.0075 -3.0870 -2.6101
  526MOL0     H69415  -0.679   2.281   5.200  0.7300 -0.1720 -0.7469
  526MOL0     H69416  -0.216   2.285   5.097 -0.0528 -0.3395  0.7696
  526MOL0     H69417  -0.063   2.269   4.918 -2.4370 -1.6138 -1.1152
  526MOL0     H69418   1.654   2.070   4.136  1.7875 -2.7508  1.6873
  526MOL0     H69419   1.918   2.043   4.122  2.3616  0.2938  0.7694
  526MOL0     H69420   2.343   2.118   4.381 -2.6411  4.1540  0.9907
  526MOL0     H69421   2.593   2.101   4.321 -0.9072  0.3250  1.4703
  526MOL0     H69422   2.775   2.019   4.132 -2.0295 -0.2252  0.2324
  526MOL0     H69423   2.790   2.149   4.260 -1.0895 -0.2310 -0.5148
  526MOL0     H69424   3.006   2.093   4.133  0.9015  2.0369  0.9120
  526MOL0     H69425   2.919   2.143   3.985  0.8139 -0.4259 -0.0955
  526MOL0     H69426   2.957   2.322   4.230  0.0526  2.3358 -0.0793
  526MOL0     H69427   2.927   2.376   4.069  0.9291  0.0059  0.5664
  526MOL0     H69428   3.156   2.281   4.006  0.9035 -0.9975  0.2351
  526MOL0     H69429   3.148   2.416   4.119  1.3048 -0.2377  0.0333
  526MOL0     H69430   3.313   2.141   4.387 -0.2430 -1.8241 -0.7681
  526MOL0     H69431   2.504   2.294   3.946  0.7567 -3.0029 -1.0078
  526MOL0     H69432   2.261   2.313   4.021 -2.7041 -0.9414  1.3590
  527MOL0     O69433   6.001   3.233   7.408 -0.1235 -0.0308 -0.3199
  527MOL0     C69434   6.098   3.274   7.475  0.1554 -0.2352 -0.3212
  527MOL0     O69435   6.087   3.300   7.609  0.7154 -0.3938 -0.0651
  527MOL0     C69436   5.967   3.285   7.671 -0.3602  0.1195  0.0847
  527MOL0     C69437   5.848   3.330   7.622  0.4972 -0.2269  0.6762
  527MOL0     C69438   5.725   3.307   7.690  0.0355  0.2955 -0.5224
  527MOL0     C69439   5.723   3.213   7.800 -0.6613 -0.7236  0.2526
  527MOL0     O69440   5.617   3.179   7.873 -0.0085  0.1959 -0.0423
  527MOL0     C69441   5.488   3.192   7.819 -0.1562  0.2611  0.0842
  527MOL0     C69442   5.376   3.148   7.923 -0.1430 -0.0505  0.1080
  527MOL0     C69443   5.229   3.191   7.893  0.0507  0.5185  0.7959
  527MOL0     C69444   5.144   3.159   8.015  0.1099  0.4546 -0.9750
  527MOL0     C69445   5.005   3.185   7.971  0.2834  0.3012 -0.3057
  527MOL0     C69446   4.902   3.113   8.070  0.4315 -0.1976  1.0960
  527MOL0     C69447   4.764   3.098   8.006 -0.1819  0.6954  0.1030
  527MOL0     C69448   4.761   2.999   7.888  0.4811  0.3404  0.5364
  527MOL0     N69449   4.616   2.989   7.836  0.9371  0.2224  0.4446
  527MOL0     C69450   4.510   2.923   7.889  0.2966 -0.5204 -0.0257
  527MOL0     C69451   4.407   2.934   7.799  0.2669 -0.2498  0.4039
  527MOL0     C69452   4.265   2.888   7.815  0.1052  0.5274  1.0510
  527MOL0     C69453   4.170   2.986   7.885 -0.0877 -0.5168 -0.7233
  527MOL0     C69454   4.185   2.981   8.036 -0.4752 -0.2453  0.4734
  527MOL0     C69455   4.065   3.035   8.116  1.0315 -1.0014 -0.4786
  527MOL0     O69456   3.951   2.958   8.079  0.6233 -0.4138  0.0796
  527MOL0     C69457   3.832   2.968   8.158  0.3287  0.1693 -0.2453
  527MOL0     C69458   3.827   3.041   8.281  0.1589 -0.1310  0.4200
  527MOL0     C69459   3.708   3.035   8.355  0.5911  0.1598 -0.4787
  527MOL0     C69460   3.601   2.957   8.323  0.4610  0.3009  0.5325
  527MOL0     C69461   3.476   2.959   8.408  0.1898  0.3489  0.5489
  527MOL0     O69462   3.479   3.015   8.526 -0.1028 -0.3677 -0.2298
  527MOL0     C69463   3.360   3.030   8.584 -0.5276 -0.2878  1.1232
  527MOL0     C69464   3.297   2.930   8.664  0.5308  0.2905  0.1026
  527MOL0     C69465   3.174   2.955   8.722  0.2095 -0.1886 -0.0682
  527MOL0     C69466   3.111   3.079   8.708 -0.7250 -0.1783 -0.3574
  527MOL0     O69467   2.995   3.099   8.776  0.4036  0.3544 -0.7495
  527MOL0     C69468   2.902   3.206   8.740  0.3428 -0.8887 -0.1652
  527MOL0     C69469   2.773   3.190   8.821  0.0075  0.1303  0.2490
  527MOL0     C69470   2.676   3.108   8.747 -0.0572  0.3493 -0.0374
  527MOL0     C69471   2.545   3.098   8.831 -0.2981  0.6415 -0.3904
  527MOL0     C69472   2.431   3.019   8.764 -0.0873  0.7154 -0.5713
  527MOL0     C69473   2.421   3.050   8.613  0.1501  0.0775 -0.7376
  527MOL0     C69474   2.288   3.010   8.548 -0.0146  0.0043  1.0432
  527MOL0     C69475   2.297   2.862   8.515  0.4185  0.0009  0.0921
  527MOL0    Cl69476   2.444   2.809   8.432 -0.1363 -0.2542  0.4800
  527MOL0     C69477   3.171   3.181   8.633 -0.3806 -0.5177 -0.5485
  527MOL0     C69478   3.293   3.154   8.572  0.5537 -0.4577  0.1695
  527MOL0     O69479   3.386   2.894   8.358  0.0482  0.2257  0.1906
  527MOL0     C69480   3.615   2.877   8.205  0.6968  0.4372  0.0076
  527MOL0     C69481   3.725   2.891   8.122 -0.5130 -0.3632 -0.3960
  527MOL0     N69482   4.454   2.996   7.688  0.6281 -0.4937 -0.4749
  527MOL0     N69483   4.572   3.039   7.716  0.6978  0.5079  0.0462
  527MOL0     C69484   5.846   3.162   7.837 -0.2959  0.7356  0.3471
  527MOL0     C69485   5.964   3.205   7.777 -0.1001 -0.0620 -0.2676
  527MOL0     C69486   6.232   3.297   7.415  0.1026 -0.2146  0.0754
  527MOL0     C69487   6.259   3.242   7.287  0.4091  0.1338 -0.2229
  527MOL0     C69488   6.381   3.263   7.233  0.6297  0.0679 -0.1640
  527MOL0     C69489   6.484   3.338   7.306  0.0200  0.4894 -0.2370
  527MOL0     O69490   6.595   3.357   7.238 -0.1062  0.8620  0.2973
  527MOL0     C69491   6.710   3.407   7.311  0.7193  0.1787  0.6237
  527MOL0     C69492   6.828   3.415   7.221 -0.6998 -0.2756 -0.1726
  527MOL0     C69493   6.863   3.267   7.187  0.2779  0.0181 -0.0898
  527MOL0     C69494   6.941   3.209   7.310  0.4434 -0.5095 -0.2703
  527MOL0     C69495   7.013   3.087   7.282 -0.0840  1.1206 -0.3553
  527MOL0     C69496   7.085   2.993   7.264 -0.7550  0.0403  0.1731
  527MOL0     C69497   6.453   3.391   7.436 -0.5583 -0.0420  0.8062
  527MOL0     C69498   6.324   3.375   7.482  0.2613 -0.1257 -0.7478
  527MOL0     H69499   5.855   3.405   7.544  0.3079  0.2002  1.0605
  527MOL0     H69500   5.634   3.362   7.668 -0.4854 -0.5246 -0.4581
  527MOL0     H69501   5.472   3.132   7.728  2.5701  0.3065 -0.5238
  527MOL0     H69502   5.470   3.297   7.795  0.7565  0.8849  1.9603
  527MOL0     H69503   5.397   3.185   8.023 -3.3564 -1.0273  1.2794
  527MOL0     H69504   5.370   3.039   7.934  1.3027 -0.1950 -0.3542
  527MOL0     H69505   5.194   3.132   7.808  1.7667 -0.1022  0.4850
  527MOL0     H69506   5.222   3.296   7.863  0.8636 -0.0678 -1.6622
  527MOL0     H69507   5.172   3.057   8.045 -0.9474 -0.8123 -3.9153
  527MOL0     H69508   5.177   3.229   8.092  1.7735  0.0186 -1.2537
  527MOL0     H69509   4.999   3.138   7.872  1.2990 -0.2156 -0.1342
  527MOL0     H69510   4.982   3.292   7.963  1.6581  0.7104  0.7419
  527MOL0     H69511   4.917   3.177   8.157  1.8786  0.9649  0.0539
  527MOL0     H69512   4.940   3.010   8.073  0.0207 -0.5401 -2.1169
  527MOL0     H69513   4.682   3.068   8.071 -0.7432  0.9475 -0.4722
  527MOL0     H69514   4.747   3.199   7.965 -1.6339  0.3782 -0.1056
  527MOL0     H69515   4.796   2.902   7.923 -1.6189 -0.9838 -0.8141
  527MOL0     H69516   4.818   3.034   7.802 -2.9381  3.9235 -0.6026
  527MOL0     H69517   4.499   2.868   7.981  0.4589 -2.0255 -0.8757
  527MOL0     H69518   4.261   2.787   7.857  2.9530  0.5523  1.5517
  527MOL0     H69519   4.220   2.876   7.715  1.2043  0.7772  0.5186
  527MOL0     H69520   4.069   2.947   7.866  0.0352 -2.0758  1.5599
  527MOL0     H69521   4.187   3.085   7.841  0.5747 -0.1942  0.2312
  527MOL0     H69522   4.195   2.874   8.059  1.5884 -0.0606  0.5968
  527MOL0     H69523   4.276   3.035   8.060 -1.2097  0.5871  1.4790
  527MOL0     H69524   4.054   3.143   8.102  0.3119 -0.8322  1.1405
  527MOL0     H69525   4.086   3.028   8.224 -0.9829 -0.2100  0.0204
  527MOL0     H69526   3.905   3.110   8.312  0.0768 -0.5268  1.5565
  527MOL0     H69527   3.708   3.090   8.449 -0.1359  0.4412 -0.6348
  527MOL0     H69528   3.353   2.848   8.706 -1.2730  0.7216  3.7962
  527MOL0     H69529   3.141   2.888   8.801  0.1512  1.2654  1.1826
  527MOL0     H69530   2.881   3.216   8.633  2.2051 -1.8311 -0.6733
  527MOL0     H69531   2.958   3.292   8.778  0.8998 -0.9366 -0.8580
  527MOL0     H69532   2.740   3.290   8.852  1.6929  0.8807 -0.2765
  527MOL0     H69533   2.801   3.131   8.909 -0.7444  1.5944  1.5236
  527MOL0     H69534   2.721   3.009   8.731  0.0124  0.7146 -2.4629
  527MOL0     H69535   2.662   3.137   8.643  0.1810 -2.6298 -0.9976
  527MOL0     H69536   2.559   3.050   8.928 -3.5736  0.9410  0.3715
  527MOL0     H69537   2.510   3.199   8.856  0.0748  0.3215  1.5879
  527MOL0     H69538   2.333   3.039   8.808  0.6127  0.8163  0.9917
  527MOL0     H69539   2.449   2.911   8.774 -3.2043  0.1215 -0.3324
  527MOL0     H69540   2.504   2.998   8.563 -0.4948 -0.2482 -1.4806
  527MOL0     H69541   2.436   3.157   8.595 -0.1829  0.1922 -0.3655
  527MOL0     H69542   2.198   3.029   8.608 -0.7313  0.7276 -0.2303
  527MOL0     H69543   2.273   3.058   8.452 -4.1390  1.0465  2.0273
  527MOL0     H69544   2.208   2.842   8.455  0.4002  2.2929 -0.7469
  527MOL0     H69545   2.303   2.796   8.602 -2.9877 -0.7225 -0.0601
  527MOL0     H69546   3.138   3.285   8.633  2.0903  0.3358  0.6972
  527MOL0     H69547   3.338   3.226   8.504  0.0294  0.1738  0.4874
  527MOL0     H69548   3.536   2.813   8.169  0.3570  0.3266  0.9125
  527MOL0     H69549   3.738   2.830   8.033  2.8855 -0.4528  0.0367
  527MOL0     H69550   5.855   3.089   7.917 -1.6351  0.5790  0.3854
  527MOL0     H69551   6.055   3.156   7.812 -0.6950 -1.0823 -0.1154
  527MOL0     H69552   6.187   3.178   7.236  0.2286 -0.2238  0.4649
  527MOL0     H69553   6.416   3.225   7.137  0.6171 -0.0922 -0.1052
  527MOL0     H69554   6.722   3.343   7.399 -3.6838 -0.9094  0.6275
  527MOL0     H69555   6.682   3.506   7.347 -0.8273  1.8683 -4.3396
  527MOL0     H69556   6.801   3.477   7.136  1.0487  0.9507  0.1253
  527MOL0     H69557   6.909   3.464   7.275 -0.7263 -0.8622  0.4183
  527MOL0     H69558   6.946   3.275   7.116 -0.5648  2.1636 -0.9058
  527MOL0     H69559   6.782   3.199   7.160 -0.2680  0.5664  0.1664
  527MOL0     H69560   7.021   3.273   7.349  1.3348 -3.0999  2.5707
  527MOL0     H69561   6.879   3.186   7.397  2.3448 -0.1800  1.2622
  527MOL0     H69562   7.145   2.905   7.271  0.8597  1.1825  1.5717
  527MOL0     H69563   6.533   3.436   7.494  0.3418  2.0446 -1.8496
  527MOL0     H69564   6.293   3.412   7.580 -0.9979  1.1762 -1.5946
  528MOL0     O69565   5.362   5.782   3.890 -0.1960 -0.2014 -0.0294
  528MOL0     C69566   5.359   5.907   3.892 -0.3898  0.0849  0.6475
  528MOL0     O69567   5.456   5.982   3.834 -0.1983 -0.1741 -0.5109
  528MOL0     C69568   5.559   5.920   3.774  0.6014 -0.2528 -0.3908
  528MOL0     C69569   5.577   5.935   3.638 -0.7580 -0.5165 -0.7616
  528MOL0     C69570   5.676   5.860   3.576  0.5814  1.1013  0.8182
  528MOL0     C69571   5.765   5.777   3.650 -0.4285 -0.1667  0.1580
  528MOL0     O69572   5.865   5.688   3.597 -0.5522 -0.1550 -0.8340
  528MOL0     C69573   5.902   5.710   3.458 -0.1610  0.5163 -0.9408
  528MOL0     C69574   6.002   5.597   3.433 -0.2528 -0.5073  0.3922
  528MOL0     C69575   6.136   5.604   3.511  0.4638  0.0205 -0.5659
  528MOL0     C69576   6.224   5.723   3.483  0.1075 -0.0411 -0.6609
  528MOL0     C69577   6.303   5.775   3.605  0.1304 -0.0591  0.3584
  528MOL0     C69578   6.227   5.881   3.684  0.1798 -0.4045 -0.7042
  528MOL0     C69579   6.310   5.940   3.792 -0.0685  0.8443 -0.4038
  528MOL0     C69580   6.322   5.856   3.912  0.1358  0.2519  0.4770
  528MOL0     N69581   6.194   5.869   3.985 -0.5332 -0.1948 -0.1485
  528MOL0     C69582   6.156   5.971   4.074  0.4416 -0.2807  0.1220
  528MOL0     C69583   6.034   5.930   4.122 -0.6366 -0.4932  0.6733
  528MOL0     C69584   5.952   6.012   4.219  0.2328 -0.5150  0.1537
  528MOL0     C69585   6.016   6.016   4.366 -0.6133  0.3001 -0.2700
  528MOL0     C69586   6.002   5.882   4.441  0.0087 -0.8049  0.0630
  528MOL0     C69587   6.047   5.890   4.591 -0.3846 -0.4197  0.1435
  528MOL0     O69588   6.021   5.779   4.665  0.2432  0.2061 -0.7865
  528MOL0     C69589   5.939   5.793   4.776  0.6568 -0.8401  0.0924
  528MOL0     C69590   5.972   5.885   4.887  0.2918 -0.2868 -0.2767
  528MOL0     C69591   5.891   5.891   4.999  0.2627  0.1036 -0.7153
  528MOL0     C69592   5.793   5.797   5.023 -0.3196 -0.5660  0.8928
  528MOL0     C69593   5.706   5.811   5.137 -0.4139  0.1299  0.6040
  528MOL0     O69594   5.753   5.888   5.238 -0.4758  0.3670 -0.2371
  528MOL0     C69595   5.668   5.918   5.345 -0.6980 -0.4686 -0.1477
  528MOL0     C69596   5.526   5.937   5.338  0.3549  0.2441  0.5306
  528MOL0     C69597   5.453   5.969   5.444 -0.1305 -0.5744 -0.3747
  528MOL0     C69598   5.511   5.989   5.569  0.5555  0.3757 -0.8778
  528MOL0     O69599   5.413   6.016   5.665 -0.2974  0.3678 -0.1741
  528MOL0     C69600   5.450   6.124   5.756 -0.0625 -0.0405  0.0694
  528MOL0     C69601   5.345   6.222   5.799  0.0939  0.6930  0.5636
  528MOL0     C69602   5.247   6.156   5.906  0.4300  0.3640  0.1040
  528MOL0     C69603   5.138   6.065   5.850 -0.2820  1.3477 -0.3234
  528MOL0     C69604   5.026   5.999   5.945 -0.4365 -0.1328 -0.5894
  528MOL0     C69605   5.005   6.091   6.073 -0.1884  0.1984 -0.4533
  528MOL0     C69606   4.914   6.019   6.175  0.4702  0.0471 -0.0704
  528MOL0     C69607   4.909   6.104   6.303  0.2915  0.5503 -0.1972
  528MOL0    Cl69608   4.780   6.040   6.403 -0.2146  0.5794 -0.4242
  528MOL0     C69609   5.644   5.968   5.584 -0.7049 -0.3771  0.2791
  528MOL0     C69610   5.728   5.929   5.475  0.7923 -0.9797  0.2910
  528MOL0     O69611   5.596   5.764   5.118  0.2645  0.0457 -0.2496
  528MOL0     C69612   5.766   5.699   4.911  0.0809  0.2328  0.1439
  528MOL0     C69613   5.841   5.694   4.791  0.7512 -1.7021 -0.5641
  528MOL0     N69614   5.995   5.814   4.058  0.1752 -0.0829 -0.3652
  528MOL0     N69615   6.096   5.775   3.984  0.2669  0.1892 -0.1037
  528MOL0     C69616   5.751   5.779   3.783 -0.1054  0.2466 -0.6901
  528MOL0     C69617   5.645   5.835   3.844  0.1147  1.0246 -0.2606
  528MOL0     C69618   5.254   5.978   3.959 -0.0658  0.1096  0.4330
  528MOL0     C69619   5.242   6.113   3.969 -1.1158  0.6906 -0.4592
  528MOL0     C69620   5.141   6.182   4.029  0.1619  0.7637 -0.5749
  528MOL0     C69621   5.045   6.106   4.106 -0.2485  0.0865  1.1731
  528MOL0     O69622   4.958   6.183   4.172  0.1467  0.1985 -0.3910
  528MOL0     C69623   4.853   6.124   4.249 -0.1751  0.1025  0.6649
  528MOL0     C69624   4.723   6.110   4.176 -0.0009 -0.4601 -0.7370
  528MOL0     C69625   4.607   6.094   4.267  0.4802  0.5227 -0.9925
  528MOL0     C69626   4.479   6.023   4.204  0.4979  0.5909 -1.2166
  528MOL0     C69627   4.435   6.101   4.092 -0.4142 -0.2244 -0.3275
  528MOL0     C69628   4.407   6.181   4.011 -1.0927  0.0927  0.0975
  528MOL0     C69629   5.048   5.964   4.089  0.4991 -1.0955 -0.4194
  528MOL0     C69630   5.152   5.900   4.019 -0.0265 -0.5033 -0.7188
  528MOL0     H69631   5.507   6.002   3.589  0.2279  0.3447 -1.0405
  528MOL0     H69632   5.669   5.859   3.468 -1.7549  2.9317  0.8639
  528MOL0     H69633   5.947   5.807   3.435 -2.2373  1.4233 -1.3771
  528MOL0     H69634   5.815   5.703   3.393  0.6095  0.5227 -2.0105
  528MOL0     H69635   6.029   5.611   3.328  4.9969  3.4001  1.8537
  528MOL0     H69636   5.949   5.502   3.448 -3.1531  0.9227 -0.0494
  528MOL0     H69637   6.188   5.511   3.486  2.1510  0.9224 -0.5572
  528MOL0     H69638   6.112   5.613   3.617  0.8161  1.0056 -0.5627
  528MOL0     H69639   6.281   5.684   3.398  0.1297  0.7792 -1.0282
  528MOL0     H69640   6.155   5.797   3.442 -0.3114 -1.2019 -2.1119
  528MOL0     H69641   6.399   5.812   3.567 -0.3373 -0.7084 -1.5904
  528MOL0     H69642   6.326   5.688   3.667  1.4287 -1.9612 -2.5502
  528MOL0     H69643   6.142   5.825   3.725 -0.7731  0.1878 -1.8220
  528MOL0     H69644   6.192   5.959   3.616 -3.1041 -0.9115  0.2197
  528MOL0     H69645   6.409   5.968   3.754  1.2585 -2.1278  0.5610
  528MOL0     H69646   6.264   6.036   3.816 -1.3800 -0.4914  2.9346
  528MOL0     H69647   6.404   5.897   3.971 -2.3139  4.1177  1.5167
  528MOL0     H69648   6.342   5.754   3.877 -1.6651  0.1919 -0.5413
  528MOL0     H69649   6.210   6.063   4.094  1.9193 -1.1207  0.1575
  528MOL0     H69650   5.856   5.961   4.230  1.7768 -3.6690  0.0340
  528MOL0     H69651   5.939   6.112   4.176  0.3994  0.2790  1.8882
  528MOL0     H69652   5.978   6.098   4.427  2.7614  0.8287  1.3475
  528MOL0     H69653   6.123   6.035   4.360 -0.7549  0.8679 -1.2009
  528MOL0     H69654   5.897   5.854   4.431 -0.4375  1.3689 -2.6815
  528MOL0     H69655   6.068   5.812   4.388  0.4693 -0.5278  0.2649
  528MOL0     H69656   5.995   5.977   4.631  1.8931  1.1042 -0.0259
  528MOL0     H69657   6.152   5.921   4.598 -0.3750 -0.2443 -0.6940
  528MOL0     H69658   6.062   5.946   4.893  1.3015 -1.8722  2.1806
  528MOL0     H69659   5.893   5.976   5.067  1.0380  0.3215 -0.9912
  528MOL0     H69660   5.475   5.925   5.243  0.3003 -1.8056  0.7803
  528MOL0     H69661   5.346   5.988   5.433  0.0261  1.0882  0.4699
  528MOL0     H69662   5.537   6.177   5.716 -1.2942  1.3925 -0.8089
  528MOL0     H69663   5.483   6.078   5.849 -2.2912 -1.1182  0.3931
  528MOL0     H69664   5.294   6.259   5.710 -0.9372 -1.7074  0.1049
  528MOL0     H69665   5.402   6.297   5.856  0.5503  1.0682 -0.3721
  528MOL0     H69666   5.195   6.240   5.955  1.0700  0.3588  0.7996
  528MOL0     H69667   5.299   6.096   5.982  0.2038  0.6278  0.4734
  528MOL0     H69668   5.083   6.126   5.777 -1.5222  0.1393 -0.4405
  528MOL0     H69669   5.185   5.986   5.791 -1.2982 -2.4009  3.3623
  528MOL0     H69670   5.068   5.901   5.970 -1.0586  0.2990  2.6104
  528MOL0     H69671   4.930   5.989   5.894  0.2771 -1.5189 -1.7465
  528MOL0     H69672   4.956   6.182   6.038  0.3872  0.1997 -1.2855
  528MOL0     H69673   5.099   6.119   6.121  2.4253 -0.2764 -4.7665
  528MOL0     H69674   4.816   5.988   6.136  0.2226  0.3551  0.3034
  528MOL0     H69675   4.960   5.923   6.201  1.5771  0.4452 -0.5091
  528MOL0     H69676   4.889   6.208   6.276  2.2390  1.5002  1.7687
  528MOL0     H69677   5.003   6.109   6.358 -1.4905  0.8738  3.0375
  528MOL0     H69678   5.689   5.975   5.683  1.4023  2.1766 -0.7518
  528MOL0     H69679   5.833   5.909   5.495  1.6365  2.2131 -0.2653
  528MOL0     H69680   5.681   5.635   4.933  2.4294 -2.3764  2.3716
  528MOL0     H69681   5.808   5.627   4.712 -0.9833 -0.3432 -1.0734
  528MOL0     H69682   5.836   5.741   3.840  0.2944  0.9105 -0.8254
  528MOL0     H69683   5.636   5.827   3.952  0.1855 -1.1499 -0.3727
  528MOL0     H69684   5.321   6.167   3.919  0.1273 -1.0028 -0.4338
  528MOL0     H69685   5.138   6.290   4.027  1.2861  0.8045 -0.4904
  528MOL0     H69686   4.833   6.184   4.338 -0.8685  0.5025  0.2512
  528MOL0     H69687   4.885   6.032   4.299 -0.3818  0.1228  0.8351
  528MOL0     H69688   4.707   6.203   4.121 -1.4878 -0.0532  0.3337
  528MOL0     H69689   4.721   6.020   4.113 -1.7961 -1.7093  0.9688
  528MOL0     H69690   4.579   6.194   4.301  0.8305 -0.0061  0.9328
  528MOL0     H69691   4.635   6.047   4.361  0.6416  1.6494 -0.4537
  528MOL0     H69692   4.492   5.916   4.187  0.7710  0.4771 -0.3167
  528MOL0     H69693   4.400   6.034   4.279  2.0310  2.8588  0.2011
  528MOL0     H69694   4.371   6.253   3.940 -1.2565  0.0956  0.1847
  528MOL0     H69695   4.977   5.905   4.147  1.7154 -1.8191  0.3929
  528MOL0     H69696   5.153   5.792   4.008 -3.5802 -0.6212 -1.0638
  529MOL0     O69697   2.635   7.372   4.237 -0.4374  0.2039 -0.0072
  529MOL0     C69698   2.727   7.332   4.315  0.4894  0.8919  0.3275
  529MOL0     O69699   2.707   7.276   4.439 -0.1828 -0.2548 -0.5142
  529MOL0     C69700   2.582   7.266   4.498 -0.5033  0.3608  0.0928
  529MOL0     C69701   2.494   7.370   4.522 -0.3405  0.4178 -0.8725
  529MOL0     C69702   2.380   7.355   4.601  0.0661  0.6461  0.5950
  529MOL0     C69703   2.356   7.229   4.659  0.4611 -0.1260  0.0833
  529MOL0     O69704   2.257   7.207   4.754  1.2232 -0.1899 -0.2660
  529MOL0     C69705   2.138   7.297   4.759 -0.1009  0.0083 -0.6752
  529MOL0     C69706   2.021   7.221   4.834  0.1226  0.3401  0.6548
  529MOL0     C69707   1.915   7.316   4.896  0.4941  0.5577 -1.1411
  529MOL0     C69708   1.814   7.241   4.986 -0.3111  1.0081 -0.0823
  529MOL0     C69709   1.697   7.323   5.013 -0.1405  0.4295  0.0248
  529MOL0     C69710   1.608   7.247   5.115 -0.2602 -0.0582 -0.5294
  529MOL0     C69711   1.475   7.310   5.151  0.6161  0.1447 -0.5818
  529MOL0     C69712   1.410   7.263   5.281 -0.9746  0.4110  0.5036
  529MOL0     N69713   1.276   7.314   5.317 -0.3250 -0.1606 -0.2003
  529MOL0     C69714   1.167   7.232   5.358  0.8413 -0.6362 -1.1922
  529MOL0     C69715   1.086   7.314   5.430  0.4829  1.3263 -0.2978
  529MOL0     C69716   0.951   7.284   5.496  0.2678 -0.0362  0.0882
  529MOL0     C69717   0.931   7.380   5.619 -0.0002  0.3524  0.2041
  529MOL0     C69718   0.791   7.363   5.677  0.2419  0.9446  0.1216
  529MOL0     C69719   0.672   7.442   5.615 -0.6211 -0.5622 -0.3819
  529MOL0     O69720   0.557   7.371   5.630  0.6306 -0.2670  0.2961
  529MOL0     C69721   0.444   7.444   5.664 -1.0887 -0.5043  0.7809
  529MOL0     C69722   0.421   7.479   5.792  0.4870  0.7102 -0.6070
  529MOL0     C69723   0.301   7.547   5.829  0.7276  0.9705 -0.0937
  529MOL0     C69724   0.192   7.560   5.734  0.0877 -0.0390 -0.7934
  529MOL0     C69725   0.074   7.644   5.775 -0.1685  0.4729 -0.0210
  529MOL0     O69726   0.016   7.726   5.675 -0.4338 -0.2163 -0.3939
  529MOL0     C69727  -0.096   7.794   5.699  0.8226 -0.4475  0.5540
  529MOL0     C69728  -0.216   7.738   5.722 -0.3319 -0.4623 -0.1836
  529MOL0     C69729  -0.336   7.814   5.745 -0.0545 -0.5875 -0.1378
  529MOL0     C69730  -0.326   7.954   5.750 -0.2288 -0.0275 -0.8426
  529MOL0     O69731  -0.439   8.022   5.790  0.4143  0.1850 -0.2530
  529MOL0     C69732  -0.434   8.169   5.809  0.3054  0.1561 -0.0865
  529MOL0     C69733  -0.579   8.210   5.848  0.6129  0.3514 -0.0925
  529MOL0     C69734  -0.673   8.213   5.733 -0.1118 -0.8042  0.6212
  529MOL0     C69735  -0.805   8.261   5.781  0.0607  0.2665  0.4878
  529MOL0     C69736  -0.912   8.281   5.678  0.2793 -0.4468  0.6442
  529MOL0     C69737  -1.024   8.354   5.745  0.1408  0.0376 -0.2007
  529MOL0     C69738  -1.139   8.359   5.639 -0.1196  0.2283 -0.9663
  529MOL0     C69739  -1.257   8.448   5.678 -0.0377  0.9879 -0.1300
  529MOL0    Cl69740  -1.344   8.372   5.818  0.2237 -0.2365 -0.1870
  529MOL0     C69741  -0.201   8.005   5.700 -0.2857  0.2181  0.2484
  529MOL0     C69742  -0.088   7.930   5.678 -0.0731  0.3818 -0.1509
  529MOL0     O69743   0.039   7.631   5.893  0.2083 -0.2218  0.3016
  529MOL0     C69744   0.220   7.523   5.605  0.9940  0.5535  0.2853
  529MOL0     C69745   0.344   7.473   5.566  1.1447 -0.3649 -0.3654
  529MOL0     N69746   1.147   7.435   5.433  0.3182  0.1528  0.1916
  529MOL0     N69747   1.252   7.434   5.364  0.4240 -0.3837 -0.2386
  529MOL0     C69748   2.444   7.122   4.641 -0.5975 -0.0979  0.4025
  529MOL0     C69749   2.556   7.137   4.557 -0.0941 -0.1150 -0.3034
  529MOL0     C69750   2.863   7.309   4.268  0.0309 -0.1610 -0.4016
  529MOL0     C69751   2.946   7.215   4.325 -0.3846 -0.0238  1.0124
  529MOL0     C69752   3.082   7.196   4.285 -0.3321 -0.2874  0.3303
  529MOL0     C69753   3.127   7.265   4.174  0.1252  0.0024  0.3825
  529MOL0     O69754   3.249   7.247   4.115 -0.4155  0.1895 -0.2326
  529MOL0     C69755   3.340   7.150   4.174 -0.0161  0.2263  0.2959
  529MOL0     C69756   3.468   7.152   4.084  0.0803  0.2331 -0.8669
  529MOL0     C69757   3.537   7.285   4.074 -0.2301 -0.7153  0.3971
  529MOL0     C69758   3.680   7.270   4.031 -0.3444 -0.1970 -0.5891
  529MOL0     C69759   3.769   7.201   4.125  0.6362  0.9777  0.0560
  529MOL0     C69760   3.849   7.157   4.199 -0.4840 -0.7474  0.7469
  529MOL0     C69761   3.048   7.360   4.105 -1.6150 -0.1859 -0.0255
  529MOL0     C69762   2.917   7.380   4.154 -0.2671 -0.1216  0.0692
  529MOL0     H69763   2.526   7.457   4.466 -2.1251  2.7697  1.4818
  529MOL0     H69764   2.316   7.442   4.607  0.4439  0.8618  1.6696
  529MOL0     H69765   2.113   7.336   4.660  0.2819  2.5727  0.1527
  529MOL0     H69766   2.172   7.382   4.819 -0.3715 -0.9443  0.8980
  529MOL0     H69767   2.058   7.146   4.904 -0.7881  0.4162  1.2421
  529MOL0     H69768   1.973   7.155   4.761 -1.3848  1.9829  0.0882
  529MOL0     H69769   1.865   7.372   4.817  2.8720  2.2275 -1.5811
  529MOL0     H69770   1.959   7.393   4.961 -1.7549 -1.5954  3.3544
  529MOL0     H69771   1.775   7.149   4.941  0.7710 -1.5263  3.6808
  529MOL0     H69772   1.861   7.205   5.077  0.3670 -2.0218 -1.5172
  529MOL0     H69773   1.631   7.348   4.929 -1.1695  1.2540  1.0605
  529MOL0     H69774   1.731   7.417   5.058  1.7184 -2.3032  4.9893
  529MOL0     H69775   1.672   7.241   5.204 -1.2018  0.1484  0.1775
  529MOL0     H69776   1.588   7.147   5.076  2.5204 -0.2947 -1.5909
  529MOL0     H69777   1.488   7.419   5.157 -2.6310  0.7205 -1.8061
  529MOL0     H69778   1.406   7.286   5.070 -1.3362  3.2905 -0.0378
  529MOL0     H69779   1.486   7.281   5.358  0.1018 -0.4085 -0.3281
  529MOL0     H69780   1.405   7.154   5.277 -2.4785  0.4850 -1.0447
  529MOL0     H69781   1.151   7.125   5.343  0.8870 -1.1617  1.8150
  529MOL0     H69782   0.939   7.180   5.526  0.9564 -0.2022 -0.1863
  529MOL0     H69783   0.872   7.312   5.426 -1.1717 -1.4447  1.0814
  529MOL0     H69784   0.946   7.485   5.592  1.7751  0.0642 -0.0853
  529MOL0     H69785   1.012   7.362   5.690  0.0395  1.8973  0.5949
  529MOL0     H69786   0.770   7.256   5.662  0.0418  1.0571 -0.4004
  529MOL0     H69787   0.791   7.396   5.782 -1.1809 -1.3221  0.9082
  529MOL0     H69788   0.694   7.460   5.510  2.3380  1.0928  0.4241
  529MOL0     H69789   0.671   7.546   5.649  0.4337  0.2906 -2.7811
  529MOL0     H69790   0.484   7.447   5.875 -0.4551  2.2838  0.7511
  529MOL0     H69791   0.286   7.566   5.935  2.1162  0.5580  0.1984
  529MOL0     H69792  -0.218   7.630   5.725 -3.5920 -0.6598 -3.0390
  529MOL0     H69793  -0.436   7.775   5.754  0.0358 -0.4341  2.0147
  529MOL0     H69794  -0.401   8.215   5.715  2.3645  0.4316  0.7257
  529MOL0     H69795  -0.361   8.206   5.882 -0.2719  2.8231 -0.7410
  529MOL0     H69796  -0.580   8.308   5.897 -0.2128  0.4797 -0.3464
  529MOL0     H69797  -0.606   8.144   5.931  0.4202 -0.6578 -0.9408
  529MOL0     H69798  -0.677   8.117   5.682  1.5444  0.1933 -1.5754
  529MOL0     H69799  -0.637   8.286   5.660  0.5010 -1.7638 -0.0562
  529MOL0     H69800  -0.844   8.189   5.855  0.9864  0.6317  1.3590
  529MOL0     H69801  -0.790   8.346   5.849  1.1811  0.1229  0.4330
  529MOL0     H69802  -0.945   8.184   5.640 -2.3105  1.0204 -1.1679
  529MOL0     H69803  -0.864   8.331   5.593  1.6655 -1.3621  0.8515
  529MOL0     H69804  -0.988   8.455   5.767  1.6747 -0.4689 -0.3019
  529MOL0     H69805  -1.059   8.313   5.840 -1.7772 -2.4119 -1.8339
  529MOL0     H69806  -1.090   8.399   5.550  3.1442  1.1356  1.0469
  529MOL0     H69807  -1.172   8.257   5.618  0.2056 -0.0630 -0.1270
  529MOL0     H69808  -1.326   8.442   5.593 -1.3239 -1.3938  1.0005
  529MOL0     H69809  -1.226   8.550   5.703  0.1548  0.5840  1.3770
  529MOL0     H69810  -0.191   8.110   5.674  0.1047  0.6504  1.9954
  529MOL0     H69811   0.003   7.978   5.642 -1.4395  1.4491 -2.3853
  529MOL0     H69812   0.134   7.549   5.545 -1.2460  0.5979  3.2339
  529MOL0     H69813   0.369   7.460   5.462  3.4962 -2.4399  0.3618
  529MOL0     H69814   2.433   7.029   4.696 -1.5482 -0.1217  0.1889
  529MOL0     H69815   2.641   7.070   4.561  1.3102  1.6589  1.7642
  529MOL0     H69816   2.912   7.157   4.410 -2.0486 -0.7488 -0.0939
  529MOL0     H69817   3.132   7.118   4.342  3.1590  1.2596 -0.3121
  529MOL0     H69818   3.305   7.046   4.165 -0.3473  0.1919  1.7314
  529MOL0     H69819   3.368   7.175   4.277 -0.8401 -0.7849  0.7828
  529MOL0     H69820   3.529   7.071   4.126  2.2279  1.3742 -1.6537
  529MOL0     H69821   3.436   7.123   3.983 -4.6221 -2.2647  1.0117
  529MOL0     H69822   3.545   7.327   4.174  2.7243  0.5716 -0.2623
  529MOL0     H69823   3.481   7.358   4.015 -1.0725 -1.1894  0.5944
  529MOL0     H69824   3.680   7.225   3.931 -0.0629  0.0946 -0.7215
  529MOL0     H69825   3.722   7.370   4.017  2.6608 -1.1011  0.9522
  529MOL0     H69826   3.910   7.124   4.281 -0.9279 -1.7188  0.7045
  529MOL0     H69827   3.081   7.408   4.013 -0.9787 -1.0215 -0.2496
  529MOL0     H69828   2.854   7.451   4.102  2.1726  1.6572 -0.6406
  530MOL0     O69829   1.445   8.427   4.024 -0.5790  0.1860  0.3719
  530MOL0     C69830   1.348   8.462   4.092 -0.3662 -0.2778  0.1988
  530MOL0     O69831   1.260   8.561   4.058 -0.4036  0.0542  0.3132
  530MOL0     C69832   1.235   8.578   3.926  0.3550 -0.8260  0.3402
  530MOL0     C69833   1.208   8.474   3.839  0.0925 -0.4861  0.2115
  530MOL0     C69834   1.157   8.507   3.714 -0.1413  0.2616  0.3935
  530MOL0     C69835   1.126   8.640   3.675  0.6840  0.0463  0.1894
  530MOL0     O69836   1.064   8.671   3.548 -0.9668  0.4606  0.5205
  530MOL0     C69837   1.169   8.716   3.453  0.3086 -0.4601  0.7453
  530MOL0     C69838   1.180   8.871   3.441 -0.1690  1.3991 -0.0866
  530MOL0     C69839   1.035   8.934   3.427  0.5063  0.7028  0.5684
  530MOL0     C69840   1.026   9.080   3.378  0.9400  0.1938  0.1684
  530MOL0     C69841   0.883   9.135   3.383  0.4107  0.3662 -0.3448
  530MOL0     C69842   0.801   9.059   3.279 -0.3098  0.8804 -0.2745
  530MOL0     C69843   0.664   9.121   3.290  0.2263 -0.2505  0.7023
  530MOL0     C69844   0.575   9.051   3.397 -0.4675  0.0526  0.1324
  530MOL0     N69845   0.433   9.085   3.392  0.2058 -0.5594 -0.3489
  530MOL0     C69846   0.339   9.002   3.345  0.5783  0.5007 -0.2362
  530MOL0     C69847   0.222   9.058   3.376 -0.5384  0.2707  0.7671
  530MOL0     C69848   0.083   9.022   3.317 -0.1371  0.4605 -0.1584
  530MOL0     C69849  -0.034   9.031   3.411 -0.6134 -0.1192 -0.5849
  530MOL0     C69850  -0.160   9.053   3.335  0.1713  0.3109  0.5539
  530MOL0     C69851  -0.285   9.023   3.416  0.0404 -0.1955  0.2294
  530MOL0     O69852  -0.402   9.076   3.355 -0.3251 -0.0744  1.0878
  530MOL0     C69853  -0.522   9.078   3.413 -0.3888 -0.4415 -0.3442
  530MOL0     C69854  -0.549   9.023   3.544 -0.8197 -0.2982 -0.1813
  530MOL0     C69855  -0.669   9.040   3.611 -0.3326  0.2686 -0.1087
  530MOL0     C69856  -0.783   9.075   3.536  0.2724  0.4347 -0.6939
  530MOL0     C69857  -0.913   9.062   3.594 -0.0616 -0.0760 -0.8467
  530MOL0     O69858  -1.012   9.079   3.502  0.1970  0.2699  0.3069
  530MOL0     C69859  -1.138   9.053   3.551  0.3139 -0.2639 -0.1575
  530MOL0     C69860  -1.224   8.950   3.518  0.5943 -0.2524 -0.0172
  530MOL0     C69861  -1.353   8.936   3.573 -0.6584  0.1174 -0.6406
  530MOL0     C69862  -1.404   9.038   3.652  0.6692  0.0622 -0.4284
  530MOL0     O69863  -1.529   9.038   3.719 -0.3485 -0.6865  0.1047
  530MOL0     C69864  -1.629   8.955   3.666 -0.2494 -1.2417  0.1348
  530MOL0     C69865  -1.763   8.994   3.738  0.2565  0.1349  0.2705
  530MOL0     C69866  -1.877   8.902   3.680 -0.3801 -0.0129 -0.6623
  530MOL0     C69867  -2.014   8.964   3.715  0.1861 -0.4355 -0.4011
  530MOL0     C69868  -2.128   8.890   3.643 -0.3619 -0.4108  0.9140
  530MOL0     C69869  -2.262   8.925   3.692  0.7638  0.3935 -0.8549
  530MOL0     C69870  -2.367   8.825   3.641  0.6677 -0.8174  0.4003
  530MOL0     C69871  -2.491   8.834   3.733  0.8636  0.6321  0.0199
  530MOL0    Cl69872  -2.631   8.771   3.642  0.2743 -0.0524  0.3171
  530MOL0     C69873  -1.323   9.145   3.686  0.3121  0.6821 -0.0145
  530MOL0     C69874  -1.196   9.152   3.634 -0.6217  0.8397 -0.0842
  530MOL0     O69875  -0.925   9.018   3.709 -0.5595  0.1454 -0.7156
  530MOL0     C69876  -0.758   9.120   3.401  0.2063 -0.1938 -0.6890
  530MOL0     C69877  -0.631   9.128   3.347 -0.9223  0.0943 -0.0949
  530MOL0     N69878   0.243   9.178   3.442  0.2885  0.1875  0.2385
  530MOL0     N69879   0.369   9.180   3.474 -0.1996  0.4288 -0.3013
  530MOL0     C69880   1.157   8.746   3.756  0.0175 -0.1308  0.0673
  530MOL0     C69881   1.200   8.707   3.884 -0.1625 -0.8755  0.2503
  530MOL0     C69882   1.337   8.418   4.229 -0.2217 -0.0254  0.1282
  530MOL0     C69883   1.405   8.309   4.275  0.5140 -0.3367 -0.8983
  530MOL0     C69884   1.396   8.265   4.408 -0.5081  0.0170 -0.0793
  530MOL0     C69885   1.319   8.333   4.499  0.0491 -0.3304 -0.0541
  530MOL0     O69886   1.305   8.268   4.619  0.2144  0.2657 -0.2578
  530MOL0     C69887   1.196   8.299   4.714 -0.2910 -0.5036  0.0306
  530MOL0     C69888   1.240   8.429   4.801 -0.2610  0.3247 -0.6087
  530MOL0     C69889   1.348   8.384   4.903  0.5082  0.8414 -0.1286
  530MOL0     C69890   1.482   8.400   4.831 -0.5600 -0.1085 -1.3015
  530MOL0     C69891   1.599   8.423   4.927  1.4082 -0.2558  0.5548
  530MOL0     C69892   1.688   8.437   5.007  0.1875 -0.0406  0.2712
  530MOL0     C69893   1.247   8.443   4.456 -0.4616  0.2966 -0.7140
  530MOL0     C69894   1.252   8.486   4.315 -0.4228  0.3582  0.1227
  530MOL0     H69895   1.225   8.371   3.870 -1.6112 -0.3229  1.8811
  530MOL0     H69896   1.136   8.430   3.640  2.6750  0.5153 -0.7827
  530MOL0     H69897   1.146   8.672   3.356 -1.5925 -0.8257  1.3223
  530MOL0     H69898   1.266   8.674   3.481  1.4015  2.0195  0.9760
  530MOL0     H69899   1.245   8.885   3.354 -1.5563 -1.4531 -1.7433
  530MOL0     H69900   1.232   8.919   3.524  2.1842 -0.7818 -0.1713
  530MOL0     H69901   0.988   8.933   3.525  1.1328 -0.4323  0.8714
  530MOL0     H69902   0.978   8.861   3.369 -1.2988  1.6296  1.1070
  530MOL0     H69903   1.079   9.150   3.443  0.8740  1.3676 -0.9928
  530MOL0     H69904   1.062   9.069   3.275 -1.9924  0.6362 -1.0015
  530MOL0     H69905   0.888   9.243   3.363  0.9197  0.6826  1.2791
  530MOL0     H69906   0.831   9.127   3.479 -1.2335  0.3844 -1.2138
  530MOL0     H69907   0.799   8.952   3.301  1.5053  1.0705  1.0341
  530MOL0     H69908   0.852   9.070   3.183  1.2613  0.2211  0.4507
  530MOL0     H69909   0.666   9.229   3.302 -0.9528 -0.3224  1.6467
  530MOL0     H69910   0.613   9.105   3.195  2.8502 -0.3865 -0.7948
  530MOL0     H69911   0.597   9.070   3.503  0.4003 -2.3681  0.4481
  530MOL0     H69912   0.570   8.942   3.389 -2.8522  0.2176 -2.0057
  530MOL0     H69913   0.344   8.904   3.298 -3.2273  0.2731 -0.5159
  530MOL0     H69914   0.076   8.917   3.289 -0.2260  1.1260 -2.8599
  530MOL0     H69915   0.057   9.079   3.227  0.1492 -0.6676 -0.9766
  530MOL0     H69916  -0.013   9.113   3.481  0.9988  1.3540 -2.6735
  530MOL0     H69917  -0.044   8.946   3.479  3.0049  0.7362  1.2767
  530MOL0     H69918  -0.173   9.158   3.308 -1.6135 -0.3894 -1.6949
  530MOL0     H69919  -0.164   8.994   3.243 -0.1230  1.4859 -0.2095
  530MOL0     H69920  -0.279   9.066   3.516 -2.7356  1.2778 -0.1273
  530MOL0     H69921  -0.297   8.915   3.414 -0.1403 -0.1676 -1.2773
  530MOL0     H69922  -0.468   8.978   3.602 -1.1320  0.3558  0.7779
  530MOL0     H69923  -0.672   9.033   3.719  2.3911  5.2832  0.6079
  530MOL0     H69924  -1.207   8.863   3.456 -1.6698  1.7359 -3.7743
  530MOL0     H69925  -1.405   8.844   3.552  3.1835 -2.4733  0.1200
  530MOL0     H69926  -1.598   8.851   3.681  1.6937 -0.7605 -0.2034
  530MOL0     H69927  -1.621   8.971   3.558  5.0491 -4.4779 -0.3264
  530MOL0     H69928  -1.791   9.099   3.724  2.3784  0.8211  0.7199
  530MOL0     H69929  -1.750   8.995   3.846 -0.9883 -1.9800  0.4863
  530MOL0     H69930  -1.879   8.807   3.734  1.0641  2.2385  3.8595
  530MOL0     H69931  -1.871   8.890   3.571 -1.0473 -0.0217 -0.7056
  530MOL0     H69932  -2.021   8.949   3.823  2.5127 -0.0007 -0.1278
  530MOL0     H69933  -2.012   9.073   3.700 -0.4430  0.7521  5.5311
  530MOL0     H69934  -2.118   8.782   3.654 -3.0108 -0.8676 -0.3022
  530MOL0     H69935  -2.108   8.911   3.537  0.7781  3.2504  1.7046
  530MOL0     H69936  -2.285   9.028   3.664  0.0686 -0.0068 -1.8570
  530MOL0     H69937  -2.272   8.920   3.800 -0.3538 -1.1763 -0.9898
  530MOL0     H69938  -2.396   8.857   3.540  0.4078 -1.4539  0.2613
  530MOL0     H69939  -2.336   8.720   3.631  0.4677 -0.9533  1.1829
  530MOL0     H69940  -2.507   8.939   3.756  0.5620  0.3937  0.9174
  530MOL0     H69941  -2.471   8.785   3.828 -0.2545  0.7623  0.3335
  530MOL0     H69942  -1.353   9.233   3.742 -2.2343  2.0763 -3.1998
  530MOL0     H69943  -1.135   9.237   3.665  1.8266 -1.3930  1.6467
  530MOL0     H69944  -0.839   9.155   3.338  0.9775 -2.2470 -3.0285
  530MOL0     H69945  -0.617   9.168   3.247 -0.3943 -1.3009 -0.6111
  530MOL0     H69946   1.130   8.848   3.731  1.6229  0.0985 -0.8111
  530MOL0     H69947   1.217   8.779   3.963  1.3276  2.3534 -2.7802
  530MOL0     H69948   1.476   8.250   4.217  1.5626 -0.3569  0.3487
  530MOL0     H69949   1.471   8.196   4.447  1.6098  0.7032 -2.6451
  530MOL0     H69950   1.185   8.202   4.763  1.4677 -0.9432 -0.3720
  530MOL0     H69951   1.098   8.324   4.673 -1.4336 -2.5209  1.3396
  530MOL0     H69952   1.265   8.518   4.743  2.7420  0.2099  0.3394
  530MOL0     H69953   1.154   8.448   4.866  1.0608  0.7456  1.0859
  530MOL0     H69954   1.342   8.280   4.937  0.0313 -0.2475 -3.2608
  530MOL0     H69955   1.343   8.456   4.986 -1.9372 -0.6111  1.0839
  530MOL0     H69956   1.499   8.316   4.762 -0.5642 -0.5267 -0.7964
  530MOL0     H69957   1.480   8.491   4.770  0.9153 -1.3565 -3.3392
  530MOL0     H69958   1.761   8.459   5.083  0.3015 -3.2259  1.2500
  530MOL0     H69959   1.182   8.490   4.529  0.5917  0.7303 -0.0320
  530MOL0     H69960   1.192   8.571   4.285  0.1420 -0.3732 -3.5984
  531MOL0     O69961   8.093   7.779   7.400  0.0575 -0.2060  0.3659
  531MOL0     C69962   8.118   7.897   7.401  0.3354 -0.3597 -0.3036
  531MOL0     O69963   8.032   7.996   7.372  0.3757  0.4797  0.1575
  531MOL0     C69964   7.922   7.960   7.294  0.5372  0.7595  0.4493
  531MOL0     C69965   7.931   7.962   7.156 -0.6059  0.3158 -0.1824
  531MOL0     C69966   7.819   7.936   7.077 -0.5868  1.0008 -0.7391
  531MOL0     C69967   7.699   7.914   7.135  0.2749 -0.4638 -0.3282
  531MOL0     O69968   7.596   7.898   7.040  0.1224  0.1928  0.8314
  531MOL0     C69969   7.472   7.854   7.098 -0.5137 -0.6016 -0.4017
  531MOL0     C69970   7.373   7.838   6.983  0.3945 -0.3689 -0.2275
  531MOL0     C69971   7.329   7.966   6.926 -0.1908 -0.5860  0.2907
  531MOL0     C69972   7.201   7.969   6.848  0.2675  0.9805 -0.3526
  531MOL0     C69973   7.089   7.920   6.938  0.5198 -0.5283  0.2475
  531MOL0     C69974   6.956   7.966   6.879  0.6835  0.7960  0.7298
  531MOL0     C69975   6.833   7.912   6.952  0.3886 -0.0393 -0.1260
  531MOL0     C69976   6.717   8.007   6.930  0.0815 -0.2031 -0.6430
  531MOL0     N69977   6.697   8.025   6.791 -0.5175 -0.0871 -0.4168
  531MOL0     C69978   6.667   8.151   6.747  0.0631  0.1199 -0.6337
  531MOL0     C69979   6.636   8.132   6.615 -0.1897 -0.1218  0.6334
  531MOL0     C69980   6.597   8.237   6.513  0.2574  1.0175  0.1202
  531MOL0     C69981   6.445   8.260   6.498 -0.4268 -1.0145  0.3150
  531MOL0     C69982   6.430   8.361   6.386  0.4260 -0.1866 -1.2593
  531MOL0     C69983   6.283   8.416   6.363 -0.4452 -0.2624 -0.1571
  531MOL0     O69984   6.200   8.304   6.332 -0.2120 -0.1818  0.6062
  531MOL0     C69985   6.090   8.303   6.403  0.1862  0.3111 -0.6138
  531MOL0     C69986   6.101   8.229   6.521  0.1528  0.4552 -0.1146
  531MOL0     C69987   5.987   8.218   6.599 -0.1299 -0.0418  0.4735
  531MOL0     C69988   5.866   8.288   6.568 -0.5195 -0.2704  0.5517
  531MOL0     C69989   5.753   8.280   6.656 -0.2830 -1.0227  0.1952
  531MOL0     O69990   5.639   8.334   6.610  0.4429 -0.3839  0.2249
  531MOL0     C69991   5.529   8.357   6.695  0.4999 -0.2656 -0.5157
  531MOL0     C69992   5.468   8.485   6.678 -0.3564 -0.1958  0.4316
  531MOL0     C69993   5.350   8.513   6.737 -0.3015  0.1187 -0.0178
  531MOL0     C69994   5.289   8.419   6.820  0.3353 -0.2732 -0.5839
  531MOL0     O69995   5.172   8.440   6.878  0.0947  0.1746 -0.1775
  531MOL0     C69996   5.063   8.470   6.792 -0.7381 -0.2948 -0.0268
  531MOL0     C69997   4.937   8.523   6.870 -0.4448  0.3059 -0.3984
  531MOL0     C69998   4.814   8.553   6.786  0.4830 -0.2963  1.0577
  531MOL0     C69999   4.698   8.616   6.871 -0.9351 -0.2762  0.2006
  531MOL0     C70000   4.553   8.634   6.808 -0.4740 -0.5104 -0.2733
  531MOL0     C70001   4.470   8.513   6.803 -0.8778  0.0245 -0.6531
  531MOL0     C70002   4.331   8.541   6.760 -0.2968  0.7830 -0.5165
  531MOL0     C70003   4.264   8.400   6.729 -0.1561  0.7757 -0.1519
  531MOL0    Cl70004   4.228   8.328   6.903  0.2594  0.0334 -0.6997
  531MOL0     C70005   5.356   8.299   6.852  0.5803  0.3850  0.3696
  531MOL0     C70006   5.470   8.256   6.781  0.1306 -0.2644 -0.4286
  531MOL0     O70007   5.765   8.234   6.768  0.1906  0.1134 -0.0595
  531MOL0     C70008   5.857   8.362   6.446  0.0954  0.2318 -0.0152
  531MOL0     C70009   5.976   8.369   6.369  0.2521 -1.0950  1.0376
  531MOL0     N70010   6.653   7.997   6.591 -0.0383 -0.2080 -0.2411
  531MOL0     N70011   6.689   7.933   6.694  1.0205 -0.0597 -0.5354
  531MOL0     C70012   7.689   7.908   7.274 -0.5546 -0.5872 -0.4209
  531MOL0     C70013   7.800   7.933   7.355 -0.4084 -0.6347 -0.0770
  531MOL0     C70014   8.259   7.937   7.401 -0.5965  0.1970  0.2696
  531MOL0     C70015   8.300   8.060   7.345  0.7275  0.6419 -0.1778
  531MOL0     C70016   8.431   8.097   7.357  0.1792  0.1097  0.4811
  531MOL0     C70017   8.532   8.014   7.405  0.0942  0.1741  0.3636
  531MOL0     O70018   8.665   8.065   7.396 -0.3996  0.4505  0.3325
  531MOL0     C70019   8.776   7.979   7.450 -0.0344 -0.1670  0.4101
  531MOL0     C70020   8.908   8.018   7.381  0.5833 -0.2664 -0.0286
  531MOL0     C70021   8.895   8.009   7.222 -0.8610  1.1096  0.4174
  531MOL0     C70022   9.030   7.978   7.143 -0.1038 -0.0935 -0.2447
  531MOL0     C70023   9.127   8.087   7.154 -0.4330  0.0362  0.6425
  531MOL0     C70024   9.216   8.159   7.180  0.1135 -0.0332  0.0191
  531MOL0     C70025   8.486   7.893   7.457 -0.3374  0.6597 -0.5978
  531MOL0     C70026   8.357   7.851   7.453 -0.0504 -0.5096  0.3613
  531MOL0     H70027   8.024   8.000   7.115 -1.0988  2.6673  0.7291
  531MOL0     H70028   7.827   7.959   6.971  0.9949 -1.6087 -1.2654
  531MOL0     H70029   7.431   7.929   7.167 -1.5453 -0.6479 -0.9313
  531MOL0     H70030   7.488   7.757   7.146  0.3264 -0.9618 -1.3808
  531MOL0     H70031   7.288   7.779   7.019 -0.3917  0.8045 -0.1064
  531MOL0     H70032   7.429   7.786   6.904 -1.2269  0.4748 -2.0097
  531MOL0     H70033   7.401   7.999   6.850  2.3725 -0.1633  2.7445
  531MOL0     H70034   7.314   8.050   6.995  1.0439 -1.4623  1.6960
  531MOL0     H70035   7.179   8.069   6.809 -0.1412  1.1644  0.3501
  531MOL0     H70036   7.211   7.892   6.770 -0.4848  0.4733  0.0372
  531MOL0     H70037   7.107   7.955   7.041  1.0902 -0.8775  0.2709
  531MOL0     H70038   7.087   7.811   6.941 -0.6620 -0.6754 -3.0041
  531MOL0     H70039   6.953   7.942   6.772  1.6498  1.7706  0.4683
  531MOL0     H70040   6.958   8.074   6.894  0.3777  1.2396 -1.8356
  531MOL0     H70041   6.811   7.809   6.922  2.9282 -1.1904  1.6000
  531MOL0     H70042   6.854   7.896   7.058  1.3093  1.9699  0.0389
  531MOL0     H70043   6.747   8.100   6.980  0.7229 -1.2493  1.0172
  531MOL0     H70044   6.628   7.960   6.972  1.1339 -3.9250 -2.1433
  531MOL0     H70045   6.688   8.238   6.808  3.0605 -1.5223  0.9196
  531MOL0     H70046   6.638   8.199   6.419  0.8941 -3.6401  2.0073
  531MOL0     H70047   6.665   8.322   6.525  2.2752 -0.7037  1.8448
  531MOL0     H70048   6.388   8.290   6.586 -0.6664  1.9336 -0.7451
  531MOL0     H70049   6.397   8.167   6.464  1.5915 -2.1339  0.3455
  531MOL0     H70050   6.487   8.447   6.420 -1.2773  0.1740  0.9208
  531MOL0     H70051   6.460   8.312   6.293  1.2701 -0.4883 -0.8311
  531MOL0     H70052   6.300   8.481   6.276  1.7594  0.6592  0.8952
  531MOL0     H70053   6.254   8.477   6.449  1.4262  1.4638 -0.6890
  531MOL0     H70054   6.199   8.187   6.538  0.1494  0.0157 -1.1335
  531MOL0     H70055   5.985   8.162   6.692  3.1717  1.6210  1.7065
  531MOL0     H70056   5.515   8.553   6.608 -0.5970 -2.1623 -1.7572
  531MOL0     H70057   5.312   8.614   6.728  0.9023  0.5341 -0.5233
  531MOL0     H70058   5.034   8.390   6.723  4.0788 -2.0209 -0.4820
  531MOL0     H70059   5.088   8.555   6.728  0.1448  0.9578  1.8659
  531MOL0     H70060   4.970   8.619   6.910  2.4290 -0.7098 -0.1027
  531MOL0     H70061   4.917   8.457   6.955 -0.0650  1.6348  0.7654
  531MOL0     H70062   4.775   8.465   6.734 -0.7364  1.1278 -0.5704
  531MOL0     H70063   4.830   8.621   6.701 -2.4743 -0.6222  0.1070
  531MOL0     H70064   4.685   8.561   6.964 -2.4223  0.8457  0.6812
  531MOL0     H70065   4.729   8.716   6.902 -1.9227 -0.1449  0.7932
  531MOL0     H70066   4.557   8.670   6.705 -2.5515 -1.7415 -0.8545
  531MOL0     H70067   4.506   8.710   6.872  0.7540 -0.4036  0.5365
  531MOL0     H70068   4.457   8.487   6.909 -2.0095  0.9645 -0.5470
  531MOL0     H70069   4.528   8.437   6.750  1.2984  0.1884  1.2913
  531MOL0     H70070   4.269   8.603   6.826 -2.6377 -0.4089 -1.4883
  531MOL0     H70071   4.338   8.596   6.666  2.8475  1.6844  0.1231
  531MOL0     H70072   4.324   8.323   6.681 -0.9798 -1.8662  2.7402
  531MOL0     H70073   4.167   8.413   6.681  0.3021  2.0073 -0.7953
  531MOL0     H70074   5.306   8.225   6.913 -4.4336 -1.0619 -4.6066
  531MOL0     H70075   5.526   8.163   6.790 -0.5860 -0.8756 -1.9265
  531MOL0     H70076   5.769   8.420   6.417  1.8445  2.8301 -0.4946
  531MOL0     H70077   5.978   8.441   6.288 -1.4318 -0.7632  1.2654
  531MOL0     H70078   7.596   7.877   7.321 -1.1540 -0.7633 -1.6717
  531MOL0     H70079   7.795   7.946   7.462 -0.0364  3.2433 -0.3975
  531MOL0     H70080   8.229   8.127   7.297  0.0833 -0.2002 -0.4268
  531MOL0     H70081   8.468   8.191   7.316  2.6604  0.2573  2.7901
  531MOL0     H70082   8.763   7.873   7.427  0.4101  0.4630 -3.2632
  531MOL0     H70083   8.772   7.999   7.558 -1.8977  2.3032 -0.0222
  531MOL0     H70084   8.935   8.122   7.400 -2.6957  1.1524 -2.1119
  531MOL0     H70085   8.999   7.972   7.420  0.7268 -0.1070 -0.1752
  531MOL0     H70086   8.843   8.095   7.180 -0.2913  1.9978  1.5026
  531MOL0     H70087   8.835   7.923   7.189  1.0086  0.0820 -0.4986
  531MOL0     H70088   9.070   7.884   7.182 -0.8075  0.4229  1.8807
  531MOL0     H70089   9.005   7.967   7.037 -1.3744  1.6810 -0.1796
  531MOL0     H70090   9.309   8.209   7.196 -0.5019  0.3658  2.9052
  531MOL0     H70091   8.565   7.838   7.507  2.0651  1.9505 -2.7628
  531MOL0     H70092   8.336   7.749   7.482  3.1514 -1.6513 -0.8745
  532MOL0     O70093   0.682   9.780  10.460  0.1324 -0.3520 -0.4394
  532MOL0     C70094   0.760   9.694  10.498  0.4437 -0.6797 -0.0014
  532MOL0     O70095   0.725   9.586  10.582 -0.2519 -0.4992  0.2215
  532MOL0     C70096   0.595   9.586  10.629  0.1983 -0.5737  0.4759
  532MOL0     C70097   0.515   9.483  10.593  0.3883 -0.1368 -0.2485
  532MOL0     C70098   0.382   9.469  10.629 -0.1218  0.0511 -0.2084
  532MOL0     C70099   0.324   9.567  10.713  0.1305  0.4129 -0.7499
  532MOL0     O70100   0.182   9.569  10.747 -0.5884 -0.4674  0.2510
  532MOL0     C70101   0.104   9.447  10.739 -1.0716 -0.2669  0.4445
  532MOL0     C70102  -0.025   9.466  10.820 -1.4239  0.9608  0.2473
  532MOL0     C70103  -0.120   9.343  10.846  0.1449  0.1379  0.2494
  532MOL0     C70104  -0.139   9.255  10.720 -0.9554  0.9070  0.4423
  532MOL0     C70105  -0.229   9.135  10.755 -0.6701  0.0097 -0.5660
  532MOL0     C70106  -0.252   9.031  10.647 -0.0838 -1.0306  0.8783
  532MOL0     C70107  -0.362   8.929  10.681 -0.1681 -0.2923 -0.3053
  532MOL0     C70108  -0.410   8.849  10.560  0.9980 -0.7784  0.0068
  532MOL0     N70109  -0.521   8.758  10.600  0.0527  0.3513  0.5253
  532MOL0     C70110  -0.651   8.745  10.554 -0.7513  0.0511  0.6494
  532MOL0     C70111  -0.701   8.637  10.619 -0.0301 -0.2803  0.0032
  532MOL0     C70112  -0.834   8.570  10.579  0.1308 -0.2595 -0.2114
  532MOL0     C70113  -0.949   8.667  10.580 -0.4592 -0.9328  0.0446
  532MOL0     C70114  -0.971   8.728  10.722  0.4657  0.4720 -0.1365
  532MOL0     C70115  -1.036   8.619  10.815  0.0611 -0.4247 -0.2263
  532MOL0     O70116  -1.137   8.536  10.755  0.0801 -0.2193  0.9521
  532MOL0     C70117  -1.264   8.530  10.800 -0.0103  0.8599 -0.0001
  532MOL0     C70118  -1.301   8.473  10.927  0.6242  0.7193 -0.2184
  532MOL0     C70119  -1.434   8.475  10.966  0.6473 -0.8897  0.0666
  532MOL0     C70120  -1.541   8.495  10.879 -0.7782 -0.7599 -0.2075
  532MOL0     C70121  -1.683   8.466  10.906  0.4155  0.6773 -0.1367
  532MOL0     O70122  -1.707   8.397  11.025  0.9257  0.5292 -0.0718
  532MOL0     C70123  -1.837   8.383  11.062 -0.0546  0.2358  0.7439
  532MOL0     C70124  -1.862   8.425  11.188 -0.6858 -0.0970  0.8154
  532MOL0     C70125  -1.994   8.424  11.238 -0.3615 -0.2726  0.2421
  532MOL0     C70126  -2.105   8.394  11.151  0.0083 -0.0214  0.5525
  532MOL0     O70127  -2.233   8.398  11.192 -0.3406  0.2669 -0.5582
  532MOL0     C70128  -2.280   8.376  11.333 -0.3018  0.8892 -0.0652
  532MOL0     C70129  -2.420   8.322  11.318 -0.0679 -0.5259 -0.1215
  532MOL0     C70130  -2.482   8.334  11.457 -0.3789  0.3412  0.2694
  532MOL0     C70131  -2.626   8.270  11.472 -0.2978  0.1480 -0.8387
  532MOL0     C70132  -2.697   8.308  11.605 -0.4427  0.6219 -0.3160
  532MOL0     C70133  -2.830   8.220  11.633  0.0516  0.0748 -0.2125
  532MOL0     C70134  -2.921   8.271  11.751  0.4794  0.3848  0.0811
  532MOL0     C70135  -2.910   8.183  11.874 -0.2560  0.2243 -0.2306
  532MOL0    Cl70136  -2.754   8.190  11.958 -0.2519  0.0019  0.4457
  532MOL0     C70137  -2.079   8.338  11.022 -1.2710 -0.2345  0.2754
  532MOL0     C70138  -1.945   8.337  10.982 -0.0158  0.2131  0.2687
  532MOL0     O70139  -1.763   8.504  10.824 -0.3108  0.3712 -0.1979
  532MOL0     C70140  -1.505   8.546  10.753 -0.4845 -0.2486 -0.0509
  532MOL0     C70141  -1.374   8.575  10.722 -0.6363  0.6449  0.5675
  532MOL0     N70142  -0.599   8.585  10.702 -0.0334  0.3980  0.6059
  532MOL0     N70143  -0.498   8.662  10.693  0.6369 -0.7069  0.5241
  532MOL0     C70144   0.403   9.672  10.753 -0.1748  0.4030  0.6612
  532MOL0     C70145   0.539   9.689  10.710 -0.0441  0.6371 -0.2028
  532MOL0     C70146   0.895   9.708  10.454 -0.7853  0.6931 -0.5719
  532MOL0     C70147   0.992   9.633  10.520 -0.2285 -0.4091  0.5803
  532MOL0     C70148   1.131   9.629  10.484 -0.1412 -0.4766 -0.1104
  532MOL0     C70149   1.167   9.693  10.368 -0.3930  0.2233  0.2631
  532MOL0     O70150   1.291   9.675  10.314  0.5876  0.5437  0.1897
  532MOL0     C70151   1.382   9.589  10.376 -0.5948  0.1433 -0.7018
  532MOL0     C70152   1.517   9.575  10.297  0.2791  0.0616  0.3299
  532MOL0     C70153   1.586   9.712  10.260  0.4202  0.1789 -0.1591
  532MOL0     C70154   1.706   9.666  10.185 -0.6587  0.1214 -0.0908
  532MOL0     C70155   1.779   9.785  10.144 -0.5457 -0.3920 -0.5872
  532MOL0     C70156   1.830   9.893  10.122  0.2281 -0.6036 -0.9247
  532MOL0     C70157   1.064   9.766  10.297  0.1023 -1.0219 -1.0273
  532MOL0     C70158   0.929   9.775  10.337 -0.0639 -0.1944 -0.4542
  532MOL0     H70159   0.549   9.398  10.534  0.0819 -1.3928  1.3124
  532MOL0     H70160   0.333   9.382  10.588  2.1588 -1.4489  0.0629
  532MOL0     H70161   0.159   9.373  10.796  1.9467  2.0482  0.7435
  532MOL0     H70162   0.087   9.414  10.636 -0.4291  1.3609 -0.2204
  532MOL0     H70163  -0.086   9.537  10.762 -0.3352  3.1908  1.7127
  532MOL0     H70164   0.000   9.506  10.918  2.9405 -1.0300  0.1554
  532MOL0     H70165  -0.220   9.369  10.880  0.6003  0.3477  1.4800
  532MOL0     H70166  -0.068   9.287  10.924  1.4331  0.4784 -0.3337
  532MOL0     H70167  -0.189   9.314  10.642  0.9082  1.5646 -0.3039
  532MOL0     H70168  -0.042   9.226  10.679 -1.1425  1.4429 -0.4129
  532MOL0     H70169  -0.326   9.183  10.775 -1.2180 -1.2371 -0.1265
  532MOL0     H70170  -0.200   9.095  10.853  0.8540  1.3320 -0.4255
  532MOL0     H70171  -0.163   8.972  10.624 -0.1670 -0.3574 -1.4042
  532MOL0     H70172  -0.285   9.085  10.558  1.7527 -0.4081  0.5386
  532MOL0     H70173  -0.327   8.857  10.755 -4.3321 -1.1098  1.1205
  532MOL0     H70174  -0.448   8.976  10.730  0.3481  2.0908 -1.4972
  532MOL0     H70175  -0.340   8.772  10.527 -2.5463 -3.6414 -1.4898
  532MOL0     H70176  -0.436   8.919  10.479 -1.1285 -0.8983  0.5371
  532MOL0     H70177  -0.706   8.812  10.488 -1.3382  0.7523  1.8143
  532MOL0     H70178  -0.845   8.489  10.651  0.1380 -0.8282 -0.8405
  532MOL0     H70179  -0.830   8.526  10.478 -0.7128 -0.4438 -0.1742
  532MOL0     H70180  -1.041   8.617  10.549 -0.0617 -2.3111  1.0133
  532MOL0     H70181  -0.931   8.746  10.506 -0.2199 -0.8730  0.1654
  532MOL0     H70182  -0.874   8.762  10.759 -0.0286 -1.5270  3.4285
  532MOL0     H70183  -1.043   8.811  10.731 -2.6865 -2.1807  1.2370
  532MOL0     H70184  -1.075   8.654  10.911  0.7661 -1.3508  0.4189
  532MOL0     H70185  -0.957   8.549  10.846  0.9301  1.0166  0.9388
  532MOL0     H70186  -1.235   8.421  10.996 -2.8821  0.2906  3.1222
  532MOL0     H70187  -1.454   8.448  11.069 -1.8082  2.4517  0.6430
  532MOL0     H70188  -1.779   8.465  11.245 -0.3510  0.7237 -0.2238
  532MOL0     H70189  -2.017   8.458  11.339 -0.7874  0.3216 -0.0558
  532MOL0     H70190  -2.279   8.474  11.381 -1.2530  0.4911  0.8137
  532MOL0     H70191  -2.217   8.306  11.388 -1.8214 -0.2427  0.3096
  532MOL0     H70192  -2.404   8.217  11.294  2.2526 -0.4288  0.7494
  532MOL0     H70193  -2.470   8.386  11.245 -0.4989 -0.7134  0.0107
  532MOL0     H70194  -2.489   8.436  11.493  0.0777  0.3389  0.3672
  532MOL0     H70195  -2.424   8.278  11.530 -0.5897  0.5524  0.6016
  532MOL0     H70196  -2.702   8.294  11.397 -1.5355  0.7184  0.5455
  532MOL0     H70197  -2.620   8.161  11.467  0.9780  0.2541 -2.0331
  532MOL0     H70198  -2.709   8.416  11.604 -2.0913  0.5230  1.4935
  532MOL0     H70199  -2.634   8.291  11.693  0.1304  2.1342 -0.4100
  532MOL0     H70200  -2.804   8.116  11.653  1.6911  0.3689 -0.6786
  532MOL0     H70201  -2.886   8.231  11.540  0.4387  2.5925 -0.2088
  532MOL0     H70202  -2.895   8.373  11.780  0.3672  1.2572 -2.6031
  532MOL0     H70203  -3.025   8.268  11.716  0.9510 -0.1405 -1.3718
  532MOL0     H70204  -2.932   8.082  11.839  0.1952  0.9181 -2.7379
  532MOL0     H70205  -2.989   8.213  11.944  1.6548  0.7421  1.8008
  532MOL0     H70206  -2.159   8.310  10.955  0.7013 -0.0244 -2.3176
  532MOL0     H70207  -1.919   8.295  10.886 -0.9565 -2.0944  0.9754
  532MOL0     H70208  -1.572   8.567  10.671  4.6740 -1.3020 -5.1566
  532MOL0     H70209  -1.349   8.618  10.626  0.2558 -3.0367 -0.9978
  532MOL0     H70210   0.350   9.749  10.808 -0.5670  1.8271 -1.5837
  532MOL0     H70211   0.589   9.778  10.745  1.7148  0.3191 -1.7375
  532MOL0     H70212   0.972   9.588  10.617 -1.6967  2.2931  1.6478
  532MOL0     H70213   1.204   9.567  10.535 -1.0518 -1.6718 -0.2347
  532MOL0     H70214   1.339   9.492  10.400 -4.1903  2.0337  1.3322
  532MOL0     H70215   1.401   9.640  10.471 -1.6474  1.4547 -1.1661
  532MOL0     H70216   1.588   9.523  10.362  0.7632  2.2123  1.6090
  532MOL0     H70217   1.503   9.517  10.206 -1.2852  0.0930  0.5083
  532MOL0     H70218   1.621   9.763  10.351  1.1320 -0.2558 -0.1813
  532MOL0     H70219   1.523   9.776  10.198  4.0257  2.0511 -2.2375
  532MOL0     H70220   1.771   9.608  10.251  0.7127 -0.2447 -1.6821
  532MOL0     H70221   1.683   9.609  10.094 -0.7819  0.3147 -0.1810
  532MOL0     H70222   1.862   9.994  10.106 -0.7223 -0.0779  0.3268
  532MOL0     H70223   1.094   9.808  10.202 -1.7060 -1.7345 -1.9461
  532MOL0     H70224   0.848   9.818  10.279  1.7093 -1.5266 -4.2973
  533MOL0     O70225   0.456   7.419  10.950  1.3523  0.2145 -0.0956
  533MOL0     C70226   0.533   7.339  10.900 -0.0913 -0.3459  0.1701
  533MOL0     O70227   0.548   7.207  10.928 -0.4935 -0.0403  0.6664
  533MOL0     C70228   0.457   7.148  11.011  0.7935 -0.9628  0.6430
  533MOL0     C70229   0.427   7.196  11.138 -0.0117 -0.0112 -0.2823
  533MOL0     C70230   0.325   7.139  11.205 -0.3876 -0.2360 -0.6073
  533MOL0     C70231   0.256   7.024  11.156  0.4483  0.0649 -0.4141
  533MOL0     O70232   0.148   6.989  11.232  0.2836 -0.0623 -0.8280
  533MOL0     C70233   0.080   6.869  11.196  0.3353  0.4303  0.1540
  533MOL0     C70234  -0.034   6.827  11.297 -0.0116 -0.2384 -0.1979
  533MOL0     C70235  -0.164   6.887  11.254  0.3812 -0.7302  1.1647
  533MOL0     C70236  -0.277   6.843  11.353 -0.6048  0.7706 -0.1373
  533MOL0     C70237  -0.406   6.907  11.331 -0.9936  0.8082  0.8640
  533MOL0     C70238  -0.480   6.867  11.201  0.1405  0.7989  0.4971
  533MOL0     C70239  -0.592   6.956  11.162  0.4448  0.1895 -0.1431
  533MOL0     C70240  -0.714   6.941  11.270 -0.3378 -0.0231  0.5874
  533MOL0     N70241  -0.793   6.816  11.270  0.4650  0.4064  0.0225
  533MOL0     C70242  -0.866   6.764  11.167 -0.5001  0.5595 -0.3137
  533MOL0     C70243  -0.914   6.652  11.225 -1.0736  0.1691 -0.3737
  533MOL0     C70244  -1.020   6.568  11.158 -0.0855 -0.4678  0.3668
  533MOL0     C70245  -1.123   6.521  11.267 -0.5478 -0.0409 -0.1326
  533MOL0     C70246  -1.209   6.628  11.320 -0.0176  0.0730 -0.1847
  533MOL0     C70247  -1.271   6.725  11.216  0.0162  0.5543 -0.3439
  533MOL0     O70248  -1.366   6.660  11.129 -0.5343  0.1210 -0.0794
  533MOL0     C70249  -1.476   6.611  11.195 -0.0536 -0.8956  0.0652
  533MOL0     C70250  -1.496   6.472  11.203 -0.4362  0.4812 -0.1939
  533MOL0     C70251  -1.604   6.411  11.261  0.4134  0.5461 -0.0459
  533MOL0     C70252  -1.693   6.497  11.320  0.6060 -0.5004  0.4126
  533MOL0     C70253  -1.810   6.436  11.394 -0.5805 -0.3929  0.4091
  533MOL0     O70254  -1.874   6.514  11.481 -0.5225  0.0987  0.8724
  533MOL0     C70255  -1.990   6.467  11.523  0.8078 -0.3877 -0.2571
  533MOL0     C70256  -2.001   6.362  11.615  0.5818  0.1985  0.4924
  533MOL0     C70257  -2.128   6.331  11.674 -0.1678 -0.2242 -0.0763
  533MOL0     C70258  -2.239   6.415  11.637  0.6017  0.0998  0.2773
  533MOL0     O70259  -2.358   6.364  11.689  0.2064 -0.3188  0.0010
  533MOL0     C70260  -2.481   6.426  11.659 -0.0051 -0.3254 -0.4729
  533MOL0     C70261  -2.583   6.336  11.723 -0.1127  0.2935 -0.2294
  533MOL0     C70262  -2.717   6.407  11.699  0.2773 -0.9246  0.3763
  533MOL0     C70263  -2.806   6.324  11.792 -0.1265 -0.1729  0.1429
  533MOL0     C70264  -2.950   6.381  11.772  0.1215  0.3500 -0.3766
  533MOL0     C70265  -3.047   6.318  11.874  0.6203 -0.4629 -0.2299
  533MOL0     C70266  -3.191   6.365  11.870 -0.7277 -0.4237  0.1588
  533MOL0     C70267  -3.271   6.321  11.754  0.0052 -0.4209 -0.0095
  533MOL0    Cl70268  -3.437   6.376  11.762  0.3145 -0.2065 -0.1417
  533MOL0     C70269  -2.226   6.520  11.548 -0.5028  0.2537 -0.6758
  533MOL0     C70270  -2.097   6.545  11.489 -0.0605  0.3357  0.1731
  533MOL0     O70271  -1.845   6.318  11.366  0.1446 -0.2683 -0.2265
  533MOL0     C70272  -1.673   6.638  11.325  0.3032 -0.4070 -0.1424
  533MOL0     C70273  -1.566   6.693  11.257  0.2476 -1.3640 -0.1718
  533MOL0     N70274  -0.853   6.628  11.347  0.1889 -0.5969 -0.2464
  533MOL0     N70275  -0.779   6.732  11.374 -0.7148 -0.0647  0.1715
  533MOL0     C70276   0.290   6.976  11.032 -0.2757 -0.5446  0.6210
  533MOL0     C70277   0.396   7.034  10.961 -0.2085  0.4649 -0.4318
  533MOL0     C70278   0.620   7.389  10.793  0.4478  0.2232 -0.3469
  533MOL0     C70279   0.654   7.521  10.778  0.2487  0.1858 -0.5488
  533MOL0     C70280   0.746   7.568  10.693  0.0465 -0.2754  0.4252
  533MOL0     C70281   0.800   7.484  10.599  0.5480 -0.4011 -0.0480
  533MOL0     O70282   0.898   7.523  10.510 -0.1979 -0.3975  0.2185
  533MOL0     C70283   0.994   7.430  10.440 -1.2554  0.4722  0.2021
  533MOL0     C70284   1.091   7.358  10.529  0.3467 -0.3398 -0.8764
  533MOL0     C70285   1.161   7.450  10.626 -0.6069  0.4561 -0.0057
  533MOL0     C70286   1.238   7.374  10.731  0.7696 -0.5172 -0.2148
  533MOL0     C70287   1.341   7.289  10.670  0.3279 -0.5410 -0.6283
  533MOL0     C70288   1.419   7.237  10.595 -0.5340 -0.3610 -0.4582
  533MOL0     C70289   0.765   7.346  10.602  0.1571  0.8642 -0.8719
  533MOL0     C70290   0.677   7.299  10.706 -0.1650  0.5326  0.9168
  533MOL0     H70291   0.489   7.278  11.174 -0.2042 -0.6515  1.6134
  533MOL0     H70292   0.310   7.180  11.304 -1.2977 -4.2018  1.1181
  533MOL0     H70293   0.152   6.786  11.191 -0.8229 -0.9435  3.3984
  533MOL0     H70294   0.033   6.884  11.099 -0.8834 -0.3478  0.5946
  533MOL0     H70295  -0.014   6.868  11.396 -3.5836  0.1860  0.4782
  533MOL0     H70296  -0.056   6.720  11.291  3.9485 -1.1597 -3.0122
  533MOL0     H70297  -0.188   6.846  11.156 -1.6181 -0.1385  1.3762
  533MOL0     H70298  -0.167   6.997  11.252  1.6381 -0.6857  0.6162
  533MOL0     H70299  -0.296   6.737  11.338  0.3652  0.8595 -2.3436
  533MOL0     H70300  -0.255   6.878  11.454 -0.0167 -0.7295  0.2690
  533MOL0     H70301  -0.392   7.015  11.324 -0.9804  0.7199 -1.1340
  533MOL0     H70302  -0.473   6.885  11.415  0.7501 -0.1826  2.0650
  533MOL0     H70303  -0.515   6.765  11.220  4.8713 -1.1832 -0.1648
  533MOL0     H70304  -0.404   6.865  11.122 -0.0303  1.8942  0.2975
  533MOL0     H70305  -0.555   7.059  11.154  1.4552 -0.1762 -0.2411
  533MOL0     H70306  -0.637   6.923  11.068 -0.2299 -2.1376  0.9238
  533MOL0     H70307  -0.779   7.026  11.248 -1.5191 -1.1918 -0.6443
  533MOL0     H70308  -0.666   6.963  11.365  1.6457  1.2108 -0.6196
  533MOL0     H70309  -0.898   6.803  11.071 -2.9786  1.7994  0.9088
  533MOL0     H70310  -0.971   6.480  11.114  0.2923  0.0563 -0.2818
  533MOL0     H70311  -1.066   6.621  11.074 -2.5633 -0.6858  1.4951
  533MOL0     H70312  -1.076   6.463  11.347 -2.1170  1.3162  1.8772
  533MOL0     H70313  -1.188   6.453  11.210  0.5181  0.1101 -1.5780
  533MOL0     H70314  -1.292   6.582  11.375  0.3006  1.9796  2.0184
  533MOL0     H70315  -1.139   6.681  11.385  1.4447 -4.3430  2.2820
  533MOL0     H70316  -1.186   6.759  11.158  1.5213  0.9109  1.9309
  533MOL0     H70317  -1.321   6.802  11.277 -1.4421 -0.6896  0.1268
  533MOL0     H70318  -1.417   6.414  11.158  0.9805  1.7449  0.5909
  533MOL0     H70319  -1.608   6.303  11.270  2.8086 -0.1003 -4.1212
  533MOL0     H70320  -1.919   6.296  11.642  2.3936  1.3452 -1.8369
  533MOL0     H70321  -2.135   6.244  11.737  5.2371 -1.3544 -0.5232
  533MOL0     H70322  -2.501   6.431  11.552 -2.2233 -2.2446 -0.2323
  533MOL0     H70323  -2.483   6.528  11.700 -0.2999  0.0979 -1.5098
  533MOL0     H70324  -2.547   6.335  11.826 -0.4452 -0.8434 -0.1124
  533MOL0     H70325  -2.583   6.234  11.685  0.4788 -1.9565  4.9683
  533MOL0     H70326  -2.740   6.409  11.592 -2.6940  1.2891  0.9024
  533MOL0     H70327  -2.721   6.511  11.732  1.0017 -0.9940  0.6931
  533MOL0     H70328  -2.799   6.219  11.763 -0.5079 -0.9270  2.5707
  533MOL0     H70329  -2.767   6.325  11.894  4.3623  1.9089 -1.3201
  533MOL0     H70330  -2.995   6.356  11.676 -1.3318  0.0581  0.3663
  533MOL0     H70331  -2.946   6.489  11.791 -1.5284  0.2667  0.6076
  533MOL0     H70332  -3.004   6.327  11.974  2.8008  0.6129 -1.2041
  533MOL0     H70333  -3.062   6.212  11.850 -2.2681  0.3006 -2.3930
  533MOL0     H70334  -3.240   6.320  11.957 -2.3722 -0.3779 -0.7031
  533MOL0     H70335  -3.187   6.474  11.855  0.8561 -0.4870 -0.0333
  533MOL0     H70336  -3.270   6.212  11.748  1.3423 -0.7346  3.6618
  533MOL0     H70337  -3.229   6.360  11.660 -1.7088 -0.6143 -0.8944
  533MOL0     H70338  -2.316   6.574  11.520 -1.4572 -2.0447 -2.3443
  533MOL0     H70339  -2.083   6.627  11.420 -2.3011 -1.3401 -2.4998
  533MOL0     H70340  -1.741   6.702  11.381 -1.9710 -2.4041 -0.4421
  533MOL0     H70341  -1.548   6.800  11.262  1.2005 -1.4060 -2.0234
  533MOL0     H70342   0.250   6.888  10.981  1.7611 -1.4608  0.5013
  533MOL0     H70343   0.415   7.010  10.857 -2.7774 -0.1506 -0.8071
  533MOL0     H70344   0.599   7.580  10.850 -0.0202 -0.1885 -0.4423
  533MOL0     H70345   0.766   7.674  10.696  3.0069 -0.7150 -0.5250
  533MOL0     H70346   1.056   7.496  10.380 -1.2657  0.7419  0.4867
  533MOL0     H70347   0.936   7.357  10.383 -0.5232  0.1493 -0.1508
  533MOL0     H70348   1.043   7.278  10.586 -0.1806  1.6743  1.6976
  533MOL0     H70349   1.164   7.315  10.459  0.5238  1.0910 -1.6065
  533MOL0     H70350   1.090   7.512  10.682 -0.8775  0.6867 -0.5931
  533MOL0     H70351   1.221   7.518  10.565 -1.9675  1.2602 -0.5035
  533MOL0     H70352   1.269   7.444  10.809 -2.5027  1.7612 -0.7775
  533MOL0     H70353   1.163   7.311  10.780 -1.0948  2.6218  1.2557
  533MOL0     H70354   1.492   7.196  10.528 -0.6809  0.1879 -0.9638
  533MOL0     H70355   0.792   7.269  10.530 -0.5433  1.1025 -1.3975
  533MOL0     H70356   0.645   7.196  10.721  1.7422 -0.0394  1.3436
  534MOL0     O70357   6.967  10.594  10.353  0.3091  0.0846  0.0912
  534MOL0     C70358   6.967  10.475  10.397  0.4703 -0.4235 -0.0736
  534MOL0     O70359   6.865  10.384  10.377 -0.3419  0.7870 -0.1210
  534MOL0     C70360   6.738  10.424  10.347  0.0778 -0.0018 -0.3089
  534MOL0     C70361   6.682  10.551  10.372  0.0674  0.6400  0.0920
  534MOL0     C70362   6.550  10.582  10.340  0.2428  0.1772  0.6632
  534MOL0     C70363   6.471  10.487  10.282  0.1722  0.2667 -0.6421
  534MOL0     O70364   6.343  10.525  10.270  0.3301  0.0048  0.3092
  534MOL0     C70365   6.259  10.435  10.193  0.0903  0.4235 -0.1705
  534MOL0     C70366   6.130  10.506  10.193 -0.5341 -0.5035 -0.1560
  534MOL0     C70367   6.022  10.423  10.128  0.9222  0.1117  0.6107
  534MOL0     C70368   5.885  10.506  10.119  0.5163  0.3566  0.6022
  534MOL0     C70369   5.804  10.467   9.992 -0.0344 -0.6560 -0.1117
  534MOL0     C70370   5.856  10.557   9.881  0.4506  0.5395  0.2363
  534MOL0     C70371   5.781  10.519   9.753 -0.1876 -0.1241 -0.1101
  534MOL0     C70372   5.841  10.585   9.628  0.1235 -0.2046 -0.2737
  534MOL0     N70373   5.758  10.554   9.514  0.5821 -0.2627  0.2743
  534MOL0     C70374   5.623  10.551   9.512 -0.0288  0.0371  0.0256
  534MOL0     C70375   5.595  10.549   9.383  0.8093  0.1100 -0.0795
  534MOL0     C70376   5.458  10.540   9.327 -0.5233  0.0968  0.1015
  534MOL0     C70377   5.438  10.572   9.178 -0.6099 -0.9323  0.6039
  534MOL0     C70378   5.311  10.498   9.126  0.0713 -1.3850  0.5775
  534MOL0     C70379   5.186  10.574   9.165  0.1511  0.5970 -0.0708
  534MOL0     O70380   5.077  10.491   9.123  0.2392 -0.7152 -0.3532
  534MOL0     C70381   4.951  10.546   9.125 -0.7348 -0.3447 -0.2383
  534MOL0     C70382   4.849  10.464   9.073  0.0129 -0.6212  0.7417
  534MOL0     C70383   4.716  10.486   9.086 -0.2566 -0.1459  0.2449
  534MOL0     C70384   4.677  10.605   9.152 -0.0673  0.3856 -0.4158
  534MOL0     C70385   4.535  10.651   9.132  0.4064  0.7096  0.9055
  534MOL0     O70386   4.447  10.556   9.084 -0.1384 -0.6276 -0.3465
  534MOL0     C70387   4.313  10.577   9.115  0.0219  0.2376  0.0483
  534MOL0     C70388   4.233  10.602   9.004  0.4218  0.2026 -0.0994
  534MOL0     C70389   4.092  10.626   9.023 -0.3299 -0.5079  0.1345
  534MOL0     C70390   4.045  10.639   9.152  0.2126 -0.3014  0.2726
  534MOL0     O70391   3.914  10.675   9.163  0.2628 -0.3073  0.0804
  534MOL0     C70392   3.857  10.679   9.294  0.2987  0.4985 -0.7205
  534MOL0     C70393   3.706  10.710   9.290 -0.1865  0.9130  0.1300
  534MOL0     C70394   3.641  10.570   9.280 -0.4865  0.1200  0.1850
  534MOL0     C70395   3.500  10.582   9.235 -0.8022  0.5229  0.3848
  534MOL0     C70396   3.468  10.668   9.110 -0.0624 -0.1081 -0.9623
  534MOL0     C70397   3.327  10.660   9.059  0.4862  0.0091 -0.4644
  534MOL0     C70398   3.295  10.749   8.938 -0.3122  0.1189 -0.1338
  534MOL0     C70399   3.143  10.726   8.914  0.0255 -0.6714 -0.3507
  534MOL0    Cl70400   3.055  10.876   8.915  0.5718 -0.2165 -0.0311
  534MOL0     C70401   4.128  10.610   9.263  0.0027  0.2718 -0.2223
  534MOL0     C70402   4.261  10.582   9.243 -0.3140 -0.3792  0.6976
  534MOL0     O70403   4.506  10.769   9.155  0.1780 -0.2142 -0.1023
  534MOL0     C70404   4.773  10.689   9.203 -0.4857  0.4177 -0.1173
  534MOL0     C70405   4.911  10.662   9.193  0.4769 -0.2355 -0.3019
  534MOL0     N70406   5.704  10.552   9.307  0.2837  0.2363 -0.6858
  534MOL0     N70407   5.806  10.560   9.382 -1.2756  0.0394  0.1981
  534MOL0     C70408   6.533  10.361  10.256  1.1369 -0.5242 -0.2320
  534MOL0     C70409   6.657  10.325  10.297 -0.3555 -0.2465  0.0361
  534MOL0     C70410   7.096  10.410  10.433  0.5639 -0.0347 -0.1414
  534MOL0     C70411   7.110  10.281  10.487  0.2691 -0.4134 -0.0919
  534MOL0     C70412   7.237  10.232  10.528 -0.5740  0.2699 -0.1382
  534MOL0     C70413   7.350  10.317  10.518  0.2479 -0.0539  0.0156
  534MOL0     O70414   7.482  10.280  10.541 -0.3935  0.2744  0.3498
  534MOL0     C70415   7.518  10.162  10.603  0.3089 -0.6782 -0.0519
  534MOL0     C70416   7.582  10.186  10.745  0.1058  0.0352  0.1230
  534MOL0     C70417   7.733  10.197  10.730 -0.4830 -0.0882 -0.3260
  534MOL0     C70418   7.803  10.216  10.864  0.4483 -0.7305 -1.3786
  534MOL0     C70419   7.942  10.250  10.847  0.7518  0.3135 -0.5521
  534MOL0     C70420   8.062  10.281  10.830 -0.0752 -0.7689  0.9073
  534MOL0     C70421   7.336  10.448  10.466  0.1462  0.0526  0.5223
  534MOL0     C70422   7.209  10.492  10.422  0.1139 -0.7162  0.5236
  534MOL0     H70423   6.743  10.630  10.413  0.5461 -0.0140  0.6713
  534MOL0     H70424   6.519  10.684  10.362 -0.2315 -0.0869  1.2520
  534MOL0     H70425   6.243  10.337  10.239  1.8252  0.3480  0.3369
  534MOL0     H70426   6.280  10.431  10.086 -2.1687  2.1366 -0.7523
  534MOL0     H70427   6.148  10.600  10.139  2.0527  0.8477  2.7446
  534MOL0     H70428   6.100  10.526  10.296 -1.9827  0.3040 -0.7113
  534MOL0     H70429   5.991  10.330  10.178 -1.7246 -0.7486 -2.2838
  534MOL0     H70430   6.047  10.398  10.024  1.2470  0.1615  0.6771
  534MOL0     H70431   5.825  10.471  10.204 -0.2405 -0.1317 -0.1089
  534MOL0     H70432   5.905  10.613  10.125 -0.6698  0.7221 -1.2382
  534MOL0     H70433   5.697  10.490   9.997  0.2937  1.8116 -2.4327
  534MOL0     H70434   5.823  10.363   9.965  2.9330 -0.3896  0.6029
  534MOL0     H70435   5.964  10.543   9.869  0.3851 -2.3287  2.0699
  534MOL0     H70436   5.831  10.663   9.894 -1.9405  0.1214 -0.5587
  534MOL0     H70437   5.771  10.410   9.742  0.7213 -0.2776  0.4505
  534MOL0     H70438   5.677  10.551   9.767 -0.1047 -0.0863  0.4395
  534MOL0     H70439   5.942  10.551   9.605  0.6643  0.1905  1.3985
  534MOL0     H70440   5.846  10.693   9.646  1.8322 -0.0346 -1.5332
  534MOL0     H70441   5.550  10.563   9.592 -0.6905  1.3412 -0.7294
  534MOL0     H70442   5.398  10.607   9.389 -2.6088  0.9853 -2.7002
  534MOL0     H70443   5.431  10.435   9.342 -1.3766 -0.2750 -3.3193
  534MOL0     H70444   5.526  10.532   9.128  0.3229  1.8600 -0.1313
  534MOL0     H70445   5.436  10.679   9.159  2.6962 -0.5065  2.0475
  534MOL0     H70446   5.319  10.495   9.017  2.6544  2.3495  0.4912
  534MOL0     H70447   5.303  10.400   9.174 -2.5106 -0.4140  2.3747
  534MOL0     H70448   5.185  10.678   9.130  0.7524  1.2787  1.7988
  534MOL0     H70449   5.177  10.569   9.274 -0.8676 -0.8714 -0.1988
  534MOL0     H70450   4.889  10.387   9.008  1.3363  1.1455 -0.6282
  534MOL0     H70451   4.647  10.413   9.045 -1.5427  1.2986 -0.2796
  534MOL0     H70452   4.281  10.595   8.907  1.0218  0.8447  0.1394
  534MOL0     H70453   4.028  10.659   8.942 -2.2350 -0.0914  1.7428
  534MOL0     H70454   3.890  10.764   9.355  0.0752  0.1597 -0.1179
  534MOL0     H70455   3.873  10.583   9.344 -3.1072  0.6565  1.0036
  534MOL0     H70456   3.677  10.767   9.202 -0.6088  1.6801  0.7565
  534MOL0     H70457   3.671  10.769   9.375  1.1205  1.4604  0.3056
  534MOL0     H70458   3.643  10.522   9.378  1.0173  2.0131  1.1445
  534MOL0     H70459   3.695  10.511   9.204  1.7452  3.4144 -1.0071
  534MOL0     H70460   3.468  10.482   9.204  1.4581  0.8391 -3.8243
  534MOL0     H70461   3.449  10.625   9.322  0.6251  0.7470  1.1408
  534MOL0     H70462   3.539  10.637   9.033  1.7131  0.1850  0.4968
  534MOL0     H70463   3.474  10.776   9.119  0.5933  0.0137 -2.5602
  534MOL0     H70464   3.251  10.692   9.130 -1.1175 -2.8720 -0.7390
  534MOL0     H70465   3.294  10.556   9.045 -1.8055  0.3343  1.8018
  534MOL0     H70466   3.304  10.856   8.953 -1.0577  0.0692  0.7317
  534MOL0     H70467   3.350  10.715   8.849 -0.8221 -0.3168 -0.2877
  534MOL0     H70468   3.090  10.657   8.982  0.6126  1.0768  1.9999
  534MOL0     H70469   3.123  10.696   8.811  1.1782  1.3435 -1.1910
  534MOL0     H70470   4.089  10.617   9.364 -2.1944 -2.0480 -0.8277
  534MOL0     H70471   4.321  10.572   9.333 -1.6893  0.2473  1.7383
  534MOL0     H70472   4.731  10.776   9.252 -0.7858 -0.3790  1.0682
  534MOL0     H70473   4.984  10.724   9.244 -1.0474 -0.6376  2.5801
  534MOL0     H70474   6.478  10.290  10.195 -0.2520  0.4956 -0.2120
  534MOL0     H70475   6.700  10.227  10.275  1.7234  0.6322 -0.0668
  534MOL0     H70476   7.028  10.212  10.503  1.5434 -2.5641 -2.2363
  534MOL0     H70477   7.242  10.129  10.561 -1.2380  0.2822  0.0053
  534MOL0     H70478   7.589  10.107  10.541  0.1368 -0.4993 -0.4169
  534MOL0     H70479   7.437  10.093  10.626 -0.0069  0.6585  3.5329
  534MOL0     H70480   7.537  10.277  10.785 -2.6403 -1.3545  0.5060
  534MOL0     H70481   7.552  10.095  10.799 -0.7103  0.1145 -0.1830
  534MOL0     H70482   7.753  10.280  10.662  0.2433  0.3962  0.4570
  534MOL0     H70483   7.771  10.101  10.693  0.6703 -0.4932  1.7121
  534MOL0     H70484   7.759  10.292  10.930 -0.6315 -2.9756  0.6070
  534MOL0     H70485   7.795  10.122  10.919  1.6849 -0.7476 -1.1943
  534MOL0     H70486   8.167  10.288  10.812 -0.3208 -0.3995 -0.4481
  534MOL0     H70487   7.420  10.515  10.454 -0.3463  0.3316 -1.6492
  534MOL0     H70488   7.202  10.595  10.388 -2.7732 -1.1863 -0.5483
  535MOL0     O70489   6.077   0.911   4.243 -0.2475  0.3178 -0.3888
  535MOL0     C70490   6.117   1.028   4.256 -0.5621  0.6390 -0.6427
  535MOL0     O70491   6.048   1.126   4.318 -0.0892 -0.3119  0.1530
  535MOL0     C70492   5.921   1.099   4.370 -0.1375  0.3677 -1.0326
  535MOL0     C70493   5.834   1.207   4.392 -0.0884  0.2974  0.3642
  535MOL0     C70494   5.700   1.182   4.433 -0.5884  0.6898  0.6304
  535MOL0     C70495   5.660   1.058   4.482 -1.0975  0.6167 -0.5027
  535MOL0     O70496   5.539   1.022   4.528  0.7891 -0.0861  0.0164
  535MOL0     C70497   5.453   1.120   4.585  0.5328 -0.1163 -0.8249
  535MOL0     C70498   5.320   1.045   4.638 -0.2288  0.6220  0.1915
  535MOL0     C70499   5.244   0.963   4.530  0.3394 -0.2481 -0.1000
  535MOL0     C70500   5.126   0.896   4.592 -0.4023 -0.6312  0.4143
  535MOL0     C70501   5.026   0.841   4.494  0.2699 -0.6154 -1.2350
  535MOL0     C70502   5.084   0.740   4.395 -0.6928  0.0097  0.0825
  535MOL0     C70503   4.979   0.659   4.320  0.4087 -0.0317  0.1028
  535MOL0     C70504   5.040   0.533   4.261  0.6597 -0.1606 -0.1926
  535MOL0     N70505   5.165   0.570   4.185  0.7061  0.2212  0.8477
  535MOL0     C70506   5.294   0.557   4.230 -0.1395  0.6997 -0.0615
  535MOL0     C70507   5.367   0.603   4.126 -0.8458  1.2029  0.6518
  535MOL0     C70508   5.513   0.600   4.112  0.5019 -0.0774  1.0685
  535MOL0     C70509   5.588   0.737   4.108  0.9769  0.6023  0.7099
  535MOL0     C70510   5.727   0.714   4.074  0.1460 -0.2790  0.9744
  535MOL0     C70511   5.819   0.838   4.063  0.2928  0.1554  0.1782
  535MOL0     O70512   5.775   0.923   3.953 -0.3834 -0.1710 -0.0578
  535MOL0     C70513   5.867   1.025   3.950  0.2184  0.1879 -0.3961
  535MOL0     C70514   5.852   1.136   4.029  0.0275 -0.0637 -1.0987
  535MOL0     C70515   5.940   1.246   4.028 -0.8576 -0.5356 -0.3356
  535MOL0     C70516   6.054   1.237   3.954  0.3681 -0.2740  0.2959
  535MOL0     C70517   6.151   1.345   3.964  0.4229 -1.0118 -0.7731
  535MOL0     O70518   6.248   1.341   3.870 -0.2846 -0.1752 -0.0170
  535MOL0     C70519   6.334   1.441   3.845  0.0317  0.9581  0.2732
  535MOL0     C70520   6.326   1.578   3.870 -0.6780  0.3310 -0.4566
  535MOL0     C70521   6.424   1.667   3.830 -0.1191  0.5338  0.1723
  535MOL0     C70522   6.548   1.626   3.769 -0.1859  0.5365 -0.4849
  535MOL0     O70523   6.629   1.728   3.747 -0.6271 -1.0152  0.2529
  535MOL0     C70524   6.722   1.704   3.642  0.0514 -1.3881 -0.2746
  535MOL0     C70525   6.813   1.824   3.629  0.4224  0.0999 -0.0496
  535MOL0     C70526   6.920   1.826   3.739  0.3013 -0.0719  0.0570
  535MOL0     C70527   7.031   1.929   3.724  0.4256  0.4687 -0.8413
  535MOL0     C70528   7.150   1.861   3.663 -0.3282 -0.7426  0.6670
  535MOL0     C70529   7.265   1.966   3.640  0.2614 -0.5290 -0.2696
  535MOL0     C70530   7.389   1.887   3.613  0.1032 -0.3357  0.1630
  535MOL0     C70531   7.434   1.887   3.471  1.3381  0.4061  0.7301
  535MOL0    Cl70532   7.586   1.776   3.467 -0.2737 -0.4305 -0.2599
  535MOL0     C70533   6.561   1.490   3.747 -0.1423  0.8613  0.7367
  535MOL0     C70534   6.450   1.396   3.779  0.8878 -0.6674 -0.5446
  535MOL0     O70535   6.134   1.431   4.052 -0.2974 -0.2184 -0.0141
  535MOL0     C70536   6.066   1.130   3.867  0.2065  0.4011 -0.1097
  535MOL0     C70537   5.973   1.026   3.867 -0.2458 -0.5350  0.2632
  535MOL0     N70538   5.285   0.651   4.021 -0.3221 -0.0994 -0.2890
  535MOL0     N70539   5.170   0.634   4.064  0.0916  0.1049 -0.3746
  535MOL0     C70540   5.757   0.957   4.480 -0.4241 -0.5737  0.2861
  535MOL0     C70541   5.880   0.976   4.421  0.1491  0.6348 -1.0832
  535MOL0     C70542   6.244   1.063   4.199 -0.7655 -0.6534 -0.8063
  535MOL0     C70543   6.319   1.168   4.254  0.1558 -0.3282 -0.6883
  535MOL0     C70544   6.445   1.201   4.210  0.0472 -0.0942  0.1257
  535MOL0     C70545   6.495   1.149   4.091  0.4725  0.9259  0.7794
  535MOL0     O70546   6.615   1.183   4.025  0.4250 -0.6796 -0.3597
  535MOL0     C70547   6.668   1.312   4.059  0.7987  1.5264 -0.4052
  535MOL0     C70548   6.794   1.330   3.980 -0.3299 -0.1195 -0.3606
  535MOL0     C70549   6.898   1.424   4.047 -0.8571  0.3926  0.2848
  535MOL0     C70550   6.856   1.571   4.009 -0.3081 -0.0867  0.2569
  535MOL0     C70551   6.941   1.666   4.083  0.3374  0.2979 -0.1609
  535MOL0     C70552   7.003   1.756   4.137 -0.0668 -0.4662 -0.1432
  535MOL0     C70553   6.422   1.042   4.030 -0.0915 -0.3050 -0.0087
  535MOL0     C70554   6.299   1.003   4.086 -0.1275  0.4512  0.6980
  535MOL0     H70555   5.873   1.307   4.374  0.2859 -0.4625 -4.2983
  535MOL0     H70556   5.641   1.273   4.440 -0.0472  0.9481  2.0277
  535MOL0     H70557   5.420   1.198   4.515  0.7232  3.9430  3.0984
  535MOL0     H70558   5.510   1.167   4.666 -2.1342  2.1258 -0.0650
  535MOL0     H70559   5.252   1.114   4.687  0.4743 -0.4015  2.7892
  535MOL0     H70560   5.357   0.970   4.709 -2.0390 -1.0442 -0.5344
  535MOL0     H70561   5.308   0.892   4.476  1.2958  0.7073 -0.2443
  535MOL0     H70562   5.209   1.022   4.446 -1.7850 -0.2182  0.7294
  535MOL0     H70563   5.149   0.804   4.647  0.3192 -1.6247 -1.4645
  535MOL0     H70564   5.073   0.967   4.657 -0.1098 -0.7118  0.7421
  535MOL0     H70565   4.977   0.929   4.451  1.3960 -0.1337 -1.5886
  535MOL0     H70566   4.946   0.795   4.552  0.3736  1.5900  0.8422
  535MOL0     H70567   5.153   0.671   4.444  0.2941  1.7002  1.1762
  535MOL0     H70568   5.130   0.794   4.311 -4.8948  1.4497 -1.5819
  535MOL0     H70569   4.900   0.633   4.392  0.1800 -1.7709 -0.7160
  535MOL0     H70570   4.923   0.728   4.256  0.2308  0.0918  0.3865
  535MOL0     H70571   4.967   0.484   4.196 -0.4923 -0.4861  1.2918
  535MOL0     H70572   5.076   0.471   4.344 -1.3528  0.8715  1.5454
  535MOL0     H70573   5.331   0.518   4.324 -0.8215 -1.9438 -0.7998
  535MOL0     H70574   5.528   0.558   4.012 -0.0919  1.7830  0.1359
  535MOL0     H70575   5.557   0.537   4.190 -0.0834 -1.5391  0.2520
  535MOL0     H70576   5.572   0.777   4.208 -0.4351  1.0680  0.3202
  535MOL0     H70577   5.536   0.808   4.043 -0.9446 -0.9173  0.4951
  535MOL0     H70578   5.772   0.643   4.144 -0.4592  1.4554  3.2389
  535MOL0     H70579   5.729   0.663   3.977 -0.2071 -0.0120  0.8224
  535MOL0     H70580   5.927   0.820   4.067  0.4910  1.3402  0.4276
  535MOL0     H70581   5.796   0.897   4.152 -0.9077 -0.0720  0.0382
  535MOL0     H70582   5.761   1.135   4.088  0.2740 -4.4289 -0.5090
  535MOL0     H70583   5.917   1.324   4.100  1.1118  0.6516 -0.9126
  535MOL0     H70584   6.240   1.632   3.909  0.7417  2.0971  0.3739
  535MOL0     H70585   6.408   1.772   3.851 -0.8084  0.7415 -1.2704
  535MOL0     H70586   6.665   1.683   3.551 -0.2199 -1.6126 -0.0555
  535MOL0     H70587   6.785   1.618   3.662  2.2041 -0.3465 -2.2054
  535MOL0     H70588   6.760   1.919   3.618  0.3653  0.0190 -0.4924
  535MOL0     H70589   6.869   1.813   3.535 -0.2473  2.2136 -0.7432
  535MOL0     H70590   6.961   1.727   3.762 -0.5286 -0.5073 -0.3060
  535MOL0     H70591   6.872   1.849   3.835 -0.0918 -0.8736  0.0604
  535MOL0     H70592   6.985   2.008   3.664 -0.1541 -0.5365 -1.7489
  535MOL0     H70593   7.047   1.983   3.817 -0.0014 -3.1075  1.5240
  535MOL0     H70594   7.112   1.808   3.575 -3.8085 -0.0587  1.6066
  535MOL0     H70595   7.180   1.788   3.739  0.6513 -3.4981 -2.1146
  535MOL0     H70596   7.273   2.023   3.733  0.1680  1.1377 -1.2427
  535MOL0     H70597   7.240   2.035   3.559  3.7264 -0.1045 -1.1275
  535MOL0     H70598   7.473   1.933   3.667  1.5430 -1.6739 -0.8762
  535MOL0     H70599   7.381   1.786   3.654  2.4662 -0.9229 -0.6677
  535MOL0     H70600   7.461   1.989   3.442 -0.9935  1.3713  1.6437
  535MOL0     H70601   7.350   1.846   3.414  0.7312 -1.1906  2.6561
  535MOL0     H70602   6.643   1.443   3.694 -2.8840 -0.9259 -2.2828
  535MOL0     H70603   6.447   1.295   3.738  5.8327 -1.2430 -0.0802
  535MOL0     H70604   6.139   1.125   3.787  0.2428 -2.2871 -0.0063
  535MOL0     H70605   5.986   0.941   3.802  3.9523  0.5003 -0.5730
  535MOL0     H70606   5.721   0.860   4.511 -1.3136  0.3782  2.4734
  535MOL0     H70607   5.942   0.888   4.430  1.6026  1.4043 -2.9791
  535MOL0     H70608   6.272   1.228   4.331  0.2439 -1.0956 -0.0269
  535MOL0     H70609   6.488   1.287   4.260  0.3846 -0.6763  0.8467
  535MOL0     H70610   6.702   1.294   4.162  2.8231  0.3215 -1.2154
  535MOL0     H70611   6.591   1.389   4.054 -0.9426 -0.0050  1.2738
  535MOL0     H70612   6.842   1.232   3.971  1.0761  0.2000  2.4704
  535MOL0     H70613   6.762   1.368   3.883 -0.2094 -1.6383 -1.0268
  535MOL0     H70614   6.991   1.396   3.997  0.0703 -0.1470  2.2163
  535MOL0     H70615   6.902   1.415   4.156 -0.5350  0.9412  0.3192
  535MOL0     H70616   6.875   1.578   3.902  3.5773  2.6937  0.9215
  535MOL0     H70617   6.751   1.580   4.038  0.0671  0.5008  1.5396
  535MOL0     H70618   7.059   1.832   4.185 -0.5398  0.1446 -0.5346
  535MOL0     H70619   6.452   1.003   3.933 -1.6605  1.0252 -1.0865
  535MOL0     H70620   6.247   0.921   4.037  0.1099  1.2378 -0.9151
  536MOL0     O70621   8.668   4.964   2.489 -0.4617  0.5992  0.4161
  536MOL0     C70622   8.699   5.019   2.383 -0.1359 -0.1822  1.0422
  536MOL0     O70623   8.620   5.023   2.269  0.0156 -0.3853 -0.2389
  536MOL0     C70624   8.490   4.984   2.276 -0.3179  0.1924  0.0966
  536MOL0     C70625   8.453   4.853   2.230 -0.4088 -0.2285  0.5658
  536MOL0     C70626   8.324   4.808   2.241  0.5305 -0.1091 -0.2961
  536MOL0     C70627   8.224   4.887   2.305  0.1746  0.7048  0.3119
  536MOL0     O70628   8.097   4.839   2.309  0.2706 -0.8156  0.1559
  536MOL0     C70629   7.980   4.921   2.340 -0.6047 -0.5242  0.5889
  536MOL0     C70630   7.855   4.843   2.298 -0.5278 -0.4191 -0.5153
  536MOL0     C70631   7.723   4.911   2.352 -0.0232 -0.4636 -0.0396
  536MOL0     C70632   7.597   4.848   2.305  0.0388  0.4974  0.8698
  536MOL0     C70633   7.471   4.922   2.345  0.7317 -0.1516 -0.1218
  536MOL0     C70634   7.347   4.822   2.360 -0.0192  0.2435 -0.0765
  536MOL0     C70635   7.239   4.901   2.416 -0.0437  0.5783  0.1055
  536MOL0     C70636   7.129   4.814   2.475  0.3585  0.0127  1.1493
  536MOL0     N70637   7.015   4.903   2.521 -0.0698  0.3513  0.0370
  536MOL0     C70638   6.883   4.894   2.480 -0.0712  0.4396 -0.4553
  536MOL0     C70639   6.833   5.004   2.543  0.6366 -0.9016 -0.0063
  536MOL0     C70640   6.687   5.046   2.504 -0.0273 -0.1049 -0.4689
  536MOL0     C70641   6.685   5.200   2.500 -0.6215 -0.3913 -0.2777
  536MOL0     C70642   6.560   5.261   2.436 -0.6585 -0.7797  0.2874
  536MOL0     C70643   6.435   5.266   2.527 -0.2970  0.2498  0.2905
  536MOL0     O70644   6.455   5.369   2.624  0.5121 -0.1166 -0.1262
  536MOL0     C70645   6.356   5.416   2.697 -1.1997  0.2150  0.4677
  536MOL0     C70646   6.220   5.379   2.690  0.3122  0.2688  0.2660
  536MOL0     C70647   6.128   5.433   2.776  0.1079 -0.1541 -0.4440
  536MOL0     C70648   6.162   5.509   2.884 -0.0399  0.2681  0.1097
  536MOL0     C70649   6.066   5.551   2.989 -0.5104  0.8264  0.2422
  536MOL0     O70650   5.936   5.511   2.969 -1.1014  0.0943 -0.3690
  536MOL0     C70651   5.830   5.578   3.034 -0.5897 -1.1984  0.0926
  536MOL0     C70652   5.733   5.501   3.100 -0.4082  0.9668  0.6924
  536MOL0     C70653   5.631   5.567   3.168  0.3855  0.1454  0.4439
  536MOL0     C70654   5.621   5.709   3.183 -0.5638  0.5624  0.0396
  536MOL0     O70655   5.542   5.763   3.277  0.5390 -0.1851 -0.0385
  536MOL0     C70656   5.403   5.729   3.269 -0.3353 -0.3250 -0.2624
  536MOL0     C70657   5.341   5.818   3.372  0.4184  0.0522 -0.0324
  536MOL0     C70658   5.193   5.789   3.384  0.1421  0.1554  0.4788
  536MOL0     C70659   5.142   5.895   3.487  0.5754  0.2958  0.2283
  536MOL0     C70660   5.009   5.848   3.550  0.3165  0.1412  0.3552
  536MOL0     C70661   4.975   5.950   3.664  0.8765  0.4213  0.6424
  536MOL0     C70662   4.829   5.913   3.702  0.1526  0.2556 -0.7338
  536MOL0     C70663   4.780   6.002   3.814 -0.3875  1.2970 -0.7738
  536MOL0    Cl70664   4.748   6.159   3.735  0.4941  0.7032  0.4561
  536MOL0     C70665   5.719   5.784   3.112  0.5279  0.0371 -0.5005
  536MOL0     C70666   5.823   5.725   3.038 -0.4222  1.0023 -0.0490
  536MOL0     O70667   6.113   5.612   3.085 -0.3945  0.0189  0.0585
  536MOL0     C70668   6.302   5.536   2.897  1.2728  0.4875  0.0211
  536MOL0     C70669   6.393   5.500   2.797 -0.1498  0.0734 -0.2786
  536MOL0     N70670   6.927   5.083   2.612 -0.4447  0.2734 -0.7244
  536MOL0     N70671   7.034   5.014   2.592 -0.2355 -0.3096  0.6107
  536MOL0     C70672   8.262   5.018   2.340  0.5173 -0.3865 -0.3411
  536MOL0     C70673   8.396   5.063   2.341 -0.1399  0.5535 -0.0291
  536MOL0     C70674   8.820   5.096   2.370 -0.2851  1.0305  0.2691
  536MOL0     C70675   8.859   5.176   2.264  0.6827  0.4109  0.9352
  536MOL0     C70676   8.986   5.227   2.252 -0.3136  0.1892  0.1872
  536MOL0     C70677   9.085   5.207   2.352 -0.0534  0.2876 -0.2385
  536MOL0     O70678   9.213   5.254   2.349 -0.8497 -0.2867  0.7150
  536MOL0     C70679   9.269   5.305   2.226 -0.0247  0.3847 -0.2670
  536MOL0     C70680   9.420   5.324   2.238  0.3927 -0.4090 -0.5949
  536MOL0     C70681   9.483   5.188   2.254 -0.0661  0.2856 -0.3543
  536MOL0     C70682   9.630   5.201   2.266 -0.2121  0.0085 -0.0132
  536MOL0     C70683   9.694   5.254   2.137 -0.3540 -0.1105  0.3829
  536MOL0     C70684   9.745   5.296   2.032  0.3124  0.6346 -0.3544
  536MOL0     C70685   9.048   5.133   2.467  0.8284  0.2839 -0.1730
  536MOL0     C70686   8.919   5.068   2.464 -0.4288  0.1571 -0.2975
  536MOL0     H70687   8.522   4.774   2.201 -1.7883 -1.2354 -0.1141
  536MOL0     H70688   8.295   4.708   2.213 -0.1358  0.2920 -1.0861
  536MOL0     H70689   7.987   5.018   2.289  2.2399 -0.5309  0.8006
  536MOL0     H70690   7.994   4.932   2.448  0.5716  0.5857  0.3549
  536MOL0     H70691   7.871   4.742   2.337  0.4934  0.0053  0.1856
  536MOL0     H70692   7.844   4.845   2.189  0.5254 -1.1413 -0.6440
  536MOL0     H70693   7.720   5.016   2.324  0.1865 -0.8175 -1.4455
  536MOL0     H70694   7.729   4.918   2.461 -1.4205  4.6373 -0.0284
  536MOL0     H70695   7.600   4.828   2.197  0.6318  0.3170  0.9191
  536MOL0     H70696   7.609   4.751   2.353  0.3463 -0.6425 -1.3855
  536MOL0     H70697   7.448   4.995   2.267  1.6961  0.6860  0.3446
  536MOL0     H70698   7.485   4.969   2.443 -1.3149 -2.2335  1.2604
  536MOL0     H70699   7.376   4.744   2.430  0.8219 -0.8681 -1.5864
  536MOL0     H70700   7.318   4.779   2.263 -1.4654  0.1109  0.3995
  536MOL0     H70701   7.282   4.941   2.508 -1.7159  1.4144  0.5704
  536MOL0     H70702   7.205   4.983   2.353  0.1733  1.7074  1.3992
  536MOL0     H70703   7.163   4.755   2.560 -2.8475 -1.8817  1.2778
  536MOL0     H70704   7.100   4.744   2.396  3.2174 -0.1179  0.1139
  536MOL0     H70705   6.827   4.821   2.424  0.2332  1.0336 -1.5542
  536MOL0     H70706   6.620   5.023   2.587 -0.0454 -0.8335 -0.6787
  536MOL0     H70707   6.648   5.005   2.411  0.1545 -0.9908 -0.1634
  536MOL0     H70708   6.767   5.229   2.434  0.1688 -0.1877  0.7567
  536MOL0     H70709   6.703   5.243   2.599  0.4086  2.5915 -1.6368
  536MOL0     H70710   6.580   5.366   2.413 -1.9132 -0.3664  0.9714
  536MOL0     H70711   6.550   5.211   2.340 -0.9250 -0.9415  0.3979
  536MOL0     H70712   6.410   5.169   2.572 -2.2164  0.1222 -0.9490
  536MOL0     H70713   6.355   5.289   2.456 -0.4055 -0.6359  0.1065
  536MOL0     H70714   6.183   5.313   2.613  0.7315  0.4758 -0.1150
  536MOL0     H70715   6.023   5.411   2.757  0.2786 -0.9350 -0.4896
  536MOL0     H70716   5.757   5.395   3.095  0.7504  1.2537 -0.1078
  536MOL0     H70717   5.565   5.508   3.231 -0.0778 -0.4723 -0.5979
  536MOL0     H70718   5.386   5.622   3.283 -0.9652 -0.3614 -1.1659
  536MOL0     H70719   5.363   5.760   3.171 -0.1653  0.5864 -0.0486
  536MOL0     H70720   5.360   5.922   3.344 -0.1913 -0.2170 -1.5305
  536MOL0     H70721   5.389   5.796   3.468 -0.0894  0.9491  0.4425
  536MOL0     H70722   5.182   5.689   3.429 -1.5654  0.0785 -0.0679
  536MOL0     H70723   5.133   5.785   3.293  0.9753 -1.9345 -0.0354
  536MOL0     H70724   5.212   5.922   3.567  0.9001 -0.9076  0.3646
  536MOL0     H70725   5.127   5.987   3.430  0.4980  4.0514  5.5864
  536MOL0     H70726   5.016   5.748   3.596 -0.9067 -0.6471 -1.0772
  536MOL0     H70727   4.926   5.849   3.479 -1.4419  1.1156  2.2845
  536MOL0     H70728   4.977   6.050   3.618  1.9947  0.1646  0.1064
  536MOL0     H70729   5.038   5.935   3.752  1.2018 -5.1891 -0.2113
  536MOL0     H70730   4.763   5.919   3.615 -0.5136 -0.6355 -0.3152
  536MOL0     H70731   4.830   5.805   3.722  0.7186 -0.4531 -4.0399
  536MOL0     H70732   4.849   6.030   3.894  1.5577  0.6730 -2.1415
  536MOL0     H70733   4.695   5.956   3.865  1.9856 -1.2179  1.3004
  536MOL0     H70734   5.706   5.890   3.130 -2.1083 -0.6599  2.6563
  536MOL0     H70735   5.891   5.780   2.975 -2.8680  0.6003 -3.2764
  536MOL0     H70736   6.327   5.597   2.983  2.9931  0.0305 -0.1266
  536MOL0     H70737   6.498   5.526   2.809  0.3990 -1.3634 -1.6991
  536MOL0     H70738   8.184   5.082   2.379 -0.1042 -0.1918 -1.8228
  536MOL0     H70739   8.427   5.160   2.378  2.2529  0.2357 -0.9955
  536MOL0     H70740   8.782   5.194   2.189  0.2443  2.4030  1.8117
  536MOL0     H70741   9.014   5.287   2.166  0.8644 -1.4226 -0.5941
  536MOL0     H70742   9.212   5.397   2.213 -0.9439 -0.1510 -0.1476
  536MOL0     H70743   9.254   5.246   2.135  1.0305  1.3557 -1.0939
  536MOL0     H70744   9.464   5.392   2.164  0.7926 -0.7942 -0.7125
  536MOL0     H70745   9.434   5.372   2.336 -2.5571 -0.4988 -0.0466
  536MOL0     H70746   9.457   5.131   2.164 -3.2676 -1.0881  1.3079
  536MOL0     H70747   9.456   5.146   2.351  0.4284  1.8003  0.4698
  536MOL0     H70748   9.661   5.257   2.354 -0.6415 -3.6888  2.7402
  536MOL0     H70749   9.675   5.104   2.289  2.2257  1.7188  3.2381
  536MOL0     H70750   9.798   5.338   1.949 -0.0747 -2.4285 -2.2980
  536MOL0     H70751   9.121   5.107   2.542  0.5551 -1.7246 -0.5400
  536MOL0     H70752   8.900   5.002   2.548  0.7746 -0.5412 -0.5525
  537MOL0     O70753   6.170   1.521   4.507  0.3755  0.7200  0.4397
  537MOL0     C70754   6.125   1.602   4.422  0.1674 -0.3631 -0.4350
  537MOL0     O70755   6.000   1.652   4.422 -0.3983 -0.1717  0.5381
  537MOL0     C70756   5.901   1.611   4.507  0.3581 -0.2947 -0.4694
  537MOL0     C70757   5.925   1.579   4.638 -0.7478  0.2313  0.4343
  537MOL0     C70758   5.814   1.537   4.710 -0.3062 -0.1580 -0.0117
  537MOL0     C70759   5.692   1.518   4.653 -0.2824  0.1863  0.4255
  537MOL0     O70760   5.581   1.469   4.724 -0.0759 -0.0634 -0.0587
  537MOL0     C70761   5.579   1.501   4.863 -0.6940  0.6001 -0.0201
  537MOL0     C70762   5.457   1.442   4.923 -0.4997 -0.0560  0.4503
  537MOL0     C70763   5.326   1.514   4.873  0.2363  0.0156  0.3220
  537MOL0     C70764   5.335   1.663   4.864  0.1377 -0.1039 -0.0161
  537MOL0     C70765   5.205   1.726   4.812 -0.3236  1.0259 -0.2832
  537MOL0     C70766   5.097   1.740   4.913  0.7614  0.0951  0.2115
  537MOL0     C70767   4.965   1.778   4.843 -0.5295  0.1712  0.3157
  537MOL0     C70768   4.846   1.770   4.933 -0.1748  0.0864  0.3883
  537MOL0     N70769   4.723   1.776   4.857 -0.3680  0.0894 -0.1356
  537MOL0     C70770   4.673   1.886   4.790 -0.0109  0.0977  0.5662
  537MOL0     C70771   4.555   1.845   4.738  0.1719 -0.5760  0.2036
  537MOL0     C70772   4.450   1.933   4.667  0.3185 -0.1614 -0.6047
  537MOL0     C70773   4.375   2.009   4.776 -0.2003 -1.3237  0.2121
  537MOL0     C70774   4.298   1.919   4.871 -0.2664  0.0765  0.4396
  537MOL0     C70775   4.210   1.993   4.974  0.0935  0.1422 -0.2483
  537MOL0     O70776   4.129   1.911   5.063 -0.8761 -1.2186 -0.9074
  537MOL0     C70777   3.990   1.917   5.070 -0.3254 -1.3286  0.1766
  537MOL0     C70778   3.910   1.995   4.992 -0.0386  0.1460  0.2600
  537MOL0     C70779   3.781   2.027   5.027 -0.8849 -0.5362  0.0233
  537MOL0     C70780   3.729   1.982   5.145 -0.4309 -0.4494 -0.0738
  537MOL0     C70781   3.597   2.028   5.190 -0.2720 -0.6473 -0.6004
  537MOL0     O70782   3.518   2.087   5.094  0.4762 -0.5140 -0.8000
  537MOL0     C70783   3.389   2.126   5.130 -0.7757  0.2251  0.1010
  537MOL0     C70784   3.341   2.250   5.103 -0.4824 -0.6145  0.7279
  537MOL0     C70785   3.209   2.290   5.134  0.2156  0.4011 -0.5642
  537MOL0     C70786   3.123   2.201   5.196 -0.3338  0.0389 -0.4150
  537MOL0     O70787   2.993   2.240   5.228 -0.7719  0.2426 -0.1575
  537MOL0     C70788   2.953   2.379   5.239  0.2473  0.2452  0.0552
  537MOL0     C70789   2.814   2.388   5.290  0.5034  0.0505 -0.7465
  537MOL0     C70790   2.780   2.306   5.420  0.5822 -0.0788  0.0879
  537MOL0     C70791   2.795   2.152   5.398 -0.7741  0.0625  0.4851
  537MOL0     C70792   2.692   2.082   5.486  0.2016 -0.7391 -0.2221
  537MOL0     C70793   2.544   2.081   5.446 -0.0171 -0.2619  0.0017
  537MOL0     C70794   2.530   2.041   5.297  0.5113 -0.4955  1.0089
  537MOL0     C70795   2.390   2.039   5.250 -0.1830 -0.6874  0.8863
  537MOL0    Cl70796   2.311   1.895   5.315  0.0162  0.1627 -0.0003
  537MOL0     C70797   3.173   2.078   5.236 -0.3256 -0.0576 -0.3227
  537MOL0     C70798   3.302   2.037   5.197 -0.0668  0.2558  0.2900
  537MOL0     O70799   3.563   2.004   5.304  0.2917  0.4722 -0.9791
  537MOL0     C70800   3.797   1.897   5.222 -0.3509 -0.1158  0.8737
  537MOL0     C70801   3.928   1.867   5.186 -0.8743 -0.4020 -0.0628
  537MOL0     N70802   4.539   1.711   4.776 -0.5194 -0.4756 -0.1850
  537MOL0     N70803   4.636   1.677   4.853  0.1687  0.0048  0.4356
  537MOL0     C70804   5.672   1.548   4.519  0.1058  0.3580  0.2800
  537MOL0     C70805   5.780   1.594   4.444  0.6859  0.0932  0.1437
  537MOL0     C70806   6.234   1.654   4.335  0.0465 -0.7249 -0.1767
  537MOL0     C70807   6.349   1.574   4.305 -0.2931 -0.7515  0.0820
  537MOL0     C70808   6.454   1.629   4.231 -0.1966 -0.3561  0.5018
  537MOL0     C70809   6.452   1.766   4.198 -0.5528 -0.1417 -0.6474
  537MOL0     O70810   6.570   1.808   4.135  0.0006  0.8312 -0.8182
  537MOL0     C70811   6.590   1.943   4.093 -0.0354  0.6610 -0.2365
  537MOL0     C70812   6.734   1.963   4.122 -0.4438  0.2695  0.2228
  537MOL0     C70813   6.778   2.107   4.117  0.1036 -0.7822  0.5930
  537MOL0     C70814   6.762   2.164   3.975 -0.0526  0.2163  0.4584
  537MOL0     C70815   6.757   2.308   3.980 -0.1602  0.1990 -0.2877
  537MOL0     C70816   6.769   2.429   3.977  0.2449 -0.5498 -0.6484
  537MOL0     C70817   6.345   1.841   4.235 -0.4899  0.0723 -0.1100
  537MOL0     C70818   6.233   1.791   4.301 -0.0356  0.4076  1.3160
  537MOL0     H70819   6.028   1.581   4.673 -0.3561 -1.3292 -0.4959
  537MOL0     H70820   5.839   1.524   4.815  0.4929  5.1229  0.7168
  537MOL0     H70821   5.589   1.607   4.887 -0.3312  1.1270 -2.2397
  537MOL0     H70822   5.663   1.459   4.920  0.4048  1.3506 -1.0311
  537MOL0     H70823   5.464   1.445   5.032  0.0684 -1.7935  0.4844
  537MOL0     H70824   5.442   1.336   4.899 -1.7021 -0.5024  2.9189
  537MOL0     H70825   5.242   1.476   4.933  0.5822 -2.2530 -0.5347
  537MOL0     H70826   5.307   1.476   4.772  1.6355 -2.7447  0.9868
  537MOL0     H70827   5.352   1.707   4.962 -3.1189  1.1432  0.0964
  537MOL0     H70828   5.416   1.683   4.793  1.2361 -1.9293  0.6487
  537MOL0     H70829   5.167   1.675   4.723 -3.5375 -0.4857  1.7481
  537MOL0     H70830   5.223   1.826   4.770 -0.5693  1.5412  0.7871
  537MOL0     H70831   5.125   1.818   4.984 -0.9154  0.6551  0.3077
  537MOL0     H70832   5.068   1.647   4.964  1.3039  0.1571  0.6454
  537MOL0     H70833   4.981   1.874   4.793 -0.6918  0.0754  0.0805
  537MOL0     H70834   4.956   1.702   4.765  1.1044 -0.8209  1.0542
  537MOL0     H70835   4.861   1.853   5.003  0.0663  1.4699 -1.2507
  537MOL0     H70836   4.861   1.681   4.994  2.3645  0.5287  0.5464
  537MOL0     H70837   4.715   1.987   4.792 -1.4358  0.7622 -1.0600
  537MOL0     H70838   4.379   1.876   4.605  0.4626 -0.7456 -0.2415
  537MOL0     H70839   4.511   1.998   4.604  3.3323 -3.6759 -1.7251
  537MOL0     H70840   4.299   2.069   4.727 -0.5347 -1.5132  0.4909
  537MOL0     H70841   4.444   2.078   4.826  0.8291 -1.4253 -1.0130
  537MOL0     H70842   4.240   1.839   4.825 -1.8311  0.8733  0.9544
  537MOL0     H70843   4.366   1.860   4.934  0.9297  1.2783  0.3273
  537MOL0     H70844   4.143   2.065   4.924 -0.3441  0.2178  0.4295
  537MOL0     H70845   4.274   2.047   5.044  2.1006 -0.9112 -1.1936
  537MOL0     H70846   3.945   2.018   4.891 -0.2263 -1.9167 -0.3111
  537MOL0     H70847   3.729   2.100   4.966 -0.1101 -1.6911 -2.1229
  537MOL0     H70848   3.402   2.322   5.049  2.1592 -2.7142  0.7068
  537MOL0     H70849   3.178   2.392   5.112  2.8458  1.3697 -0.1684
  537MOL0     H70850   2.955   2.432   5.144 -3.5364  0.4212 -0.0581
  537MOL0     H70851   3.029   2.424   5.304  0.5841 -1.9327  1.2405
  537MOL0     H70852   2.750   2.342   5.215 -1.2938 -0.8416  1.2553
  537MOL0     H70853   2.799   2.496   5.302  1.3391  0.3512 -2.1321
  537MOL0     H70854   2.683   2.335   5.461  0.7303  1.0631 -0.3263
  537MOL0     H70855   2.841   2.334   5.506 -1.3793  2.2453  0.8274
  537MOL0     H70856   2.778   2.131   5.292 -0.4531  0.4951  0.3505
  537MOL0     H70857   2.892   2.106   5.419 -1.2838 -0.6105  1.4787
  537MOL0     H70858   2.716   2.129   5.582  0.0458 -0.8646 -0.1211
  537MOL0     H70859   2.720   1.978   5.504 -1.6117 -1.2676 -0.2892
  537MOL0     H70860   2.485   2.171   5.469 -0.7010 -1.0074  1.2770
  537MOL0     H70861   2.492   1.999   5.497 -0.8840  1.2703  1.6895
  537MOL0     H70862   2.578   2.114   5.232 -1.3095  0.9775  1.2400
  537MOL0     H70863   2.580   1.945   5.284  2.2628  0.1422  2.6455
  537MOL0     H70864   2.370   2.046   5.143 -1.4718 -2.8665  0.9147
  537MOL0     H70865   2.346   2.132   5.288  1.5653  0.7462 -0.4075
  537MOL0     H70866   3.122   2.015   5.308 -0.6636  0.9425  0.3390
  537MOL0     H70867   3.332   1.935   5.221 -1.7458  0.1616  2.3762
  537MOL0     H70868   3.759   1.863   5.318  0.8607  0.0177  1.4245
  537MOL0     H70869   3.989   1.800   5.246  0.2512 -0.3692 -1.1188
  537MOL0     H70870   5.571   1.529   4.485  0.5007  2.2829 -2.2289
  537MOL0     H70871   5.759   1.610   4.339  0.3185  1.4572  0.4009
  537MOL0     H70872   6.360   1.475   4.347 -0.7557 -0.6091  0.5470
  537MOL0     H70873   6.541   1.574   4.196  1.7437  4.1706 -2.8978
  537MOL0     H70874   6.534   2.016   4.151 -0.9504 -0.4079  0.2467
  537MOL0     H70875   6.571   1.947   3.985 -3.4763  1.1448  0.2929
  537MOL0     H70876   6.763   1.920   4.218  2.7901  0.3332 -0.6104
  537MOL0     H70877   6.789   1.904   4.048  0.4804 -1.3366  2.0806
  537MOL0     H70878   6.883   2.117   4.148  0.8004  1.9195 -2.1523
  537MOL0     H70879   6.722   2.151   4.199  1.1070 -1.7669  1.8643
  537MOL0     H70880   6.837   2.127   3.904 -0.2010  0.6158  0.0879
  537MOL0     H70881   6.665   2.126   3.941  0.2525  0.3749 -0.6367
  537MOL0     H70882   6.802   2.531   3.975 -0.5786 -0.2676 -0.1610
  537MOL0     H70883   6.353   1.948   4.219  2.5250  0.1270  1.0310
  537MOL0     H70884   6.161   1.856   4.348  2.5092  1.2494  4.3756
  538MOL0     O70885   1.713   2.630   4.404 -0.4473  0.1287 -0.0728
  538MOL0     C70886   1.763   2.667   4.510  0.5926 -0.0217 -0.5748
  538MOL0     O70887   1.760   2.794   4.553 -0.7700  0.6414 -0.4133
  538MOL0     C70888   1.705   2.891   4.471  0.3813  0.5721  0.0964
  538MOL0     C70889   1.585   2.952   4.520  0.2944  0.1078  0.0156
  538MOL0     C70890   1.517   3.054   4.450 -0.0561  0.8164  0.0886
  538MOL0     C70891   1.579   3.105   4.334  0.4004 -0.3042 -0.4128
  538MOL0     O70892   1.535   3.203   4.253  0.1992  0.4231  0.4099
  538MOL0     C70893   1.397   3.231   4.246  0.5501  0.1563 -0.1054
  538MOL0     C70894   1.371   3.350   4.160  0.3025 -0.0430  0.0324
  538MOL0     C70895   1.269   3.447   4.219  0.3674  0.5965 -0.3495
  538MOL0     C70896   1.211   3.542   4.109 -0.6631  0.0868  0.0435
  538MOL0     C70897   1.325   3.628   4.048 -0.2351 -0.6810 -0.0397
  538MOL0     C70898   1.268   3.724   3.944  0.0240  0.7768  0.8179
  538MOL0     C70899   1.360   3.838   3.909  0.2416 -0.6563 -0.5179
  538MOL0     C70900   1.479   3.784   3.825 -0.0433 -0.4327 -0.0704
  538MOL0     N70901   1.461   3.706   3.697  0.5371  0.4047 -0.1175
  538MOL0     C70902   1.364   3.732   3.606 -0.4038  0.3566 -0.0479
  538MOL0     C70903   1.385   3.637   3.513 -0.2985 -1.1537  0.9736
  538MOL0     C70904   1.291   3.630   3.393 -0.3438  0.4714 -0.1066
  538MOL0     C70905   1.171   3.553   3.430  0.1482  0.5777  0.2414
  538MOL0     C70906   1.068   3.630   3.505 -0.5079  0.3659 -0.6491
  538MOL0     C70907   0.938   3.546   3.533  0.0532  0.1491 -0.3915
  538MOL0     O70908   0.854   3.629   3.611  0.0890  0.1289 -0.4141
  538MOL0     C70909   0.738   3.573   3.660  0.1377 -0.7459  0.7153
  538MOL0     C70910   0.666   3.643   3.750  0.6406  0.3624 -0.2025
  538MOL0     C70911   0.537   3.601   3.795 -0.0705  0.1153  0.4061
  538MOL0     C70912   0.482   3.474   3.761  0.6041  0.2896  0.2967
  538MOL0     C70913   0.357   3.428   3.825 -0.0037  0.4800 -0.3092
  538MOL0     O70914   0.328   3.293   3.817  0.2068 -0.1048 -0.2397
  538MOL0     C70915   0.205   3.248   3.851  0.8424 -0.5693  1.4242
  538MOL0     C70916   0.090   3.290   3.780  0.0538 -0.0239 -0.2026
  538MOL0     C70917  -0.035   3.247   3.815 -0.9257 -0.0805  0.1209
  538MOL0     C70918  -0.058   3.169   3.931 -0.2409  0.0066 -0.0322
  538MOL0     O70919  -0.185   3.133   3.968  0.5569  0.0084 -0.9615
  538MOL0     C70920  -0.213   3.044   4.083  0.1351  0.9644  0.0610
  538MOL0     C70921  -0.362   3.016   4.082 -1.3088  0.8237 -0.1155
  538MOL0     C70922  -0.415   2.912   4.187 -0.3445  0.2984 -1.2959
  538MOL0     C70923  -0.410   2.761   4.176 -0.1259  0.5263 -0.8820
  538MOL0     C70924  -0.525   2.706   4.090  0.5405  0.2079  0.0402
  538MOL0     C70925  -0.501   2.566   4.032 -0.1192 -0.6733 -0.4563
  538MOL0     C70926  -0.629   2.510   3.978 -0.4931 -0.2248  0.2945
  538MOL0     C70927  -0.617   2.364   3.936  0.2149 -0.3785 -0.5047
  538MOL0    Cl70928  -0.490   2.344   3.806 -0.0145  0.1819 -0.4307
  538MOL0     C70929   0.054   3.128   4.000 -0.3223  0.2048 -0.1132
  538MOL0     C70930   0.182   3.169   3.965  0.0659  0.4779  0.6551
  538MOL0     O70931   0.284   3.512   3.879  0.0784  0.4798  0.2708
  538MOL0     C70932   0.558   3.394   3.675  0.4463  1.0974 -0.2092
  538MOL0     C70933   0.684   3.443   3.625  0.5510 -0.2331  0.3604
  538MOL0     N70934   1.498   3.560   3.543  0.2650 -0.7341  0.1879
  538MOL0     N70935   1.534   3.599   3.659  0.1821  0.0870  0.0023
  538MOL0     C70936   1.692   3.046   4.294 -1.0757 -0.3732 -0.0658
  538MOL0     C70937   1.756   2.939   4.355  0.0560  0.8079  0.1957
  538MOL0     C70938   1.847   2.568   4.579  0.2397  0.3173 -0.4120
  538MOL0     C70939   1.893   2.452   4.515 -0.0257  0.2052 -0.5274
  538MOL0     C70940   1.974   2.356   4.574 -0.1948 -0.9965 -1.0735
  538MOL0     C70941   2.011   2.387   4.712 -0.0389 -0.5334 -0.2496
  538MOL0     O70942   2.092   2.308   4.788  0.3102  0.4630 -0.1236
  538MOL0     C70943   2.134   2.177   4.728 -0.2551 -0.4035 -0.1935
  538MOL0     C70944   2.028   2.068   4.753  0.6358 -1.2088 -0.2946
  538MOL0     C70945   1.973   2.076   4.898  0.2595 -0.3569 -0.0041
  538MOL0     C70946   2.090   2.070   5.005  1.1539  0.3469 -1.2261
  538MOL0     C70947   2.026   2.079   5.140 -0.6130 -0.6153 -0.1259
  538MOL0     C70948   1.969   2.079   5.246 -1.1042 -0.5373  0.3416
  538MOL0     C70949   1.972   2.504   4.774  0.4282 -0.8036 -0.6127
  538MOL0     C70950   1.893   2.598   4.707 -0.5901 -0.5223  0.8645
  538MOL0     H70951   1.546   2.912   4.613 -0.2746 -1.4238 -0.8544
  538MOL0     H70952   1.421   3.085   4.489 -0.9002 -0.7099 -0.6522
  538MOL0     H70953   1.355   3.253   4.344  0.3258 -2.5374  0.4854
  538MOL0     H70954   1.344   3.140   4.216  0.8412 -0.7295  1.9207
  538MOL0     H70955   1.341   3.321   4.059  3.0245 -0.5379 -0.7079
  538MOL0     H70956   1.464   3.406   4.149  1.0990 -1.0353  1.4381
  538MOL0     H70957   1.317   3.508   4.295 -0.0069  1.5872 -0.8817
  538MOL0     H70958   1.186   3.400   4.272 -0.3013  0.2676 -1.6467
  538MOL0     H70959   1.173   3.481   4.027  1.3140  1.2357 -1.8136
  538MOL0     H70960   1.136   3.605   4.159  0.4797  1.2490  0.3382
  538MOL0     H70961   1.398   3.558   4.005 -1.4136 -0.9226 -1.7536
  538MOL0     H70962   1.374   3.691   4.121 -1.9490  0.5776  0.0810
  538MOL0     H70963   1.179   3.769   3.988  0.2290  2.2312 -0.1944
  538MOL0     H70964   1.242   3.670   3.853  0.0553 -0.2953  1.4208
  538MOL0     H70965   1.304   3.908   3.847  1.2057  0.3241 -0.3241
  538MOL0     H70966   1.383   3.887   4.004  3.3752 -1.7975 -0.5733
  538MOL0     H70967   1.551   3.733   3.890  5.3453  3.7360 -1.9549
  538MOL0     H70968   1.535   3.871   3.790 -1.9380  0.7166 -0.4018
  538MOL0     H70969   1.298   3.818   3.602  0.3069  1.0087  1.4809
  538MOL0     H70970   1.338   3.581   3.307 -3.5213 -2.8261 -0.2206
  538MOL0     H70971   1.264   3.729   3.357 -0.2621 -0.3964 -2.7587
  538MOL0     H70972   1.189   3.466   3.494 -1.6480 -0.4341 -0.5595
  538MOL0     H70973   1.126   3.522   3.335 -1.0230 -0.3686  1.0748
  538MOL0     H70974   1.117   3.657   3.599  1.3569  1.2582 -1.8081
  538MOL0     H70975   1.047   3.718   3.443  4.2039  2.2777  0.0410
  538MOL0     H70976   0.965   3.458   3.593 -2.6915 -1.2049 -0.9702
  538MOL0     H70977   0.894   3.524   3.435 -1.0352  0.8157 -0.0664
  538MOL0     H70978   0.700   3.736   3.793  1.1708  0.0194  0.1420
  538MOL0     H70979   0.492   3.656   3.878 -1.3360  0.2342 -0.3313
  538MOL0     H70980   0.101   3.360   3.698 -0.4883  0.5840  0.2389
  538MOL0     H70981  -0.112   3.290   3.752 -1.0885  0.6284  0.7882
  538MOL0     H70982  -0.186   3.088   4.179 -1.9008 -0.3834  1.3323
  538MOL0     H70983  -0.161   2.949   4.069 -1.7560  0.0400 -1.2550
  538MOL0     H70984  -0.402   2.999   3.982  0.2148  1.4646 -0.8712
  538MOL0     H70985  -0.407   3.112   4.108  0.0658  1.1697  1.1226
  538MOL0     H70986  -0.522   2.934   4.197 -0.2563  0.1764  0.1723
  538MOL0     H70987  -0.363   2.937   4.280 -1.4869 -1.1225 -0.2350
  538MOL0     H70988  -0.318   2.731   4.126 -0.7840  0.7917 -2.3146
  538MOL0     H70989  -0.422   2.721   4.277  0.4406 -2.9539 -2.0708
  538MOL0     H70990  -0.544   2.782   4.013  0.5937  1.7553  1.4851
  538MOL0     H70991  -0.607   2.697   4.162  0.7255 -1.0672  0.0985
  538MOL0     H70992  -0.455   2.516   4.118  3.3492  0.4064 -1.5357
  538MOL0     H70993  -0.417   2.571   3.962  0.9105 -0.4004  0.7601
  538MOL0     H70994  -0.708   2.509   4.054  0.0323 -1.4919  0.8479
  538MOL0     H70995  -0.664   2.559   3.887 -3.2519 -0.5663  1.0817
  538MOL0     H70996  -0.711   2.318   3.905 -0.3919  0.0886  0.6072
  538MOL0     H70997  -0.599   2.300   4.023  1.3355 -0.1926 -0.5814
  538MOL0     H70998   0.032   3.061   4.083 -0.1705 -1.1576 -1.1473
  538MOL0     H70999   0.263   3.136   4.029  1.8329 -0.2210 -1.8023
  538MOL0     H71000   0.522   3.293   3.658 -1.9407  1.0053  4.0145
  538MOL0     H71001   0.722   3.378   3.547 -0.9576 -1.1893  0.3819
  538MOL0     H71002   1.732   3.087   4.201 -2.4860 -0.9779 -0.9706
  538MOL0     H71003   1.849   2.904   4.311  0.8144  2.3038  0.5359
  538MOL0     H71004   1.856   2.438   4.413 -3.0282  0.4841  0.4158
  538MOL0     H71005   2.008   2.268   4.520 -0.2630 -1.2190 -0.7528
  538MOL0     H71006   2.230   2.143   4.770  0.1198 -1.1161 -1.5774
  538MOL0     H71007   2.159   2.178   4.622  0.5826  0.4274 -0.0092
  538MOL0     H71008   1.946   2.081   4.681  1.7981  2.5472 -1.1357
  538MOL0     H71009   2.082   1.976   4.732  1.4357 -0.7044 -0.4666
  538MOL0     H71010   1.901   1.995   4.912 -0.5352  0.3715  0.1675
  538MOL0     H71011   1.917   2.166   4.924  0.5018 -0.8211  2.3949
  538MOL0     H71012   2.138   1.972   5.008 -0.7742 -0.6630 -1.8976
  538MOL0     H71013   2.167   2.147   4.992  2.5835 -0.3566  2.0671
  538MOL0     H71014   1.918   2.076   5.341  1.4303 -3.6660  1.8090
  538MOL0     H71015   1.999   2.510   4.879 -2.7991 -2.4784  0.4365
  538MOL0     H71016   1.859   2.689   4.755 -0.2300 -0.9495  1.9840
  539MOL0     O71017   7.085   9.284   0.723 -0.6301  0.1382  0.3594
  539MOL0     C71018   7.107   9.205   0.813 -0.0268  1.0183  0.9555
  539MOL0     O71019   7.051   9.210   0.942 -0.3752  0.3861  0.5865
  539MOL0     C71020   6.958   9.312   0.984  0.4822 -0.3709 -0.0646
  539MOL0     C71021   6.977   9.450   0.969  0.5128  0.3958 -0.2979
  539MOL0     C71022   6.881   9.541   1.016 -0.4531  0.0555  0.0062
  539MOL0     C71023   6.772   9.497   1.094 -0.4107 -0.3201  0.4834
  539MOL0     O71024   6.670   9.577   1.138  0.0456  0.3813  0.0866
  539MOL0     C71025   6.708   9.708   1.180 -0.2528  0.4585  0.4883
  539MOL0     C71026   6.596   9.765   1.263 -0.8010 -0.0104 -0.0246
  539MOL0     C71027   6.485   9.836   1.177  0.0420  0.4535  0.6346
  539MOL0     C71028   6.383   9.906   1.269 -0.7864 -0.1355 -0.7396
  539MOL0     C71029   6.282   9.982   1.194 -0.3345 -0.6158  0.1898
  539MOL0     C71030   6.181  10.044   1.294 -0.4525  0.6607  0.2074
  539MOL0     C71031   6.052  10.084   1.219 -0.1863  0.3911  0.0404
  539MOL0     C71032   5.957   9.963   1.207  0.0251 -0.4413 -0.4503
  539MOL0     N71033   5.841   9.997   1.123 -0.3812 -0.3816  0.7871
  539MOL0     C71034   5.768  10.108   1.126 -0.4923 -0.5758 -0.0622
  539MOL0     C71035   5.700  10.113   1.012 -0.5172  0.2265 -0.2284
  539MOL0     C71036   5.633  10.237   0.960 -0.4573 -0.5662  0.4964
  539MOL0     C71037   5.480  10.201   0.942 -0.6353  0.2370  0.0561
  539MOL0     C71038   5.385  10.317   0.928 -0.0913  0.3173  0.1334
  539MOL0     C71039   5.246  10.254   0.954 -0.3279 -0.2235  1.1420
  539MOL0     O71040   5.153  10.352   0.895 -0.3684 -0.2481  0.0370
  539MOL0     C71041   5.075  10.410   0.988 -0.4878  0.1427  0.4617
  539MOL0     C71042   5.113  10.468   1.106  0.9393 -1.3348 -0.3110
  539MOL0     C71043   5.021  10.532   1.188 -0.3563 -0.4520 -0.5019
  539MOL0     C71044   4.882  10.547   1.148  0.6376  0.4964  0.7967
  539MOL0     C71045   4.778  10.619   1.230  0.5969  0.1074 -0.0795
  539MOL0     O71046   4.804  10.653   1.359 -0.0137  0.3361  0.1060
  539MOL0     C71047   4.703  10.685   1.446 -0.0790  0.1128  0.2944
  539MOL0     C71048   4.720  10.789   1.537 -0.3016  0.0030  0.8034
  539MOL0     C71049   4.614  10.815   1.632 -0.5724 -0.7734 -0.5315
  539MOL0     C71050   4.499  10.742   1.640  0.0786 -0.0377  0.0256
  539MOL0     O71051   4.420  10.759   1.746 -0.2050 -0.4026 -0.3133
  539MOL0     C71052   4.287  10.695   1.742  1.0169  0.2068  1.4085
  539MOL0     C71053   4.203  10.737   1.864 -0.1597 -0.4229 -0.9258
  539MOL0     C71054   4.049  10.716   1.845 -0.3591  0.4486  0.6911
  539MOL0     C71055   3.959  10.764   1.963 -0.4678 -0.5465 -0.7652
  539MOL0     C71056   3.970  10.676   2.082 -0.0933 -0.1455 -0.2114
  539MOL0     C71057   3.855  10.715   2.192 -0.2680  0.4819 -0.6578
  539MOL0     C71058   3.816  10.587   2.269 -0.1372 -0.8906 -0.1357
  539MOL0     C71059   3.740  10.493   2.172  0.2231 -0.5635 -1.0847
  539MOL0    Cl71060   3.580  10.567   2.127 -0.1597  0.3055  0.4350
  539MOL0     C71061   4.489  10.638   1.547 -0.1646  0.6173  0.1391
  539MOL0     C71062   4.587  10.603   1.455 -0.4251  0.2067 -0.1872
  539MOL0     O71063   4.678  10.661   1.170 -0.4243  0.6766 -0.0782
  539MOL0     C71064   4.842  10.493   1.025 -0.2964  1.0913  0.0016
  539MOL0     C71065   4.938  10.425   0.953  0.0394  0.0534  0.0585
  539MOL0     N71066   5.723   9.995   0.943  0.0759 -0.1652 -0.0917
  539MOL0     N71067   5.803   9.921   1.015 -0.3160 -0.5449  0.0709
  539MOL0     C71068   6.751   9.359   1.102  0.0201 -0.3555  0.7277
  539MOL0     C71069   6.847   9.269   1.052  0.2553 -0.2521 -0.2129
  539MOL0     C71070   7.207   9.100   0.789 -0.3527  1.3924  0.1740
  539MOL0     C71071   7.295   9.082   0.674 -0.5151  0.5529 -1.4792
  539MOL0     C71072   7.393   8.981   0.682 -0.3510  0.0302 -1.0432
  539MOL0     C71073   7.410   8.893   0.788  0.5881 -0.8700  0.1625
  539MOL0     O71074   7.527   8.820   0.788 -0.0804 -0.3992  0.4782
  539MOL0     C71075   7.567   8.750   0.909 -0.9688  0.0163  0.3816
  539MOL0     C71076   7.685   8.651   0.885  0.0058 -0.0612  0.1263
  539MOL0     C71077   7.821   8.712   0.898 -0.7168  0.4668 -0.3790
  539MOL0     C71078   7.846   8.814   1.020 -0.4788  0.3832  0.2498
  539MOL0     C71079   7.988   8.829   1.062  0.0831  0.3480 -0.5765
  539MOL0     C71080   8.099   8.820   1.101  0.4888 -1.3893 -1.3324
  539MOL0     C71081   7.318   8.901   0.889 -0.2344  0.3218 -0.0763
  539MOL0     C71082   7.229   9.009   0.897 -0.8967  0.6373  1.0112
  539MOL0     H71083   7.061   9.489   0.912  0.1918  2.0042  0.2794
  539MOL0     H71084   6.905   9.647   1.014  1.5034 -0.3567 -1.4818
  539MOL0     H71085   6.730   9.773   1.095  3.6698  0.0165  1.0009
  539MOL0     H71086   6.792   9.704   1.249 -0.9128  0.1374  1.2923
  539MOL0     H71087   6.641   9.848   1.320 -0.1600  0.0335 -0.5927
  539MOL0     H71088   6.555   9.683   1.324 -4.1455  0.4200 -1.4482
  539MOL0     H71089   6.428   9.762   1.121  0.2217 -0.6628  1.8828
  539MOL0     H71090   6.529   9.906   1.105 -0.8766  1.6117  1.1557
  539MOL0     H71091   6.324   9.834   1.325 -2.2835  1.8187  0.3168
  539MOL0     H71092   6.438   9.974   1.335  2.1273 -2.0692 -0.9540
  539MOL0     H71093   6.226   9.925   1.120 -1.3683 -3.3699  2.8756
  539MOL0     H71094   6.339  10.063   1.147 -0.1409 -1.2493 -0.6938
  539MOL0     H71095   6.231  10.124   1.349  2.3326 -0.0337 -1.1172
  539MOL0     H71096   6.155   9.959   1.359  2.3241  0.4988  1.2809
  539MOL0     H71097   6.005  10.165   1.276 -0.5472  0.7582 -0.7617
  539MOL0     H71098   6.088  10.113   1.120 -2.3325  1.4055 -0.4907
  539MOL0     H71099   5.922   9.926   1.304  3.1708 -2.0768  0.1982
  539MOL0     H71100   6.009   9.876   1.166 -0.5764 -2.2606  2.3089
  539MOL0     H71101   5.782  10.194   1.191  1.6253 -0.5336 -0.5003
  539MOL0     H71102   5.680  10.268   0.866  1.3413  0.1998  1.5993
  539MOL0     H71103   5.646  10.325   1.024  1.6823  1.3134 -2.2920
  539MOL0     H71104   5.445  10.133   1.021 -0.2756  0.3961  0.3550
  539MOL0     H71105   5.488  10.143   0.850 -3.3423  1.1120 -0.8504
  539MOL0     H71106   5.406  10.401   0.994  1.0645  0.4209 -0.3336
  539MOL0     H71107   5.399  10.358   0.827  1.8395 -0.5590 -0.0012
  539MOL0     H71108   5.224  10.239   1.060 -0.6560  1.6703  1.3814
  539MOL0     H71109   5.242  10.157   0.904  0.2756  0.3149 -0.0055
  539MOL0     H71110   5.216  10.445   1.131  0.7089  0.7957  3.2734
  539MOL0     H71111   5.048  10.586   1.278  0.4229 -3.1758  0.9780
  539MOL0     H71112   4.815  10.840   1.522  1.2127 -3.0691 -1.1898
  539MOL0     H71113   4.631  10.882   1.715 -1.8513 -2.8514  1.5523
  539MOL0     H71114   4.298  10.587   1.751  2.3641  0.4544  3.2536
  539MOL0     H71115   4.240  10.720   1.646  3.1466  0.3366  0.3277
  539MOL0     H71116   4.215  10.843   1.886 -1.7440 -0.8539  2.8673
  539MOL0     H71117   4.240  10.673   1.944  1.7091  0.0406 -1.3792
  539MOL0     H71118   4.032  10.610   1.824 -2.0785  0.3779  2.2405
  539MOL0     H71119   4.029  10.784   1.761  0.3608  1.1211  1.0556
  539MOL0     H71120   3.974  10.869   1.990 -0.5062 -0.6043 -0.5179
  539MOL0     H71121   3.860  10.762   1.916 -1.5670 -0.7681  1.4269
  539MOL0     H71122   4.062  10.704   2.133 -0.2744  0.5295 -0.2503
  539MOL0     H71123   3.971  10.573   2.043 -1.7755  0.5729 -2.3331
  539MOL0     H71124   3.766  10.761   2.148 -1.3841  1.0449  1.9998
  539MOL0     H71125   3.906  10.783   2.260  0.0995  0.4690 -0.9140
  539MOL0     H71126   3.911  10.547   2.306  1.2059 -1.0144 -3.3816
  539MOL0     H71127   3.751  10.612   2.353  0.9833 -0.2370  0.5640
  539MOL0     H71128   3.715  10.401   2.225 -0.8515 -0.3736 -1.2437
  539MOL0     H71129   3.798  10.468   2.083  1.3302  2.4656 -1.3310
  539MOL0     H71130   4.408  10.565   1.542 -0.8513  1.2481  1.4573
  539MOL0     H71131   4.587  10.513   1.396  0.4195 -0.2282  0.4610
  539MOL0     H71132   4.739  10.486   0.992 -0.8438  2.1023  1.3901
  539MOL0     H71133   4.917  10.365   0.865 -0.2239  2.2097 -1.4009
  539MOL0     H71134   6.657   9.328   1.148 -1.2102  0.9977 -0.7561
  539MOL0     H71135   6.835   9.166   1.082 -0.9702 -0.2342 -0.6043
  539MOL0     H71136   7.283   9.151   0.591  0.4259  0.1079 -1.9874
  539MOL0     H71137   7.467   8.982   0.603 -0.2631  2.0189 -0.9721
  539MOL0     H71138   7.479   8.696   0.945 -2.2599  1.0218 -1.1018
  539MOL0     H71139   7.591   8.818   0.992  1.4897  0.2254 -0.4196
  539MOL0     H71140   7.662   8.586   0.969 -2.5547  1.0499  0.3973
  539MOL0     H71141   7.672   8.596   0.791  0.4974 -0.9704  0.5927
  539MOL0     H71142   7.850   8.765   0.807  1.4403  0.7141  0.3916
  539MOL0     H71143   7.893   8.628   0.900 -2.0094 -0.6800  1.6007
  539MOL0     H71144   7.816   8.915   0.991  0.6139  0.5438 -0.3729
  539MOL0     H71145   7.791   8.783   1.109  1.2051  0.9594  1.5227
  539MOL0     H71146   8.201   8.812   1.132  0.6559  0.5577 -1.2106
  539MOL0     H71147   7.325   8.840   0.978  1.6190  0.2539 -0.2277
  539MOL0     H71148   7.173   9.004   0.990  0.0202 -0.5633  1.5172
  540MOL0     O71149   8.796   7.011   9.853  0.1032  0.3355  0.1173
  540MOL0     C71150   8.787   6.937   9.755  0.1389  0.1715 -0.4049
  540MOL0     O71151   8.683   6.846   9.725  0.5197  0.0988 -0.0236
  540MOL0     C71152   8.557   6.859   9.787 -0.8092 -0.2714 -0.2936
  540MOL0     C71153   8.444   6.825   9.711 -0.6570  0.1524  0.7493
  540MOL0     C71154   8.320   6.825   9.770 -0.1286 -0.0916  0.1653
  540MOL0     C71155   8.301   6.865   9.908 -0.4219  0.4373  0.4915
  540MOL0     O71156   8.168   6.869   9.942  0.0199 -0.2958  0.5533
  540MOL0     C71157   8.136   6.979  10.027 -1.0027 -0.4864  0.6333
  540MOL0     C71158   7.995   6.973  10.082 -0.1077 -0.3525  0.3754
  540MOL0     C71159   7.995   6.856  10.191  1.0991 -0.0145 -0.3874
  540MOL0     C71160   7.858   6.793  10.179  0.0323  0.0984 -0.8070
  540MOL0     C71161   7.746   6.888  10.237 -0.0516  0.0522 -0.3548
  540MOL0     C71162   7.614   6.863  10.166  0.2852  0.3286 -0.3850
  540MOL0     C71163   7.519   6.977  10.182  0.6890  0.1645 -0.2041
  540MOL0     C71164   7.426   6.945  10.300 -0.6536  0.2292  0.3062
  540MOL0     N71165   7.309   7.033  10.312 -0.0324  0.2280 -0.5140
  540MOL0     C71166   7.302   7.158  10.376 -0.2972 -0.0675  0.3798
  540MOL0     C71167   7.187   7.213  10.331  0.4678  0.4336  0.4873
  540MOL0     C71168   7.137   7.350  10.385 -0.0031 -0.0352 -0.6547
  540MOL0     C71169   7.017   7.403  10.302  1.0626 -0.0979 -0.1808
  540MOL0     C71170   7.001   7.549  10.328  0.4935  0.1047  0.6577
  540MOL0     C71171   6.956   7.590  10.462 -0.7950 -0.0954 -0.2797
  540MOL0     O71172   6.964   7.732  10.464  0.1717  0.1485  0.3990
  540MOL0     C71173   6.850   7.802  10.439  0.1384  0.1101  0.7492
  540MOL0     C71174   6.719   7.761  10.422 -0.0228 -0.6259  0.1746
  540MOL0     C71175   6.619   7.864  10.401  0.3006  1.3982  0.4102
  540MOL0     C71176   6.649   8.001  10.376  0.0055  0.7686  0.4149
  540MOL0     C71177   6.544   8.091  10.334 -0.7834  0.4622 -0.1193
  540MOL0     O71178   6.409   8.052  10.348  0.2494 -0.1780 -0.1815
  540MOL0     C71179   6.311   8.140  10.321 -0.0082  0.4345 -0.2513
  540MOL0     C71180   6.249   8.130  10.194  0.1441  0.4823 -0.3053
  540MOL0     C71181   6.162   8.232  10.152 -0.2697 -0.2116 -0.0435
  540MOL0     C71182   6.138   8.350  10.226  0.2462 -1.1677 -0.2876
  540MOL0     O71183   6.064   8.459  10.190  0.1541 -0.0566  0.0421
  540MOL0     C71184   6.033   8.479  10.053 -0.2777  0.3959 -0.3832
  540MOL0     C71185   5.900   8.406  10.014  0.0836 -0.1271 -0.0633
  540MOL0     C71186   5.785   8.478  10.081  0.3858 -0.0808 -0.1157
  540MOL0     C71187   5.645   8.413  10.049  0.0818 -0.3471 -0.1602
  540MOL0     C71188   5.585   8.459   9.913 -0.2499  0.4600 -0.6576
  540MOL0     C71189   5.455   8.386   9.898  0.4082 -0.1702 -0.5761
  540MOL0     C71190   5.378   8.445   9.787  0.8087  0.2969 -0.4296
  540MOL0     C71191   5.286   8.347   9.728 -0.7953  0.6672  0.9364
  540MOL0    Cl71192   5.178   8.437   9.626  0.3351  0.3678  0.0537
  540MOL0     C71193   6.205   8.361  10.352 -0.3835  0.2599  0.5044
  540MOL0     C71194   6.296   8.258  10.396 -0.9393  0.8857 -0.2231
  540MOL0     O71195   6.582   8.207  10.304 -0.1372  0.2493  0.8338
  540MOL0     C71196   6.782   8.042  10.391 -0.6542  0.6551 -0.6397
  540MOL0     C71197   6.877   7.945  10.428 -0.0133 -0.3152  0.0727
  540MOL0     N71198   7.140   7.136  10.228  0.0405 -0.2649 -0.1088
  540MOL0     N71199   7.209   7.029  10.230 -1.0360  0.3091  0.4228
  540MOL0     C71200   8.413   6.886   9.987  0.1318  0.1218 -0.5396
  540MOL0     C71201   8.542   6.878   9.925  0.3437 -0.5569  0.0495
  540MOL0     C71202   8.910   6.920   9.680 -0.8134  0.5309 -0.8983
  540MOL0     C71203   9.030   7.003   9.695 -0.6062 -0.0713  0.1831
  540MOL0     C71204   9.145   6.970   9.611  0.6613  0.3794  0.1147
  540MOL0     C71205   9.148   6.852   9.538  0.2665 -0.2378  0.2708
  540MOL0     O71206   9.256   6.808   9.468 -0.4401 -0.0319 -0.2572
  540MOL0     C71207   9.345   6.895   9.404  0.0792  0.4318  0.1901
  540MOL0     C71208   9.472   6.895   9.488  0.2228 -0.7915 -0.1598
  540MOL0     C71209   9.588   6.957   9.417  0.3768  0.5655  0.2461
  540MOL0     C71210   9.712   6.974   9.504  0.0643 -0.2307 -0.7286
  540MOL0     C71211   9.811   6.887   9.447 -0.8778 -1.4434 -0.2838
  540MOL0     C71212   9.907   6.821   9.414 -0.1625  0.3428 -0.8491
  540MOL0     C71213   9.033   6.771   9.534 -0.1733 -0.4862 -0.3136
  540MOL0     C71214   8.916   6.806   9.595  0.3124 -0.5351  0.1423
  540MOL0     H71215   8.458   6.784   9.612 -1.7468 -0.3613  0.7881
  540MOL0     H71216   8.228   6.807   9.716  0.2556  0.1414 -0.5823
  540MOL0     H71217   8.150   7.067   9.965  0.7742 -1.0503  0.1787
  540MOL0     H71218   8.212   6.988  10.105 -0.2589  0.8251 -0.2239
  540MOL0     H71219   7.939   6.953   9.990  0.8118  2.5875 -0.9466
  540MOL0     H71220   7.958   7.071  10.111  0.3349  0.0636 -0.4129
  540MOL0     H71221   8.015   6.882  10.296 -2.1529 -1.2233  0.6552
  540MOL0     H71222   8.068   6.780  10.164  0.3837 -1.3305  1.2298
  540MOL0     H71223   7.857   6.769  10.072  2.2860  1.2065 -1.1527
  540MOL0     H71224   7.860   6.706  10.244  0.6149 -0.3637 -1.4294
  540MOL0     H71225   7.774   6.993  10.230  0.5380 -0.1072 -0.4815
  540MOL0     H71226   7.738   6.879  10.346  0.5481 -0.3251 -0.3353
  540MOL0     H71227   7.578   6.768  10.207 -0.5018  1.5242  1.8691
  540MOL0     H71228   7.638   6.849  10.060  0.8209 -2.7366  0.0389
  540MOL0     H71229   7.570   7.074  10.191  0.5684  0.2495 -0.4152
  540MOL0     H71230   7.457   6.987  10.093  0.8172 -0.3351 -0.3512
  540MOL0     H71231   7.493   6.955  10.387  0.3036  4.7271 -0.7056
  540MOL0     H71232   7.395   6.840  10.304  3.1611 -1.1787 -1.3409
  540MOL0     H71233   7.380   7.186  10.447 -2.4269  1.4287  2.2526
  540MOL0     H71234   7.222   7.419  10.375 -1.1807  1.2793 -2.1992
  540MOL0     H71235   7.099   7.339  10.487 -2.2166  1.3859 -1.2468
  540MOL0     H71236   6.923   7.361  10.340 -0.0768  2.4264  0.0049
  540MOL0     H71237   7.020   7.369  10.198  1.0407 -2.4379  0.5301
  540MOL0     H71238   7.097   7.599  10.313 -0.6383  1.7182 -1.8220
  540MOL0     H71239   6.945   7.591  10.244  0.4875  2.9443  1.9623
  540MOL0     H71240   7.029   7.558  10.537  0.1083 -1.1948 -1.5896
  540MOL0     H71241   6.854   7.554  10.483 -1.1862  0.1500 -1.6386
  540MOL0     H71242   6.684   7.658  10.425  1.8296 -1.3169 -0.3359
  540MOL0     H71243   6.517   7.825  10.403  0.9063 -0.5371 -1.9411
  540MOL0     H71244   6.266   8.048  10.126 -3.8203 -0.4396 -0.4721
  540MOL0     H71245   6.099   8.215  10.065 -0.8032  0.1283  0.2716
  540MOL0     H71246   6.114   8.444   9.988 -2.6534 -3.1958 -1.7362
  540MOL0     H71247   6.026   8.587  10.033  0.0874  0.4112 -0.4433
  540MOL0     H71248   5.893   8.302  10.049 -0.6230  0.0935  0.4745
  540MOL0     H71249   5.883   8.408   9.906  0.2221  0.8655 -0.0721
  540MOL0     H71250   5.793   8.584  10.055 -1.7240 -0.5033 -2.9178
  540MOL0     H71251   5.793   8.473  10.190 -3.1419  1.5652  0.3821
  540MOL0     H71252   5.644   8.303  10.051 -4.7216 -0.5619 -1.3018
  540MOL0     H71253   5.575   8.456  10.121 -0.7679  0.0088 -1.1818
  540MOL0     H71254   5.646   8.437   9.825  0.1241 -1.5991  0.0599
  540MOL0     H71255   5.571   8.567   9.912 -1.0250  0.4266  1.4309
  540MOL0     H71256   5.394   8.393   9.988 -0.2042 -0.4642 -0.9572
  540MOL0     H71257   5.460   8.277   9.894 -0.4348 -0.4882  3.4516
  540MOL0     H71258   5.324   8.531   9.830  3.9005  2.6409 -0.8792
  540MOL0     H71259   5.443   8.478   9.706  0.9728 -0.7637 -0.7351
  540MOL0     H71260   5.224   8.294   9.800 -1.2089  0.8693  0.7292
  540MOL0     H71261   5.344   8.272   9.673 -1.9938  0.5020 -0.1322
  540MOL0     H71262   6.176   8.452  10.405 -1.8084 -0.2676  0.6547
  540MOL0     H71263   6.367   8.267  10.478 -0.3766  4.0343 -0.9334
  540MOL0     H71264   6.824   8.140  10.375 -0.4120  0.4295 -1.4341
  540MOL0     H71265   6.975   7.992  10.429  0.0522 -0.2781  3.5212
  540MOL0     H71266   8.403   6.890  10.095 -2.0674 -2.0471 -0.5692
  540MOL0     H71267   8.628   6.883   9.992 -0.6214 -2.9483  1.5918
  540MOL0     H71268   9.050   7.094   9.750  0.6333  1.1788 -2.1635
  540MOL0     H71269   9.231   7.036   9.616  0.9034 -0.0401  2.2273
  540MOL0     H71270   9.310   6.998   9.395  2.4406  1.2993  0.3836
  540MOL0     H71271   9.365   6.851   9.306  0.2878  2.1813 -0.5817
  540MOL0     H71272   9.457   6.946   9.583 -0.0118  1.3061 -1.2484
  540MOL0     H71273   9.504   6.799   9.528  3.9841  0.7604  1.0404
  540MOL0     H71274   9.558   7.058   9.386 -2.2504 -0.5241 -1.0720
  540MOL0     H71275   9.620   6.907   9.326  1.4279 -2.9585  2.3727
  540MOL0     H71276   9.742   7.079   9.507 -0.1738 -0.1719  1.9395
  540MOL0     H71277   9.691   6.945   9.608 -1.6742 -0.2733 -1.0624
  540MOL0     H71278   9.988   6.769   9.367  1.3671 -1.6103  3.3957
  540MOL0     H71279   9.032   6.691   9.461  1.2102  0.6846 -1.7116
  540MOL0     H71280   8.831   6.741   9.578 -0.3162 -0.8886  3.8466
  541MOL0     O71281   3.615   5.484   2.616 -0.0487  0.0849 -0.3443
  541MOL0     C71282   3.679   5.389   2.658 -0.7644  0.1106  0.2948
  541MOL0     O71283   3.636   5.287   2.729  0.0922 -0.0563 -1.2013
  541MOL0     C71284   3.507   5.290   2.771 -0.9254 -1.4959 -0.1036
  541MOL0     C71285   3.468   5.379   2.874  0.3255 -0.6872  0.2545
  541MOL0     C71286   3.345   5.368   2.941  0.2787  0.3846 -0.0196
  541MOL0     C71287   3.243   5.284   2.883 -0.3406 -0.4228  0.2656
  541MOL0     O71288   3.114   5.279   2.927 -0.5900 -0.4183 -0.6295
  541MOL0     C71289   3.079   5.373   3.031 -0.4687  0.4869  0.0240
  541MOL0     C71290   2.928   5.373   3.067  0.4751  0.1587 -0.1809
  541MOL0     C71291   2.888   5.223   3.092 -0.1242 -0.5439  0.7099
  541MOL0     C71292   2.738   5.234   3.133  0.8608 -0.1498  0.2210
  541MOL0     C71293   2.678   5.090   3.144 -0.2503  0.4154  0.5400
  541MOL0     C71294   2.724   5.007   3.260 -0.0735 -0.5308  0.2757
  541MOL0     C71295   2.676   4.865   3.262  0.5334 -0.0981  0.3863
  541MOL0     C71296   2.524   4.852   3.269 -0.2286 -0.4112 -0.9475
  541MOL0     N71297   2.480   4.893   3.403 -0.7054  0.0390  0.4639
  541MOL0     C71298   2.503   4.827   3.526  0.5823  0.1124 -0.0818
  541MOL0     C71299   2.412   4.882   3.611 -0.1484  0.2483 -0.3797
  541MOL0     C71300   2.384   4.850   3.757 -0.1315  0.2525 -0.1263
  541MOL0     C71301   2.241   4.796   3.792  1.2663 -0.3482  0.5100
  541MOL0     C71302   2.248   4.641   3.768 -0.8299 -0.6141 -0.9399
  541MOL0     C71303   2.117   4.575   3.808 -0.7569  0.0201 -0.3186
  541MOL0     O71304   2.107   4.592   3.949  0.4200 -0.2852  0.1976
  541MOL0     C71305   1.983   4.580   4.007 -0.1963 -0.7022  0.0918
  541MOL0     C71306   1.973   4.566   4.149 -0.2447 -0.0127 -0.5407
  541MOL0     C71307   1.855   4.555   4.223  0.4195 -0.5684  0.6450
  541MOL0     C71308   1.738   4.560   4.153  0.4596  0.2363  0.3642
  541MOL0     C71309   1.613   4.536   4.221  0.0404 -0.1620 -0.9576
  541MOL0     O71310   1.628   4.496   4.348 -0.0853 -0.3351  0.4443
  541MOL0     C71311   1.520   4.449   4.424  0.3185  0.1036  0.0642
  541MOL0     C71312   1.433   4.545   4.479  0.2962 -0.5960  0.4076
  541MOL0     C71313   1.311   4.507   4.533  0.2347 -0.0655 -1.0128
  541MOL0     C71314   1.277   4.368   4.542  0.2896  0.8005 -0.3661
  541MOL0     O71315   1.161   4.321   4.610 -0.9911  0.7229  0.1488
  541MOL0     C71316   1.134   4.397   4.730 -0.6131  0.3448 -0.2636
  541MOL0     C71317   1.012   4.353   4.802  0.6781  0.0206 -0.2647
  541MOL0     C71318   0.964   4.463   4.906  0.4374  0.9723  0.2520
  541MOL0     C71319   0.836   4.411   4.976  0.3010 -0.5277 -0.1595
  541MOL0     C71320   0.766   4.535   5.037  0.5773 -0.5080 -0.4612
  541MOL0     C71321   0.631   4.498   5.078 -0.6122  0.4317 -0.3660
  541MOL0     C71322   0.613   4.433   5.214 -0.8975  0.3213 -0.0988
  541MOL0     C71323   0.467   4.425   5.251 -0.3410  0.4704 -0.2408
  541MOL0    Cl71324   0.436   4.577   5.356  0.0381  0.1905  0.0148
  541MOL0     C71325   1.376   4.275   4.499 -0.3580 -0.5214 -0.8218
  541MOL0     C71326   1.497   4.315   4.445 -0.4217  1.1079 -0.2421
  541MOL0     O71327   1.502   4.549   4.163 -0.3420  1.1130 -0.9540
  541MOL0     C71328   1.738   4.574   4.009  0.9307  0.0301 -0.9461
  541MOL0     C71329   1.858   4.575   3.934 -0.4639 -0.4410 -0.2460
  541MOL0     N71330   2.346   4.977   3.534 -0.2610 -0.7250 -0.3072
  541MOL0     N71331   2.376   4.982   3.410  1.0910 -0.0413 -0.1531
  541MOL0     C71332   3.277   5.200   2.776 -0.4720  0.3102 -0.2196
  541MOL0     C71333   3.408   5.206   2.724 -0.5618 -0.7928  0.6437
  541MOL0     C71334   3.826   5.399   2.631  0.4850 -0.2181  0.3354
  541MOL0     C71335   3.909   5.320   2.707  0.1532  0.8168 -0.4392
  541MOL0     C71336   4.034   5.296   2.682 -0.2016 -0.0576 -0.1720
  541MOL0     C71337   4.085   5.360   2.568  0.4391 -0.3999  0.2207
  541MOL0     O71338   4.220   5.333   2.548  0.9826 -0.1687  0.6612
  541MOL0     C71339   4.271   5.384   2.426 -0.5893  0.5955 -0.5975
  541MOL0     C71340   4.421   5.356   2.413  0.0433 -0.6069  0.6425
  541MOL0     C71341   4.461   5.203   2.394  0.4150 -0.1117  0.0852
  541MOL0     C71342   4.605   5.200   2.337 -0.3758  0.3279 -0.7883
  541MOL0     C71343   4.689   5.250   2.447  0.7032 -0.2163  0.1942
  541MOL0     C71344   4.745   5.282   2.546  0.1227 -0.8515  0.0010
  541MOL0     C71345   4.003   5.435   2.484  0.4776 -0.4066 -0.4460
  541MOL0     C71346   3.871   5.462   2.513 -0.8803  0.4492 -0.5223
  541MOL0     H71347   3.552   5.436   2.913  1.1492  0.9413 -3.4941
  541MOL0     H71348   3.331   5.430   3.029 -0.5570  0.5238 -0.2417
  541MOL0     H71349   3.105   5.472   2.991  1.3658  0.2929  0.6437
  541MOL0     H71350   3.140   5.346   3.117  0.6383 -1.1232 -1.2034
  541MOL0     H71351   2.867   5.412   2.986 -0.9507 -2.4084 -0.4336
  541MOL0     H71352   2.907   5.433   3.156 -1.2270 -1.0231  0.2472
  541MOL0     H71353   2.949   5.181   3.173  1.6177  0.8575  0.1975
  541MOL0     H71354   2.895   5.158   3.005 -2.4445  0.9204 -0.7069
  541MOL0     H71355   2.737   5.286   3.230 -0.5154 -1.7813  1.1438
  541MOL0     H71356   2.681   5.283   3.053  1.8261  1.7660  0.6295
  541MOL0     H71357   2.694   5.047   3.044 -4.4662  1.8302 -0.9516
  541MOL0     H71358   2.569   5.104   3.148 -0.2202  1.7034 -1.4823
  541MOL0     H71359   2.681   5.047   3.352  0.9474 -0.6653  0.8163
  541MOL0     H71360   2.833   5.010   3.262 -0.0573 -1.1715  0.6704
  541MOL0     H71361   2.703   4.824   3.164 -2.6446  2.6750 -1.9142
  541MOL0     H71362   2.730   4.809   3.339 -0.3449 -1.4026  0.0982
  541MOL0     H71363   2.498   4.746   3.259  0.9885 -0.8339  0.1512
  541MOL0     H71364   2.471   4.905   3.189  0.6762  0.0364 -1.2562
  541MOL0     H71365   2.577   4.749   3.542 -0.7628 -1.5033 -1.3282
  541MOL0     H71366   2.402   4.943   3.813 -1.3193  0.3103  0.1818
  541MOL0     H71367   2.459   4.778   3.791 -1.1769 -0.8770 -0.1836
  541MOL0     H71368   2.181   4.841   3.712  1.7433 -0.4711  0.0732
  541MOL0     H71369   2.207   4.821   3.893  0.3273 -0.5927  0.2688
  541MOL0     H71370   2.261   4.627   3.660 -2.6032  2.2908 -1.6458
  541MOL0     H71371   2.336   4.599   3.817 -0.4830  1.4123  0.2535
  541MOL0     H71372   2.122   4.467   3.797 -0.6954 -0.0848  0.6405
  541MOL0     H71373   2.035   4.623   3.753 -2.5033 -0.5244  1.6848
  541MOL0     H71374   2.068   4.559   4.201 -2.3763 -0.2947  3.7855
  541MOL0     H71375   1.861   4.527   4.327  1.4883 -0.8108  0.5255
  541MOL0     H71376   1.466   4.647   4.460  1.1949 -1.4163 -3.0149
  541MOL0     H71377   1.249   4.585   4.576  2.6232 -0.0560  2.9690
  541MOL0     H71378   1.134   4.505   4.716  1.3677  0.4040 -0.1562
  541MOL0     H71379   1.216   4.370   4.797 -1.1912 -2.9887 -0.7333
  541MOL0     H71380   1.032   4.259   4.854  0.9573 -0.3727 -1.0586
  541MOL0     H71381   0.937   4.328   4.727 -2.0049  0.9460  1.9559
  541MOL0     H71382   0.926   4.552   4.854  0.6188  1.5667  1.0959
  541MOL0     H71383   1.033   4.486   4.988  1.6978 -0.4287 -0.3815
  541MOL0     H71384   0.764   4.358   4.913 -1.9031  2.5994 -0.4933
  541MOL0     H71385   0.872   4.344   5.055 -1.3758 -0.3023  0.8318
  541MOL0     H71386   0.762   4.613   4.960 -1.7669 -0.0021  0.0839
  541MOL0     H71387   0.812   4.586   5.122 -2.8330 -0.0443  1.2692
  541MOL0     H71388   0.588   4.435   5.001 -0.7296  0.5749 -0.4173
  541MOL0     H71389   0.572   4.590   5.079 -0.5826  0.4527  0.3801
  541MOL0     H71390   0.655   4.333   5.225 -3.4466 -0.9076 -0.6796
  541MOL0     H71391   0.668   4.498   5.282 -1.7369  1.5569 -0.5651
  541MOL0     H71392   0.446   4.328   5.295  3.0047  0.1647  0.9940
  541MOL0     H71393   0.413   4.430   5.156  1.5584 -0.9887 -1.4681
  541MOL0     H71394   1.346   4.174   4.522 -1.8986  0.7182  3.5871
  541MOL0     H71395   1.559   4.234   4.408 -2.5139 -0.4774 -0.4501
  541MOL0     H71396   1.642   4.572   3.959  0.6010  3.2965 -0.6959
  541MOL0     H71397   1.846   4.585   3.827 -4.5889 -1.6034 -0.0874
  541MOL0     H71398   3.201   5.140   2.728 -0.2834  0.4379 -0.6835
  541MOL0     H71399   3.434   5.153   2.633  0.7941  0.0203  0.5248
  541MOL0     H71400   3.862   5.274   2.794  3.0860  1.9606  1.9104
  541MOL0     H71401   4.102   5.247   2.751  1.5642 -0.1109 -1.8558
  541MOL0     H71402   4.251   5.491   2.420 -0.6963  0.6592  0.6753
  541MOL0     H71403   4.231   5.312   2.354 -0.1444 -1.6355  1.2555
  541MOL0     H71404   4.452   5.418   2.328 -1.3905  1.2538  1.4066
  541MOL0     H71405   4.468   5.403   2.500 -0.3369 -3.1561  2.3124
  541MOL0     H71406   4.398   5.153   2.321  1.2218  0.2779 -0.9138
  541MOL0     H71407   4.458   5.156   2.492  1.3485 -0.0714  0.1482
  541MOL0     H71408   4.648   5.101   2.318  0.4421  0.6558 -0.6893
  541MOL0     H71409   4.608   5.257   2.244 -1.0542 -0.5881 -1.3900
  541MOL0     H71410   4.784   5.324   2.637 -0.9339  0.5479 -0.1540
  541MOL0     H71411   4.040   5.459   2.385  0.8874 -0.2880 -0.2661
  541MOL0     H71412   3.806   5.512   2.442  0.6595  1.8763 -1.0166
  542MOL0     O71413   3.629   7.873   7.877  0.5103  0.6656 -0.0948
  542MOL0     C71414   3.723   7.907   7.809  0.6072  0.0917 -0.4707
  542MOL0     O71415   3.719   8.000   7.714 -0.0042  0.0501 -0.3943
  542MOL0     C71416   3.600   8.016   7.650 -0.3253  0.0669  0.1258
  542MOL0     C71417   3.568   8.146   7.626 -0.2070 -0.2468  0.2655
  542MOL0     C71418   3.442   8.168   7.564 -0.0180 -0.9228  0.7932
  542MOL0     C71419   3.348   8.067   7.539  0.2656 -0.2501  0.9232
  542MOL0     O71420   3.218   8.078   7.497  0.0111  0.5195 -0.1531
  542MOL0     C71421   3.147   8.191   7.544 -0.2586  0.6727 -0.8255
  542MOL0     C71422   3.029   8.194   7.473  0.4010 -0.6492 -0.3012
  542MOL0     C71423   2.943   8.316   7.534 -0.0138 -0.6494  0.3675
  542MOL0     C71424   2.801   8.306   7.482 -0.7422 -0.1115 -0.3049
  542MOL0     C71425   2.715   8.417   7.532  0.7028  0.3794  0.7968
  542MOL0     C71426   2.690   8.416   7.677  0.8867 -0.2185  0.2413
  542MOL0     C71427   2.628   8.287   7.734 -0.8239  0.3186  0.8937
  542MOL0     C71428   2.563   8.309   7.867 -0.7878 -0.7608 -0.1086
  542MOL0     N71429   2.473   8.203   7.911  0.0063  0.0166 -0.3495
  542MOL0     C71430   2.507   8.079   7.942  0.0241  0.8380  0.6176
  542MOL0     C71431   2.387   8.016   7.952  0.2715  0.8642 -0.1256
  542MOL0     C71432   2.370   7.864   7.969 -1.3656  0.3363  0.6428
  542MOL0     C71433   2.336   7.817   8.112  0.3840 -0.4609  0.3774
  542MOL0     C71434   2.305   7.668   8.105 -0.0748 -0.6901  0.1208
  542MOL0     C71435   2.154   7.644   8.066 -0.2905  0.1736 -0.6802
  542MOL0     O71436   2.078   7.675   8.188 -0.4328 -0.5641 -0.4936
  542MOL0     C71437   1.958   7.608   8.206  0.3140  0.4130 -0.2983
  542MOL0     C71438   1.876   7.548   8.105 -0.0361 -0.2259  0.3465
  542MOL0     C71439   1.752   7.489   8.137 -0.1132  0.0202 -0.5862
  542MOL0     C71440   1.722   7.461   8.278 -0.1196 -0.1998  0.3364
  542MOL0     C71441   1.586   7.417   8.321  0.2519  0.0931  0.5798
  542MOL0     O71442   1.494   7.400   8.216 -1.1761 -0.3663  1.0591
  542MOL0     C71443   1.380   7.334   8.238 -0.2241  0.1248 -0.1148
  542MOL0     C71444   1.380   7.193   8.251 -0.1964 -0.2131  0.1942
  542MOL0     C71445   1.265   7.123   8.274  0.5022 -0.1559 -0.1828
  542MOL0     C71446   1.138   7.191   8.293  0.1509 -0.3121  0.8426
  542MOL0     O71447   1.025   7.112   8.321  0.2554 -0.5286 -0.0729
  542MOL0     C71448   0.896   7.179   8.326 -0.5521  0.1645  0.1619
  542MOL0     C71449   0.792   7.074   8.361  0.4546 -0.9000  0.0299
  542MOL0     C71450   0.652   7.131   8.393  0.1452  0.4723  0.7187
  542MOL0     C71451   0.559   7.009   8.430 -0.2078  0.0356 -1.3463
  542MOL0     C71452   0.482   7.017   8.562 -0.0317  0.2019 -0.6180
  542MOL0     C71453   0.368   7.118   8.558  0.1390  0.0704  0.4724
  542MOL0     C71454   0.263   7.087   8.666  0.5957  0.2741 -0.0368
  542MOL0     C71455   0.148   7.190   8.664  0.1124  0.0532  0.1552
  542MOL0    Cl71456   0.020   7.159   8.542 -0.3752 -0.3568 -0.1196
  542MOL0     C71457   1.140   7.335   8.293  0.1459  0.2276  0.2877
  542MOL0     C71458   1.259   7.402   8.263  1.0117 -0.1342 -0.2241
  542MOL0     O71459   1.561   7.386   8.441 -0.1531 -0.3211  0.9867
  542MOL0     C71460   1.822   7.497   8.370 -0.3842  0.3043 -0.3663
  542MOL0     C71461   1.934   7.575   8.333 -0.3094 -0.1638 -0.2111
  542MOL0     N71462   2.287   8.105   7.941 -0.2268  0.1987  0.5379
  542MOL0     N71463   2.339   8.220   7.906  0.9874  0.1927 -0.0758
  542MOL0     C71464   3.395   7.940   7.552 -1.0389  0.0738 -1.0562
  542MOL0     C71465   3.524   7.913   7.595  0.2265 -0.4973  0.2333
  542MOL0     C71466   3.858   7.857   7.834 -0.0642 -0.0910  0.4961
  542MOL0     C71467   3.899   7.767   7.930  0.0527  0.0616 -0.0323
  542MOL0     C71468   4.029   7.718   7.943 -0.0617 -0.2929 -0.2062
  542MOL0     C71469   4.128   7.757   7.857  0.5761 -0.3134  0.0547
  542MOL0     O71470   4.258   7.705   7.878  0.1358  0.5151  0.5232
  542MOL0     C71471   4.354   7.711   7.770  0.4614 -0.3403 -0.6580
  542MOL0     C71472   4.494   7.671   7.810 -0.7388 -0.5078 -0.2620
  542MOL0     C71473   4.502   7.531   7.864  0.1091 -0.9675 -0.4292
  542MOL0     C71474   4.648   7.501   7.892  0.4254 -0.1970  0.9852
  542MOL0     C71475   4.660   7.361   7.930  0.2163 -0.3319 -0.4174
  542MOL0     C71476   4.686   7.246   7.939  0.4852 -0.4054  0.7426
  542MOL0     C71477   4.086   7.836   7.746 -0.7402  0.6702 -0.6961
  542MOL0     C71478   3.956   7.882   7.733  0.4675  1.0731 -0.6370
  542MOL0     H71479   3.637   8.226   7.654 -2.2730  1.5408  0.5646
  542MOL0     H71480   3.416   8.273   7.555 -1.0424 -1.0976  1.5141
  542MOL0     H71481   3.205   8.281   7.522  0.9199 -0.0616 -0.8123
  542MOL0     H71482   3.129   8.185   7.651 -2.0323  0.9314 -1.0819
  542MOL0     H71483   2.986   8.095   7.493  1.8253 -0.9102  1.8015
  542MOL0     H71484   3.044   8.211   7.366  2.3191  0.1172  0.0543
  542MOL0     H71485   2.997   8.408   7.510  1.5429 -1.5511  0.2781
  542MOL0     H71486   2.946   8.299   7.643  5.5529 -4.2191  0.1118
  542MOL0     H71487   2.809   8.325   7.375 -3.6597  1.3661 -0.3639
  542MOL0     H71488   2.764   8.206   7.508  0.5167 -0.7175 -0.7387
  542MOL0     H71489   2.623   8.424   7.472  0.6529 -0.1836  0.8030
  542MOL0     H71490   2.780   8.500   7.503 -0.5016  0.3343 -2.4406
  542MOL0     H71491   2.628   8.505   7.692  2.3679  0.5275  2.4824
  542MOL0     H71492   2.783   8.439   7.729 -0.4602  1.6838  1.9673
  542MOL0     H71493   2.553   8.248   7.665  1.3548 -1.6785 -0.4896
  542MOL0     H71494   2.706   8.210   7.740 -0.4517  0.7022  1.1197
  542MOL0     H71495   2.499   8.397   7.859 -1.3660 -1.2168 -0.6123
  542MOL0     H71496   2.636   8.323   7.947 -0.3609 -2.3205 -0.1832
  542MOL0     H71497   2.608   8.040   7.929 -0.0785  1.4660 -2.8840
  542MOL0     H71498   2.463   7.814   7.939  0.1412  2.0313  2.2508
  542MOL0     H71499   2.291   7.829   7.902 -0.2803  1.8196 -1.5205
  542MOL0     H71500   2.254   7.877   8.151 -0.5996 -3.0498  2.6244
  542MOL0     H71501   2.427   7.824   8.171  1.6850  0.6842 -1.6249
  542MOL0     H71502   2.371   7.618   8.033  0.6866  0.3123  0.0996
  542MOL0     H71503   2.323   7.625   8.204 -0.8444 -2.6809 -0.5419
  542MOL0     H71504   2.129   7.544   8.029 -0.4206 -2.0767  4.5549
  542MOL0     H71505   2.117   7.717   7.995 -0.3640 -0.1255 -0.9520
  542MOL0     H71506   1.890   7.561   7.998 -2.5012  1.8560  0.1731
  542MOL0     H71507   1.682   7.456   8.061 -0.0626 -2.2476  0.2596
  542MOL0     H71508   1.476   7.145   8.236  0.4933  1.0772  0.3765
  542MOL0     H71509   1.276   7.017   8.296  0.4502 -0.1100  0.0735
  542MOL0     H71510   0.871   7.220   8.228 -0.4202 -3.0781 -1.3585
  542MOL0     H71511   0.905   7.254   8.405  1.1531  2.1596 -1.7867
  542MOL0     H71512   0.823   7.012   8.445 -1.6465 -0.5369  1.1334
  542MOL0     H71513   0.782   7.012   8.271  0.4956  0.2784 -0.8225
  542MOL0     H71514   0.608   7.184   8.308  0.1193  1.6355  1.4476
  542MOL0     H71515   0.660   7.205   8.473  0.1378  1.9389 -0.5951
  542MOL0     H71516   0.481   6.992   8.355  1.3575 -0.0898 -3.0337
  542MOL0     H71517   0.610   6.912   8.439  0.3204  0.3257 -1.1450
  542MOL0     H71518   0.553   7.055   8.637  1.5489 -3.2285 -0.2041
  542MOL0     H71519   0.448   6.921   8.600  0.9299 -0.1719 -0.6800
  542MOL0     H71520   0.319   7.111   8.461  2.6675  1.8689 -1.0441
  542MOL0     H71521   0.403   7.221   8.569 -0.6268  0.6234 -1.7757
  542MOL0     H71522   0.222   6.987   8.647  2.1078 -0.0205 -2.0812
  542MOL0     H71523   0.303   7.084   8.768  4.0250 -2.7240 -1.2624
  542MOL0     H71524   0.187   7.292   8.654 -0.5379  0.2001 -0.9304
  542MOL0     H71525   0.095   7.187   8.760  1.8131 -2.3365  1.1358
  542MOL0     H71526   1.051   7.395   8.313  0.4686  1.1579 -0.9390
  542MOL0     H71527   1.246   7.509   8.249 -2.1194 -0.2679  1.0311
  542MOL0     H71528   1.815   7.475   8.476 -2.0178 -0.0533 -0.5218
  542MOL0     H71529   2.002   7.602   8.413  0.1179  3.6385 -1.6481
  542MOL0     H71530   3.332   7.856   7.526 -2.7477  0.7933  0.5138
  542MOL0     H71531   3.552   7.808   7.600 -3.1203 -1.5847 -0.9855
  542MOL0     H71532   3.824   7.722   7.995  0.1230 -2.0555 -1.3048
  542MOL0     H71533   4.046   7.650   8.026  0.0018  1.0395  0.9148
  542MOL0     H71534   4.344   7.810   7.723 -2.9592 -0.3914 -0.2940
  542MOL0     H71535   4.327   7.650   7.684  3.3075  0.9977 -2.6770
  542MOL0     H71536   4.558   7.684   7.723 -0.2284  1.9947  0.4350
  542MOL0     H71537   4.533   7.734   7.890 -0.0927  0.6401 -1.4457
  542MOL0     H71538   4.466   7.467   7.784 -2.3574 -0.3524  0.0985
  542MOL0     H71539   4.447   7.529   7.959 -0.7739  3.6342 -0.5704
  542MOL0     H71540   4.699   7.521   7.798  0.1084  1.5110  1.1420
  542MOL0     H71541   4.686   7.566   7.971 -3.2242  2.5667  0.7700
  542MOL0     H71542   4.714   7.146   7.967  0.3324  0.5188  5.0257
  542MOL0     H71543   4.143   7.848   7.655 -3.5409  0.1442 -2.6628
  542MOL0     H71544   3.927   7.940   7.646  0.4046  0.1878 -1.2162
  543MOL0     O71545   5.869   0.162   3.669 -0.1042 -0.1149  0.4874
  543MOL0     C71546   5.939   0.162   3.766 -0.5819  0.2094 -0.1134
  543MOL0     O71547   5.906   0.144   3.892  0.0865 -0.1613 -0.4194
  543MOL0     C71548   5.768   0.143   3.913  0.4211 -0.8217  0.6937
  543MOL0     C71549   5.699   0.264   3.917  0.4276  0.6746  0.2400
  543MOL0     C71550   5.562   0.266   3.935 -0.1032 -0.5001  0.6617
  543MOL0     C71551   5.491   0.146   3.963 -0.1494  0.5511 -0.1221
  543MOL0     O71552   5.361   0.129   3.992 -0.7436  0.4531  0.1301
  543MOL0     C71553   5.280   0.255   3.993  0.2308  0.7676  0.6342
  543MOL0     C71554   5.143   0.206   4.048 -0.3535 -0.1673 -0.4362
  543MOL0     C71555   5.174   0.131   4.181 -0.1204  0.0323  1.2974
  543MOL0     C71556   5.075   0.155   4.295 -0.0178  0.5679 -0.1698
  543MOL0     C71557   4.926   0.103   4.267 -0.5461 -0.5225  0.3821
  543MOL0     C71558   4.830   0.166   4.377  0.2524  0.3038 -0.5121
  543MOL0     C71559   4.697   0.100   4.383  0.5426  0.3079 -0.4549
  543MOL0     C71560   4.688  -0.031   4.462  0.0493  0.1641  0.7202
  543MOL0     N71561   4.689   0.005   4.606  0.7263  0.4924 -0.1866
  543MOL0     C71562   4.595   0.069   4.680  0.8802 -0.4183 -0.4952
  543MOL0     C71563   4.652   0.094   4.795 -0.8229 -0.2511 -0.2848
  543MOL0     C71564   4.602   0.176   4.906 -0.0693 -0.1716 -0.5849
  543MOL0     C71565   4.544   0.091   5.014  0.2891  1.0108 -0.0623
  543MOL0     C71566   4.485   0.177   5.137 -0.5728 -0.1046  0.3568
  543MOL0     C71567   4.377   0.280   5.098 -0.6505  0.3625  0.2710
  543MOL0     O71568   4.439   0.407   5.070 -0.2033  0.1198  0.3332
  543MOL0     C71569   4.361   0.509   5.026  0.4121 -0.4763 -0.2070
  543MOL0     C71570   4.435   0.623   4.985  0.9178 -0.3927 -0.0409
  543MOL0     C71571   4.371   0.741   4.943  0.4526 -0.3544  0.0042
  543MOL0     C71572   4.234   0.751   4.940 -0.2776 -0.0296  0.5462
  543MOL0     C71573   4.168   0.873   4.885 -0.4880 -0.4362 -0.8910
  543MOL0     O71574   4.032   0.869   4.887 -0.7031  0.1667 -0.6891
  543MOL0     C71575   3.957   0.967   4.832 -0.8226 -0.0220 -0.0867
  543MOL0     C71576   3.841   0.931   4.766 -0.5010 -0.3129 -0.7366
  543MOL0     C71577   3.763   1.029   4.714  0.3216  0.0302  0.2402
  543MOL0     C71578   3.791   1.165   4.732  0.1685 -0.3743 -0.5611
  543MOL0     O71579   3.728   1.269   4.667 -0.2869 -0.1233  0.1376
  543MOL0     C71580   3.587   1.266   4.668 -0.1798 -0.0056  0.2168
  543MOL0     C71581   3.526   1.403   4.630 -0.8323 -0.4816 -0.1052
  543MOL0     C71582   3.377   1.388   4.620  0.6628  0.0701 -0.1865
  543MOL0     C71583   3.316   1.516   4.573  0.0330 -0.9033  0.3765
  543MOL0     C71584   3.164   1.512   4.549  0.2566 -1.1383  0.0321
  543MOL0     C71585   3.082   1.413   4.638 -0.1629 -0.0437 -0.8822
  543MOL0     C71586   2.928   1.430   4.610 -0.2737 -0.0110 -1.6373
  543MOL0     C71587   2.854   1.511   4.725 -0.3071 -0.0772 -0.0782
  543MOL0    Cl71588   2.682   1.531   4.678 -0.4222  0.1900 -0.3905
  543MOL0     C71589   3.904   1.198   4.799  0.3641 -0.3452  0.5517
  543MOL0     C71590   3.989   1.103   4.851  0.3139 -0.6374  0.1037
  543MOL0     O71591   4.244   0.956   4.834 -0.8866 -0.7505 -0.4433
  543MOL0     C71592   4.164   0.642   4.990 -0.2758 -0.7172 -0.3567
  543MOL0     C71593   4.224   0.529   5.037 -0.0564 -0.0076  0.2392
  543MOL0     N71594   4.776   0.036   4.794 -0.0564  0.1702 -0.2724
  543MOL0     N71595   4.800  -0.019   4.682 -0.3814 -0.0481 -0.4759
  543MOL0     C71596   5.567   0.027   3.963  0.5665  0.4061  0.4187
  543MOL0     C71597   5.703   0.026   3.930  0.9815 -0.3116 -0.5480
  543MOL0     C71598   6.079   0.183   3.739 -0.2048 -0.3274  0.3994
  543MOL0     C71599   6.150   0.263   3.822  0.3098 -0.1023  0.7156
  543MOL0     C71600   6.288   0.280   3.820 -0.2340 -0.4992  1.0606
  543MOL0     C71601   6.365   0.208   3.727  0.0294 -0.6103 -0.0445
  543MOL0     O71602   6.504   0.220   3.716  0.3460  0.4574  0.5702
  543MOL0     C71603   6.579   0.098   3.712  0.3909  0.0509  0.4573
  543MOL0     C71604   6.721   0.128   3.754 -0.1714 -0.3522 -0.8867
  543MOL0     C71605   6.813   0.000   3.745  0.3905 -0.7039 -0.2138
  543MOL0     C71606   6.965   0.021   3.776 -0.3156 -0.8181  0.1187
  543MOL0     C71607   7.024   0.135   3.706  0.1810  0.8018  0.3068
  543MOL0     C71608   7.082   0.226   3.646 -0.8149 -0.7136 -0.5781
  543MOL0     C71609   6.289   0.119   3.640 -0.5679 -0.4949  0.2036
  543MOL0     C71610   6.152   0.099   3.646  0.2331  0.6313  0.4242
  543MOL0     H71611   5.740   0.358   3.882 -0.0206  0.8088  0.0709
  543MOL0     H71612   5.513   0.355   3.899 -1.4195 -1.2484  0.5498
  543MOL0     H71613   5.267   0.302   3.895  0.1068 -1.8223 -0.6704
  543MOL0     H71614   5.318   0.334   4.059 -0.8782  0.9684  1.0514
  543MOL0     H71615   5.096   0.130   3.985  1.4522 -0.3472 -1.6312
  543MOL0     H71616   5.072   0.289   4.060  0.7395  1.1046 -2.2761
  543MOL0     H71617   5.271   0.159   4.223 -0.3373  4.1511 -0.4417
  543MOL0     H71618   5.161   0.024   4.161 -1.9345  0.4704 -0.1237
  543MOL0     H71619   5.115   0.102   4.381 -1.4459 -0.1695  0.0727
  543MOL0     H71620   5.073   0.262   4.317 -0.3105  0.6232 -0.4545
  543MOL0     H71621   4.918  -0.006   4.271  0.2437 -0.5498  1.6950
  543MOL0     H71622   4.900   0.147   4.170 -0.6101 -1.3258  0.0291
  543MOL0     H71623   4.802   0.270   4.358 -0.9436 -0.3032 -2.2596
  543MOL0     H71624   4.878   0.168   4.476  2.8752  0.6803 -1.7291
  543MOL0     H71625   4.627   0.169   4.432  0.3475  0.5607 -1.0631
  543MOL0     H71626   4.655   0.077   4.284  2.5392  2.1215 -1.8290
  543MOL0     H71627   4.779  -0.090   4.449  2.4057  3.2356  2.1016
  543MOL0     H71628   4.600  -0.090   4.432 -0.0499  0.7789 -0.2645
  543MOL0     H71629   4.493   0.093   4.651  0.3523 -2.8688 -0.8266
  543MOL0     H71630   4.538   0.256   4.870 -0.4063  0.0244  0.4045
  543MOL0     H71631   4.687   0.225   4.956  0.8813 -2.0613 -0.2346
  543MOL0     H71632   4.625   0.022   5.041  1.4716  1.9769 -1.0022
  543MOL0     H71633   4.464   0.025   4.979  1.8875 -1.4055  0.5490
  543MOL0     H71634   4.441   0.101   5.202  2.2655 -1.6816  0.5542
  543MOL0     H71635   4.562   0.233   5.191 -0.9518  0.4913  0.2844
  543MOL0     H71636   4.319   0.298   5.189  0.6187  1.3582  0.9255
  543MOL0     H71637   4.306   0.245   5.022  1.7110 -1.3712 -1.3001
  543MOL0     H71638   4.543   0.628   4.980  0.9091 -1.1182 -1.3440
  543MOL0     H71639   4.434   0.823   4.909 -0.0875  0.2546  0.4170
  543MOL0     H71640   3.825   0.823   4.767 -1.4121 -0.1825 -1.0311
  543MOL0     H71641   3.673   1.001   4.660  0.4445  1.1581 -0.5983
  543MOL0     H71642   3.544   1.233   4.763 -2.7557 -1.9175 -1.4647
  543MOL0     H71643   3.539   1.188   4.608 -0.1303 -0.3660  0.6401
  543MOL0     H71644   3.565   1.436   4.533 -0.3470 -2.3467 -0.5970
  543MOL0     H71645   3.546   1.475   4.710 -0.6192  1.9432 -2.2062
  543MOL0     H71646   3.355   1.354   4.722  1.4721  2.8817  1.0080
  543MOL0     H71647   3.359   1.311   4.544  0.9560  0.7187 -0.9239
  543MOL0     H71648   3.351   1.591   4.644 -1.3831  2.3140 -2.0533
  543MOL0     H71649   3.361   1.551   4.479  0.4257  1.6813  1.4497
  543MOL0     H71650   3.135   1.493   4.445 -4.8823  2.9141  0.3271
  543MOL0     H71651   3.133   1.616   4.563  3.8991 -0.1038  1.7475
  543MOL0     H71652   3.107   1.418   4.744 -4.9060  0.4223  0.4759
  543MOL0     H71653   3.112   1.316   4.599 -2.6511  0.3087 -4.1897
  543MOL0     H71654   2.915   1.472   4.510  1.0075 -2.0981 -2.7421
  543MOL0     H71655   2.873   1.337   4.621 -2.9920  1.6984  0.6308
  543MOL0     H71656   2.912   1.604   4.730  1.6236 -0.9449 -3.0998
  543MOL0     H71657   2.849   1.470   4.826 -2.0496  0.3776  0.0432
  543MOL0     H71658   3.934   1.302   4.809 -0.5885 -0.1977  2.0823
  543MOL0     H71659   4.083   1.121   4.903  0.4077 -2.6585  0.7284
  543MOL0     H71660   4.056   0.640   4.996 -0.3945  1.1100 -1.1628
  543MOL0     H71661   4.156   0.453   5.073  0.2921 -0.5363 -0.1908
  543MOL0     H71662   5.503  -0.060   3.970 -2.1463  2.1416 -1.0067
  543MOL0     H71663   5.754  -0.069   3.944 -1.4038 -1.4561  1.0943
  543MOL0     H71664   6.090   0.322   3.891 -2.9840 -0.6306 -1.4660
  543MOL0     H71665   6.342   0.353   3.879 -0.4071  0.6101 -0.1129
  543MOL0     H71666   6.575   0.055   3.612 -1.0855 -1.1507  0.9863
  543MOL0     H71667   6.533   0.031   3.786 -2.2230 -0.7559 -1.7094
  543MOL0     H71668   6.755   0.211   3.692 -3.2210  1.3684 -0.4586
  543MOL0     H71669   6.711   0.158   3.859  2.7719 -3.7321  0.5702
  543MOL0     H71670   6.808  -0.046   3.646  0.8704  3.3965 -2.3913
  543MOL0     H71671   6.769  -0.059   3.826 -1.5392  0.6224 -0.2327
  543MOL0     H71672   6.974   0.037   3.884  0.1361  0.9825 -0.1496
  543MOL0     H71673   7.018  -0.074   3.764  0.0464 -0.7676  1.1628
  543MOL0     H71674   7.130   0.311   3.602  0.4360 -1.5385 -0.8609
  543MOL0     H71675   6.333   0.058   3.562 -0.7952 -1.0854  0.5286
  543MOL0     H71676   6.094   0.033   3.583 -1.5075  2.7479 -0.3399
  544MOL0     O71677   0.523  10.999   4.134  0.0548  0.1585 -0.2126
  544MOL0     C71678   0.450  11.024   4.227 -0.1041 -0.2952  0.6188
  544MOL0     O71679   0.485  11.109   4.336  0.2524  0.0981 -0.5898
  544MOL0     C71680   0.620  11.130   4.364 -0.4974  0.2834 -0.0131
  544MOL0     C71681   0.653  11.248   4.422  0.0154 -0.1863 -0.1575
  544MOL0     C71682   0.780  11.271   4.480  0.2568  0.1089 -0.2614
  544MOL0     C71683   0.885  11.174   4.452 -0.4345  0.7015 -0.5037
  544MOL0     O71684   1.006  11.203   4.505 -0.1064 -0.3722  0.2787
  544MOL0     C71685   1.070  11.301   4.417  0.1353 -0.3072 -0.4398
  544MOL0     C71686   1.217  11.312   4.441 -0.0401  0.6963  0.2386
  544MOL0     C71687   1.285  11.165   4.438 -0.1520 -0.2427 -0.4819
  544MOL0     C71688   1.443  11.167   4.442 -0.8389 -0.6476  0.4027
  544MOL0     C71689   1.512  11.033   4.431  0.6663  0.9463 -0.0893
  544MOL0     C71690   1.666  11.052   4.432 -0.1259  0.7333 -0.8644
  544MOL0     C71691   1.726  10.910   4.449 -0.8500  0.2188 -0.6671
  544MOL0     C71692   1.873  10.916   4.489 -0.0259  0.5433 -0.2032
  544MOL0     N71693   1.905  10.950   4.628  0.3787  0.1272 -0.5634
  544MOL0     C71694   1.965  11.073   4.663  0.2178  0.2525  0.0761
  544MOL0     C71695   1.995  11.059   4.799  0.3920  0.0857 -0.0204
  544MOL0     C71696   2.034  11.158   4.900 -0.6943  0.4448 -0.4566
  544MOL0     C71697   2.123  11.270   4.855 -0.2844  0.7783 -0.1783
  544MOL0     C71698   2.261  11.227   4.815 -0.3466  0.5243  0.0331
  544MOL0     C71699   2.353  11.344   4.782 -0.1161 -0.6860 -0.3183
  544MOL0     O71700   2.495  11.314   4.775  0.6093  0.2855 -0.5474
  544MOL0     C71701   2.570  11.319   4.896 -0.1340 -0.7989 -0.5164
  544MOL0     C71702   2.575  11.421   4.996  0.3759  0.3107  0.4879
  544MOL0     C71703   2.652  11.418   5.111  0.0737 -0.4282 -0.4510
  544MOL0     C71704   2.738  11.315   5.137  0.1982  0.6047 -0.7105
  544MOL0     C71705   2.827  11.310   5.249 -0.0103 -0.0226  0.0558
  544MOL0     O71706   2.923  11.212   5.269  0.4321 -0.7703 -0.1407
  544MOL0     C71707   3.002  11.228   5.378 -1.5955 -0.2406 -0.0589
  544MOL0     C71708   3.063  11.354   5.412  0.0827  0.2762  0.1368
  544MOL0     C71709   3.153  11.369   5.525  0.0548 -0.3452  0.5795
  544MOL0     C71710   3.180  11.262   5.601 -0.8997  0.2681  0.7642
  544MOL0     O71711   3.245  11.288   5.719  0.2628 -0.8425  0.4975
  544MOL0     C71712   3.244  11.187   5.815  0.5948  1.0468  0.3090
  544MOL0     C71713   3.317  11.239   5.931  0.6065  0.2582 -0.0261
  544MOL0     C71714   3.361  11.128   6.021 -0.0143  0.2876 -0.8003
  544MOL0     C71715   3.443  11.187   6.139 -0.6254 -0.2452  0.0430
  544MOL0     C71716   3.530  11.093   6.224  0.6620 -0.1396  0.0350
  544MOL0     C71717   3.442  10.988   6.279  0.3144  0.5602 -0.3244
  544MOL0     C71718   3.525  10.887   6.360 -0.2237 -0.4756 -0.5517
  544MOL0     C71719   3.446  10.793   6.435  0.0899  0.5121 -0.2906
  544MOL0    Cl71720   3.313  10.715   6.345  0.0514  0.0204 -0.4712
  544MOL0     C71721   3.118  11.138   5.569  0.2906 -0.1754 -0.7318
  544MOL0     C71722   3.031  11.127   5.458 -0.4633 -0.3467  0.5567
  544MOL0     O71723   2.806  11.405   5.324 -0.2455  0.8068  0.1018
  544MOL0     C71724   2.736  11.215   5.041  0.7984  0.9397  0.7769
  544MOL0     C71725   2.661  11.219   4.922  0.2206 -0.0506  0.1725
  544MOL0     N71726   1.966  10.925   4.837  0.2020 -0.1103 -0.8363
  544MOL0     N71727   1.913  10.867   4.736  0.1409  0.0815  0.0972
  544MOL0     C71728   0.854  11.057   4.383  1.1389  0.6836  0.2839
  544MOL0     C71729   0.719  11.034   4.350 -0.4214 -0.4929  1.0080
  544MOL0     C71730   0.311  10.980   4.213  0.0426 -0.4146  1.1519
  544MOL0     C71731   0.260  10.939   4.089 -0.0965 -0.3112 -0.0522
  544MOL0     C71732   0.131  10.888   4.078 -0.3662  0.1863  0.2156
  544MOL0     C71733   0.048  10.885   4.188  0.3238 -0.4668  0.2863
  544MOL0     O71734  -0.088  10.837   4.182 -0.7394 -0.2213  0.0715
  544MOL0     C71735  -0.138  10.779   4.061 -0.8824 -0.7775 -0.1128
  544MOL0     C71736  -0.277  10.732   4.090  0.5207  0.5206 -0.1387
  544MOL0     C71737  -0.292  10.619   4.199  0.2272 -0.5651  0.0363
  544MOL0     C71738  -0.426  10.548   4.188  0.4721 -0.2848  0.1166
  544MOL0     C71739  -0.536  10.628   4.233 -0.0215 -0.4826  1.0687
  544MOL0     C71740  -0.629  10.697   4.253  0.3753  0.0513 -0.2747
  544MOL0     C71741   0.100  10.941   4.310 -0.2664 -0.2985  0.2782
  544MOL0     C71742   0.232  10.986   4.327 -0.2971  0.7158 -0.5677
  544MOL0     H71743   0.569  11.316   4.434  0.7122  0.8194 -0.8056
  544MOL0     H71744   0.802  11.364   4.533 -1.4785  0.5012 -0.1717
  544MOL0     H71745   1.022  11.398   4.426 -1.9152 -1.2471 -0.6644
  544MOL0     H71746   1.061  11.261   4.315 -0.7827 -2.1977  0.3283
  544MOL0     H71747   1.240  11.351   4.541 -0.0190  1.0177  0.1106
  544MOL0     H71748   1.257  11.378   4.363 -0.8781  0.3570 -0.4836
  544MOL0     H71749   1.251  11.117   4.346 -3.5270  3.1553 -1.2828
  544MOL0     H71750   1.250  11.110   4.526 -0.3629  2.1873  1.0569
  544MOL0     H71751   1.483  11.238   4.370 -3.0218  3.5553  2.9290
  544MOL0     H71752   1.473  11.212   4.537 -0.2142 -0.9686  0.3626
  544MOL0     H71753   1.479  10.988   4.338  1.9247 -0.8362  0.2751
  544MOL0     H71754   1.476  10.969   4.512  3.8245 -0.0017  0.7055
  544MOL0     H71755   1.703  11.107   4.519  0.2929 -2.6123  1.2468
  544MOL0     H71756   1.705  11.098   4.340 -2.0830  2.0009 -1.1042
  544MOL0     H71757   1.672  10.846   4.520 -1.2353 -0.7503 -1.7948
  544MOL0     H71758   1.722  10.853   4.356  3.6264 -3.1172  0.7752
  544MOL0     H71759   1.935  10.974   4.420  0.0323 -0.6471 -1.1762
  544MOL0     H71760   1.904  10.812   4.474 -4.6743 -0.8181 -2.0979
  544MOL0     H71761   1.967  11.164   4.603 -0.1054 -0.1817 -0.6111
  544MOL0     H71762   2.089  11.105   4.979 -1.7443  1.1282  0.7728
  544MOL0     H71763   1.942  11.200   4.942 -1.3644 -0.6858 -0.7562
  544MOL0     H71764   2.129  11.334   4.943  0.4596  0.9349 -0.3416
  544MOL0     H71765   2.070  11.323   4.775 -1.4271  0.4330  0.3278
  544MOL0     H71766   2.319  11.176   4.893  0.6487  0.1478 -0.9244
  544MOL0     H71767   2.258  11.148   4.740  2.0665 -1.0001  1.4174
  544MOL0     H71768   2.341  11.424   4.855  0.1606  0.3768 -1.4085
  544MOL0     H71769   2.316  11.381   4.686 -2.2821  1.5617  1.2484
  544MOL0     H71770   2.517  11.511   4.979  2.7817  1.7390 -0.8127
  544MOL0     H71771   2.643  11.508   5.171  3.7821  1.1766 -2.0187
  544MOL0     H71772   3.039  11.444   5.357 -1.0814  0.4099  0.8210
  544MOL0     H71773   3.197  11.466   5.548  0.8012 -0.0673 -1.7477
  544MOL0     H71774   3.292  11.097   5.775 -0.7447  1.5085 -2.5133
  544MOL0     H71775   3.143  11.163   5.848  0.3914  1.5332  0.0399
  544MOL0     H71776   3.251  11.305   5.987  0.7093  0.9961 -0.7595
  544MOL0     H71777   3.405  11.303   5.917  0.3293  0.6255 -0.1079
  544MOL0     H71778   3.426  11.051   5.978  0.9884  1.0061 -0.5942
  544MOL0     H71779   3.273  11.068   6.048  0.1506 -0.0007 -0.8918
  544MOL0     H71780   3.511  11.265   6.102 -0.8254  0.2388  0.6769
  544MOL0     H71781   3.374  11.223   6.216  1.9037 -0.2706  2.4904
  544MOL0     H71782   3.570  11.160   6.301  3.7846 -1.0686 -0.6408
  544MOL0     H71783   3.613  11.054   6.164  0.7973 -0.5002  0.4485
  544MOL0     H71784   3.386  10.932   6.203  0.0602 -2.0210  1.6019
  544MOL0     H71785   3.367  11.035   6.343 -0.2225  0.4382 -0.8512
  544MOL0     H71786   3.587  10.825   6.294  1.9349  0.0968  0.8543
  544MOL0     H71787   3.593  10.930   6.433 -0.2552 -2.2192  0.5663
  544MOL0     H71788   3.394  10.843   6.517 -0.0497  0.0544 -0.0961
  544MOL0     H71789   3.507  10.708   6.467 -1.9731 -1.0366 -0.2548
  544MOL0     H71790   3.150  11.056   5.632  1.8225  2.9513  2.9866
  544MOL0     H71791   2.987  11.030   5.439 -0.7252  0.0699 -1.0750
  544MOL0     H71792   2.805  11.131   5.045  0.9756  1.0879  0.8444
  544MOL0     H71793   2.674  11.140   4.850 -1.0665 -0.7446  0.6703
  544MOL0     H71794   0.925  10.977   4.365 -0.6274 -0.4797 -2.0417
  544MOL0     H71795   0.703  10.937   4.304 -0.1334  0.1998 -0.6290
  544MOL0     H71796   0.321  10.949   4.000  0.4688 -1.3171  0.1997
  544MOL0     H71797   0.092  10.851   3.984 -0.3206 -1.3539  0.7848
  544MOL0     H71798  -0.075  10.693   4.037 -0.1607 -0.4624  0.6058
  544MOL0     H71799  -0.136  10.856   3.984 -1.9072  0.9148  1.4511
  544MOL0     H71800  -0.321  10.823   4.132  0.6002  0.1129  0.8450
  544MOL0     H71801  -0.318  10.709   3.991  1.0263  1.6596 -0.6445
  544MOL0     H71802  -0.284  10.656   4.301 -0.9031  2.5615 -0.9037
  544MOL0     H71803  -0.206  10.552   4.186  0.6359 -0.8675  3.3710
  544MOL0     H71804  -0.438  10.524   4.082  2.4560 -0.2461 -0.1520
  544MOL0     H71805  -0.419  10.463   4.257 -0.9935 -0.4067  0.1378
  544MOL0     H71806  -0.720  10.751   4.269  0.0039 -0.1019 -1.7089
  544MOL0     H71807   0.032  10.940   4.394 -1.6525  0.0368 -0.8007
  544MOL0     H71808   0.275  11.015   4.422 -0.3702  0.2440 -0.3840
  545MOL0     O71809   0.511   9.980   5.920 -0.1178  0.5217 -0.6125
  545MOL0     C71810   0.524  10.077   5.847 -0.0392  0.0319  0.0161
  545MOL0     O71811   0.420  10.163   5.812  0.2767 -0.5923  0.3413
  545MOL0     C71812   0.299  10.151   5.875 -0.3728 -0.6125  0.4261
  545MOL0     C71813   0.185  10.167   5.795  0.1355  0.4071 -0.5392
  545MOL0     C71814   0.060  10.174   5.852 -0.3792 -0.8171 -0.6799
  545MOL0     C71815   0.036  10.165   5.985 -0.2165 -0.2178 -0.9192
  545MOL0     O71816  -0.097  10.163   6.028  0.0349 -0.4291 -0.6044
  545MOL0     C71817  -0.114  10.191   6.170  0.1896  0.5940  0.9297
  545MOL0     C71818  -0.252  10.146   6.213 -0.2323 -0.6980  0.8393
  545MOL0     C71819  -0.286  10.195   6.352 -0.2622  0.2511 -0.1200
  545MOL0     C71820  -0.419  10.137   6.408  0.7157  0.2987  0.2524
  545MOL0     C71821  -0.539  10.181   6.325  1.0197  0.3078  0.1170
  545MOL0     C71822  -0.668  10.119   6.377  0.4178 -0.5505 -0.2049
  545MOL0     C71823  -0.784  10.121   6.284  0.4100  0.7645 -0.5076
  545MOL0     C71824  -0.898  10.027   6.330  0.6877  0.0576  0.2639
  545MOL0     N71825  -0.998  10.015   6.224  0.0918 -0.0228 -0.6443
  545MOL0     C71826  -1.090  10.108   6.203  0.4587  0.0829 -0.5808
  545MOL0     C71827  -1.152  10.071   6.095  0.6164  0.0088 -0.0069
  545MOL0     C71828  -1.274  10.148   6.053  0.2552 -0.0737  0.8395
  545MOL0     C71829  -1.280  10.172   5.907 -0.2553 -0.0951 -0.1706
  545MOL0     C71830  -1.373  10.287   5.880  0.0554 -0.4442  0.4867
  545MOL0     C71831  -1.509  10.275   5.950 -0.4054 -0.3749  0.0784
  545MOL0     O71832  -1.555  10.142   5.942  0.1215  0.6199  0.1824
  545MOL0     C71833  -1.690  10.126   5.962 -0.9779  0.6292 -0.0476
  545MOL0     C71834  -1.725  10.044   6.074  0.4090 -0.2527 -0.2463
  545MOL0     C71835  -1.859  10.023   6.092  0.9921  0.4337 -0.3669
  545MOL0     C71836  -1.964  10.071   6.010 -0.2168  0.1423 -0.1694
  545MOL0     C71837  -2.106  10.049   6.026  0.5154 -0.1481 -0.5767
  545MOL0     O71838  -2.171  10.032   5.911 -0.6284 -0.1611  1.2832
  545MOL0     C71839  -2.310  10.042   5.919 -0.3159 -0.3130 -0.0111
  545MOL0     C71840  -2.386  10.124   5.838  0.3639 -0.5691 -0.5962
  545MOL0     C71841  -2.522  10.122   5.839  0.3216 -0.4127  0.0536
  545MOL0     C71842  -2.591  10.041   5.925 -0.4563 -0.4545 -0.3222
  545MOL0     O71843  -2.729  10.032   5.933 -0.6353 -0.2405  0.2007
  545MOL0     C71844  -2.801  10.090   5.824  0.6047  0.3712 -0.1988
  545MOL0     C71845  -2.941  10.040   5.831 -0.5780 -1.1134 -0.6203
  545MOL0     C71846  -3.044  10.105   5.939 -0.4653 -0.4106 -0.0108
  545MOL0     C71847  -3.176  10.027   5.940 -0.2483  0.4431 -0.2413
  545MOL0     C71848  -3.261  10.035   5.809  0.2873 -0.6413 -0.5922
  545MOL0     C71849  -3.397   9.972   5.845  0.6151 -0.6748  0.6795
  545MOL0     C71850  -3.492   9.954   5.729  0.4730 -0.6593  0.1863
  545MOL0     C71851  -3.597   9.860   5.767 -0.1011  0.5407 -0.0931
  545MOL0    Cl71852  -3.697   9.822   5.623  0.0607  0.1796  0.1457
  545MOL0     C71853  -2.522   9.955   6.005 -0.4582 -0.1472  0.0704
  545MOL0     C71854  -2.381   9.956   6.008 -0.0254 -0.0724 -0.7064
  545MOL0     O71855  -2.158  10.056   6.140  0.0234  0.2801 -0.1919
  545MOL0     C71856  -1.921  10.152   5.905  0.0640  0.1776  1.0356
  545MOL0     C71857  -1.787  10.174   5.874  0.2467 -0.5566  0.4738
  545MOL0     N71858  -1.097   9.956   6.040  1.0250  0.4319 -0.0870
  545MOL0     N71859  -1.001   9.926   6.125  0.0286 -0.0280  0.2109
  545MOL0     C71860   0.151  10.152   6.068  0.3474  0.7311  1.1431
  545MOL0     C71861   0.283  10.152   6.012 -0.4162  0.6487 -0.4319
  545MOL0     C71862   0.657  10.099   5.774 -0.8923 -0.3217  0.3693
  545MOL0     C71863   0.774  10.022   5.795 -0.2389  0.4644 -0.5857
  545MOL0     C71864   0.892  10.053   5.730 -0.3707  0.0931  0.7779
  545MOL0     C71865   0.903  10.167   5.649 -0.7944 -0.0259  0.3481
  545MOL0     O71866   1.019  10.191   5.581  0.6600 -0.1719 -0.3056
  545MOL0     C71867   1.012  10.259   5.459  0.3262 -0.4602 -0.2893
  545MOL0     C71868   1.146  10.245   5.387  0.5419 -0.0107  0.2057
  545MOL0     C71869   1.264  10.301   5.452 -0.4974 -0.3903 -0.4040
  545MOL0     C71870   1.265  10.450   5.456  0.8825 -0.2119  0.2896
  545MOL0     C71871   1.221  10.523   5.337 -0.1778 -0.1245 -0.3091
  545MOL0     C71872   1.197  10.575   5.233 -0.1943 -0.6539  0.2080
  545MOL0     C71873   0.792  10.248   5.637  0.5969  0.1297 -0.4908
  545MOL0     C71874   0.673  10.215   5.694  0.5552  0.3605 -0.5314
  545MOL0     H71875   0.196  10.174   5.687 -2.0645 -0.7793 -0.8931
  545MOL0     H71876  -0.027  10.191   5.788  0.2208  0.5350 -1.1700
  545MOL0     H71877  -0.102  10.298   6.188 -1.9153  0.9948  0.3131
  545MOL0     H71878  -0.045  10.131   6.230  0.4288  0.0462  0.1240
  545MOL0     H71879  -0.264  10.038   6.208  0.4498 -0.7263 -0.7294
  545MOL0     H71880  -0.327  10.199   6.154  2.4125  1.7165 -0.6061
  545MOL0     H71881  -0.283  10.304   6.355  1.2270  0.2220  1.5807
  545MOL0     H71882  -0.203  10.165   6.417  0.8953  2.3319 -0.5627
  545MOL0     H71883  -0.414  10.029   6.428 -1.0305  0.2081  0.3158
  545MOL0     H71884  -0.449  10.183   6.503  1.9309 -0.3588  0.9875
  545MOL0     H71885  -0.525  10.152   6.220  1.4787  3.7311 -0.8637
  545MOL0     H71886  -0.537  10.290   6.324 -0.0055  0.3299 -0.7757
  545MOL0     H71887  -0.702  10.164   6.471 -2.7309 -2.1748 -0.4226
  545MOL0     H71888  -0.644  10.014   6.395  2.3659 -0.4011 -1.6440
  545MOL0     H71889  -0.809  10.225   6.262 -1.3266  2.1246  5.7517
  545MOL0     H71890  -0.756  10.078   6.188  0.6965 -0.4097  0.0675
  545MOL0     H71891  -0.944  10.051   6.426  2.9391  1.4910  1.0471
  545MOL0     H71892  -0.852   9.928   6.331 -1.3505 -0.9490 -0.3178
  545MOL0     H71893  -1.108  10.196   6.263  0.1377 -0.6943  0.4943
  545MOL0     H71894  -1.285  10.242   6.108 -3.2220  0.7946 -1.0192
  545MOL0     H71895  -1.357  10.083   6.084 -0.8989  1.0148  0.1684
  545MOL0     H71896  -1.321  10.084   5.856 -1.5596 -0.2834  1.1735
  545MOL0     H71897  -1.181  10.201   5.868 -0.0550  0.4367  0.6946
  545MOL0     H71898  -1.323  10.376   5.920  1.5032 -0.9315 -0.1455
  545MOL0     H71899  -1.395  10.295   5.773 -0.5089 -1.6712  0.4943
  545MOL0     H71900  -1.584  10.341   5.904 -0.7945 -0.1359  1.0281
  545MOL0     H71901  -1.500  10.297   6.057  2.4751 -0.5114 -0.0477
  545MOL0     H71902  -1.643  10.017   6.140  1.3279  2.0157 -0.3580
  545MOL0     H71903  -1.893   9.966   6.178 -1.3992  2.7338  0.3722
  545MOL0     H71904  -2.331  10.193   5.775  0.1380  2.1671  1.9313
  545MOL0     H71905  -2.586  10.184   5.777 -1.9588 -1.4872  1.2355
  545MOL0     H71906  -2.767  10.054   5.727 -0.8886 -0.4178 -0.4553
  545MOL0     H71907  -2.809  10.199   5.828 -1.2194  0.3209 -1.3627
  545MOL0     H71908  -2.932   9.931   5.843 -1.2227 -1.4031 -2.4280
  545MOL0     H71909  -2.984  10.043   5.730 -0.6175 -0.2986 -0.5819
  545MOL0     H71910  -3.068  10.211   5.930  0.2123 -0.2409  0.0707
  545MOL0     H71911  -2.996  10.094   6.036 -0.2682 -0.5360 -0.1210
  545MOL0     H71912  -3.166   9.924   5.976 -3.6250  0.6936  1.9340
  545MOL0     H71913  -3.239  10.066   6.021 -2.9912 -4.4438  0.4086
  545MOL0     H71914  -3.210   9.977   5.731  2.6494  0.6835 -0.1284
  545MOL0     H71915  -3.262  10.139   5.778 -3.6799  0.2308  1.7543
  545MOL0     H71916  -3.438  10.043   5.917 -0.2744  0.0914 -0.5530
  545MOL0     H71917  -3.391   9.878   5.900  2.0834 -0.3941  1.0465
  545MOL0     H71918  -3.538  10.046   5.690 -0.1416  0.4173  3.1932
  545MOL0     H71919  -3.435   9.908   5.648 -0.7873  1.8696 -2.3287
  545MOL0     H71920  -3.660   9.909   5.841  0.1623  0.9963 -0.1666
  545MOL0     H71921  -3.562   9.762   5.801 -2.1702 -1.1179 -2.3408
  545MOL0     H71922  -2.565   9.886   6.077  2.0578 -1.9718 -0.0405
  545MOL0     H71923  -2.319   9.885   6.062  2.5548  2.5289 -0.0186
  545MOL0     H71924  -1.992  10.196   5.836  0.2937  1.6367  1.6918
  545MOL0     H71925  -1.762  10.222   5.781 -2.6440  0.9246  0.3558
  545MOL0     H71926   0.156  10.125   6.173 -0.5499  2.4482  1.6568
  545MOL0     H71927   0.371  10.134   6.073 -0.5067 -2.4351 -1.0536
  545MOL0     H71928   0.761   9.933   5.855  0.6958  0.5773 -0.2160
  545MOL0     H71929   0.971   9.978   5.730 -1.0786 -0.6887 -1.2076
  545MOL0     H71930   0.981  10.364   5.465  0.7896 -0.2924 -0.7628
  545MOL0     H71931   0.936  10.219   5.391  0.3742  0.9584 -1.2185
  545MOL0     H71932   1.164  10.138   5.377 -0.2890 -0.1788  0.4072
  545MOL0     H71933   1.137  10.281   5.283  1.1326 -1.3374 -0.3214
  545MOL0     H71934   1.344  10.266   5.385 -0.8287 -0.3401 -0.8318
  545MOL0     H71935   1.277  10.258   5.552  0.8857  1.0993  0.1050
  545MOL0     H71936   1.200  10.485   5.537 -1.2917  1.9737 -2.2016
  545MOL0     H71937   1.367  10.479   5.484  0.3534 -0.2873  2.4311
  545MOL0     H71938   1.205  10.626   5.140 -0.6098  0.1200  0.5841
  545MOL0     H71939   0.798  10.342   5.582  0.5921  1.3418  1.4957
  545MOL0     H71940   0.590  10.283   5.678  1.1598  0.9499 -1.2128
  546MOL0     O71941   7.626   8.009   0.488 -0.0906 -0.0221  0.2903
  546MOL0     C71942   7.576   8.013   0.600  0.2605 -0.5661  0.7029
  546MOL0     O71943   7.617   7.932   0.701  0.4187 -0.1584  0.3288
  546MOL0     C71944   7.736   7.868   0.700  0.4472 -0.4412  0.1712
  546MOL0     C71945   7.854   7.939   0.669 -0.5548 -0.2324  0.6327
  546MOL0     C71946   7.983   7.888   0.701 -0.0737  0.7199  0.4126
  546MOL0     C71947   7.990   7.755   0.745 -0.7437  0.5988 -0.3267
  546MOL0     O71948   8.115   7.698   0.779 -0.6787 -0.0168 -0.7532
  546MOL0     C71949   8.125   7.553   0.797  0.6321  0.0733 -0.4578
  546MOL0     C71950   8.268   7.509   0.793  0.4174  0.5149 -0.0526
  546MOL0     C71951   8.267   7.366   0.847 -0.3932 -0.2040  0.7623
  546MOL0     C71952   8.409   7.318   0.887  0.3109  0.1578 -1.4037
  546MOL0     C71953   8.498   7.302   0.758  0.2363  0.2017 -0.5310
  546MOL0     C71954   8.612   7.212   0.789  0.4006 -0.5926  0.1190
  546MOL0     C71955   8.710   7.213   0.667  0.0010 -0.0715  0.3626
  546MOL0     C71956   8.854   7.157   0.719  0.0412 -0.3881 -0.3221
  546MOL0     N71957   8.950   7.119   0.617  0.7191 -0.7528  0.2314
  546MOL0     C71958   9.011   7.213   0.538  0.1747 -0.1196  0.2597
  546MOL0     C71959   9.138   7.165   0.513 -0.5277  0.0810 -0.0112
  546MOL0     C71960   9.266   7.246   0.467  0.3835 -0.1870 -0.4848
  546MOL0     C71961   9.363   7.251   0.576 -0.0117 -0.3219 -0.3570
  546MOL0     C71962   9.307   7.334   0.692  0.2830 -0.6204 -0.0002
  546MOL0     C71963   9.308   7.263   0.827  0.3351  0.3972 -0.3959
  546MOL0     O71964   9.260   7.365   0.928 -0.4102  0.4471 -0.3245
  546MOL0     C71965   9.140   7.358   0.996  0.2005 -0.0742  0.2157
  546MOL0     C71966   9.067   7.235   0.994  0.5735 -0.2043 -0.3661
  546MOL0     C71967   8.945   7.235   1.066  0.4104 -0.0860 -0.4193
  546MOL0     C71968   8.889   7.340   1.137  0.0749 -0.3862 -0.4818
  546MOL0     C71969   8.765   7.329   1.217 -1.0985  0.0827 -0.4434
  546MOL0     O71970   8.712   7.200   1.217  0.1774 -0.0396  0.3941
  546MOL0     C71971   8.613   7.171   1.312  0.6793  1.0086  0.0829
  546MOL0     C71972   8.475   7.176   1.281  0.0952  0.0698  0.4297
  546MOL0     C71973   8.380   7.158   1.389  0.8965  0.3801  0.1608
  546MOL0     C71974   8.426   7.134   1.514 -0.1601 -0.3255 -0.4356
  546MOL0     O71975   8.337   7.121   1.617 -0.2562 -0.0835 -0.1474
  546MOL0     C71976   8.373   7.038   1.732  0.2118 -0.2482  0.1071
  546MOL0     C71977   8.248   7.030   1.829  0.7828 -1.2384 -0.0570
  546MOL0     C71978   8.116   6.987   1.772  0.4267 -0.2031 -0.3228
  546MOL0     C71979   8.012   7.013   1.885 -0.3178 -0.6518  0.5715
  546MOL0     C71980   7.878   6.978   1.832  0.1438  0.2393 -0.9173
  546MOL0     C71981   7.787   6.969   1.953  0.0654  0.7035 -0.0279
  546MOL0     C71982   7.640   6.920   1.910  0.1856 -1.1688  0.3407
  546MOL0     C71983   7.574   7.029   1.824 -0.6815 -0.1839 -0.6809
  546MOL0    Cl71984   7.398   7.042   1.850  0.2083  0.2002 -0.3456
  546MOL0     C71985   8.564   7.116   1.547 -0.1324 -0.5581  0.0267
  546MOL0     C71986   8.652   7.123   1.441 -0.1765  0.2166  0.2969
  546MOL0     O71987   8.738   7.421   1.293 -0.2927 -0.5132  0.2479
  546MOL0     C71988   8.961   7.462   1.134 -0.0043  0.8740 -0.3572
  546MOL0     C71989   9.082   7.472   1.056  0.0084 -0.4837  0.0246
  546MOL0     N71990   9.154   7.052   0.580 -0.2560  0.0278  0.9160
  546MOL0     N71991   9.037   7.017   0.635 -0.4316 -0.8037 -0.2239
  546MOL0     C71992   7.869   7.683   0.777  0.2365 -0.0499 -0.1245
  546MOL0     C71993   7.750   7.746   0.761  0.2070  0.4196  0.0241
  546MOL0     C71994   7.458   8.100   0.620 -0.8928  0.7916  0.0644
  546MOL0     C71995   7.430   8.200   0.526 -0.2849 -0.7787  0.1253
  546MOL0     C71996   7.312   8.276   0.543  0.0509 -0.4206 -0.0215
  546MOL0     C71997   7.225   8.257   0.658  0.4850 -0.1194 -0.7322
  546MOL0     O71998   7.111   8.339   0.692 -0.3277 -0.5071 -0.3241
  546MOL0     C71999   7.072   8.452   0.608 -0.2533  0.2379 -0.8873
  546MOL0     C72000   7.007   8.565   0.682  0.2338  0.7384 -0.1623
  546MOL0     C72001   6.908   8.627   0.590 -0.1151 -0.6988 -0.1050
  546MOL0     C72002   6.850   8.770   0.639  0.2207 -0.0908  0.6157
  546MOL0     C72003   6.734   8.755   0.733  0.0242  0.2146  0.5741
  546MOL0     C72004   6.637   8.746   0.796 -0.5909  0.5109 -1.3665
  546MOL0     C72005   7.259   8.147   0.740 -0.1870 -0.0086 -1.1732
  546MOL0     C72006   7.373   8.073   0.723 -0.2470  0.0073 -0.5488
  546MOL0     H72007   7.862   8.037   0.622 -1.2866  0.5876  2.1369
  546MOL0     H72008   8.078   7.934   0.675 -0.9856  0.5817 -4.0718
  546MOL0     H72009   8.083   7.509   0.706  0.5835 -2.3396  0.6556
  546MOL0     H72010   8.084   7.521   0.893  3.7466 -0.2712  0.8677
  546MOL0     H72011   8.329   7.566   0.864 -0.8067  0.7073  0.8730
  546MOL0     H72012   8.312   7.518   0.693  1.8601  2.2828  0.6894
  546MOL0     H72013   8.238   7.313   0.757  0.0508  0.1311  0.4156
  546MOL0     H72014   8.191   7.360   0.926 -0.1649  0.2512  1.0220
  546MOL0     H72015   8.471   7.385   0.949  1.2440 -3.5642  2.1658
  546MOL0     H72016   8.399   7.226   0.945  4.3917 -0.2004 -0.9231
  546MOL0     H72017   8.531   7.402   0.729 -0.8702  0.5417 -0.6579
  546MOL0     H72018   8.437   7.272   0.673 -0.1336  1.5923 -0.7839
  546MOL0     H72019   8.579   7.109   0.807 -2.2401 -0.2178 -1.8559
  546MOL0     H72020   8.662   7.250   0.878  1.2790  0.1346 -0.6650
  546MOL0     H72021   8.676   7.142   0.592 -2.8591 -2.0451  3.2484
  546MOL0     H72022   8.708   7.309   0.615 -2.5113  0.1385  0.7159
  546MOL0     H72023   8.848   7.067   0.781  0.4743 -0.9123 -1.0261
  546MOL0     H72024   8.901   7.233   0.783  0.5744  0.5557 -1.7814
  546MOL0     H72025   8.980   7.314   0.515 -0.2389 -0.0715  0.9950
  546MOL0     H72026   9.228   7.342   0.433 -1.9928 -1.1743 -0.8690
  546MOL0     H72027   9.302   7.215   0.369 -1.1904  0.8695 -1.4418
  546MOL0     H72028   9.458   7.298   0.549  0.1504  0.1523  0.9283
  546MOL0     H72029   9.387   7.149   0.606 -0.0858 -1.4333 -3.7359
  546MOL0     H72030   9.378   7.417   0.704  1.2331 -1.5211  0.7887
  546MOL0     H72031   9.207   7.375   0.671 -0.2248 -0.6725  2.1325
  546MOL0     H72032   9.410   7.226   0.842  1.0329  2.0395 -0.8831
  546MOL0     H72033   9.249   7.171   0.818  3.5156 -1.9991  1.2654
  546MOL0     H72034   9.089   7.144   0.940  0.8318  1.0479 -2.4774
  546MOL0     H72035   8.901   7.136   1.066  1.6473 -0.6508 -0.0285
  546MOL0     H72036   8.447   7.212   1.182  1.3811  0.2169  0.1119
  546MOL0     H72037   8.281   7.195   1.365  0.6668 -0.5985 -0.5132
  546MOL0     H72038   8.453   7.084   1.791 -0.3905  0.7672  0.1522
  546MOL0     H72039   8.391   6.935   1.701 -0.5691 -1.2437  2.6810
  546MOL0     H72040   8.234   7.133   1.863 -1.6943 -0.0646 -3.8758
  546MOL0     H72041   8.261   6.961   1.912  1.3336 -2.5306 -1.1797
  546MOL0     H72042   8.115   6.880   1.750  3.1850 -1.0748  2.8633
  546MOL0     H72043   8.085   7.043   1.684 -4.0742  0.5508  1.4756
  546MOL0     H72044   8.032   6.949   1.972  3.1662 -2.2629 -1.1971
  546MOL0     H72045   8.016   7.117   1.918  1.2237 -0.9535  1.4437
  546MOL0     H72046   7.877   6.881   1.780  3.2507 -0.5638  0.2583
  546MOL0     H72047   7.838   7.049   1.759  1.4173  0.7235 -1.1659
  546MOL0     H72048   7.786   7.068   1.998  0.3676  1.2795 -1.2615
  546MOL0     H72049   7.821   6.893   2.025 -0.2575 -0.0167 -0.6205
  546MOL0     H72050   7.634   6.821   1.863 -0.3180 -2.0354  2.1320
  546MOL0     H72051   7.591   6.899   2.005 -1.9262 -1.9680 -0.8541
  546MOL0     H72052   7.595   7.008   1.719  0.3321  0.8220 -0.6905
  546MOL0     H72053   7.627   7.120   1.852  2.3884 -2.1978  0.6144
  546MOL0     H72054   8.593   7.097   1.650 -1.1294 -0.8477  0.2686
  546MOL0     H72055   8.757   7.105   1.459 -0.5979 -1.5055  1.2455
  546MOL0     H72056   8.917   7.549   1.181  1.2163  0.4027  1.7726
  546MOL0     H72057   9.142   7.562   1.050 -0.2668 -0.2841  0.2232
  546MOL0     H72058   7.859   7.582   0.817  1.5439  0.4285  1.5071
  546MOL0     H72059   7.654   7.700   0.782  0.3603 -1.6393 -3.0837
  546MOL0     H72060   7.490   8.220   0.438  1.8845 -0.3512  1.6182
  546MOL0     H72061   7.297   8.355   0.471 -1.6358 -2.1178 -1.6379
  546MOL0     H72062   6.999   8.415   0.536  0.3875 -3.3641  0.0973
  546MOL0     H72063   7.162   8.485   0.556  0.4298  1.0206  0.7306
  546MOL0     H72064   6.954   8.515   0.764 -0.0299  1.9683  0.4435
  546MOL0     H72065   7.082   8.632   0.724 -0.9367  1.3736  0.9921
  546MOL0     H72066   6.828   8.553   0.583 -0.0860 -0.5709 -2.1834
  546MOL0     H72067   6.954   8.641   0.492 -0.4652 -3.8819 -0.8471
  546MOL0     H72068   6.925   8.834   0.685 -1.4787  0.9278  2.0943
  546MOL0     H72069   6.792   8.818   0.559 -2.1253  0.3309  2.4353
  546MOL0     H72070   6.548   8.719   0.850  0.0474  1.1717  0.0584
  546MOL0     H72071   7.189   8.125   0.821 -1.2042  1.7275 -1.5215
  546MOL0     H72072   7.391   7.991   0.792  1.4428  0.4082 -0.4807
  547MOL0     O72073   6.448   8.425   0.785  0.4255  0.3176 -0.2568
  547MOL0     C72074   6.473   8.476   0.678  0.8014  0.7830 -0.0464
  547MOL0     O72075   6.564   8.430   0.589  0.4421  0.3537  0.6060
  547MOL0     C72076   6.627   8.314   0.616  0.8327  0.0317 -0.2356
  547MOL0     C72077   6.737   8.323   0.711  0.5474 -0.3061 -0.0381
  547MOL0     C72078   6.817   8.217   0.746 -0.3741 -0.2983 -0.0332
  547MOL0     C72079   6.804   8.093   0.678 -0.1084 -0.4281 -0.2921
  547MOL0     O72080   6.894   7.992   0.701  0.3540 -0.2014 -0.6157
  547MOL0     C72081   6.851   7.861   0.671  0.2594 -0.0625 -0.3447
  547MOL0     C72082   6.964   7.765   0.713  0.0269  0.3730 -0.3250
  547MOL0     C72083   7.095   7.795   0.627 -0.0439  0.4590 -0.3715
  547MOL0     C72084   7.189   7.673   0.627 -0.3974  0.1035  0.3157
  547MOL0     C72085   7.325   7.718   0.579 -0.1436 -0.0168  0.2410
  547MOL0     C72086   7.434   7.610   0.606 -0.2417  0.0066  0.3631
  547MOL0     C72087   7.546   7.600   0.497 -0.0883 -0.3348  0.5174
  547MOL0     C72088   7.501   7.486   0.398 -0.8108 -0.1853 -0.2034
  547MOL0     N72089   7.615   7.492   0.305 -0.4650  0.4656  0.1554
  547MOL0     C72090   7.619   7.569   0.189  0.2767  0.0114  0.0673
  547MOL0     C72091   7.726   7.520   0.119  0.4441 -0.4249 -0.1953
  547MOL0     C72092   7.783   7.572  -0.009  0.1151  0.3528 -0.2862
  547MOL0     C72093   7.711   7.528  -0.135  0.0174  1.2929  0.0789
  547MOL0     C72094   7.783   7.561  -0.263 -0.0994  0.2494 -0.1101
  547MOL0     C72095   7.906   7.471  -0.278  0.5778  0.8011  0.1887
  547MOL0     O72096   7.945   7.472  -0.413 -0.8180 -0.4185 -0.1514
  547MOL0     C72097   8.080   7.471  -0.437  0.0664 -1.0616  0.2106
  547MOL0     C72098   8.170   7.375  -0.389 -0.3129 -0.9936 -0.3241
  547MOL0     C72099   8.309   7.375  -0.425  0.0201  0.2584  0.5061
  547MOL0     C72100   8.353   7.467  -0.520 -1.1066  0.1403  0.3282
  547MOL0     C72101   8.501   7.492  -0.550 -0.2917 -0.7242  0.4340
  547MOL0     O72102   8.535   7.602  -0.625 -0.2106  0.1460  0.0668
  547MOL0     C72103   8.667   7.623  -0.657  0.2317  0.5813  0.5220
  547MOL0     C72104   8.740   7.542  -0.745  0.0749  0.1044  1.0349
  547MOL0     C72105   8.872   7.573  -0.776 -0.2800 -0.2182  0.6194
  547MOL0     C72106   8.935   7.692  -0.723  0.0242  0.8618  0.4364
  547MOL0     O72107   9.061   7.720  -0.744 -0.1584 -0.3313  0.1850
  547MOL0     C72108   9.152   7.615  -0.709 -0.6805  0.6637  0.1415
  547MOL0     C72109   9.275   7.635  -0.805  0.0499  0.5480  0.0588
  547MOL0     C72110   9.348   7.773  -0.785  0.0371  0.1213  0.2158
  547MOL0     C72111   9.467   7.789  -0.886 -0.1898  0.4172  0.1452
  547MOL0     C72112   9.561   7.905  -0.855  0.2859  0.6998 -0.9414
  547MOL0     C72113   9.686   7.908  -0.933  0.0733 -0.7993 -0.0286
  547MOL0     C72114   9.768   8.036  -0.903  0.0651 -0.1821  0.0005
  547MOL0     C72115   9.910   8.036  -0.971  0.5694  0.5306  0.3586
  547MOL0    Cl72116   9.983   8.194  -0.926  0.2785  0.2602  0.0016
  547MOL0     C72117   8.853   7.766  -0.649 -0.3961  0.1761  0.3568
  547MOL0     C72118   8.723   7.735  -0.609 -0.0247  1.4337 -1.0832
  547MOL0     O72119   8.583   7.414  -0.508  0.0519  0.0801  0.2075
  547MOL0     C72120   8.258   7.549  -0.577  0.1145 -0.3520  0.3916
  547MOL0     C72121   8.126   7.559  -0.534  0.2953  0.0154 -0.0655
  547MOL0     N72122   7.771   7.410   0.187  0.0565  0.1281  0.1267
  547MOL0     N72123   7.708   7.400   0.289  0.0270  1.1007 -0.2860
  547MOL0     C72124   6.690   8.084   0.593 -0.2038  0.1349 -0.4744
  547MOL0     C72125   6.606   8.195   0.550  0.3632  0.3898 -0.0268
  547MOL0     C72126   6.408   8.605   0.650 -0.5315  0.3449  0.2586
  547MOL0     C72127   6.320   8.669   0.737  0.1687  0.3215 -0.1653
  547MOL0     C72128   6.274   8.798   0.701 -0.2661 -0.5014 -0.0348
  547MOL0     C72129   6.313   8.866   0.585 -0.5013  0.8558 -0.2737
  547MOL0     O72130   6.287   8.992   0.554 -0.0824  0.1923 -0.4079
  547MOL0     C72131   6.205   9.075   0.637  1.0730 -0.1109 -0.1405
  547MOL0     C72132   6.122   9.160   0.535  0.2510 -0.2261  0.8604
  547MOL0     C72133   6.030   9.270   0.595  0.5784  0.5226  0.6241
  547MOL0     C72134   6.097   9.358   0.694  0.4692  0.7408 -0.8961
  547MOL0     C72135   6.209   9.434   0.636 -1.0431  0.0430  0.5244
  547MOL0     C72136   6.305   9.495   0.590  0.6273 -0.8403  0.3849
  547MOL0     C72137   6.386   8.788   0.487 -0.8906 -0.0525 -0.6921
  547MOL0     C72138   6.433   8.658   0.523  0.1745  0.0147 -0.5012
  547MOL0     H72139   6.761   8.420   0.753  4.5011 -0.0923 -2.2626
  547MOL0     H72140   6.893   8.234   0.821  2.0770  1.4274 -2.7037
  547MOL0     H72141   6.830   7.843   0.565 -2.1298 -1.3222  0.2762
  547MOL0     H72142   6.755   7.842   0.720  0.5104 -1.2876 -0.2933
  547MOL0     H72143   6.926   7.664   0.696 -0.0907  0.2758  0.4627
  547MOL0     H72144   6.993   7.770   0.819  2.1815  1.6260 -0.9049
  547MOL0     H72145   7.144   7.887   0.662 -2.1780  1.5236 -0.0031
  547MOL0     H72146   7.066   7.812   0.523  2.3204  1.4731 -0.9346
  547MOL0     H72147   7.193   7.637   0.730  0.6117  0.7739  0.5212
  547MOL0     H72148   7.152   7.600   0.554 -2.7393 -1.0449  2.4839
  547MOL0     H72149   7.339   7.817   0.622 -0.0636 -0.3174  0.9253
  547MOL0     H72150   7.322   7.738   0.471 -1.7321 -0.5156  0.1697
  547MOL0     H72151   7.394   7.510   0.622  2.4699 -1.4381 -1.1264
  547MOL0     H72152   7.472   7.627   0.707 -1.1696 -1.7164  1.0420
  547MOL0     H72153   7.562   7.698   0.452  0.0401  0.7195  2.7082
  547MOL0     H72154   7.637   7.571   0.549  1.3604  1.8289 -0.6711
  547MOL0     H72155   7.407   7.504   0.345 -2.9854  1.2123  3.7433
  547MOL0     H72156   7.497   7.391   0.452 -2.9412 -0.7730 -1.2990
  547MOL0     H72157   7.555   7.652   0.162  1.3832  0.3356 -1.7271
  547MOL0     H72158   7.887   7.539  -0.010 -0.0717 -0.2779 -1.6542
  547MOL0     H72159   7.784   7.681  -0.014 -0.3189  0.3373 -0.7524
  547MOL0     H72160   7.610   7.569  -0.146 -1.1981 -1.2715  1.0093
  547MOL0     H72161   7.699   7.421  -0.120  0.5992  0.9226 -1.8063
  547MOL0     H72162   7.717   7.539  -0.347  1.3506  2.3317 -1.9161
  547MOL0     H72163   7.806   7.668  -0.263  2.8050 -0.2764 -0.7696
  547MOL0     H72164   7.879   7.367  -0.257  0.8482 -0.0619 -3.1040
  547MOL0     H72165   7.979   7.509  -0.206  1.6652 -1.1442  0.1686
  547MOL0     H72166   8.129   7.302  -0.320 -2.2677  1.7872  1.6780
  547MOL0     H72167   8.382   7.312  -0.375  1.5250  1.4575 -0.1338
  547MOL0     H72168   8.687   7.460  -0.793  1.0612 -1.6929  2.8049
  547MOL0     H72169   8.927   7.510  -0.845  1.5148  0.4961  1.3313
  547MOL0     H72170   9.118   7.511  -0.708  0.2848  0.3363  0.3557
  547MOL0     H72171   9.192   7.631  -0.608  3.0749 -1.0354 -0.9117
  547MOL0     H72172   9.251   7.619  -0.911 -0.6111 -2.3126  0.5326
  547MOL0     H72173   9.349   7.557  -0.787 -0.9948 -0.9412 -1.6206
  547MOL0     H72174   9.387   7.778  -0.683 -0.4646 -0.7960  0.4637
  547MOL0     H72175   9.275   7.853  -0.798 -1.2997 -0.4185  3.5206
  547MOL0     H72176   9.514   7.690  -0.883 -0.9596  0.0218 -0.4652
  547MOL0     H72177   9.438   7.804  -0.990  3.1864  0.9003 -0.8754
  547MOL0     H72178   9.585   7.892  -0.749 -1.6098  1.1570 -0.4190
  547MOL0     H72179   9.507   8.000  -0.865 -0.0699  0.3730 -2.2935
  547MOL0     H72180   9.660   7.888  -1.037  2.7648  0.6718 -1.0872
  547MOL0     H72181   9.748   7.821  -0.908  0.7058 -0.6942 -1.1801
  547MOL0     H72182   9.713   8.125  -0.935 -0.1346  0.3588  1.7601
  547MOL0     H72183   9.778   8.050  -0.795 -0.1678  2.1702 -0.2221
  547MOL0     H72184   9.908   8.021  -1.079  0.8322 -3.8283  0.7775
  547MOL0     H72185   9.968   7.952  -0.934  2.0032  1.5816  0.5805
  547MOL0     H72186   8.895   7.858  -0.609  0.9975 -0.1893 -0.2058
  547MOL0     H72187   8.674   7.796  -0.534 -0.4883  1.8600 -1.7277
  547MOL0     H72188   8.279   7.619  -0.657  0.4961 -0.5940  0.2716
  547MOL0     H72189   8.058   7.626  -0.587  0.7836  1.5040  1.1322
  547MOL0     H72190   6.671   7.987   0.548  0.9795 -0.0252 -0.6846
  547MOL0     H72191   6.527   8.183   0.477  0.1051 -1.9112  0.5550
  547MOL0     H72192   6.299   8.639   0.839  0.4710 -0.3192 -0.2869
  547MOL0     H72193   6.212   8.855   0.769 -0.8104  0.7820 -1.5348
  547MOL0     H72194   6.280   9.139   0.684 -0.7902  2.3046 -0.2788
  547MOL0     H72195   6.137   9.031   0.710  0.1396  0.0045 -0.9120
  547MOL0     H72196   6.179   9.199   0.450  0.1965  0.6660  1.2124
  547MOL0     H72197   6.054   9.089   0.488 -1.3978  2.2030 -0.6841
  547MOL0     H72198   5.936   9.221   0.623 -0.0190 -0.1922 -2.2514
  547MOL0     H72199   5.995   9.329   0.509  0.4106  1.3341  1.2345
  547MOL0     H72200   6.019   9.422   0.736  0.4453 -0.4289  0.9456
  547MOL0     H72201   6.137   9.304   0.781 -1.0437 -2.4399 -2.0350
  547MOL0     H72202   6.383   9.566   0.571  0.2500 -0.0232  1.7308
  547MOL0     H72203   6.410   8.836   0.393 -0.1296 -0.1162 -0.5373
  547MOL0     H72204   6.492   8.603   0.451 -2.0869 -0.9413 -1.7417
  548MOL0     O72205  10.618  10.922  10.949 -0.2452 -0.0118 -0.0785
  548MOL0     C72206  10.654  10.881  10.835 -0.3217 -0.3967 -0.2201
  548MOL0     O72207  10.581  10.820  10.740 -0.6592  0.0093 -0.9103
  548MOL0     C72208  10.447  10.775  10.763 -0.5300 -0.0656 -0.0915
  548MOL0     C72209  10.371  10.778  10.649  0.2558 -0.1356 -0.4355
  548MOL0     C72210  10.237  10.746  10.660 -0.1134  0.3830  0.0756
  548MOL0     C72211  10.181  10.696  10.779  0.4253 -0.4850 -0.7407
  548MOL0     O72212  10.052  10.664  10.777 -0.1105 -0.1309  0.3286
  548MOL0     C72213   9.948  10.750  10.837  0.0792 -0.4380  0.2828
  548MOL0     C72214   9.886  10.682  10.963 -0.3899 -0.1542 -0.6922
  548MOL0     C72215   9.747  10.754  10.996 -0.1812  1.0095  0.2319
  548MOL0     C72216   9.757  10.904  11.000  0.5212 -0.2775 -0.0659
  548MOL0     C72217   9.630  10.979  11.060 -0.6728  0.1305 -0.1949
  548MOL0     C72218   9.504  10.943  10.980 -0.3686  0.1679  0.0803
  548MOL0     C72219   9.375  11.017  11.027 -0.7766  0.7932  0.0339
  548MOL0     C72220   9.369  11.160  10.980 -0.4425 -0.3472 -0.3695
  548MOL0     N72221   9.248  11.235  11.021 -1.0747 -0.4240 -0.3971
  548MOL0     C72222   9.137  11.256  10.940 -0.5849  0.1249 -0.1572
  548MOL0     C72223   9.055  11.321  11.023  0.9951 -0.3899 -0.7743
  548MOL0     C72224   8.927  11.368  10.976 -0.6850 -0.7748 -0.0089
  548MOL0     C72225   8.811  11.284  11.031 -0.6568 -0.3367  0.1470
  548MOL0     C72226   8.772  11.155  10.956  0.7454  0.0072  0.6032
  548MOL0     C72227   8.653  11.082  11.002 -0.6364 -0.0682 -0.7744
  548MOL0     O72228   8.530  11.154  10.981  0.4053  0.3843 -0.1424
  548MOL0     C72229   8.413  11.096  11.027  0.0370  0.6519  0.5820
  548MOL0     C72230   8.400  10.957  11.050  0.1133  0.3883 -0.2521
  548MOL0     C72231   8.281  10.906  11.096 -0.2333 -0.4526 -0.3325
  548MOL0     C72232   8.160  10.977  11.105 -0.2679 -0.3072  0.1677
  548MOL0     C72233   8.027  10.923  11.140 -0.1325 -0.4876 -0.4149
  548MOL0     O72234   7.922  11.016  11.164 -0.6585  0.2895 -0.5311
  548MOL0     C72235   7.813  10.966  11.226  0.8214  0.1890 -0.4156
  548MOL0     C72236   7.711  10.906  11.149 -0.5012 -0.3289  0.0233
  548MOL0     C72237   7.613  10.823  11.209  0.7962 -0.0621  0.0181
  548MOL0     C72238   7.614  10.804  11.348 -0.0513  0.5264 -0.1502
  548MOL0     O72239   7.508  10.729  11.409  0.6291  0.0834  0.2732
  548MOL0     C72240   7.426  10.804  11.499  0.5439 -0.0741 -0.0726
  548MOL0     C72241   7.280  10.828  11.456  0.1168  0.1608 -0.5129
  548MOL0     C72242   7.195  10.863  11.576  0.0751  0.7868 -0.4835
  548MOL0     C72243   7.061  10.912  11.546 -0.6130 -0.0302  0.3471
  548MOL0     C72244   6.968  10.910  11.674  0.0893  0.6404  0.2590
  548MOL0     C72245   7.018  10.996  11.789 -0.1904 -0.3417  0.1327
  548MOL0     C72246   6.957  10.957  11.923  0.2434  0.4211 -0.3623
  548MOL0     C72247   6.958  11.069  12.028 -0.3969  0.4658  0.6124
  548MOL0    Cl72248   7.140  11.083  12.086  0.3160  0.3267 -0.5528
  548MOL0     C72249   7.718  10.866  11.422  0.1307 -0.9031  0.2335
  548MOL0     C72250   7.807  10.945  11.362  0.1909 -0.3641 -0.0520
  548MOL0     O72251   8.025  10.799  11.153  0.0758 -0.7771  0.1148
  548MOL0     C72252   8.162  11.113  11.074 -0.5089  0.7208 -0.3893
  548MOL0     C72253   8.294  11.171  11.037  0.0626 -0.3427 -0.1871
  548MOL0     N72254   9.109  11.329  11.148 -0.3542  0.1119 -0.2545
  548MOL0     N72255   9.230  11.275  11.151  0.3677 -0.0224  0.0240
  548MOL0     C72256  10.262  10.696  10.894 -0.6012 -0.6154  0.3989
  548MOL0     C72257  10.398  10.735  10.884  0.5912  0.1329  0.0427
  548MOL0     C72258  10.797  10.899  10.804  0.0081 -0.4652 -0.3045
  548MOL0     C72259  10.858  10.810  10.711 -0.0098  0.1915 -0.3957
  548MOL0     C72260  10.994  10.836  10.676  0.6962  0.4813 -0.0748
  548MOL0     C72261  11.075  10.940  10.733 -0.3169  0.5481 -0.0639
  548MOL0     O72262  11.209  10.941  10.710  0.4602  0.5169 -0.1395
  548MOL0     C72263  11.240  11.002  10.586 -0.3256  0.2509  0.0541
  548MOL0     C72264  11.252  11.150  10.605 -0.4059 -0.4966  0.2635
  548MOL0     C72265  11.301  11.223  10.481 -0.3611  0.0799  0.4938
  548MOL0     C72266  11.310  11.374  10.488  0.0368 -0.5105 -0.6251
  548MOL0     C72267  11.372  11.430  10.612  0.3718 -0.4537 -0.1599
  548MOL0     C72268  11.416  11.473  10.715 -0.5223  0.9272 -0.5940
  548MOL0     C72269  11.011  11.022  10.823  0.4028 -0.9665 -1.0201
  548MOL0     C72270  10.875  11.005  10.859 -0.0970  0.2103 -0.3245
  548MOL0     H72271  10.401  10.811  10.550 -1.0316 -0.6647 -1.0257
  548MOL0     H72272  10.173  10.756  10.573  2.5133 -1.8182 -2.3091
  548MOL0     H72273   9.866  10.759  10.766  0.4118 -0.3647 -0.0982
  548MOL0     H72274   9.983  10.850  10.865  2.4750 -1.8255  2.6728
  548MOL0     H72275   9.954  10.691  11.048 -0.3498 -0.0852 -0.7307
  548MOL0     H72276   9.858  10.578  10.944  0.0248 -0.8200  1.9349
  548MOL0     H72277   9.717  10.712  11.093  0.3364  1.9334  0.8136
  548MOL0     H72278   9.676  10.724  10.919  0.8741 -1.8763  0.2846
  548MOL0     H72279   9.843  10.942  11.056 -1.7499  1.9257  2.2255
  548MOL0     H72280   9.771  10.943  10.898  1.0989 -1.2008 -0.3486
  548MOL0     H72281   9.642  11.088  11.057 -1.0598  0.1681 -0.4167
  548MOL0     H72282   9.613  10.960  11.166  0.4694  1.5420  0.2761
  548MOL0     H72283   9.486  10.837  10.999 -1.1660  0.2868  0.0238
  548MOL0     H72284   9.526  10.952  10.873  1.0923 -0.3980  0.3084
  548MOL0     H72285   9.291  10.963  10.982  0.5177 -3.3458  2.0633
  548MOL0     H72286   9.369  11.011  11.136  3.1702  1.9014  0.4898
  548MOL0     H72287   9.385  11.164  10.872 -0.6576 -0.9939 -0.4340
  548MOL0     H72288   9.451  11.214  11.028  0.9873 -2.3427 -0.4277
  548MOL0     H72289   9.123  11.232  10.835 -2.0932  2.2242 -0.4840
  548MOL0     H72290   8.931  11.346  10.869  2.3713 -2.3048  0.3180
  548MOL0     H72291   8.924  11.476  10.990  2.6406 -0.5152 -0.5192
  548MOL0     H72292   8.715  11.336  11.043 -2.5465 -3.2718 -1.2197
  548MOL0     H72293   8.830  11.262  11.136 -3.9483 -2.5581  0.4450
  548MOL0     H72294   8.753  11.176  10.850 -2.0751  0.0585  1.0313
  548MOL0     H72295   8.851  11.080  10.952 -0.5269 -1.3305 -0.4065
  548MOL0     H72296   8.671  11.065  11.108  2.1031  0.3307 -1.1109
  548MOL0     H72297   8.648  10.987  10.947 -0.8163 -0.4080 -0.1835
  548MOL0     H72298   8.478  10.881  11.049 -0.6152 -0.3956 -2.0362
  548MOL0     H72299   8.275  10.800  11.118  2.1921 -0.3970  0.8899
  548MOL0     H72300   7.720  10.915  11.042  3.0196  0.6104  0.2927
  548MOL0     H72301   7.540  10.774  11.145  0.8424  0.4303 -0.4189
  548MOL0     H72302   7.467  10.902  11.525  1.1036 -0.8219  2.0918
  548MOL0     H72303   7.433  10.749  11.593  2.5656 -1.8429 -1.1736
  548MOL0     H72304   7.234  10.742  11.406  0.6802  0.2945 -1.2736
  548MOL0     H72305   7.275  10.908  11.382  1.7120 -1.0670 -2.0232
  548MOL0     H72306   7.253  10.940  11.628  0.8573 -0.2409  0.2042
  548MOL0     H72307   7.205  10.775  11.640  0.3224  0.2712 -1.2177
  548MOL0     H72308   7.078  11.014  11.511  0.1910  0.2515  1.4669
  548MOL0     H72309   7.018  10.848  11.469  2.6019 -0.0622 -1.6030
  548MOL0     H72310   6.962  10.806  11.706  3.6431  0.0278 -0.6636
  548MOL0     H72311   6.866  10.941  11.649  0.5054  0.7689 -1.4630
  548MOL0     H72312   6.996  11.099  11.762  4.7860  0.9461 -0.0177
  548MOL0     H72313   7.125  10.980  11.804 -0.3226 -0.0689  1.5387
  548MOL0     H72314   6.850  10.938  11.911  0.0839  1.6009 -0.9498
  548MOL0     H72315   7.003  10.866  11.963  0.5945  1.3742  1.5401
  548MOL0     H72316   6.888  11.056  12.110 -0.4429  2.6628  1.0011
  548MOL0     H72317   6.937  11.160  11.970  1.8766 -1.2825 -3.3346
  548MOL0     H72318   7.730  10.844  11.528  2.4145 -1.1404 -0.0401
  548MOL0     H72319   7.894  10.982  11.417 -1.4296  0.3010  2.2038
  548MOL0     H72320   8.077  11.179  11.089 -1.9471 -1.5402  2.2488
  548MOL0     H72321   8.305  11.278  11.022 -0.7007 -0.2772 -0.3241
  548MOL0     H72322  10.224  10.678  10.995  0.7236  0.6415  1.1591
  548MOL0     H72323  10.456  10.733  10.975 -2.5169  0.1738  2.1726
  548MOL0     H72324  10.814  10.724  10.661 -1.7958 -0.0436  1.4451
  548MOL0     H72325  11.041  10.761  10.612  1.0874  0.1212  0.6234
  548MOL0     H72326  11.169  10.982  10.506 -1.6515 -1.0553  1.5079
  548MOL0     H72327  11.334  10.951  10.561 -0.5914 -0.5514  0.6762
  548MOL0     H72328  11.154  11.193  10.630 -0.0943  1.7376 -1.9558
  548MOL0     H72329  11.327  11.157  10.683  3.7355 -1.3313 -3.2549
  548MOL0     H72330  11.235  11.193  10.400  0.8082  1.4454 -1.0531
  548MOL0     H72331  11.401  11.185  10.456  0.9807  1.4685  3.2039
  548MOL0     H72332  11.366  11.404  10.399 -0.6359  0.6018 -0.7000
  548MOL0     H72333  11.214  11.425  10.479 -0.0172 -0.5557 -0.3020
  548MOL0     H72334  11.453  11.512  10.808  1.8193 -1.2979 -0.4834
  548MOL0     H72335  11.057  11.115  10.856  1.1491 -2.2955  1.9851
  548MOL0     H72336  10.837  11.070  10.938  3.3266  2.4803 -0.3172
  549MOL0     O72337   9.546   5.704   5.852  0.8889  0.2183  0.0715
  549MOL0     C72338   9.622   5.799   5.863 -0.6053  1.0010 -0.3757
  549MOL0     O72339   9.606   5.925   5.815 -0.8571 -0.2391  0.0517
  549MOL0     C72340   9.498   5.984   5.751 -0.3252 -0.2200  0.0198
  549MOL0     C72341   9.370   5.930   5.733  0.5031 -0.6119  0.9044
  549MOL0     C72342   9.268   6.019   5.685 -1.0943  0.1411 -0.5621
  549MOL0     C72343   9.291   6.151   5.639  0.0500  0.1921  0.1111
  549MOL0     O72344   9.192   6.238   5.592 -0.4489 -0.0599 -0.8271
  549MOL0     C72345   9.060   6.205   5.568 -0.0221  1.3816  0.0599
  549MOL0     C72346   9.068   6.114   5.443  0.6263 -0.0261 -0.2012
  549MOL0     C72347   8.931   6.034   5.437  0.4897 -0.3496  0.6855
  549MOL0     C72348   8.824   6.119   5.367  0.0755  0.5349  0.5123
  549MOL0     C72349   8.728   6.039   5.271 -0.0058 -0.1191  0.9350
  549MOL0     C72350   8.638   5.945   5.341 -0.0081 -1.0650  0.5287
  549MOL0     C72351   8.532   5.874   5.246 -0.8875 -0.4021  0.3189
  549MOL0     C72352   8.431   5.809   5.334  0.0579  0.6079 -0.2342
  549MOL0     N72353   8.322   5.899   5.381  0.1207  0.2852  0.3856
  549MOL0     C72354   8.232   5.945   5.295 -0.0515 -0.6255  0.3553
  549MOL0     C72355   8.161   6.043   5.356 -0.5741 -0.3751 -0.1732
  549MOL0     C72356   8.038   6.109   5.309  0.3583 -0.2558  0.9117
  549MOL0     C72357   7.923   6.011   5.317  0.4790 -0.0568  0.7231
  549MOL0     C72358   7.779   6.064   5.308 -0.3334  0.0092  0.3518
  549MOL0     C72359   7.741   6.074   5.158 -0.3732 -0.1597 -0.8030
  549MOL0     O72360   7.686   5.948   5.125 -0.8236  0.5561  0.5709
  549MOL0     C72361   7.556   5.928   5.138 -0.4348  0.5452  0.9044
  549MOL0     C72362   7.510   5.803   5.101 -0.0691  0.0733  0.2124
  549MOL0     C72363   7.380   5.766   5.132  0.7402  0.3351 -0.2179
  549MOL0     C72364   7.297   5.843   5.212  0.2771 -0.4820  0.1144
  549MOL0     C72365   7.175   5.798   5.264  0.6934 -0.1352 -0.2468
  549MOL0     O72366   7.118   5.691   5.202  0.0194  0.6787 -0.8655
  549MOL0     C72367   6.993   5.642   5.229  0.7102  0.3991 -0.0798
  549MOL0     C72368   6.881   5.709   5.290 -0.1830  0.2944 -0.2003
  549MOL0     C72369   6.757   5.643   5.314 -0.1018  0.2749 -0.1945
  549MOL0     C72370   6.738   5.508   5.285 -0.0934 -1.0899 -0.2975
  549MOL0     O72371   6.617   5.458   5.299  0.6906  0.1673 -0.5979
  549MOL0     C72372   6.615   5.320   5.294 -0.7437 -1.0216 -0.6349
  549MOL0     C72373   6.484   5.249   5.341 -0.4620 -0.1635  0.2756
  549MOL0     C72374   6.362   5.273   5.251 -0.6772 -0.1150 -0.6109
  549MOL0     C72375   6.253   5.187   5.307  0.6671 -0.2797  0.3997
  549MOL0     C72376   6.137   5.166   5.210  0.2744 -1.1436  0.4770
  549MOL0     C72377   6.000   5.123   5.273 -0.7348  0.5038  0.0264
  549MOL0     C72378   6.000   4.973   5.295 -0.5208  0.1886  0.2132
  549MOL0     C72379   5.870   4.922   5.365  0.7207  0.2527  0.4032
  549MOL0    Cl72380   5.738   4.945   5.247 -0.2177  0.0004 -0.1357
  549MOL0     C72381   6.852   5.437   5.231  0.6891  0.2298 -0.2203
  549MOL0     C72382   6.971   5.503   5.197  0.1516 -0.3358  0.6954
  549MOL0     O72383   7.124   5.866   5.353 -0.3031  0.1418 -0.4509
  549MOL0     C72384   7.339   5.978   5.233 -0.2964 -0.0859 -0.4947
  549MOL0     C72385   7.466   6.013   5.206 -0.2430  0.3442 -0.2542
  549MOL0     N72386   8.215   6.053   5.492 -0.0334 -0.1935  0.3341
  549MOL0     N72387   8.309   5.970   5.499  0.6239 -0.3624  0.7520
  549MOL0     C72388   9.425   6.200   5.643 -0.1236  0.2622  0.4216
  549MOL0     C72389   9.521   6.117   5.703 -0.2140 -0.2547 -0.8536
  549MOL0     C72390   9.766   5.761   5.916 -0.2860 -0.1788 -0.0177
  549MOL0     C72391   9.792   5.622   5.937 -0.4111  0.2060 -1.0047
  549MOL0     C72392   9.922   5.586   5.973  0.9678  0.8132 -0.1163
  549MOL0     C72393  10.024   5.677   6.009  0.0429  0.3710 -0.1998
  549MOL0     O72394  10.156   5.642   6.044 -0.5095  0.4973  0.8754
  549MOL0     C72395  10.195   5.496   6.027 -0.1366 -0.1427  0.4706
  549MOL0     C72396  10.334   5.475   6.099  0.4073 -0.1992 -0.0637
  549MOL0     C72397  10.440   5.529   6.003 -0.3844 -0.0233  0.3818
  549MOL0     C72398  10.573   5.545   6.073 -1.2155 -0.4800 -0.5153
  549MOL0     C72399  10.662   5.427   6.063 -0.1896 -0.4694 -0.2178
  549MOL0     C72400  10.730   5.325   6.057  1.1441  0.1456  0.2840
  549MOL0     C72401   9.993   5.815   5.998 -0.2734 -0.5767 -0.2457
  549MOL0     C72402   9.862   5.857   5.948  1.1172 -0.1645  0.5617
  549MOL0     H72403   9.336   5.827   5.745  1.1159 -1.2117 -1.8417
  549MOL0     H72404   9.169   5.979   5.670 -1.2908  1.1456 -2.1825
  549MOL0     H72405   8.999   6.294   5.547  1.2015  2.8173  2.2168
  549MOL0     H72406   9.019   6.145   5.650  1.0058 -4.7734 -3.3662
  549MOL0     H72407   9.137   6.030   5.452 -1.0859 -1.5329 -0.3491
  549MOL0     H72408   9.090   6.178   5.358  0.6626  1.9064  1.1920
  549MOL0     H72409   8.898   5.997   5.534  0.4713  1.9056  1.5768
  549MOL0     H72410   8.949   5.944   5.376  0.4184  0.1646 -0.1102
  549MOL0     H72411   8.775   6.170   5.451  0.1589  0.8645  0.3646
  549MOL0     H72412   8.870   6.196   5.304 -0.4054  0.9857  0.7079
  549MOL0     H72413   8.787   5.984   5.197 -0.8172  0.6944 -0.3494
  549MOL0     H72414   8.672   6.121   5.225  0.4770  2.2233  4.1733
  549MOL0     H72415   8.584   6.006   5.414  3.0114  2.9566 -0.2290
  549MOL0     H72416   8.693   5.865   5.391  2.0892  0.7392  1.2375
  549MOL0     H72417   8.487   5.955   5.189 -0.6694  0.0729  0.8030
  549MOL0     H72418   8.573   5.797   5.180 -0.4297  0.1469 -0.0441
  549MOL0     H72419   8.485   5.766   5.419 -1.1955 -1.7950 -0.5394
  549MOL0     H72420   8.383   5.727   5.279 -2.0376  1.9602 -0.5230
  549MOL0     H72421   8.218   5.912   5.193 -0.0738  0.8264 -0.1367
  549MOL0     H72422   8.053   6.139   5.205  2.4330 -0.4242  1.1095
  549MOL0     H72423   8.005   6.191   5.373 -0.8503 -1.3585  1.7616
  549MOL0     H72424   7.926   5.952   5.409 -0.4757 -2.4317 -0.6891
  549MOL0     H72425   7.947   5.942   5.236  2.3483  0.2096  1.0039
  549MOL0     H72426   7.712   5.988   5.348 -0.7935  0.3475  0.2305
  549MOL0     H72427   7.761   6.163   5.351 -2.0431  0.2319 -0.7575
  549MOL0     H72428   7.827   6.092   5.094 -0.0740  0.3811 -0.2607
  549MOL0     H72429   7.678   6.162   5.143 -0.9698  0.5983  4.1561
  549MOL0     H72430   7.571   5.728   5.051  1.6614  0.3220  1.8298
  549MOL0     H72431   7.346   5.669   5.095  1.2037 -0.1829  0.6763
  549MOL0     H72432   6.893   5.809   5.330  0.0352  1.1502 -2.2847
  549MOL0     H72433   6.683   5.701   5.370  0.7959 -0.6482  2.0675
  549MOL0     H72434   6.694   5.284   5.361 -1.4450  0.1808  0.8952
  549MOL0     H72435   6.632   5.293   5.190  2.5455  0.1704 -0.5496
  549MOL0     H72436   6.453   5.287   5.439 -1.8496  1.1758 -0.6470
  549MOL0     H72437   6.495   5.141   5.357  0.8266 -0.6006 -2.8190
  549MOL0     H72438   6.377   5.246   5.146  2.2110  0.6031 -0.4692
  549MOL0     H72439   6.325   5.376   5.258 -1.8835 -0.3943 -2.2750
  549MOL0     H72440   6.296   5.097   5.353  0.4952 -0.3761  0.3680
  549MOL0     H72441   6.203   5.244   5.386  1.4810  0.6108  0.2991
  549MOL0     H72442   6.161   5.100   5.126 -0.7483 -0.5643 -0.2908
  549MOL0     H72443   6.121   5.260   5.156  3.9501 -0.1715  0.7607
  549MOL0     H72444   5.923   5.138   5.197  1.1442  2.1144 -1.6843
  549MOL0     H72445   5.982   5.172   5.370  1.0628 -2.4383  2.0321
  549MOL0     H72446   6.001   4.930   5.194 -0.7854  1.9302 -0.5819
  549MOL0     H72447   6.084   4.938   5.355  0.0244  0.9372 -0.0958
  549MOL0     H72448   5.854   4.969   5.462 -2.2908  0.3064 -0.0263
  549MOL0     H72449   5.868   4.815   5.388 -0.7653 -0.1383 -1.3456
  549MOL0     H72450   6.857   5.334   5.197  0.1270  0.2182 -0.2882
  549MOL0     H72451   7.044   5.438   5.150 -0.5875 -0.4362 -0.3487
  549MOL0     H72452   7.276   6.043   5.294  1.3150  0.1586  0.9803
  549MOL0     H72453   7.496   6.109   5.247 -0.4661 -0.8420  2.9800
  549MOL0     H72454   9.463   6.300   5.622  3.7857 -1.0176  0.5741
  549MOL0     H72455   9.625   6.146   5.709  0.3961 -2.3675 -0.5197
  549MOL0     H72456   9.721   5.540   5.930 -1.8268  0.6984  3.7172
  549MOL0     H72457   9.943   5.483   6.000  1.5234  1.4880  2.2108
  549MOL0     H72458  10.199   5.481   5.919 -0.2137  1.3646  0.2406
  549MOL0     H72459  10.123   5.419   6.057 -0.0871 -1.3988 -2.3251
  549MOL0     H72460  10.337   5.512   6.202  2.1027  1.9326 -0.8208
  549MOL0     H72461  10.343   5.368   6.119 -4.3769 -0.5026  1.8202
  549MOL0     H72462  10.408   5.624   5.959 -1.2047 -0.8444 -0.8798
  549MOL0     H72463  10.459   5.477   5.909 -1.2497 -0.3310  0.3635
  549MOL0     H72464  10.617   5.634   6.028 -1.6233  0.6098  1.1382
  549MOL0     H72465  10.558   5.567   6.180  1.8932 -0.3069 -0.0111
  549MOL0     H72466  10.797   5.242   6.047 -1.0979 -2.0398  1.9590
  549MOL0     H72467  10.065   5.892   6.023 -0.1025  0.3611 -3.3308
  549MOL0     H72468   9.845   5.962   5.928  2.0340 -0.0804  0.1830
  550MOL0     O72469   7.407   3.254   1.510  0.5729  0.2842  0.8728
  550MOL0     C72470   7.504   3.176   1.496 -0.0626  0.0009  0.5826
  550MOL0     O72471   7.519   3.061   1.554  0.7709 -0.3999 -0.0534
  550MOL0     C72472   7.419   3.003   1.633 -0.4351  0.4440  0.9000
  550MOL0     C72473   7.447   2.932   1.749 -0.7120 -0.5518  0.0506
  550MOL0     C72474   7.342   2.885   1.829 -0.0461 -0.1047  0.1428
  550MOL0     C72475   7.205   2.901   1.789 -0.1674  0.0200 -0.5866
  550MOL0     O72476   7.112   2.838   1.873  0.0787  0.3359  0.3820
  550MOL0     C72477   6.973   2.849   1.833  0.8555  0.9172 -0.2777
  550MOL0     C72478   6.888   2.750   1.909 -0.6642 -0.3961  0.3911
  550MOL0     C72479   6.736   2.765   1.873 -0.2980 -0.0348 -0.4791
  550MOL0     C72480   6.658   2.668   1.955 -0.0907  0.2801  0.4793
  550MOL0     C72481   6.512   2.707   1.941 -0.0157 -0.7588 -0.3223
  550MOL0     C72482   6.423   2.611   2.022 -0.0281  0.5789  0.0205
  550MOL0     C72483   6.274   2.627   2.025 -0.4271  0.8670 -0.4395
  550MOL0     C72484   6.194   2.502   2.053 -0.8675  0.3163  0.1579
  550MOL0     N72485   6.053   2.532   2.052  0.5014 -0.3973  0.3930
  550MOL0     C72486   5.982   2.605   2.145  0.5383 -0.6866  0.0804
  550MOL0     C72487   5.850   2.563   2.126  0.0071 -0.5162 -1.2078
  550MOL0     C72488   5.730   2.609   2.207  0.0449  0.6034  0.4898
  550MOL0     C72489   5.611   2.627   2.118  0.3321  0.4406  0.3350
  550MOL0     C72490   5.519   2.724   2.184  0.2487 -0.3880  0.1947
  550MOL0     C72491   5.399   2.751   2.090 -0.5005 -0.4618  0.0564
  550MOL0     O72492   5.311   2.854   2.138  0.0355 -0.1234  0.4524
  550MOL0     C72493   5.187   2.818   2.162 -0.0340 -0.0760 -0.3348
  550MOL0     C72494   5.124   2.859   2.284 -0.4100 -0.1869 -0.7460
  550MOL0     C72495   4.999   2.805   2.317  0.6915  0.6413  0.2292
  550MOL0     C72496   4.920   2.732   2.221 -0.0379 -0.2799 -0.6247
  550MOL0     C72497   4.784   2.687   2.260  0.0192 -0.3418 -0.3223
  550MOL0     O72498   4.715   2.611   2.168  0.0311 -0.0677  0.7445
  550MOL0     C72499   4.582   2.589   2.179 -0.0253  0.5678 -0.2695
  550MOL0     C72500   4.529   2.463   2.198  0.0033  0.0503  0.6003
  550MOL0     C72501   4.394   2.436   2.206  0.4639 -0.0299 -0.0680
  550MOL0     C72502   4.307   2.544   2.197  0.7881 -0.2565 -0.0949
  550MOL0     O72503   4.169   2.528   2.213  0.4294 -0.0226  0.8670
  550MOL0     C72504   4.114   2.554   2.345 -0.0335 -0.5445 -0.0482
  550MOL0     C72505   3.966   2.523   2.351  0.7359  0.4491 -0.2663
  550MOL0     C72506   3.931   2.370   2.370  0.5627 -0.1527 -0.3375
  550MOL0     C72507   3.784   2.358   2.379 -0.0354  0.1836  0.7896
  550MOL0     C72508   3.749   2.207   2.363 -0.6938 -0.3634  0.1912
  550MOL0     C72509   3.615   2.187   2.423  0.2945  0.1994 -0.3202
  550MOL0     C72510   3.563   2.041   2.426  0.4185 -0.1679 -1.1270
  550MOL0     C72511   3.467   2.002   2.315  0.4723 -0.0271 -0.7422
  550MOL0    Cl72512   3.502   2.083   2.156  0.2044 -0.1605 -0.0210
  550MOL0     C72513   4.359   2.671   2.176 -0.8059  0.0900 -0.1330
  550MOL0     C72514   4.492   2.694   2.161  0.2950  0.2679  0.1020
  550MOL0     O72515   4.736   2.727   2.368  0.6696 -0.2335  0.1726
  550MOL0     C72516   4.978   2.710   2.099 -0.1580 -0.0487 -0.5447
  550MOL0     C72517   5.108   2.750   2.064  0.8266  0.0716 -0.0731
  550MOL0     N72518   5.849   2.465   2.020 -0.2926 -0.5311 -0.5432
  550MOL0     N72519   5.971   2.451   1.978  0.4218  0.1638 -0.0224
  550MOL0     C72520   7.177   2.971   1.669  0.4773  0.6797 -0.0875
  550MOL0     C72521   7.281   3.020   1.595 -0.1346  1.1749  0.1630
  550MOL0     C72522   7.608   3.224   1.400  0.2239  0.1825 -0.4452
  550MOL0     C72523   7.570   3.317   1.297 -0.3046 -1.0059 -0.8366
  550MOL0     C72524   7.670   3.372   1.216 -0.1017  0.3181  0.9771
  550MOL0     C72525   7.804   3.323   1.221 -0.4868  0.2576  0.0130
  550MOL0     O72526   7.899   3.383   1.135  0.3249  0.4518 -0.4472
  550MOL0     C72527   8.041   3.344   1.139  0.0583  0.0874  0.3228
  550MOL0     C72528   8.101   3.394   1.007  0.0208 -0.6634 -1.0974
  550MOL0     C72529   8.252   3.390   1.004 -0.2946  0.0819 -0.4221
  550MOL0     C72530   8.306   3.491   0.899 -0.7880  0.0713 -0.1852
  550MOL0     C72531   8.451   3.511   0.904  0.0829 -0.4769 -0.4942
  550MOL0     C72532   8.571   3.527   0.910  0.2708 -0.2941  0.5114
  550MOL0     C72533   7.836   3.218   1.314  0.4134  0.4798  0.0349
  550MOL0     C72534   7.734   3.169   1.403 -0.2707 -0.3562 -0.4797
  550MOL0     H72535   7.547   2.910   1.782 -0.7896 -1.1214 -0.0953
  550MOL0     H72536   7.358   2.828   1.920  0.2669  0.6171  0.5484
  550MOL0     H72537   6.963   2.828   1.726 -2.1313  0.8550 -0.0789
  550MOL0     H72538   6.952   2.953   1.856  3.2063  1.3957 -0.0828
  550MOL0     H72539   6.912   2.776   2.012  2.6027  1.4014 -0.6819
  550MOL0     H72540   6.922   2.650   1.878  3.4471  1.4721 -2.1383
  550MOL0     H72541   6.722   2.759   1.765 -1.6685  1.0545 -0.4003
  550MOL0     H72542   6.694   2.858   1.913 -0.8863 -1.1687  1.7067
  550MOL0     H72543   6.665   2.567   1.912  0.9375  0.8974 -0.8655
  550MOL0     H72544   6.693   2.670   2.058  1.0498 -0.2742  0.1249
  550MOL0     H72545   6.481   2.706   1.836 -0.5538  0.3603 -0.1925
  550MOL0     H72546   6.490   2.808   1.977 -1.3600 -1.0192 -0.3496
  550MOL0     H72547   6.447   2.621   2.128 -1.0692 -0.5450  0.3931
  550MOL0     H72548   6.449   2.511   1.984  1.4468  0.4091  1.3937
  550MOL0     H72549   6.251   2.692   2.110  1.4686  0.5678  0.3483
  550MOL0     H72550   6.235   2.669   1.931  3.3703  1.3803 -1.9847
  550MOL0     H72551   6.213   2.451   2.148  0.3520 -2.0367 -1.2639
  550MOL0     H72552   6.204   2.430   1.972 -3.6705 -0.1247  0.1007
  550MOL0     H72553   6.006   2.683   2.216 -1.0498 -0.7713  0.7560
  550MOL0     H72554   5.758   2.688   2.278  0.2212  0.4773  0.5613
  550MOL0     H72555   5.702   2.521   2.265 -1.0569  0.8594  0.3641
  550MOL0     H72556   5.555   2.533   2.108 -1.5811  1.6803 -1.4980
  550MOL0     H72557   5.641   2.659   2.017  1.3714 -2.5907 -0.4195
  550MOL0     H72558   5.485   2.684   2.280  2.1289 -0.6255  0.8030
  550MOL0     H72559   5.571   2.819   2.199  1.2043 -0.4949 -2.0523
  550MOL0     H72560   5.346   2.656   2.080 -1.9824  0.0111  2.4729
  550MOL0     H72561   5.433   2.764   1.987  3.2230 -0.5371  1.1217
  550MOL0     H72562   5.182   2.905   2.363 -1.6968 -0.9781  0.7116
  550MOL0     H72563   4.950   2.832   2.410  2.4568  2.7919  0.6233
  550MOL0     H72564   4.599   2.380   2.202  0.9298  0.8617  1.5988
  550MOL0     H72565   4.350   2.337   2.205  0.7015 -0.1381 -0.0714
  550MOL0     H72566   4.138   2.655   2.381  1.8773 -0.9162 -0.1956
  550MOL0     H72567   4.154   2.479   2.414 -0.2311 -0.0364  0.6306
  550MOL0     H72568   3.919   2.546   2.255  0.8380  1.0220 -0.1803
  550MOL0     H72569   3.919   2.582   2.429 -1.6360  0.0540 -1.3015
  550MOL0     H72570   3.973   2.324   2.460 -2.5520 -2.1792  0.2692
  550MOL0     H72571   3.961   2.319   2.278 -2.1652  1.2014 -2.1281
  550MOL0     H72572   3.744   2.403   2.470 -1.8890 -2.2572  1.2634
  550MOL0     H72573   3.741   2.410   2.292 -0.0308 -1.6180 -0.3419
  550MOL0     H72574   3.814   2.151   2.431 -0.0924 -1.6336 -1.3517
  550MOL0     H72575   3.762   2.174   2.260  2.2433  2.4138 -0.4817
  550MOL0     H72576   3.543   2.236   2.358 -0.7817  0.9790  1.3968
  550MOL0     H72577   3.617   2.222   2.526 -0.6430 -1.3617  0.2568
  550MOL0     H72578   3.645   1.969   2.423 -1.3022 -2.4909  1.6581
  550MOL0     H72579   3.517   2.017   2.523  0.7236  0.6226 -0.7739
  550MOL0     H72580   3.360   2.013   2.336 -0.0517  0.3535 -3.2591
  550MOL0     H72581   3.470   1.894   2.297 -2.2203 -0.3591  0.3222
  550MOL0     H72582   4.289   2.754   2.166 -0.2268  0.8056  1.4865
  550MOL0     H72583   4.530   2.794   2.144 -0.4566  0.5387 -0.0316
  550MOL0     H72584   4.921   2.652   2.028 -4.6083  0.9938  1.8336
  550MOL0     H72585   5.141   2.704   1.971  1.9520 -1.7515  1.1635
  550MOL0     H72586   7.072   2.989   1.646 -0.1145  1.6088  2.8426
  550MOL0     H72587   7.241   3.084   1.517 -1.3941  3.8372  2.7831
  550MOL0     H72588   7.466   3.346   1.289 -1.1795 -3.6143  0.1021
  550MOL0     H72589   7.621   3.435   1.144 -2.0441 -0.1234  1.8415
  550MOL0     H72590   8.046   3.236   1.151 -2.4974 -0.0510  0.6229
  550MOL0     H72591   8.083   3.402   1.222 -3.8488  0.2659  2.4181
  550MOL0     H72592   8.059   3.334   0.925 -0.7978 -2.9512  0.8707
  550MOL0     H72593   8.070   3.498   0.993  1.8948  0.4985  2.3325
  550MOL0     H72594   8.289   3.290   0.976 -1.9900 -0.8872  0.5994
  550MOL0     H72595   8.298   3.425   1.097  0.8182 -0.7805 -0.6128
  550MOL0     H72596   8.284   3.447   0.802  1.5953 -0.0986 -0.7042
  550MOL0     H72597   8.254   3.587   0.912 -0.2940  0.3679 -0.3874
  550MOL0     H72598   8.676   3.547   0.913  0.4114 -0.4847 -1.4560
  550MOL0     H72599   7.937   3.179   1.310  0.2184 -0.4186  2.2265
  550MOL0     H72600   7.765   3.092   1.472 -1.6078  1.0329  1.8029
  551MOL0     O72601  10.369   2.735   9.586 -0.5104 -0.2723 -0.2948
  551MOL0     C72602  10.425   2.622   9.575  0.0556 -0.1399 -0.0049
  551MOL0     O72603  10.371   2.506   9.536  0.1193 -0.7241 -0.8191
  551MOL0     C72604  10.243   2.493   9.488 -0.8111  0.4689 -0.0126
  551MOL0     C72605  10.140   2.495   9.574  0.1363 -0.3324 -0.3791
  551MOL0     C72606  10.009   2.488   9.516  0.5923  0.3913  0.4072
  551MOL0     C72607   9.991   2.474   9.379 -0.7298 -0.1324 -0.5375
  551MOL0     O72608   9.862   2.453   9.338 -0.0576 -0.7918 -0.3770
  551MOL0     C72609   9.839   2.434   9.198 -0.6985 -1.1437 -0.3510
  551MOL0     C72610   9.702   2.363   9.180 -0.2429  0.5978 -0.3876
  551MOL0     C72611   9.577   2.461   9.221 -0.6862  0.5460 -1.1982
  551MOL0     C72612   9.445   2.384   9.221 -0.2777  0.9366  0.0483
  551MOL0     C72613   9.324   2.476   9.271  0.1015 -0.1817  0.3485
  551MOL0     C72614   9.301   2.472   9.431  0.6207 -0.6719 -0.0816
  551MOL0     C72615   9.228   2.594   9.485  0.2609 -0.2613  0.0137
  551MOL0     C72616   9.078   2.596   9.456 -0.1809 -0.6652  0.6753
  551MOL0     N72617   9.000   2.700   9.528  1.1291 -0.1150  0.0764
  551MOL0     C72618   8.862   2.694   9.554 -0.3235 -0.8638 -0.6966
  551MOL0     C72619   8.842   2.807   9.631  0.0668  0.7834  0.3410
  551MOL0     C72620   8.708   2.840   9.679  0.8668  0.2559 -0.0493
  551MOL0     C72621   8.612   2.890   9.571  0.0795  0.6609 -0.9963
  551MOL0     C72622   8.474   2.907   9.633 -0.3740 -1.2055  0.3230
  551MOL0     C72623   8.368   2.964   9.532  0.0983  0.2340  0.0972
  551MOL0     O72624   8.356   2.866   9.428  0.1002  0.9186  0.4902
  551MOL0     C72625   8.228   2.816   9.411 -0.7395  0.2902 -0.4112
  551MOL0     C72626   8.202   2.777   9.290  0.2340  0.5967  0.8564
  551MOL0     C72627   8.070   2.735   9.242  0.6743 -0.2040 -0.2704
  551MOL0     C72628   7.973   2.718   9.347  0.2697  0.4690  0.1420
  551MOL0     C72629   7.833   2.665   9.323 -0.0706 -0.0377 -0.3689
  551MOL0     O72630   7.761   2.607   9.426  0.4936  0.0205  0.2848
  551MOL0     C72631   7.629   2.582   9.412  0.0279 -0.7398 -0.7679
  551MOL0     C72632   7.544   2.624   9.516 -0.3377  0.2172  0.6360
  551MOL0     C72633   7.402   2.601   9.521  0.2525 -0.0773 -0.7212
  551MOL0     C72634   7.344   2.547   9.414 -0.2046  0.3325 -0.2326
  551MOL0     O72635   7.206   2.541   9.399 -0.2082 -0.6372 -0.4291
  551MOL0     C72636   7.131   2.460   9.491  0.9191  0.1732 -0.6980
  551MOL0     C72637   7.151   2.307   9.482  0.2299 -0.0441  0.0754
  551MOL0     C72638   7.097   2.249   9.353  0.0357  0.4319 -0.3764
  551MOL0     C72639   7.151   2.106   9.330 -0.5677  0.2044  1.0994
  551MOL0     C72640   7.128   2.068   9.178  0.1895 -0.3905  0.9895
  551MOL0     C72641   7.186   1.932   9.138 -0.2278 -0.3412 -0.2791
  551MOL0     C72642   7.153   1.888   8.996  0.2054  0.4242  0.9998
  551MOL0     C72643   7.235   1.762   8.955 -0.1085 -0.1253 -0.4461
  551MOL0    Cl72644   7.166   1.716   8.800  0.1260  0.0246  0.0363
  551MOL0     C72645   7.425   2.512   9.303  0.2477  1.3481  0.6649
  551MOL0     C72646   7.565   2.513   9.306 -0.2949 -0.1785 -0.1166
  551MOL0     O72647   7.788   2.678   9.207  0.2112  0.0284  0.0301
  551MOL0     C72648   8.004   2.764   9.475  0.0444  0.3109 -0.0534
  551MOL0     C72649   8.123   2.820   9.502 -0.4333 -0.9993  0.3217
  551MOL0     N72650   8.960   2.875   9.651 -0.3146 -0.6432  0.1539
  551MOL0     N72651   9.059   2.806   9.590 -0.2546 -0.1477 -0.3759
  551MOL0     C72652  10.108   2.457   9.297 -0.0563  0.1122  0.3463
  551MOL0     C72653  10.234   2.467   9.353  0.0822  0.5613 -1.1474
  551MOL0     C72654  10.562   2.615   9.621 -0.4755  0.2108 -0.6756
  551MOL0     C72655  10.645   2.499   9.614 -0.0667 -0.1003 -0.5998
  551MOL0     C72656  10.782   2.493   9.655  0.0145 -0.4564 -0.5135
  551MOL0     C72657  10.841   2.609   9.697 -0.3983  0.1897  0.2940
  551MOL0     O72658  10.972   2.598   9.729 -0.0340 -0.5107 -0.6039
  551MOL0     C72659  11.054   2.703   9.700  0.7576 -0.2376  1.0040
  551MOL0     C72660  11.191   2.643   9.653 -0.9120  0.7273  0.3488
  551MOL0     C72661  11.198   2.603   9.507  0.1437  0.5893  0.2180
  551MOL0     C72662  11.263   2.464   9.475 -0.6270 -0.0359 -0.0948
  551MOL0     C72663  11.188   2.355   9.541  0.0349 -0.0936  0.2641
  551MOL0     C72664  11.123   2.279   9.609  0.2265  0.3964  0.6183
  551MOL0     C72665  10.766   2.726   9.707 -0.8043  0.1053 -0.2069
  551MOL0     C72666  10.630   2.734   9.665 -0.2347  0.1179  0.2867
  551MOL0     H72667  10.157   2.499   9.681  0.0439 -0.9086 -0.3425
  551MOL0     H72668   9.929   2.492   9.589  1.8721 -1.0524  1.9716
  551MOL0     H72669   9.918   2.366   9.163  0.1003  0.7508 -2.4243
  551MOL0     H72670   9.845   2.531   9.149  1.9430 -1.3038 -0.4939
  551MOL0     H72671   9.713   2.274   9.243 -1.4962 -0.3312 -1.4071
  551MOL0     H72672   9.691   2.333   9.076 -2.4610  0.0500 -0.0668
  551MOL0     H72673   9.579   2.542   9.148  3.0766  0.0558 -1.8867
  551MOL0     H72674   9.591   2.511   9.317 -0.6053 -1.8813  0.1237
  551MOL0     H72675   9.411   2.350   9.122  1.7211  0.4505 -0.5086
  551MOL0     H72676   9.446   2.299   9.290 -0.9904  1.1301  0.3049
  551MOL0     H72677   9.228   2.453   9.223  1.1325 -0.8105 -1.4916
  551MOL0     H72678   9.349   2.580   9.251  2.8121 -1.0220 -1.0723
  551MOL0     H72679   9.400   2.464   9.478  0.0372 -2.0823  1.0037
  551MOL0     H72680   9.251   2.382   9.468  0.3671  0.8540  3.8443
  551MOL0     H72681   9.248   2.602   9.592 -1.1764  2.3536  0.1745
  551MOL0     H72682   9.264   2.689   9.443  1.9744 -0.4219  0.9974
  551MOL0     H72683   9.034   2.511   9.510 -1.1716  0.6999  2.1046
  551MOL0     H72684   9.068   2.580   9.348  2.5053 -3.0116  0.6706
  551MOL0     H72685   8.794   2.611   9.538  1.0044 -1.6003 -3.0877
  551MOL0     H72686   8.723   2.921   9.752  1.0548  0.7413 -0.6182
  551MOL0     H72687   8.669   2.748   9.723  2.8852 -1.6584 -1.9739
  551MOL0     H72688   8.609   2.822   9.485 -2.1313 -0.5787 -0.0174
  551MOL0     H72689   8.644   2.985   9.527 -0.4752  1.9860  1.3146
  551MOL0     H72690   8.447   2.806   9.663  1.8997 -1.7856  0.5978
  551MOL0     H72691   8.492   2.972   9.719  0.5924 -0.5489 -0.3416
  551MOL0     H72692   8.427   3.050   9.499 -0.3263  1.0483  1.3829
  551MOL0     H72693   8.278   2.990   9.588 -0.5803 -3.9737  1.3321
  551MOL0     H72694   8.287   2.769   9.223  0.4373 -0.9972  1.2807
  551MOL0     H72695   8.051   2.708   9.139 -0.1378  2.5337 -0.9153
  551MOL0     H72696   7.599   2.686   9.585 -1.8141  1.1754  1.0000
  551MOL0     H72697   7.338   2.642   9.598 -0.0622 -0.7059 -0.6415
  551MOL0     H72698   7.026   2.476   9.464  1.2040 -0.2619 -2.1575
  551MOL0     H72699   7.140   2.487   9.596 -2.2692 -0.0914 -0.2416
  551MOL0     H72700   7.100   2.258   9.566  3.2061 -1.2043  1.3691
  551MOL0     H72701   7.259   2.289   9.495 -0.6475 -3.8969  6.1338
  551MOL0     H72702   7.123   2.310   9.265  1.4595 -1.2500 -1.1572
  551MOL0     H72703   6.987   2.253   9.355 -0.0811  2.4831 -3.3968
  551MOL0     H72704   7.259   2.093   9.344  0.1840  0.2342 -3.2339
  551MOL0     H72705   7.096   2.039   9.397 -1.5062  0.1602  0.3014
  551MOL0     H72706   7.187   2.132   9.110 -0.6415 -0.7983 -0.1492
  551MOL0     H72707   7.023   2.062   9.148 -0.2259 -0.2948  2.3915
  551MOL0     H72708   7.136   1.859   9.201  0.7530  0.4914  1.5227
  551MOL0     H72709   7.295   1.927   9.146 -0.1707  0.9414 -0.0162
  551MOL0     H72710   7.044   1.882   8.994  0.1835  0.4564  1.8147
  551MOL0     H72711   7.194   1.965   8.930 -0.5667  0.8301  0.9908
  551MOL0     H72712   7.222   1.685   9.032 -0.3428 -0.4135 -0.7710
  551MOL0     H72713   7.340   1.793   8.949  0.0948 -0.7913 -0.3941
  551MOL0     H72714   7.375   2.471   9.215  3.9052  1.4725 -1.7048
  551MOL0     H72715   7.622   2.472   9.224  0.5405  1.3394 -0.3163
  551MOL0     H72716   7.916   2.769   9.539  0.4040  0.5786  0.4200
  551MOL0     H72717   8.143   2.848   9.605 -2.0736 -1.0431  0.6738
  551MOL0     H72718  10.132   2.424   9.196  1.6707  0.3587  0.6381
  551MOL0     H72719  10.325   2.456   9.296  0.1348 -0.2506 -0.9186
  551MOL0     H72720  10.605   2.403   9.583  0.2085 -0.0521 -1.1292
  551MOL0     H72721  10.837   2.400   9.650 -1.2647 -1.2765  0.1354
  551MOL0     H72722  11.070   2.769   9.786 -1.3411 -2.3015  3.1363
  551MOL0     H72723  11.015   2.765   9.619  0.8545 -0.2374  0.9585
  551MOL0     H72724  11.268   2.718   9.671 -0.1462 -0.4171  2.1924
  551MOL0     H72725  11.205   2.557   9.720 -0.3207  1.5458  1.2943
  551MOL0     H72726  11.238   2.687   9.449  3.4498  0.6956  2.3874
  551MOL0     H72727  11.094   2.587   9.479  0.8224 -0.0072 -2.1746
  551MOL0     H72728  11.276   2.440   9.369  1.7368  2.3224 -0.4464
  551MOL0     H72729  11.364   2.474   9.515 -1.4221  1.2705  1.7186
  551MOL0     H72730  11.061   2.229   9.681 -0.6304  3.3416  2.1221
  551MOL0     H72731  10.817   2.815   9.743  2.1564 -0.9050 -1.5594
  551MOL0     H72732  10.579   2.829   9.677 -4.4840 -1.9574  0.6247
  552MOL0     O72733   5.430   1.560   3.629  0.2164 -0.2232 -0.7807
  552MOL0     C72734   5.426   1.591   3.512 -0.4317 -0.2991  0.1049
  552MOL0     O72735   5.319   1.598   3.424 -0.4804  0.3821 -0.1785
  552MOL0     C72736   5.186   1.593   3.466 -0.4373 -0.0965 -1.2220
  552MOL0     C72737   5.128   1.565   3.595 -0.3008 -0.2464  0.1232
  552MOL0     C72738   4.989   1.572   3.600  0.4401 -0.1434 -0.1639
  552MOL0     C72739   4.900   1.620   3.492  0.5283  0.5866  0.0765
  552MOL0     O72740   4.765   1.623   3.490 -0.1103  0.0857 -0.4638
  552MOL0     C72741   4.690   1.573   3.605  1.0042 -0.1809 -0.3549
  552MOL0     C72742   4.545   1.629   3.608 -0.0672  0.7679 -0.4317
  552MOL0     C72743   4.487   1.614   3.750  0.6913 -0.7715  0.1903
  552MOL0     C72744   4.338   1.654   3.763 -0.9370  0.2594 -0.1529
  552MOL0     C72745   4.285   1.633   3.903 -0.0883 -1.1167 -0.4820
  552MOL0     C72746   4.137   1.659   3.936 -0.0702  0.0087  0.3616
  552MOL0     C72747   4.081   1.776   3.857  0.0576 -0.5202 -0.1738
  552MOL0     C72748   3.950   1.824   3.906  0.1376 -0.3996 -0.6109
  552MOL0     N72749   3.892   1.934   3.820  0.0763 -0.0982  0.5414
  552MOL0     C72750   3.953   2.054   3.797  0.5192  0.0366  0.3563
  552MOL0     C72751   3.857   2.133   3.735 -0.1765  0.4966 -0.0057
  552MOL0     C72752   3.857   2.283   3.713 -0.4666 -0.1353  1.1637
  552MOL0     C72753   3.992   2.322   3.657  1.1896  0.5085 -0.2483
  552MOL0     C72754   4.022   2.469   3.647 -0.5021 -0.6613  0.4063
  552MOL0     C72755   3.920   2.555   3.585  0.9258 -0.4958  0.3506
  552MOL0     O72756   3.865   2.635   3.693 -0.2691  0.6021 -0.2940
  552MOL0     C72757   3.734   2.633   3.721 -0.3912  0.1996  0.8831
  552MOL0     C72758   3.641   2.632   3.616 -0.2999 -0.3652  0.2135
  552MOL0     C72759   3.504   2.630   3.644  0.0577  0.0421  0.4919
  552MOL0     C72760   3.455   2.634   3.777 -0.5755 -0.5123 -0.5323
  552MOL0     C72761   3.311   2.627   3.806  0.2999 -0.7229  0.6957
  552MOL0     O72762   3.236   2.593   3.696 -0.0748 -0.0998 -0.3064
  552MOL0     C72763   3.105   2.592   3.713  0.2642 -0.3237  0.1091
  552MOL0     C72764   3.030   2.515   3.809 -0.5403 -0.6112  0.3216
  552MOL0     C72765   2.890   2.505   3.800 -0.2464  0.5790  0.1535
  552MOL0     C72766   2.821   2.555   3.693 -0.7477 -0.7082 -0.8579
  552MOL0     O72767   2.691   2.543   3.668  0.5663  0.0880 -0.7723
  552MOL0     C72768   2.612   2.476   3.764 -0.1869 -0.4451 -0.1431
  552MOL0     C72769   2.470   2.499   3.722  0.4114  0.0301 -0.3925
  552MOL0     C72770   2.408   2.621   3.788  0.6623 -0.8869 -0.0078
  552MOL0     C72771   2.257   2.634   3.768 -0.3017 -0.6929 -0.3062
  552MOL0     C72772   2.171   2.615   3.900  0.0244  0.6437  0.3839
  552MOL0     C72773   2.190   2.717   4.016 -0.3263 -0.6479 -0.0388
  552MOL0     C72774   2.147   2.672   4.151  0.6396 -1.0815 -0.2688
  552MOL0     C72775   2.191   2.772   4.254 -0.7121 -0.4894 -0.5212
  552MOL0    Cl72776   2.130   2.721   4.423 -0.3356  0.0254  0.0313
  552MOL0     C72777   2.887   2.641   3.603  0.0449 -0.0158  0.3356
  552MOL0     C72778   3.026   2.657   3.615  0.0545 -0.1195 -0.1480
  552MOL0     O72779   3.268   2.645   3.922 -0.3232 -0.4917  0.0882
  552MOL0     C72780   3.552   2.657   3.877  0.4522  0.4402 -0.4031
  552MOL0     C72781   3.689   2.660   3.851 -1.0962  1.1432 -0.0355
  552MOL0     N72782   3.744   2.058   3.717 -0.6948  0.0654  0.4455
  552MOL0     N72783   3.767   1.942   3.764  0.0542  0.2478 -0.6466
  552MOL0     C72784   4.970   1.653   3.372  0.5108 -0.1354 -1.0134
  552MOL0     C72785   5.107   1.632   3.363 -0.0608  0.3673 -0.0449
  552MOL0     C72786   5.565   1.607   3.448  0.4572 -0.6288 -0.2899
  552MOL0     C72787   5.680   1.558   3.507 -0.2650 -0.0121  1.0047
  552MOL0     C72788   5.801   1.558   3.439 -0.2094 -0.2944  0.6768
  552MOL0     C72789   5.828   1.639   3.326 -0.1516  0.8332  0.7526
  552MOL0     O72790   5.955   1.646   3.283 -0.0538 -0.5526  0.0216
  552MOL0     C72791   5.994   1.725   3.165  0.0200  0.1504 -0.1404
  552MOL0     C72792   6.142   1.688   3.149  0.2366 -0.1814  0.1672
  552MOL0     C72793   6.220   1.732   3.018 -0.2064  0.2490  0.4299
  552MOL0     C72794   6.361   1.682   2.993  0.4285  0.2571 -0.0960
  552MOL0     C72795   6.366   1.534   2.996  0.5832  0.0956 -0.1467
  552MOL0     C72796   6.364   1.414   3.006 -0.1327  0.2346  0.7017
  552MOL0     C72797   5.717   1.700   3.273 -0.5612 -0.9592  0.4067
  552MOL0     C72798   5.590   1.685   3.333 -1.3453  0.3936  0.1467
  552MOL0     H72799   5.177   1.519   3.680  0.7769  0.5143 -0.0711
  552MOL0     H72800   4.945   1.548   3.696  0.6622  1.3985  0.3467
  552MOL0     H72801   4.741   1.604   3.697  0.1447 -2.2533  0.8856
  552MOL0     H72802   4.679   1.465   3.612 -1.1638  0.0189  0.1873
  552MOL0     H72803   4.481   1.585   3.531 -0.1626  1.8201 -0.9718
  552MOL0     H72804   4.558   1.736   3.587 -0.9995  1.3519  1.6387
  552MOL0     H72805   4.543   1.676   3.820  2.0372  0.8834 -2.1804
  552MOL0     H72806   4.493   1.511   3.786  3.0956 -1.1437 -1.0311
  552MOL0     H72807   4.333   1.762   3.745  1.1963  0.6373  1.2164
  552MOL0     H72808   4.275   1.602   3.689 -1.0835  0.8560 -0.4602
  552MOL0     H72809   4.338   1.703   3.969  0.9903 -0.2815 -2.1579
  552MOL0     H72810   4.319   1.532   3.927  4.6001  0.3330  0.0804
  552MOL0     H72811   4.136   1.686   4.042 -1.0770  1.6381 -0.0210
  552MOL0     H72812   4.068   1.579   3.910 -1.2358  1.4304 -1.0426
  552MOL0     H72813   4.146   1.863   3.871 -1.3622  0.6465 -0.4347
  552MOL0     H72814   4.069   1.756   3.750  0.7869  0.4114 -0.4471
  552MOL0     H72815   3.958   1.858   4.010 -0.4107  2.0782 -1.3253
  552MOL0     H72816   3.883   1.737   3.906  0.5672 -0.7804  1.4793
  552MOL0     H72817   4.051   2.087   3.830  0.8708 -0.1000 -0.5085
  552MOL0     H72818   3.848   2.341   3.805  0.8212 -1.6708  2.3099
  552MOL0     H72819   3.786   2.313   3.635  1.4106 -1.9043 -1.4267
  552MOL0     H72820   3.994   2.266   3.563  0.0371 -0.5943  0.3635
  552MOL0     H72821   4.069   2.293   3.728 -0.2514  1.2007  1.6720
  552MOL0     H72822   4.069   2.498   3.741  2.4439 -1.0122 -0.8533
  552MOL0     H72823   4.108   2.470   3.579 -1.0648 -4.6065 -0.5935
  552MOL0     H72824   3.849   2.495   3.528  2.2873 -0.8428 -1.0356
  552MOL0     H72825   3.968   2.615   3.508 -3.5371  0.9035 -1.6927
  552MOL0     H72826   3.671   2.622   3.513 -0.6462 -1.0819  0.1732
  552MOL0     H72827   3.435   2.620   3.560  3.5260 -2.7873 -2.3593
  552MOL0     H72828   3.092   2.457   3.876 -0.8618 -1.1118  0.1933
  552MOL0     H72829   2.848   2.443   3.879  2.2715  0.6924  1.6894
  552MOL0     H72830   2.626   2.513   3.866  2.5905 -0.1892 -0.5458
  552MOL0     H72831   2.637   2.370   3.753 -2.4728 -1.1811  0.9771
  552MOL0     H72832   2.398   2.420   3.747 -1.4633  0.7763 -3.0058
  552MOL0     H72833   2.465   2.505   3.613  1.1575 -0.5010 -0.4660
  552MOL0     H72834   2.445   2.712   3.740 -0.7189 -0.6326 -0.6466
  552MOL0     H72835   2.436   2.631   3.894  1.8761  1.3496 -0.4658
  552MOL0     H72836   2.241   2.738   3.738  1.1667 -0.5405 -0.6442
  552MOL0     H72837   2.232   2.569   3.684  3.2328 -2.8275  0.0684
  552MOL0     H72838   2.200   2.515   3.933 -1.1388  0.7137  1.7157
  552MOL0     H72839   2.068   2.623   3.864  0.1151 -0.6611 -0.2100
  552MOL0     H72840   2.132   2.805   3.989 -0.0143  0.6549  3.1708
  552MOL0     H72841   2.294   2.750   4.025 -0.7284  1.3424 -1.8666
  552MOL0     H72842   2.038   2.670   4.151  0.5347  0.8945  1.3116
  552MOL0     H72843   2.186   2.578   4.189  2.4829 -0.3292 -0.1882
  552MOL0     H72844   2.148   2.869   4.225 -3.6918 -1.6688 -0.4540
  552MOL0     H72845   2.300   2.777   4.249 -0.6715 -1.2630 -0.5459
  552MOL0     H72846   2.831   2.694   3.526  0.0884  0.2698  0.4986
  552MOL0     H72847   3.084   2.722   3.550 -2.2233  1.2997 -0.8982
  552MOL0     H72848   3.530   2.668   3.983 -0.6903 -1.0113 -0.4558
  552MOL0     H72849   3.769   2.677   3.921 -1.5112 -0.3125  0.8234
  552MOL0     H72850   4.908   1.695   3.293 -4.2958  1.3830  3.0822
  552MOL0     H72851   5.149   1.639   3.263 -1.4729 -1.0032 -0.7741
  552MOL0     H72852   5.676   1.500   3.599  1.8276 -0.1546  1.0667
  552MOL0     H72853   5.887   1.509   3.483  2.0302  3.0611  0.3907
  552MOL0     H72854   5.976   1.833   3.174  1.6767  0.4946 -0.6587
  552MOL0     H72855   5.932   1.694   3.081 -1.8657 -3.0813  2.1892
  552MOL0     H72856   6.186   1.740   3.235  1.7136 -1.1185  0.0029
  552MOL0     H72857   6.162   1.584   3.173  0.4511 -0.5850 -1.6317
  552MOL0     H72858   6.228   1.841   3.029  0.1436  0.4177 -1.2629
  552MOL0     H72859   6.160   1.710   2.930 -0.7322 -1.4606  1.1730
  552MOL0     H72860   6.388   1.721   2.895 -0.2469  0.9911 -0.0017
  552MOL0     H72861   6.429   1.732   3.063  0.3177  2.5934 -1.5347
  552MOL0     H72862   6.368   1.308   3.018  0.1885  0.1407 -0.1828
  552MOL0     H72863   5.725   1.765   3.187  0.8897 -1.9443 -0.2370
  552MOL0     H72864   5.507   1.736   3.285 -2.1775 -1.4743 -0.5043
  553MOL0     O72865   5.141  10.441   5.423 -0.0794 -0.5682 -0.0666
  553MOL0     C72866   5.260  10.427   5.459  0.7029 -1.1147 -0.4259
  553MOL0     O72867   5.298  10.427   5.595  0.2318  0.3002  0.9813
  553MOL0     C72868   5.201  10.397   5.687 -0.5457  0.3786 -1.0622
  553MOL0     C72869   5.169  10.491   5.788  0.9281 -0.2956  0.7039
  553MOL0     C72870   5.091  10.456   5.892  0.1525  0.6494 -0.9634
  553MOL0     C72871   5.044  10.331   5.905 -0.1477  0.8157  0.6639
  553MOL0     O72872   4.953  10.315   6.002  0.1852  0.2086  0.0115
  553MOL0     C72873   4.872  10.196   6.016  0.1302  0.2914  0.2996
  553MOL0     C72874   4.756  10.211   6.114  0.0455  0.4636  0.4498
  553MOL0     C72875   4.634  10.278   6.043 -0.3865  0.2499  0.1131
  553MOL0     C72876   4.513  10.275   6.132 -0.3004 -1.2303 -0.3976
  553MOL0     C72877   4.403  10.370   6.082 -0.2719  0.5455  0.1887
  553MOL0     C72878   4.277  10.343   6.154 -0.4336 -0.4175 -0.4841
  553MOL0     C72879   4.173  10.426   6.077 -0.2411 -0.2617  0.1560
  553MOL0     C72880   4.042  10.419   6.151 -0.6336 -0.0123 -0.6765
  553MOL0     N72881   3.928  10.491   6.099  0.8479 -0.0610  0.1498
  553MOL0     C72882   3.793  10.479   6.133  0.1181  0.2565  0.8915
  553MOL0     C72883   3.736  10.588   6.070  0.1303 -0.3604 -0.4769
  553MOL0     C72884   3.590  10.628   6.058  0.1680 -0.2259 -0.1300
  553MOL0     C72885   3.505  10.572   5.943 -0.3724  0.1443  0.4555
  553MOL0     C72886   3.355  10.610   5.952  0.4477 -0.4369 -0.0419
  553MOL0     C72887   3.340  10.765   5.957  0.9106  0.1902  0.1538
  553MOL0     O72888   3.200  10.797   5.951  0.3244  0.5580 -0.7722
  553MOL0     C72889   3.133  10.796   5.831 -0.4081  0.1596  0.0763
  553MOL0     C72890   3.191  10.759   5.704  0.5051 -0.0247  1.5633
  553MOL0     C72891   3.119  10.759   5.591 -0.0610  0.1097  0.0323
  553MOL0     C72892   2.977  10.803   5.599 -0.8091 -1.4055  0.1330
  553MOL0     C72893   2.883  10.794   5.490 -0.0766 -0.0062 -0.3830
  553MOL0     O72894   2.938  10.766   5.364 -0.2784 -0.6479  0.0025
  553MOL0     C72895   2.845  10.756   5.263  0.0957 -0.3016  1.0346
  553MOL0     C72896   2.824  10.627   5.214  0.6705  0.2100  0.5540
  553MOL0     C72897   2.737  10.613   5.110  0.1836  0.3241  1.1632
  553MOL0     C72898   2.672  10.723   5.060 -0.0989  0.3138  1.7124
  553MOL0     O72899   2.590  10.702   4.946  0.0917 -0.2261  0.8674
  553MOL0     C72900   2.627  10.606   4.845 -0.5809 -0.0079 -0.8180
  553MOL0     C72901   2.545  10.619   4.723 -0.0783  0.2715  0.5035
  553MOL0     C72902   2.405  10.609   4.764  0.8838  0.5136  0.2912
  553MOL0     C72903   2.307  10.593   4.647  0.7118 -0.5311  0.6035
  553MOL0     C72904   2.162  10.596   4.693  0.7404 -0.0748  0.3682
  553MOL0     C72905   2.061  10.554   4.577 -0.3575 -0.2252  0.4112
  553MOL0     C72906   1.919  10.516   4.633 -0.2277 -0.3585  0.2315
  553MOL0     C72907   1.925  10.371   4.674 -0.2878  0.4708  0.0407
  553MOL0    Cl72908   1.763  10.345   4.740 -0.0653 -0.1070 -0.1099
  553MOL0     C72909   2.686  10.854   5.108 -0.5295 -0.4434  0.3728
  553MOL0     C72910   2.775  10.870   5.220  0.4460  0.1592  0.4743
  553MOL0     O72911   2.766  10.804   5.512 -0.5340  0.5362  0.4962
  553MOL0     C72912   2.922  10.842   5.723  0.0171  0.4021  0.2383
  553MOL0     C72913   3.006  10.851   5.836 -0.0452  0.2117 -0.3807
  553MOL0     N72914   3.827  10.665   6.013  0.3804 -0.0664 -0.0294
  553MOL0     N72915   3.947  10.612   6.036  0.2568  0.3219 -0.0335
  553MOL0     C72916   5.078  10.235   5.812 -0.4090  0.9157 -0.1831
  553MOL0     C72917   5.161  10.258   5.700 -0.1675  0.4986  0.2058
  553MOL0     C72918   5.361  10.408   5.348  0.7362  0.3020 -0.0160
  553MOL0     C72919   5.315  10.423   5.218 -0.4329  0.4774 -0.7686
  553MOL0     C72920   5.401  10.397   5.114  0.1039  0.5153 -0.0655
  553MOL0     C72921   5.530  10.354   5.137 -0.0367  0.2281 -0.4323
  553MOL0     O72922   5.621  10.356   5.036 -0.3036  0.5874 -0.1190
  553MOL0     C72923   5.688  10.238   5.003 -1.3003  0.4893  0.2429
  553MOL0     C72924   5.794  10.273   4.890  0.1428  1.1263 -0.0053
  553MOL0     C72925   5.736  10.304   4.743  0.0170 -0.1175 -0.1782
  553MOL0     C72926   5.743  10.452   4.698  0.4929 -0.2449  0.1561
  553MOL0     C72927   5.682  10.491   4.572  0.7311 -0.5984 -1.1028
  553MOL0     C72928   5.627  10.516   4.468 -0.0640 -1.3821 -1.2139
  553MOL0     C72929   5.575  10.338   5.273 -0.1976 -0.0766  0.5958
  553MOL0     C72930   5.489  10.366   5.385 -0.1528 -1.3072  0.6191
  553MOL0     H72931   5.197  10.596   5.783 -0.5380  0.1504  1.2584
  553MOL0     H72932   5.063  10.530   5.966  2.1980 -0.0208  0.5677
  553MOL0     H72933   4.932  10.113   6.056 -0.7904 -0.4349  0.1879
  553MOL0     H72934   4.830  10.172   5.918 -0.5927  0.2639  0.6162
  553MOL0     H72935   4.781  10.267   6.205 -1.0858  0.4477  0.7959
  553MOL0     H72936   4.734  10.109   6.145  0.7276 -0.1028 -0.8638
  553MOL0     H72937   4.619  10.215   5.954  3.4743 -1.1739  0.2864
  553MOL0     H72938   4.652  10.376   5.998 -3.7189 -0.2311 -2.7074
  553MOL0     H72939   4.486  10.169   6.124 -0.7342 -1.6135  4.0096
  553MOL0     H72940   4.538  10.286   6.238 -1.0496 -1.7772 -0.1528
  553MOL0     H72941   4.378  10.341   5.980  0.3978 -2.2233  0.7497
  553MOL0     H72942   4.424  10.477   6.091 -0.6878  0.6401  0.0628
  553MOL0     H72943   4.278  10.387   6.254 -1.1751 -0.8704 -0.2722
  553MOL0     H72944   4.250  10.237   6.160 -1.9069 -0.1101 -1.2535
  553MOL0     H72945   4.196  10.533   6.080 -0.0824 -0.3113  1.2443
  553MOL0     H72946   4.169  10.393   5.973 -2.5198 -0.1614  0.1651
  553MOL0     H72947   4.057  10.453   6.254 -0.1352  0.1764 -0.8076
  553MOL0     H72948   4.010  10.315   6.160  1.8445 -0.8834 -0.9550
  553MOL0     H72949   3.745  10.401   6.191  2.3999 -0.2192  2.2354
  553MOL0     H72950   3.585  10.736   6.044 -2.9217 -0.0259  1.6278
  553MOL0     H72951   3.557  10.595   6.157  0.5457  0.1610  0.1248
  553MOL0     H72952   3.520  10.464   5.933 -0.7330  0.1567 -0.2609
  553MOL0     H72953   3.546  10.611   5.850  3.0571 -1.2995  1.2220
  553MOL0     H72954   3.317  10.576   5.855  0.6910  1.5618 -0.8816
  553MOL0     H72955   3.309  10.549   6.030  2.6264 -0.8826  0.9629
  553MOL0     H72956   3.397  10.809   5.874  0.8206 -2.5954 -1.5243
  553MOL0     H72957   3.388  10.812   6.043 -1.7676  2.8500  0.3661
  553MOL0     H72958   3.293  10.724   5.694  0.0353 -0.8043 -1.0311
  553MOL0     H72959   3.161  10.744   5.492  1.1661  1.6280  0.2914
  553MOL0     H72960   2.880  10.541   5.249  1.6161  0.7952  0.5357
  553MOL0     H72961   2.722  10.516   5.063 -0.8089  1.9550 -2.2292
  553MOL0     H72962   2.600  10.510   4.890 -1.3984 -0.1140 -1.5123
  553MOL0     H72963   2.731  10.609   4.811 -0.2559 -0.4993  0.1024
  553MOL0     H72964   2.569  10.529   4.665  0.2367  0.7337 -0.0921
  553MOL0     H72965   2.571  10.695   4.649 -1.4336 -0.7949 -1.1606
  553MOL0     H72966   2.381  10.690   4.834  2.0334  1.3624 -0.2603
  553MOL0     H72967   2.393  10.519   4.824  2.5815  0.0475 -0.0233
  553MOL0     H72968   2.328  10.673   4.576 -0.2254 -1.8120 -1.1934
  553MOL0     H72969   2.330  10.502   4.591 -0.9308 -0.7313  0.2208
  553MOL0     H72970   2.135  10.694   4.731 -0.3341  0.5306 -1.7986
  553MOL0     H72971   2.154  10.517   4.769 -2.1272 -0.0324  0.2237
  553MOL0     H72972   2.094  10.464   4.524  0.6863  0.2529  0.2177
  553MOL0     H72973   2.047  10.639   4.509 -2.0427 -0.7819  0.0052
  553MOL0     H72974   1.873  10.579   4.711  0.7010  0.1985  0.3460
  553MOL0     H72975   1.855  10.517   4.544  1.3447  1.8773 -0.9721
  553MOL0     H72976   2.003  10.357   4.749  0.9104  2.3163 -0.8004
  553MOL0     H72977   1.940  10.305   4.588 -2.9554 -0.6867  0.3343
  553MOL0     H72978   2.642  10.946   5.072  2.3064  0.7482 -0.3241
  553MOL0     H72979   2.776  10.966   5.270 -2.0759  1.4927 -1.7661
  553MOL0     H72980   2.823  10.880   5.747  1.3446  2.5924  2.8415
  553MOL0     H72981   2.959  10.893   5.925  2.8666  2.6624  0.1822
  553MOL0     H72982   5.047  10.131   5.814  1.3749  0.3399 -0.0426
  553MOL0     H72983   5.190  10.178   5.632  1.8990  0.5673  0.9215
  553MOL0     H72984   5.214  10.453   5.192  0.3189  3.2825 -0.8365
  553MOL0     H72985   5.372  10.411   5.010 -0.7784  1.7565  0.3256
  553MOL0     H72986   5.617  10.168   4.959  0.9931 -2.0726  0.3789
  553MOL0     H72987   5.742  10.198   5.090 -0.3769  0.9644 -0.0909
  553MOL0     H72988   5.860  10.353   4.925 -0.3462  0.5621  2.3964
  553MOL0     H72989   5.850  10.180   4.880 -1.5635  0.2828 -3.3757
  553MOL0     H72990   5.631  10.277   4.729 -0.7569  2.5914 -0.3288
  553MOL0     H72991   5.794  10.247   4.670  3.4212  2.3724  0.3095
  553MOL0     H72992   5.706  10.510   4.783 -0.4755 -0.8585  0.1526
  553MOL0     H72993   5.851  10.474   4.694  0.4039  1.3894  3.2180
  553MOL0     H72994   5.589  10.518   4.368  1.8675  0.5292 -1.9960
  553MOL0     H72995   5.680  10.312   5.282  0.3895  1.5385 -1.0904
  553MOL0     H72996   5.523  10.354   5.487  1.1362 -3.4656  0.0037
  554MOL0     O72997   3.568   8.324   0.050 -0.2092  0.2904 -0.1250
  554MOL0     C72998   3.557   8.202   0.043  0.3994  1.2010  0.1550
  554MOL0     O72999   3.442   8.135   0.039  0.1017  0.4045 -0.3988
  554MOL0     C73000   3.340   8.199   0.098  0.1344 -0.2143 -0.5608
  554MOL0     C73001   3.214   8.235   0.032 -0.4164  0.0340 -0.2840
  554MOL0     C73002   3.106   8.288   0.108 -0.0737 -0.7546 -0.4668
  554MOL0     C73003   3.114   8.315   0.242 -0.9880  0.2458 -0.0013
  554MOL0     O73004   3.009   8.363   0.318  0.3143 -0.2205 -0.2216
  554MOL0     C73005   2.987   8.314   0.446 -0.0740 -0.1864  0.2447
  554MOL0     C73006   2.836   8.327   0.467  0.3718 -0.1129 -0.1516
  554MOL0     C73007   2.796   8.476   0.472 -0.0174  0.3006  0.1791
  554MOL0     C73008   2.662   8.481   0.541  0.1436 -0.5560 -0.1397
  554MOL0     C73009   2.595   8.614   0.530 -0.0874 -0.7317 -1.0043
  554MOL0     C73010   2.439   8.614   0.537 -0.1201  0.1860  0.3476
  554MOL0     C73011   2.387   8.545   0.663 -0.1349  0.3405 -0.7987
  554MOL0     C73012   2.235   8.536   0.638 -0.1433 -0.3514 -0.4393
  554MOL0     N73013   2.154   8.523   0.759  0.0205 -0.0510 -0.2565
  554MOL0     C73014   2.096   8.624   0.831 -0.7082  0.9263 -0.4969
  554MOL0     C73015   2.011   8.553   0.907  0.4914 -0.1145  0.5103
  554MOL0     C73016   1.911   8.618   1.012  0.0108  0.4952 -0.9950
  554MOL0     C73017   1.778   8.551   1.039  0.3933  0.6827  0.5066
  554MOL0     C73018   1.689   8.572   0.922 -0.5336 -0.4340  0.3096
  554MOL0     C73019   1.552   8.518   0.962  0.2562  0.2301 -0.4104
  554MOL0     O73020   1.459   8.554   0.858  0.4703  0.5175  0.0192
  554MOL0     C73021   1.334   8.505   0.867  0.4022 -0.0990  0.1689
  554MOL0     C73022   1.249   8.540   0.753 -0.2426  0.2530 -0.8834
  554MOL0     C73023   1.123   8.490   0.758 -0.0546 -0.0099 -0.3554
  554MOL0     C73024   1.061   8.421   0.863 -0.7629  0.3540  0.7642
  554MOL0     C73025   0.916   8.384   0.848  0.8791  0.5868 -0.6126
  554MOL0     O73026   0.869   8.302   0.944  0.3740  0.3136  0.4148
  554MOL0     C73027   0.741   8.262   0.971  0.1471  0.3460  0.0269
  554MOL0     C73028   0.622   8.327   0.927 -0.7872  0.3333  1.0402
  554MOL0     C73029   0.496   8.282   0.964  0.6995 -0.5910  0.0645
  554MOL0     C73030   0.485   8.173   1.051  1.0100  0.3441 -0.0860
  554MOL0     O73031   0.355   8.133   1.083 -0.1370  0.0017 -0.5151
  554MOL0     C73032   0.327   8.008   1.149 -0.2760 -0.3742  0.9599
  554MOL0     C73033   0.179   7.984   1.146 -0.2238  1.0735 -0.8003
  554MOL0     C73034   0.144   7.867   1.238  0.3182 -0.0826 -0.6300
  554MOL0     C73035  -0.008   7.878   1.254  1.0144 -0.1380 -0.0071
  554MOL0     C73036  -0.064   7.797   1.376  0.1676 -0.9336  0.6958
  554MOL0     C73037  -0.219   7.788   1.373  0.9896 -0.1197  1.0296
  554MOL0     C73038  -0.294   7.730   1.497  1.5923  0.2730  0.1828
  554MOL0     C73039  -0.440   7.728   1.471 -0.7317  0.1020 -0.2024
  554MOL0    Cl73040  -0.537   7.674   1.618  0.3103 -0.3095 -0.2308
  554MOL0     C73041   0.598   8.102   1.097  0.3015 -0.2540 -0.1076
  554MOL0     C73042   0.728   8.148   1.057 -0.1255  0.8884 -0.6687
  554MOL0     O73043   0.854   8.428   0.757  0.3475 -0.8282  0.4138
  554MOL0     C73044   1.141   8.393   0.981  0.1123  0.3558 -0.6353
  554MOL0     C73045   1.278   8.438   0.984  0.2943  0.0382  1.0619
  554MOL0     N73046   2.014   8.410   0.882  0.1894  0.1484  0.4543
  554MOL0     N73047   2.103   8.399   0.787  0.2495  0.1206  0.8951
  554MOL0     C73048   3.238   8.275   0.311 -0.4864 -0.8524  0.0337
  554MOL0     C73049   3.343   8.220   0.238  1.1261 -0.0632  0.5790
  554MOL0     C73050   3.674   8.120   0.015  0.5391 -0.2719  0.1820
  554MOL0     C73051   3.727   8.135  -0.112 -0.1546  0.3236  0.2123
  554MOL0     C73052   3.836   8.055  -0.147  0.0959 -0.1718  0.5440
  554MOL0     C73053   3.895   7.969  -0.066 -0.2095  0.7963 -0.1729
  554MOL0     O73054   4.002   7.891  -0.110 -0.1845 -0.2592 -0.2811
  554MOL0     C73055   4.060   7.797  -0.021  0.0878 -0.1205  0.3619
  554MOL0     C73056   4.161   7.706  -0.095  0.4617  0.7443  0.4106
  554MOL0     C73057   4.262   7.788  -0.179  0.6342 -0.2627  0.8040
  554MOL0     C73058   4.364   7.694  -0.252 -0.5676  1.0342 -0.0134
  554MOL0     C73059   4.442   7.762  -0.358 -0.2138 -0.4074 -0.0789
  554MOL0     C73060   4.502   7.807  -0.458  1.2385 -0.4768  0.2801
  554MOL0     C73061   3.838   7.947   0.069  0.3056  0.0488 -0.1747
  554MOL0     C73062   3.725   8.022   0.102  0.2167  1.1072 -0.4323
  554MOL0     H73063   3.206   8.213  -0.074  0.8914 -1.5672 -0.0785
  554MOL0     H73064   3.010   8.316   0.067  0.5308  3.1649  0.4485
  554MOL0     H73065   3.041   8.382   0.513  1.2031 -0.8945 -0.0252
  554MOL0     H73066   3.026   8.213   0.460  3.2735  0.8208 -0.7132
  554MOL0     H73067   2.803   8.288   0.564  0.4626  0.0493 -0.0560
  554MOL0     H73068   2.777   8.271   0.393 -0.0704 -1.0535  0.8948
  554MOL0     H73069   2.786   8.510   0.369  2.2517  0.5065 -0.0291
  554MOL0     H73070   2.865   8.538   0.530 -0.4254  1.1223 -0.2028
  554MOL0     H73071   2.599   8.407   0.491  0.0399 -0.0002 -0.8471
  554MOL0     H73072   2.663   8.448   0.646 -0.5423  0.3537  0.1681
  554MOL0     H73073   2.631   8.675   0.446 -0.7908  1.7634  0.3799
  554MOL0     H73074   2.622   8.678   0.615 -0.3375 -0.6477 -0.9865
  554MOL0     H73075   2.401   8.564   0.448 -3.5261  1.8712  0.7061
  554MOL0     H73076   2.405   8.718   0.535  1.6378  0.8586 -3.1756
  554MOL0     H73077   2.432   8.450   0.692  0.4734  0.5493 -1.0373
  554MOL0     H73078   2.409   8.616   0.743 -2.1872  0.4442 -0.2738
  554MOL0     H73079   2.221   8.457   0.564  0.8720  2.4310 -3.8905
  554MOL0     H73080   2.192   8.625   0.592  1.0300  1.7257  2.1773
  554MOL0     H73081   2.121   8.730   0.826  2.6982  0.1805 -2.2198
  554MOL0     H73082   1.902   8.726   0.996  0.7660  0.8515  0.8224
  554MOL0     H73083   1.958   8.612   1.110  2.1398 -0.4335 -2.0004
  554MOL0     H73084   1.727   8.596   1.124  1.6107  1.4213  0.8575
  554MOL0     H73085   1.793   8.446   1.067 -1.2375  0.4425  0.5878
  554MOL0     H73086   1.689   8.681   0.915  1.9208 -0.2061  2.4131
  554MOL0     H73087   1.726   8.538   0.824  1.6900  0.7858  0.6450
  554MOL0     H73088   1.526   8.554   1.062  3.2528 -1.4970  1.1264
  554MOL0     H73089   1.549   8.409   0.973 -0.3260  0.5450  3.9844
  554MOL0     H73090   1.294   8.595   0.671  2.5808  1.5470  1.3331
  554MOL0     H73091   1.067   8.509   0.668  1.6415 -1.9392 -1.9356
  554MOL0     H73092   0.627   8.418   0.867 -1.3568  0.2376  0.8373
  554MOL0     H73093   0.414   8.344   0.930 -0.1172 -2.6684 -2.0317
  554MOL0     H73094   0.364   8.010   1.252 -0.1646  2.7241  0.9560
  554MOL0     H73095   0.374   7.931   1.088 -0.3799  1.1862 -1.2071
  554MOL0     H73096   0.138   7.966   1.046 -0.1255 -1.5846 -0.4259
  554MOL0     H73097   0.130   8.077   1.178  0.5275  1.1935  0.0597
  554MOL0     H73098   0.199   7.870   1.333  0.6322  3.7253 -0.7512
  554MOL0     H73099   0.169   7.776   1.184 -2.1084 -0.4347 -1.2795
  554MOL0     H73100  -0.048   7.977   1.279 -0.5181 -0.9115  0.7474
  554MOL0     H73101  -0.062   7.842   1.166 -0.9532 -2.5346  2.0383
  554MOL0     H73102  -0.035   7.849   1.468  0.1798  1.9206 -0.7904
  554MOL0     H73103  -0.023   7.696   1.382  1.0041 -0.5419  1.9722
  554MOL0     H73104  -0.249   7.724   1.290  1.4163 -1.6596  2.0295
  554MOL0     H73105  -0.265   7.884   1.345 -0.2872 -0.5266  1.6385
  554MOL0     H73106  -0.259   7.634   1.535 -1.2341 -0.2182  1.7718
  554MOL0     H73107  -0.281   7.804   1.577  0.3789  1.9310 -1.0663
  554MOL0     H73108  -0.459   7.662   1.385 -1.1237  0.4779 -0.4098
  554MOL0     H73109  -0.473   7.827   1.438  0.7008  0.1232 -1.6917
  554MOL0     H73110   0.576   8.022   1.166 -1.4137  1.4651  1.4650
  554MOL0     H73111   0.822   8.097   1.080 -1.4284 -1.4319 -0.1718
  554MOL0     H73112   1.101   8.337   1.065 -2.4657 -1.1416 -2.6992
  554MOL0     H73113   1.344   8.421   1.068 -0.0839 -0.2466  1.3000
  554MOL0     H73114   3.249   8.290   0.418 -1.3250  1.6359 -0.1638
  554MOL0     H73115   3.426   8.187   0.299  1.5824  1.5209  0.8537
  554MOL0     H73116   3.700   8.209  -0.187  1.0170  0.8501  0.2776
  554MOL0     H73117   3.859   8.063  -0.253 -0.2289 -1.6163  0.3415
  554MOL0     H73118   3.987   7.728   0.021 -1.5186  0.9848 -0.5045
  554MOL0     H73119   4.098   7.842   0.071  1.8240 -2.4307  0.8680
  554MOL0     H73120   4.224   7.652  -0.023 -0.1116  1.8873  1.8216
  554MOL0     H73121   4.093   7.644  -0.154 -2.7097  2.5531  1.8631
  554MOL0     H73122   4.300   7.866  -0.113 -3.0173  0.0253  2.8368
  554MOL0     H73123   4.208   7.815  -0.271 -0.6803 -0.0683  1.6097
  554MOL0     H73124   4.432   7.668  -0.170 -1.3384 -0.0698  0.2965
  554MOL0     H73125   4.323   7.598  -0.285  0.7826  0.3469  0.2072
  554MOL0     H73126   4.547   7.831  -0.553 -1.5837  0.1295 -1.0126
  554MOL0     H73127   3.874   7.882   0.147  2.2400 -0.0019 -1.0514
  554MOL0     H73128   3.671   8.011   0.196  1.2133 -0.9751 -0.0454
  555MOL0     O73129   1.518   4.868   4.599  0.0357  0.5552  0.6617
  555MOL0     C73130   1.610   4.796   4.614 -0.5210 -0.0095  0.0740
  555MOL0     O73131   1.625   4.686   4.703  0.1389 -0.4125  0.4547
  555MOL0     C73132   1.541   4.685   4.808 -0.1453 -0.5250 -0.2122
  555MOL0     C73133   1.529   4.794   4.896  0.4456 -1.3063 -0.3056
  555MOL0     C73134   1.434   4.782   5.000  0.2969  0.7870 -0.4386
  555MOL0     C73135   1.360   4.667   5.021  0.8146  0.5705 -0.0091
  555MOL0     O73136   1.252   4.665   5.105 -0.6568 -1.1507 -0.3475
  555MOL0     C73137   1.206   4.786   5.168  0.5135 -0.9602 -0.4160
  555MOL0     C73138   1.073   4.757   5.227 -0.2648  0.0009 -0.7446
  555MOL0     C73139   1.029   4.873   5.318  1.1455  1.6119  0.0473
  555MOL0     C73140   0.883   4.834   5.378  0.7633  0.0743  0.1452
  555MOL0     C73141   0.807   4.959   5.431 -1.2894  0.4815 -0.3373
  555MOL0     C73142   0.680   4.907   5.496  1.2843 -0.2751 -0.5896
  555MOL0     C73143   0.598   5.038   5.526 -0.9007  0.9323  0.3366
  555MOL0     C73144   0.463   5.007   5.586  0.4137 -0.2832  0.4614
  555MOL0     N73145   0.472   4.910   5.689  0.4054 -0.5340 -0.8804
  555MOL0     C73146   0.387   4.796   5.708 -0.0841 -0.1306  0.1855
  555MOL0     C73147   0.422   4.743   5.825 -0.5588  0.1649  0.0198
  555MOL0     C73148   0.357   4.622   5.891  0.4986 -0.0719 -0.5208
  555MOL0     C73149   0.363   4.489   5.810 -0.0799 -0.1811 -0.1589
  555MOL0     C73150   0.243   4.471   5.708  0.4537  0.0831  0.2241
  555MOL0     C73151   0.115   4.441   5.783  0.2534 -0.1153  0.0414
  555MOL0     O73152   0.017   4.389   5.688  0.3227 -0.1622  0.0271
  555MOL0     C73153  -0.110   4.424   5.729  0.2981 -0.9511  0.4043
  555MOL0     C73154  -0.179   4.334   5.804 -0.1126 -0.1600  0.5623
  555MOL0     C73155  -0.309   4.366   5.841 -0.4811 -0.4623 -0.6135
  555MOL0     C73156  -0.373   4.478   5.806  0.6725 -0.4807  0.4193
  555MOL0     C73157  -0.510   4.510   5.839  0.0515 -0.0001 -0.4568
  555MOL0     O73158  -0.563   4.637   5.806 -0.1111 -0.9740 -0.2371
  555MOL0     C73159  -0.696   4.671   5.823 -0.4347 -0.1592  0.0572
  555MOL0     C73160  -0.768   4.624   5.931  0.1970 -0.0528 -0.7743
  555MOL0     C73161  -0.900   4.645   5.953  0.4809 -0.3970  0.7656
  555MOL0     C73162  -0.974   4.719   5.856 -0.9396  0.7788 -0.5140
  555MOL0     O73163  -1.105   4.763   5.869 -0.0226  0.0763  0.1685
  555MOL0     C73164  -1.167   4.726   5.996  0.4061  0.6238  0.0361
  555MOL0     C73165  -1.321   4.740   6.007  0.3259  0.3364 -0.8048
  555MOL0     C73166  -1.357   4.889   6.009  0.4766  0.2691  0.4887
  555MOL0     C73167  -1.514   4.916   5.995  0.2957 -0.4492  0.2395
  555MOL0     C73168  -1.600   4.866   6.109 -0.3015  0.8572 -0.2440
  555MOL0     C73169  -1.746   4.904   6.092 -0.6089  0.8102 -0.0255
  555MOL0     C73170  -1.839   4.819   6.179 -0.6491  0.2272 -0.4051
  555MOL0     C73171  -1.980   4.885   6.174 -0.6272  0.2044 -0.0185
  555MOL0    Cl73172  -2.088   4.786   6.273 -0.1187 -0.1737  0.1086
  555MOL0     C73173  -0.905   4.764   5.742 -1.3071 -0.8533  0.3575
  555MOL0     C73174  -0.767   4.740   5.723  0.7321  0.5042  0.7858
  555MOL0     O73175  -0.576   4.414   5.883 -0.2474 -0.1467  0.0767
  555MOL0     C73176  -0.300   4.570   5.730  0.1525 -0.1036  0.6595
  555MOL0     C73177  -0.176   4.550   5.692 -0.4512  0.3480 -0.1556
  555MOL0     N73178   0.526   4.818   5.875 -0.3504 -0.8564 -0.0324
  555MOL0     N73179   0.556   4.916   5.796 -0.1668  0.4794  0.2990
  555MOL0     C73180   1.391   4.553   4.949  0.2506  0.6704  0.2317
  555MOL0     C73181   1.472   4.566   4.838  0.2862 -0.1057  0.2168
  555MOL0     C73182   1.720   4.816   4.529 -0.2078  0.2184  0.5359
  555MOL0     C73183   1.701   4.831   4.391  0.2674 -0.9119 -0.6289
  555MOL0     C73184   1.810   4.861   4.310  0.3264 -0.1027  0.2228
  555MOL0     C73185   1.941   4.877   4.368 -0.2315 -0.1312 -0.1284
  555MOL0     O73186   2.054   4.905   4.294 -0.6404 -0.8259  0.2475
  555MOL0     C73187   2.053   4.876   4.154  0.3644 -0.4137 -0.4068
  555MOL0     C73188   2.040   5.000   4.069  0.7632  0.8972  0.3027
  555MOL0     C73189   2.151   5.106   4.090  0.8934  0.1985  0.5165
  555MOL0     C73190   2.142   5.218   3.988 -0.1512  0.7750  0.3826
  555MOL0     C73191   2.260   5.299   3.985 -0.1067 -0.6619 -0.8449
  555MOL0     C73192   2.360   5.366   3.987 -0.0126 -0.0399  0.3332
  555MOL0     C73193   1.964   4.846   4.504 -0.6349 -0.6295  0.4134
  555MOL0     C73194   1.854   4.820   4.586  0.7159 -0.1107 -0.5077
  555MOL0     H73195   1.583   4.886   4.874  2.9529 -2.4058  0.9292
  555MOL0     H73196   1.416   4.877   5.051  1.2098  1.0973 -0.6720
  555MOL0     H73197   1.187   4.859   5.090 -1.4179 -1.1412 -0.1582
  555MOL0     H73198   1.275   4.826   5.244 -0.3495 -0.9149  0.3658
  555MOL0     H73199   1.073   4.668   5.291 -1.2973  2.6272  3.2528
  555MOL0     H73200   0.997   4.753   5.148 -2.1839  0.1244  0.9989
  555MOL0     H73201   1.009   4.961   5.257  0.7577  0.5569 -1.3871
  555MOL0     H73202   1.105   4.889   5.395  2.5063 -0.6596 -0.7309
  555MOL0     H73203   0.812   4.792   5.307 -1.3080  1.8499  1.0556
  555MOL0     H73204   0.898   4.766   5.462 -2.3280 -0.6187  0.2437
  555MOL0     H73205   0.802   5.039   5.358  2.2927  1.1710 -0.0177
  555MOL0     H73206   0.869   5.005   5.509 -0.5839  1.5865 -1.5199
  555MOL0     H73207   0.708   4.855   5.588  0.9056  1.1125  0.3511
  555MOL0     H73208   0.619   4.844   5.431  3.3414 -1.3939 -1.5481
  555MOL0     H73209   0.653   5.094   5.601 -1.1929 -0.0387  1.3015
  555MOL0     H73210   0.598   5.095   5.432  1.7899 -3.1915 -2.5168
  555MOL0     H73211   0.397   4.968   5.507  2.5315  1.4306 -2.3341
  555MOL0     H73212   0.418   5.100   5.623 -1.0626 -0.6195 -0.3982
  555MOL0     H73213   0.321   4.759   5.631  0.7785 -2.2564  0.4180
  555MOL0     H73214   0.252   4.647   5.911  0.5595  0.5707 -0.9452
  555MOL0     H73215   0.411   4.619   5.985 -0.2058  2.0570  0.0125
  555MOL0     H73216   0.375   4.406   5.880  0.3471 -0.8027 -0.9567
  555MOL0     H73217   0.462   4.504   5.766  1.2500 -0.5401  2.4763
  555MOL0     H73218   0.214   4.559   5.651 -3.8363 -2.1391 -1.5260
  555MOL0     H73219   0.266   4.386   5.643 -2.1176  0.0425 -0.7438
  555MOL0     H73220   0.087   4.534   5.833  2.9506  0.3339  0.8976
  555MOL0     H73221   0.130   4.375   5.869  0.7606 -0.9570 -0.6806
  555MOL0     H73222  -0.139   4.237   5.831 -0.7917 -0.7560 -0.4988
  555MOL0     H73223  -0.374   4.303   5.902  1.6986 -2.8108 -0.5310
  555MOL0     H73224  -0.719   4.566   6.008 -0.9106 -1.8111 -1.3496
  555MOL0     H73225  -0.943   4.616   6.049  2.9205  1.8676  2.7292
  555MOL0     H73226  -1.120   4.780   6.078 -1.6854  0.2370  1.5758
  555MOL0     H73227  -1.159   4.617   6.006 -0.3290  0.5286 -0.3347
  555MOL0     H73228  -1.362   4.687   6.093  3.1958  0.1839  0.6138
  555MOL0     H73229  -1.362   4.704   5.912  0.7490  3.5456 -2.3542
  555MOL0     H73230  -1.309   4.931   5.919 -1.3725 -0.2223 -0.7872
  555MOL0     H73231  -1.333   4.935   6.105 -1.8418  0.5592  0.9935
  555MOL0     H73232  -1.528   5.022   5.971  2.6905 -0.1597 -0.1477
  555MOL0     H73233  -1.545   4.862   5.905 -1.3661  0.2389  0.3633
  555MOL0     H73234  -1.556   4.907   6.200  0.1454 -0.0096 -0.0590
  555MOL0     H73235  -1.588   4.757   6.099  2.6524  1.3135 -3.9016
  555MOL0     H73236  -1.774   4.892   5.987  0.6855 -1.3683 -0.1743
  555MOL0     H73237  -1.771   5.009   6.110  1.1877  1.3859 -0.7187
  555MOL0     H73238  -1.837   4.717   6.139 -0.1512 -0.8872  2.2848
  555MOL0     H73239  -1.805   4.802   6.281 -0.9419 -2.0726 -0.6359
  555MOL0     H73240  -2.017   4.897   6.072 -2.8642  3.8836  1.0611
  555MOL0     H73241  -1.971   4.983   6.220 -1.4919  1.0442 -1.5603
  555MOL0     H73242  -0.947   4.835   5.672  0.2497  0.3603  0.6015
  555MOL0     H73243  -0.719   4.782   5.636 -1.3983  0.0090 -0.7131
  555MOL0     H73244  -0.355   4.649   5.679  0.7341 -0.6396 -0.8779
  555MOL0     H73245  -0.126   4.617   5.623  2.9906  0.0421  1.8284
  555MOL0     H73246   1.336   4.461   4.968  0.9528  0.1035 -0.3858
  555MOL0     H73247   1.491   4.487   4.766 -2.2880 -1.0197  0.4563
  555MOL0     H73248   1.599   4.826   4.356 -0.5130 -2.1859  1.6080
  555MOL0     H73249   1.793   4.869   4.203 -1.4310  0.1376  0.4909
  555MOL0     H73250   1.970   4.808   4.135 -0.6727 -0.0888  2.4462
  555MOL0     H73251   2.148   4.826   4.136  0.9942  0.1420  1.1590
  555MOL0     H73252   2.034   4.967   3.965 -2.1071  2.4212 -0.1262
  555MOL0     H73253   1.941   5.044   4.085  0.3762  0.4180 -0.7214
  555MOL0     H73254   2.247   5.054   4.077  1.6084  0.9988  2.2210
  555MOL0     H73255   2.146   5.142   4.194 -2.5882  1.6371 -0.0361
  555MOL0     H73256   2.134   5.165   3.893 -1.8020 -0.6459  1.2494
  555MOL0     H73257   2.054   5.277   4.017 -1.3753 -1.1512  0.7482
  555MOL0     H73258   2.453   5.415   4.007 -0.3593  0.1465  1.5539
  555MOL0     H73259   2.068   4.847   4.538  0.9714  1.0939 -3.8459
  555MOL0     H73260   1.862   4.786   4.688  0.2239  0.6052 -0.2210
  556MOL0     O73261   7.882   4.046   9.918 -0.0908 -1.1322  0.2671
  556MOL0     C73262   7.937   4.039   9.806  0.4105 -0.4793 -0.6076
  556MOL0     O73263   7.867   4.045   9.688 -0.4529  0.9506  0.1490
  556MOL0     C73264   7.733   4.014   9.698 -0.7136  0.2210  0.0851
  556MOL0     C73265   7.694   3.890   9.745 -0.2323 -0.0763 -1.5307
  556MOL0     C73266   7.557   3.849   9.737 -0.3654 -0.0404  0.1903
  556MOL0     C73267   7.455   3.933   9.687  0.1233  0.4465 -0.1190
  556MOL0     O73268   7.327   3.899   9.663  0.4933  0.1407 -0.1240
  556MOL0     C73269   7.278   3.782   9.723 -0.1225  0.6891 -0.1426
  556MOL0     C73270   7.118   3.796   9.715 -0.3571  0.5073  0.4123
  556MOL0     C73271   7.051   3.737   9.836 -0.2205 -0.4863  0.6700
  556MOL0     C73272   6.901   3.752   9.832  0.1365 -0.1995  0.2432
  556MOL0     C73273   6.819   3.667   9.924  0.7311  0.1811 -0.1612
  556MOL0     C73274   6.831   3.513   9.899 -0.2301 -0.5156  0.3072
  556MOL0     C73275   6.795   3.437  10.030  0.5941  0.5033  0.1811
  556MOL0     C73276   6.875   3.457  10.165  0.0750  0.9529 -0.6814
  556MOL0     N73277   7.017   3.417  10.147  1.0339  0.4557 -0.4584
  556MOL0     C73278   7.066   3.294  10.099  0.2016  0.1749  0.4919
  556MOL0     C73279   7.199   3.329  10.069  0.0395 -0.6529 -0.1324
  556MOL0     C73280   7.300   3.248  10.000 -0.5262  0.3027 -0.5726
  556MOL0     C73281   7.365   3.151  10.097 -0.5917  0.5019 -0.1096
  556MOL0     C73282   7.449   3.033  10.027 -0.8631  0.5424  0.9196
  556MOL0     C73283   7.572   3.098   9.957  0.3804  0.3688  1.1544
  556MOL0     O73284   7.618   3.005   9.856  0.9310 -0.5159  0.2852
  556MOL0     C73285   7.742   2.962   9.858 -0.0178  1.1994 -0.4417
  556MOL0     C73286   7.774   2.832   9.894  0.3251  0.4122  0.2571
  556MOL0     C73287   7.904   2.777   9.899  0.5896 -0.6367 -0.2339
  556MOL0     C73288   8.016   2.860   9.874  0.6220  0.1669 -0.4944
  556MOL0     C73289   8.155   2.823   9.903  0.2717 -0.2170  0.1332
  556MOL0     O73290   8.175   2.709   9.976 -0.1962  0.3092 -0.1898
  556MOL0     C73291   8.300   2.665  10.015  0.4671 -0.0867  0.6881
  556MOL0     C73292   8.342   2.655  10.154  0.3493  0.1211  0.3507
  556MOL0     C73293   8.474   2.625  10.189 -0.2847  0.1568 -0.4022
  556MOL0     C73294   8.574   2.591  10.094  0.7213  0.7430 -0.0548
  556MOL0     O73295   8.703   2.568  10.109 -0.3763 -0.3292  0.0205
  556MOL0     C73296   8.761   2.612  10.232 -0.4262  0.5252 -0.1829
  556MOL0     C73297   8.915   2.633  10.211  0.0257  0.4384 -0.6546
  556MOL0     C73298   8.961   2.704  10.081 -0.0107  0.1611 -0.3158
  556MOL0     C73299   8.953   2.851  10.079 -0.0121  0.0604  0.0990
  556MOL0     C73300   9.076   2.899   9.991  0.2416 -0.5056  0.4571
  556MOL0     C73301   9.075   3.037   9.934  0.3555  0.2107  0.9782
  556MOL0     C73302   9.047   3.141  10.041  0.4997 -0.1588  0.6146
  556MOL0     C73303   9.148   3.145  10.162  0.3284  0.0034 -0.2019
  556MOL0    Cl73304   9.321   3.138  10.107  0.0245  0.2138 -0.2464
  556MOL0     C73305   8.532   2.589   9.962  0.4744  0.0699 -0.0956
  556MOL0     C73306   8.400   2.632   9.925  0.2939  0.1452 -0.2724
  556MOL0     O73307   8.249   2.897   9.858  0.1138  0.4823 -0.1873
  556MOL0     C73308   7.985   2.992   9.834 -0.0524  0.1514 -0.7974
  556MOL0     C73309   7.851   3.040   9.832  0.1719  0.2300 -0.4617
  556MOL0     N73310   7.228   3.458  10.117  0.0254  0.4256 -0.3419
  556MOL0     N73311   7.115   3.511  10.161 -0.0773  0.5625  0.1592
  556MOL0     C73312   7.500   4.061   9.636 -0.0340  0.0182 -0.6064
  556MOL0     C73313   7.639   4.100   9.646  0.0905 -0.7069 -0.3337
  556MOL0     C73314   8.084   4.008   9.801  0.9772 -0.6394  0.0385
  556MOL0     C73315   8.170   4.060   9.702  1.0355  0.8260  0.1344
  556MOL0     C73316   8.309   4.043   9.698  0.1962  0.6584  0.4502
  556MOL0     C73317   8.364   3.967   9.800 -0.4169 -0.4390 -0.5106
  556MOL0     O73318   8.501   3.944   9.808  0.2577  0.5472  0.1890
  556MOL0     C73319   8.584   4.014   9.712  0.1733 -0.0383 -1.4694
  556MOL0     C73320   8.727   4.010   9.772 -0.9386  0.0783  0.3127
  556MOL0     C73321   8.839   4.076   9.688  0.6913  0.8810  0.6526
  556MOL0     C73322   8.974   4.040   9.745  0.6663 -0.3450  0.4862
  556MOL0     C73323   9.022   3.900   9.714 -0.2558 -0.1694  0.2403
  556MOL0     C73324   9.063   3.792   9.666  0.5046  0.5323 -0.3392
  556MOL0     C73325   8.285   3.924   9.905 -0.3739 -0.3458  0.5105
  556MOL0     C73326   8.146   3.939   9.904  0.1705  0.1684 -0.1171
  556MOL0     H73327   7.771   3.822   9.778 -1.7468 -0.2580  2.0769
  556MOL0     H73328   7.533   3.746   9.763  2.3038 -0.9314 -0.5398
  556MOL0     H73329   7.313   3.787   9.826 -1.9725  1.5002  0.4920
  556MOL0     H73330   7.310   3.687   9.678 -1.2589 -2.0173  4.1210
  556MOL0     H73331   7.081   3.752   9.622 -1.0783 -2.3815  1.9524
  556MOL0     H73332   7.100   3.904   9.716  1.4963  0.8557  2.0691
  556MOL0     H73333   7.096   3.766   9.932  2.0357 -3.4972  0.6875
  556MOL0     H73334   7.073   3.629   9.834 -0.4314 -0.5198 -0.0054
  556MOL0     H73335   6.876   3.857   9.853 -1.5574 -0.5433  0.0834
  556MOL0     H73336   6.864   3.730   9.731 -0.2356 -0.5243  0.4447
  556MOL0     H73337   6.714   3.695   9.910  0.6129 -0.7155 -1.1215
  556MOL0     H73338   6.840   3.686  10.030 -0.1405 -2.0628  0.4790
  556MOL0     H73339   6.931   3.486   9.865 -0.4180 -0.3400 -0.4079
  556MOL0     H73340   6.765   3.481   9.818 -0.4168  1.1659 -0.2415
  556MOL0     H73341   6.691   3.447  10.061  0.7449 -0.5776  1.1219
  556MOL0     H73342   6.804   3.332   9.998  0.0021 -0.2321  2.2362
  556MOL0     H73343   6.829   3.401  10.246  1.4403  1.5320  0.5495
  556MOL0     H73344   6.866   3.559  10.203 -2.2180  0.9188 -1.0249
  556MOL0     H73345   7.012   3.207  10.065 -1.7416  1.9900 -1.3011
  556MOL0     H73346   7.382   3.304   9.956 -0.7300  0.1586 -1.1512
  556MOL0     H73347   7.253   3.179   9.929 -1.7851 -0.9708  1.3744
  556MOL0     H73348   7.285   3.095  10.146 -1.6993 -0.1921 -2.5235
  556MOL0     H73349   7.428   3.210  10.164 -0.5390  2.0317 -1.4357
  556MOL0     H73350   7.474   2.956  10.101  0.9505  0.7238  0.5487
  556MOL0     H73351   7.384   2.984   9.953  1.3401 -0.0185 -0.7736
  556MOL0     H73352   7.657   3.129  10.019  2.6217  0.4964 -1.7535
  556MOL0     H73353   7.550   3.183   9.892 -0.7751 -0.7658 -0.0052
  556MOL0     H73354   7.693   2.766   9.923 -0.8772  0.8945 -1.8019
  556MOL0     H73355   7.912   2.671   9.919 -0.9451 -0.9772 -1.2036
  556MOL0     H73356   8.269   2.671  10.233 -1.0878 -0.7450 -0.7628
  556MOL0     H73357   8.489   2.625  10.296  0.5537  0.5206 -0.5150
  556MOL0     H73358   8.737   2.544  10.314 -1.1298 -1.9817 -2.3295
  556MOL0     H73359   8.733   2.714  10.260  0.7580  0.1368  2.7886
  556MOL0     H73360   8.952   2.531  10.208  0.9335  0.7751 -1.7239
  556MOL0     H73361   8.950   2.670  10.308 -1.0527 -0.2165 -0.0005
  556MOL0     H73362   8.916   2.663   9.991 -0.5715  0.3143 -0.1108
  556MOL0     H73363   9.066   2.678  10.069  0.4933  0.2891  2.8471
  556MOL0     H73364   8.856   2.877  10.035  0.4314  1.4551 -0.0779
  556MOL0     H73365   8.964   2.891  10.180  1.6921  0.1337 -0.0867
  556MOL0     H73366   9.085   2.833   9.904  0.5785  2.4630 -1.9327
  556MOL0     H73367   9.166   2.887  10.052  0.7313  0.4316 -0.0472
  556MOL0     H73368   8.992   3.057   9.865 -0.5821 -0.2509  1.9474
  556MOL0     H73369   9.173   3.053   9.887  1.3447 -2.8511  1.7566
  556MOL0     H73370   9.050   3.238   9.993 -3.1590 -0.2113  0.0437
  556MOL0     H73371   8.946   3.133  10.083  0.2093  1.2313  0.2239
  556MOL0     H73372   9.118   3.060  10.225  0.7592  1.0265  1.4706
  556MOL0     H73373   9.138   3.230  10.231 -0.4170  0.9049 -1.3884
  556MOL0     H73374   8.608   2.564   9.889 -0.6880  1.4892 -1.8635
  556MOL0     H73375   8.376   2.627   9.819 -1.7080 -0.3950  0.1509
  556MOL0     H73376   8.059   3.067   9.807 -0.9313 -0.0562 -4.1667
  556MOL0     H73377   7.844   3.148   9.824 -0.5224  0.2420  0.1825
  556MOL0     H73378   7.426   4.132   9.601  2.0554  2.7345  0.1885
  556MOL0     H73379   7.670   4.193   9.599  3.8900 -0.8649  1.4862
  556MOL0     H73380   8.122   4.111   9.619  1.1773 -0.5787 -0.8659
  556MOL0     H73381   8.362   4.073   9.608  1.1735 -0.1099  0.7555
  556MOL0     H73382   8.554   4.118   9.699  1.5031  0.7826  1.2437
  556MOL0     H73383   8.596   3.964   9.616  2.1600 -2.9587  0.1371
  556MOL0     H73384   8.718   4.049   9.874 -1.8863 -1.4640  0.8647
  556MOL0     H73385   8.754   3.904   9.778  2.4297  0.7667 -0.3381
  556MOL0     H73386   8.835   4.185   9.676  0.6268  0.6556 -2.0365
  556MOL0     H73387   8.825   4.037   9.587 -1.6328  0.3994  1.1141
  556MOL0     H73388   9.050   4.109   9.708  0.4143 -0.5089 -0.3728
  556MOL0     H73389   8.973   4.043   9.854  4.9711 -0.6222  0.6893
  556MOL0     H73390   9.086   3.695   9.627  3.5009  1.6382 -1.6714
  556MOL0     H73391   8.333   3.884   9.994  2.0243  2.5156  0.6444
  556MOL0     H73392   8.096   3.906   9.994  2.3901 -0.9513  0.7731
  557MOL0     O73393   7.547   9.121   7.307 -0.4927 -0.3215 -0.3550
  557MOL0     C73394   7.566   9.158   7.188  0.9217  0.7347 -0.3675
  557MOL0     O73395   7.474   9.212   7.104  0.2628 -0.5621  0.4869
  557MOL0     C73396   7.341   9.215   7.125  0.1265  0.1864 -0.0692
  557MOL0     C73397   7.279   9.110   7.205  0.0057 -0.1002  0.0718
  557MOL0     C73398   7.147   9.122   7.239 -0.2120 -0.6986  0.0798
  557MOL0     C73399   7.065   9.224   7.185  0.0820 -0.5200 -0.3278
  557MOL0     O73400   6.924   9.243   7.204 -0.2933 -0.5521  0.0449
  557MOL0     C73401   6.866   9.172   7.312  0.5413 -0.5788 -0.1547
  557MOL0     C73402   6.823   9.037   7.265  0.2596  0.6701  0.2132
  557MOL0     C73403   6.684   9.038   7.201  0.0932 -0.1192 -0.5731
  557MOL0     C73404   6.668   8.906   7.123  0.2270  0.3342 -0.0887
  557MOL0     C73405   6.552   8.911   7.035  0.0883 -0.1683  0.1756
  557MOL0     C73406   6.420   8.906   7.112 -0.2427  0.4482  0.4751
  557MOL0     C73407   6.299   8.911   7.025 -0.1964  0.0937 -0.0093
  557MOL0     C73408   6.167   8.889   7.105 -0.1623  0.2343 -0.3058
  557MOL0     N73409   6.047   8.919   7.028  0.1324  0.0393  0.4643
  557MOL0     C73410   5.923   8.858   7.051 -0.7507  0.0013  0.7765
  557MOL0     C73411   5.843   8.902   6.961  0.1216 -0.1187  0.4944
  557MOL0     C73412   5.704   8.855   6.926 -0.3212 -0.2802  0.9808
  557MOL0     C73413   5.707   8.771   6.794 -0.6062  0.0087  0.8299
  557MOL0     C73414   5.777   8.626   6.811  0.1856  0.3170 -0.1411
  557MOL0     C73415   5.928   8.627   6.799 -0.3067 -0.2065 -0.9799
  557MOL0     O73416   5.984   8.502   6.787 -0.2851  0.0621 -0.2635
  557MOL0     C73417   6.121   8.492   6.807 -0.4765  0.1715 -0.6092
  557MOL0     C73418   6.165   8.382   6.885 -0.6744  0.3182  0.1686
  557MOL0     C73419   6.296   8.364   6.911 -0.2861 -0.2322  0.6949
  557MOL0     C73420   6.394   8.457   6.871  0.5360  0.2743  0.8490
  557MOL0     C73421   6.535   8.441   6.906  0.7661  1.1465  0.5091
  557MOL0     O73422   6.615   8.529   6.845  0.0802  0.1205 -0.2061
  557MOL0     C73423   6.746   8.539   6.880  0.4898  0.1984  0.4467
  557MOL0     C73424   6.847   8.511   6.786  0.1758 -0.3026 -0.0674
  557MOL0     C73425   6.982   8.525   6.827  0.3325  0.1395 -0.5003
  557MOL0     C73426   7.017   8.560   6.957 -0.0450  0.3299  0.6556
  557MOL0     O73427   7.141   8.566   6.996  0.4822  0.3330  0.5599
  557MOL0     C73428   7.191   8.627   7.118 -0.5186 -0.1679 -0.1025
  557MOL0     C73429   7.337   8.667   7.095 -0.4645 -0.5190 -0.3062
  557MOL0     C73430   7.344   8.779   6.994  0.8205 -0.4797 -0.7188
  557MOL0     C73431   7.485   8.845   6.999  0.2198 -0.1969 -0.2625
  557MOL0     C73432   7.602   8.759   6.944  0.2713  0.1428 -0.2995
  557MOL0     C73433   7.723   8.842   6.925 -0.5900 -0.1665  0.7173
  557MOL0     C73434   7.808   8.776   6.813 -0.1964 -1.1112 -1.0221
  557MOL0     C73435   7.937   8.851   6.772 -0.3363 -0.3171 -0.0253
  557MOL0    Cl73436   8.053   8.772   6.654 -0.1605 -0.0657 -0.0019
  557MOL0     C73437   6.910   8.598   7.037 -1.3637 -0.9427 -0.5696
  557MOL0     C73438   6.780   8.584   7.005 -0.0475  0.9539  0.5071
  557MOL0     O73439   6.565   8.345   6.984 -0.9818 -0.5369  0.3684
  557MOL0     C73440   6.349   8.566   6.793  0.0098  0.2298 -0.3870
  557MOL0     C73441   6.218   8.576   6.755  0.4139 -1.4774 -0.4305
  557MOL0     N73442   5.912   8.999   6.891 -0.1645 -0.3452 -0.2932
  557MOL0     N73443   6.031   9.016   6.944  0.3930 -0.0395 -0.0188
  557MOL0     C73444   7.127   9.316   7.088  0.1283  0.2532 -0.3524
  557MOL0     C73445   7.266   9.305   7.063  0.7850  0.1806  0.0382
  557MOL0     C73446   7.703   9.151   7.135  0.3687  0.3470 -0.5485
  557MOL0     C73447   7.730   9.180   7.007 -0.1766 -0.7960  0.4562
  557MOL0     C73448   7.866   9.173   6.961 -0.3450  0.3101  0.2546
  557MOL0     C73449   7.970   9.118   7.041  0.2303 -0.3054 -0.5143
  557MOL0     O73450   8.087   9.100   6.983 -0.5020  0.4951  0.5900
  557MOL0     C73451   8.186   9.006   7.030  0.5159 -0.3929 -0.7140
  557MOL0     C73452   8.272   8.969   6.903 -0.0662  0.2561  0.4804
  557MOL0     C73453   8.394   8.880   6.931  0.0700 -1.1160 -0.4368
  557MOL0     C73454   8.494   8.883   6.809  0.2825 -0.8620  0.7645
  557MOL0     C73455   8.424   8.814   6.694  0.6206 -0.7802 -0.0245
  557MOL0     C73456   8.361   8.762   6.602  0.6638 -0.6812  0.1779
  557MOL0     C73457   7.938   9.094   7.174 -0.5138  0.3164  0.3712
  557MOL0     C73458   7.808   9.114   7.224  0.1716 -0.5655  0.3518
  557MOL0     H73459   7.343   9.030   7.239  0.6284  1.2758  2.4169
  557MOL0     H73460   7.100   9.042   7.295  0.2780 -0.9512  0.1401
  557MOL0     H73461   6.781   9.229   7.350 -0.0603 -0.1038 -2.1340
  557MOL0     H73462   6.938   9.155   7.393  0.4576  0.5957  0.1871
  557MOL0     H73463   6.837   8.967   7.348  0.2930 -0.3050 -0.5990
  557MOL0     H73464   6.896   9.005   7.191  0.1890  0.3758  0.2704
  557MOL0     H73465   6.674   9.122   7.131  1.1435  1.2532  0.8620
  557MOL0     H73466   6.605   9.042   7.277  0.5928  0.2142 -0.0624
  557MOL0     H73467   6.764   8.893   7.073  1.5573  1.2438  2.1165
  557MOL0     H73468   6.657   8.824   7.194  1.5319 -1.9737 -2.4006
  557MOL0     H73469   6.567   8.835   6.957 -0.5795  2.1188 -2.3363
  557MOL0     H73470   6.565   9.000   6.973 -0.9106 -0.9414 -1.2059
  557MOL0     H73471   6.414   8.986   7.186  1.8664  0.9823  0.1242
  557MOL0     H73472   6.416   8.814   7.171  1.0573  0.8584  1.2337
  557MOL0     H73473   6.295   9.009   6.977 -2.0250  0.8941  1.5752
  557MOL0     H73474   6.305   8.820   6.965  2.3261 -0.0547  0.3682
  557MOL0     H73475   6.170   8.944   7.199 -1.3961  1.6533 -1.0545
  557MOL0     H73476   6.156   8.784   7.135 -2.6566  1.5164  4.0006
  557MOL0     H73477   5.903   8.782   7.126 -1.1180  0.2484  0.9324
  557MOL0     H73478   5.632   8.938   6.919  0.5745  0.8545  3.7645
  557MOL0     H73479   5.669   8.786   7.003 -1.0543 -3.1863 -1.7425
  557MOL0     H73480   5.760   8.826   6.715  0.1372 -0.5930  0.8942
  557MOL0     H73481   5.608   8.758   6.750 -0.3104  1.2342 -0.2836
  557MOL0     H73482   5.757   8.586   6.911 -3.3003  1.5593 -0.2229
  557MOL0     H73483   5.741   8.558   6.733 -1.6287  0.5386  0.4579
  557MOL0     H73484   5.978   8.675   6.883  0.4711 -0.3855 -1.3317
  557MOL0     H73485   5.965   8.678   6.709  2.3787 -0.0384  0.1346
  557MOL0     H73486   6.080   8.316   6.904 -2.0632  1.8152 -0.5955
  557MOL0     H73487   6.333   8.275   6.963  1.3216 -0.0528 -0.0830
  557MOL0     H73488   6.823   8.488   6.683  0.1941  1.4840 -0.5051
  557MOL0     H73489   7.060   8.504   6.755  1.0185  0.1559  0.2206
  557MOL0     H73490   7.178   8.560   7.204 -0.8762 -0.5863 -0.4812
  557MOL0     H73491   7.145   8.722   7.148 -1.4179  0.5007 -3.2306
  557MOL0     H73492   7.389   8.576   7.064 -1.6314 -0.6162 -2.1083
  557MOL0     H73493   7.384   8.700   7.189 -0.6604  1.4696 -0.8546
  557MOL0     H73494   7.274   8.858   7.023 -0.4204 -1.7662 -0.1133
  557MOL0     H73495   7.308   8.737   6.900 -3.6405  0.2487  0.4082
  557MOL0     H73496   7.484   8.936   6.938  2.4579 -1.1321 -1.8172
  557MOL0     H73497   7.498   8.879   7.103  0.4332 -0.8985 -0.0557
  557MOL0     H73498   7.566   8.720   6.848 -2.0948  1.1657  0.0908
  557MOL0     H73499   7.625   8.672   7.005 -0.5630 -0.7095 -1.1731
  557MOL0     H73500   7.775   8.830   7.021 -2.9662 -1.2825  1.9666
  557MOL0     H73501   7.708   8.948   6.901  2.2826  0.3519  0.8836
  557MOL0     H73502   7.824   8.674   6.850 -3.1755 -1.7611 -1.2553
  557MOL0     H73503   7.753   8.762   6.719 -1.1637 -1.6539 -0.4004
  557MOL0     H73504   7.993   8.856   6.866  2.9721  0.3364 -1.8900
  557MOL0     H73505   7.905   8.952   6.744 -2.5700  0.2301  3.8291
  557MOL0     H73506   6.911   8.642   7.137 -0.6347 -2.8464  0.2997
  557MOL0     H73507   6.694   8.610   7.066 -1.1948  1.5150 -1.2626
  557MOL0     H73508   6.415   8.640   6.748 -0.5273  1.2797  0.5036
  557MOL0     H73509   6.201   8.671   6.706  2.4570  0.1666  1.8094
  557MOL0     H73510   7.066   9.385   7.030  1.6867  0.5712 -1.7150
  557MOL0     H73511   7.311   9.381   7.000  1.3179 -0.2877 -0.1459
  557MOL0     H73512   7.650   9.215   6.943  0.4184 -1.0483 -0.4439
  557MOL0     H73513   7.901   9.219   6.869  0.5369 -0.6879  0.0673
  557MOL0     H73514   8.138   8.913   7.063 -0.5688  1.2928  2.8970
  557MOL0     H73515   8.242   9.059   7.107 -0.4084  0.9400 -0.9317
  557MOL0     H73516   8.201   8.919   6.837  0.0641 -0.3253  0.7718
  557MOL0     H73517   8.303   9.055   6.842 -0.1660 -0.5366 -0.7246
  557MOL0     H73518   8.365   8.774   6.935 -0.5422 -0.9508 -0.3426
  557MOL0     H73519   8.442   8.900   7.027  1.0049 -0.9806 -0.9272
  557MOL0     H73520   8.522   8.987   6.789 -2.7310  1.0431  4.9263
  557MOL0     H73521   8.585   8.829   6.837  0.8042 -0.4662 -0.1307
  557MOL0     H73522   8.299   8.717   6.528 -0.9658 -1.9888  2.2312
  557MOL0     H73523   8.018   9.058   7.238  1.9166 -1.2843 -3.2848
  557MOL0     H73524   7.779   9.113   7.329 -2.5587 -1.9416 -0.3205
  558MOL0     O73525   0.920   8.923   2.609  0.0530 -0.1855 -0.6786
  558MOL0     C73526   0.952   8.834   2.533  0.2089  0.5046  0.7396
  558MOL0     O73527   0.861   8.760   2.463  0.4663 -0.4418  0.2944
  558MOL0     C73528   0.734   8.761   2.506 -0.1898 -0.3860  0.2830
  558MOL0     C73529   0.707   8.727   2.636  1.0197  0.0511 -0.2118
  558MOL0     C73530   0.574   8.729   2.683  0.4512  0.8628  0.1335
  558MOL0     C73531   0.466   8.768   2.603 -0.9161  0.0997  0.5649
  558MOL0     O73532   0.337   8.769   2.650  1.0273 -0.3161  0.2543
  558MOL0     C73533   0.214   8.776   2.561 -0.9892  0.3327 -0.2709
  558MOL0     C73534   0.090   8.755   2.656  0.2109  0.3100 -0.1004
  558MOL0     C73535  -0.040   8.736   2.574 -0.3582 -0.2143  0.5535
  558MOL0     C73536  -0.158   8.741   2.666 -0.0607 -0.2197 -0.5411
  558MOL0     C73537  -0.280   8.697   2.598 -0.4015  1.0848 -0.2290
  558MOL0     C73538  -0.390   8.668   2.703 -0.0008  0.4409 -0.8530
  558MOL0     C73539  -0.524   8.652   2.636  0.7677  0.7362 -0.0602
  558MOL0     C73540  -0.633   8.615   2.739  0.2825  0.0233  0.1834
  558MOL0     N73541  -0.757   8.567   2.667 -0.7064  0.3611 -0.4760
  558MOL0     C73542  -0.832   8.643   2.577 -0.0548 -0.0644 -0.4840
  558MOL0     C73543  -0.933   8.554   2.541  0.2955 -0.6214 -0.2052
  558MOL0     C73544  -1.035   8.594   2.431  0.6720  0.2541 -0.9362
  558MOL0     C73545  -1.135   8.706   2.467 -0.0608  0.4978 -0.4047
  558MOL0     C73546  -1.248   8.669   2.564  0.5135 -0.2111  0.4307
  558MOL0     C73547  -1.347   8.782   2.568 -0.4284 -0.1303  0.3364
  558MOL0     O73548  -1.439   8.783   2.678  0.2122 -0.0098 -0.1298
  558MOL0     C73549  -1.566   8.727   2.661 -0.5565 -0.4606  0.6316
  558MOL0     C73550  -1.660   8.763   2.760 -0.3545 -0.8736 -0.2855
  558MOL0     C73551  -1.789   8.714   2.764  0.2129 -0.2264  0.1315
  558MOL0     C73552  -1.839   8.635   2.665 -0.1304  0.3412 -0.2786
  558MOL0     C73553  -1.985   8.599   2.673  0.0043  0.1081  0.6420
  558MOL0     O73554  -2.056   8.648   2.781  0.1617 -0.4646  0.2014
  558MOL0     C73555  -2.180   8.602   2.808 -1.1913  0.2358  0.1985
  558MOL0     C73556  -2.197   8.508   2.902  0.5944  0.2491  0.1986
  558MOL0     C73557  -2.316   8.458   2.937 -0.5874  0.2755  0.0867
  558MOL0     C73558  -2.435   8.509   2.868 -0.1660  0.0629  0.6750
  558MOL0     O73559  -2.563   8.454   2.881 -1.1282 -0.0752  0.2699
  558MOL0     C73560  -2.609   8.445   3.015 -0.3153 -0.4991 -0.7313
  558MOL0     C73561  -2.700   8.331   3.010  0.3309  0.1261  0.2750
  558MOL0     C73562  -2.772   8.315   3.140 -0.7448  0.2295 -0.2541
  558MOL0     C73563  -2.873   8.423   3.171  0.3895  0.3794 -0.5904
  558MOL0     C73564  -2.987   8.370   3.246 -0.1877  0.6171 -0.2217
  558MOL0     C73565  -3.109   8.466   3.245  0.1856  0.5910 -0.1065
  558MOL0     C73566  -3.248   8.404   3.263 -0.0771  0.2377  0.7083
  558MOL0     C73567  -3.295   8.364   3.398  0.5832 -0.2810  0.6947
  558MOL0    Cl73568  -3.321   8.505   3.513 -0.4095 -0.0152 -0.0055
  558MOL0     C73569  -2.416   8.590   2.753 -0.0423  0.4858 -0.5605
  558MOL0     C73570  -2.288   8.641   2.721 -0.0389 -0.0441 -0.3523
  558MOL0     O73571  -2.025   8.528   2.581  0.0887 -0.8609 -0.0411
  558MOL0     C73572  -1.753   8.590   2.561 -0.1345  0.0133 -0.3229
  558MOL0     C73573  -1.616   8.631   2.566 -0.0985  0.2762 -0.0208
  558MOL0     N73574  -0.900   8.427   2.580 -0.4304  0.7831 -0.0275
  558MOL0     N73575  -0.800   8.434   2.661 -0.3016  0.0749  0.2686
  558MOL0     C73576   0.498   8.802   2.471 -0.1939 -0.2643 -0.4498
  558MOL0     C73577   0.630   8.800   2.421 -0.3500 -0.4206  0.0433
  558MOL0     C73578   1.096   8.800   2.497  0.0585 -0.4752  0.2461
  558MOL0     C73579   1.136   8.683   2.426  0.1512 -0.5657  0.3791
  558MOL0     C73580   1.275   8.652   2.418 -0.2401 -0.2005 -0.5724
  558MOL0     C73581   1.376   8.741   2.472 -0.0061  0.6808 -0.0414
  558MOL0     O73582   1.508   8.718   2.465  0.4565  0.4608  0.2988
  558MOL0     C73583   1.548   8.586   2.508 -0.7055 -0.0717 -0.0694
  558MOL0     C73584   1.617   8.501   2.405 -0.1847 -0.2692  0.9654
  558MOL0     C73585   1.766   8.536   2.380 -0.2356 -0.2936 -0.2362
  558MOL0     C73586   1.827   8.458   2.272  0.4577  0.8460  0.4689
  558MOL0     C73587   1.863   8.324   2.317  0.1365 -0.5665  0.4049
  558MOL0     C73588   1.879   8.205   2.327  0.0378 -1.1509 -0.1117
  558MOL0     C73589   1.332   8.855   2.541 -0.1502 -0.1284 -0.2028
  558MOL0     C73590   1.196   8.886   2.550 -0.3257 -0.0661 -0.0030
  558MOL0     H73591   0.795   8.705   2.696  1.2071 -1.4658 -1.0119
  558MOL0     H73592   0.549   8.715   2.787 -2.9114 -3.4837 -0.9881
  558MOL0     H73593   0.222   8.690   2.494 -0.4332 -1.0096  1.4436
  558MOL0     H73594   0.210   8.871   2.507 -1.5100  1.0408  0.9941
  558MOL0     H73595   0.082   8.838   2.728 -0.4406  0.1588  0.0089
  558MOL0     H73596   0.103   8.666   2.718  0.5481 -1.4034 -2.4919
  558MOL0     H73597  -0.037   8.633   2.537  0.6859  0.4090 -1.2080
  558MOL0     H73598  -0.051   8.802   2.488  1.8636 -1.3412 -0.6689
  558MOL0     H73599  -0.141   8.684   2.758 -0.2601 -1.3569 -1.2044
  558MOL0     H73600  -0.176   8.844   2.699 -0.3072 -1.2466  2.9657
  558MOL0     H73601  -0.267   8.599   2.551  1.9030 -0.2936  2.9591
  558MOL0     H73602  -0.313   8.778   2.531 -0.3974  0.6502 -0.7639
  558MOL0     H73603  -0.395   8.752   2.773  0.7817  0.2308 -0.5335
  558MOL0     H73604  -0.356   8.586   2.767 -1.0614  0.8137  0.2070
  558MOL0     H73605  -0.552   8.736   2.573 -0.5807  0.1488 -0.2812
  558MOL0     H73606  -0.519   8.576   2.557 -1.5873  1.9372 -1.4623
  558MOL0     H73607  -0.653   8.705   2.799  2.9108 -0.0333  1.2541
  558MOL0     H73608  -0.598   8.530   2.799  1.8733 -0.2206 -1.0337
  558MOL0     H73609  -0.809   8.744   2.545  1.4184  0.5552  2.2336
  558MOL0     H73610  -1.094   8.507   2.405 -0.8311  0.9974 -0.1431
  558MOL0     H73611  -0.983   8.621   2.338  1.0771  1.3290 -0.4188
  558MOL0     H73612  -1.190   8.732   2.376  1.9589  1.8478 -1.3240
  558MOL0     H73613  -1.080   8.795   2.501  1.4654 -0.5574 -0.0460
  558MOL0     H73614  -1.289   8.576   2.524 -1.3950  0.1371  1.4724
  558MOL0     H73615  -1.205   8.662   2.664  1.2343  1.7464  0.3078
  558MOL0     H73616  -1.404   8.771   2.475 -2.4893 -0.4107  1.5612
  558MOL0     H73617  -1.290   8.876   2.566  1.8307 -1.4377 -1.8118
  558MOL0     H73618  -1.621   8.833   2.833  2.6242 -0.6766 -1.8993
  558MOL0     H73619  -1.857   8.745   2.844  0.2931  1.3136 -0.3519
  558MOL0     H73620  -2.103   8.474   2.945 -0.9397 -2.3001  1.8188
  558MOL0     H73621  -2.325   8.381   3.012  0.6389  1.3009  1.3216
  558MOL0     H73622  -2.669   8.534   3.037  1.8493  1.3136 -1.8398
  558MOL0     H73623  -2.532   8.432   3.091 -1.5647  0.7514  0.7987
  558MOL0     H73624  -2.638   8.245   2.982  0.6962  0.1566  0.9584
  558MOL0     H73625  -2.775   8.340   2.931  0.4935 -0.5838  0.0307
  558MOL0     H73626  -2.696   8.315   3.218 -0.9918  1.0744 -0.0054
  558MOL0     H73627  -2.821   8.217   3.144  1.8717 -1.1125  2.2794
  558MOL0     H73628  -2.833   8.509   3.225  0.4269  0.0992 -0.1593
  558MOL0     H73629  -2.915   8.459   3.077 -0.4675  0.6945 -0.0955
  558MOL0     H73630  -2.952   8.352   3.348  1.2957  2.2018 -0.3913
  558MOL0     H73631  -3.016   8.276   3.199 -0.6351  0.6205  0.0378
  558MOL0     H73632  -3.107   8.517   3.148  1.7072 -2.7447 -2.0291
  558MOL0     H73633  -3.088   8.541   3.321  1.4557 -0.5641  0.7402
  558MOL0     H73634  -3.317   8.480   3.226  0.9002  0.3841 -0.9157
  558MOL0     H73635  -3.257   8.318   3.196  0.1431  2.6287 -2.6221
  558MOL0     H73636  -3.226   8.292   3.443 -0.0275  0.9321  3.8292
  558MOL0     H73637  -3.393   8.315   3.394  0.7197 -0.5071  0.0540
  558MOL0     H73638  -2.494   8.622   2.686  0.8110  3.8737 -0.1000
  558MOL0     H73639  -2.282   8.712   2.639 -0.8035  0.6721  0.1879
  558MOL0     H73640  -1.784   8.522   2.482  0.8888  1.8666 -2.4208
  558MOL0     H73641  -1.539   8.582   2.508 -0.5976 -0.5738  0.0074
  558MOL0     H73642   0.425   8.841   2.401  1.0051  1.9633 -0.5856
  558MOL0     H73643   0.659   8.829   2.321 -0.3713  1.2269  0.4748
  558MOL0     H73644   1.053   8.619   2.398 -2.7013  2.4949  1.1389
  558MOL0     H73645   1.310   8.569   2.356 -1.6663 -0.0639 -1.6105
  558MOL0     H73646   1.462   8.524   2.535  0.5700 -1.5912  0.6386
  558MOL0     H73647   1.611   8.606   2.596 -2.1955  0.8848  0.8299
  558MOL0     H73648   1.617   8.404   2.455 -0.3161 -0.3694  0.7738
  558MOL0     H73649   1.571   8.505   2.306  0.0734  1.6750  0.8766
  558MOL0     H73650   1.821   8.526   2.474 -0.2710 -1.7405 -0.3485
  558MOL0     H73651   1.769   8.641   2.350 -0.9519  1.2747  4.3476
  558MOL0     H73652   1.769   8.437   2.182  1.4236 -0.3906  0.0968
  558MOL0     H73653   1.923   8.505   2.248 -0.1687  2.4358  0.8955
  558MOL0     H73654   1.894   8.099   2.334  1.4110 -0.9337  0.7335
  558MOL0     H73655   1.394   8.927   2.592  1.0266 -0.4461 -1.1489
  558MOL0     H73656   1.173   8.972   2.611  3.6266  0.4166  1.1079
  559MOL0     O73657   1.761   3.039   7.659 -0.4867  0.5628  0.3816
  559MOL0     C73658   1.780   2.943   7.590  0.2919 -0.0904 -0.4139
  559MOL0     O73659   1.696   2.895   7.492  0.2950 -1.1887 -0.1969
  559MOL0     C73660   1.564   2.915   7.514  0.3982 -0.6356  0.2441
  559MOL0     C73661   1.493   3.012   7.433 -1.1226 -0.5862 -0.1358
  559MOL0     C73662   1.364   3.043   7.451  0.3288  0.1668 -0.4759
  559MOL0     C73663   1.285   2.974   7.541 -0.1190  1.0772 -0.8848
  559MOL0     O73664   1.154   3.004   7.558 -0.2197  0.7383 -0.5307
  559MOL0     C73665   1.092   3.115   7.504 -0.1614  0.5537  0.0427
  559MOL0     C73666   0.954   3.088   7.486 -0.4519  0.1381  0.5468
  559MOL0     C73667   0.882   3.095   7.611  1.1902  0.4454 -0.1672
  559MOL0     C73668   0.733   3.076   7.580 -0.8072 -0.5449  1.1871
  559MOL0     C73669   0.637   3.108   7.697 -0.0947  0.2717  0.3687
  559MOL0     C73670   0.500   3.056   7.658  0.0414 -0.4898  0.0188
  559MOL0     C73671   0.388   3.112   7.743 -1.2641  0.2410  0.3366
  559MOL0     C73672   0.377   3.040   7.875  0.0565 -0.0154  0.1687
  559MOL0     N73673   0.288   3.113   7.967 -0.3205 -0.2496 -0.2015
  559MOL0     C73674   0.155   3.110   7.963  0.6516 -0.5038  0.5598
  559MOL0     C73675   0.115   3.210   8.041 -0.3565 -0.5593  0.1652
  559MOL0     C73676  -0.025   3.244   8.068 -0.1349  0.2997 -0.9957
  559MOL0     C73677  -0.110   3.278   7.941 -0.1740 -0.3501 -0.1372
  559MOL0     C73678  -0.246   3.341   7.982  0.4122  0.8258 -0.3572
  559MOL0     C73679  -0.330   3.372   7.857  0.7338 -0.4308 -0.2228
  559MOL0     O73680  -0.443   3.439   7.905 -0.2247 -0.1480  0.5603
  559MOL0     C73681  -0.526   3.492   7.811  0.3147  0.8530  0.1223
  559MOL0     C73682  -0.495   3.519   7.683  0.3467  0.0478  0.7856
  559MOL0     C73683  -0.588   3.577   7.582  0.1989  0.6053  0.2748
  559MOL0     C73684  -0.730   3.590   7.615 -0.8469 -0.3844 -0.0392
  559MOL0     C73685  -0.825   3.622   7.510 -0.3382 -0.5470  0.3923
  559MOL0     O73686  -0.951   3.659   7.547  0.7132 -0.0161  0.1547
  559MOL0     C73687  -1.043   3.716   7.460  0.7182  0.1012 -0.3755
  559MOL0     C73688  -1.012   3.819   7.376  0.1490 -0.1774  0.0229
  559MOL0     C73689  -1.111   3.877   7.291 -0.5709  0.3415 -0.1025
  559MOL0     C73690  -1.243   3.822   7.300 -0.8405  0.0534 -0.2118
  559MOL0     O73691  -1.333   3.866   7.208  0.0963  0.4227 -0.0264
  559MOL0     C73692  -1.436   3.787   7.148  0.1866 -0.2696 -0.0842
  559MOL0     C73693  -1.494   3.848   7.024 -0.2401 -0.4442 -0.2143
  559MOL0     C73694  -1.379   3.863   6.922 -0.0412 -0.3431  0.1186
  559MOL0     C73695  -1.428   3.830   6.768  1.2883  0.7426  0.4443
  559MOL0     C73696  -1.536   3.923   6.706 -0.0158  0.2003 -0.1461
  559MOL0     C73697  -1.451   4.037   6.654 -0.0732  0.5752  0.0333
  559MOL0     C73698  -1.542   4.156   6.613  0.2828  0.0748 -0.0725
  559MOL0     C73699  -1.472   4.290   6.617  0.8267  0.4761  0.1989
  559MOL0    Cl73700  -1.310   4.289   6.537 -0.3591  0.3224 -0.1431
  559MOL0     C73701  -1.268   3.722   7.392  1.0009 -0.0209  0.2635
  559MOL0     C73702  -1.172   3.667   7.476  0.1059  0.0821  0.4216
  559MOL0     O73703  -0.777   3.623   7.393  0.3068 -0.3611 -0.2607
  559MOL0     C73704  -0.757   3.552   7.752  0.8683  0.5337  0.4118
  559MOL0     C73705  -0.665   3.504   7.844  0.2578 -0.4325 -0.5244
  559MOL0     N73706   0.226   3.261   8.109 -0.4759 -0.0298 -0.0264
  559MOL0     N73707   0.333   3.202   8.055  0.6925  0.0049 -0.1711
  559MOL0     C73708   1.350   2.863   7.613 -0.5141 -0.3232  0.3890
  559MOL0     C73709   1.489   2.841   7.604  0.0909  0.4251  0.0724
  559MOL0     C73710   1.923   2.898   7.585 -0.7377 -0.0185  0.4359
  559MOL0     C73711   1.978   2.806   7.495  0.0355  0.2667 -0.1362
  559MOL0     C73712   2.117   2.780   7.489  0.7984 -0.0370 -0.2102
  559MOL0     C73713   2.206   2.850   7.570  0.1582  0.7252  0.0072
  559MOL0     O73714   2.334   2.829   7.577 -0.3615 -0.4289  0.6938
  559MOL0     C73715   2.409   2.757   7.476 -0.3621  0.4346 -0.2896
  559MOL0     C73716   2.432   2.604   7.506 -0.7674 -0.2694 -1.0910
  559MOL0     C73717   2.488   2.588   7.651  0.0194 -1.2124 -0.0400
  559MOL0     C73718   2.639   2.607   7.657 -0.1948  0.2000  0.2332
  559MOL0     C73719   2.709   2.488   7.602  0.4084  0.2167  0.3313
  559MOL0     C73720   2.731   2.382   7.555  0.0109 -0.0560 -0.2890
  559MOL0     C73721   2.149   2.932   7.668  0.2846 -0.2811  0.1133
  559MOL0     C73722   2.012   2.956   7.680  0.1204  0.2738 -0.1501
  559MOL0     H73723   1.547   3.075   7.363 -1.2579 -0.3408 -0.0215
  559MOL0     H73724   1.322   3.123   7.392 -1.1517 -1.1595 -1.3216
  559MOL0     H73725   1.126   3.144   7.404  0.1544  1.4033  0.3882
  559MOL0     H73726   1.103   3.205   7.566 -0.3888  1.6659 -1.4587
  559MOL0     H73727   0.951   2.989   7.440  3.3098  0.9426 -1.8788
  559MOL0     H73728   0.919   3.166   7.418  1.6100  1.2951  0.7053
  559MOL0     H73729   0.907   3.186   7.667  1.3105  0.1784  0.2213
  559MOL0     H73730   0.924   3.012   7.670  0.7536  0.8573  0.7444
  559MOL0     H73731   0.703   3.138   7.494 -1.3935  0.2114  1.9173
  559MOL0     H73732   0.717   2.974   7.545 -0.0065 -0.3399  0.1735
  559MOL0     H73733   0.634   3.217   7.708  1.5205  0.6119 -1.7684
  559MOL0     H73734   0.667   3.069   7.794  0.9969  1.0663  0.3714
  559MOL0     H73735   0.508   2.947   7.667  2.8150 -0.2682  1.0604
  559MOL0     H73736   0.486   3.097   7.557 -0.8309  1.2755  0.8234
  559MOL0     H73737   0.404   3.220   7.749 -2.2266  0.3226  1.7004
  559MOL0     H73738   0.297   3.111   7.682 -1.4328  2.4266  0.4519
  559MOL0     H73739   0.478   3.051   7.915 -0.0786  0.3664  0.3977
  559MOL0     H73740   0.342   2.939   7.849 -0.7239  0.6714 -1.6371
  559MOL0     H73741   0.097   3.046   7.897  1.4377 -1.3777  0.6967
  559MOL0     H73742  -0.022   3.328   8.139  2.3759  0.8512 -1.6707
  559MOL0     H73743  -0.078   3.163   8.119 -2.7805  1.7938 -1.1834
  559MOL0     H73744  -0.133   3.190   7.880  0.5032 -0.0083 -0.9013
  559MOL0     H73745  -0.060   3.355   7.881 -2.4815  2.0094  0.7647
  559MOL0     H73746  -0.306   3.264   8.032  1.1161 -1.0222 -2.2082
  559MOL0     H73747  -0.237   3.437   8.035  1.5665  1.8476 -2.2900
  559MOL0     H73748  -0.366   3.296   7.787 -3.5138  2.3317 -1.3988
  559MOL0     H73749  -0.272   3.445   7.799 -1.3090  1.3439 -0.1516
  559MOL0     H73750  -0.396   3.493   7.648  1.0143  2.3984  0.7394
  559MOL0     H73751  -0.555   3.586   7.479  0.5361  2.0098  0.4764
  559MOL0     H73752  -0.918   3.868   7.397  0.4191 -1.0289  0.8868
  559MOL0     H73753  -1.084   3.962   7.229  0.0363 -1.5259 -2.5054
  559MOL0     H73754  -1.512   3.771   7.225  1.5226 -1.3071  1.0938
  559MOL0     H73755  -1.408   3.687   7.114 -2.2132  0.1503 -3.7361
  559MOL0     H73756  -1.541   3.944   7.045 -0.2164 -0.2553 -1.0050
  559MOL0     H73757  -1.575   3.790   6.979 -1.6668 -0.6588  2.4173
  559MOL0     H73758  -1.311   3.781   6.948 -1.2336 -1.9626 -1.5623
  559MOL0     H73759  -1.321   3.956   6.929 -1.8536  0.7647  1.1302
  559MOL0     H73760  -1.342   3.818   6.701 -0.0852 -1.9679 -1.0092
  559MOL0     H73761  -1.467   3.728   6.770 -0.9352  1.4091 -2.5651
  559MOL0     H73762  -1.600   3.966   6.783 -2.7678 -0.5162 -1.9164
  559MOL0     H73763  -1.607   3.868   6.643  0.5541 -2.7344  1.5929
  559MOL0     H73764  -1.388   4.000   6.572  0.9542  4.8791 -1.3503
  559MOL0     H73765  -1.387   4.076   6.734  0.3318 -1.7073  0.9085
  559MOL0     H73766  -1.594   4.153   6.516 -1.3989  1.8321  0.6971
  559MOL0     H73767  -1.621   4.166   6.688  0.3965  0.5199 -0.0083
  559MOL0     H73768  -1.462   4.311   6.724 -0.5937 -1.8070  0.8629
  559MOL0     H73769  -1.533   4.366   6.568 -0.3125 -0.5000  0.0605
  559MOL0     H73770  -1.364   3.671   7.397  2.4999 -3.0914  0.1631
  559MOL0     H73771  -1.181   3.581   7.541 -1.8103  1.0065  1.4515
  559MOL0     H73772  -0.856   3.559   7.797  0.9629  2.1216  0.4154
  559MOL0     H73773  -0.704   3.471   7.939  1.5555 -1.6047 -0.3640
  559MOL0     H73774   1.282   2.802   7.672 -1.5525  1.6358  1.2911
  559MOL0     H73775   1.537   2.761   7.660  1.7901  2.3207  1.4669
  559MOL0     H73776   1.918   2.757   7.418 -0.6720  1.1656 -0.1770
  559MOL0     H73777   2.150   2.710   7.413  0.5453 -0.8888  0.4497
  559MOL0     H73778   2.509   2.802   7.471  1.2293 -2.9161 -2.1185
  559MOL0     H73779   2.366   2.767   7.376  2.1291  2.3753 -1.2701
  559MOL0     H73780   2.332   2.560   7.501 -2.0798  2.3804 -0.0640
  559MOL0     H73781   2.505   2.557   7.440 -1.9009 -0.4798 -2.2356
  559MOL0     H73782   2.470   2.489   7.692 -1.7051 -1.2541 -0.8387
  559MOL0     H73783   2.452   2.666   7.719  1.2238 -0.9877  0.3667
  559MOL0     H73784   2.661   2.699   7.602 -2.5661  2.3278  2.6093
  559MOL0     H73785   2.672   2.620   7.760 -2.0493 -0.0173  0.8778
  559MOL0     H73786   2.754   2.288   7.508 -1.1015  0.1041 -1.2165
  559MOL0     H73787   2.228   2.973   7.732  2.1797 -0.8352 -1.7498
  559MOL0     H73788   1.979   3.023   7.758 -3.1091 -2.2735  0.9043
  560MOL0     O73789   6.026   8.982   6.493  0.7761  0.0468 -0.1272
  560MOL0     C73790   6.105   8.898   6.468 -0.9710 -0.1900  0.7884
  560MOL0     O73791   6.087   8.790   6.385  0.1990 -0.1861 -0.4386
  560MOL0     C73792   5.956   8.780   6.340  1.8052  0.8908  0.3677
  560MOL0     C73793   5.847   8.739   6.418  1.0181 -0.7964  0.2001
  560MOL0     C73794   5.721   8.711   6.363  0.6080  0.8809 -0.3222
  560MOL0     C73795   5.700   8.715   6.227  0.3191 -0.5329  0.4241
  560MOL0     O73796   5.572   8.702   6.185 -0.0526 -0.7876 -0.9408
  560MOL0     C73797   5.559   8.609   6.077  0.8583  0.7625  0.6958
  560MOL0     C73798   5.412   8.552   6.065  0.1725  0.3543 -1.2975
  560MOL0     C73799   5.320   8.659   6.000  0.6372 -0.7507  0.5818
  560MOL0     C73800   5.171   8.645   6.047 -0.1210  0.0999 -0.3002
  560MOL0     C73801   5.094   8.767   5.987  0.4193  0.4888  0.2212
  560MOL0     C73802   4.952   8.760   6.045 -0.0736  0.2108  0.3142
  560MOL0     C73803   4.847   8.842   5.968 -0.2545  0.8724 -0.8994
  560MOL0     C73804   4.855   8.991   5.958  0.3260  0.2727  0.4392
  560MOL0     N73805   4.851   9.054   6.086  0.2028  0.2369 -0.4448
  560MOL0     C73806   4.734   9.081   6.156  0.5751 -0.8645  0.6746
  560MOL0     C73807   4.775   9.163   6.253  0.3446 -0.2436 -0.4053
  560MOL0     C73808   4.705   9.241   6.351  0.6844  0.6619 -0.1210
  560MOL0     C73809   4.547   9.245   6.361  0.6427  0.0633  0.3560
  560MOL0     C73810   4.494   9.313   6.492  0.5893  0.1262 -0.5770
  560MOL0     C73811   4.342   9.317   6.496  0.6216  0.0341  0.5061
  560MOL0     O73812   4.296   9.317   6.635  0.9800  0.1494  0.2043
  560MOL0     C73813   4.166   9.351   6.675 -0.4730  0.1201 -0.7117
  560MOL0     C73814   4.067   9.386   6.583  0.7013 -0.2114  0.0142
  560MOL0     C73815   3.939   9.426   6.618  1.2035 -0.4385 -0.0729
  560MOL0     C73816   3.913   9.409   6.758 -0.0979  0.2390 -0.3993
  560MOL0     C73817   3.778   9.440   6.797  1.1695 -0.5348 -0.2350
  560MOL0     O73818   3.761   9.491   6.922  0.6071  0.0435 -0.4166
  560MOL0     C73819   3.643   9.545   6.963  0.8373  0.0225  0.0306
  560MOL0     C73820   3.522   9.481   6.959  0.2737 -0.5013  0.3963
  560MOL0     C73821   3.405   9.546   6.998  0.4132  0.9858 -0.3589
  560MOL0     C73822   3.415   9.671   7.069 -0.6453  0.6339 -0.4060
  560MOL0     O73823   3.312   9.744   7.127  0.2644 -0.1751  0.2344
  560MOL0     C73824   3.183   9.689   7.146 -0.5436  0.1994 -0.4649
  560MOL0     C73825   3.105   9.792   7.232  0.3810  0.5600 -0.3946
  560MOL0     C73826   2.956   9.779   7.237  0.6842 -0.0456  0.4755
  560MOL0     C73827   2.900   9.897   7.319  0.8345 -0.2336 -0.4307
  560MOL0     C73828   2.750   9.885   7.325 -0.5086  0.3574  0.5576
  560MOL0     C73829   2.692  10.011   7.386  0.3830 -0.7251 -0.2382
  560MOL0     C73830   2.549   9.976   7.454 -0.4180 -0.0064 -0.0388
  560MOL0     C73831   2.438   9.962   7.347 -0.9045 -0.6934 -0.1173
  560MOL0    Cl73832   2.286  10.009   7.430 -0.0569 -0.0214 -0.2367
  560MOL0     C73833   3.538   9.735   7.066  0.3361 -0.8193 -0.2717
  560MOL0     C73834   3.654   9.675   7.014  0.2921 -1.0069 -0.1655
  560MOL0     O73835   3.683   9.421   6.714 -0.6489 -0.0971 -0.1110
  560MOL0     C73836   4.015   9.385   6.854 -0.8930  0.7049 -0.2586
  560MOL0     C73837   4.143   9.351   6.806  0.9374 -0.2680 -0.9503
  560MOL0     N73838   4.915   9.162   6.255  0.2008 -0.2955 -0.1524
  560MOL0     N73839   4.957   9.095   6.154 -0.4150  0.2737  0.9255
  560MOL0     C73840   5.806   8.760   6.146  0.4398 -1.5359 -0.9240
  560MOL0     C73841   5.936   8.779   6.201  0.0064 -0.1944 -0.3229
  560MOL0     C73842   6.236   8.903   6.518 -0.2289 -0.1369 -0.3932
  560MOL0     C73843   6.261   8.967   6.637  0.4129  0.5778  0.0978
  560MOL0     C73844   6.388   8.963   6.695  0.7814 -0.4814  0.2727
  560MOL0     C73845   6.496   8.914   6.628 -0.3191 -0.1985  0.9094
  560MOL0     O73846   6.617   8.919   6.695  0.5623 -0.3699 -0.4915
  560MOL0     C73847   6.728   8.916   6.606 -0.1452 -0.2161 -0.8695
  560MOL0     C73848   6.849   8.970   6.684  0.5235  0.2713 -0.7372
  560MOL0     C73849   6.899   8.878   6.792  0.2620  0.5036 -0.6727
  560MOL0     C73850   6.986   8.976   6.881 -0.2415  0.1922 -0.1109
  560MOL0     C73851   7.116   9.013   6.827  0.3053 -0.1582  0.4995
  560MOL0     C73852   7.224   9.064   6.800 -0.0706  0.1006  0.5072
  560MOL0     C73853   6.474   8.851   6.502 -0.6265  0.1834  0.7191
  560MOL0     C73854   6.352   8.850   6.448  0.3545  0.0552  0.5551
  560MOL0     H73855   5.863   8.738   6.526  1.0144 -1.0873  0.1972
  560MOL0     H73856   5.631   8.682   6.416 -0.4063  2.2978 -1.1975
  560MOL0     H73857   5.624   8.523   6.096  1.9251  1.6833  1.2988
  560MOL0     H73858   5.582   8.647   5.977  0.1869 -4.3676 -1.7705
  560MOL0     H73859   5.392   8.515   6.165  2.0402  0.4427 -0.8410
  560MOL0     H73860   5.414   8.461   6.004  1.4203 -0.8587  0.4646
  560MOL0     H73861   5.327   8.660   5.891 -3.6574 -0.2289  0.1141
  560MOL0     H73862   5.353   8.754   6.043  0.8042 -0.1836 -0.7652
  560MOL0     H73863   5.125   8.548   6.026 -0.3672 -0.5494  2.7098
  560MOL0     H73864   5.163   8.646   6.156 -1.0678  0.5347 -0.3662
  560MOL0     H73865   5.078   8.762   5.879 -0.9282 -0.6145  0.4313
  560MOL0     H73866   5.142   8.863   6.008 -2.2100  1.5203  2.1588
  560MOL0     H73867   4.948   8.780   6.152  0.8764  3.2126 -0.1002
  560MOL0     H73868   4.910   8.659   6.043  1.6869 -0.6853  3.0875
  560MOL0     H73869   4.823   8.805   5.868  1.4654  1.5782 -1.6066
  560MOL0     H73870   4.757   8.827   6.029  0.6631  0.8206  0.4831
  560MOL0     H73871   4.774   9.028   5.894 -0.6511 -0.4324  1.2479
  560MOL0     H73872   4.946   9.010   5.901 -0.8571 -0.1904 -1.7254
  560MOL0     H73873   4.628   9.067   6.136 -0.2793  2.5328  2.0104
  560MOL0     H73874   4.738   9.345   6.346  1.0339  0.4963 -1.6689
  560MOL0     H73875   4.744   9.211   6.449 -1.5184  0.6760  0.8118
  560MOL0     H73876   4.512   9.143   6.343  1.3768 -0.0468 -0.5100
  560MOL0     H73877   4.507   9.295   6.273  1.2312  0.0073  0.0517
  560MOL0     H73878   4.534   9.264   6.582 -0.1907 -2.9132 -1.7851
  560MOL0     H73879   4.525   9.418   6.490 -2.1289  1.0783  1.0972
  560MOL0     H73880   4.309   9.229   6.440 -0.2407  0.3557  0.4927
  560MOL0     H73881   4.305   9.402   6.438 -1.5224 -0.4402  1.0979
  560MOL0     H73882   4.078   9.377   6.476  0.8482 -0.5954  0.0616
  560MOL0     H73883   3.860   9.420   6.544  0.1472  0.0939  0.9779
  560MOL0     H73884   3.524   9.382   6.915 -0.8396 -0.9767  1.3532
  560MOL0     H73885   3.305   9.505   6.991  0.2098  1.5927 -1.1671
  560MOL0     H73886   3.184   9.587   7.188 -0.6651 -0.6478 -2.4417
  560MOL0     H73887   3.142   9.693   7.045 -0.3423  2.4732 -0.5118
  560MOL0     H73888   3.133   9.891   7.196  3.8997  0.4098  1.4380
  560MOL0     H73889   3.148   9.796   7.333 -2.2337  3.5195  0.7451
  560MOL0     H73890   2.931   9.687   7.292 -0.1734  0.3051  0.6858
  560MOL0     H73891   2.908   9.770   7.139  0.2603 -1.1889  0.7662
  560MOL0     H73892   2.943   9.887   7.419 -1.2866  1.5417  0.7564
  560MOL0     H73893   2.927   9.991   7.269  0.2097 -1.2350 -2.8005
  560MOL0     H73894   2.722   9.797   7.382 -2.1300 -1.2043 -2.4107
  560MOL0     H73895   2.720   9.869   7.221  4.2396 -2.5964 -0.6535
  560MOL0     H73896   2.685  10.094   7.316  1.2401  1.1342  1.7499
  560MOL0     H73897   2.764  10.045   7.461 -0.3855  2.8334 -0.9174
  560MOL0     H73898   2.560   9.880   7.506  0.5139  0.4625  0.6731
  560MOL0     H73899   2.524  10.053   7.528 -1.1204  0.4544 -0.7372
  560MOL0     H73900   2.432   9.861   7.307  3.3014 -0.5800 -1.5092
  560MOL0     H73901   2.468  10.031   7.268  1.5599 -0.1376  1.1857
  560MOL0     H73902   3.541   9.838   7.101 -0.6171 -1.1180  0.7448
  560MOL0     H73903   3.747   9.730   7.004 -1.1347  1.6290  0.1427
  560MOL0     H73904   4.003   9.364   6.960  1.8416 -1.0857 -0.1921
  560MOL0     H73905   4.226   9.335   6.874  1.0577  1.5399 -0.6242
  560MOL0     H73906   5.777   8.775   6.042 -1.8196  0.9297 -0.0560
  560MOL0     H73907   6.026   8.792   6.141  1.1917 -0.3767  1.3497
  560MOL0     H73908   6.178   9.019   6.683 -0.3089 -1.1017  0.8081
  560MOL0     H73909   6.416   9.008   6.790  0.9870  1.7084 -0.7796
  560MOL0     H73910   6.718   8.979   6.517  1.0074 -1.7251 -2.1218
  560MOL0     H73911   6.745   8.817   6.563 -0.0488 -0.9545  0.7843
  560MOL0     H73912   6.925   8.967   6.605 -0.5472 -0.0931 -1.7741
  560MOL0     H73913   6.833   9.073   6.719  0.1075 -0.3030  0.8809
  560MOL0     H73914   6.947   8.798   6.735  1.7085  2.9457 -3.1493
  560MOL0     H73915   6.820   8.844   6.859  2.0692  1.1878  1.9555
  560MOL0     H73916   6.930   9.067   6.903  1.2303  0.5595  2.5907
  560MOL0     H73917   7.009   8.935   6.980 -1.5109  1.5106  0.7686
  560MOL0     H73918   7.314   9.120   6.786  1.2207 -0.2200  5.5001
  560MOL0     H73919   6.560   8.808   6.453 -2.1437 -0.1869 -1.7740
  560MOL0     H73920   6.328   8.804   6.353 -0.3511  0.7906  0.3650
  561MOL0     O73921   8.257   6.169  10.117  0.1217  0.4677 -1.1509
  561MOL0     C73922   8.277   6.242  10.215  0.0869  0.3419  0.1803
  561MOL0     O73923   8.192   6.345  10.262  0.0445 -0.1924  0.7709
  561MOL0     C73924   8.058   6.326  10.241  0.3215  0.1073 -0.4635
  561MOL0     C73925   7.992   6.212  10.291  0.0795 -0.3339  0.6649
  561MOL0     C73926   7.849   6.198  10.280  0.7761  1.3851 -0.8117
  561MOL0     C73927   7.769   6.295  10.229 -0.5132  0.3836  0.1707
  561MOL0     O73928   7.628   6.278  10.225  0.5060 -0.1153  0.0439
  561MOL0     C73929   7.567   6.334  10.112  0.9220 -0.1447  0.7502
  561MOL0     C73930   7.466   6.434  10.164  0.4187 -0.7165 -0.4403
  561MOL0     C73931   7.350   6.448  10.072  0.6693  0.3722  0.9270
  561MOL0     C73932   7.242   6.554  10.121 -0.6225 -0.3469  0.4855
  561MOL0     C73933   7.133   6.562  10.020  0.0653  0.4124  0.4803
  561MOL0     C73934   7.034   6.670  10.058 -0.3832  0.8156  0.2039
  561MOL0     C73935   6.893   6.664   9.985  0.1172 -0.6075 -0.5068
  561MOL0     C73936   6.791   6.724  10.077 -0.8475  0.0921  0.5775
  561MOL0     N73937   6.656   6.725  10.016 -0.6092  0.5996 -0.2628
  561MOL0     C73938   6.609   6.809   9.922 -0.3317 -0.3410  0.3866
  561MOL0     C73939   6.507   6.748   9.861 -0.3529 -0.2790  0.1239
  561MOL0     C73940   6.434   6.820   9.748  0.0666  0.1173  0.6006
  561MOL0     C73941   6.320   6.899   9.795 -0.7175  0.3171  0.1351
  561MOL0     C73942   6.197   6.808   9.834 -0.7439 -0.0461  0.2357
  561MOL0     C73943   6.064   6.886   9.849 -0.1498 -1.0798  0.3899
  561MOL0     O73944   5.960   6.800   9.879 -0.5445 -0.2217 -0.3571
  561MOL0     C73945   5.832   6.841   9.864  0.7357 -0.6907 -0.5931
  561MOL0     C73946   5.784   6.973   9.844 -0.3355  0.3125 -0.2760
  561MOL0     C73947   5.650   7.006   9.822  1.0366  0.4153 -1.2321
  561MOL0     C73948   5.549   6.903   9.814  0.0519  0.0020 -0.3994
  561MOL0     C73949   5.413   6.934   9.791 -0.4087  0.2603  0.8948
  561MOL0     O73950   5.394   7.057   9.745 -0.1479  0.2075 -1.3764
  561MOL0     C73951   5.260   7.102   9.759  0.1955  0.1388 -0.8386
  561MOL0     C73952   5.169   7.101   9.652  0.7003  0.0868 -0.7468
  561MOL0     C73953   5.031   7.124   9.675  0.3085 -0.1023 -0.7383
  561MOL0     C73954   4.986   7.167   9.804  0.8201 -0.0637  0.9350
  561MOL0     O73955   4.852   7.208   9.827 -0.3042 -0.2032  0.4537
  561MOL0     C73956   4.813   7.272   9.953 -0.2556 -0.5661  0.6353
  561MOL0     C73957   4.673   7.319   9.953  0.1919  0.2090  0.6701
  561MOL0     C73958   4.624   7.359   9.811 -0.3672  0.5509 -0.7790
  561MOL0     C73959   4.481   7.412   9.832 -0.6926  0.6846 -0.2777
  561MOL0     C73960   4.400   7.393   9.701 -0.0784  0.3357 -0.2629
  561MOL0     C73961   4.257   7.439   9.716 -0.3916  0.0975  0.0363
  561MOL0     C73962   4.235   7.555   9.614 -1.0882 -0.1849  0.2005
  561MOL0     C73963   4.101   7.630   9.636  1.0035 -0.1558  0.0512
  561MOL0    Cl73964   4.101   7.791   9.563 -0.5747 -0.1638  0.3016
  561MOL0     C73965   5.085   7.188   9.905  0.0618  0.8649  0.6101
  561MOL0     C73966   5.217   7.145   9.885 -0.1316 -1.0562 -0.2368
  561MOL0     O73967   5.324   6.856   9.834  0.0653  0.1068  0.2404
  561MOL0     C73968   5.594   6.775   9.848  0.0657  0.3754  0.7777
  561MOL0     C73969   5.729   6.746   9.878 -0.2694 -0.2790 -0.3221
  561MOL0     N73970   6.501   6.619   9.906  0.1557  0.2003 -0.1719
  561MOL0     N73971   6.581   6.605  10.011  0.2945 -0.1190 -0.0949
  561MOL0     C73972   7.829   6.418  10.195 -0.1824  0.3414  0.0553
  561MOL0     C73973   7.970   6.430  10.199 -0.4599  0.3661  0.1898
  561MOL0     C73974   8.400   6.203  10.286  0.2050 -0.1465  0.0940
  561MOL0     C73975   8.457   6.287  10.387  1.1038 -0.3687 -0.0047
  561MOL0     C73976   8.555   6.236  10.473  0.2426 -0.4572 -0.1765
  561MOL0     C73977   8.602   6.106  10.460  0.8679 -0.9160  0.0098
  561MOL0     O73978   8.699   6.071  10.550  0.0270  0.1623 -0.1402
  561MOL0     C73979   8.741   5.932  10.547 -0.2401 -0.2790 -0.9916
  561MOL0     C73980   8.826   5.896  10.423  0.4506 -0.3488 -0.7921
  561MOL0     C73981   8.958   5.976  10.437  0.4342 -0.7825 -0.6666
  561MOL0     C73982   9.063   5.922  10.341  0.4633  0.1883 -0.1184
  561MOL0     C73983   9.188   5.986  10.361 -0.5746 -0.9419  0.1161
  561MOL0     C73984   9.299   6.041  10.367 -0.4092  0.3039  0.1738
  561MOL0     C73985   8.539   6.027  10.362  0.0655  0.6236 -1.0915
  561MOL0     C73986   8.440   6.073  10.273  0.2219  0.9244  1.0445
  561MOL0     H73987   8.053   6.129  10.324 -0.1834 -1.7131 -2.0282
  561MOL0     H73988   7.813   6.102  10.316 -0.1935  2.2057  0.5134
  561MOL0     H73989   7.514   6.254  10.058 -1.0286  1.3389  0.3856
  561MOL0     H73990   7.644   6.377  10.048  1.0942  2.4821  2.5906
  561MOL0     H73991   7.520   6.528  10.177  0.3591 -0.8560  0.9757
  561MOL0     H73992   7.433   6.409  10.265  1.0135 -2.1830 -0.5854
  561MOL0     H73993   7.301   6.350  10.064  0.6240  0.4443  0.3113
  561MOL0     H73994   7.385   6.472   9.972  3.6371  0.2257  1.8296
  561MOL0     H73995   7.205   6.538  10.222  1.2650 -0.2321  1.2410
  561MOL0     H73996   7.297   6.648  10.127 -0.2223 -0.3173 -2.1563
  561MOL0     H73997   7.082   6.466  10.020  0.0437  0.4255 -0.1852
  561MOL0     H73998   7.183   6.581   9.925 -0.4513  0.7254  0.2704
  561MOL0     H73999   7.072   6.769  10.029  2.0776  0.2354  1.2274
  561MOL0     H74000   7.016   6.670  10.166 -0.8209 -0.4435  0.1424
  561MOL0     H74001   6.891   6.724   9.893 -2.4446  1.4889  0.7524
  561MOL0     H74002   6.868   6.560   9.965  0.6177 -0.6354 -1.0017
  561MOL0     H74003   6.823   6.824  10.106  0.0514  0.9658 -2.9502
  561MOL0     H74004   6.779   6.668  10.171  2.3364 -0.5367  0.7231
  561MOL0     H74005   6.647   6.907   9.896  3.1905 -1.6523  0.0574
  561MOL0     H74006   6.411   6.741   9.675 -1.2427 -0.9752  2.1052
  561MOL0     H74007   6.506   6.880   9.692  0.1664  0.1431  0.7582
  561MOL0     H74008   6.289   6.968   9.717 -0.8584  0.7879  0.6000
  561MOL0     H74009   6.347   6.965   9.879 -0.4867  3.3095 -2.1267
  561MOL0     H74010   6.183   6.728   9.760 -0.2183 -0.0381  0.1224
  561MOL0     H74011   6.220   6.754   9.927 -1.3662 -0.5648  0.0961
  561MOL0     H74012   6.057   6.932   9.750 -2.2315  1.5159  1.6401
  561MOL0     H74013   6.071   6.968   9.921 -0.5012 -1.5373  0.9609
  561MOL0     H74014   5.848   7.061   9.843 -1.6348  1.4414  3.0622
  561MOL0     H74015   5.616   7.108   9.806 -1.5810 -0.0734  0.4989
  561MOL0     H74016   5.192   7.073   9.550 -0.2431 -1.2115 -0.6186
  561MOL0     H74017   4.962   7.107   9.593 -2.6365 -0.8504  1.6801
  561MOL0     H74018   4.869   7.366   9.957 -0.4331 -0.4308  0.1063
  561MOL0     H74019   4.849   7.215  10.038  2.0824 -2.2375 -1.3291
  561MOL0     H74020   4.667   7.403  10.023 -0.7373 -0.7429  1.7586
  561MOL0     H74021   4.599   7.245   9.983 -0.8659  0.0744 -1.9740
  561MOL0     H74022   4.622   7.268   9.751  0.2049 -0.0503  0.0858
  561MOL0     H74023   4.682   7.438   9.760  1.6056  1.0466  1.9806
  561MOL0     H74024   4.441   7.358   9.919  0.0798 -1.2506 -1.0542
  561MOL0     H74025   4.495   7.512   9.873 -1.2589  0.9832 -0.8129
  561MOL0     H74026   4.396   7.285   9.682  1.0750  0.5122 -1.6983
  561MOL0     H74027   4.445   7.452   9.620 -1.3763 -2.8344 -3.5455
  561MOL0     H74028   4.234   7.464   9.821 -0.4501 -1.3901  0.4045
  561MOL0     H74029   4.189   7.361   9.681 -0.2681 -1.1048  2.2512
  561MOL0     H74030   4.305   7.636   9.633  0.4007 -0.7160 -2.5216
  561MOL0     H74031   4.249   7.513   9.514 -1.6091 -4.1847  1.5911
  561MOL0     H74032   4.088   7.641   9.744  0.1004 -0.0019 -0.0661
  561MOL0     H74033   4.020   7.572   9.590 -0.2598  0.5748  1.2733
  561MOL0     H74034   5.076   7.232  10.004  0.9410  0.7983  0.7317
  561MOL0     H74035   5.296   7.139   9.959  1.3132 -0.7531 -1.6991
  561MOL0     H74036   5.522   6.694   9.841  1.8399 -1.1553 -0.6292
  561MOL0     H74037   5.753   6.645   9.909  0.8730  0.2185  0.5140
  561MOL0     H74038   7.778   6.511  10.173  1.3275  1.3601  0.7438
  561MOL0     H74039   8.020   6.522  10.169 -0.2370  0.7340  1.6324
  561MOL0     H74040   8.425   6.391  10.388 -1.1949 -0.8727 -3.4294
  561MOL0     H74041   8.602   6.295  10.550  1.7529 -2.1471  0.2662
  561MOL0     H74042   8.653   5.867  10.550 -0.3641 -0.1294 -1.3168
  561MOL0     H74043   8.804   5.913  10.634  1.7506 -0.8949 -2.4672
  561MOL0     H74044   8.843   5.788  10.411 -1.3828 -0.8131  0.4854
  561MOL0     H74045   8.779   5.926  10.329  0.9023 -1.4198 -1.3799
  561MOL0     H74046   8.992   5.957  10.539 -0.7786  0.8548  0.0745
  561MOL0     H74047   8.940   6.082  10.417 -3.2388 -1.2801 -0.6453
  561MOL0     H74048   9.079   5.816  10.365  1.7338  0.6563  1.2999
  561MOL0     H74049   9.030   5.940  10.239  0.7464  1.0419 -0.0631
  561MOL0     H74050   9.399   6.075  10.381  0.4911 -1.1931 -2.0579
  561MOL0     H74051   8.573   5.924  10.352  1.6918  1.2435 -2.5824
  561MOL0     H74052   8.393   6.005  10.203 -1.2626  2.1148  0.8272
  562MOL0     O74053   6.558   3.121   6.469  0.2850  0.0602  0.6095
  562MOL0     C74054   6.658   3.181   6.434 -0.1720 -0.5903  1.1980
  562MOL0     O74055   6.701   3.305   6.481 -0.9602 -0.3604 -0.4495
  562MOL0     C74056   6.632   3.380   6.568  0.4131 -0.7220 -0.2086
  562MOL0     C74057   6.688   3.436   6.683  0.5122  0.0229  0.9142
  562MOL0     C74058   6.617   3.524   6.767 -0.4406  0.2972  0.8681
  562MOL0     C74059   6.483   3.550   6.733 -0.2400 -0.1600 -0.9634
  562MOL0     O74060   6.395   3.626   6.813 -0.2553  0.2528 -0.3340
  562MOL0     C74061   6.440   3.674   6.941 -0.1035 -0.5576 -0.1331
  562MOL0     C74062   6.323   3.758   6.999 -0.5159 -1.1468  0.2176
  562MOL0     C74063   6.272   3.871   6.905  0.0371 -0.7345 -0.1055
  562MOL0     C74064   6.163   3.952   6.981 -0.3170 -0.9006  0.2062
  562MOL0     C74065   6.028   3.947   6.899  0.1202 -0.5225  0.0414
  562MOL0     C74066   5.923   4.048   6.955 -0.0373 -0.3397 -0.3792
  562MOL0     C74067   5.976   4.190   6.954 -1.3156 -0.5623  0.3500
  562MOL0     C74068   5.877   4.293   7.013  0.0026 -0.3563  0.0383
  562MOL0     N74069   5.951   4.413   7.038  0.2313 -0.3524 -0.5000
  562MOL0     C74070   6.043   4.481   6.956 -0.4509  0.5398  0.1302
  562MOL0     C74071   6.098   4.581   7.033 -0.1763 -0.1644  0.6921
  562MOL0     C74072   6.214   4.668   6.992 -0.0464 -0.4608  0.2297
  562MOL0     C74073   6.351   4.627   7.052 -0.0160  0.2540  0.6798
  562MOL0     C74074   6.465   4.709   6.967  0.1181 -0.4289 -0.3947
  562MOL0     C74075   6.602   4.682   7.012 -0.1479  0.0278  0.3760
  562MOL0     O74076   6.672   4.742   6.902 -0.4419  0.1848 -0.3942
  562MOL0     C74077   6.810   4.736   6.897 -0.2101  0.0204  0.0375
  562MOL0     C74078   6.876   4.845   6.829  0.1616  0.4997 -0.5082
  562MOL0     C74079   7.021   4.863   6.829  0.1766  0.0053 -1.1279
  562MOL0     C74080   7.100   4.760   6.884  0.4130 -0.1448 -0.9461
  562MOL0     C74081   7.246   4.769   6.883 -0.2737 -0.4764 -0.3287
  562MOL0     O74082   7.286   4.866   6.798 -0.2756  0.0515  0.1096
  562MOL0     C74083   7.416   4.911   6.794  0.7169 -0.0809 -0.1116
  562MOL0     C74084   7.450   4.957   6.672  0.5842  0.8675 -0.2242
  562MOL0     C74085   7.585   5.000   6.657  0.5255  0.3002  0.0198
  562MOL0     C74086   7.674   5.011   6.768  0.3616 -1.5005  0.7199
  562MOL0     O74087   7.801   5.066   6.761  0.4091  0.6036  0.0079
  562MOL0     C74088   7.841   5.151   6.657  0.3086 -0.2534 -0.0682
  562MOL0     C74089   7.777   5.288   6.672  0.1987 -0.0155 -0.2728
  562MOL0     C74090   7.838   5.377   6.557 -0.2562 -0.2221 -0.1343
  562MOL0     C74091   7.787   5.520   6.566  0.6646  0.9558  0.1844
  562MOL0     C74092   7.823   5.609   6.448 -0.1203 -0.9474 -0.1049
  562MOL0     C74093   7.975   5.647   6.459  0.0241  0.5981  0.6359
  562MOL0     C74094   8.020   5.708   6.326  0.0942  0.1685 -0.1781
  562MOL0     C74095   8.133   5.799   6.346 -0.5910 -0.3877  0.0758
  562MOL0    Cl74096   8.267   5.721   6.431  0.2086 -0.4563 -0.2900
  562MOL0     C74097   7.632   4.992   6.900 -0.3738  0.2815  0.1559
  562MOL0     C74098   7.501   4.934   6.912  0.4072 -0.0237  0.3592
  562MOL0     O74099   7.313   4.701   6.957 -0.0296 -0.4626  0.3458
  562MOL0     C74100   7.039   4.651   6.949  0.0324  0.4215 -0.5475
  562MOL0     C74101   6.895   4.644   6.962  0.5652  0.0769  0.2420
  562MOL0     N74102   6.034   4.581   7.154 -0.2504 -0.1691  0.3638
  562MOL0     N74103   5.950   4.478   7.158  0.3848 -0.2727 -1.1062
  562MOL0     C74104   6.426   3.487   6.622 -0.1322 -0.5412 -0.5354
  562MOL0     C74105   6.502   3.405   6.542 -0.0060  0.2994  0.1214
  562MOL0     C74106   6.733   3.123   6.317 -0.1290 -0.8814  0.8110
  562MOL0     C74107   6.726   2.994   6.282 -1.2320  0.7381  0.4380
  562MOL0     C74108   6.804   2.937   6.178 -0.3044  0.0147  0.6272
  562MOL0     C74109   6.902   3.011   6.107  0.4063 -0.2480 -0.2768
  562MOL0     O74110   6.990   2.961   6.024 -0.6540 -0.5820  0.6161
  562MOL0     C74111   7.100   2.899   6.095 -0.0263 -0.4145  0.1092
  562MOL0     C74112   7.231   2.951   6.040 -1.0634 -0.3391  1.3577
  562MOL0     C74113   7.270   3.093   6.088 -0.1828 -0.5130  0.4191
  562MOL0     C74114   7.420   3.107   6.124 -0.2299  0.8203 -0.1308
  562MOL0     C74115   7.448   3.247   6.158  0.8051 -0.0973  0.1509
  562MOL0     C74116   7.489   3.355   6.192  0.2042  0.7630  0.2176
  562MOL0     C74117   6.906   3.148   6.143  0.4629 -0.3442 -0.7114
  562MOL0     C74118   6.825   3.204   6.243  0.3454 -0.1211 -0.2050
  562MOL0     H74119   6.791   3.407   6.700  0.3783 -1.3156 -0.3072
  562MOL0     H74120   6.667   3.558   6.858  0.7140  1.9684 -0.3064
  562MOL0     H74121   6.528   3.738   6.929  0.6012 -1.6541 -1.0460
  562MOL0     H74122   6.469   3.598   7.015  1.8450  2.3056  2.2394
  562MOL0     H74123   6.353   3.800   7.095 -0.8902 -0.8411  0.2010
  562MOL0     H74124   6.242   3.685   7.012 -0.2062 -1.2668  1.5870
  562MOL0     H74125   6.224   3.824   6.819 -0.3411 -1.3521  0.4298
  562MOL0     H74126   6.347   3.940   6.867  1.9499 -1.2034  2.5021
  562MOL0     H74127   6.140   3.907   7.078  0.8683 -1.2756  0.3243
  562MOL0     H74128   6.204   4.052   6.996  1.9548 -1.4523 -1.6945
  562MOL0     H74129   5.986   3.846   6.908  1.2056 -0.9871 -0.0458
  562MOL0     H74130   6.043   3.980   6.795 -1.6427  1.1668  0.2380
  562MOL0     H74131   5.894   4.010   7.053  0.6689 -0.0086 -0.0322
  562MOL0     H74132   5.836   4.039   6.889 -0.0066  0.3796 -0.5204
  562MOL0     H74133   6.063   4.196   7.021 -0.6168 -1.3938 -0.4544
  562MOL0     H74134   6.012   4.217   6.855 -1.8156  0.3932  0.4185
  562MOL0     H74135   5.828   4.251   7.101 -1.5699 -0.1305 -0.7100
  562MOL0     H74136   5.796   4.306   6.941 -1.5867  0.3503  1.8839
  562MOL0     H74137   6.092   4.457   6.863  0.3270 -0.2668  0.7379
  562MOL0     H74138   6.198   4.772   7.021  2.5340 -0.0540  0.3873
  562MOL0     H74139   6.215   4.645   6.885 -0.6960  0.5843 -0.0197
  562MOL0     H74140   6.356   4.519   7.035  0.2389  0.3523  0.1031
  562MOL0     H74141   6.347   4.647   7.159  0.4994  1.0325  0.5670
  562MOL0     H74142   6.460   4.683   6.861  2.8042  1.1494 -0.9912
  562MOL0     H74143   6.443   4.816   6.962  0.4144 -0.3461  0.0201
  562MOL0     H74144   6.610   4.574   6.999 -0.1855  0.0989 -0.2958
  562MOL0     H74145   6.622   4.728   7.109  0.2820 -1.0712  0.8204
  562MOL0     H74146   6.802   4.917   6.796 -0.8869 -0.2692  0.0840
  562MOL0     H74147   7.062   4.957   6.792 -3.1462  1.4928 -1.3921
  562MOL0     H74148   7.387   4.954   6.584 -0.2330  1.2289  0.3388
  562MOL0     H74149   7.622   5.022   6.558  1.6203 -0.3206  0.2821
  562MOL0     H74150   7.818   5.114   6.557 -2.0661  1.7429 -0.3746
  562MOL0     H74151   7.949   5.167   6.666  0.3135  1.6822 -2.4868
  562MOL0     H74152   7.798   5.324   6.773  0.7110 -2.5477  0.5961
  562MOL0     H74153   7.670   5.275   6.656  0.2529 -2.2442  0.7646
  562MOL0     H74154   7.816   5.339   6.457  0.5346 -1.3310  0.0942
  562MOL0     H74155   7.947   5.372   6.559 -0.1688  0.7861 -1.3515
  562MOL0     H74156   7.681   5.494   6.558  1.5200 -2.5727 -2.0362
  562MOL0     H74157   7.827   5.559   6.660  3.6065  0.1094 -0.6212
  562MOL0     H74158   7.754   5.694   6.442 -0.5870 -1.3757 -1.0025
  562MOL0     H74159   7.805   5.554   6.355 -0.7150  3.5059 -2.9046
  562MOL0     H74160   8.036   5.560   6.486  1.9923  2.2371  1.7251
  562MOL0     H74161   7.981   5.722   6.538  0.7048 -0.1508  1.3183
  562MOL0     H74162   8.061   5.631   6.260  3.6843 -1.3518  3.4015
  562MOL0     H74163   7.935   5.759   6.279 -0.4752 -0.3826  0.2312
  562MOL0     H74164   8.113   5.892   6.400 -0.8201  0.1289 -0.8729
  562MOL0     H74165   8.167   5.844   6.252  2.5302  0.3487  1.4264
  562MOL0     H74166   7.683   5.029   6.988  2.8268  0.6659 -1.6644
  562MOL0     H74167   7.456   4.902   7.005 -0.4681 -0.7005 -0.2788
  562MOL0     H74168   7.096   4.570   6.995 -0.4332 -0.1816 -1.0155
  562MOL0     H74169   6.857   4.562   7.022  0.3969  0.6233  0.8964
  562MOL0     H74170   6.321   3.507   6.606 -0.5577 -2.0597  0.1333
  562MOL0     H74171   6.452   3.364   6.455 -0.6020  0.1556  0.5192
  562MOL0     H74172   6.656   2.926   6.329  1.9031 -0.9931  3.0134
  562MOL0     H74173   6.794   2.832   6.154 -2.2124  0.0877  0.9617
  562MOL0     H74174   7.104   2.791   6.079  0.8173 -0.1475 -1.8027
  562MOL0     H74175   7.090   2.930   6.199 -0.5445  1.8248 -0.5533
  562MOL0     H74176   7.310   2.885   6.078 -1.3425 -0.4571  1.7296
  562MOL0     H74177   7.234   2.963   5.932  0.5799  1.5896  1.5554
  562MOL0     H74178   7.214   3.120   6.178 -1.0070  0.0057 -0.2309
  562MOL0     H74179   7.255   3.166   6.008 -0.3041  0.2722  1.1506
  562MOL0     H74180   7.459   3.044   6.204  0.9858 -2.7850 -3.2712
  562MOL0     H74181   7.480   3.096   6.033 -1.4707  2.6288 -1.2265
  562MOL0     H74182   7.511   3.448   6.239  0.7343 -0.5402  2.7033
  562MOL0     H74183   6.986   3.213   6.112 -0.3629  0.0756 -2.0262
  562MOL0     H74184   6.850   3.304   6.275  0.8910  0.0163 -1.0131
  563MOL0     O74185   4.739   8.254  10.017 -0.0263 -0.0214  0.3532
  563MOL0     C74186   4.727   8.370   9.978 -0.2735 -0.0860  1.1696
  563MOL0     O74187   4.622   8.425   9.905 -0.2193  0.0912  0.1124
  563MOL0     C74188   4.506   8.367   9.859 -0.5920 -0.2179 -0.0114
  563MOL0     C74189   4.407   8.443   9.800 -0.3862  0.4106  0.6166
  563MOL0     C74190   4.294   8.383   9.749  0.0223  0.0710 -0.1702
  563MOL0     C74191   4.271   8.242   9.750 -0.5130 -0.1864  0.0640
  563MOL0     O74192   4.148   8.185   9.742  1.0162 -0.0076  0.4556
  563MOL0     C74193   4.043   8.254   9.671 -0.5523  0.6114 -0.0358
  563MOL0     C74194   3.919   8.162   9.640  0.3833  0.1952 -0.8164
  563MOL0     C74195   3.792   8.236   9.679  0.4162  0.4092  1.2203
  563MOL0     C74196   3.660   8.156   9.673  0.0780  0.2629  0.2815
  563MOL0     C74197   3.604   8.139   9.816  0.0492 -0.3443 -0.4807
  563MOL0     C74198   3.481   8.044   9.815 -0.4133 -0.1796  0.2492
  563MOL0     C74199   3.368   8.098   9.735 -0.1323 -0.2144 -0.0183
  563MOL0     C74200   3.255   8.169   9.808 -1.0165  0.4592  0.0215
  563MOL0     N74201   3.140   8.209   9.726  0.2963  0.2892  0.3322
  563MOL0     C74202   3.052   8.116   9.668 -1.1227  0.6597  0.7181
  563MOL0     C74203   2.965   8.189   9.610  0.3390 -0.1298 -1.4855
  563MOL0     C74204   2.838   8.144   9.549 -0.4199  0.0797  0.0873
  563MOL0     C74205   2.718   8.103   9.653 -0.7957 -1.0153 -0.1393
  563MOL0     C74206   2.670   8.214   9.750 -0.5402  0.1238  0.7308
  563MOL0     C74207   2.613   8.330   9.681  0.6934  0.0769 -1.1484
  563MOL0     O74208   2.500   8.298   9.598  0.9412  0.4420 -0.0799
  563MOL0     C74209   2.382   8.258   9.661  1.2587 -0.5955  0.4198
  563MOL0     C74210   2.304   8.158   9.599  0.1266  0.3561  0.1858
  563MOL0     C74211   2.191   8.093   9.659  0.2561  0.2283  0.5065
  563MOL0     C74212   2.145   8.143   9.787 -0.2690 -0.1469  0.6728
  563MOL0     C74213   2.013   8.096   9.846  0.1768 -0.4446 -0.5936
  563MOL0     O74214   1.940   8.017   9.764 -0.0730 -0.1030 -0.1534
  563MOL0     C74215   1.819   7.976   9.813  0.2554 -0.0954  1.6311
  563MOL0     C74216   1.795   7.843   9.838  0.0628 -0.2747  0.2222
  563MOL0     C74217   1.670   7.804   9.881 -0.5546 -0.5849  0.5395
  563MOL0     C74218   1.560   7.899   9.890 -0.3841 -0.2577 -0.1018
  563MOL0     O74219   1.436   7.854   9.926 -0.8680 -1.0561  0.2677
  563MOL0     C74220   1.386   7.921  10.041  0.2755 -0.0454 -0.7095
  563MOL0     C74221   1.258   7.865  10.098 -0.1206 -0.2183  0.1823
  563MOL0     C74222   1.185   7.944  10.208 -0.7253 -0.5630  0.2287
  563MOL0     C74223   1.060   7.873  10.251  0.3113 -0.4574 -0.4368
  563MOL0     C74224   0.993   7.952  10.358  0.5944 -0.3839  0.7401
  563MOL0     C74225   0.877   7.873  10.413  0.6330  0.5735  0.1762
  563MOL0     C74226   0.813   7.942  10.531  0.9060 -0.5517  0.1876
  563MOL0     C74227   0.748   8.071  10.504 -0.7434  0.1165 -0.6707
  563MOL0    Cl74228   0.670   8.147  10.646 -0.1336 -0.0512  0.2837
  563MOL0     C74229   1.590   8.031   9.867  0.4101  0.1732  0.5324
  563MOL0     C74230   1.712   8.068   9.815  0.7443 -0.5631  0.4358
  563MOL0     O74231   1.974   8.151   9.949  0.4712 -0.3340  0.1919
  563MOL0     C74232   2.227   8.240   9.849  0.3100  0.1121  0.1217
  563MOL0     C74233   2.338   8.301   9.785 -0.2421 -0.0350  0.4151
  563MOL0     N74234   2.983   8.327   9.629 -0.0427 -0.7428 -0.1431
  563MOL0     N74235   3.087   8.332   9.705  0.8221 -0.2541  0.0130
  563MOL0     C74236   4.372   8.162   9.805  0.1736 -0.1548  0.1547
  563MOL0     C74237   4.480   8.226   9.867 -0.4728 -0.5074 -0.6174
  563MOL0     C74238   4.842   8.468   9.996 -0.1687  0.0249 -0.4389
  563MOL0     C74239   4.971   8.426  10.034  0.1057 -0.6654  0.5430
  563MOL0     C74240   5.074   8.512  10.014  0.6314  0.7629  0.7514
  563MOL0     C74241   5.061   8.644   9.979 -0.6099 -1.0638 -0.8262
  563MOL0     O74242   5.171   8.726   9.973  0.1181 -0.0870 -0.5930
  563MOL0     C74243   5.235   8.765  10.095  0.7591 -0.1489  0.0260
  563MOL0     C74244   5.382   8.758  10.072 -0.8304  0.0652  0.2280
  563MOL0     C74245   5.454   8.846  10.181  0.4400  0.0490  0.3916
  563MOL0     C74246   5.408   8.813  10.322  0.2807 -0.2190  0.1863
  563MOL0     C74247   5.464   8.684  10.362 -0.1505  1.2943 -0.1402
  563MOL0     C74248   5.484   8.560  10.387 -0.2344 -0.3883  0.6267
  563MOL0     C74249   4.936   8.689   9.940 -0.7297 -0.4077 -0.4977
  563MOL0     C74250   4.824   8.604   9.951 -0.7191  0.6775 -0.3680
  563MOL0     H74251   4.432   8.548   9.790  0.9360  0.0376 -0.1704
  563MOL0     H74252   4.223   8.451   9.704  1.0770 -0.8059 -3.4184
  563MOL0     H74253   4.085   8.295   9.578  2.2969 -0.9978  0.4165
  563MOL0     H74254   4.013   8.341   9.730 -1.6595  0.6884 -0.6885
  563MOL0     H74255   3.927   8.077   9.708 -0.6951  0.1589 -0.7233
  563MOL0     H74256   3.933   8.112   9.544  2.3390 -0.2057 -0.3742
  563MOL0     H74257   3.779   8.316   9.606 -1.7438 -1.2875 -0.3956
  563MOL0     H74258   3.803   8.272   9.782  0.8987  1.8108  0.6960
  563MOL0     H74259   3.585   8.216   9.620 -2.6219  0.5161  3.9260
  563MOL0     H74260   3.671   8.056   9.632 -1.4372  0.4852 -0.7321
  563MOL0     H74261   3.562   8.233   9.853 -1.5410 -0.6133 -1.4816
  563MOL0     H74262   3.677   8.103   9.889 -0.3271 -1.3915 -0.6041
  563MOL0     H74263   3.458   8.009   9.916 -2.0511 -0.9326 -0.3481
  563MOL0     H74264   3.502   7.954   9.757 -0.2551  0.8270 -1.3381
  563MOL0     H74265   3.398   8.153   9.645 -0.6483  2.3896  1.2888
  563MOL0     H74266   3.322   8.011   9.688  0.2099  0.1682 -1.0974
  563MOL0     H74267   3.294   8.262   9.849  0.2515 -0.7617  1.7133
  563MOL0     H74268   3.222   8.111   9.895  4.0897 -0.1638  1.8993
  563MOL0     H74269   3.037   8.009   9.667  0.5404  0.4051 -0.3849
  563MOL0     H74270   2.865   8.062   9.481  0.9682  0.1473  0.5287
  563MOL0     H74271   2.794   8.223   9.487 -2.9677 -0.8636  0.5670
  563MOL0     H74272   2.751   8.024   9.721 -1.2293  0.7305  2.2340
  563MOL0     H74273   2.626   8.072   9.603 -0.1167 -2.4937 -0.5400
  563MOL0     H74274   2.601   8.179   9.827 -2.1869  0.4926 -0.5176
  563MOL0     H74275   2.756   8.247   9.810 -1.1198  0.6496  1.2891
  563MOL0     H74276   2.682   8.379   9.612  0.5335  1.1271 -0.5774
  563MOL0     H74277   2.589   8.403   9.759 -0.4796 -0.2258 -1.2070
  563MOL0     H74278   2.338   8.126   9.501  1.1788 -1.7436  1.1727
  563MOL0     H74279   2.136   8.023   9.597  3.5082 -2.1560  0.0379
  563MOL0     H74280   1.863   7.759   9.827  2.6133  1.4368  2.0406
  563MOL0     H74281   1.639   7.701   9.894 -1.4411 -0.3505  0.3455
  563MOL0     H74282   1.370   8.026  10.015  1.5283  0.3322 -0.0003
  563MOL0     H74283   1.459   7.926  10.122 -1.4416  1.2554  0.8699
  563MOL0     H74284   1.277   7.763  10.133  3.4080 -0.6008 -2.3717
  563MOL0     H74285   1.191   7.853  10.012  0.8339  0.1972 -0.6402
  563MOL0     H74286   1.160   8.047  10.181  0.4526 -0.7313 -1.6535
  563MOL0     H74287   1.254   7.949  10.293 -1.0149  0.2651  0.4334
  563MOL0     H74288   0.995   7.846  10.167  2.8645 -0.0571 -2.6467
  563MOL0     H74289   1.084   7.774  10.291  1.9254 -0.3344 -1.0477
  563MOL0     H74290   0.950   8.042  10.313  3.1308  1.3450  1.5588
  563MOL0     H74291   1.066   7.995  10.428  0.7683  3.1592 -1.3608
  563MOL0     H74292   0.924   7.778  10.442 -0.1393 -0.3060 -1.3412
  563MOL0     H74293   0.803   7.852  10.335  2.7604  0.1232 -1.8160
  563MOL0     H74294   0.741   7.880  10.585 -2.5251  2.2120 -0.8836
  563MOL0     H74295   0.892   7.953  10.606  2.1645  1.2705 -1.3161
  563MOL0     H74296   0.681   8.062  10.419  1.2733 -1.5641 -2.2051
  563MOL0     H74297   0.829   8.136  10.467 -0.6693  0.1722 -0.4177
  563MOL0     H74298   1.518   8.113   9.875  2.1335  1.7049  1.0129
  563MOL0     H74299   1.725   8.173   9.792 -2.1023  0.1078  1.4649
  563MOL0     H74300   2.209   8.281   9.948 -0.4737 -0.8735  0.3990
  563MOL0     H74301   2.388   8.388   9.828  0.1262 -0.3741  0.6756
  563MOL0     H74302   4.354   8.055   9.810 -1.8220 -0.0746 -2.7916
  563MOL0     H74303   4.559   8.162   9.905 -0.5007 -1.0257 -1.3999
  563MOL0     H74304   4.996   8.325  10.065  4.3884  0.5725  1.8743
  563MOL0     H74305   5.178   8.487  10.033 -0.1025 -2.3061  1.2141
  563MOL0     H74306   5.203   8.696  10.174  0.1954 -0.3902 -0.4068
  563MOL0     H74307   5.209   8.868  10.122  0.5645  0.4048 -2.1441
  563MOL0     H74308   5.417   8.655  10.079 -4.2701 -1.3698 -1.2846
  563MOL0     H74309   5.396   8.789   9.968 -2.0957  2.0537  0.5817
  563MOL0     H74310   5.434   8.951  10.159 -0.0895  0.0479  0.8767
  563MOL0     H74311   5.560   8.819  10.176  1.0066  1.7816  1.8509
  563MOL0     H74312   5.449   8.889  10.388  0.1253  1.4582 -1.5561
  563MOL0     H74313   5.299   8.821  10.327  0.4798  2.3406  1.4953
  563MOL0     H74314   5.503   8.457  10.409 -0.3598 -0.2484  1.3993
  563MOL0     H74315   4.927   8.791   9.904 -3.4745  0.6040  2.5584
  563MOL0     H74316   4.726   8.638   9.917 -0.9637  0.2600 -0.0886
  564MOL0     O74317   4.186   3.521   3.052 -0.2138  0.4154 -0.0389
  564MOL0     C74318   4.159   3.407   3.015  0.1514 -0.6450  0.7355
  564MOL0     O74319   4.033   3.352   3.016  0.1714  0.0959  0.3968
  564MOL0     C74320   3.920   3.422   3.060  0.7201 -0.1794  0.1235
  564MOL0     C74321   3.910   3.560   3.085 -0.5503 -0.6691  0.2907
  564MOL0     C74322   3.790   3.620   3.117  0.1295 -0.1719 -0.4455
  564MOL0     C74323   3.674   3.546   3.124 -0.4491 -0.1311 -0.0239
  564MOL0     O74324   3.567   3.620   3.164  0.0598  0.9817  0.2178
  564MOL0     C74325   3.464   3.544   3.221 -1.2222  0.0681  0.5387
  564MOL0     C74326   3.350   3.531   3.117  0.3144  0.2453  0.0765
  564MOL0     C74327   3.230   3.446   3.177 -0.5529 -0.0706  0.2793
  564MOL0     C74328   3.128   3.429   3.065  0.0191 -0.3080 -1.3717
  564MOL0     C74329   2.993   3.390   3.129  0.4937 -0.0871  0.2039
  564MOL0     C74330   2.893   3.383   3.016 -0.0096 -0.6420 -0.1427
  564MOL0     C74331   2.759   3.330   3.060 -0.6828  0.2705  0.0536
  564MOL0     C74332   2.666   3.416   3.144  0.2625 -0.2626  0.5778
  564MOL0     N74333   2.533   3.368   3.149  0.5807  0.2990  0.1732
  564MOL0     C74334   2.458   3.301   3.054  1.2481  1.0422  0.1520
  564MOL0     C74335   2.327   3.300   3.102 -0.1469  0.1946  0.0963
  564MOL0     C74336   2.205   3.250   3.038 -0.1666 -0.8134 -0.2163
  564MOL0     C74337   2.081   3.241   3.123  0.2468  0.0728  0.0544
  564MOL0     C74338   2.011   3.373   3.129  0.5841  0.0630  0.0932
  564MOL0     C74339   1.880   3.368   3.209  0.9272 -0.0039  0.4424
  564MOL0     O74340   1.793   3.279   3.139  0.2091  0.1022  0.1957
  564MOL0     C74341   1.677   3.235   3.199  0.1025 -0.3026 -0.3236
  564MOL0     C74342   1.630   3.117   3.142  0.1396 -0.4834  0.3316
  564MOL0     C74343   1.498   3.064   3.185 -0.6894  0.1629 -0.6619
  564MOL0     C74344   1.426   3.142   3.281  0.1890  0.5316 -0.6626
  564MOL0     C74345   1.293   3.099   3.329  0.6823  0.4860  0.2593
  564MOL0     O74346   1.233   3.187   3.409 -0.9224  0.7658 -0.5720
  564MOL0     C74347   1.110   3.162   3.436  0.3842 -0.3766 -0.8739
  564MOL0     C74348   1.012   3.230   3.370 -0.5037 -0.6838  0.0577
  564MOL0     C74349   0.870   3.208   3.392  0.2699 -0.0077  0.0632
  564MOL0     C74350   0.827   3.119   3.492 -0.5943 -0.1251  0.9246
  564MOL0     O74351   0.689   3.104   3.501 -0.0045  0.7345 -0.3652
  564MOL0     C74352   0.630   2.984   3.550 -0.1246 -0.2460 -0.1317
  564MOL0     C74353   0.480   3.005   3.567 -0.2612  1.2253  0.5940
  564MOL0     C74354   0.417   2.915   3.674  0.3248 -0.1663  0.6555
  564MOL0     C74355   0.264   2.921   3.669  0.7204  0.5666  0.1541
  564MOL0     C74356   0.212   2.842   3.783 -0.2091  0.6038  0.2788
  564MOL0     C74357   0.063   2.809   3.761  0.9285  0.0246 -0.0256
  564MOL0     C74358   0.008   2.741   3.893 -0.5896 -0.6575  0.7077
  564MOL0     C74359  -0.139   2.708   3.870 -0.5727  0.3606  0.6216
  564MOL0    Cl74360  -0.183   2.603   3.731  0.1252 -0.4340 -0.3170
  564MOL0     C74361   0.930   3.046   3.556 -0.0062 -0.3811  0.1963
  564MOL0     C74362   1.062   3.054   3.518 -0.0423 -0.5729 -0.7383
  564MOL0     O74363   1.245   2.994   3.285 -0.0597 -0.6569  0.4953
  564MOL0     C74364   1.486   3.249   3.342  0.7642 -0.3106  0.3172
  564MOL0     C74365   1.607   3.299   3.300 -0.2173 -0.4112 -0.0480
  564MOL0     N74366   2.328   3.362   3.222 -0.3126  0.2893 -0.2043
  564MOL0     N74367   2.447   3.405   3.249 -0.3059 -0.7453 -0.1992
  564MOL0     C74368   3.678   3.407   3.093  0.6760 -0.0358  0.3429
  564MOL0     C74369   3.798   3.346   3.054 -0.0832 -0.0045 -0.1119
  564MOL0     C74370   4.267   3.323   2.974  0.2491  0.7815  0.8360
  564MOL0     C74371   4.232   3.206   2.916  0.7159  0.3774 -0.5846
  564MOL0     C74372   4.328   3.113   2.888  0.5378  0.0666 -0.2632
  564MOL0     C74373   4.465   3.136   2.904  0.1094  0.2930  0.0263
  564MOL0     O74374   4.566   3.054   2.868  0.1293 -0.5263  0.4553
  564MOL0     C74375   4.544   2.973   2.752  0.1376  0.3701  0.5717
  564MOL0     C74376   4.519   3.053   2.628 -0.4126 -0.3036  0.5916
  564MOL0     C74377   4.508   2.953   2.507  0.0760 -1.0301  0.0168
  564MOL0     C74378   4.490   3.031   2.373  0.0249  0.2904  0.1847
  564MOL0     C74379   4.617   3.075   2.320  0.0376  0.1412 -0.0302
  564MOL0     C74380   4.717   3.098   2.266 -0.3331 -0.4298 -0.8045
  564MOL0     C74381   4.494   3.254   2.974 -0.6369 -0.3522 -0.0428
  564MOL0     C74382   4.399   3.347   3.013  0.2704  0.8621 -0.3012
  564MOL0     H74383   3.989   3.634   3.076 -0.1556 -1.1729 -0.5350
  564MOL0     H74384   3.788   3.725   3.144 -0.9306 -0.8878  2.7298
  564MOL0     H74385   3.432   3.599   3.311  1.8871  0.6119  1.4255
  564MOL0     H74386   3.496   3.445   3.254  2.3181  1.3735  1.4380
  564MOL0     H74387   3.389   3.478   3.029  1.8803  0.3992  0.6522
  564MOL0     H74388   3.315   3.633   3.097  1.8333  1.0260  1.1591
  564MOL0     H74389   3.186   3.499   3.262 -3.4049 -1.3701 -0.2884
  564MOL0     H74390   3.263   3.344   3.199 -2.3805 -0.7095  0.1927
  564MOL0     H74391   3.106   3.523   3.014 -1.7569 -0.0761 -0.2740
  564MOL0     H74392   3.165   3.359   2.990 -0.2420 -0.7243 -1.1148
  564MOL0     H74393   2.963   3.468   3.200  1.6040  1.0089 -0.4788
  564MOL0     H74394   2.995   3.291   3.175  1.9386 -0.5476 -0.7874
  564MOL0     H74395   2.935   3.308   2.948  0.2615 -1.8321  1.2681
  564MOL0     H74396   2.875   3.483   2.977 -0.9661 -0.3071  1.1024
  564MOL0     H74397   2.699   3.306   2.972 -3.1281 -0.4609  1.8271
  564MOL0     H74398   2.776   3.231   3.104 -0.1358 -0.3378 -1.4642
  564MOL0     H74399   2.667   3.522   3.117  2.5856 -0.1552  0.8875
  564MOL0     H74400   2.710   3.408   3.244 -0.1039  0.4979  0.8058
  564MOL0     H74401   2.483   3.263   2.955 -1.5029  0.0243 -0.2640
  564MOL0     H74402   2.244   3.154   3.002 -0.1306  0.0819 -2.7927
  564MOL0     H74403   2.183   3.312   2.951  0.1194  1.1892  1.0922
  564MOL0     H74404   2.101   3.203   3.224 -0.1226  2.6012  1.1595
  564MOL0     H74405   2.012   3.170   3.077 -0.0621  0.4309 -0.0362
  564MOL0     H74406   2.068   3.446   3.187  1.2269  0.7593 -1.3736
  564MOL0     H74407   1.988   3.408   3.028 -2.3437 -1.7820 -0.0198
  564MOL0     H74408   1.819   3.459   3.205 -0.9574 -1.2453 -0.4990
  564MOL0     H74409   1.893   3.357   3.317 -1.9550 -0.9846  0.7628
  564MOL0     H74410   1.686   3.060   3.069 -0.6172 -0.4308 -0.3010
  564MOL0     H74411   1.458   2.969   3.153 -0.2069  0.1468 -1.2523
  564MOL0     H74412   1.049   3.303   3.298 -2.3769 -0.1925 -0.4762
  564MOL0     H74413   0.804   3.270   3.333 -0.9567 -0.4001  0.9814
  564MOL0     H74414   0.686   2.945   3.636 -0.1386  2.0025  0.9953
  564MOL0     H74415   0.645   2.921   3.462 -0.4095  1.3645 -1.3835
  564MOL0     H74416   0.434   2.967   3.475 -3.7316 -3.2691  3.6794
  564MOL0     H74417   0.448   3.109   3.578 -0.1717  1.4992 -1.4276
  564MOL0     H74418   0.440   2.955   3.773 -1.0772  0.4892  0.7456
  564MOL0     H74419   0.460   2.814   3.674 -1.8155 -1.1596 -0.6256
  564MOL0     H74420   0.229   3.025   3.675 -0.5482  0.1594  0.0102
  564MOL0     H74421   0.229   2.881   3.573  0.8984 -2.3120  1.2039
  564MOL0     H74422   0.219   2.904   3.873  1.0382  2.5475 -1.0895
  564MOL0     H74423   0.266   2.749   3.800  0.7295  1.1096  0.1102
  564MOL0     H74424   0.043   2.730   3.688  1.7345  0.4659 -0.7347
  564MOL0     H74425   0.000   2.894   3.732  1.6179 -0.1479 -2.2081
  564MOL0     H74426   0.063   2.649   3.912 -0.5988 -0.7037  0.5057
  564MOL0     H74427   0.009   2.807   3.981  1.6569  0.2977  0.0382
  564MOL0     H74428  -0.187   2.806   3.861 -1.3019  0.0956  1.4661
  564MOL0     H74429  -0.171   2.657   3.962  2.5900 -0.2568  1.4934
  564MOL0     H74430   0.907   2.969   3.629  0.1015 -0.6992 -0.1056
  564MOL0     H74431   1.143   2.991   3.554 -1.7622 -1.3005  2.1578
  564MOL0     H74432   1.447   3.317   3.418 -1.5766  0.5047 -1.4913
  564MOL0     H74433   1.637   3.394   3.342  0.7437  0.2426 -2.0563
  564MOL0     H74434   3.583   3.356   3.089 -0.8280  2.5998 -0.2753
  564MOL0     H74435   3.805   3.242   3.024  1.3638  0.1056 -0.2376
  564MOL0     H74436   4.128   3.190   2.889  0.7058  3.1740 -2.6098
  564MOL0     H74437   4.301   3.017   2.844 -3.1157  0.2328  1.2902
  564MOL0     H74438   4.453   2.916   2.771 -0.1670 -0.4635 -2.7803
  564MOL0     H74439   4.633   2.910   2.739 -0.8368 -0.6367 -1.7548
  564MOL0     H74440   4.426   3.112   2.626  1.2793  2.5357 -0.3620
  564MOL0     H74441   4.610   3.112   2.616  0.3923 -1.2153  2.0171
  564MOL0     H74442   4.420   2.888   2.515  1.3536 -2.8829 -0.3555
  564MOL0     H74443   4.591   2.883   2.504  1.9358  1.0905 -0.9120
  564MOL0     H74444   4.448   2.964   2.298 -2.4450 -0.4555  2.0946
  564MOL0     H74445   4.421   3.115   2.384  1.3869  1.1250  3.6572
  564MOL0     H74446   4.810   3.136   2.228  1.0430 -2.9323 -0.2350
  564MOL0     H74447   4.599   3.270   2.997 -0.5969 -0.4969 -0.1197
  564MOL0     H74448   4.423   3.436   3.070  1.0976  0.7723 -0.4864
  565MOL0     O74449   8.930   2.692   7.212  0.1711 -0.1097 -0.2480
  565MOL0     C74450   8.972   2.799   7.257  0.5262 -0.1277 -0.1150
  565MOL0     O74451   8.902   2.918   7.265 -0.1572 -0.4270  0.3292
  565MOL0     C74452   8.773   2.911   7.220 -0.2386 -0.5271  1.0540
  565MOL0     C74453   8.736   2.892   7.080 -1.3217 -0.4498 -0.1688
  565MOL0     C74454   8.605   2.884   7.040  0.6476 -0.8588  0.4389
  565MOL0     C74455   8.501   2.911   7.128 -0.9182  0.1349 -1.1700
  565MOL0     O74456   8.365   2.906   7.103  0.7557 -0.6413  0.1314
  565MOL0     C74457   8.319   2.825   6.995 -0.0374 -0.4830 -0.5243
  565MOL0     C74458   8.166   2.822   6.991  0.7757 -0.0385  0.2049
  565MOL0     C74459   8.107   2.698   7.064  0.1167 -0.0568  0.6621
  565MOL0     C74460   7.952   2.698   7.064  0.4981  0.3880  0.6346
  565MOL0     C74461   7.883   2.812   7.130  0.4555  0.0367  0.9624
  565MOL0     C74462   7.727   2.790   7.127  0.4387 -0.1846 -0.6582
  565MOL0     C74463   7.654   2.919   7.176  0.0414 -0.4600  0.1757
  565MOL0     C74464   7.499   2.921   7.187 -0.4465 -0.4416  0.5748
  565MOL0     N74465   7.439   2.863   7.312 -0.7737  0.2536  0.3756
  565MOL0     C74466   7.378   2.743   7.310  0.3655 -0.4675 -0.1392
  565MOL0     C74467   7.367   2.715   7.442  0.0125 -0.0912  0.0655
  565MOL0     C74468   7.312   2.595   7.501 -0.0755  0.2202 -0.0256
  565MOL0     C74469   7.194   2.622   7.584 -0.3344 -0.4715 -0.5170
  565MOL0     C74470   7.080   2.694   7.505  1.0569  0.5108  1.2324
  565MOL0     C74471   7.025   2.640   7.376 -0.0362 -0.0907  0.5485
  565MOL0     O74472   6.959   2.513   7.380 -0.4924  0.0710  0.4984
  565MOL0     C74473   6.837   2.485   7.444 -0.1187  0.9844  0.2203
  565MOL0     C74474   6.745   2.579   7.484  0.8749  0.2354  0.0689
  565MOL0     C74475   6.620   2.537   7.533  0.0310 -0.0241 -0.0475
  565MOL0     C74476   6.592   2.403   7.548  0.1228  0.6654 -0.8154
  565MOL0     C74477   6.463   2.369   7.607 -0.6741  0.1250  0.1568
  565MOL0     O74478   6.371   2.465   7.612  0.2778  0.2782  0.2017
  565MOL0     C74479   6.262   2.449   7.695 -0.6216 -0.6854  0.0553
  565MOL0     C74480   6.244   2.525   7.807  0.1429  1.1976 -0.4130
  565MOL0     C74481   6.134   2.525   7.891  0.3539  1.1387  0.0282
  565MOL0     C74482   6.027   2.448   7.848 -0.9191  0.3597 -0.0641
  565MOL0     O74483   5.909   2.425   7.910 -0.2962 -0.5641 -0.1615
  565MOL0     C74484   5.848   2.539   7.973  0.5096  0.5620 -0.2823
  565MOL0     C74485   5.703   2.501   7.998  0.6739 -0.2457 -0.2833
  565MOL0     C74486   5.686   2.375   8.090 -0.0984 -1.0264 -0.1742
  565MOL0     C74487   5.548   2.372   8.141 -0.3658  0.0749 -0.2183
  565MOL0     C74488   5.535   2.296   8.276 -0.1981  0.0800 -0.0868
  565MOL0     C74489   5.399   2.292   8.350  0.0552  0.4231 -0.1551
  565MOL0     C74490   5.265   2.255   8.271  0.7811 -0.1283 -0.3278
  565MOL0     C74491   5.155   2.196   8.362 -0.1313 -1.4972  0.1293
  565MOL0    Cl74492   5.014   2.141   8.272  0.4695  0.2733  0.3240
  565MOL0     C74493   6.043   2.374   7.732  0.5108 -0.3604  0.1258
  565MOL0     C74494   6.150   2.372   7.647 -0.4585 -1.3895 -0.5364
  565MOL0     O74495   6.448   2.255   7.648  0.0388  0.0500 -0.8894
  565MOL0     C74496   6.682   2.307   7.502 -0.9128  0.1517  0.9358
  565MOL0     C74497   6.803   2.349   7.448  0.3145  0.1915  0.2569
  565MOL0     N74498   7.433   2.812   7.511  0.5096 -0.7465  0.1198
  565MOL0     N74499   7.467   2.905   7.433  1.3255  0.4709 -0.2608
  565MOL0     C74500   8.537   2.945   7.266  0.7209  0.1623  0.2521
  565MOL0     C74501   8.667   2.950   7.302 -0.6301 -0.4053 -0.1595
  565MOL0     C74502   9.124   2.798   7.288  0.2628 -0.1539 -0.0008
  565MOL0     C74503   9.212   2.691   7.239  0.2007  0.0549  0.5733
  565MOL0     C74504   9.353   2.699   7.260 -0.4341 -0.4507  0.6808
  565MOL0     C74505   9.403   2.794   7.355  1.1266  0.9838  0.3794
  565MOL0     O74506   9.532   2.786   7.393 -0.1207 -0.2647 -0.5318
  565MOL0     C74507   9.597   2.901   7.448  0.9427  0.5171  0.2129
  565MOL0     C74508   9.742   2.869   7.450 -0.5417  0.4022 -0.1467
  565MOL0     C74509   9.801   2.882   7.595  0.3154  0.4592 -1.0489
  565MOL0     C74510   9.945   2.829   7.620  0.5376 -0.1274 -0.2888
  565MOL0     C74511   9.962   2.788   7.761 -0.0071  0.6469  0.0319
  565MOL0     C74512   9.993   2.747   7.870 -0.6827  0.1007  0.0998
  565MOL0     C74513   9.315   2.898   7.388  0.2243 -0.7243  0.6127
  565MOL0     C74514   9.181   2.905   7.359 -0.0391  0.1714  0.3570
  565MOL0     H74515   8.821   2.892   7.013  1.1466  1.6413  2.6906
  565MOL0     H74516   8.592   2.858   6.936  0.4133 -0.9578  0.4901
  565MOL0     H74517   8.353   2.725   7.022 -0.2074 -0.3544  0.1726
  565MOL0     H74518   8.364   2.867   6.904 -0.3055 -1.4571 -1.1268
  565MOL0     H74519   8.132   2.819   6.887  2.1641 -1.1082 -0.2580
  565MOL0     H74520   8.121   2.913   7.031 -0.2949 -0.3681 -0.2172
  565MOL0     H74521   8.144   2.708   7.166 -1.4167  0.2028  1.2183
  565MOL0     H74522   8.144   2.600   7.032  0.2860 -0.2749  1.5119
  565MOL0     H74523   7.921   2.700   6.959  1.1927 -0.9024  0.3788
  565MOL0     H74524   7.926   2.607   7.120  1.5820  1.1026  2.3884
  565MOL0     H74525   7.899   2.899   7.066 -0.2394 -2.1492 -2.4193
  565MOL0     H74526   7.921   2.834   7.230  0.7910  0.0987  0.8213
  565MOL0     H74527   7.696   2.709   7.193 -0.2840  0.1734 -0.5421
  565MOL0     H74528   7.690   2.762   7.028 -2.0255  3.6596 -1.0412
  565MOL0     H74529   7.689   2.943   7.277 -1.0888  0.2282  0.4178
  565MOL0     H74530   7.683   2.998   7.105 -0.1194  0.4559  1.1006
  565MOL0     H74531   7.458   2.872   7.099 -2.5585  1.7131  0.2541
  565MOL0     H74532   7.458   3.022   7.194  0.3869 -0.0404 -0.1145
  565MOL0     H74533   7.343   2.689   7.222  1.5620  0.4769 -1.2394
  565MOL0     H74534   7.392   2.563   7.569 -0.1740 -1.9524 -0.8560
  565MOL0     H74535   7.296   2.521   7.422  2.7298 -0.9929  0.4180
  565MOL0     H74536   7.223   2.679   7.673 -2.4521 -2.1188  1.3503
  565MOL0     H74537   7.163   2.527   7.629 -0.2744 -0.2878 -0.0798
  565MOL0     H74538   6.994   2.705   7.572  0.0263 -0.1712  0.0493
  565MOL0     H74539   7.118   2.794   7.481  0.8685  0.3730  0.3347
  565MOL0     H74540   7.104   2.629   7.301 -1.3883 -1.3184 -0.7528
  565MOL0     H74541   6.954   2.715   7.340  0.8393  0.1741 -0.7042
  565MOL0     H74542   6.757   2.687   7.479  1.2780  0.1665 -0.5441
  565MOL0     H74543   6.553   2.617   7.565 -1.8143 -1.9892  1.2923
  565MOL0     H74544   6.329   2.585   7.837 -0.1177  1.8035 -0.8728
  565MOL0     H74545   6.133   2.581   7.984 -1.0421  1.1667  0.0080
  565MOL0     H74546   5.842   2.630   7.912  0.7313 -0.3124 -1.6292
  565MOL0     H74547   5.903   2.562   8.065 -0.5358  1.5469  0.1244
  565MOL0     H74548   5.651   2.476   7.905  3.3545 -3.1610 -1.1865
  565MOL0     H74549   5.652   2.586   8.042 -0.2817 -1.4941  1.1349
  565MOL0     H74550   5.746   2.387   8.181 -1.1590 -0.5169  0.4877
  565MOL0     H74551   5.716   2.282   8.041  1.4034 -0.5110 -0.2983
  565MOL0     H74552   5.521   2.474   8.170  0.4617 -0.1969  1.6684
  565MOL0     H74553   5.485   2.330   8.062 -0.4277  0.0348 -0.1492
  565MOL0     H74554   5.617   2.334   8.336  2.0582 -0.7466 -2.4343
  565MOL0     H74555   5.563   2.191   8.260 -2.2968 -0.3798 -1.2098
  565MOL0     H74556   5.384   2.389   8.399 -0.0316 -1.1244  3.1613
  565MOL0     H74557   5.422   2.219   8.428  1.1638  2.4967  1.5601
  565MOL0     H74558   5.227   2.348   8.228  0.5068 -0.8005 -1.5710
  565MOL0     H74559   5.304   2.181   8.200 -1.2338  1.8948 -3.8365
  565MOL0     H74560   5.117   2.272   8.431  0.3982 -0.5844 -0.5461
  565MOL0     H74561   5.191   2.115   8.426 -3.0578 -1.5380  1.8543
  565MOL0     H74562   5.963   2.305   7.708  1.0518 -0.6577 -0.8371
  565MOL0     H74563   6.163   2.311   7.558 -1.7277 -1.3246 -0.7873
  565MOL0     H74564   6.662   2.200   7.507  0.8520 -0.1786  1.3241
  565MOL0     H74565   6.871   2.277   7.404 -0.0523 -0.1990  0.3203
  565MOL0     H74566   8.461   2.986   7.332 -1.4402 -2.3281 -0.4721
  565MOL0     H74567   8.698   2.970   7.404 -1.9147  0.2040  0.1191
  565MOL0     H74568   9.176   2.607   7.180 -1.8971  1.7911 -0.7540
  565MOL0     H74569   9.422   2.620   7.230  1.3353  0.5294  1.9339
  565MOL0     H74570   9.559   2.930   7.546  1.7741  0.5330  0.5354
  565MOL0     H74571   9.591   2.982   7.374  4.4138 -0.9933 -1.9811
  565MOL0     H74572   9.772   2.769   7.417  0.2482  0.7556 -0.5206
  565MOL0     H74573   9.788   2.942   7.383 -0.4847 -0.1479 -0.7179
  565MOL0     H74574   9.728   2.837   7.664  1.8781  0.2176  0.5211
  565MOL0     H74575   9.799   2.989   7.616 -0.7244  0.1914  0.3307
  565MOL0     H74576   9.952   2.743   7.553 -3.2623 -1.9377  1.3487
  565MOL0     H74577  10.013   2.911   7.595  0.6236  0.0823  0.6040
  565MOL0     H74578  10.037   2.723   7.965  0.0022 -1.1835 -0.5159
  565MOL0     H74579   9.348   2.980   7.451  1.6327  1.7434 -2.9688
  565MOL0     H74580   9.124   2.993   7.388  0.4521  1.0289 -1.1393
  566MOL0     O74581   0.273   5.475  10.611 -0.2055 -0.2529 -0.2767
  566MOL0     C74582   0.283   5.363  10.560 -0.3212  0.5450  0.1907
  566MOL0     O74583   0.197   5.254  10.572 -1.4081  0.4388  0.7706
  566MOL0     C74584   0.099   5.262  10.670 -0.4180 -0.0302  0.6170
  566MOL0     C74585   0.130   5.308  10.797 -0.0280  0.0220 -0.7098
  566MOL0     C74586   0.025   5.310  10.889  0.8902  0.0013 -0.5698
  566MOL0     C74587  -0.110   5.273  10.865 -0.8095  0.8548  0.3880
  566MOL0     O74588  -0.196   5.274  10.972 -0.8265 -0.5391  0.0441
  566MOL0     C74589  -0.329   5.317  10.943 -0.8370  0.1684  0.3129
  566MOL0     C74590  -0.404   5.347  11.062  0.2843 -0.2662  0.0212
  566MOL0     C74591  -0.529   5.414  11.036 -0.0067 -0.1935 -0.0966
  566MOL0     C74592  -0.622   5.430  11.160 -0.3295  0.4109  0.6127
  566MOL0     C74593  -0.764   5.498  11.125 -0.3825 -0.3139 -0.4805
  566MOL0     C74594  -0.878   5.481  11.226  0.1537  0.9248 -0.2745
  566MOL0     C74595  -0.999   5.550  11.185  0.3370 -0.2944  0.0899
  566MOL0     C74596  -1.097   5.561  11.301 -0.1353  0.1267  0.0623
  566MOL0     N74597  -1.225   5.628  11.267  0.0017 -0.1457  0.0734
  566MOL0     C74598  -1.330   5.561  11.203  0.3718 -0.0951 -0.1316
  566MOL0     C74599  -1.425   5.659  11.195 -0.1013  0.1083  0.2808
  566MOL0     C74600  -1.558   5.621  11.147  0.1602  0.8103 -0.0037
  566MOL0     C74601  -1.665   5.621  11.264 -0.4185 -0.3873  0.4204
  566MOL0     C74602  -1.710   5.473  11.301 -0.1865  0.7381 -0.1248
  566MOL0     C74603  -1.790   5.408  11.195  0.3815  0.0995 -0.1720
  566MOL0     O74604  -1.900   5.497  11.162 -0.2689 -0.0788 -0.0884
  566MOL0     C74605  -2.028   5.496  11.210  0.6302 -0.2841  1.6920
  566MOL0     C74606  -2.108   5.376  11.236 -0.2506  0.0334  0.6991
  566MOL0     C74607  -2.240   5.389  11.277  0.1926 -0.1662  0.9484
  566MOL0     C74608  -2.304   5.513  11.299 -0.3493  0.1307  0.7286
  566MOL0     C74609  -2.452   5.524  11.325 -0.1719 -0.6308  0.8077
  566MOL0     O74610  -2.526   5.413  11.331  0.4637 -0.5515 -0.3910
  566MOL0     C74611  -2.661   5.416  11.292  0.0997 -1.2766 -0.7306
  566MOL0     C74612  -2.714   5.346  11.183 -0.6414  0.4802 -0.4372
  566MOL0     C74613  -2.855   5.347  11.152  0.1312  0.1948  0.6219
  566MOL0     C74614  -2.941   5.421  11.231 -0.2196 -0.9498  0.5030
  566MOL0     O74615  -3.069   5.431  11.190  0.3048 -0.6465 -0.2691
  566MOL0     C74616  -3.165   5.502  11.273  0.2053 -0.8986 -0.0335
  566MOL0     C74617  -3.294   5.471  11.214 -0.6717  0.8158  0.5464
  566MOL0     C74618  -3.398   5.499  11.312 -0.0799  0.3004  0.5839
  566MOL0     C74619  -3.545   5.460  11.275  0.4213 -0.2259 -0.2065
  566MOL0     C74620  -3.608   5.556  11.175 -0.5877 -0.4024  0.3298
  566MOL0     C74621  -3.760   5.567  11.190  0.8167  0.3706 -0.2719
  566MOL0     C74622  -3.840   5.436  11.176  0.0685  0.7638  0.0083
  566MOL0     C74623  -3.972   5.439  11.251 -0.5768 -0.5154 -0.4223
  566MOL0    Cl74624  -4.062   5.289  11.219  0.1159  0.1536 -0.2911
  566MOL0     C74625  -2.882   5.509  11.333 -0.4334  0.6608 -0.2605
  566MOL0     C74626  -2.752   5.491  11.374  0.3207 -0.6961 -0.4620
  566MOL0     O74627  -2.486   5.637  11.343  0.1863 -0.2296  0.1274
  566MOL0     C74628  -2.220   5.626  11.289  0.4459 -0.9031  0.4957
  566MOL0     C74629  -2.083   5.616  11.252  0.3727 -0.1232 -0.3153
  566MOL0     N74630  -1.371   5.778  11.254 -0.1495 -0.3461 -0.4720
  566MOL0     N74631  -1.249   5.761  11.294  0.0234 -0.0155 -0.1830
  566MOL0     C74632  -0.139   5.245  10.735 -0.5987  0.4334  0.2165
  566MOL0     C74633  -0.033   5.231  10.634  0.6229 -0.4043  0.0666
  566MOL0     C74634   0.399   5.343  10.477  0.3489  0.4417  0.7740
  566MOL0     C74635   0.448   5.213  10.457  0.0445  0.5907 -0.3030
  566MOL0     C74636   0.542   5.185  10.363  0.3560  0.1204 -0.1207
  566MOL0     C74637   0.615   5.286  10.307  0.6232  0.1949 -0.7111
  566MOL0     O74638   0.722   5.264  10.221 -0.1163  0.7533 -0.0969
  566MOL0     C74639   0.721   5.134  10.159 -0.6014 -0.0645  0.5640
  566MOL0     C74640   0.787   5.120  10.011  0.0652  0.6964 -0.0595
  566MOL0     C74641   0.936   5.146  10.007 -0.0475  0.0073  0.2593
  566MOL0     C74642   0.997   5.092   9.877 -0.5167  0.6942  0.2467
  566MOL0     C74643   1.131   5.152   9.850 -0.3653 -0.0155 -0.4774
  566MOL0     C74644   1.225   5.212   9.802 -0.5348 -0.5283  0.4402
  566MOL0     C74645   0.576   5.420  10.330  0.2577 -0.3671  0.4780
  566MOL0     C74646   0.468   5.448  10.411 -0.6014  0.3864  0.1129
  566MOL0     H74647   0.229   5.342  10.829 -0.2517  0.5434 -0.5639
  566MOL0     H74648   0.058   5.342  10.988  0.4467  1.4060 -0.8579
  566MOL0     H74649  -0.371   5.239  10.877  1.6884  0.2861 -1.5882
  566MOL0     H74650  -0.323   5.407  10.881 -2.0755  0.1755  0.1814
  566MOL0     H74651  -0.334   5.412  11.117  2.5579 -2.0391 -0.6030
  566MOL0     H74652  -0.414   5.258  11.124 -2.2727 -1.7631 -2.3663
  566MOL0     H74653  -0.594   5.359  10.967 -2.6993  0.4447  1.7844
  566MOL0     H74654  -0.500   5.507  10.985  0.6197  0.0946  0.7696
  566MOL0     H74655  -0.627   5.330  11.204  0.7336  0.5655  1.1075
  566MOL0     H74656  -0.568   5.495  11.229 -0.6470 -0.1249  1.3864
  566MOL0     H74657  -0.805   5.461  11.031  0.8757  0.6811 -1.4704
  566MOL0     H74658  -0.737   5.604  11.120  1.7722 -0.5431  2.8612
  566MOL0     H74659  -0.849   5.502  11.329 -1.2033  0.8787  0.1392
  566MOL0     H74660  -0.903   5.375  11.226  1.9498  0.4045  2.8577
  566MOL0     H74661  -0.978   5.650  11.147 -0.0423  0.4574  1.7646
  566MOL0     H74662  -1.052   5.499  11.104 -1.5915  2.7401 -0.7430
  566MOL0     H74663  -1.048   5.618  11.380  2.5030  1.1192 -2.1366
  566MOL0     H74664  -1.124   5.460  11.333 -1.0105 -0.3492 -2.0016
  566MOL0     H74665  -1.339   5.459  11.167 -1.7489 -0.4350  1.2118
  566MOL0     H74666  -1.554   5.520  11.107  1.2953  0.3297  1.2494
  566MOL0     H74667  -1.590   5.688  11.067  3.2832 -1.1498 -3.1911
  566MOL0     H74668  -1.757   5.675  11.239  0.0191 -0.3269 -1.1795
  566MOL0     H74669  -1.627   5.675  11.351  2.1283  0.1566 -0.9383
  566MOL0     H74670  -1.621   5.413  11.319 -1.6363 -2.9817 -3.6814
  566MOL0     H74671  -1.756   5.479  11.400  1.8235  0.2725  0.8822
  566MOL0     H74672  -1.814   5.311  11.239 -1.9859  0.8929  0.4436
  566MOL0     H74673  -1.725   5.386  11.110 -0.9999 -1.3749 -0.8940
  566MOL0     H74674  -2.075   5.275  11.216 -0.8436 -0.7673  3.4476
  566MOL0     H74675  -2.307   5.304  11.283 -1.2568  0.8953  0.3318
  566MOL0     H74676  -2.643   5.291  11.122 -0.5192 -0.3083  0.3885
  566MOL0     H74677  -2.880   5.300  11.057  2.8588  1.2297 -0.7050
  566MOL0     H74678  -3.149   5.609  11.261 -0.5916 -0.7067  0.5845
  566MOL0     H74679  -3.165   5.472  11.379 -1.9745 -0.0983  0.2332
  566MOL0     H74680  -3.289   5.365  11.189  0.9816  0.8951  0.4429
  566MOL0     H74681  -3.324   5.518  11.120 -3.4232  2.4380  2.1036
  566MOL0     H74682  -3.393   5.607  11.329  0.9554  0.1245  1.4679
  566MOL0     H74683  -3.385   5.446  11.407 -0.2524 -1.8309 -0.5141
  566MOL0     H74684  -3.560   5.358  11.240 -1.9567  0.1458 -0.4713
  566MOL0     H74685  -3.595   5.470  11.372  1.1259 -0.3589  0.1785
  566MOL0     H74686  -3.578   5.541  11.071 -0.0298 -1.2185  0.5883
  566MOL0     H74687  -3.574   5.658  11.194  0.8034 -1.0276  1.3951
  566MOL0     H74688  -3.795   5.633  11.110  0.5246 -1.3985 -1.6439
  566MOL0     H74689  -3.796   5.613  11.283  0.5158 -0.0195 -0.1939
  566MOL0     H74690  -3.855   5.418  11.070 -0.3102 -0.3719  0.2353
  566MOL0     H74691  -3.779   5.349  11.204 -0.4236  0.2164 -0.5907
  566MOL0     H74692  -4.030   5.531  11.237  0.6815  0.5335  0.8166
  566MOL0     H74693  -3.949   5.436  11.358 -2.3972 -5.1640  0.0818
  566MOL0     H74694  -2.934   5.584  11.392 -1.7209  0.0388 -0.5732
  566MOL0     H74695  -2.720   5.545  11.463 -0.7630 -0.6310 -0.0919
  566MOL0     H74696  -2.256   5.725  11.316 -0.2926 -0.2727 -2.3742
  566MOL0     H74697  -2.014   5.700  11.257 -0.3954  0.4968  0.0317
  566MOL0     H74698  -0.242   5.234  10.702 -0.8671 -0.6582  1.3512
  566MOL0     H74699  -0.049   5.209  10.529  0.0846 -0.1456  0.0931
  566MOL0     H74700   0.388   5.138  10.508 -1.2276  3.4571  2.8230
  566MOL0     H74701   0.573   5.084  10.339 -0.2006 -0.3161  0.9464
  566MOL0     H74702   0.618   5.102  10.139 -0.1449 -1.3299  0.1389
  566MOL0     H74703   0.771   5.060  10.222  1.1877  0.7837  0.2095
  566MOL0     H74704   0.747   5.027   9.969 -1.6630  1.5566 -0.3985
  566MOL0     H74705   0.745   5.198   9.947 -2.6875  0.6074  1.4576
  566MOL0     H74706   0.988   5.100  10.092 -0.1358 -3.3460 -1.3603
  566MOL0     H74707   0.952   5.255  10.006 -2.8231  0.4871  0.9159
  566MOL0     H74708   1.019   4.985   9.885 -1.8279  0.0957 -2.8355
  566MOL0     H74709   0.934   5.117   9.792  0.8397  0.2707 -0.9315
  566MOL0     H74710   1.304   5.263   9.751  1.0259  0.9583  3.9732
  566MOL0     H74711   0.627   5.502  10.282 -1.7036  1.2839  1.0723
  566MOL0     H74712   0.440   5.551  10.432  2.0023  1.2393 -0.1919
  567MOL0     O74713   4.298   3.235   4.290  0.2055 -0.5782 -0.1021
  567MOL0     C74714   4.317   3.241   4.170  0.5021  0.5739  1.0519
  567MOL0     O74715   4.221   3.208   4.079  0.0995 -0.7104  0.0798
  567MOL0     C74716   4.098   3.167   4.129  0.3889  0.0964  0.4415
  567MOL0     C74717   4.018   3.266   4.183  0.7765  0.3621  0.0550
  567MOL0     C74718   3.889   3.249   4.219 -1.5805  0.4452 -0.0493
  567MOL0     C74719   3.837   3.115   4.215  0.7991 -0.4830  0.1200
  567MOL0     O74720   3.707   3.080   4.259  0.8782 -0.2635  0.0018
  567MOL0     C74721   3.614   3.182   4.302 -0.2503 -0.1971 -0.2529
  567MOL0     C74722   3.471   3.126   4.343 -1.0375  0.5755  0.3844
  567MOL0     C74723   3.373   3.232   4.390 -0.0535  0.3826  0.7783
  567MOL0     C74724   3.257   3.157   4.458 -0.6115  0.2750 -0.0899
  567MOL0     C74725   3.168   3.252   4.538 -0.0335  1.1141 -0.3482
  567MOL0     C74726   3.052   3.176   4.596  0.2645 -0.0920 -0.6228
  567MOL0     C74727   2.950   3.257   4.683  0.9465  0.7204  1.1471
  567MOL0     C74728   2.832   3.155   4.717 -0.9406 -0.1788 -0.5118
  567MOL0     N74729   2.732   3.226   4.803  0.5237  0.8544  0.2832
  567MOL0     C74730   2.627   3.296   4.752 -0.0349 -0.0626 -0.4988
  567MOL0     C74731   2.563   3.340   4.857 -0.1345 -0.6841  0.5373
  567MOL0     C74732   2.443   3.432   4.842 -0.6280  0.1010  0.0854
  567MOL0     C74733   2.333   3.405   4.939  0.1151 -0.0547 -0.6433
  567MOL0     C74734   2.190   3.435   4.889 -0.3073  0.8259  0.0110
  567MOL0     C74735   2.094   3.404   5.012  0.7884 -0.7448  0.7229
  567MOL0     O74736   1.958   3.410   4.961 -0.8104 -0.2625 -0.0196
  567MOL0     C74737   1.852   3.369   5.046  0.3478 -0.4379  0.8217
  567MOL0     C74738   1.869   3.309   5.172 -0.9863 -0.3795 -0.1661
  567MOL0     C74739   1.762   3.272   5.262  0.0188 -0.4527 -0.3159
  567MOL0     C74740   1.637   3.286   5.217  0.5046  0.4999 -0.1178
  567MOL0     C74741   1.525   3.232   5.303  0.4605 -0.2135  0.4358
  567MOL0     O74742   1.394   3.260   5.263 -0.4771 -0.9730  0.4705
  567MOL0     C74743   1.278   3.228   5.326  0.8089  0.0722  0.1591
  567MOL0     C74744   1.158   3.241   5.254 -0.0773  0.6842 -0.4270
  567MOL0     C74745   1.032   3.190   5.310  0.1401  0.1011 -0.3788
  567MOL0     C74746   1.020   3.142   5.438  0.4476  0.3625 -0.2774
  567MOL0     O74747   0.906   3.095   5.490  0.0762 -0.8397  0.7456
  567MOL0     C74748   0.873   3.117   5.631  0.1863  0.2286 -0.3090
  567MOL0     C74749   0.725   3.094   5.639  1.2108 -0.6833 -0.2147
  567MOL0     C74750   0.661   3.139   5.773  0.6866  0.1070  0.0316
  567MOL0     C74751   0.519   3.082   5.768 -0.5466 -0.0586 -0.1695
  567MOL0     C74752   0.454   3.126   5.896  0.8672  0.0148  0.3423
  567MOL0     C74753   0.303   3.084   5.903 -0.1781  0.2730 -0.3643
  567MOL0     C74754   0.247   3.120   6.043 -0.1287 -0.7265  0.2627
  567MOL0     C74755   0.100   3.085   6.053 -0.1363 -0.7220  0.0695
  567MOL0    Cl74756   0.086   2.919   6.009  0.1040  0.4537 -0.2992
  567MOL0     C74757   1.140   3.139   5.514  0.1688  0.7634  0.8290
  567MOL0     C74758   1.266   3.176   5.457  0.2017  0.4563  0.2557
  567MOL0     O74759   1.547   3.161   5.398 -0.2257 -0.0785 -0.2277
  567MOL0     C74760   1.610   3.355   5.092  0.7346 -0.3434 -0.2079
  567MOL0     C74761   1.720   3.393   5.006  0.3041  0.4945 -0.7420
  567MOL0     N74762   2.626   3.299   4.975 -0.3030 -0.1222  0.4846
  567MOL0     N74763   2.730   3.235   4.938  0.3444  0.9681 -0.1001
  567MOL0     C74764   3.919   3.013   4.172  1.0673 -0.3850 -0.3412
  567MOL0     C74765   4.044   3.036   4.115 -0.6588 -0.6766 -0.1598
  567MOL0     C74766   4.452   3.286   4.123  0.3826  0.3843  0.8337
  567MOL0     C74767   4.475   3.296   3.985 -0.7124 -0.5655  0.0408
  567MOL0     C74768   4.592   3.334   3.935 -0.4155 -0.6070 -0.6270
  567MOL0     C74769   4.702   3.343   4.018 -0.1746 -0.6181 -0.2249
  567MOL0     O74770   4.828   3.379   3.965 -0.0203 -0.4434 -0.2001
  567MOL0     C74771   4.951   3.339   4.034 -0.2683 -0.2261 -0.5541
  567MOL0     C74772   5.074   3.332   3.951 -0.1740 -0.1654 -0.2151
  567MOL0     C74773   5.199   3.319   4.035  0.9462  0.0066 -0.1968
  567MOL0     C74774   5.335   3.305   3.963 -0.1072  0.2261 -0.0253
  567MOL0     C74775   5.366   3.416   3.885 -0.4815 -1.0907 -0.7157
  567MOL0     C74776   5.398   3.516   3.822 -0.1446  0.0643  0.3949
  567MOL0     C74777   4.686   3.322   4.160  1.2349 -0.0001  0.2092
  567MOL0     C74778   4.555   3.291   4.208 -1.1240 -0.0369 -0.0561
  567MOL0     H74779   4.064   3.363   4.194 -0.1064  0.5303  2.7538
  567MOL0     H74780   3.839   3.334   4.266 -0.4084  3.1495 -3.3356
  567MOL0     H74781   3.618   3.255   4.220  1.2421  0.5246  0.4264
  567MOL0     H74782   3.648   3.242   4.387  1.1390  0.7151 -1.4134
  567MOL0     H74783   3.482   3.061   4.431  1.0991 -0.9513 -0.9063
  567MOL0     H74784   3.426   3.063   4.266 -1.2987  0.0685  0.9441
  567MOL0     H74785   3.343   3.283   4.298  0.6729  1.6082  1.2095
  567MOL0     H74786   3.419   3.306   4.455 -1.3780  2.3240 -0.3903
  567MOL0     H74787   3.197   3.110   4.379 -1.6660 -1.2987  1.5818
  567MOL0     H74788   3.290   3.074   4.521  3.7991 -0.7014 -3.2108
  567MOL0     H74789   3.135   3.338   4.480  0.7649  2.7582  1.5093
  567MOL0     H74790   3.224   3.295   4.622 -1.7332  2.2553  0.2624
  567MOL0     H74791   3.100   3.100   4.658 -1.2280  1.2180  2.3147
  567MOL0     H74792   2.998   3.122   4.518 -0.5434 -0.3390  0.0910
  567MOL0     H74793   2.989   3.310   4.770  1.7401  2.8196 -0.3974
  567MOL0     H74794   2.893   3.331   4.625  0.3725 -0.8666 -0.4040
  567MOL0     H74795   2.873   3.063   4.757 -1.7256 -1.0038 -1.5436
  567MOL0     H74796   2.786   3.121   4.624 -2.6638  2.7670 -0.8936
  567MOL0     H74797   2.582   3.303   4.654 -2.7970 -2.2444  0.4848
  567MOL0     H74798   2.403   3.409   4.743  0.4392 -4.0643  0.4303
  567MOL0     H74799   2.482   3.533   4.853 -1.2021  0.7390 -2.9296
  567MOL0     H74800   2.351   3.470   5.025 -0.9817  0.1379 -0.5385
  567MOL0     H74801   2.329   3.300   4.969  0.6829  0.1619  0.2331
  567MOL0     H74802   2.176   3.543   4.875  0.0573  1.1346  1.7805
  567MOL0     H74803   2.156   3.372   4.806  0.9286  0.2179 -0.0615
  567MOL0     H74804   2.097   3.474   5.096 -0.3112 -0.8282  0.8536
  567MOL0     H74805   2.114   3.303   5.050 -0.5837 -1.7432 -1.0271
  567MOL0     H74806   1.971   3.295   5.204 -0.9173 -4.1016 -1.5839
  567MOL0     H74807   1.775   3.234   5.363 -0.7481 -0.8392 -0.3551
  567MOL0     H74808   1.150   3.278   5.153 -3.0823 -1.7150 -1.2307
  567MOL0     H74809   0.941   3.209   5.254 -0.4716  4.0601  1.5951
  567MOL0     H74810   0.910   3.216   5.658 -0.2704  0.6670 -1.2339
  567MOL0     H74811   0.930   3.050   5.696 -0.8638  2.0079  2.6423
  567MOL0     H74812   0.702   2.987   5.642 -2.9229  0.0442  0.8811
  567MOL0     H74813   0.673   3.145   5.557  0.9983 -2.0799 -0.9714
  567MOL0     H74814   0.658   3.248   5.785  2.3646  0.5265 -2.4801
  567MOL0     H74815   0.719   3.098   5.856  0.3736 -1.5141 -0.5218
  567MOL0     H74816   0.467   3.120   5.679  1.6230  0.2521 -1.3659
  567MOL0     H74817   0.523   2.973   5.766 -1.1717 -0.0737 -0.9532
  567MOL0     H74818   0.448   3.235   5.910 -2.3861 -0.0847  0.6186
  567MOL0     H74819   0.509   3.093   5.985 -0.1806 -0.3100  0.8975
  567MOL0     H74820   0.290   2.975   5.897 -0.2446  0.2384  0.3541
  567MOL0     H74821   0.252   3.123   5.814 -0.3640 -0.6794 -0.6873
  567MOL0     H74822   0.313   3.076   6.118  0.5703 -0.6582 -0.3006
  567MOL0     H74823   0.255   3.228   6.061  0.1653  0.0166 -3.5262
  567MOL0     H74824   0.046   3.147   5.981  1.2112  0.2376 -0.1375
  567MOL0     H74825   0.065   3.101   6.156  1.5471 -3.7140  1.2394
  567MOL0     H74826   1.139   3.087   5.610 -2.7852 -0.4225  0.2892
  567MOL0     H74827   1.352   3.156   5.520 -1.1548 -1.8239  1.5376
  567MOL0     H74828   1.508   3.378   5.063  1.5460  0.3412 -2.7745
  567MOL0     H74829   1.708   3.430   4.905  1.9175 -1.5067 -1.7235
  567MOL0     H74830   3.865   2.919   4.176  1.4165 -0.5458  1.3697
  567MOL0     H74831   4.105   2.968   4.056 -0.7609  1.6399 -3.1840
  567MOL0     H74832   4.404   3.277   3.904 -0.1076  1.1800 -0.9555
  567MOL0     H74833   4.608   3.338   3.828 -0.3085  0.1154 -0.5898
  567MOL0     H74834   4.939   3.243   4.084 -0.2925 -0.5892 -1.2438
  567MOL0     H74835   4.975   3.413   4.111  2.0812 -0.4809 -0.9574
  567MOL0     H74836   5.059   3.242   3.891 -1.5968 -0.3463  0.3819
  567MOL0     H74837   5.083   3.415   3.881  3.8688  0.5779  0.9183
  567MOL0     H74838   5.184   3.231   4.099  3.2431 -0.7010 -0.5488
  567MOL0     H74839   5.206   3.390   4.119  1.0065 -1.5468  1.1701
  567MOL0     H74840   5.418   3.289   4.032 -0.6256  0.8933  0.7637
  567MOL0     H74841   5.332   3.214   3.902  0.3525 -0.4563  0.9594
  567MOL0     H74842   5.410   3.605   3.763  0.1479 -1.5207 -2.1015
  567MOL0     H74843   4.771   3.344   4.224 -1.9775  3.5388  3.8289
  567MOL0     H74844   4.554   3.266   4.314  1.4308 -2.4743 -0.4967
  568MOL0     O74845   8.839   2.996   4.091 -0.2795 -0.0170 -0.3392
  568MOL0     C74846   8.799   3.112   4.115  0.0043  0.3873 -0.3241
  568MOL0     O74847   8.670   3.165   4.104  0.1674 -0.2991 -1.0701
  568MOL0     C74848   8.565   3.093   4.056  0.1274 -0.2488  0.2372
  568MOL0     C74849   8.579   2.991   3.961  0.5932 -0.4682 -0.3614
  568MOL0     C74850   8.466   2.918   3.929 -0.4246  0.5644  0.5973
  568MOL0     C74851   8.340   2.937   3.987 -0.1480 -0.4058 -0.3530
  568MOL0     O74852   8.221   2.865   3.959 -0.6445  0.7272  0.3710
  568MOL0     C74853   8.238   2.715   3.959 -0.3108  0.5879 -0.1631
  568MOL0     C74854   8.124   2.645   4.038 -0.0783 -0.0897  0.4214
  568MOL0     C74855   7.981   2.643   3.969 -0.7746 -0.0920  0.3384
  568MOL0     C74856   7.979   2.505   3.896  0.3472 -0.3155 -0.4241
  568MOL0     C74857   7.843   2.493   3.821  0.1280 -0.2395 -0.3600
  568MOL0     C74858   7.820   2.357   3.759 -0.1991 -0.3686 -0.1352
  568MOL0     C74859   7.678   2.358   3.695 -0.3804 -0.0172 -0.5538
  568MOL0     C74860   7.636   2.237   3.610  0.0752 -1.2097  0.7211
  568MOL0     N74861   7.491   2.243   3.578  0.6878 -0.4611  0.2514
  568MOL0     C74862   7.388   2.278   3.666  0.5885 -0.3281  0.5971
  568MOL0     C74863   7.277   2.286   3.591 -0.5280 -0.2464  0.2122
  568MOL0     C74864   7.148   2.313   3.662 -0.9302  0.1081 -0.2381
  568MOL0     C74865   7.036   2.354   3.569 -0.2844  0.6257 -0.3018
  568MOL0     C74866   6.904   2.385   3.636  0.3624 -0.1414 -0.1372
  568MOL0     C74867   6.805   2.428   3.526  0.3191 -0.3518 -0.0196
  568MOL0     O74868   6.678   2.483   3.592  0.3963 -0.4505 -0.4161
  568MOL0     C74869   6.601   2.391   3.668 -0.4236  0.0517  0.9813
  568MOL0     C74870   6.586   2.251   3.651 -0.1027 -0.0714 -0.2991
  568MOL0     C74871   6.482   2.178   3.716 -0.4337  0.7687  0.0715
  568MOL0     C74872   6.406   2.244   3.807  1.2522  0.8319  0.3012
  568MOL0     C74873   6.290   2.176   3.877 -0.5444 -0.3254  0.6934
  568MOL0     O74874   6.218   2.244   3.961  0.2061 -0.1141 -0.3576
  568MOL0     C74875   6.141   2.172   4.048 -0.0157 -0.3873 -0.2850
  568MOL0     C74876   6.047   2.082   4.014 -0.3794  0.6275  0.6575
  568MOL0     C74877   5.956   2.020   4.102  0.4002 -0.3904 -0.4004
  568MOL0     C74878   5.958   2.053   4.238 -0.3930  0.4613 -0.2304
  568MOL0     O74879   5.861   2.014   4.325 -0.1207  0.3192 -0.0223
  568MOL0     C74880   5.747   1.947   4.278  0.1420  0.3018  0.1148
  568MOL0     C74881   5.651   1.911   4.400  0.2620 -0.0336  1.0623
  568MOL0     C74882   5.509   1.853   4.364  0.0232 -0.1236 -0.0399
  568MOL0     C74883   5.434   1.826   4.498 -1.2508 -0.0676 -0.0044
  568MOL0     C74884   5.296   1.764   4.468  0.6830  0.7079 -0.8686
  568MOL0     C74885   5.306   1.613   4.458  0.4434  0.2857  0.1665
  568MOL0     C74886   5.188   1.540   4.400 -0.2726  0.3091  0.1620
  568MOL0     C74887   5.221   1.390   4.362 -0.0890 -0.2310 -0.3041
  568MOL0    Cl74888   5.093   1.269   4.388  0.0020 -0.0250  0.5615
  568MOL0     C74889   6.063   2.134   4.281 -0.8650 -0.2353  0.3300
  568MOL0     C74890   6.151   2.196   4.190  0.0657  0.5406  0.0163
  568MOL0     O74891   6.283   2.051   3.853 -0.3610  0.1633 -0.1828
  568MOL0     C74892   6.415   2.388   3.821 -0.5613 -0.0782 -0.0704
  568MOL0     C74893   6.518   2.456   3.757 -0.1338  0.5703  0.3589
  568MOL0     N74894   7.304   2.250   3.466 -0.4223 -0.3426  0.4630
  568MOL0     N74895   7.436   2.245   3.448  1.0306  0.2184  0.6622
  568MOL0     C74896   8.334   3.032   4.080 -0.3571 -0.6308 -0.8361
  568MOL0     C74897   8.445   3.118   4.114 -0.5787  0.2376 -0.1772
  568MOL0     C74898   8.895   3.207   4.163  0.2162  0.0610  0.5878
  568MOL0     C74899   8.871   3.347   4.173 -0.6748  0.2660  0.0266
  568MOL0     C74900   8.962   3.434   4.229 -0.9756 -0.6429 -0.6416
  568MOL0     C74901   9.089   3.390   4.257  0.4522  0.1670  0.8291
  568MOL0     O74902   9.179   3.490   4.286  0.6498  0.8792 -0.5936
  568MOL0     C74903   9.313   3.449   4.322  0.4642  1.0552  0.7066
  568MOL0     C74904   9.326   3.427   4.470 -0.1332  0.5808  0.1684
  568MOL0     C74905   9.302   3.554   4.561 -0.0461  0.4966  0.4829
  568MOL0     C74906   9.385   3.681   4.518 -0.5202 -0.0777  0.1782
  568MOL0     C74907   9.333   3.787   4.610 -0.0834  0.4843 -1.1927
  568MOL0     C74908   9.293   3.868   4.686 -0.5956 -0.6669  0.2516
  568MOL0     C74909   9.122   3.257   4.236  0.0099  0.7668  0.2878
  568MOL0     C74910   9.022   3.167   4.192 -0.3483  0.0527  0.0425
  568MOL0     H74911   8.674   2.950   3.928  0.2361 -0.4112 -1.5170
  568MOL0     H74912   8.464   2.833   3.861  1.4707  0.1469  0.9887
  568MOL0     H74913   8.335   2.685   3.998  0.1228 -1.0152 -2.3142
  568MOL0     H74914   8.240   2.677   3.857  1.8500 -0.2504  0.1368
  568MOL0     H74915   8.116   2.710   4.125 -0.0142  0.2269  0.1937
  568MOL0     H74916   8.143   2.545   4.077  0.2180  0.4520  1.7098
  568MOL0     H74917   7.956   2.722   3.898 -0.1342  0.6065  0.8774
  568MOL0     H74918   7.897   2.644   4.039 -0.1015  1.0793  1.1484
  568MOL0     H74919   8.056   2.497   3.818 -0.8289  1.3362 -1.8180
  568MOL0     H74920   7.984   2.420   3.964  5.0127  1.1039  1.3928
  568MOL0     H74921   7.840   2.559   3.734  2.3651 -0.2577 -0.5046
  568MOL0     H74922   7.771   2.513   3.901 -0.4329 -1.6166 -0.5086
  568MOL0     H74923   7.815   2.282   3.838  1.6996  0.2385  0.6236
  568MOL0     H74924   7.902   2.332   3.692  1.3337  2.3172  0.5834
  568MOL0     H74925   7.612   2.349   3.782  2.7330 -0.3916  1.9386
  568MOL0     H74926   7.658   2.450   3.640  1.2720  0.4820 -0.3701
  568MOL0     H74927   7.658   2.146   3.667  1.2230 -1.3777  0.0368
  568MOL0     H74928   7.696   2.242   3.519 -2.4126 -1.0247 -1.0016
  568MOL0     H74929   7.390   2.304   3.771  1.1652  2.7103 -0.0604
  568MOL0     H74930   7.163   2.395   3.733 -3.4715  0.0549  0.4902
  568MOL0     H74931   7.119   2.224   3.719 -1.3247  0.1368 -0.3934
  568MOL0     H74932   6.995   2.266   3.518 -1.4459  1.3294 -0.6345
  568MOL0     H74933   7.065   2.441   3.509  0.3652  1.0793  0.6426
  568MOL0     H74934   6.860   2.295   3.680 -0.3084 -0.5795 -1.6283
  568MOL0     H74935   6.905   2.460   3.715  0.1585 -0.7004  0.4043
  568MOL0     H74936   6.785   2.351   3.450 -1.2119 -0.4619  0.4649
  568MOL0     H74937   6.849   2.516   3.477  0.7374 -0.5869 -0.0731
  568MOL0     H74938   6.654   2.209   3.576  1.7606  1.1370  0.6342
  568MOL0     H74939   6.462   2.074   3.693  0.8394  0.5488 -0.1232
  568MOL0     H74940   6.030   2.061   3.909 -1.3439 -0.4594  1.0136
  568MOL0     H74941   5.887   1.955   4.050 -0.1507 -0.4052  0.3289
  568MOL0     H74942   5.785   1.857   4.229  0.3129  0.1701  0.4828
  568MOL0     H74943   5.699   2.020   4.212 -2.1403 -0.1070  1.2340
  568MOL0     H74944   5.640   2.005   4.454 -0.9273  0.2927  0.2906
  568MOL0     H74945   5.704   1.848   4.471  3.0087  2.1296  1.0959
  568MOL0     H74946   5.516   1.761   4.305  1.7722  0.3205 -0.5943
  568MOL0     H74947   5.462   1.931   4.303 -0.5251 -0.1981  0.2787
  568MOL0     H74948   5.499   1.758   4.553 -0.4694 -0.2102 -1.0878
  568MOL0     H74949   5.429   1.926   4.543  1.9078  1.0237 -1.8152
  568MOL0     H74950   5.255   1.794   4.371  1.0589 -0.9053 -1.5631
  568MOL0     H74951   5.217   1.780   4.542 -0.2103 -0.5220 -1.5072
  568MOL0     H74952   5.344   1.572   4.553  2.1066 -0.1101 -0.6261
  568MOL0     H74953   5.384   1.591   4.384 -1.8354 -1.0824 -1.9799
  568MOL0     H74954   5.106   1.542   4.473  0.7633  1.0335  1.3320
  568MOL0     H74955   5.152   1.584   4.306 -0.1181 -0.3859 -0.2319
  568MOL0     H74956   5.303   1.366   4.430 -2.0433  0.0154  2.2933
  568MOL0     H74957   5.243   1.397   4.255  1.1817 -0.9652 -0.1102
  568MOL0     H74958   6.062   2.144   4.390  0.6575 -2.0681  0.5557
  568MOL0     H74959   6.225   2.269   4.223  1.7368  0.4584 -3.0736
  568MOL0     H74960   6.370   2.446   3.900  1.6579  2.3292 -0.4323
  568MOL0     H74961   6.539   2.561   3.774 -0.4033  0.8101 -0.6895
  568MOL0     H74962   8.242   3.051   4.135  2.1817  2.3425  2.8665
  568MOL0     H74963   8.435   3.199   4.186 -0.6710 -0.4693  0.6305
  568MOL0     H74964   8.777   3.391   4.141 -0.8681  0.1598  0.4326
  568MOL0     H74965   8.931   3.538   4.238  1.2510  0.0628 -0.4319
  568MOL0     H74966   9.376   3.530   4.285 -0.1488  0.5204 -1.7042
  568MOL0     H74967   9.338   3.357   4.267 -2.1877  0.1707  0.8395
  568MOL0     H74968   9.261   3.346   4.507 -0.5899  1.5268  1.4974
  568MOL0     H74969   9.431   3.396   4.478 -0.5149 -0.6948  0.5142
  568MOL0     H74970   9.326   3.527   4.665  1.6530  1.3313  0.3505
  568MOL0     H74971   9.196   3.576   4.548 -0.3319 -0.2199  1.4896
  568MOL0     H74972   9.493   3.674   4.537 -0.4066 -0.2895 -0.5266
  568MOL0     H74973   9.364   3.721   4.419 -1.3645 -1.0734 -0.0621
  568MOL0     H74974   9.272   3.946   4.756  3.3087  1.8081 -1.0399
  568MOL0     H74975   9.215   3.206   4.255 -1.0818 -2.3836 -1.9571
  568MOL0     H74976   9.054   3.065   4.173  0.0260  0.1212  0.2830
  569MOL0     O74977   5.768   0.778  11.121 -0.1653 -0.8124  1.0397
  569MOL0     C74978   5.834   0.825  11.037  0.2132 -0.1238  0.0036
  569MOL0     O74979   5.783   0.882  10.918  0.3520  0.1957 -0.6707
  569MOL0     C74980   5.653   0.859  10.891 -0.0864 -0.0899 -0.9644
  569MOL0     C74981   5.569   0.970  10.872 -0.5667  0.0737  0.8503
  569MOL0     C74982   5.441   0.947  10.830 -0.3838  0.1078 -0.0757
  569MOL0     C74983   5.393   0.811  10.829 -0.3280 -1.1131 -0.0643
  569MOL0     O74984   5.258   0.789  10.800  0.1801  0.2915 -0.4706
  569MOL0     C74985   5.171   0.733  10.904  0.3077  0.3295 -0.1549
  569MOL0     C74986   5.035   0.716  10.843 -0.6197 -0.2090  0.3152
  569MOL0     C74987   4.940   0.658  10.950 -0.3235 -0.0160 -0.4047
  569MOL0     C74988   4.808   0.609  10.894  0.6807 -0.3271  0.3745
  569MOL0     C74989   4.693   0.573  10.986  0.0324  0.0219 -0.4720
  569MOL0     C74990   4.632   0.699  11.042  0.4900 -0.4416 -0.0419
  569MOL0     C74991   4.490   0.680  11.114 -0.2171 -0.0734 -0.6363
  569MOL0     C74992   4.379   0.612  11.025  0.1283 -0.3843  0.5032
  569MOL0     N74993   4.256   0.607  11.098  0.6292 -0.4103  0.8441
  569MOL0     C74994   4.186   0.493  11.142 -0.4950  0.4719  0.4949
  569MOL0     C74995   4.067   0.533  11.179  0.3392  0.3962  0.3117
  569MOL0     C74996   3.956   0.455  11.249 -0.5053  0.9709  0.3497
  569MOL0     C74997   3.844   0.434  11.152  0.1004  0.1110  0.1243
  569MOL0     C74998   3.748   0.321  11.185  0.3340  0.4040 -1.0542
  569MOL0     C74999   3.655   0.341  11.296 -0.0017 -0.2076 -0.8367
  569MOL0     O75000   3.591   0.221  11.335  1.1683 -0.2307  0.1719
  569MOL0     C75001   3.503   0.239  11.433 -0.0563 -0.0560  0.0545
  569MOL0     C75002   3.511   0.316  11.551 -0.1530 -0.6449 -0.5426
  569MOL0     C75003   3.401   0.351  11.637 -0.2131 -0.2752 -0.2716
  569MOL0     C75004   3.277   0.299  11.614 -0.0335  0.5527  0.8378
  569MOL0     C75005   3.163   0.328  11.697 -0.5290 -0.3862 -0.4704
  569MOL0     O75006   3.036   0.332  11.640 -0.6920 -0.5511 -0.0627
  569MOL0     C75007   2.927   0.370  11.715 -0.6735  0.2026 -0.4837
  569MOL0     C75008   2.808   0.317  11.677 -0.3628  0.0642 -0.4748
  569MOL0     C75009   2.689   0.356  11.738  1.3623  0.0369 -0.1905
  569MOL0     C75010   2.687   0.462  11.835  0.2136  0.1362 -0.6486
  569MOL0     O75011   2.564   0.505  11.884  0.1003 -0.1024 -0.0432
  569MOL0     C75012   2.565   0.599  11.982  0.1820 -0.4150 -0.2136
  569MOL0     C75013   2.427   0.601  12.045  1.0850 -0.3671 -0.0323
  569MOL0     C75014   2.315   0.658  11.948 -0.3396  0.5235  0.2636
  569MOL0     C75015   2.188   0.711  12.019 -0.8082  0.6383  0.3285
  569MOL0     C75016   2.103   0.803  11.927  0.2300  0.4826  0.3790
  569MOL0     C75017   2.053   0.754  11.798  0.3177 -0.2845  1.3672
  569MOL0     C75018   1.941   0.654  11.813  1.2976 -0.1887  0.2251
  569MOL0     C75019   1.918   0.573  11.678 -0.0384  0.1115  0.1633
  569MOL0    Cl75020   1.864   0.672  11.542  0.1233  0.2922  0.1785
  569MOL0     C75021   2.813   0.514  11.873  0.1187  0.6318 -0.5802
  569MOL0     C75022   2.931   0.478  11.815 -1.0861 -0.4563  0.1745
  569MOL0     O75023   3.196   0.326  11.817  0.2121 -0.5048 -0.5128
  569MOL0     C75024   3.264   0.219  11.497  0.3930 -0.0988 -0.6140
  569MOL0     C75025   3.370   0.184  11.414 -0.4317  0.0904  0.3701
  569MOL0     N75026   4.048   0.663  11.154  0.1189  0.5488  0.2516
  569MOL0     N75027   4.158   0.702  11.095  0.1624 -0.0775 -0.2026
  569MOL0     C75028   5.472   0.706  10.868  0.7111  0.2543  0.0225
  569MOL0     C75029   5.608   0.724  10.881  0.2449  0.4043  0.1035
  569MOL0     C75030   5.979   0.824  11.044 -0.5557 -0.1898 -0.7576
  569MOL0     C75031   6.057   0.801  11.163 -0.7359 -0.2339 -0.2187
  569MOL0     C75032   6.197   0.798  11.157 -0.2883 -0.6668  1.2251
  569MOL0     C75033   6.277   0.811  11.042 -0.1008 -0.2227  0.6146
  569MOL0     O75034   6.411   0.799  11.067 -0.4426 -0.1661 -0.2041
  569MOL0     C75035   6.491   0.782  10.946 -0.0560 -0.3288  0.3021
  569MOL0     C75036   6.617   0.696  10.996 -0.0655 -0.0079 -1.1358
  569MOL0     C75037   6.700   0.773  11.105 -0.5881 -0.7776 -0.5351
  569MOL0     C75038   6.835   0.703  11.129  0.3225  0.1215  0.5185
  569MOL0     C75039   6.918   0.708  11.007 -0.1102  0.0145  0.3986
  569MOL0     C75040   6.987   0.714  10.910  0.4628  0.6641 -0.5442
  569MOL0     C75041   6.203   0.846  10.925  0.8598  0.5454 -1.1170
  569MOL0     C75042   6.059   0.848  10.932 -0.2653 -0.2053 -0.4925
  569MOL0     H75043   5.611   1.070  10.868  0.1477 -0.2387  0.0937
  569MOL0     H75044   5.368   1.020  10.799 -1.5969  0.6099  3.5169
  569MOL0     H75045   5.162   0.806  10.985  0.9320  1.2347 -0.8891
  569MOL0     H75046   5.211   0.636  10.936  0.3840  0.7095  0.9504
  569MOL0     H75047   5.050   0.635  10.771  0.8600 -0.8105  1.2576
  569MOL0     H75048   4.996   0.802  10.787 -0.4561  0.0401  0.5825
  569MOL0     H75049   4.919   0.738  11.022  0.9674 -0.0608  0.0330
  569MOL0     H75050   4.988   0.580  11.008  1.9187  0.8875 -0.9361
  569MOL0     H75051   4.773   0.676  10.816 -1.5074  0.0835  1.5986
  569MOL0     H75052   4.828   0.516  10.841  0.2044  0.4074 -1.1370
  569MOL0     H75053   4.718   0.509  11.072 -0.9059 -0.2986 -0.4243
  569MOL0     H75054   4.622   0.513  10.929  1.7462 -2.4855 -0.1519
  569MOL0     H75055   4.627   0.761  10.952 -1.2946 -1.9715 -1.0776
  569MOL0     H75056   4.697   0.750  11.113  2.1965  2.6634 -3.4858
  569MOL0     H75057   4.506   0.626  11.208 -2.2436 -0.2481 -0.3551
  569MOL0     H75058   4.458   0.781  11.140 -0.9259 -0.6802  0.9357
  569MOL0     H75059   4.411   0.517  10.983  2.7001  1.0143 -0.9610
  569MOL0     H75060   4.360   0.677  10.939  1.1887 -2.6542 -1.5308
  569MOL0     H75061   4.220   0.391  11.154 -0.1332  0.5788  0.3875
  569MOL0     H75062   3.919   0.510  11.336  0.9492  0.3993  1.3611
  569MOL0     H75063   3.993   0.356  11.273 -2.6350 -0.2828 -1.1697
  569MOL0     H75064   3.895   0.411  11.058  0.7866  1.4978  0.1230
  569MOL0     H75065   3.778   0.520  11.133  0.0457  0.7348  2.7135
  569MOL0     H75066   3.688   0.297  11.097 -0.1287  0.9808 -0.9082
  569MOL0     H75067   3.805   0.232  11.211  0.7710 -0.1052 -3.4784
  569MOL0     H75068   3.574   0.407  11.264 -0.8667 -1.9292 -2.4273
  569MOL0     H75069   3.710   0.392  11.376  3.0994  2.6181 -4.3758
  569MOL0     H75070   3.601   0.373  11.573 -1.3745  1.0209  0.4067
  569MOL0     H75071   3.413   0.417  11.722  0.9770 -0.6382 -0.1422
  569MOL0     H75072   2.808   0.226  11.619  0.6175  1.6535 -3.1395
  569MOL0     H75073   2.593   0.310  11.719 -0.9650  4.2278  0.1335
  569MOL0     H75074   2.583   0.694  11.931 -0.0049 -0.0584  0.3638
  569MOL0     H75075   2.641   0.580  12.058 -0.0425 -0.4257  0.0104
  569MOL0     H75076   2.432   0.662  12.136 -1.9465 -1.5707  1.0416
  569MOL0     H75077   2.390   0.506  12.084 -1.9892  0.9066  0.4158
  569MOL0     H75078   2.280   0.577  11.883 -1.8742  2.0006 -0.8557
  569MOL0     H75079   2.367   0.731  11.884  1.4005  0.9769  2.1276
  569MOL0     H75080   2.125   0.627  12.051  0.4404  0.1220  1.5169
  569MOL0     H75081   2.214   0.757  12.114  2.1184  2.8591 -1.3794
  569MOL0     H75082   2.168   0.888  11.905  2.0863 -0.9239  0.2193
  569MOL0     H75083   2.016   0.833  11.985 -1.0869 -0.4526 -1.0303
  569MOL0     H75084   2.138   0.708  11.746 -1.3652  0.6532 -2.5658
  569MOL0     H75085   2.019   0.839  11.738  2.8062 -0.2738 -0.2032
  569MOL0     H75086   1.954   0.574  11.887  1.7030 -0.7130 -0.3962
  569MOL0     H75087   1.853   0.710  11.846  1.6046  0.0595  0.6270
  569MOL0     H75088   1.849   0.496  11.712  3.2387 -1.9952  2.7204
  569MOL0     H75089   2.010   0.517  11.656 -0.8123  0.0861 -3.7389
  569MOL0     H75090   2.809   0.596  11.944 -4.4548  1.7617 -1.8038
  569MOL0     H75091   3.024   0.516  11.855 -1.2382 -2.2813  2.5112
  569MOL0     H75092   3.160   0.197  11.475  0.3120 -0.0437 -0.2869
  569MOL0     H75093   3.353   0.120  11.329  0.6720 -0.4457  0.5298
  569MOL0     H75094   5.430   0.606  10.874  1.3368 -0.0007  0.2589
  569MOL0     H75095   5.667   0.636  10.906 -0.1358  1.1895  4.5689
  569MOL0     H75096   6.014   0.798  11.262  0.0263 -0.0077  0.1275
  569MOL0     H75097   6.244   0.789  11.255  1.6249 -1.5690  0.2902
  569MOL0     H75098   6.533   0.879  10.917  0.4535  0.0970  2.2783
  569MOL0     H75099   6.440   0.735  10.862 -2.5963 -0.0593  1.6086
  569MOL0     H75100   6.593   0.604  11.050  2.0626  0.9037  1.5547
  569MOL0     H75101   6.679   0.665  10.912 -0.5265 -2.3128 -0.6988
  569MOL0     H75102   6.639   0.771  11.195  0.4757 -2.2589  0.1950
  569MOL0     H75103   6.720   0.878  11.079  2.4550 -1.1741 -0.2475
  569MOL0     H75104   6.885   0.749  11.215 -0.8424 -0.2441  1.4077
  569MOL0     H75105   6.820   0.604  11.174  0.6461 -0.4938 -0.6627
  569MOL0     H75106   7.051   0.715  10.824 -1.3970  1.7740 -1.9933
  569MOL0     H75107   6.242   0.868  10.827 -1.4561  1.1488 -1.9595
  569MOL0     H75108   6.015   0.873  10.836  0.0306  3.2196  0.1443
  570MOL0     O75109   3.408   8.293  10.767  0.4257  0.0490  0.3586
  570MOL0     C75110   3.401   8.173  10.787 -0.2512 -0.6316  0.4713
  570MOL0     O75111   3.289   8.107  10.806  0.0638 -0.1678  0.0905
  570MOL0     C75112   3.164   8.162  10.832  0.6298 -0.3685  0.1544
  570MOL0     C75113   3.125   8.292  10.867 -0.0851  0.6571 -0.6037
  570MOL0     C75114   2.989   8.320  10.889  0.0159  0.5270 -0.7565
  570MOL0     C75115   2.891   8.226  10.900 -0.5107 -0.2726 -0.1086
  570MOL0     O75116   2.773   8.279  10.951  0.3612 -1.4672  0.7990
  570MOL0     C75117   2.666   8.184  10.980  0.0381 -0.3692  0.2076
  570MOL0     C75118   2.549   8.272  11.036 -0.7406 -0.1570  0.8329
  570MOL0     C75119   2.432   8.179  11.050 -0.0213 -0.3844  0.0558
  570MOL0     C75120   2.340   8.243  11.144 -0.4575 -0.1667 -0.1984
  570MOL0     C75121   2.210   8.174  11.167  0.1749 -0.3516 -0.6904
  570MOL0     C75122   2.209   8.037  11.244  0.1193 -0.2032  1.1398
  570MOL0     C75123   2.069   8.008  11.287  0.0688  0.4916 -1.0758
  570MOL0     C75124   1.969   7.950  11.179 -0.6957  0.0996 -0.4311
  570MOL0     N75125   1.841   7.918  11.237  0.0742  0.0373  0.7898
  570MOL0     C75126   1.739   8.012  11.268 -0.3975 -0.3617  0.1617
  570MOL0     C75127   1.655   7.940  11.343  0.5677  0.4861  0.4020
  570MOL0     C75128   1.523   7.983  11.405  0.2446  0.8608 -0.3064
  570MOL0     C75129   1.397   7.918  11.347  0.9266 -0.3001 -0.0387
  570MOL0     C75130   1.373   7.950  11.199  0.2154  0.4998 -0.3917
  570MOL0     C75131   1.367   8.099  11.185 -0.1740 -0.0831  0.4727
  570MOL0     O75132   1.276   8.157  11.276 -0.0657 -0.4371 -0.0564
  570MOL0     C75133   1.160   8.218  11.228  0.3876  0.3504 -0.2336
  570MOL0     C75134   1.053   8.202  11.309  0.4959 -0.1732 -0.3083
  570MOL0     C75135   0.927   8.253  11.276  0.4416 -0.5062  0.3211
  570MOL0     C75136   0.914   8.328  11.163 -0.2310 -0.6344  0.2706
  570MOL0     C75137   0.776   8.383  11.130  0.0291 -0.1647 -0.6981
  570MOL0     O75138   0.748   8.411  11.003 -0.0234 -0.4080  0.9435
  570MOL0     C75139   0.616   8.413  10.951  0.0721 -1.0888 -0.0054
  570MOL0     C75140   0.493   8.419  11.020  0.3254 -0.3914 -0.4461
  570MOL0     C75141   0.376   8.428  10.951  0.1573  1.4045 -0.5636
  570MOL0     C75142   0.370   8.412  10.806 -0.0058  0.3978 -1.1330
  570MOL0     O75143   0.254   8.387  10.727 -0.2191 -0.5851  1.1050
  570MOL0     C75144   0.143   8.335  10.787 -0.3296  1.3227 -1.3131
  570MOL0     C75145   0.026   8.322  10.696  0.7521  0.3222 -0.5654
  570MOL0     C75146  -0.103   8.272  10.759  0.1087 -0.3299 -0.6177
  570MOL0     C75147  -0.125   8.122  10.747 -0.2138 -0.0509  0.4547
  570MOL0     C75148  -0.181   8.079  10.609 -0.0542  0.3466  0.0525
  570MOL0     C75149  -0.211   7.923  10.583 -0.8145 -0.2756  0.5104
  570MOL0     C75150  -0.261   7.895  10.438 -0.7057 -0.6428 -0.0056
  570MOL0     C75151  -0.284   7.748  10.416 -0.2677 -0.0791 -0.3719
  570MOL0    Cl75152  -0.334   7.709  10.255  0.0436 -0.5422  0.1053
  570MOL0     C75153   0.490   8.404  10.739  0.3034 -0.0660 -0.5535
  570MOL0     C75154   0.614   8.395  10.808  0.1027  0.2741 -0.2120
  570MOL0     O75155   0.695   8.389  11.223  0.8741 -0.3861 -0.0025
  570MOL0     C75156   1.030   8.362  11.080  0.3729 -0.4078 -0.4739
  570MOL0     C75157   1.147   8.299  11.108  0.1663 -0.7102  0.8485
  570MOL0     N75158   1.702   7.809  11.345  0.8512  0.7452  0.3504
  570MOL0     N75159   1.808   7.800  11.278 -0.8066  0.6008  0.2157
  570MOL0     C75160   2.934   8.094  10.889 -0.2951  0.0622  0.5313
  570MOL0     C75161   3.067   8.061  10.851  0.5243 -0.3090 -0.7368
  570MOL0     C75162   3.530   8.106  10.775 -0.8783 -0.2082 -0.2988
  570MOL0     C75163   3.549   7.974  10.840 -0.6584  0.0800  0.0558
  570MOL0     C75164   3.664   7.896  10.810 -0.3860 -0.6881 -0.2014
  570MOL0     C75165   3.762   7.952  10.718  1.2325 -0.4190 -0.0584
  570MOL0     O75166   3.860   7.872  10.665 -0.1195 -0.1793  0.4123
  570MOL0     C75167   3.863   7.744  10.703 -0.0573  0.4717 -0.4985
  570MOL0     C75168   3.975   7.672  10.624  0.2940  0.0230 -0.6313
  570MOL0     C75169   3.991   7.527  10.669 -0.9041 -0.8866  0.2325
  570MOL0     C75170   4.118   7.466  10.615 -0.4100 -0.1631 -0.3443
  570MOL0     C75171   4.116   7.323  10.622  0.2399 -0.3695  1.2880
  570MOL0     C75172   4.130   7.206  10.610 -0.5715 -0.1362  0.1435
  570MOL0     C75173   3.748   8.080  10.666 -0.2912 -0.3132  0.1099
  570MOL0     C75174   3.635   8.158  10.696 -0.4218 -0.8406 -0.5800
  570MOL0     H75175   3.196   8.374  10.876  1.4352 -0.5114 -1.6169
  570MOL0     H75176   2.964   8.424  10.908  1.6515  0.8634 -0.2449
  570MOL0     H75177   2.694   8.108  11.054 -1.0766 -2.1469 -1.1029
  570MOL0     H75178   2.650   8.139  10.882 -3.1565  2.7362 -0.9051
  570MOL0     H75179   2.533   8.344  10.955 -1.2848 -0.6563  0.4839
  570MOL0     H75180   2.586   8.307  11.132  0.6454 -0.2355  0.3498
  570MOL0     H75181   2.461   8.080  11.086 -1.9012 -1.9941 -2.4549
  570MOL0     H75182   2.389   8.155  10.952 -0.7301 -1.8132  0.6864
  570MOL0     H75183   2.387   8.237  11.242  1.3174  0.6721 -0.9592
  570MOL0     H75184   2.325   8.346  11.112  0.5565  0.1062  0.1728
  570MOL0     H75185   2.158   8.160  11.071 -1.9293  1.2101  0.1495
  570MOL0     H75186   2.147   8.238  11.230 -1.7972 -0.5405 -2.3566
  570MOL0     H75187   2.275   8.048  11.330  1.7013  1.3704 -0.2075
  570MOL0     H75188   2.246   7.965  11.170 -0.0863  0.8085  0.0161
  570MOL0     H75189   2.077   7.935  11.368  0.7061  2.2230  0.5035
  570MOL0     H75190   2.032   8.099  11.335  0.5093  0.1553 -0.0842
  570MOL0     H75191   2.004   7.856  11.134 -0.8163  0.7248 -1.9055
  570MOL0     H75192   1.953   8.018  11.094 -3.0109 -1.4998 -1.3796
  570MOL0     H75193   1.733   8.119  11.246 -0.3072 -0.6760 -1.5116
  570MOL0     H75194   1.518   8.092  11.397  3.0287  0.9482 -2.6339
  570MOL0     H75195   1.548   7.957  11.508  6.3772  4.8154 -0.2602
  570MOL0     H75196   1.307   7.941  11.406  0.8389  1.3579 -0.7646
  570MOL0     H75197   1.398   7.809  11.347 -0.0845 -0.3190  0.7513
  570MOL0     H75198   1.449   7.900  11.138  1.4577  1.0834  0.6105
  570MOL0     H75199   1.279   7.902  11.172  0.3944 -0.5445  0.7192
  570MOL0     H75200   1.342   8.124  11.081  2.8572  2.2735  0.1555
  570MOL0     H75201   1.466   8.146  11.186 -0.4070  0.6012 -1.6152
  570MOL0     H75202   1.055   8.146  11.402  2.9101  0.6713  0.2079
  570MOL0     H75203   0.841   8.232  11.339 -0.0429  0.0082 -0.1631
  570MOL0     H75204   0.476   8.417  11.127 -1.1039  1.0053 -0.6193
  570MOL0     H75205   0.278   8.427  10.996  0.8499 -0.0798  1.0280
  570MOL0     H75206   0.114   8.392  10.876 -1.9575 -2.8374  1.1174
  570MOL0     H75207   0.161   8.234  10.826  0.2216  1.7954 -0.2984
  570MOL0     H75208   0.041   8.263  10.605 -0.1837  2.4321 -2.1702
  570MOL0     H75209   0.005   8.423  10.660 -0.6987  1.2782  2.5930
  570MOL0     H75210  -0.190   8.311  10.705  0.9101  3.4904  0.5593
  570MOL0     H75211  -0.109   8.307  10.863 -0.7533  0.6030 -0.9587
  570MOL0     H75212  -0.034   8.066  10.770 -0.4961 -0.2257  1.1672
  570MOL0     H75213  -0.195   8.091  10.825  2.5497 -2.1304  2.2877
  570MOL0     H75214  -0.114   8.116  10.531 -0.5382  3.8504  1.1121
  570MOL0     H75215  -0.270   8.139  10.586  0.3065  0.5524 -0.8517
  570MOL0     H75216  -0.284   7.892  10.659 -2.0567 -2.3592 -1.4276
  570MOL0     H75217  -0.124   7.859  10.598 -1.2859 -1.9016 -2.8513
  570MOL0     H75218  -0.346   7.957  10.410  0.8097 -0.2472 -4.3936
  570MOL0     H75219  -0.188   7.918  10.361 -0.7726 -2.1146 -0.5438
  570MOL0     H75220  -0.349   7.706  10.494  0.0879 -2.6770 -1.3765
  570MOL0     H75221  -0.187   7.698  10.424  0.5055  1.4360  0.1719
  570MOL0     H75222   0.479   8.414  10.631  0.0567  0.1369 -0.5091
  570MOL0     H75223   0.709   8.373  10.760  0.6278  0.2787  0.8024
  570MOL0     H75224   1.024   8.439  11.003 -4.1534  0.9418  0.8862
  570MOL0     H75225   1.238   8.329  11.058 -0.0555 -0.9966  0.2585
  570MOL0     H75226   2.870   8.007  10.902 -1.6780  0.8756 -0.5928
  570MOL0     H75227   3.089   7.955  10.846  2.0207  0.0119 -4.3799
  570MOL0     H75228   3.472   7.937  10.906  0.8794 -1.7698  0.9152
  570MOL0     H75229   3.676   7.804  10.866  1.1700  0.0490  0.7424
  570MOL0     H75230   3.769   7.698  10.673  1.3457 -2.2346 -1.0689
  570MOL0     H75231   3.878   7.735  10.811 -5.4947 -3.6401  0.3127
  570MOL0     H75232   3.950   7.680  10.518 -2.2808  0.2960 -0.0748
  570MOL0     H75233   4.067   7.726  10.646 -0.7438  0.2316  4.3648
  570MOL0     H75234   3.905   7.473  10.627 -1.5295  1.2411 -1.4241
  570MOL0     H75235   4.001   7.516  10.777  2.7478  1.8276  0.3768
  570MOL0     H75236   4.134   7.487  10.509 -0.7268 -2.5085 -0.9093
  570MOL0     H75237   4.201   7.505  10.674 -1.0508 -1.6091  1.6125
  570MOL0     H75238   4.149   7.103  10.589 -1.5651 -0.6014  1.3991
  570MOL0     H75239   3.823   8.115  10.596 -0.6652 -1.7647 -1.0749
  570MOL0     H75240   3.620   8.257  10.654  0.2923 -0.3402  0.3310
  571MOL0     O75241   7.431   9.726   8.330 -0.0218 -0.0655 -0.3399
  571MOL0     C75242   7.453   9.842   8.301  0.4834  0.2665  0.3735
  571MOL0     O75243   7.361   9.933   8.257  0.7426 -0.1910  0.0459
  571MOL0     C75244   7.220   9.904   8.250 -0.5186 -0.2379 -0.2090
  571MOL0     C75245   7.143  10.002   8.304  0.1885 -0.0222  0.3911
  571MOL0     C75246   7.000   9.989   8.295  0.1569 -0.0419  0.2056
  571MOL0     C75247   6.935   9.874   8.245  0.7597 -0.2916 -0.2882
  571MOL0     O75248   6.794   9.873   8.238 -0.4795 -0.3584  0.4745
  571MOL0     C75249   6.737   9.761   8.171  0.4551  0.0143 -0.1376
  571MOL0     C75250   6.577   9.770   8.174 -0.6411 -0.7503 -0.1338
  571MOL0     C75251   6.519   9.650   8.105 -0.0296 -1.3153 -0.3821
  571MOL0     C75252   6.373   9.644   8.114  0.6404  0.2177 -0.3341
  571MOL0     C75253   6.293   9.727   8.008 -0.4919  0.2234  0.5371
  571MOL0     C75254   6.146   9.718   8.022 -0.7349  0.1253  0.2431
  571MOL0     C75255   6.066   9.777   7.901 -0.4464  0.1859 -0.3804
  571MOL0     C75256   5.934   9.714   7.890 -0.1381  0.4282  0.2493
  571MOL0     N75257   5.830   9.774   7.810 -0.1602  0.1597 -0.1629
  571MOL0     C75258   5.756   9.727   7.697 -0.3267 -0.6467  0.0196
  571MOL0     C75259   5.682   9.833   7.664  0.4900 -0.0311 -0.2131
  571MOL0     C75260   5.575   9.858   7.560 -0.1582 -0.2555 -0.6487
  571MOL0     C75261   5.458   9.754   7.566  0.0334 -1.0715 -0.3117
  571MOL0     C75262   5.349   9.808   7.472 -0.2882 -0.0812 -0.1142
  571MOL0     C75263   5.206   9.775   7.509  0.0292 -0.0284 -0.4668
  571MOL0     O75264   5.111   9.841   7.430 -0.4140 -0.5033  0.8736
  571MOL0     C75265   4.978   9.807   7.443  0.6971 -0.5349  0.0423
  571MOL0     C75266   4.891   9.843   7.338  0.7415  0.4257  0.6286
  571MOL0     C75267   4.753   9.834   7.349  0.3522  0.9977 -0.0292
  571MOL0     C75268   4.698   9.770   7.459 -0.0669 -0.1932  0.2433
  571MOL0     C75269   4.551   9.745   7.471  0.0057 -0.5904  0.2322
  571MOL0     O75270   4.482   9.770   7.361  0.0371 -0.2268 -0.3670
  571MOL0     C75271   4.344   9.778   7.368 -0.4717  0.5150 -0.6588
  571MOL0     C75272   4.261   9.667   7.372  0.3808  0.7064  0.0119
  571MOL0     C75273   4.121   9.678   7.384  0.5667 -0.5469 -0.2945
  571MOL0     C75274   4.061   9.804   7.379  0.5773 -1.0923  0.3198
  571MOL0     O75275   3.921   9.797   7.380 -0.1317  0.3280 -0.0311
  571MOL0     C75276   3.857   9.921   7.368 -0.1066  0.7319  0.2957
  571MOL0     C75277   3.707   9.904   7.381  0.2255 -0.8177  0.1131
  571MOL0     C75278   3.623  10.024   7.343 -0.6821 -0.4820  0.4535
  571MOL0     C75279   3.489  10.004   7.404  0.0490  0.4272 -0.6211
  571MOL0     C75280   3.391  10.119   7.374 -0.1097  0.3863 -0.6796
  571MOL0     C75281   3.253  10.114   7.445 -0.0395  0.3686 -0.6109
  571MOL0     C75282   3.146  10.198   7.376 -0.2211 -0.0311  0.1332
  571MOL0     C75283   3.051  10.267   7.468  0.0785 -0.3323 -0.0053
  571MOL0    Cl75284   2.966  10.146   7.575 -0.4035 -0.1370 -0.0928
  571MOL0     C75285   4.138   9.920   7.375 -0.3656 -0.2058  0.0711
  571MOL0     C75286   4.283   9.901   7.380 -0.5776 -0.3018  0.5309
  571MOL0     O75287   4.507   9.693   7.567  0.0359  0.4436 -1.1981
  571MOL0     C75288   4.782   9.735   7.567  0.2942  0.2524 -0.2555
  571MOL0     C75289   4.921   9.755   7.562  0.2591  0.8462 -0.2906
  571MOL0     N75290   5.708   9.938   7.742  0.3669 -0.2927 -0.0473
  571MOL0     N75291   5.788   9.904   7.833 -0.8622  0.3582 -0.5354
  571MOL0     C75292   7.020   9.769   8.203 -0.5554  0.5628 -0.5928
  571MOL0     C75293   7.158   9.791   8.208  0.2981  0.3448  1.0485
  571MOL0     C75294   7.588   9.891   8.326  0.4259 -0.5434 -0.0890
  571MOL0     C75295   7.689   9.795   8.343 -0.0262 -0.3959  0.0631
  571MOL0     C75296   7.825   9.838   8.358 -0.0136  0.5460  0.6262
  571MOL0     C75297   7.860   9.978   8.356  0.5151  0.6866  0.8402
  571MOL0     O75298   7.991  10.000   8.383 -0.3927  0.2828  0.1720
  571MOL0     C75299   8.040  10.138   8.392  0.3532 -0.1656  0.6440
  571MOL0     C75300   8.058  10.212   8.263 -0.0654  0.3171 -0.0616
  571MOL0     C75301   8.178  10.182   8.180 -0.1799 -0.1675  1.3968
  571MOL0     C75302   8.277  10.303   8.190 -0.1973 -0.3817  0.5647
  571MOL0     C75303   8.394  10.277   8.115  0.5317 -0.0698  0.5294
  571MOL0     C75304   8.502  10.251   8.066 -0.2711  0.5256  0.4822
  571MOL0     C75305   7.757  10.071   8.340  0.3115  0.2917  0.3652
  571MOL0     C75306   7.621  10.034   8.324  0.7137  0.7837 -0.3025
  571MOL0     H75307   7.190  10.087   8.354 -0.4848  0.7898 -0.3133
  571MOL0     H75308   6.939  10.070   8.335 -0.5315 -0.7982  0.6974
  571MOL0     H75309   6.774   9.672   8.223  1.4783  1.9340  2.6589
  571MOL0     H75310   6.762   9.759   8.065  3.6019  0.5353  0.5229
  571MOL0     H75311   6.544   9.870   8.144 -0.3057  0.0484  1.9869
  571MOL0     H75312   6.540   9.764   8.277 -0.7543  0.5853 -0.0801
  571MOL0     H75313   6.554   9.567   8.166 -0.1507 -0.3392  1.0508
  571MOL0     H75314   6.558   9.644   8.003  1.0297  1.5569 -0.2434
  571MOL0     H75315   6.344   9.539   8.103 -0.9395  0.5980  0.0031
  571MOL0     H75316   6.332   9.661   8.214 -0.0379  1.4674 -0.7982
  571MOL0     H75317   6.335   9.690   7.913 -0.3226  1.6799  0.0248
  571MOL0     H75318   6.330   9.830   8.012 -1.7568  0.6965  0.4855
  571MOL0     H75319   6.108   9.745   8.121 -1.7594 -0.6208  0.0695
  571MOL0     H75320   6.129   9.610   8.018 -0.4090  0.0866 -3.3539
  571MOL0     H75321   6.051   9.885   7.912 -3.1844 -0.3238  1.9355
  571MOL0     H75322   6.130   9.762   7.813  2.2624  3.9769  0.6847
  571MOL0     H75323   5.890   9.712   7.990  0.8410 -1.2698  0.6792
  571MOL0     H75324   5.951   9.608   7.869  0.7645  0.4545  0.7641
  571MOL0     H75325   5.755   9.636   7.638 -2.8459 -0.1393 -0.8349
  571MOL0     H75326   5.626   9.855   7.463  0.1596  0.0992 -0.4943
  571MOL0     H75327   5.534   9.956   7.587  1.5759  0.1000  0.9100
  571MOL0     H75328   5.416   9.753   7.667  2.5555  2.0720  0.9296
  571MOL0     H75329   5.496   9.654   7.542 -1.2835 -1.8327  0.6550
  571MOL0     H75330   5.366   9.913   7.445 -1.1010  0.2286  0.5491
  571MOL0     H75331   5.367   9.754   7.379  0.1614 -0.6148  0.2826
  571MOL0     H75332   5.186   9.803   7.613 -2.9270  0.4212 -1.0811
  571MOL0     H75333   5.192   9.667   7.495  2.4771 -0.5625  0.6525
  571MOL0     H75334   4.936   9.877   7.245  0.5724  0.1950  0.4601
  571MOL0     H75335   4.690   9.858   7.264 -1.3329  0.2859  0.9618
  571MOL0     H75336   4.302   9.568   7.392  3.0723  1.7281 -0.0262
  571MOL0     H75337   4.069   9.584   7.403 -0.3440  0.3013  1.7318
  571MOL0     H75338   3.872   9.962   7.268 -0.0705 -0.2889 -0.1276
  571MOL0     H75339   3.887  10.000   7.438 -1.4058 -0.4590  2.3041
  571MOL0     H75340   3.686   9.883   7.486 -1.0032 -3.1362 -0.5260
  571MOL0     H75341   3.678   9.827   7.309  1.7006 -0.2986 -1.1151
  571MOL0     H75342   3.616  10.031   7.234  2.6943  1.6749  0.2467
  571MOL0     H75343   3.673  10.115   7.376 -2.0081  1.0215 -1.4948
  571MOL0     H75344   3.443   9.908   7.380  1.6577 -0.9182  1.2962
  571MOL0     H75345   3.509  10.000   7.512  1.2680  2.5126 -0.7131
  571MOL0     H75346   3.368  10.107   7.267  0.0591  2.4157 -0.9818
  571MOL0     H75347   3.440  10.216   7.375 -0.6535  0.6615  0.0316
  571MOL0     H75348   3.273  10.149   7.547  1.1305 -1.7398 -0.0619
  571MOL0     H75349   3.219  10.010   7.451 -0.7022  0.5999 -0.2041
  571MOL0     H75350   3.191  10.281   7.321  0.5328  1.8854  3.3446
  571MOL0     H75351   3.089  10.134   7.308 -0.0384 -1.6153  1.4044
  571MOL0     H75352   2.975  10.319   7.410 -0.3975 -3.0577 -1.9769
  571MOL0     H75353   3.107  10.343   7.524  0.0906  0.4638 -1.0808
  571MOL0     H75354   4.101  10.022   7.377  2.5270  0.9749 -0.7097
  571MOL0     H75355   4.350   9.986   7.385 -2.5370  1.2737  1.5606
  571MOL0     H75356   4.737   9.679   7.648 -0.7041  0.1130 -0.8861
  571MOL0     H75357   4.974   9.731   7.653  1.3493  3.4197 -0.1770
  571MOL0     H75358   6.976   9.682   8.154 -0.4495  0.7861 -1.0891
  571MOL0     H75359   7.212   9.706   8.167  1.3885  2.0839 -1.3244
  571MOL0     H75360   7.672   9.689   8.359  1.9403 -0.4019  2.6901
  571MOL0     H75361   7.891   9.755   8.380 -0.1442 -0.0295 -0.9910
  571MOL0     H75362   8.134  10.132   8.448 -1.0114 -1.7092  2.9435
  571MOL0     H75363   7.983  10.211   8.450  0.3996  0.8293 -0.5274
  571MOL0     H75364   7.970  10.210   8.198  0.5068  2.3132 -1.0046
  571MOL0     H75365   8.055  10.320   8.280 -2.0513  0.0946  1.2614
  571MOL0     H75366   8.135  10.166   8.081 -0.3237 -1.2707  1.6190
  571MOL0     H75367   8.230  10.091   8.213  3.1417  1.0767 -0.0674
  571MOL0     H75368   8.240  10.398   8.151  0.6673  0.2990  1.3428
  571MOL0     H75369   8.309  10.318   8.294  0.1877 -0.6417  0.4867
  571MOL0     H75370   8.597  10.226   8.024  0.4507  2.0793  1.0907
  571MOL0     H75371   7.768  10.179   8.342  1.2198  0.2005  0.8245
  571MOL0     H75372   7.544  10.106   8.297  0.4365  1.9255  3.0666
  572MOL0     O75373  10.014   8.446   3.981  0.0861 -0.0079  0.2509
  572MOL0     C75374  10.050   8.555   3.928  0.1281 -0.3131  0.4677
  572MOL0     O75375   9.973   8.656   3.881  0.1608  0.2343 -1.0338
  572MOL0     C75376   9.836   8.634   3.875 -0.4772  0.2420  0.2824
  572MOL0     C75377   9.789   8.538   3.783  0.8490 -0.3379  0.2143
  572MOL0     C75378   9.656   8.522   3.768  0.0367 -0.2347  0.3774
  572MOL0     C75379   9.562   8.590   3.834 -0.3735  0.4079 -0.2010
  572MOL0     O75380   9.434   8.572   3.806  0.2522  0.6356  0.5652
  572MOL0     C75381   9.355   8.515   3.904 -0.3246  1.1684  1.0470
  572MOL0     C75382   9.228   8.466   3.841 -0.0672  0.0345 -0.0296
  572MOL0     C75383   9.107   8.526   3.907  0.8404 -0.7135 -0.4588
  572MOL0     C75384   8.977   8.461   3.860 -0.4913  0.2141 -0.6431
  572MOL0     C75385   8.851   8.526   3.915 -0.7183  0.3216 -0.1258
  572MOL0     C75386   8.729   8.461   3.862 -0.1487 -0.1421  0.1948
  572MOL0     C75387   8.610   8.493   3.959 -0.0413  0.4888 -0.4588
  572MOL0     C75388   8.488   8.450   3.885 -0.0678  0.7327  0.3638
  572MOL0     N75389   8.361   8.486   3.958  0.7328  0.0805  0.3162
  572MOL0     C75390   8.313   8.613   3.977  0.3107 -0.6184 -0.6909
  572MOL0     C75391   8.209   8.605   4.065 -0.5498  0.8127  0.3759
  572MOL0     C75392   8.129   8.717   4.127  0.2268 -0.8599 -0.9060
  572MOL0     C75393   7.987   8.728   4.070 -0.0107 -0.4214  0.2575
  572MOL0     C75394   7.986   8.755   3.912  0.6094 -0.0073  0.6462
  572MOL0     C75395   7.850   8.794   3.865 -0.1743  0.4246  0.1024
  572MOL0     O75396   7.762   8.690   3.905 -0.4464 -0.1990 -0.1703
  572MOL0     C75397   7.629   8.711   3.908 -0.2787 -0.3052 -0.1243
  572MOL0     C75398   7.565   8.831   3.869  0.5737  0.0543 -0.3772
  572MOL0     C75399   7.429   8.844   3.880  1.0515 -0.1063 -0.0710
  572MOL0     C75400   7.345   8.732   3.926  0.3820 -0.6256  1.1572
  572MOL0     C75401   7.203   8.738   3.943 -0.0848  0.3093  0.1286
  572MOL0     O75402   7.132   8.628   3.928  0.1308  0.4248  0.3743
  572MOL0     C75403   6.994   8.633   3.947  1.0810  0.0210 -0.0089
  572MOL0     C75404   6.912   8.711   3.867  0.4893  0.7903  0.1180
  572MOL0     C75405   6.774   8.721   3.887  0.3128  0.4664  0.1078
  572MOL0     C75406   6.710   8.638   3.989  0.0463 -0.2191  0.2321
  572MOL0     O75407   6.573   8.623   4.013 -0.1870  0.6094  0.5713
  572MOL0     C75408   6.484   8.649   3.905 -1.0689  0.9300 -0.7255
  572MOL0     C75409   6.350   8.607   3.968  0.4421 -0.1261  0.2316
  572MOL0     C75410   6.244   8.602   3.856 -0.0850 -0.3781 -0.3130
  572MOL0     C75411   6.113   8.600   3.932 -0.0937 -0.1367  0.9117
  572MOL0     C75412   5.987   8.618   3.835  0.6619  0.0069  0.0795
  572MOL0     C75413   5.993   8.750   3.753 -0.4065  0.3160  0.3219
  572MOL0     C75414   5.847   8.780   3.708  0.2394  1.0466 -0.1020
  572MOL0     C75415   5.839   8.923   3.645  0.0248  0.3415  0.0360
  572MOL0    Cl75416   5.661   8.955   3.610  0.1687 -0.4346 -0.0452
  572MOL0     C75417   6.798   8.556   4.063  0.0232  0.6856 -0.1792
  572MOL0     C75418   6.936   8.549   4.043  1.3722  0.1980 -0.7648
  572MOL0     O75419   7.159   8.843   3.987  0.6050  0.2834  0.1750
  572MOL0     C75420   7.409   8.613   3.950  0.3640  0.2975  0.6796
  572MOL0     C75421   7.549   8.598   3.928  0.1167 -1.0032 -0.9626
  572MOL0     N75422   8.194   8.466   4.091 -0.2474 -0.2645 -0.0429
  572MOL0     N75423   8.292   8.399   4.040  0.1947  1.0660 -0.2556
  572MOL0     C75424   9.604   8.685   3.928 -0.0029  0.1962  0.2517
  572MOL0     C75425   9.741   8.707   3.946 -0.3575 -0.5892 -0.2609
  572MOL0     C75426  10.202   8.575   3.917 -0.2283 -0.1931 -0.2411
  572MOL0     C75427  10.295   8.485   3.992  0.7541  0.0505  0.6250
  572MOL0     C75428  10.433   8.506   3.975  0.1245  0.1676 -0.5893
  572MOL0     C75429  10.490   8.599   3.889 -0.6194  0.1845 -0.1650
  572MOL0     O75430  10.626   8.628   3.902  0.2692 -0.0739 -0.1153
  572MOL0     C75431  10.684   8.695   3.785 -0.3983  1.2428  1.2348
  572MOL0     C75432  10.674   8.617   3.658  1.1470 -0.4036  0.2575
  572MOL0     C75433  10.766   8.664   3.540  0.3378  1.0180  0.1834
  572MOL0     C75434  10.892   8.584   3.537  0.3860  0.0107 -0.2506
  572MOL0     C75435  10.997   8.621   3.441  0.2220  0.5554 -0.9475
  572MOL0     C75436  11.088   8.647   3.363  0.7584  0.2797 -0.8517
  572MOL0     C75437  10.400   8.684   3.826  0.6048 -0.9317  0.0969
  572MOL0     C75438  10.260   8.679   3.837  0.7892  1.0922 -0.8803
  572MOL0     H75439   9.872   8.494   3.729  2.3599  2.5497  0.0424
  572MOL0     H75440   9.620   8.442   3.703 -1.2769 -0.0096  0.7891
  572MOL0     H75441   9.331   8.587   3.982 -1.5328 -0.1523  1.9509
  572MOL0     H75442   9.397   8.427   3.954 -1.1163 -0.7938 -1.4881
  572MOL0     H75443   9.212   8.358   3.852 -0.5189 -0.4227 -3.9124
  572MOL0     H75444   9.231   8.496   3.736 -0.0521  1.2584  0.3107
  572MOL0     H75445   9.097   8.629   3.870 -0.7518 -0.8040 -0.3669
  572MOL0     H75446   9.114   8.513   4.016  1.2686 -1.0670 -0.5263
  572MOL0     H75447   8.969   8.453   3.751  1.0887  2.2221 -0.9574
  572MOL0     H75448   8.977   8.359   3.899 -1.2076  1.4313  2.7970
  572MOL0     H75449   8.861   8.631   3.886  0.2998 -0.1615 -1.6057
  572MOL0     H75450   8.854   8.518   4.024 -0.6202  2.4405  0.0693
  572MOL0     H75451   8.738   8.353   3.851  1.3837 -0.0687  0.5036
  572MOL0     H75452   8.714   8.503   3.762 -1.5039  2.0987  1.2646
  572MOL0     H75453   8.609   8.449   4.059  0.2539 -1.1333 -1.1401
  572MOL0     H75454   8.612   8.600   3.979  1.3141  0.2062  1.2046
  572MOL0     H75455   8.492   8.341   3.876  1.0506  0.8160 -0.2740
  572MOL0     H75456   8.495   8.495   3.785  0.6203  1.5657  0.7784
  572MOL0     H75457   8.355   8.708   3.947  0.8466  0.1802  2.2734
  572MOL0     H75458   8.185   8.810   4.121  2.2591 -1.9860 -0.3414
  572MOL0     H75459   8.127   8.694   4.234 -0.5321  3.2809  0.1457
  572MOL0     H75460   7.946   8.818   4.116 -0.0521  0.1092 -0.7933
  572MOL0     H75461   7.931   8.638   4.098  0.7009 -0.2903  2.2340
  572MOL0     H75462   8.055   8.832   3.877 -1.3221  0.4854 -2.4836
  572MOL0     H75463   8.009   8.658   3.868  0.1697  0.8706 -1.6324
  572MOL0     H75464   7.849   8.820   3.759  1.5527  1.3598  0.2875
  572MOL0     H75465   7.828   8.880   3.929 -2.8535 -1.0369  1.3042
  572MOL0     H75466   7.623   8.920   3.852 -0.6889  1.0532  0.3647
  572MOL0     H75467   7.379   8.935   3.848  1.5580 -0.6488 -2.6580
  572MOL0     H75468   6.957   8.759   3.781  3.6218 -0.3998  0.9584
  572MOL0     H75469   6.717   8.782   3.818  0.2667  0.3917  0.0802
  572MOL0     H75470   6.505   8.592   3.814 -0.1693  0.3339 -0.1683
  572MOL0     H75471   6.471   8.752   3.871 -0.0270  0.4472 -2.7456
  572MOL0     H75472   6.323   8.676   4.048 -0.0606  1.2928 -1.1148
  572MOL0     H75473   6.364   8.515   4.026  1.1855  0.9670  1.8647
  572MOL0     H75474   6.251   8.523   3.782 -1.7827 -1.3137  0.4769
  572MOL0     H75475   6.256   8.696   3.801  0.3268  0.0384  0.4633
  572MOL0     H75476   6.105   8.513   3.997 -0.5870 -1.2692 -0.6019
  572MOL0     H75477   6.121   8.689   3.995  4.3207  1.4232 -1.4258
  572MOL0     H75478   5.899   8.621   3.900 -0.9688  0.3212 -2.0237
  572MOL0     H75479   5.982   8.536   3.762  3.1696  2.1116 -2.7209
  572MOL0     H75480   6.056   8.735   3.665 -0.8919  1.0155 -0.1445
  572MOL0     H75481   6.030   8.832   3.815  2.1747  2.1131 -3.2358
  572MOL0     H75482   5.812   8.721   3.624 -1.9397  0.1006  1.3708
  572MOL0     H75483   5.771   8.775   3.787  0.2150  2.9745  0.0455
  572MOL0     H75484   5.897   8.940   3.554  1.2875  1.8857  1.0774
  572MOL0     H75485   5.877   9.001   3.712 -1.6073  0.9377  0.2988
  572MOL0     H75486   6.767   8.480   4.134  0.4121  1.7841  1.2189
  572MOL0     H75487   7.000   8.482   4.099  0.4968  0.3830  0.5172
  572MOL0     H75488   7.346   8.533   3.987 -1.6236  1.2786 -0.4378
  572MOL0     H75489   7.599   8.510   3.967  1.5944  1.3351  3.0346
  572MOL0     H75490   9.536   8.743   3.989 -1.1706  0.3289 -1.1115
  572MOL0     H75491   9.770   8.787   4.013 -1.8144 -0.2556 -0.0043
  572MOL0     H75492  10.256   8.403   4.051 -2.5834  0.2565 -1.0593
  572MOL0     H75493  10.501   8.452   4.040  0.7200  1.3257 -0.2107
  572MOL0     H75494  10.789   8.715   3.809  0.0143  1.7246 -0.7919
  572MOL0     H75495  10.639   8.793   3.766  1.0810  1.9918  1.4502
  572MOL0     H75496  10.684   8.509   3.672  0.0640 -0.6079 -0.4282
  572MOL0     H75497  10.571   8.636   3.627  1.7673  2.7655 -0.1813
  572MOL0     H75498  10.792   8.769   3.554  2.3892  0.6571 -0.5692
  572MOL0     H75499  10.716   8.647   3.444  1.4762 -1.2483 -0.0727
  572MOL0     H75500  10.937   8.616   3.631  0.4677  2.1348 -0.9545
  572MOL0     H75501  10.874   8.476   3.547  0.9930 -0.1995 -1.3020
  572MOL0     H75502  11.151   8.665   3.278  0.7385 -1.7104 -1.3477
  572MOL0     H75503  10.437   8.773   3.778  0.5384  0.3843  2.3160
  572MOL0     H75504  10.194   8.739   3.775 -1.2157 -0.1604 -0.0593
  573MOL0     O75505   5.593   1.279   0.144 -0.1095  0.2781 -0.8871
  573MOL0     C75506   5.645   1.199   0.066 -0.1754  0.4110  0.8533
  573MOL0     O75507   5.579   1.099  -0.008 -0.2854  1.0215  0.0253
  573MOL0     C75508   5.452   1.061   0.020  0.0263  0.0420  0.4210
  573MOL0     C75509   5.358   1.139   0.078 -0.8886  0.5755  0.4741
  573MOL0     C75510   5.236   1.073   0.116  0.0255  0.1824  0.4076
  573MOL0     C75511   5.203   0.937   0.077  0.4991 -0.2152 -0.1134
  573MOL0     O75512   5.093   0.858   0.107  0.6185  0.1383  0.3161
  573MOL0     C75513   4.980   0.926   0.169 -0.4533 -0.8375  0.2254
  573MOL0     C75514   4.864   0.831   0.164 -0.0155 -0.5602  0.2890
  573MOL0     C75515   4.755   0.892   0.251 -0.1983 -0.1904 -0.1588
  573MOL0     C75516   4.625   0.810   0.229  0.1051 -0.1886 -0.3201
  573MOL0     C75517   4.522   0.868   0.315 -0.5306  0.7372 -0.3218
  573MOL0     C75518   4.380   0.804   0.288 -0.5291 -0.1733  0.1020
  573MOL0     C75519   4.390   0.657   0.313 -0.7129 -0.2329 -0.3818
  573MOL0     C75520   4.261   0.570   0.293 -1.0186 -0.0866 -0.0098
  573MOL0     N75521   4.171   0.584   0.411  0.7284  0.5494  0.1655
  573MOL0     C75522   4.170   0.523   0.535 -0.5305 -0.0745 -0.0775
  573MOL0     C75523   4.040   0.531   0.587 -0.0596 -0.0237  1.3499
  573MOL0     C75524   3.991   0.460   0.701 -0.3178 -0.0616  0.6272
  573MOL0     C75525   3.842   0.490   0.723 -1.1624  0.6015 -0.1491
  573MOL0     C75526   3.800   0.426   0.851 -0.2516 -0.0062  0.1968
  573MOL0     C75527   3.651   0.404   0.855 -0.4033 -0.1981 -0.8891
  573MOL0     O75528   3.610   0.325   0.969  0.5150  0.2252 -0.1884
  573MOL0     C75529   3.477   0.317   0.995 -0.1657 -0.2026 -0.0154
  573MOL0     C75530   3.375   0.376   0.918  0.7731 -0.2596  0.1352
  573MOL0     C75531   3.240   0.373   0.962 -0.1041 -0.7446 -0.4434
  573MOL0     C75532   3.198   0.293   1.072 -0.4475 -0.1331 -1.0143
  573MOL0     C75533   3.057   0.294   1.110  0.3196  0.6197 -0.4995
  573MOL0     O75534   2.968   0.356   1.022 -0.1649  0.4921 -0.5139
  573MOL0     C75535   2.837   0.347   1.061  0.0131 -0.9165  0.0340
  573MOL0     C75536   2.791   0.430   1.164 -0.2250  0.3788  0.4457
  573MOL0     C75537   2.656   0.430   1.194  0.9424  0.7268 -0.2269
  573MOL0     C75538   2.567   0.365   1.106 -0.4354 -0.1004 -0.2161
  573MOL0     O75539   2.431   0.351   1.126  0.0795 -0.3744 -0.4700
  573MOL0     C75540   2.354   0.428   1.224  0.0490 -0.3635 -0.3080
  573MOL0     C75541   2.210   0.414   1.196 -0.0498  0.6058  0.5430
  573MOL0     C75542   2.162   0.468   1.057 -0.5528 -0.4096  0.4646
  573MOL0     C75543   2.005   0.488   1.048  0.2734  0.0686  0.2917
  573MOL0     C75544   1.961   0.620   1.120 -0.1820 -0.3653 -0.0102
  573MOL0     C75545   1.823   0.664   1.060  0.4155  0.9200 -0.7099
  573MOL0     C75546   1.777   0.806   1.114 -0.0523 -0.3149 -0.3982
  573MOL0     C75547   1.773   0.794   1.265  0.0676  0.2982 -0.0414
  573MOL0    Cl75548   1.627   0.688   1.314 -0.0804  0.1678 -0.4145
  573MOL0     C75549   2.617   0.303   0.989  0.2610  0.1529 -0.4897
  573MOL0     C75550   2.749   0.294   0.964 -0.2395 -0.7888 -0.2406
  573MOL0     O75551   3.011   0.247   1.220  0.0031 -0.1875  0.1309
  573MOL0     C75552   3.299   0.229   1.146  0.2097 -0.2961  0.1075
  573MOL0     C75553   3.435   0.244   1.108  0.0689 -0.6947  0.1490
  573MOL0     N75554   3.966   0.603   0.499  1.0453  0.4786  0.5677
  573MOL0     N75555   4.042   0.630   0.396  0.4705 -0.7166 -0.1286
  573MOL0     C75556   5.298   0.880   0.002 -1.0124 -0.1227 -1.0361
  573MOL0     C75557   5.419   0.937  -0.029 -0.2897 -0.0647 -0.1165
  573MOL0     C75558   5.790   1.222   0.040  0.0852  0.0091 -0.5578
  573MOL0     C75559   5.864   1.330   0.102 -0.0781  0.6054 -0.1504
  573MOL0     C75560   5.993   1.361   0.064 -0.4372 -0.2682 -0.8844
  573MOL0     C75561   6.053   1.292  -0.036  0.0498  0.0265  0.6147
  573MOL0     O75562   6.175   1.337  -0.078 -0.4120  0.4640  0.2173
  573MOL0     C75563   6.261   1.245  -0.151  0.3889  0.3574 -0.5437
  573MOL0     C75564   6.403   1.303  -0.163 -0.3456 -0.8039 -0.2596
  573MOL0     C75565   6.486   1.209  -0.255 -0.0384 -0.5804 -1.3371
  573MOL0     C75566   6.625   1.282  -0.270 -0.4719 -0.1255  0.7639
  573MOL0     C75567   6.703   1.221  -0.371  0.5151  0.0802 -0.4292
  573MOL0     C75568   6.793   1.161  -0.428 -0.2117 -0.1081  0.3786
  573MOL0     C75569   5.982   1.186  -0.095 -0.7857 -0.4158 -0.2502
  573MOL0     C75570   5.852   1.161  -0.066  0.3298  0.6704  0.1475
  573MOL0     H75571   5.375   1.245   0.089  0.8003  0.7912 -2.7857
  573MOL0     H75572   5.155   1.128   0.162  0.0890  0.4850  0.1681
  573MOL0     H75573   4.955   1.021   0.120  0.8504 -1.0382 -0.9010
  573MOL0     H75574   5.003   0.939   0.275 -0.8718  2.6445  0.0231
  573MOL0     H75575   4.890   0.730   0.196 -2.8785 -1.8143 -1.0060
  573MOL0     H75576   4.835   0.818   0.059 -3.9212  0.3819  1.0709
  573MOL0     H75577   4.738   0.999   0.233  1.6649  0.1641  0.0071
  573MOL0     H75578   4.795   0.888   0.353  0.4716 -1.6633 -0.4535
  573MOL0     H75579   4.580   0.818   0.130  1.1967  0.4417 -0.7904
  573MOL0     H75580   4.637   0.705   0.258  1.3884 -0.3234 -1.2144
  573MOL0     H75581   4.502   0.973   0.295 -1.3174  0.5792 -0.4132
  573MOL0     H75582   4.541   0.856   0.422 -3.3028 -2.8903 -0.0073
  573MOL0     H75583   4.354   0.825   0.184 -2.0086 -2.6948 -0.1099
  573MOL0     H75584   4.308   0.840   0.362  0.2497 -0.9058  1.2427
  573MOL0     H75585   4.453   0.603   0.241 -1.2240 -1.8813  0.3572
  573MOL0     H75586   4.435   0.638   0.411  1.1462  4.1844 -0.1621
  573MOL0     H75587   4.282   0.463   0.282  0.8464  0.1766  0.6231
  573MOL0     H75588   4.203   0.603   0.206 -0.3947 -0.0229 -0.4035
  573MOL0     H75589   4.258   0.472   0.574  0.7944  1.2217 -1.2302
  573MOL0     H75590   4.062   0.485   0.780  1.6164 -2.0433 -0.3774
  573MOL0     H75591   3.994   0.353   0.678  1.0480 -0.1960  1.3480
  573MOL0     H75592   3.791   0.453   0.634 -3.2533 -0.6784  1.4726
  573MOL0     H75593   3.819   0.597   0.732  1.8737  1.2698  0.6514
  573MOL0     H75594   3.849   0.329   0.864  3.4627  1.9690  2.6520
  573MOL0     H75595   3.831   0.486   0.937  2.2681 -0.6816 -0.1584
  573MOL0     H75596   3.613   0.363   0.761 -1.5989  2.3470 -1.6009
  573MOL0     H75597   3.600   0.501   0.857  0.5809  0.3610 -1.9229
  573MOL0     H75598   3.393   0.433   0.828  1.5654 -2.2258 -1.0210
  573MOL0     H75599   3.164   0.427   0.907  0.8306  2.8839  1.5248
  573MOL0     H75600   2.867   0.485   1.220  1.4561 -0.7089 -0.6560
  573MOL0     H75601   2.609   0.479   1.279 -0.3760 -2.6062  1.1473
  573MOL0     H75602   2.376   0.535   1.211  2.5381 -0.6444  0.9199
  573MOL0     H75603   2.387   0.402   1.325  3.4838  0.3165 -1.1063
  573MOL0     H75604   2.155   0.471   1.272 -0.6741  1.2991 -0.4074
  573MOL0     H75605   2.178   0.310   1.199 -1.0600  0.8881  0.0084
  573MOL0     H75606   2.186   0.393   0.982  0.1431 -0.8013  1.0615
  573MOL0     H75607   2.229   0.555   1.047 -1.2158  0.4259  2.5536
  573MOL0     H75608   1.983   0.503   0.942  0.3586  2.9081  0.6007
  573MOL0     H75609   1.962   0.395   1.086 -0.5544 -0.0794 -0.9313
  573MOL0     H75610   2.023   0.707   1.097 -0.6154 -0.5512 -2.0971
  573MOL0     H75611   1.973   0.604   1.228  0.8069 -3.3700 -0.4606
  573MOL0     H75612   1.750   0.587   1.085  0.1464  2.3244  3.8156
  573MOL0     H75613   1.826   0.673   0.951  2.0165 -1.2456 -0.8997
  573MOL0     H75614   1.852   0.881   1.085 -0.6606  0.7754  0.7426
  573MOL0     H75615   1.682   0.826   1.063  1.0124  2.0758 -1.6301
  573MOL0     H75616   1.751   0.896   1.298  0.4967 -0.4485  2.8211
  573MOL0     H75617   1.865   0.766   1.317 -0.1452  1.7719  1.2028
  573MOL0     H75618   2.543   0.256   0.924  3.0447 -0.6515 -3.3308
  573MOL0     H75619   2.786   0.261   0.868  0.4074 -0.4943 -0.1006
  573MOL0     H75620   3.266   0.177   1.236  0.1928 -2.3685 -1.0371
  573MOL0     H75621   3.520   0.194   1.154  0.7430 -0.7761 -1.1228
  573MOL0     H75622   5.282   0.783  -0.044  1.6561 -1.5262  0.7278
  573MOL0     H75623   5.502   0.890  -0.082 -0.3857  0.3197 -0.6101
  573MOL0     H75624   5.812   1.390   0.176  1.1886  2.1790 -0.4659
  573MOL0     H75625   6.047   1.449   0.096 -1.8695  0.9980 -1.8232
  573MOL0     H75626   6.226   1.225  -0.253  3.2231 -1.6714 -1.2299
  573MOL0     H75627   6.269   1.145  -0.109  1.7715 -0.0822 -1.7755
  573MOL0     H75628   6.396   1.405  -0.205 -3.0562  0.1391  2.1358
  573MOL0     H75629   6.452   1.305  -0.066 -0.0169 -0.5133 -0.4317
  573MOL0     H75630   6.439   1.176  -0.348 -2.2784  0.2479 -0.5546
  573MOL0     H75631   6.506   1.111  -0.209  2.7718  0.0958 -0.9600
  573MOL0     H75632   6.609   1.385  -0.306 -1.3063 -0.7754 -0.8332
  573MOL0     H75633   6.677   1.284  -0.174 -1.3910 -1.7403  1.3204
  573MOL0     H75634   6.869   1.113  -0.488 -2.2154 -1.5499 -1.1389
  573MOL0     H75635   6.022   1.134  -0.181 -3.5634  0.8871 -2.5335
  573MOL0     H75636   5.797   1.082  -0.117 -1.5217  2.8613 -1.4737
  574MOL0     O75637   7.865   2.877   0.446  0.0305  0.1911 -0.0343
  574MOL0     C75638   7.856   2.955   0.543 -0.4739 -0.5806 -1.2446
  574MOL0     O75639   7.744   3.003   0.601 -0.3048 -0.7612  0.5746
  574MOL0     C75640   7.636   2.956   0.545  0.3524 -0.1345  0.2286
  574MOL0     C75641   7.552   2.866   0.610 -0.2258  0.0270  0.3183
  574MOL0     C75642   7.427   2.825   0.549 -0.3264  0.4998  0.2968
  574MOL0     C75643   7.389   2.871   0.427  0.5427  0.5173  0.7568
  574MOL0     O75644   7.267   2.837   0.367 -0.4200 -0.6382  0.6266
  574MOL0     C75645   7.190   2.732   0.419 -0.1476 -0.2744  0.1613
  574MOL0     C75646   7.083   2.684   0.321 -0.7663  0.3676  0.1319
  574MOL0     C75647   6.978   2.787   0.283  0.2841 -0.0916  0.2177
  574MOL0     C75648   6.865   2.703   0.205 -0.1550 -0.6560 -0.6709
  574MOL0     C75649   6.721   2.770   0.194 -0.0687 -0.7555  0.9761
  574MOL0     C75650   6.637   2.738   0.312 -0.4809  0.3598 -0.3064
  574MOL0     C75651   6.496   2.779   0.292 -0.7602  0.4965  0.9207
  574MOL0     C75652   6.400   2.766   0.411 -0.5693 -0.7057 -0.1564
  574MOL0     N75653   6.399   2.622   0.449  0.3199 -0.3807  0.9904
  574MOL0     C75654   6.376   2.513   0.370 -0.1731  0.7234  0.5673
  574MOL0     C75655   6.316   2.427   0.449  0.6686  1.0019 -0.4422
  574MOL0     C75656   6.288   2.284   0.413 -0.9045  1.0694  0.3567
  574MOL0     C75657   6.149   2.237   0.455 -0.3992  0.4730 -0.9107
  574MOL0     C75658   6.144   2.096   0.407 -0.4109  0.4149  0.1275
  574MOL0     C75659   6.019   2.020   0.432 -0.6595 -0.0646 -0.9382
  574MOL0     O75660   5.905   2.087   0.384 -0.7835 -0.1622  0.1912
  574MOL0     C75661   5.784   2.023   0.399  0.3558 -0.3603  0.3159
  574MOL0     C75662   5.685   2.071   0.481 -0.4403 -0.1125 -0.5000
  574MOL0     C75663   5.560   2.008   0.490  0.0865  0.5487 -0.5898
  574MOL0     C75664   5.541   1.890   0.419  0.8135 -0.0793  0.4587
  574MOL0     C75665   5.406   1.824   0.417 -0.9501 -0.8206 -0.1947
  574MOL0     O75666   5.385   1.736   0.323  0.3993  0.5418  0.0537
  574MOL0     C75667   5.285   1.639   0.316 -1.3088 -0.1833  0.2953
  574MOL0     C75668   5.285   1.563   0.199 -0.3617  0.0358  0.3333
  574MOL0     C75669   5.194   1.456   0.178 -1.5228 -0.6412  0.3413
  574MOL0     C75670   5.092   1.433   0.281 -0.5474 -0.5670 -0.2667
  574MOL0     O75671   4.999   1.332   0.265  0.8127  0.0433 -0.9512
  574MOL0     C75672   4.911   1.350   0.157 -0.0701 -0.0505 -0.0235
  574MOL0     C75673   4.807   1.453   0.196  0.7903 -0.1162 -0.4272
  574MOL0     C75674   4.705   1.457   0.077 -0.1339  0.2310  0.9257
  574MOL0     C75675   4.571   1.522   0.116 -0.5717  0.6061  0.1480
  574MOL0     C75676   4.451   1.484   0.035 -0.3901 -0.8343  0.3381
  574MOL0     C75677   4.316   1.527   0.098  0.2469 -0.0572  0.3096
  574MOL0     C75678   4.191   1.469   0.018  0.1668 -0.0675 -0.5236
  574MOL0     C75679   4.057   1.462   0.100 -0.3379 -0.3682  0.1095
  574MOL0    Cl75680   3.928   1.421  -0.022  0.1277 -0.1452 -0.0380
  574MOL0     C75681   5.091   1.521   0.387 -0.3049  0.0947  0.2310
  574MOL0     C75682   5.177   1.629   0.404  0.0848  0.5430  0.0792
  574MOL0     O75683   5.336   1.857   0.512  0.6790 -0.1040  0.3384
  574MOL0     C75684   5.641   1.843   0.325 -0.0534 -0.1299 -0.5964
  574MOL0     C75685   5.760   1.912   0.312 -1.0741  0.7606  0.4012
  574MOL0     N75686   6.305   2.479   0.580  0.2994  0.2706  0.3313
  574MOL0     N75687   6.356   2.592   0.576  0.4017 -1.4296  0.4131
  574MOL0     C75688   7.472   2.963   0.357  1.2945 -0.4026  0.4154
  574MOL0     C75689   7.595   2.999   0.416 -0.1621 -0.0918  0.2445
  574MOL0     C75690   7.991   3.008   0.584 -0.3295  0.4829  0.4712
  574MOL0     C75691   8.040   3.016   0.715 -0.5066  0.7089  0.4169
  574MOL0     C75692   8.172   3.051   0.743 -0.6723 -0.5164 -0.1343
  574MOL0     C75693   8.242   3.102   0.635 -0.7945 -0.2696  0.0586
  574MOL0     O75694   8.362   3.134   0.672  0.2059 -0.4771  0.7414
  574MOL0     C75695   8.468   3.104   0.583 -0.9226  0.5528  0.0924
  574MOL0     C75696   8.607   3.117   0.654  0.3896  0.2301  0.6219
  574MOL0     C75697   8.632   3.259   0.707  0.3430  0.1485  0.2777
  574MOL0     C75698   8.618   3.376   0.604 -0.0332  0.2630 -0.1214
  574MOL0     C75699   8.711   3.365   0.491 -0.1286  0.7666 -0.4174
  574MOL0     C75700   8.809   3.370   0.426  0.2922  0.1688 -0.0968
  574MOL0     C75701   8.195   3.101   0.503 -0.1342  0.1700  1.0340
  574MOL0     C75702   8.069   3.053   0.474  1.7388 -0.9028 -0.5797
  574MOL0     H75703   7.591   2.824   0.702  0.6065  0.7632  0.3043
  574MOL0     H75704   7.366   2.753   0.603  1.2379 -1.1676 -0.0545
  574MOL0     H75705   7.143   2.757   0.514 -0.9715  0.9341 -0.5403
  574MOL0     H75706   7.264   2.652   0.436  2.7295  2.1142 -0.1848
  574MOL0     H75707   7.045   2.592   0.366  0.5339 -0.7411 -0.9560
  574MOL0     H75708   7.131   2.665   0.224 -3.3479 -4.1874 -0.4928
  574MOL0     H75709   7.020   2.874   0.231  4.5704 -0.2453  2.8971
  574MOL0     H75710   6.927   2.830   0.370 -2.2555 -1.0271 -0.7067
  574MOL0     H75711   6.906   2.680   0.107 -1.2316 -1.8662 -0.8713
  574MOL0     H75712   6.843   2.612   0.263 -0.5328 -0.9710 -1.2977
  574MOL0     H75713   6.686   2.727   0.100  2.2385 -0.8552  0.1044
  574MOL0     H75714   6.725   2.880   0.191 -1.8336 -0.6724  0.6561
  574MOL0     H75715   6.681   2.790   0.398  1.3932  0.4341 -1.2608
  574MOL0     H75716   6.636   2.629   0.327 -2.1289  0.2526 -1.0197
  574MOL0     H75717   6.499   2.884   0.262  2.3569 -0.1230 -1.4097
  574MOL0     H75718   6.457   2.715   0.213  2.2306  1.7580 -1.7934
  574MOL0     H75719   6.304   2.813   0.384  0.3315  2.1533  1.2225
  574MOL0     H75720   6.442   2.829   0.490 -1.8904  0.9596 -0.6986
  574MOL0     H75721   6.401   2.499   0.265 -1.1981 -0.7245  0.4745
  574MOL0     H75722   6.367   2.226   0.460  1.8624  2.1655 -2.5852
  574MOL0     H75723   6.297   2.275   0.305  0.6632  0.2346  0.5259
  574MOL0     H75724   6.073   2.302   0.411  0.5294 -0.2647 -3.8186
  574MOL0     H75725   6.151   2.234   0.564  3.4087  0.6766 -0.8183
  574MOL0     H75726   6.161   2.092   0.300 -0.3944 -3.6575  0.1627
  574MOL0     H75727   6.224   2.034   0.447 -1.1218 -0.8920 -0.4256
  574MOL0     H75728   6.011   2.004   0.540 -0.5840  0.8424 -0.7889
  574MOL0     H75729   6.038   1.927   0.378  0.4645 -1.6253  1.8628
  574MOL0     H75730   5.703   2.161   0.538 -0.8524 -0.5655  0.3581
  574MOL0     H75731   5.478   2.057   0.540 -1.0489  1.7109 -3.3971
  574MOL0     H75732   5.352   1.601   0.122  0.3618 -0.9598  0.4484
  574MOL0     H75733   5.212   1.395   0.090  0.4639  0.3507  0.0131
  574MOL0     H75734   4.868   1.253   0.132  2.6598 -0.8973 -1.8413
  574MOL0     H75735   4.969   1.374   0.067  2.9224  0.7224  1.9591
  574MOL0     H75736   4.851   1.551   0.214 -2.4718  1.5504 -0.8627
  574MOL0     H75737   4.743   1.416   0.277  1.2496 -0.7104 -0.3254
  574MOL0     H75738   4.696   1.351   0.051  3.0462  0.2342 -0.7293
  574MOL0     H75739   4.753   1.503  -0.010  3.1237 -2.7976  0.8602
  574MOL0     H75740   4.553   1.495   0.220  0.3318  1.7690  0.6326
  574MOL0     H75741   4.590   1.630   0.105 -1.1149  0.5465 -1.8438
  574MOL0     H75742   4.446   1.377   0.011  0.1882 -0.2540 -2.8427
  574MOL0     H75743   4.461   1.538  -0.060 -2.8193 -1.1481 -0.1553
  574MOL0     H75744   4.316   1.636   0.104  0.0912  0.0077 -0.7319
  574MOL0     H75745   4.317   1.491   0.201  1.0237 -0.5893  0.1258
  574MOL0     H75746   4.183   1.542  -0.063  1.3586  1.9298  1.0723
  574MOL0     H75747   4.214   1.365  -0.009  2.7493  0.2782  0.1061
  574MOL0     H75748   4.032   1.554   0.154 -3.0125 -0.9056 -0.0421
  574MOL0     H75749   4.054   1.388   0.180  0.9540 -0.1832  0.3396
  574MOL0     H75750   5.013   1.507   0.462 -0.4975  2.6510  0.5921
  574MOL0     H75751   5.168   1.702   0.485 -1.6215  2.0567 -1.3836
  574MOL0     H75752   5.631   1.752   0.266 -0.9326  0.3883 -1.2673
  574MOL0     H75753   5.838   1.877   0.245 -0.2649 -1.9867  2.6258
  574MOL0     H75754   7.447   3.007   0.260 -1.3484 -1.0639  0.7292
  574MOL0     H75755   7.661   3.069   0.365 -0.9028 -0.4160 -1.2132
  574MOL0     H75756   7.974   2.992   0.798 -1.7099 -0.5406 -0.8602
  574MOL0     H75757   8.218   3.044   0.841 -1.1072 -3.7838 -0.0515
  574MOL0     H75758   8.471   3.164   0.492  0.0094  0.1051 -0.1915
  574MOL0     H75759   8.445   3.001   0.554  0.7321  0.3271 -0.5475
  574MOL0     H75760   8.618   3.046   0.736 -2.0026 -1.1993 -0.2075
  574MOL0     H75761   8.674   3.076   0.579 -1.2787  0.8765 -1.2980
  574MOL0     H75762   8.733   3.266   0.751  0.5053  1.1051 -0.2187
  574MOL0     H75763   8.563   3.282   0.789 -1.3341 -0.8362 -0.8080
  574MOL0     H75764   8.515   3.363   0.570 -0.7549 -0.0591  2.0612
  574MOL0     H75765   8.625   3.470   0.660  1.0088 -0.8255  1.6778
  574MOL0     H75766   8.892   3.381   0.359  3.6227 -1.8214  3.3082
  574MOL0     H75767   8.258   3.132   0.420 -2.6505 -1.6236 -1.7408
  574MOL0     H75768   8.025   3.054   0.375  0.2392  0.9606  0.0456
  575MOL0     O75769   1.291   4.657   7.248  0.5691  0.0262  0.5040
  575MOL0     C75770   1.331   4.620   7.355 -0.0867 -0.4688 -0.3288
  575MOL0     O75771   1.454   4.626   7.402 -0.7538 -1.0912  0.6983
  575MOL0     C75772   1.566   4.682   7.342  0.9149 -0.1563  0.5352
  575MOL0     C75773   1.575   4.736   7.210 -0.5681 -0.1759 -0.1539
  575MOL0     C75774   1.711   4.742   7.155 -0.5850  0.6532 -0.0965
  575MOL0     C75775   1.828   4.726   7.229  0.7634 -0.2393 -0.9994
  575MOL0     O75776   1.953   4.724   7.168  0.4923 -0.2733  0.1050
  575MOL0     C75777   1.960   4.593   7.107 -0.4704 -0.5240 -0.3100
  575MOL0     C75778   2.103   4.562   7.063  0.6356  0.0799 -0.2851
  575MOL0     C75779   2.176   4.686   6.997 -0.3028  0.2812 -0.6463
  575MOL0     C75780   2.310   4.637   6.931 -0.3110  0.3698 -0.8088
  575MOL0     C75781   2.372   4.742   6.838  0.0262  0.3189 -0.4102
  575MOL0     C75782   2.493   4.685   6.764  1.0924  0.5625  0.0958
  575MOL0     C75783   2.623   4.702   6.838  0.4892 -0.0944 -0.3853
  575MOL0     C75784   2.744   4.643   6.760  0.2139 -0.0769 -0.6142
  575MOL0     N75785   2.866   4.699   6.812 -0.2573  0.1968 -0.8234
  575MOL0     C75786   2.927   4.807   6.758  1.1527 -0.4022  0.3852
  575MOL0     C75787   3.010   4.856   6.858 -0.1992  0.1321  0.4979
  575MOL0     C75788   3.099   4.972   6.840  0.1936 -0.5232  0.0682
  575MOL0     C75789   3.052   5.093   6.915 -0.0267  0.5835  0.0605
  575MOL0     C75790   2.913   5.142   6.887  0.1768 -0.3541  0.8667
  575MOL0     C75791   2.924   5.208   6.748  0.1023 -0.1887 -0.2579
  575MOL0     O75792   2.816   5.306   6.726 -0.4956 -0.0689 -0.1868
  575MOL0     C75793   2.697   5.249   6.718  0.2079 -1.2900 -0.4079
  575MOL0     C75794   2.603   5.291   6.808  1.1810 -0.1955  0.4550
  575MOL0     C75795   2.482   5.231   6.807  0.5225  0.3939  0.1489
  575MOL0     C75796   2.453   5.130   6.702  0.7291 -0.1854  0.1490
  575MOL0     C75797   2.313   5.085   6.693  0.4705 -0.6013 -0.3787
  575MOL0     O75798   2.221   5.154   6.762  0.1048  0.3813  0.6795
  575MOL0     C75799   2.092   5.111   6.742  0.4903 -0.0478 -0.0490
  575MOL0     C75800   2.006   5.150   6.639  0.3913 -1.2578 -0.1224
  575MOL0     C75801   1.869   5.114   6.631 -0.2490 -0.7605  0.4945
  575MOL0     C75802   1.829   5.022   6.733  0.4049 -0.7531 -0.3372
  575MOL0     O75803   1.696   4.965   6.752  0.0743 -0.7083  0.6408
  575MOL0     C75804   1.588   5.038   6.698 -0.1224  0.1863 -0.1230
  575MOL0     C75805   1.485   5.064   6.812 -0.0445  0.5038 -0.4644
  575MOL0     C75806   1.426   4.941   6.867  0.0782  0.1785 -0.0294
  575MOL0     C75807   1.358   4.851   6.764 -1.2266  0.4905  0.9046
  575MOL0     C75808   1.269   4.748   6.821  0.0678 -0.4851  0.7773
  575MOL0     C75809   1.128   4.803   6.853 -0.7952  0.0779  0.2129
  575MOL0     C75810   1.050   4.689   6.909  0.7647  0.1539  0.5561
  575MOL0     C75811   0.908   4.732   6.949  0.3753 -1.1487 -0.4547
  575MOL0    Cl75812   0.868   4.635   7.094 -0.2990  0.2346  0.4032
  575MOL0     C75813   1.917   4.971   6.828 -0.3910 -0.1008  0.3217
  575MOL0     C75814   2.048   5.022   6.839  0.0601 -0.1189 -0.4549
  575MOL0     O75815   2.289   4.989   6.614 -0.1278  0.1453  0.4786
  575MOL0     C75816   2.553   5.084   6.619  0.5782  0.4102  0.3275
  575MOL0     C75817   2.676   5.158   6.618  0.3326 -0.1967 -0.8457
  575MOL0     N75818   3.001   4.774   6.967 -0.8951 -0.1421  0.3696
  575MOL0     N75819   2.908   4.688   6.941 -0.2354 -0.4700 -0.6860
  575MOL0     C75820   1.812   4.691   7.358 -0.2240  0.0439  0.2188
  575MOL0     C75821   1.682   4.664   7.414  0.5222  0.2627  0.1357
  575MOL0     C75822   1.225   4.559   7.444 -0.8258 -0.1418  0.2207
  575MOL0     C75823   1.094   4.538   7.391 -0.3508 -0.1132 -0.0322
  575MOL0     C75824   0.987   4.491   7.472  0.0797  0.0673  0.0924
  575MOL0     C75825   1.019   4.456   7.606 -0.3519 -0.0808 -0.2728
  575MOL0     O75826   0.929   4.404   7.696  0.6176 -0.6475 -0.2864
  575MOL0     C75827   0.793   4.410   7.662  0.0746 -0.7215 -0.8974
  575MOL0     C75828   0.698   4.411   7.785  0.5416 -0.0863 -0.6549
  575MOL0     C75829   0.550   4.439   7.751 -0.4031  0.7761  0.3259
  575MOL0     C75830   0.464   4.366   7.858  0.4275  0.2124  0.8747
  575MOL0     C75831   0.321   4.409   7.854 -0.4254 -0.5142 -0.7061
  575MOL0     C75832   0.204   4.456   7.866 -0.9051  0.2286 -0.1580
  575MOL0     C75833   1.147   4.494   7.655  0.9259  1.0375 -0.4557
  575MOL0     C75834   1.244   4.543   7.579 -0.2636 -0.1607 -0.4665
  575MOL0     H75835   1.491   4.741   7.142  0.4721 -1.3007 -1.5986
  575MOL0     H75836   1.713   4.750   7.047  0.1272 -0.7004 -0.2045
  575MOL0     H75837   1.893   4.578   7.022 -0.7418 -2.0325  0.1425
  575MOL0     H75838   1.946   4.520   7.187  1.9303  0.6755  1.3335
  575MOL0     H75839   2.087   4.488   6.984 -1.7205 -1.4915  1.5087
  575MOL0     H75840   2.147   4.509   7.148 -2.1640  0.3289  1.4298
  575MOL0     H75841   2.202   4.764   7.069 -0.1270 -0.1204 -0.2729
  575MOL0     H75842   2.112   4.732   6.921  1.0405  2.6869 -0.4212
  575MOL0     H75843   2.386   4.626   7.009 -0.0243 -0.5679 -1.2008
  575MOL0     H75844   2.280   4.539   6.894 -0.9997  0.2646  0.0064
  575MOL0     H75845   2.396   4.834   6.892  2.0790 -0.4283  0.0567
  575MOL0     H75846   2.291   4.766   6.769 -3.7619 -1.0733  3.1431
  575MOL0     H75847   2.492   4.728   6.664  0.4471  0.3767  0.0142
  575MOL0     H75848   2.460   4.582   6.747 -1.3786  0.9127  2.0466
  575MOL0     H75849   2.646   4.807   6.859  2.1387 -0.7303  1.1790
  575MOL0     H75850   2.615   4.643   6.930 -0.6131 -1.2372 -1.1711
  575MOL0     H75851   2.736   4.672   6.655  0.5286 -2.7947 -1.4642
  575MOL0     H75852   2.750   4.534   6.767  0.2096 -0.0717 -0.5320
  575MOL0     H75853   2.916   4.833   6.653 -2.9011 -0.4612  0.6419
  575MOL0     H75854   3.118   4.996   6.734 -1.3460  2.6639  0.3995
  575MOL0     H75855   3.197   4.955   6.887  0.9427  0.0641 -1.2145
  575MOL0     H75856   3.127   5.171   6.928  3.4171 -2.3844 -0.1826
  575MOL0     H75857   3.039   5.056   7.017 -2.4679  1.5507  0.1634
  575MOL0     H75858   2.833   5.067   6.883  2.4604 -3.0191  1.4206
  575MOL0     H75859   2.884   5.217   6.961  1.0186  1.2354 -0.3629
  575MOL0     H75860   2.927   5.138   6.664 -0.4278  2.0040 -2.2129
  575MOL0     H75861   3.013   5.271   6.743  0.5912 -0.8751 -0.3405
  575MOL0     H75862   2.626   5.361   6.887  1.8209  0.9135 -0.6767
  575MOL0     H75863   2.413   5.264   6.883 -2.0051 -0.3600 -1.6681
  575MOL0     H75864   2.055   5.219   6.570 -2.1669  1.3510  0.4904
  575MOL0     H75865   1.819   5.152   6.543  2.5649 -1.2716 -1.4467
  575MOL0     H75866   1.542   4.974   6.622  0.7156  0.1415 -0.6005
  575MOL0     H75867   1.609   5.134   6.650  0.5177  0.0215 -0.1702
  575MOL0     H75868   1.402   5.118   6.765 -0.7120  0.4307  0.6028
  575MOL0     H75869   1.542   5.122   6.885  0.5981 -3.7771  2.7660
  575MOL0     H75870   1.350   4.976   6.938 -1.0671 -0.5777 -0.8512
  575MOL0     H75871   1.504   4.878   6.912 -0.3222 -0.5186 -0.2955
  575MOL0     H75872   1.318   4.910   6.681 -0.0991 -0.3447 -0.2664
  575MOL0     H75873   1.435   4.789   6.717  1.1963  2.0803  2.4923
  575MOL0     H75874   1.321   4.689   6.897 -0.8471 -1.7614  0.4456
  575MOL0     H75875   1.244   4.683   6.737  2.7189  0.4277 -0.8226
  575MOL0     H75876   1.090   4.846   6.760  1.6919  2.7384  0.2853
  575MOL0     H75877   1.121   4.891   6.919  0.3396  0.8830 -0.6973
  575MOL0     H75878   1.047   4.620   6.824 -1.5115 -0.9318  1.4171
  575MOL0     H75879   1.106   4.643   6.990  0.8439 -0.9468 -0.0981
  575MOL0     H75880   0.844   4.729   6.861 -2.8608  0.4372  1.6159
  575MOL0     H75881   0.897   4.833   6.989  0.5151 -0.5559 -1.8867
  575MOL0     H75882   1.902   4.895   6.904  2.3902  1.3503  2.5127
  575MOL0     H75883   2.120   4.984   6.911 -0.9275  0.7425  1.0558
  575MOL0     H75884   2.533   5.004   6.548  1.7303 -0.0469  0.4925
  575MOL0     H75885   2.751   5.125   6.547  1.0695  0.6487 -0.4799
  575MOL0     H75886   1.898   4.662   7.417 -1.5040 -0.6732  1.8057
  575MOL0     H75887   1.686   4.620   7.513 -0.0031 -1.8904 -0.7506
  575MOL0     H75888   1.075   4.554   7.285 -2.8824 -0.4715  0.3164
  575MOL0     H75889   0.890   4.476   7.425 -1.8319  4.2803  2.1272
  575MOL0     H75890   0.775   4.332   7.586  0.3496 -1.6873  0.0076
  575MOL0     H75891   0.775   4.506   7.613  3.5972  0.8766  0.5788
  575MOL0     H75892   0.710   4.315   7.836  0.7974  0.6783  0.8010
  575MOL0     H75893   0.743   4.490   7.846  2.5516  0.0523 -2.2276
  575MOL0     H75894   0.517   4.402   7.653 -0.1810  0.4013  0.3916
  575MOL0     H75895   0.532   4.547   7.754 -0.2811  0.9283 -2.2248
  575MOL0     H75896   0.457   4.260   7.832  1.3908  0.6703 -1.5764
  575MOL0     H75897   0.506   4.378   7.958  2.1872 -2.3736  0.5658
  575MOL0     H75898   0.104   4.495   7.877  0.0105  2.4796  0.7657
  575MOL0     H75899   1.157   4.464   7.759  0.9435 -1.3049 -1.0650
  575MOL0     H75900   1.335   4.570   7.631 -1.1958  0.1698  1.0842
  576MOL0     O75901  10.471   8.299   1.690  0.1151  0.7998  0.5805
  576MOL0     C75902  10.551   8.235   1.617  0.3843  0.3491 -0.6410
  576MOL0     O75903  10.515   8.117   1.550 -0.3830 -0.1897 -0.0238
  576MOL0     C75904  10.382   8.077   1.575  0.3058  0.5003  0.3505
  576MOL0     C75905  10.278   8.124   1.493 -0.7665  0.0584  0.0255
  576MOL0     C75906  10.143   8.093   1.532 -0.8735 -0.2289 -0.2640
  576MOL0     C75907  10.121   8.016   1.649 -0.3675  0.6780  0.7506
  576MOL0     O75908   9.984   7.982   1.677 -0.0781 -0.6802  0.1234
  576MOL0     C75909   9.958   7.942   1.807  1.0258 -0.9895 -1.0113
  576MOL0     C75910   9.820   7.998   1.843 -0.5190  0.0965 -0.2612
  576MOL0     C75911   9.705   7.910   1.799 -0.6053 -0.6940  0.1427
  576MOL0     C75912   9.581   7.969   1.852  0.0914 -0.3537 -0.3120
  576MOL0     C75913   9.459   7.898   1.796 -0.2227  0.7665 -0.0162
  576MOL0     C75914   9.453   7.919   1.651  0.7356 -0.6836  0.6470
  576MOL0     C75915   9.311   7.871   1.624 -0.5541  0.0415 -0.3221
  576MOL0     C75916   9.199   7.975   1.660 -1.0087  0.8187  0.0448
  576MOL0     N75917   9.068   7.902   1.659 -0.1285  0.5426 -0.1375
  576MOL0     C75918   9.000   7.865   1.546  0.6459 -0.1822  0.1664
  576MOL0     C75919   8.889   7.802   1.597 -0.0580 -0.7666  0.4475
  576MOL0     C75920   8.801   7.712   1.508 -0.4747  0.1409  0.3524
  576MOL0     C75921   8.655   7.764   1.519 -0.8728  0.9220 -0.6832
  576MOL0     C75922   8.660   7.914   1.476  0.0240 -0.4598  0.5913
  576MOL0     C75923   8.515   7.952   1.432 -0.4962  0.1199  0.2845
  576MOL0     O75924   8.426   7.934   1.544 -1.0062 -0.0216 -0.3053
  576MOL0     C75925   8.292   7.957   1.525 -0.6831  0.0725  0.6612
  576MOL0     C75926   8.229   8.019   1.413  0.1655  0.4204 -0.1233
  576MOL0     C75927   8.091   8.040   1.421  0.0256 -0.8586 -0.4292
  576MOL0     C75928   8.019   8.008   1.536  0.8755 -0.9297  0.2730
  576MOL0     C75929   7.873   8.024   1.533  0.0370 -0.3741 -0.1038
  576MOL0     O75930   7.803   7.993   1.657 -0.0596 -0.3932  0.0652
  576MOL0     C75931   7.665   8.000   1.662  0.3854  0.4365 -0.1981
  576MOL0     C75932   7.605   7.882   1.713  0.1020  0.0200  0.1553
  576MOL0     C75933   7.472   7.857   1.712  0.2659  0.7136 -0.1873
  576MOL0     C75934   7.387   7.947   1.652 -0.5399  0.4971  0.8426
  576MOL0     O75935   7.252   7.933   1.645 -0.4214  0.5581 -0.2060
  576MOL0     C75936   7.193   7.850   1.748 -0.6350 -0.5641 -0.0499
  576MOL0     C75937   7.052   7.912   1.774 -0.6456  0.3540  0.5926
  576MOL0     C75938   6.943   7.848   1.679 -1.0325 -0.0275 -0.1368
  576MOL0     C75939   6.817   7.933   1.690 -0.0952  0.2784  0.3994
  576MOL0     C75940   6.705   7.866   1.603  0.0246 -1.0235 -0.4457
  576MOL0     C75941   6.565   7.896   1.659 -0.8347 -0.2086  0.0832
  576MOL0     C75942   6.456   7.835   1.564 -0.2817  0.3510  0.0697
  576MOL0     C75943   6.442   7.913   1.435 -0.5891 -0.3025 -0.1081
  576MOL0    Cl75944   6.331   7.836   1.319 -0.2598  0.0141  0.4830
  576MOL0     C75945   7.440   8.059   1.584  0.8327 -0.7530  0.3405
  576MOL0     C75946   7.578   8.086   1.595  0.4628 -0.2277  0.1198
  576MOL0     O75947   7.820   8.047   1.423 -0.3121 -0.7551  0.4112
  576MOL0     C75948   8.084   7.957   1.651 -0.0725 -0.5021  0.1122
  576MOL0     C75949   8.223   7.933   1.644 -0.2876 -0.4100 -0.4847
  576MOL0     N75950   8.890   7.811   1.737  0.1187  0.7726 -0.4176
  576MOL0     N75951   9.002   7.861   1.773  0.7955 -0.0247  0.5587
  576MOL0     C75952  10.226   7.958   1.721  0.3563  0.7709  0.6080
  576MOL0     C75953  10.360   7.999   1.685 -0.1498  1.1517 -0.3087
  576MOL0     C75954  10.693   8.268   1.615 -0.0779  0.7898  0.2802
  576MOL0     C75955  10.743   8.383   1.676 -0.0568 -0.2850  0.3834
  576MOL0     C75956  10.879   8.420   1.678  0.2518  0.0974 -0.0260
  576MOL0     C75957  10.973   8.338   1.617 -0.8889  0.2558  0.3107
  576MOL0     O75958  11.113   8.348   1.617 -0.2672 -0.1032  0.6362
  576MOL0     C75959  11.185   8.428   1.709 -0.4507  0.3022  0.2861
  576MOL0     C75960  11.313   8.367   1.722  0.1477  0.7634 -0.1330
  576MOL0     C75961  11.310   8.219   1.758  0.6650 -0.2933 -0.4944
  576MOL0     C75962  11.306   8.115   1.643 -1.5405  0.1839  0.2211
  576MOL0     C75963  11.420   8.144   1.559  0.1346 -0.4472  0.5274
  576MOL0     C75964  11.505   8.174   1.478 -0.3769  0.2125 -0.0051
  576MOL0     C75965  10.923   8.216   1.556 -0.5303  0.1294 -0.4549
  576MOL0     C75966  10.790   8.185   1.559  0.1956  0.1665  0.5440
  576MOL0     H75967  10.302   8.193   1.413 -2.4009 -1.4880 -1.8954
  576MOL0     H75968  10.060   8.142   1.484 -0.4178 -1.9198 -3.0100
  576MOL0     H75969  10.030   7.985   1.877  0.1577 -2.8535  1.1520
  576MOL0     H75970   9.943   7.834   1.819 -4.1422 -0.4725 -0.6186
  576MOL0     H75971   9.811   8.088   1.780  0.0610 -1.2963 -2.4487
  576MOL0     H75972   9.810   8.030   1.947  0.5236  1.6547 -0.6019
  576MOL0     H75973   9.716   7.810   1.843 -1.8754 -0.9886 -0.1702
  576MOL0     H75974   9.715   7.912   1.690  1.2231  1.0725  0.2946
  576MOL0     H75975   9.580   7.969   1.961  1.6262  3.4537 -0.1477
  576MOL0     H75976   9.580   8.076   1.828  1.7491 -0.5051 -1.2051
  576MOL0     H75977   9.369   7.934   1.849 -0.0052 -0.1229  0.9911
  576MOL0     H75978   9.472   7.792   1.817  0.7060  0.8979  0.1169
  576MOL0     H75979   9.529   7.869   1.590 -1.0065 -1.8328 -0.6757
  576MOL0     H75980   9.447   8.025   1.627 -3.7251 -1.0943 -0.8957
  576MOL0     H75981   9.308   7.854   1.515 -0.0527  1.1166 -0.5128
  576MOL0     H75982   9.294   7.771   1.664  0.4669  0.0832  0.2396
  576MOL0     H75983   9.194   8.065   1.598 -0.4434  0.3639 -0.6827
  576MOL0     H75984   9.220   8.006   1.763  3.2569  2.0361 -0.9967
  576MOL0     H75985   9.033   7.872   1.443  1.3350  0.1627  0.4060
  576MOL0     H75986   8.802   7.606   1.538  0.8040  0.6310  2.2549
  576MOL0     H75987   8.832   7.722   1.404  0.0974  3.6552  0.7480
  576MOL0     H75988   8.632   7.763   1.626  0.7597  3.6725 -0.2183
  576MOL0     H75989   8.579   7.708   1.465 -0.3888 -0.3380 -0.1063
  576MOL0     H75990   8.691   7.979   1.558 -0.1774  0.2032  0.1502
  576MOL0     H75991   8.718   7.932   1.385  0.8104 -1.0532  0.9649
  576MOL0     H75992   8.476   7.879   1.360 -2.4108  1.9068 -0.6100
  576MOL0     H75993   8.519   8.052   1.389  1.6159 -0.2581 -0.5034
  576MOL0     H75994   8.291   8.043   1.327  0.7157  1.2755  0.4934
  576MOL0     H75995   8.033   8.081   1.339  2.7132  3.3173 -0.5768
  576MOL0     H75996   7.671   7.810   1.761  1.0922  1.6834  1.4368
  576MOL0     H75997   7.443   7.773   1.774  0.2496  1.5307  0.9616
  576MOL0     H75998   7.253   7.846   1.840  0.5436 -0.2004 -0.7832
  576MOL0     H75999   7.176   7.750   1.707  0.0488  0.1361 -2.1561
  576MOL0     H76000   7.057   8.016   1.743  1.1105  0.3888  0.8862
  576MOL0     H76001   7.033   7.907   1.882 -0.7046 -2.5966  0.5405
  576MOL0     H76002   6.934   7.740   1.689  3.5822 -0.5178  0.8591
  576MOL0     H76003   6.986   7.852   1.578 -1.2302 -1.9360 -0.3238
  576MOL0     H76004   6.782   7.929   1.794 -1.2995 -0.6018 -0.0167
  576MOL0     H76005   6.831   8.029   1.640  0.9638 -1.3806 -2.7572
  576MOL0     H76006   6.709   7.757   1.608  0.0661 -0.9590  2.1611
  576MOL0     H76007   6.715   7.890   1.496  2.3810 -4.2354 -1.1104
  576MOL0     H76008   6.552   8.004   1.669 -1.2899 -0.4216  2.3643
  576MOL0     H76009   6.555   7.842   1.753 -1.6825 -0.0953  0.0670
  576MOL0     H76010   6.477   7.733   1.531 -0.6722  0.4985 -0.6831
  576MOL0     H76011   6.360   7.844   1.615 -0.1938  0.1295  0.2746
  576MOL0     H76012   6.537   7.906   1.381 -0.3260 -3.4424  0.6112
  576MOL0     H76013   6.419   8.018   1.458  0.5649  0.3587 -1.7401
  576MOL0     H76014   7.377   8.120   1.521  1.0478 -1.8879 -1.0283
  576MOL0     H76015   7.612   8.172   1.537 -1.0399 -0.5980 -1.3930
  576MOL0     H76016   8.026   7.940   1.741 -0.1465  0.2806  0.2194
  576MOL0     H76017   8.276   7.894   1.731 -0.4085 -1.0837 -0.7031
  576MOL0     H76018  10.209   7.901   1.811  1.2198  1.6491  1.3468
  576MOL0     H76019  10.448   7.977   1.745  1.0317  1.3198 -1.8963
  576MOL0     H76020  10.673   8.442   1.734 -0.8401 -1.2735  0.4644
  576MOL0     H76021  10.914   8.511   1.725  1.2361  0.2890 -1.0806
  576MOL0     H76022  11.137   8.428   1.807  0.5138 -1.4997  0.7850
  576MOL0     H76023  11.190   8.530   1.669 -1.9794 -0.2445 -1.4954
  576MOL0     H76024  11.362   8.385   1.626  1.3753  0.4746  0.4118
  576MOL0     H76025  11.366   8.424   1.800  1.5884 -2.1889  1.2240
  576MOL0     H76026  11.228   8.193   1.826 -0.7669  0.4067 -1.8983
  576MOL0     H76027  11.406   8.197   1.807  1.2082  3.1069  0.2074
  576MOL0     H76028  11.335   8.020   1.688  1.1816  1.7388  2.0559
  576MOL0     H76029  11.211   8.110   1.589 -1.7238  0.8419  0.4644
  576MOL0     H76030  11.582   8.189   1.405 -0.9073  2.1498 -0.2028
  576MOL0     H76031  10.989   8.139   1.518  0.6832  0.9029  0.0230
  576MOL0     H76032  10.761   8.100   1.498 -0.2708  1.6356 -1.4193
  577MOL0     O76033   5.872   1.965   6.125  0.3524  0.1321  0.3152
  577MOL0     C76034   5.820   1.858   6.156  0.2922 -0.0458  0.6931
  577MOL0     O76035   5.690   1.825   6.123  0.3638 -0.7494 -0.2436
  577MOL0     C76036   5.606   1.925   6.065 -0.6985 -0.4158  0.5824
  577MOL0     C76037   5.483   1.947   6.127 -0.8105  0.0812 -0.2634
  577MOL0     C76038   5.389   2.036   6.078  1.2633  0.7726  0.5450
  577MOL0     C76039   5.431   2.119   5.971  0.4990  0.0158 -0.3729
  577MOL0     O76040   5.340   2.206   5.918  0.0964  0.7332 -0.1583
  577MOL0     C76041   5.376   2.337   5.890 -0.3569  0.2857 -0.5031
  577MOL0     C76042   5.291   2.442   5.958  0.0107  0.0354 -0.0553
  577MOL0     C76043   5.140   2.431   5.943  0.4381 -0.3051 -0.1911
  577MOL0     C76044   5.110   2.425   5.796  1.0042  0.3942 -0.2849
  577MOL0     C76045   4.954   2.426   5.778  0.2331 -0.3513  0.6149
  577MOL0     C76046   4.877   2.544   5.840 -0.4593  0.0050  0.5957
  577MOL0     C76047   4.724   2.536   5.800 -0.5244 -0.7834  0.1768
  577MOL0     C76048   4.664   2.425   5.874 -0.6359  0.1781  0.3531
  577MOL0     N76049   4.519   2.429   5.879 -1.1953 -0.3721 -0.6708
  577MOL0     C76050   4.438   2.329   5.838 -0.2592  0.7110  0.1732
  577MOL0     C76051   4.312   2.365   5.888  0.1626  0.6553 -0.0500
  577MOL0     C76052   4.181   2.293   5.865 -0.7735 -0.0534 -0.2141
  577MOL0     C76053   4.062   2.389   5.890  0.6228 -0.2436 -0.1727
  577MOL0     C76054   3.925   2.314   5.860 -0.8209 -0.5904 -0.1635
  577MOL0     C76055   3.815   2.394   5.925  0.0527  0.1551 -0.8348
  577MOL0     O76056   3.697   2.310   5.925  0.0334 -0.0682  0.0478
  577MOL0     C76057   3.580   2.360   5.988 -0.9541 -0.3511  0.2887
  577MOL0     C76058   3.493   2.260   6.031  0.8887 -0.3226  0.1752
  577MOL0     C76059   3.380   2.299   6.109 -0.0271  0.2691  0.2957
  577MOL0     C76060   3.348   2.428   6.132  0.6943 -0.3700  0.3323
  577MOL0     C76061   3.229   2.464   6.206  0.6343 -0.4780 -0.2572
  577MOL0     O76062   3.128   2.367   6.222 -0.3559  0.8146  0.3374
  577MOL0     C76063   3.002   2.403   6.264 -0.5353 -0.1555  0.7516
  577MOL0     C76064   2.912   2.469   6.185 -0.4197  0.4250  0.2216
  577MOL0     C76065   2.788   2.512   6.232  0.6478  0.6197 -1.1573
  577MOL0     C76066   2.756   2.489   6.369 -0.6592 -0.0849 -0.4062
  577MOL0     O76067   2.647   2.540   6.441  0.0781 -0.7035 -0.4435
  577MOL0     C76068   2.562   2.624   6.366  0.7171 -0.8449  0.1539
  577MOL0     C76069   2.440   2.677   6.442 -0.1311  0.4254  0.0207
  577MOL0     C76070   2.358   2.772   6.355  0.1083 -0.0917  0.2559
  577MOL0     C76071   2.241   2.830   6.433 -0.0386  0.5430  0.3900
  577MOL0     C76072   2.208   2.973   6.375 -0.5809  0.9551  0.9121
  577MOL0     C76073   2.093   3.055   6.433  1.0574  0.4016 -1.0796
  577MOL0     C76074   2.072   3.175   6.344  0.7237 -0.2602 -0.8340
  577MOL0     C76075   1.936   3.235   6.381  0.0992  0.2699  0.7415
  577MOL0    Cl76076   1.945   3.333   6.531  0.4622 -0.1904  0.1015
  577MOL0     C76077   2.861   2.416   6.444 -0.2253 -0.5083 -0.9271
  577MOL0     C76078   2.980   2.372   6.390 -0.1727  0.6498  0.8016
  577MOL0     O76079   3.224   2.580   6.252 -0.3315 -0.5916 -0.0009
  577MOL0     C76080   3.433   2.519   6.083 -0.6055 -0.4202 -0.4455
  577MOL0     C76081   3.557   2.490   6.023 -0.9418  0.0154 -0.9756
  577MOL0     N76082   4.327   2.492   5.949  0.5084 -0.1333 -0.4920
  577MOL0     N76083   4.450   2.529   5.939 -0.1281  0.2434  0.0830
  577MOL0     C76084   5.553   2.099   5.906 -0.5905 -0.1476 -0.1383
  577MOL0     C76085   5.639   1.995   5.949 -0.0954  0.1123  0.2781
  577MOL0     C76086   5.911   1.767   6.224 -0.3391 -0.4102 -0.5921
  577MOL0     C76087   5.857   1.667   6.299  0.2146  0.1630 -0.1488
  577MOL0     C76088   5.939   1.579   6.375 -0.1967  0.0463 -0.2337
  577MOL0     C76089   6.083   1.594   6.378 -0.1076  0.2070 -0.0741
  577MOL0     O76090   6.170   1.497   6.439 -0.3156  0.5585 -0.2154
  577MOL0     C76091   6.142   1.374   6.513  0.7991  0.5784 -0.8541
  577MOL0     C76092   6.242   1.372   6.626 -0.3035 -0.4187  1.2935
  577MOL0     C76093   6.275   1.226   6.662 -1.0214 -0.2503 -0.2987
  577MOL0     C76094   6.375   1.210   6.778 -0.9269 -0.6034  0.3076
  577MOL0     C76095   6.332   1.275   6.900 -0.0904  0.0680  0.4166
  577MOL0     C76096   6.289   1.334   6.996  0.2998  0.1198 -0.6102
  577MOL0     C76097   6.127   1.691   6.295 -0.7079 -0.8795 -0.4360
  577MOL0     C76098   6.044   1.775   6.227 -0.8179  0.2145  0.4812
  577MOL0     H76099   5.483   1.899   6.224 -1.4998  1.5557  0.4840
  577MOL0     H76100   5.292   2.063   6.118  1.6703  1.7140  0.9370
  577MOL0     H76101   5.370   2.349   5.781 -2.3734 -2.6742 -0.8490
  577MOL0     H76102   5.483   2.347   5.913 -0.4129 -0.4003  0.1051
  577MOL0     H76103   5.335   2.539   5.931 -0.6771  0.5113  0.4917
  577MOL0     H76104   5.312   2.442   6.066 -3.2673  0.3308  0.6819
  577MOL0     H76105   5.101   2.521   5.992  0.4832 -0.2343 -0.2848
  577MOL0     H76106   5.097   2.343   5.990 -2.1690 -0.0758 -1.8993
  577MOL0     H76107   5.154   2.507   5.737 -0.5508  0.9013 -0.7901
  577MOL0     H76108   5.141   2.336   5.740 -1.1659  0.9792 -2.6317
  577MOL0     H76109   4.916   2.337   5.829  1.4863 -1.5271 -0.4166
  577MOL0     H76110   4.927   2.427   5.672  2.8056  0.8003 -0.0977
  577MOL0     H76111   4.927   2.634   5.801  1.5221 -0.1723  2.5653
  577MOL0     H76112   4.888   2.551   5.948  1.0885 -0.0020  0.4661
  577MOL0     H76113   4.668   2.627   5.826 -0.6602 -0.7587 -0.1920
  577MOL0     H76114   4.705   2.530   5.692 -1.3184  0.3807  0.2241
  577MOL0     H76115   4.698   2.421   5.978 -1.0181  2.3750  0.6228
  577MOL0     H76116   4.698   2.330   5.833  0.5989  1.4560 -1.7922
  577MOL0     H76117   4.457   2.237   5.784  2.1291  1.0742  0.2879
  577MOL0     H76118   4.186   2.207   5.933  0.6196  0.0527 -0.1672
  577MOL0     H76119   4.177   2.259   5.761  1.4960  1.5445 -0.8991
  577MOL0     H76120   4.082   2.473   5.823  3.9616 -1.0593 -0.3321
  577MOL0     H76121   4.068   2.425   5.993  4.3279 -1.2207  0.0877
  577MOL0     H76122   3.912   2.301   5.752  3.1383  1.5508 -1.0855
  577MOL0     H76123   3.934   2.213   5.900 -3.6944 -2.4314 -3.5510
  577MOL0     H76124   3.809   2.486   5.866 -0.5404 -0.3112 -1.5160
  577MOL0     H76125   3.832   2.422   6.029 -0.6169  0.1462 -0.7138
  577MOL0     H76126   3.535   2.162   6.012  2.1309  0.5431 -2.0290
  577MOL0     H76127   3.317   2.218   6.145  3.2533 -3.4928 -1.6306
  577MOL0     H76128   2.951   2.501   6.089 -1.0718 -0.3201 -0.2984
  577MOL0     H76129   2.733   2.575   6.163  1.0390  2.6484  0.3135
  577MOL0     H76130   2.517   2.572   6.281  2.9617 -0.8586 -1.1161
  577MOL0     H76131   2.609   2.718   6.333 -1.5463  0.8913  1.5468
  577MOL0     H76132   2.475   2.734   6.528 -0.5426  0.3908  0.2097
  577MOL0     H76133   2.371   2.599   6.474 -1.4360  0.1529 -3.1024
  577MOL0     H76134   2.320   2.724   6.264 -0.9775  3.3825 -1.2913
  577MOL0     H76135   2.423   2.856   6.328 -1.1937  0.9671  0.3478
  577MOL0     H76136   2.156   2.762   6.443 -1.7508  2.8802  3.8041
  577MOL0     H76137   2.270   2.846   6.537 -1.4020  0.1872  0.8413
  577MOL0     H76138   2.196   2.966   6.267  0.5870  0.3418  0.8074
  577MOL0     H76139   2.297   3.035   6.384  0.3135  0.1198 -1.4673
  577MOL0     H76140   2.111   3.087   6.536 -2.2168  0.7652 -0.5016
  577MOL0     H76141   2.005   2.990   6.434  1.1003  0.2728 -2.5261
  577MOL0     H76142   2.155   3.245   6.356  0.0912  0.6569 -1.6493
  577MOL0     H76143   2.055   3.147   6.240 -0.8294  1.3541 -1.0604
  577MOL0     H76144   1.863   3.155   6.391  1.9202 -1.3193  1.9498
  577MOL0     H76145   1.912   3.307   6.302  1.5240  0.3362  0.3363
  577MOL0     H76146   2.843   2.399   6.550 -0.6737 -0.4085 -0.9847
  577MOL0     H76147   3.059   2.331   6.451 -1.8909  0.5936  3.1485
  577MOL0     H76148   3.426   2.626   6.097  5.2731  0.1838  0.1531
  577MOL0     H76149   3.627   2.569   5.998 -1.7321  0.9417 -0.3304
  577MOL0     H76150   5.577   2.156   5.816  3.4441 -0.2343  0.6839
  577MOL0     H76151   5.733   1.976   5.899  1.0892  2.6160  1.3631
  577MOL0     H76152   5.749   1.654   6.306  0.3660 -0.4908  1.6202
  577MOL0     H76153   5.888   1.502   6.432 -2.4231  1.3046 -0.4319
  577MOL0     H76154   6.145   1.287   6.447 -1.4354  1.1901 -1.8736
  577MOL0     H76155   6.037   1.369   6.544  1.1635 -2.0438  0.1866
  577MOL0     H76156   6.326   1.436   6.599  0.0788 -1.9734 -1.5880
  577MOL0     H76157   6.196   1.424   6.711 -0.7406 -0.2589  0.9640
  577MOL0     H76158   6.316   1.165   6.581  1.5236 -2.0345  2.1495
  577MOL0     H76159   6.181   1.183   6.699 -1.6470  1.9437  0.7953
  577MOL0     H76160   6.397   1.105   6.803  1.3765  0.3517  2.7796
  577MOL0     H76161   6.473   1.246   6.747 -0.6115 -0.0490  1.8839
  577MOL0     H76162   6.258   1.362   7.095  2.7055 -0.7660  0.4574
  577MOL0     H76163   6.233   1.714   6.298 -0.8588 -0.1657 -0.3822
  577MOL0     H76164   6.095   1.851   6.168 -2.1258 -0.6380 -1.8595
  578MOL0     O76165  10.153   9.085   0.815 -0.0307 -0.5267  0.4318
  578MOL0     C76166  10.226   9.167   0.873 -0.0389 -0.3575 -0.2856
  578MOL0     O76167  10.181   9.280   0.943  0.0982  0.0772  0.2209
  578MOL0     C76168  10.043   9.301   0.940 -0.2293  0.5105 -0.5123
  578MOL0     C76169   9.975   9.376   0.846  0.9277  0.5519  0.3696
  578MOL0     C76170   9.834   9.385   0.847  0.5391  0.5568 -1.0836
  578MOL0     C76171   9.753   9.319   0.948 -0.6386 -0.3980 -0.6983
  578MOL0     O76172   9.608   9.332   0.949 -0.1028  0.3284  0.8863
  578MOL0     C76173   9.542   9.218   0.998  0.0287 -0.6454 -0.1005
  578MOL0     C76174   9.478   9.249   1.144 -0.5545 -0.2656  0.2386
  578MOL0     C76175   9.372   9.143   1.183  0.1470  0.4318  0.1014
  578MOL0     C76176   9.240   9.183   1.121  0.6096  0.2092 -0.4088
  578MOL0     C76177   9.139   9.086   1.167 -0.0932  0.4011  1.0709
  578MOL0     C76178   8.998   9.122   1.135 -0.1232  0.7744 -0.2772
  578MOL0     C76179   8.903   9.001   1.116 -0.7041 -0.2568  0.5080
  578MOL0     C76180   8.860   8.916   1.224  0.4237 -0.3074 -0.2312
  578MOL0     N76181   8.791   8.797   1.170 -0.6491 -0.5985  0.6158
  578MOL0     C76182   8.678   8.796   1.092 -0.2501  0.0890 -0.5353
  578MOL0     C76183   8.663   8.661   1.059  0.3088 -1.1496 -0.2076
  578MOL0     C76184   8.571   8.606   0.954 -0.1895 -0.5389  0.5143
  578MOL0     C76185   8.425   8.587   1.010 -0.6371 -0.3201  0.2292
  578MOL0     C76186   8.342   8.524   0.897  1.2705 -0.6401 -0.8871
  578MOL0     C76187   8.190   8.506   0.942  0.1211 -0.3954  0.2120
  578MOL0     O76188   8.118   8.421   0.852  0.0598  0.3972 -0.0622
  578MOL0     C76189   8.052   8.464   0.744  0.2210 -0.2415 -0.3019
  578MOL0     C76190   7.959   8.387   0.678 -0.5422 -0.1641  0.5666
  578MOL0     C76191   7.872   8.436   0.580 -1.2593  0.3519  0.2193
  578MOL0     C76192   7.886   8.562   0.539  0.9376 -0.5573  0.6633
  578MOL0     C76193   7.794   8.624   0.444  0.8234 -0.4528 -0.5327
  578MOL0     O76194   7.688   8.546   0.412 -0.5012 -0.2391 -1.2306
  578MOL0     C76195   7.593   8.610   0.344 -0.0250 -0.3143  0.2541
  578MOL0     C76196   7.564   8.586   0.211  0.6116 -0.1797  0.7864
  578MOL0     C76197   7.440   8.653   0.161 -0.6347 -0.0713 -0.5080
  578MOL0     C76198   7.365   8.741   0.245  0.4562 -0.8927  0.1665
  578MOL0     O76199   7.256   8.806   0.196  0.8855  0.6517 -0.7290
  578MOL0     C76200   7.241   8.832   0.053  0.4167  0.3743  0.2350
  578MOL0     C76201   7.144   8.949   0.041 -0.4836 -0.7786 -1.1311
  578MOL0     C76202   7.112   8.989  -0.106  0.1578 -0.3759  0.3619
  578MOL0     C76203   7.237   9.040  -0.182  0.1725 -0.6531 -0.7788
  578MOL0     C76204   7.199   9.147  -0.290  0.5048 -0.4310 -0.0173
  578MOL0     C76205   7.111   9.088  -0.406 -0.7628  0.3147  1.1196
  578MOL0     C76206   7.070   9.179  -0.521 -0.9703 -0.0109  0.3570
  578MOL0     C76207   6.964   9.281  -0.484 -0.3662  1.0330 -0.0934
  578MOL0    Cl76208   6.807   9.200  -0.435 -0.1306 -0.3141 -0.1676
  578MOL0     C76209   7.397   8.756   0.381 -0.3920  0.0311 -0.5693
  578MOL0     C76210   7.506   8.688   0.433  0.4017 -0.1624  0.5976
  578MOL0     O76211   7.809   8.746   0.414  0.0708  0.3354 -0.6350
  578MOL0     C76212   7.988   8.643   0.582 -0.4100 -0.1755  0.1343
  578MOL0     C76213   8.070   8.594   0.689  0.2250  0.1975 -0.4431
  578MOL0     N76214   8.767   8.590   1.106 -0.0442 -0.7445 -0.4092
  578MOL0     N76215   8.844   8.668   1.178  0.4833 -0.9251  0.5377
  578MOL0     C76216   9.827   9.255   1.043 -0.1890 -0.7587 -0.7888
  578MOL0     C76217   9.966   9.253   1.044  0.0090 -0.3035 -1.0723
  578MOL0     C76218  10.375   9.150   0.877 -0.2216 -0.1164 -0.2992
  578MOL0     C76219  10.441   9.045   0.804 -0.6144 -0.4276 -0.8595
  578MOL0     C76220  10.581   9.038   0.811 -0.9733 -1.1654 -0.8696
  578MOL0     C76221  10.648   9.124   0.894 -0.4851  0.8856  0.5933
  578MOL0     O76222  10.786   9.093   0.902  0.4019  0.4784 -0.2990
  578MOL0     C76223  10.871   9.197   0.955 -0.2994  0.7204 -0.3086
  578MOL0     C76224  11.010   9.150   0.955 -0.4067 -0.2049 -0.6406
  578MOL0     C76225  11.058   9.124   0.806 -0.5627  0.8850 -0.7228
  578MOL0     C76226  11.205   9.142   0.793  0.3065 -0.4953 -0.4962
  578MOL0     C76227  11.243   9.088   0.670 -0.2531  0.3661  0.1936
  578MOL0     C76228  11.270   9.031   0.566  0.4485  0.1375 -0.1839
  578MOL0     C76229  10.585   9.217   0.972  0.0540 -0.1834 -0.2764
  578MOL0     C76230  10.443   9.224   0.968  0.1475 -0.5398  0.3603
  578MOL0     H76231  10.031   9.418   0.763  0.0138  0.1892 -0.4447
  578MOL0     H76232   9.796   9.444   0.765 -0.7543 -0.0491 -0.9460
  578MOL0     H76233   9.607   9.130   0.999  0.2310 -0.4970  1.1893
  578MOL0     H76234   9.466   9.194   0.923 -0.2833  2.1523 -0.8241
  578MOL0     H76235   9.432   9.348   1.150  1.2271  0.8228 -2.2437
  578MOL0     H76236   9.565   9.254   1.210  0.4079  1.5005 -1.0727
  578MOL0     H76237   9.355   9.134   1.291 -1.1723 -1.1020 -0.1980
  578MOL0     H76238   9.406   9.045   1.148  0.5443 -0.1232  1.9176
  578MOL0     H76239   9.202   9.280   1.156 -0.4653 -0.8904  1.7072
  578MOL0     H76240   9.238   9.191   1.012 -0.0080 -0.2895 -0.4432
  578MOL0     H76241   9.151   9.070   1.274 -1.7766  1.9935  1.5628
  578MOL0     H76242   9.159   8.999   1.104 -1.1762  1.0542 -0.2431
  578MOL0     H76243   9.006   9.172   1.038  3.8400  0.5114 -0.2456
  578MOL0     H76244   8.956   9.185   1.214  0.0927 -0.6309  1.0161
  578MOL0     H76245   8.819   9.054   1.071  0.4661  0.6475 -0.7043
  578MOL0     H76246   8.948   8.938   1.038 -3.1180 -1.4761  0.0078
  578MOL0     H76247   8.785   8.970   1.283 -1.6090 -3.2881  0.1107
  578MOL0     H76248   8.946   8.891   1.288 -0.6442 -1.4735  0.8062
  578MOL0     H76249   8.615   8.880   1.066 -1.3289 -0.5624 -0.1062
  578MOL0     H76250   8.621   8.511   0.936  2.6441  0.7660  0.9447
  578MOL0     H76251   8.567   8.674   0.869 -0.8282  1.9708  2.4305
  578MOL0     H76252   8.393   8.688   1.037  2.5527  0.4741  1.4857
  578MOL0     H76253   8.430   8.530   1.103  0.0327 -0.8891 -0.1532
  578MOL0     H76254   8.350   8.574   0.800  1.6416 -4.0035 -2.7537
  578MOL0     H76255   8.377   8.421   0.881  1.3818 -0.9409  1.0421
  578MOL0     H76256   8.129   8.595   0.963 -0.3579 -0.8561  0.7995
  578MOL0     H76257   8.187   8.460   1.041 -0.3783 -0.2162  0.2841
  578MOL0     H76258   7.957   8.288   0.724  2.6618 -0.8254 -0.4170
  578MOL0     H76259   7.796   8.369   0.542  0.1765 -1.4095  0.3242
  578MOL0     H76260   7.622   8.524   0.143 -0.1206  0.5636 -0.5656
  578MOL0     H76261   7.413   8.630   0.058  0.9173 -1.0898 -0.7237
  578MOL0     H76262   7.189   8.753  -0.001  1.9067 -1.8835  1.9047
  578MOL0     H76263   7.338   8.863   0.011 -0.7345  0.9472 -2.1919
  578MOL0     H76264   7.178   9.033   0.102  1.4155 -1.5064 -1.1259
  578MOL0     H76265   7.048   8.924   0.088  0.6109 -1.5434  0.8595
  578MOL0     H76266   7.036   9.068  -0.100 -1.2297 -1.6807  0.3472
  578MOL0     H76267   7.067   8.902  -0.155 -1.0335  0.5026 -0.1741
  578MOL0     H76268   7.296   9.088  -0.104 -0.7126 -1.6514  0.5493
  578MOL0     H76269   7.291   8.954  -0.223 -0.5178 -1.1812 -0.6005
  578MOL0     H76270   7.291   9.189  -0.331  1.0510  1.5049  2.8500
  578MOL0     H76271   7.154   9.232  -0.237 -0.6009  0.0898 -1.7087
  578MOL0     H76272   7.029   9.031  -0.361  0.1608 -1.0774  1.0832
  578MOL0     H76273   7.165   9.004  -0.451 -1.2605  1.0328 -0.9408
  578MOL0     H76274   7.158   9.240  -0.543 -1.0087 -0.1229 -0.1288
  578MOL0     H76275   7.037   9.129  -0.612 -3.1758 -0.8459  1.5458
  578MOL0     H76276   6.950   9.350  -0.568  1.4086 -2.5864 -3.7195
  578MOL0     H76277   6.981   9.341  -0.394  1.4102  1.0549 -0.4075
  578MOL0     H76278   7.338   8.810   0.455  0.3647 -1.4909  1.2049
  578MOL0     H76279   7.509   8.698   0.541 -0.1310 -2.4557  0.8752
  578MOL0     H76280   8.002   8.745   0.546 -0.4173 -0.6810 -1.3707
  578MOL0     H76281   8.141   8.663   0.733  0.6461 -1.5774  1.9216
  578MOL0     H76282   9.779   9.209   1.129  1.6652 -0.0827  0.6562
  578MOL0     H76283  10.009   9.201   1.129  0.0553 -2.1582 -2.1842
  578MOL0     H76284  10.387   8.978   0.738  1.1715 -1.8369 -0.9766
  578MOL0     H76285  10.651   8.974   0.758  1.0465  0.0638  0.1988
  578MOL0     H76286  10.834   9.214   1.057 -3.3241  1.1860 -1.3728
  578MOL0     H76287  10.877   9.292   0.901 -0.7628  0.2035 -1.2912
  578MOL0     H76288  11.081   9.227   0.986 -1.6543  1.0438 -0.8002
  578MOL0     H76289  11.025   9.053   1.004  1.7591 -0.1324 -1.0742
  578MOL0     H76290  11.005   9.194   0.740 -1.6381  1.0726  0.3043
  578MOL0     H76291  11.028   9.024   0.773 -0.5491  1.4934 -2.7225
  578MOL0     H76292  11.233   9.248   0.790  1.7976 -0.8674 -0.4515
  578MOL0     H76293  11.261   9.094   0.874 -2.1624  0.6564  2.0591
  578MOL0     H76294  11.289   8.978   0.476  1.0890 -0.6572  0.4044
  578MOL0     H76295  10.635   9.285   1.040 -2.0649 -1.6385  3.0349
  578MOL0     H76296  10.388   9.292   1.033 -3.2999 -1.0393 -1.7500
  579MOL0     O76297   2.446   6.807   1.160 -0.3627 -0.6070  0.3174
  579MOL0     C76298   2.388   6.860   1.252 -0.3863  0.0629  0.3965
  579MOL0     O76299   2.259   6.831   1.301 -0.8019  0.2446 -0.4287
  579MOL0     C76300   2.192   6.727   1.245 -0.4913  0.0706  0.2490
  579MOL0     C76301   2.059   6.750   1.203 -0.7300  0.0243 -0.2051
  579MOL0     C76302   1.990   6.647   1.140  0.7529 -0.4055  0.2485
  579MOL0     C76303   2.045   6.519   1.137 -0.0503 -0.2357  0.2124
  579MOL0     O76304   1.975   6.413   1.089 -0.0277  0.2232  0.7298
  579MOL0     C76305   1.825   6.397   1.112 -0.6325 -0.3869  0.3497
  579MOL0     C76306   1.763   6.437   0.978 -0.0383  0.5127 -0.3021
  579MOL0     C76307   1.617   6.406   0.984 -0.1645 -0.6556 -0.9951
  579MOL0     C76308   1.545   6.441   0.862  0.0942  0.7302 -0.0197
  579MOL0     C76309   1.391   6.443   0.871 -0.8434 -0.3250  0.2923
  579MOL0     C76310   1.335   6.306   0.919  0.2579 -0.7682  0.1391
  579MOL0     C76311   1.184   6.301   0.926  1.0824 -0.2282 -0.0243
  579MOL0     C76312   1.135   6.164   0.975  0.3763 -0.4369  0.5103
  579MOL0     N76313   0.993   6.148   1.005 -0.1750 -0.5591 -0.3248
  579MOL0     C76314   0.925   6.023   0.993 -0.2320  0.5769  0.3635
  579MOL0     C76315   0.810   6.041   1.060 -0.3706 -0.5884 -0.1367
  579MOL0     C76316   0.707   5.935   1.070  0.3489 -0.9336  1.0824
  579MOL0     C76317   0.627   5.941   0.938  0.5992  0.4895 -0.2706
  579MOL0     C76318   0.539   6.069   0.933 -0.2914  0.3366  0.9354
  579MOL0     C76319   0.482   6.090   0.799 -0.0061 -0.1787 -0.5198
  579MOL0     O76320   0.397   5.976   0.761 -0.8833 -0.0652 -0.1520
  579MOL0     C76321   0.291   5.933   0.839 -0.3841 -0.1529 -0.5098
  579MOL0     C76322   0.275   5.795   0.857  0.9466 -0.4477  0.4728
  579MOL0     C76323   0.155   5.742   0.916  0.2973  0.0287  0.6838
  579MOL0     C76324   0.048   5.829   0.957  0.7069  0.4904 -0.0414
  579MOL0     C76325  -0.074   5.780   1.011 -0.1204 -0.3663 -0.1332
  579MOL0     O76326  -0.174   5.868   1.031  0.4270  0.6324 -0.7570
  579MOL0     C76327  -0.296   5.846   1.086  0.3536 -0.0513 -0.5924
  579MOL0     C76328  -0.324   5.754   1.187 -0.1385  0.4910 -0.8806
  579MOL0     C76329  -0.452   5.743   1.242  0.4685 -0.9150 -0.1668
  579MOL0     C76330  -0.557   5.816   1.173 -0.0074  0.1894 -0.3909
  579MOL0     O76331  -0.690   5.803   1.218  0.5385  0.7256  0.2335
  579MOL0     C76332  -0.711   5.764   1.349 -0.9145  2.2562  0.1269
  579MOL0     C76333  -0.857   5.781   1.365  0.7798 -0.4139 -0.4938
  579MOL0     C76334  -0.905   5.731   1.502  0.2126  0.4699  0.0148
  579MOL0     C76335  -1.053   5.749   1.530 -0.6232 -0.2303  0.1724
  579MOL0     C76336  -1.115   5.677   1.651  0.8279 -0.0448  0.2703
  579MOL0     C76337  -1.246   5.745   1.692  0.0321 -0.0948 -0.6653
  579MOL0     C76338  -1.263   5.736   1.854 -0.1210  0.0520  1.4532
  579MOL0     C76339  -1.411   5.773   1.894  0.4069 -0.8107 -0.6090
  579MOL0    Cl76340  -1.462   5.696   2.047  0.2779  0.3193 -0.3953
  579MOL0     C76341  -0.526   5.897   1.070  0.2013 -0.0281  0.6436
  579MOL0     C76342  -0.401   5.912   1.021  0.7166 -0.0496 -0.0683
  579MOL0     O76343  -0.081   5.657   1.007  0.0867  0.2039 -0.2943
  579MOL0     C76344   0.080   5.969   0.952 -0.3327 -0.4675  0.1688
  579MOL0     C76345   0.195   6.021   0.882  0.0578  0.6597  0.5750
  579MOL0     N76346   0.822   6.167   1.119 -0.2544  0.4993 -0.9773
  579MOL0     N76347   0.918   6.235   1.080  0.0059  0.5739 -0.2568
  579MOL0     C76348   2.170   6.499   1.188  0.3137  0.1718  0.3668
  579MOL0     C76349   2.249   6.603   1.237 -0.0974 -0.4597 -0.1391
  579MOL0     C76350   2.471   6.943   1.339  1.2421 -0.3205 -0.0241
  579MOL0     C76351   2.423   7.001   1.458  0.9474  0.0226 -0.1907
  579MOL0     C76352   2.511   7.072   1.547  0.3039 -0.0052  0.7466
  579MOL0     C76353   2.643   7.107   1.512 -0.1065 -0.3088 -0.3410
  579MOL0     O76354   2.713   7.172   1.609 -0.3842 -0.0610  0.4757
  579MOL0     C76355   2.850   7.200   1.592 -0.2168  0.1439 -0.2032
  579MOL0     C76356   2.852   7.315   1.483  0.2506  0.1802  0.2391
  579MOL0     C76357   2.990   7.295   1.424 -0.4471  0.0129  0.3216
  579MOL0     C76358   3.109   7.337   1.519 -0.4269  0.2978 -0.3802
  579MOL0     C76359   3.223   7.395   1.449 -0.1888 -0.0823  0.3891
  579MOL0     C76360   3.324   7.430   1.392 -0.3194  0.8327 -0.5477
  579MOL0     C76361   2.690   7.057   1.386  0.6190 -0.4650  0.2210
  579MOL0     C76362   2.610   6.965   1.308  0.7139 -0.9638 -0.8599
  579MOL0     H76363   2.012   6.846   1.218  1.3224  0.9563  0.6326
  579MOL0     H76364   1.894   6.660   1.092  1.1311 -2.8770 -1.3635
  579MOL0     H76365   1.784   6.461   1.190 -2.5515 -1.7583  0.5316
  579MOL0     H76366   1.801   6.293   1.136 -1.1914 -0.4223 -0.3227
  579MOL0     H76367   1.811   6.385   0.895  1.1551 -0.7334  1.1018
  579MOL0     H76368   1.771   6.545   0.964 -1.8758  1.0268  1.9531
  579MOL0     H76369   1.572   6.459   1.068 -1.4648 -1.2849 -1.2619
  579MOL0     H76370   1.602   6.299   1.003  1.8189 -0.9376 -0.7368
  579MOL0     H76371   1.571   6.545   0.838 -0.6594  0.6218 -1.4132
  579MOL0     H76372   1.587   6.381   0.781  1.2669  3.2430 -1.4130
  579MOL0     H76373   1.356   6.460   0.769  0.0025 -2.6525 -0.4738
  579MOL0     H76374   1.368   6.520   0.944  2.8016  1.4836 -0.2423
  579MOL0     H76375   1.373   6.281   1.018 -1.0530  0.5940  1.0368
  579MOL0     H76376   1.364   6.230   0.846  1.1185  0.2789 -0.6476
  579MOL0     H76377   1.145   6.379   0.992 -0.1542 -1.7745  1.1356
  579MOL0     H76378   1.140   6.331   0.831  0.3572  0.1032  0.4129
  579MOL0     H76379   1.195   6.154   1.066  1.4263 -0.9109 -0.2086
  579MOL0     H76380   1.155   6.090   0.898 -0.5813  1.2676 -1.4676
  579MOL0     H76381   0.963   5.937   0.939 -1.4540  1.5719 -2.2740
  579MOL0     H76382   0.637   5.949   1.153 -0.5362  0.2841  0.1555
  579MOL0     H76383   0.749   5.834   1.078  0.6438 -0.9009  0.0113
  579MOL0     H76384   0.561   5.854   0.928  1.5063 -0.1726 -0.6412
  579MOL0     H76385   0.698   5.941   0.854  0.1332 -0.2463 -0.6726
  579MOL0     H76386   0.464   6.059   1.011  0.9557 -0.3605  2.0960
  579MOL0     H76387   0.596   6.159   0.960 -2.0395  1.3369  1.4158
  579MOL0     H76388   0.561   6.095   0.724 -2.8868 -0.3855 -3.8316
  579MOL0     H76389   0.419   6.179   0.811 -0.4510 -0.6616  1.0010
  579MOL0     H76390   0.353   5.729   0.821 -1.5586 -2.2139 -2.1232
  579MOL0     H76391   0.144   5.635   0.923 -1.2496  0.2171  1.5642
  579MOL0     H76392  -0.241   5.709   1.240 -0.3179  1.4572  0.2716
  579MOL0     H76393  -0.458   5.683   1.332 -0.7527 -0.4693  0.0702
  579MOL0     H76394  -0.656   5.829   1.417  1.7142 -0.2186  0.5520
  579MOL0     H76395  -0.674   5.665   1.374  0.7728  2.3682 -1.6014
  579MOL0     H76396  -0.910   5.730   1.285  1.3626 -2.2715  0.2434
  579MOL0     H76397  -0.877   5.888   1.353 -0.3789 -0.8205 -2.5405
  579MOL0     H76398  -0.831   5.771   1.572  1.2224 -0.7428 -0.3207
  579MOL0     H76399  -0.883   5.624   1.506  0.7401  0.4673 -1.8910
  579MOL0     H76400  -1.072   5.856   1.539  2.4879  0.2906  1.8555
  579MOL0     H76401  -1.107   5.708   1.444 -0.6048  0.2421 -0.0711
  579MOL0     H76402  -1.034   5.685   1.724  1.1632 -1.5479  0.0976
  579MOL0     H76403  -1.128   5.570   1.632 -2.2395  0.2741  0.1252
  579MOL0     H76404  -1.331   5.696   1.644  0.4004  0.0834 -1.5309
  579MOL0     H76405  -1.261   5.851   1.668 -2.4269 -0.0755  0.6595
  579MOL0     H76406  -1.235   5.637   1.892  1.6761 -0.3015 -0.5851
  579MOL0     H76407  -1.198   5.810   1.902  0.1292  1.2739 -0.6264
  579MOL0     H76408  -1.488   5.744   1.822  1.7517 -0.9224 -2.0537
  579MOL0     H76409  -1.414   5.882   1.900 -5.0485 -0.6932  0.0557
  579MOL0     H76410  -0.605   5.956   1.023 -0.4062 -1.7658 -0.6438
  579MOL0     H76411  -0.398   5.970   0.929  0.6034 -0.0888 -0.0976
  579MOL0     H76412   0.008   6.042   0.986 -0.7123 -1.0119  0.5497
  579MOL0     H76413   0.192   6.124   0.847 -2.8157 -0.2062 -2.1204
  579MOL0     H76414   2.217   6.401   1.190 -0.2589 -0.2459 -2.7312
  579MOL0     H76415   2.346   6.576   1.277 -0.8203 -1.3464  1.1099
  579MOL0     H76416   2.321   6.988   1.491  0.7618  1.2138 -0.2396
  579MOL0     H76417   2.486   7.105   1.647  1.4759  1.8085  0.4851
  579MOL0     H76418   2.910   7.110   1.579  1.6777  1.4062 -0.6822
  579MOL0     H76419   2.876   7.240   1.690 -0.2760 -3.4059  1.4033
  579MOL0     H76420   2.773   7.308   1.408  0.2416 -0.5179  0.3063
  579MOL0     H76421   2.840   7.411   1.534 -0.6174  0.8098 -1.1043
  579MOL0     H76422   2.999   7.350   1.330 -3.2768  1.2284  0.6523
  579MOL0     H76423   3.009   7.188   1.408 -1.1638  0.1523 -1.7278
  579MOL0     H76424   3.074   7.415   1.587 -0.1256  0.0437  0.0644
  579MOL0     H76425   3.140   7.253   1.580 -0.2803  0.1846 -0.6088
  579MOL0     H76426   3.405   7.476   1.340  0.0411  1.0167  0.1749
  579MOL0     H76427   2.790   7.084   1.353  0.1453 -0.8910 -1.6837
  579MOL0     H76428   2.654   6.936   1.213  2.2778 -0.7404 -0.2285
  580MOL0     O76429   9.206   4.282   7.283 -0.1798  0.6077  0.3711
  580MOL0     C76430   9.308   4.325   7.334 -0.0755  0.0942 -0.3874
  580MOL0     O76431   9.317   4.374   7.466 -0.0236  0.0467  0.9788
  580MOL0     C76432   9.199   4.404   7.532  1.0569 -0.3303 -0.8431
  580MOL0     C76433   9.094   4.316   7.567  0.9626  0.0456 -0.5158
  580MOL0     C76434   8.984   4.361   7.633  0.5901  0.2142 -0.1496
  580MOL0     C76435   8.976   4.488   7.671 -0.4747  0.2365 -0.2020
  580MOL0     O76436   8.871   4.538   7.735  0.2247 -0.0762  0.6589
  580MOL0     C76437   8.747   4.523   7.673 -0.0257 -0.1989 -0.4471
  580MOL0     C76438   8.636   4.534   7.779 -0.1093 -0.4019 -0.2309
  580MOL0     C76439   8.657   4.432   7.894  0.8579 -0.3530  0.3472
  580MOL0     C76440   8.533   4.387   7.967  0.6928 -1.5609  0.2663
  580MOL0     C76441   8.549   4.324   8.111  0.0668  0.6228  0.2622
  580MOL0     C76442   8.632   4.193   8.101 -0.8629 -0.3482  0.3911
  580MOL0     C76443   8.647   4.115   8.234  0.7965 -0.3111  0.0833
  580MOL0     C76444   8.669   3.964   8.208  1.0043 -0.3815 -0.1673
  580MOL0     N76445   8.627   3.879   8.322 -0.0768  0.1692  0.5703
  580MOL0     C76446   8.653   3.894   8.461 -0.3129 -0.2892  0.3636
  580MOL0     C76447   8.603   3.780   8.525  0.2172 -0.4595  0.3460
  580MOL0     C76448   8.596   3.752   8.665 -0.7494 -0.2034 -0.3744
  580MOL0     C76449   8.563   3.609   8.703  0.0909 -0.2126  0.5091
  580MOL0     C76450   8.586   3.584   8.855 -0.0652 -0.2004 -0.2503
  580MOL0     C76451   8.450   3.545   8.920 -0.6124 -0.1766 -0.7355
  580MOL0     O76452   8.349   3.649   8.911 -0.3391  0.0382 -0.4438
  580MOL0     C76453   8.224   3.620   8.967 -0.2744  0.2436 -0.7567
  580MOL0     C76454   8.131   3.725   8.986 -1.0366 -0.3524  0.7659
  580MOL0     C76455   8.008   3.709   9.042  0.4049 -0.6178  0.6682
  580MOL0     C76456   7.974   3.585   9.093  0.4970  0.5127  0.7440
  580MOL0     C76457   7.835   3.558   9.162 -0.9493  0.8115 -0.4176
  580MOL0     O76458   7.762   3.665   9.203  0.6995  0.1102  0.1202
  580MOL0     C76459   7.632   3.652   9.245  0.0505 -0.3115  0.4142
  580MOL0     C76460   7.533   3.557   9.200  0.6678  0.2336 -0.8582
  580MOL0     C76461   7.398   3.562   9.248 -0.2000 -0.2572 -0.5890
  580MOL0     C76462   7.361   3.671   9.333  0.1454 -0.1270  0.1611
  580MOL0     O76463   7.239   3.711   9.378 -0.2902 -1.0656  0.5456
  580MOL0     C76464   7.134   3.627   9.328 -0.7061 -0.0218  0.0639
  580MOL0     C76465   7.116   3.521   9.441  0.4920  0.4434  0.2129
  580MOL0     C76466   6.977   3.456   9.433  0.5311 -0.0549 -0.5578
  580MOL0     C76467   6.927   3.418   9.573  0.5101  0.3871  0.0755
  580MOL0     C76468   6.814   3.318   9.583 -0.2462 -0.1283  0.1674
  580MOL0     C76469   6.696   3.350   9.495 -0.4845 -0.4747 -0.0625
  580MOL0     C76470   6.568   3.270   9.513 -0.3804 -0.0350  0.0766
  580MOL0     C76471   6.468   3.312   9.407  0.2501 -0.3965 -0.4164
  580MOL0    Cl76472   6.309   3.278   9.477  0.3223  0.2049  0.2850
  580MOL0     C76473   7.460   3.764   9.365  0.3003 -0.5082 -0.4598
  580MOL0     C76474   7.593   3.760   9.326 -0.2632  0.0352 -0.0833
  580MOL0     O76475   7.810   3.441   9.199 -0.4158 -0.2147 -0.7051
  580MOL0     C76476   8.062   3.483   9.092  0.3093 -0.0253  0.3836
  580MOL0     C76477   8.180   3.492   9.018 -0.6388 -0.2681 -0.7408
  580MOL0     N76478   8.550   3.703   8.424 -0.6115 -0.2611 -0.3888
  580MOL0     N76479   8.573   3.753   8.311 -0.1613 -0.0028  0.3516
  580MOL0     C76480   9.084   4.572   7.647 -1.4874 -0.3421 -1.0928
  580MOL0     C76481   9.201   4.531   7.579 -0.0395  0.3884 -0.0419
  580MOL0     C76482   9.434   4.299   7.260 -0.1453 -0.1138 -0.0046
  580MOL0     C76483   9.555   4.333   7.321 -0.0245 -0.1967  0.2894
  580MOL0     C76484   9.667   4.292   7.266  0.1926  0.4249  0.8297
  580MOL0     C76485   9.669   4.222   7.137 -0.3078  0.3193 -0.4728
  580MOL0     O76486   9.787   4.181   7.073 -0.2726  0.2135  0.0684
  580MOL0     C76487   9.909   4.235   7.137  0.1986  0.3219  0.1949
  580MOL0     C76488  10.035   4.202   7.064  0.9871  0.8921  0.6499
  580MOL0     C76489  10.049   4.306   6.958 -0.0280 -1.0915 -0.1690
  580MOL0     C76490  10.160   4.294   6.853  0.3393  0.4153  0.2309
  580MOL0     C76491  10.133   4.162   6.778 -0.5377 -0.6407 -0.1188
  580MOL0     C76492  10.107   4.056   6.721 -0.5639  0.3810  0.3504
  580MOL0     C76493   9.550   4.196   7.074  0.3023 -0.6387 -0.2704
  580MOL0     C76494   9.429   4.216   7.140  0.2131  0.1742 -0.4060
  580MOL0     H76495   9.102   4.212   7.536 -1.2441  0.1272 -1.6002
  580MOL0     H76496   8.902   4.298   7.667  0.4984  1.8318  3.1275
  580MOL0     H76497   8.749   4.428   7.620 -1.0709 -0.8758  0.6688
  580MOL0     H76498   8.737   4.604   7.599  1.5864  1.9691  1.5591
  580MOL0     H76499   8.548   4.500   7.723 -0.8667 -1.1426  1.3387
  580MOL0     H76500   8.633   4.636   7.818  2.1828 -1.0214  1.8533
  580MOL0     H76501   8.730   4.467   7.968  1.4887  1.0059 -0.8587
  580MOL0     H76502   8.697   4.339   7.853 -1.5278 -2.8871  3.2533
  580MOL0     H76503   8.464   4.470   7.985  0.6751 -1.9465  2.2523
  580MOL0     H76504   8.481   4.323   7.895  0.4484 -0.3067 -0.7078
  580MOL0     H76505   8.456   4.291   8.158  1.0960 -2.8200  0.1151
  580MOL0     H76506   8.595   4.401   8.175  0.1088  0.7313  0.1013
  580MOL0     H76507   8.735   4.212   8.070 -0.4822 -1.1114  1.1304
  580MOL0     H76508   8.585   4.123   8.032  2.3286 -3.2451  0.8836
  580MOL0     H76509   8.718   4.169   8.297  0.5816  0.2167 -0.1259
  580MOL0     H76510   8.553   4.126   8.287  3.0670  1.2558  4.1842
  580MOL0     H76511   8.772   3.942   8.177  0.9233 -2.5455  0.8793
  580MOL0     H76512   8.598   3.942   8.128 -0.0889  2.9484 -0.2734
  580MOL0     H76513   8.703   3.979   8.505  0.4924 -0.4758 -0.1677
  580MOL0     H76514   8.523   3.813   8.721  1.5927 -0.3760  3.1853
  580MOL0     H76515   8.695   3.771   8.707 -0.1696  0.1818 -1.8784
  580MOL0     H76516   8.623   3.536   8.648 -0.4191 -0.9142  0.8595
  580MOL0     H76517   8.460   3.593   8.671  0.5712  2.0053 -2.5623
  580MOL0     H76518   8.654   3.500   8.872 -1.6906 -1.6427 -0.4362
  580MOL0     H76519   8.623   3.676   8.901 -0.8789 -0.3401  0.7241
  580MOL0     H76520   8.473   3.522   9.025 -2.9903 -0.2183 -0.1615
  580MOL0     H76521   8.411   3.447   8.892 -0.7007 -1.0233  1.9901
  580MOL0     H76522   8.167   3.822   8.953  2.1767 -2.0768 -1.3262
  580MOL0     H76523   7.945   3.797   9.049  2.5707  1.2295 -1.2708
  580MOL0     H76524   7.558   3.475   9.133  0.1248  0.3157 -1.1727
  580MOL0     H76525   7.335   3.479   9.220 -1.2009  0.2479  0.1274
  580MOL0     H76526   7.150   3.576   9.232 -1.8320 -1.8030  0.7607
  580MOL0     H76527   7.043   3.687   9.320 -1.9291 -1.1993  3.3125
  580MOL0     H76528   7.128   3.576   9.535 -0.2661  0.4352  0.3203
  580MOL0     H76529   7.193   3.443   9.438 -1.3650 -1.4788 -1.7263
  580MOL0     H76530   6.977   3.375   9.360 -2.0340 -1.3764  0.7649
  580MOL0     H76531   6.907   3.534   9.400  0.5847  1.1486  1.9413
  580MOL0     H76532   7.008   3.371   9.628 -1.5370 -2.0403  1.2573
  580MOL0     H76533   6.910   3.510   9.629 -2.3454  0.1118 -0.1632
  580MOL0     H76534   6.770   3.301   9.682  0.8425 -1.5916  0.4317
  580MOL0     H76535   6.858   3.226   9.544  0.8187  0.7909 -0.8836
  580MOL0     H76536   6.718   3.340   9.388 -3.3749 -1.0114 -0.7004
  580MOL0     H76537   6.677   3.454   9.521 -0.6926 -0.0064 -1.9447
  580MOL0     H76538   6.593   3.164   9.505  3.7004  0.7027  0.4575
  580MOL0     H76539   6.526   3.280   9.613  1.9209  0.1088  1.0944
  580MOL0     H76540   6.483   3.256   9.314  0.8572 -2.4198  0.8337
  580MOL0     H76541   6.491   3.417   9.388  0.2496  0.3328  3.0247
  580MOL0     H76542   7.432   3.856   9.415 -0.2720 -0.7962 -0.2345
  580MOL0     H76543   7.668   3.835   9.351 -0.0166  0.1909 -1.2503
  580MOL0     H76544   8.042   3.386   9.136 -1.0327  0.0931  0.0906
  580MOL0     H76545   8.235   3.399   9.005 -1.2373 -0.3387 -3.4774
  580MOL0     H76546   9.079   4.674   7.685  0.8927  0.0392 -1.6713
  580MOL0     H76547   9.277   4.603   7.553 -0.4256  0.4898 -0.9075
  580MOL0     H76548   9.558   4.379   7.419 -1.7877  1.5879 -0.4153
  580MOL0     H76549   9.742   4.349   7.321  1.1549  0.6081 -0.6192
  580MOL0     H76550   9.923   4.187   7.235 -0.1967  0.4061  0.2938
  580MOL0     H76551   9.911   4.344   7.147 -0.7439  0.2755  1.0795
  580MOL0     H76552  10.122   4.198   7.131  0.6778  1.8625  1.1356
  580MOL0     H76553  10.019   4.112   7.004  1.3615  2.1040 -1.3323
  580MOL0     H76554  10.078   4.397   7.011  1.0617 -0.7419 -1.3246
  580MOL0     H76555   9.957   4.341   6.911  0.8640  4.9152  1.7573
  580MOL0     H76556  10.141   4.373   6.779 -0.0009 -0.7756 -1.0007
  580MOL0     H76557  10.260   4.289   6.896  1.2281 -1.3030 -1.8383
  580MOL0     H76558  10.079   3.969   6.664 -1.0811  1.8563 -1.7538
  580MOL0     H76559   9.564   4.158   6.973  4.2244  0.2622 -0.1948
  580MOL0     H76560   9.329   4.203   7.100 -1.4347  2.5858  2.4974
  581MOL0     O76561  11.031   3.063   9.956 -0.2998 -0.8763  0.1211
  581MOL0     C76562  10.986   3.130   9.860 -0.0816 -0.6339 -0.4659
  581MOL0     O76563  11.059   3.211   9.775  0.2848  0.0881  0.0455
  581MOL0     C76564  11.192   3.207   9.769 -0.5921 -0.5372  0.5140
  581MOL0     C76565  11.254   3.327   9.735 -0.0766 -0.9008  0.1695
  581MOL0     C76566  11.388   3.344   9.713 -0.0477  0.8226 -0.4706
  581MOL0     C76567  11.470   3.235   9.737  0.0258  0.4788 -1.0466
  581MOL0     O76568  11.605   3.259   9.725 -0.4513  0.5818 -0.3136
  581MOL0     C76569  11.695   3.155   9.764 -0.2762 -0.5717  0.3390
  581MOL0     C76570  11.835   3.210   9.791 -0.4034 -0.5354 -0.1976
  581MOL0     C76571  11.917   3.248   9.663 -0.0591  0.5358  0.0610
  581MOL0     C76572  12.039   3.331   9.694 -0.0495  0.5363  0.1184
  581MOL0     C76573  12.113   3.392   9.573 -0.6278  0.1090 -0.1714
  581MOL0     C76574  12.171   3.298   9.467 -0.2720  0.6238  0.6497
  581MOL0     C76575  12.206   3.387   9.339 -0.0930  0.4465 -0.6935
  581MOL0     C76576  12.315   3.489   9.351  0.1893 -0.1542 -0.3924
  581MOL0     N76577  12.450   3.441   9.396 -0.0669 -0.8300  0.3439
  581MOL0     C76578  12.536   3.373   9.319  0.0979  0.3315  0.3206
  581MOL0     C76579  12.638   3.339   9.407  0.1209  0.0063 -0.6223
  581MOL0     C76580  12.765   3.269   9.365 -0.9331  0.3515 -0.0994
  581MOL0     C76581  12.745   3.122   9.350  0.4215  0.4605 -0.0161
  581MOL0     C76582  12.745   3.045   9.485 -0.7354  1.1234 -0.0764
  581MOL0     C76583  12.646   2.924   9.500 -0.7249  0.2801 -0.7061
  581MOL0     O76584  12.620   2.890   9.643  0.2530 -0.4547 -0.3572
  581MOL0     C76585  12.527   2.971   9.712  0.2937  0.4103  0.3784
  581MOL0     C76586  12.465   3.089   9.674  0.3212 -0.7789 -0.6080
  581MOL0     C76587  12.372   3.152   9.751 -0.7016  0.2212 -0.0738
  581MOL0     C76588  12.344   3.112   9.886  0.3603  0.2732 -0.5876
  581MOL0     C76589  12.274   3.198   9.985 -0.3627 -0.4117  0.1619
  581MOL0     O76590  12.233   3.320   9.943 -1.2579  0.1194 -0.1578
  581MOL0     C76591  12.142   3.397  10.020  0.5055 -0.3198  0.9258
  581MOL0     C76592  12.047   3.358  10.109 -0.3872  0.5874 -0.3725
  581MOL0     C76593  11.954   3.440  10.184 -0.9068 -0.6721  0.1331
  581MOL0     C76594  11.975   3.574  10.174 -0.5434 -0.0222 -0.0721
  581MOL0     O76595  11.907   3.673  10.241  0.4895 -0.0350 -0.1837
  581MOL0     C76596  11.824   3.641  10.358 -0.5185 -1.4495 -0.1542
  581MOL0     C76597  11.909   3.658  10.489  0.5569 -0.0798  0.0406
  581MOL0     C76598  12.014   3.550  10.500 -0.0380 -0.3676 -0.1515
  581MOL0     C76599  12.064   3.554  10.640  0.4471  0.2697  0.3372
  581MOL0     C76600  12.199   3.486  10.652 -0.6672 -0.6280  0.0968
  581MOL0     C76601  12.243   3.478  10.805  0.1222 -0.3832  0.6380
  581MOL0     C76602  12.388   3.420  10.820 -0.0875  0.3455  0.4200
  581MOL0     C76603  12.394   3.307  10.918  0.1133  0.1939  0.9044
  581MOL0    Cl76604  12.568   3.261  10.954  0.4688  0.4757  0.1363
  581MOL0     C76605  12.074   3.622  10.082  0.4819 -0.7083  0.4255
  581MOL0     C76606  12.148   3.536   9.998 -0.0999 -0.3754 -0.6865
  581MOL0     O76607  12.249   3.151  10.095  0.2447 -0.0249  0.1082
  581MOL0     C76608  12.406   2.986   9.926 -0.2315 -0.2653  0.1751
  581MOL0     C76609  12.496   2.924   9.838 -0.0841 -0.5895 -0.3083
  581MOL0     N76610  12.599   3.386   9.536  0.4856  0.8555  0.1872
  581MOL0     N76611  12.479   3.436   9.526 -0.1451  0.3200 -0.9064
  581MOL0     C76612  11.417   3.113   9.776  0.8044 -0.4597 -0.4723
  581MOL0     C76613  11.272   3.097   9.792 -1.1371 -0.7509  0.7901
  581MOL0     C76614  10.839   3.122   9.850 -0.2465  0.4811  0.2473
  581MOL0     C76615  10.784   3.172   9.737  0.0318 -0.2152 -0.0303
  581MOL0     C76616  10.638   3.166   9.715 -0.4821  0.5046  1.1960
  581MOL0     C76617  10.556   3.107   9.805  0.8095  0.1683 -0.1894
  581MOL0     O76618  10.419   3.116   9.775 -0.7558  0.2165 -0.7193
  581MOL0     C76619  10.328   3.059   9.865 -0.5989  0.4126 -0.2055
  581MOL0     C76620  10.191   3.098   9.798 -0.9478 -0.6251 -0.2976
  581MOL0     C76621  10.071   3.077   9.894 -0.7797 -0.0091  0.4057
  581MOL0     C76622   9.947   3.157   9.843 -1.6711 -0.2115 -0.4347
  581MOL0     C76623   9.829   3.145   9.931  0.1465  0.5185  1.4268
  581MOL0     C76624   9.723   3.115   9.974  0.9405  0.3406  0.5236
  581MOL0     C76625  10.614   3.043   9.921 -0.3340  0.5651  0.5301
  581MOL0     C76626  10.752   3.050   9.938 -0.5925  0.3741  0.7548
  581MOL0     H76627  11.186   3.409   9.713  0.5332 -0.8573 -1.7623
  581MOL0     H76628  11.436   3.437   9.687  1.4065 -0.0272 -0.9559
  581MOL0     H76629  11.696   3.076   9.688  1.4601  0.9247 -1.2821
  581MOL0     H76630  11.658   3.108   9.855  0.3907 -2.3806 -0.2786
  581MOL0     H76631  11.891   3.134   9.846 -0.9756  0.2445  1.5163
  581MOL0     H76632  11.826   3.299   9.853  0.6455 -0.3439 -0.3033
  581MOL0     H76633  11.847   3.308   9.605 -0.9028  0.6861  1.2054
  581MOL0     H76634  11.941   3.155   9.611 -0.7449  0.2612  0.2301
  581MOL0     H76635  12.002   3.416   9.751  2.6093  1.0006  1.3018
  581MOL0     H76636  12.104   3.276   9.762 -1.7909 -1.8936 -0.0758
  581MOL0     H76637  12.202   3.449   9.602  0.9650 -1.2961 -2.0298
  581MOL0     H76638  12.038   3.459   9.530 -0.6014  1.1348  1.2956
  581MOL0     H76639  12.090   3.232   9.436 -1.1447  1.3390  1.3653
  581MOL0     H76640  12.253   3.238   9.508 -3.1335 -2.0464  2.9282
  581MOL0     H76641  12.239   3.318   9.261  0.4641 -1.2940  0.9965
  581MOL0     H76642  12.120   3.445   9.306  1.5114  3.5061  0.0875
  581MOL0     H76643  12.288   3.570   9.418  1.3192 -0.8981  1.0421
  581MOL0     H76644  12.325   3.538   9.254 -1.9374 -2.4149 -1.8621
  581MOL0     H76645  12.524   3.360   9.212 -5.3788  3.0468  0.2521
  581MOL0     H76646  12.829   3.287   9.451 -0.7045  0.7767 -0.3572
  581MOL0     H76647  12.813   3.317   9.280 -0.7750 -0.2995 -0.3816
  581MOL0     H76648  12.831   3.093   9.288  0.2851 -2.4329  1.0313
  581MOL0     H76649  12.654   3.091   9.298  0.2470  1.1189 -0.1161
  581MOL0     H76650  12.851   3.017   9.495  0.3061  3.2727 -3.4075
  581MOL0     H76651  12.731   3.122   9.561  2.0312  0.5502  1.1682
  581MOL0     H76652  12.685   2.842   9.438 -0.6062  0.6022 -1.0585
  581MOL0     H76653  12.548   2.949   9.458  0.1472  2.1789 -1.6955
  581MOL0     H76654  12.489   3.126   9.574 -1.6008  1.0264 -0.4810
  581MOL0     H76655  12.341   3.248   9.711  1.3952  0.9490 -0.0892
  581MOL0     H76656  12.040   3.250  10.121 -2.3279  0.8561  1.7659
  581MOL0     H76657  11.875   3.394  10.243  0.0778 -1.9425  0.5107
  581MOL0     H76658  11.776   3.543  10.349  0.7439 -2.2518  1.3567
  581MOL0     H76659  11.744   3.715  10.362 -1.8465 -2.8812  0.8570
  581MOL0     H76660  11.841   3.651  10.574 -0.9782 -0.9115 -1.2117
  581MOL0     H76661  11.947   3.760  10.498 -0.5969  0.2674  1.4024
  581MOL0     H76662  12.093   3.572  10.429 -1.7987 -1.7256 -2.6735
  581MOL0     H76663  11.978   3.449  10.481  2.1650 -1.0832 -0.8148
  581MOL0     H76664  12.087   3.656  10.671  1.4997 -0.5171  2.2927
  581MOL0     H76665  11.995   3.504  10.708 -1.6968  0.4318 -1.6204
  581MOL0     H76666  12.273   3.539  10.591  1.2353 -4.2159 -1.0094
  581MOL0     H76667  12.189   3.384  10.616 -2.4660 -0.9354  1.3056
  581MOL0     H76668  12.171   3.427  10.869 -1.6716  1.2584  0.0018
  581MOL0     H76669  12.247   3.581  10.843  0.2189 -1.1982  3.0018
  581MOL0     H76670  12.430   3.376  10.729 -1.8504 -1.8609  0.5590
  581MOL0     H76671  12.455   3.499  10.854  0.0721  0.2383  0.3570
  581MOL0     H76672  12.334   3.218  10.896 -0.0491  0.9802 -2.4806
  581MOL0     H76673  12.356   3.348  11.012 -2.5827  1.0828 -0.4724
  581MOL0     H76674  12.094   3.729  10.074  2.1387 -1.0507 -0.5401
  581MOL0     H76675  12.218   3.584   9.929  0.3973 -1.1486 -0.7336
  581MOL0     H76676  12.384   2.958  10.028 -0.1701 -2.4300 -0.3468
  581MOL0     H76677  12.546   2.833   9.869 -1.5423 -1.9840 -1.8533
  581MOL0     H76678  11.468   3.027   9.817  0.2217  0.1982  1.7174
  581MOL0     H76679  11.236   3.000   9.824 -1.3482 -0.5240  1.2508
  581MOL0     H76680  10.847   3.223   9.664 -0.8604  0.7586 -0.1478
  581MOL0     H76681  10.600   3.209   9.623 -0.1095 -2.2838 -0.3725
  581MOL0     H76682  10.339   3.108   9.963 -2.8001  0.0202  0.2957
  581MOL0     H76683  10.345   2.951   9.866  1.2079  0.5797 -2.8671
  581MOL0     H76684  10.186   3.204   9.772 -1.6151 -0.4995  0.2955
  581MOL0     H76685  10.183   3.035   9.709  1.5615 -1.3037 -0.1396
  581MOL0     H76686  10.098   3.101   9.997  2.1449 -0.1122 -0.2509
  581MOL0     H76687  10.049   2.970   9.880 -2.1166  0.1202  1.2980
  581MOL0     H76688   9.972   3.261   9.820 -4.0601  0.2825 -1.0412
  581MOL0     H76689   9.925   3.109   9.748 -1.8008 -3.1369  0.9598
  581MOL0     H76690   9.635   3.090  10.029  1.5951 -3.0241  0.2432
  581MOL0     H76691  10.558   2.985   9.993 -0.2629  1.0066  0.9438
  581MOL0     H76692  10.794   2.979  10.008 -0.6643 -0.8971 -0.4368
  582MOL0     O76693   2.574   4.088  10.855 -0.8945  0.3080  0.2444
  582MOL0     C76694   2.686   4.136  10.852 -0.0773  0.6571 -0.3233
  582MOL0     O76695   2.735   4.224  10.946  0.0320 -0.3435  0.3800
  582MOL0     C76696   2.664   4.277  11.053 -0.0635 -0.4493 -0.0046
  582MOL0     C76697   2.525   4.296  11.062  0.3412  0.9246 -0.2201
  582MOL0     C76698   2.454   4.360  11.165 -0.4189  0.0355  0.2695
  582MOL0     C76699   2.522   4.422  11.264 -0.4681  0.1348  0.3897
  582MOL0     O76700   2.481   4.501  11.369 -0.8610 -0.2131 -0.4127
  582MOL0     C76701   2.339   4.509  11.383  0.6797 -0.6972 -0.1477
  582MOL0     C76702   2.301   4.612  11.495 -0.3338 -0.3028  0.3438
  582MOL0     C76703   2.148   4.603  11.504 -0.1975 -0.1736  0.8146
  582MOL0     C76704   2.104   4.691  11.625  0.3178 -0.0886  0.2560
  582MOL0     C76705   1.949   4.702  11.625  0.4380  0.1419 -0.3910
  582MOL0     C76706   1.891   4.769  11.757 -0.0770  0.3291  1.2334
  582MOL0     C76707   1.743   4.773  11.766  0.3012 -0.5366 -0.5768
  582MOL0     C76708   1.699   4.828  11.908 -0.1726  0.0620 -0.0234
  582MOL0     N76709   1.559   4.801  11.939 -0.8817  0.4422 -0.4853
  582MOL0     C76710   1.505   4.678  11.976 -0.3519  0.2271  0.0134
  582MOL0     C76711   1.374   4.702  11.955  1.3854  0.5453  0.2909
  582MOL0     C76712   1.266   4.606  11.961  0.5999 -0.5514  0.0488
  582MOL0     C76713   1.164   4.628  12.078  0.0461 -0.8219 -0.6164
  582MOL0     C76714   1.072   4.506  12.088 -0.0492 -0.1484  0.3911
  582MOL0     C76715   0.925   4.526  12.038  1.2308 -0.1028  0.7943
  582MOL0     O76716   0.844   4.409  12.042  0.0964  0.4505  0.3043
  582MOL0     C76717   0.721   4.421  11.986 -0.5360 -0.0506 -0.4648
  582MOL0     C76718   0.650   4.305  11.970  0.2311  0.1951 -0.0522
  582MOL0     C76719   0.521   4.307  11.925  0.2876  0.5033  0.5280
  582MOL0     C76720   0.462   4.425  11.886 -0.2844 -0.0499 -0.4485
  582MOL0     C76721   0.319   4.421  11.837 -0.5391 -0.6167 -1.4606
  582MOL0     O76722   0.283   4.519  11.760 -0.5881  0.5952  0.0262
  582MOL0     C76723   0.152   4.533  11.722 -0.1818  0.2168  0.3778
  582MOL0     C76724   0.049   4.514  11.811  0.0894 -0.6286  0.5914
  582MOL0     C76725  -0.086   4.521  11.772 -0.1370 -1.0026  0.7171
  582MOL0     C76726  -0.122   4.579  11.650 -0.6183 -0.0972 -0.1381
  582MOL0     O76727  -0.255   4.593  11.614 -0.3802  0.0101 -0.0431
  582MOL0     C76728  -0.291   4.553  11.485 -0.3943  0.0909 -0.1557
  582MOL0     C76729  -0.432   4.577  11.444  0.8246 -1.3145  0.4482
  582MOL0     C76730  -0.485   4.707  11.512  0.3928  0.0064 -0.0410
  582MOL0     C76731  -0.636   4.715  11.499  0.6693  0.1502  0.0663
  582MOL0     C76732  -0.701   4.791  11.611 -0.1703 -0.4018 -0.0502
  582MOL0     C76733  -0.844   4.827  11.586 -0.3211 -0.0864 -0.2386
  582MOL0     C76734  -0.877   4.958  11.517  0.1792 -0.4362  0.3540
  582MOL0     C76735  -1.026   4.970  11.502  0.0580 -0.2535  0.3204
  582MOL0    Cl76736  -1.081   5.090  11.390  0.1155 -0.5255  0.1370
  582MOL0     C76737  -0.011   4.606  11.567 -0.7035  0.8377  1.1405
  582MOL0     C76738   0.116   4.577  11.594  0.1580 -0.0120 -0.9783
  582MOL0     O76739   0.260   4.324  11.864 -0.0010 -0.0278  0.3430
  582MOL0     C76740   0.532   4.550  11.896 -0.1760  0.2529 -0.2457
  582MOL0     C76741   0.662   4.549  11.949  0.2362  0.6627 -0.1410
  582MOL0     N76742   1.345   4.833  11.916 -0.0726 -0.3329  0.1618
  582MOL0     N76743   1.456   4.886  11.913  0.0762  0.3215  0.2065
  582MOL0     C76744   2.666   4.414  11.264  0.3401  0.2098  0.2514
  582MOL0     C76745   2.731   4.338  11.159  0.1893  0.3288 -0.4174
  582MOL0     C76746   2.781   4.082  10.747  0.2298  0.0006 -0.4230
  582MOL0     C76747   2.918   4.082  10.774  0.1710 -0.1417 -0.1468
  582MOL0     C76748   3.000   4.043  10.671 -0.1234 -0.7164  0.4637
  582MOL0     C76749   2.950   3.987  10.552  0.7015  0.3872 -0.1397
  582MOL0     O76750   3.041   3.948  10.459  0.0516 -0.5550  0.0972
  582MOL0     C76751   3.016   3.828  10.385  0.2955 -0.3376  0.0213
  582MOL0     C76752   3.017   3.699  10.475  1.1266  0.0808 -0.0968
  582MOL0     C76753   3.150   3.690  10.549 -0.6242 -0.0943 -0.4634
  582MOL0     C76754   3.177   3.554  10.605 -0.2794 -0.2344 -0.4044
  582MOL0     C76755   3.299   3.553  10.687  0.8615 -0.2359  0.5312
  582MOL0     C76756   3.396   3.550  10.757  0.4035  0.2022 -0.3519
  582MOL0     C76757   2.812   3.978  10.533  0.3922 -0.7215 -0.4051
  582MOL0     C76758   2.724   4.026  10.631 -1.0548  0.4622  0.1411
  582MOL0     H76759   2.462   4.267  10.979  0.8380 -1.1393  0.0621
  582MOL0     H76760   2.350   4.365  11.136 -1.2779 -1.3614  2.7519
  582MOL0     H76761   2.301   4.410  11.411 -0.1917 -0.2043  0.4673
  582MOL0     H76762   2.299   4.542  11.287 -1.8118 -0.2014  0.9691
  582MOL0     H76763   2.333   4.710  11.460 -0.1663 -1.2254 -2.3750
  582MOL0     H76764   2.360   4.575  11.579 -1.1700 -0.8863  0.6952
  582MOL0     H76765   2.118   4.498  11.508  2.5762 -1.0057  2.5327
  582MOL0     H76766   2.097   4.648  11.417 -0.3111  0.2617  1.1045
  582MOL0     H76767   2.135   4.636  11.715  1.0707  1.4074  0.9330
  582MOL0     H76768   2.141   4.793  11.622 -0.4869  0.2906  1.8720
  582MOL0     H76769   1.901   4.604  11.613  1.2364 -0.7687  2.8764
  582MOL0     H76770   1.930   4.766  11.539  1.9587 -0.0344 -0.8934
  582MOL0     H76771   1.939   4.867  11.755  2.7132 -0.9147 -1.9246
  582MOL0     H76772   1.931   4.718  11.845  2.0864  0.4492  0.3836
  582MOL0     H76773   1.696   4.833  11.687  0.7904 -1.5881 -1.6941
  582MOL0     H76774   1.715   4.667  11.757 -0.4802 -0.7581  2.8988
  582MOL0     H76775   1.719   4.935  11.899  0.7823 -0.0221  0.9091
  582MOL0     H76776   1.754   4.791  11.995 -0.8047  0.9835  0.7712
  582MOL0     H76777   1.555   4.591  12.016 -0.8583  0.7429  1.8545
  582MOL0     H76778   1.301   4.506  11.986 -2.9325 -1.5343  1.6381
  582MOL0     H76779   1.219   4.607  11.862 -0.9923  2.2434  0.7242
  582MOL0     H76780   1.112   4.723  12.060 -3.1700 -1.6617  2.9822
  582MOL0     H76781   1.216   4.651  12.171 -0.6005 -1.2377 -0.1366
  582MOL0     H76782   1.101   4.426  12.019  0.1196  2.5900 -3.0228
  582MOL0     H76783   1.074   4.465  12.190  2.4922  0.5412  0.6697
  582MOL0     H76784   0.924   4.562  11.935  0.2704 -3.1349 -0.3673
  582MOL0     H76785   0.881   4.597  12.110 -1.8303 -0.1830 -0.8164
  582MOL0     H76786   0.691   4.208  11.996 -1.7933 -0.4545  0.9566
  582MOL0     H76787   0.481   4.207  11.911 -2.3735  1.5316  0.2408
  582MOL0     H76788   0.082   4.485  11.910 -1.0435 -0.4091  1.0444
  582MOL0     H76789  -0.164   4.485  11.837 -0.8820 -0.7628 -0.0198
  582MOL0     H76790  -0.279   4.445  11.471  0.8670  0.4906 -2.5382
  582MOL0     H76791  -0.239   4.610  11.408 -2.2295 -0.1532 -1.6360
  582MOL0     H76792  -0.491   4.489  11.472  0.7585 -0.9282  1.5546
  582MOL0     H76793  -0.438   4.594  11.336 -1.1767  0.5617  0.7882
  582MOL0     H76794  -0.429   4.792  11.471  0.9360 -1.1477 -1.7854
  582MOL0     H76795  -0.468   4.710  11.620 -1.5252  0.6928  0.2817
  582MOL0     H76796  -0.656   4.758  11.400 -1.0726  0.7137  0.6175
  582MOL0     H76797  -0.673   4.613  11.489  3.6482 -0.9553 -0.5644
  582MOL0     H76798  -0.648   4.887  11.619  2.1558 -1.7905  3.0787
  582MOL0     H76799  -0.692   4.731  11.702  1.2148  0.7917  0.6384
  582MOL0     H76800  -0.906   4.820  11.675  0.4712 -1.5044  0.2417
  582MOL0     H76801  -0.870   4.744  11.519 -0.7614 -0.6264  0.5935
  582MOL0     H76802  -0.828   5.045  11.561  2.1107 -1.3591  0.1382
  582MOL0     H76803  -0.853   4.952  11.411 -2.9192 -1.2164 -0.3910
  582MOL0     H76804  -1.068   4.992  11.601 -3.7395 -0.4881 -1.0629
  582MOL0     H76805  -1.065   4.873  11.472  4.0591 -2.5879  1.8621
  582MOL0     H76806  -0.038   4.648  11.471  1.0732  0.2216  0.3428
  582MOL0     H76807   0.189   4.582  11.513 -0.8017 -0.3316 -1.8852
  582MOL0     H76808   0.490   4.646  11.866 -1.7499 -0.1227  0.5961
  582MOL0     H76809   0.716   4.643  11.961 -0.9762  1.7231 -2.3956
  582MOL0     H76810   2.715   4.463  11.347 -1.2346 -0.3628  1.5766
  582MOL0     H76811   2.839   4.334  11.162  0.1507 -2.5375 -0.3686
  582MOL0     H76812   2.965   4.130  10.860 -1.9731  1.3899  0.2689
  582MOL0     H76813   3.107   4.049  10.686 -0.1678  1.4750  0.3467
  582MOL0     H76814   3.095   3.828  10.310  0.1171  0.5652 -0.1780
  582MOL0     H76815   2.924   3.832  10.325  0.7107 -1.9762 -0.7786
  582MOL0     H76816   2.939   3.699  10.551  0.4987 -3.3635 -0.5720
  582MOL0     H76817   3.001   3.617  10.404 -0.6485  0.2463  0.0819
  582MOL0     H76818   3.160   3.763  10.629  1.7831 -2.7830  1.9202
  582MOL0     H76819   3.234   3.703  10.480 -0.8850  1.9323 -0.4414
  582MOL0     H76820   3.088   3.527  10.663 -1.6006  1.3713 -1.5782
  582MOL0     H76821   3.196   3.478  10.529  1.5521 -2.5782  2.1944
  582MOL0     H76822   3.474   3.543  10.830  2.6808 -0.2328 -2.6904
  582MOL0     H76823   2.769   3.934  10.444  0.5874  0.4258 -1.0858
  582MOL0     H76824   2.616   4.013  10.625 -1.0153  0.4571 -0.6067
  583MOL0     O76825   7.915   2.998   7.704 -0.1691  0.5123  0.0917
  583MOL0     C76826   7.875   2.929   7.609 -0.2152 -0.8369 -0.3333
  583MOL0     O76827   7.877   2.971   7.488  1.4467 -0.8001 -0.1543
  583MOL0     C76828   7.886   3.109   7.458 -0.8813  0.9184  0.6348
  583MOL0     C76829   7.908   3.125   7.324 -0.3525  0.4673 -0.2197
  583MOL0     C76830   7.919   3.253   7.267 -0.1345  0.6337  0.6586
  583MOL0     C76831   7.894   3.360   7.345 -0.1989 -0.2266  1.2793
  583MOL0     O76832   7.897   3.484   7.283  0.3707 -0.8699 -0.9170
  583MOL0     C76833   7.884   3.605   7.350 -0.2540 -0.5900 -0.6522
  583MOL0     C76834   7.945   3.709   7.258 -0.4253  0.1573 -0.2310
  583MOL0     C76835   7.931   3.847   7.323 -0.6803  0.0050 -0.8107
  583MOL0     C76836   8.012   3.953   7.245  0.2545 -0.1681 -0.2680
  583MOL0     C76837   8.029   4.072   7.331  0.3600  0.1550  0.0448
  583MOL0     C76838   7.905   4.143   7.371 -0.8852 -0.3318  0.1463
  583MOL0     C76839   7.926   4.270   7.457 -0.3209  0.0325 -0.5316
  583MOL0     C76840   7.801   4.345   7.476 -1.7852 -0.1447 -0.1498
  583MOL0     N76841   7.700   4.262   7.545 -1.0460 -0.4971 -0.9644
  583MOL0     C76842   7.697   4.202   7.673  0.0254  0.4439  0.6275
  583MOL0     C76843   7.578   4.138   7.675  1.7462 -0.9429 -0.0232
  583MOL0     C76844   7.518   4.072   7.794 -0.5480 -1.1362 -0.5457
  583MOL0     C76845   7.429   4.172   7.875 -0.6270 -0.4459 -0.0543
  583MOL0     C76846   7.302   4.220   7.816 -0.2787 -0.2946 -0.0009
  583MOL0     C76847   7.221   4.313   7.911  0.4311  0.0536 -0.0269
  583MOL0     O76848   7.110   4.352   7.828 -0.9190 -0.3519 -0.1491
  583MOL0     C76849   7.002   4.406   7.898  0.2151 -0.5423 -0.5029
  583MOL0     C76850   7.001   4.476   8.021 -0.1138 -0.6619 -0.3284
  583MOL0     C76851   6.876   4.517   8.071 -0.7114 -0.0225 -0.1666
  583MOL0     C76852   6.754   4.493   8.008  0.7576 -0.2720  0.0465
  583MOL0     C76853   6.629   4.534   8.069 -0.4280 -0.4610 -0.1225
  583MOL0     O76854   6.634   4.623   8.171  1.0440 -1.0982 -0.6293
  583MOL0     C76855   6.517   4.678   8.202 -0.0230  0.0887 -0.6063
  583MOL0     C76856   6.418   4.607   8.273  0.0428  0.2563  0.0849
  583MOL0     C76857   6.290   4.654   8.314 -0.3240  0.4580 -0.7063
  583MOL0     C76858   6.256   4.782   8.268  0.8659  0.3255 -0.5883
  583MOL0     O76859   6.135   4.830   8.319  0.0059 -0.1997  0.4775
  583MOL0     C76860   6.086   4.950   8.274  0.6712  0.9001  0.1720
  583MOL0     C76861   5.941   4.939   8.286  0.1364 -0.3330 -0.5678
  583MOL0     C76862   5.871   5.059   8.215 -0.1611  0.3009 -0.9811
  583MOL0     C76863   5.721   5.034   8.210 -0.1821 -0.5299  0.8069
  583MOL0     C76864   5.651   5.172   8.207 -0.5833 -0.1033 -0.3471
  583MOL0     C76865   5.509   5.160   8.167 -0.1355  0.4609  0.5892
  583MOL0     C76866   5.455   5.298   8.173 -0.3075 -0.6633  0.4960
  583MOL0     C76867   5.312   5.301   8.140 -0.1660  0.4465  0.3242
  583MOL0    Cl76868   5.271   5.260   7.975 -0.2095  0.1068 -0.4749
  583MOL0     C76869   6.347   4.848   8.180 -0.3564  0.4860  0.2054
  583MOL0     C76870   6.468   4.797   8.145 -0.9315  0.3040 -0.3532
  583MOL0     O76871   6.531   4.476   8.020 -0.3355  0.4669  0.1666
  583MOL0     C76872   6.754   4.412   7.894 -0.5326 -0.5309 -0.1518
  583MOL0     C76873   6.879   4.382   7.836 -0.0644  0.3313 -0.3624
  583MOL0     N76874   7.509   4.145   7.550  0.4823  0.0043 -0.7944
  583MOL0     N76875   7.584   4.229   7.484  1.1131 -0.7033  0.6720
  583MOL0     C76876   7.879   3.350   7.483  0.2251 -0.0058  0.2306
  583MOL0     C76877   7.877   3.223   7.542  0.3094 -0.5307  0.2090
  583MOL0     C76878   7.850   2.785   7.642  0.8220 -0.1636  0.1017
  583MOL0     C76879   7.816   2.697   7.536  0.0299 -0.2171  0.4468
  583MOL0     C76880   7.802   2.562   7.573  0.1923  0.3875  0.1596
  583MOL0     C76881   7.813   2.509   7.699  0.9023  0.4447  0.6653
  583MOL0     O76882   7.794   2.370   7.713  0.9908  0.1103 -0.2600
  583MOL0     C76883   7.691   2.304   7.643  0.4804 -0.3820 -0.1442
  583MOL0     C76884   7.546   2.362   7.661 -0.8202 -0.2290 -0.6927
  583MOL0     C76885   7.473   2.286   7.769 -0.0034  0.5454 -0.2017
  583MOL0     C76886   7.508   2.338   7.910 -0.6233 -0.3470 -0.8076
  583MOL0     C76887   7.438   2.266   8.026  0.1485  0.2635  1.1427
  583MOL0     C76888   7.373   2.214   8.108  0.7021 -0.9495 -0.4905
  583MOL0     C76889   7.841   2.594   7.801 -0.0564  0.3951 -0.3958
  583MOL0     C76890   7.855   2.736   7.776 -0.2724 -0.2896 -0.4214
  583MOL0     H76891   7.942   3.045   7.258 -2.6318  1.2897 -2.5344
  583MOL0     H76892   7.943   3.267   7.162 -1.2463 -2.7021 -0.1789
  583MOL0     H76893   7.940   3.601   7.444  1.1171 -3.6278 -1.4935
  583MOL0     H76894   7.778   3.609   7.377 -0.1300 -1.8433  0.0826
  583MOL0     H76895   7.894   3.706   7.161  0.5130 -0.3234 -0.7259
  583MOL0     H76896   8.048   3.685   7.232 -0.5029 -0.5811  0.1222
  583MOL0     H76897   7.965   3.850   7.427 -0.3028 -0.4853 -0.9165
  583MOL0     H76898   7.823   3.865   7.322 -0.6434  0.2211 -0.9546
  583MOL0     H76899   8.110   3.914   7.215  0.7890 -0.0154  1.1800
  583MOL0     H76900   7.960   3.992   7.156 -2.8887  1.1303  1.9465
  583MOL0     H76901   8.093   4.137   7.270  0.1341  0.8045  0.4958
  583MOL0     H76902   8.079   4.051   7.425  1.7202  2.5005 -0.0849
  583MOL0     H76903   7.838   4.080   7.431  1.5676 -2.8865  0.3971
  583MOL0     H76904   7.854   4.178   7.281 -1.5243  0.9291  0.9715
  583MOL0     H76905   7.957   4.238   7.557  4.7620 -0.5761 -2.0166
  583MOL0     H76906   8.002   4.336   7.414 -1.0546 -0.2393 -2.3244
  583MOL0     H76907   7.764   4.367   7.376 -0.8555  1.1282 -0.2467
  583MOL0     H76908   7.819   4.440   7.528 -0.5274 -1.3855  1.8299
  583MOL0     H76909   7.775   4.205   7.749 -1.3706 -2.2223  2.3183
  583MOL0     H76910   7.601   4.056   7.863  0.3407  3.2149 -0.3214
  583MOL0     H76911   7.459   3.984   7.770 -2.0537 -0.5788  0.9493
  583MOL0     H76912   7.497   4.253   7.906 -0.6069 -0.4237 -0.1564
  583MOL0     H76913   7.403   4.125   7.970  0.6211  1.3348  1.2522
  583MOL0     H76914   7.333   4.270   7.723 -0.6571  0.5223  0.3018
  583MOL0     H76915   7.240   4.133   7.793  0.5564 -1.0434  0.5006
  583MOL0     H76916   7.286   4.396   7.942  1.4443 -2.1677  4.6405
  583MOL0     H76917   7.198   4.253   7.999  0.0385  0.5404  0.2056
  583MOL0     H76918   7.092   4.498   8.075 -0.1623 -1.4800  0.1040
  583MOL0     H76919   6.880   4.550   8.174  2.7694 -3.7782  1.1644
  583MOL0     H76920   6.454   4.513   8.315 -0.5813  0.2449  0.6160
  583MOL0     H76921   6.230   4.593   8.380  1.6985  1.4938  2.2669
  583MOL0     H76922   6.097   4.970   8.167  0.7740  1.0399  0.2078
  583MOL0     H76923   6.132   5.028   8.336  0.3673  2.2302 -1.2223
  583MOL0     H76924   5.900   4.930   8.387 -0.5154 -1.9902 -0.9405
  583MOL0     H76925   5.914   4.853   8.225  1.7118  0.7334 -2.9165
  583MOL0     H76926   5.907   5.059   8.111  0.8814 -1.8118 -0.6857
  583MOL0     H76927   5.898   5.155   8.260 -0.0931  0.0186 -0.4089
  583MOL0     H76928   5.696   4.976   8.121 -0.0231 -1.2661  1.2305
  583MOL0     H76929   5.677   4.985   8.298 -2.6568 -0.0544 -0.0911
  583MOL0     H76930   5.700   5.240   8.137 -0.2216  0.1032  0.1058
  583MOL0     H76931   5.661   5.226   8.302  1.4354  4.7436 -2.9252
  583MOL0     H76932   5.464   5.095   8.243 -0.2919 -1.7159 -1.2474
  583MOL0     H76933   5.493   5.111   8.071  1.4635  0.8145  0.1184
  583MOL0     H76934   5.459   5.351   8.268 -0.8579  0.1037  0.1060
  583MOL0     H76935   5.504   5.357   8.095 -0.3217 -0.3056  0.7534
  583MOL0     H76936   5.270   5.399   8.165  0.8106  0.9131  0.1808
  583MOL0     H76937   5.267   5.237   8.216  0.7784  2.0366  2.3176
  583MOL0     H76938   6.348   4.955   8.160  3.6725  0.5430 -0.1656
  583MOL0     H76939   6.524   4.858   8.075 -0.1329 -0.4188 -0.3607
  583MOL0     H76940   6.661   4.378   7.849  0.6995 -1.3517 -2.2483
  583MOL0     H76941   6.857   4.319   7.750 -0.3691  3.0720 -2.4471
  583MOL0     H76942   7.847   3.440   7.536 -1.1152  0.4478 -1.2720
  583MOL0     H76943   7.857   3.211   7.649 -1.2173 -1.2180 -0.1212
  583MOL0     H76944   7.798   2.723   7.432 -1.7367  0.7086  0.9534
  583MOL0     H76945   7.781   2.503   7.485 -1.0828  0.5638  0.3224
  583MOL0     H76946   7.703   2.201   7.678  3.3558  0.2649  1.0844
  583MOL0     H76947   7.716   2.287   7.538 -1.9485  1.0698 -1.0332
  583MOL0     H76948   7.555   2.470   7.678  3.0641 -0.5103 -0.0346
  583MOL0     H76949   7.492   2.363   7.566 -2.5422  0.3091  0.2588
  583MOL0     H76950   7.503   2.182   7.754  0.1440  0.8186 -1.9545
  583MOL0     H76951   7.364   2.292   7.757  0.1801 -0.1616 -2.5539
  583MOL0     H76952   7.615   2.317   7.918 -0.0889  0.4561 -4.3150
  583MOL0     H76953   7.492   2.446   7.899  1.7911 -0.1566 -3.6241
  583MOL0     H76954   7.323   2.167   8.190  0.3238  0.0106 -0.1654
  583MOL0     H76955   7.876   2.542   7.890 -0.5522 -0.0302 -0.4483
  583MOL0     H76956   7.890   2.806   7.851  3.3993  0.1574 -2.3361
  584MOL0     O76957   5.183   4.492   6.016  0.5410 -0.8765  0.4972
  584MOL0     C76958   5.231   4.553   6.112  0.0947 -0.6486  0.3527
  584MOL0     O76959   5.159   4.610   6.217  0.1801  0.1214  0.0773
  584MOL0     C76960   5.023   4.614   6.214 -0.2709 -0.0535  0.3928
  584MOL0     C76961   4.957   4.644   6.329 -0.3234 -0.2411 -0.5862
  584MOL0     C76962   4.821   4.663   6.336  0.3771  0.8334 -0.9795
  584MOL0     C76963   4.736   4.642   6.219 -0.3998  0.1118  0.0163
  584MOL0     O76964   4.602   4.669   6.227  0.0886 -0.5141 -0.0047
  584MOL0     C76965   4.524   4.665   6.108  0.8918  0.4272 -0.2521
  584MOL0     C76966   4.373   4.685   6.132  0.0418 -0.2240  0.2929
  584MOL0     C76967   4.326   4.637   6.271  0.5646  0.0274  0.5638
  584MOL0     C76968   4.175   4.621   6.271  0.0088 -0.0763 -0.0035
  584MOL0     C76969   4.121   4.607   6.415  0.5191  0.8069 -0.9660
  584MOL0     C76970   4.172   4.482   6.494  0.3911  0.1375  0.2397
  584MOL0     C76971   4.092   4.470   6.634 -0.1557  0.1531 -0.6360
  584MOL0     C76972   4.139   4.372   6.737  0.8116 -1.2145 -0.0605
  584MOL0     N76973   4.107   4.232   6.705  0.4027 -0.0340  0.0146
  584MOL0     C76974   4.000   4.165   6.748 -0.0314 -0.2730 -0.2368
  584MOL0     C76975   4.032   4.036   6.725 -0.4238 -0.1850 -0.5785
  584MOL0     C76976   3.962   3.906   6.758  0.8683 -1.0694  0.5057
  584MOL0     C76977   3.886   3.928   6.889  0.1805 -0.6635 -0.1149
  584MOL0     C76978   3.822   3.813   6.956  0.9144  0.0387  0.2282
  584MOL0     C76979   3.686   3.785   6.884 -0.2017 -0.4892  0.2661
  584MOL0     O76980   3.642   3.653   6.938  0.0003 -0.3020 -0.5775
  584MOL0     C76981   3.516   3.660   6.989  0.4652 -0.4014 -0.1007
  584MOL0     C76982   3.407   3.696   6.904 -0.4588 -0.4370  0.1324
  584MOL0     C76983   3.275   3.708   6.959 -0.1094 -0.1294  0.0037
  584MOL0     C76984   3.254   3.684   7.095  0.1175  0.8767  0.2555
  584MOL0     C76985   3.115   3.698   7.148  0.8190  0.3231  0.3005
  584MOL0     O76986   3.094   3.702   7.276  0.0661  0.3658  0.0207
  584MOL0     C76987   2.963   3.717   7.321 -0.2465  0.7158  0.7203
  584MOL0     C76988   2.869   3.609   7.314 -0.9909 -0.6423 -0.6313
  584MOL0     C76989   2.729   3.625   7.342 -0.4768 -0.6958  0.0174
  584MOL0     C76990   2.681   3.753   7.386  0.3455 -0.9681  0.1211
  584MOL0     O76991   2.550   3.772   7.417  0.5344 -0.4106  0.1032
  584MOL0     C76992   2.486   3.672   7.497 -0.2160 -0.9046  0.1186
  584MOL0     C76993   2.363   3.732   7.570 -0.8480 -0.4560 -0.3491
  584MOL0     C76994   2.255   3.781   7.477 -0.2719 -0.5728  0.7136
  584MOL0     C76995   2.187   3.671   7.402  0.3929  0.3912 -0.3396
  584MOL0     C76996   2.078   3.728   7.316 -0.0482 -0.1031  0.3050
  584MOL0     C76997   1.947   3.789   7.371 -0.5863 -0.8034 -0.3577
  584MOL0     C76998   1.841   3.807   7.265 -0.5766  0.2627 -0.0154
  584MOL0     C76999   1.741   3.911   7.306 -0.1296  0.4716 -0.7260
  584MOL0    Cl77000   1.651   3.844   7.445 -0.0845  0.1557 -0.3078
  584MOL0     C77001   2.780   3.856   7.408  0.7194  0.4553 -0.0162
  584MOL0     C77002   2.915   3.844   7.363  0.3004 -0.1052 -0.0403
  584MOL0     O77003   3.031   3.705   7.064 -0.7382  0.0737  0.3312
  584MOL0     C77004   3.362   3.650   7.181 -0.8834  0.2286  0.9717
  584MOL0     C77005   3.492   3.638   7.124 -0.1526  0.2642  0.3516
  584MOL0     N77006   4.159   4.026   6.674  1.0266  0.4426 -0.1521
  584MOL0     N77007   4.200   4.143   6.656 -0.4491  0.5772  0.5976
  584MOL0     C77008   4.803   4.629   6.110 -0.8223 -0.2362  0.1187
  584MOL0     C77009   4.945   4.616   6.095  0.9070  0.0625 -0.8380
  584MOL0     C77010   5.385   4.561   6.116  0.3662 -0.7877 -0.9021
  584MOL0     C77011   5.444   4.648   6.208 -0.1236 -0.3839 -0.7605
  584MOL0     C77012   5.582   4.648   6.213  0.2525  0.4512  0.1462
  584MOL0     C77013   5.662   4.580   6.121 -1.4673  0.2560 -0.3581
  584MOL0     O77014   5.801   4.606   6.125  0.1496  0.8591 -0.4639
  584MOL0     C77015   5.904   4.517   6.071  0.2383 -0.2165 -0.0055
  584MOL0     C77016   6.017   4.506   6.166 -0.9984 -0.1897  1.1155
  584MOL0     C77017   6.111   4.407   6.112  0.6698 -0.2259 -0.1537
  584MOL0     C77018   6.244   4.402   6.192  0.1405  0.0793  0.1580
  584MOL0     C77019   6.336   4.513   6.152 -0.2721 -0.3190  0.9574
  584MOL0     C77020   6.399   4.612   6.139 -0.4428 -0.1537  0.9602
  584MOL0     C77021   5.605   4.497   6.033 -0.6212  0.3637 -0.2074
  584MOL0     C77022   5.464   4.483   6.030 -0.7261  0.2408  0.0218
  584MOL0     H77023   5.025   4.662   6.412 -1.9968 -0.0331  0.7866
  584MOL0     H77024   4.765   4.687   6.426 -1.3810  0.8801 -2.0441
  584MOL0     H77025   4.540   4.570   6.056  2.1637  0.7924 -0.5517
  584MOL0     H77026   4.563   4.746   6.047  1.6686  0.2752  0.0346
  584MOL0     H77027   4.326   4.632   6.049 -1.8842  1.2409  0.3759
  584MOL0     H77028   4.347   4.791   6.120 -1.2061 -0.3299  1.7815
  584MOL0     H77029   4.355   4.712   6.346 -1.3983  0.9750  0.4641
  584MOL0     H77030   4.374   4.543   6.299  0.2953 -0.6723 -1.2050
  584MOL0     H77031   4.127   4.706   6.222 -1.9637 -1.5409 -0.7320
  584MOL0     H77032   4.140   4.541   6.205 -0.5995  0.2153 -0.0458
  584MOL0     H77033   4.013   4.611   6.399  0.4758  0.1256 -0.9048
  584MOL0     H77034   4.151   4.685   6.486  2.3697 -1.0461  0.4258
  584MOL0     H77035   4.281   4.485   6.499  0.6514 -3.8738 -0.3492
  584MOL0     H77036   4.151   4.387   6.444 -0.1768 -0.0065  0.7212
  584MOL0     H77037   4.085   4.567   6.683  2.4090 -0.5003  1.2212
  584MOL0     H77038   3.992   4.432   6.611  1.0043 -2.3989 -1.8524
  584MOL0     H77039   4.093   4.399   6.832  3.0297  0.7985  0.5391
  584MOL0     H77040   4.244   4.384   6.764  0.2427 -1.3607  2.4921
  584MOL0     H77041   3.921   4.212   6.805  2.3186  1.2308  2.0063
  584MOL0     H77042   4.032   3.822   6.767  1.3855 -0.8699 -1.2727
  584MOL0     H77043   3.896   3.881   6.675 -0.9060 -3.7026  2.5491
  584MOL0     H77044   3.815   4.009   6.874  0.6972 -0.2914 -0.5912
  584MOL0     H77045   3.960   3.965   6.960  0.6861 -3.2426  0.8359
  584MOL0     H77046   3.884   3.723   6.952 -0.0606 -0.5830 -2.2060
  584MOL0     H77047   3.804   3.838   7.061 -1.4791  0.9580 -0.3474
  584MOL0     H77048   3.711   3.777   6.778  3.7316 -0.2494  1.0420
  584MOL0     H77049   3.607   3.860   6.893  1.3709  1.3888 -0.9653
  584MOL0     H77050   3.416   3.718   6.798 -1.4662 -0.0367  0.1181
  584MOL0     H77051   3.192   3.728   6.892  1.8706 -1.5414 -3.0774
  584MOL0     H77052   2.918   3.522   7.271  0.8186  0.6417 -1.2984
  584MOL0     H77053   2.658   3.544   7.331 -2.1051  0.5109  1.2003
  584MOL0     H77054   2.565   3.639   7.564 -0.4322  0.1729  0.9455
  584MOL0     H77055   2.461   3.588   7.433 -1.9542 -0.2391 -0.1477
  584MOL0     H77056   2.378   3.810   7.646 -0.3635 -1.1562  0.2939
  584MOL0     H77057   2.317   3.645   7.618 -0.5521 -1.2800 -1.5054
  584MOL0     H77058   2.315   3.834   7.402  0.4828 -2.0885  0.1968
  584MOL0     H77059   2.184   3.845   7.529  0.8067  1.2741  0.0118
  584MOL0     H77060   2.260   3.621   7.338 -1.0251 -1.0476 -0.9427
  584MOL0     H77061   2.153   3.597   7.476 -2.6806  2.6892  0.7919
  584MOL0     H77062   2.046   3.643   7.255  1.8407 -2.8127  2.8422
  584MOL0     H77063   2.117   3.811   7.255 -1.0771 -0.5832 -1.0694
  584MOL0     H77064   1.980   3.886   7.410  2.8440 -1.7568 -0.6217
  584MOL0     H77065   1.903   3.743   7.460 -0.1754  0.4502  0.5169
  584MOL0     H77066   1.885   3.832   7.168  0.4083  0.4935  0.4775
  584MOL0     H77067   1.784   3.714   7.265 -1.0895  0.5128 -2.1846
  584MOL0     H77068   1.664   3.915   7.229 -1.3501 -1.1168  0.3423
  584MOL0     H77069   1.782   4.009   7.333 -1.9838  1.4049 -1.0908
  584MOL0     H77070   2.741   3.945   7.456 -3.0250 -0.7875 -0.4338
  584MOL0     H77071   2.972   3.936   7.355 -1.3039  1.1000  1.4612
  584MOL0     H77072   3.351   3.642   7.289  0.5963  0.6838  1.1718
  584MOL0     H77073   3.573   3.595   7.183  1.1321  0.0864 -1.4604
  584MOL0     H77074   4.753   4.639   6.014  0.5830  2.0613 -0.4747
  584MOL0     H77075   4.977   4.601   5.992 -1.2604  0.9441 -1.6890
  584MOL0     H77076   5.388   4.721   6.266  1.3937 -0.9994  1.6195
  584MOL0     H77077   5.641   4.713   6.275  0.0401  0.7687  0.0180
  584MOL0     H77078   5.929   4.562   5.974  1.4982  0.9570  0.8124
  584MOL0     H77079   5.865   4.415   6.075  1.1326 -0.5365  1.5177
  584MOL0     H77080   6.067   4.603   6.155  2.4044 -2.0640 -2.6930
  584MOL0     H77081   5.996   4.480   6.270 -0.1726 -0.7482  1.1572
  584MOL0     H77082   6.138   4.421   6.007 -4.8127  0.2800 -1.7984
  584MOL0     H77083   6.058   4.311   6.114 -2.8712  1.4549 -3.0346
  584MOL0     H77084   6.226   4.408   6.299  0.9519  0.3890  0.2820
  584MOL0     H77085   6.294   4.307   6.169 -0.9844 -0.3118 -0.7925
  584MOL0     H77086   6.444   4.706   6.114 -0.1674 -0.1258  1.5562
  584MOL0     H77087   5.669   4.443   5.964  1.3297 -0.1353  1.8698
  584MOL0     H77088   5.417   4.400   5.978 -0.3808 -0.9664  1.5846
  585MOL0     O77089   8.471   8.592   2.304  0.0359 -0.3267  0.0144
  585MOL0     C77090   8.563   8.590   2.384 -0.2775 -0.0545  0.4297
  585MOL0     O77091   8.551   8.572   2.516  0.0075 -0.0278  0.3654
  585MOL0     C77092   8.430   8.562   2.579  1.1764  1.0139 -0.6608
  585MOL0     C77093   8.304   8.508   2.531 -1.4764 -1.1160  1.0518
  585MOL0     C77094   8.193   8.504   2.606  0.1852 -0.4017  0.0618
  585MOL0     C77095   8.196   8.547   2.736  0.2409  0.5514 -0.0584
  585MOL0     O77096   8.087   8.542   2.826  0.3808 -0.2570  0.3732
  585MOL0     C77097   8.005   8.424   2.847 -0.3887  0.0264  0.1810
  585MOL0     C77098   7.853   8.449   2.841  1.2781  0.3024 -0.1892
  585MOL0     C77099   7.829   8.511   2.705  0.4027 -0.7640  0.0569
  585MOL0     C77100   7.685   8.498   2.676  0.5979 -0.4096  0.6221
  585MOL0     C77101   7.644   8.597   2.567  0.4535  0.4068 -0.0466
  585MOL0     C77102   7.494   8.593   2.546  0.2907 -0.6403 -0.7247
  585MOL0     C77103   7.451   8.683   2.430  0.3087 -0.3110 -0.6860
  585MOL0     C77104   7.438   8.840   2.463  0.1416 -0.4576 -0.8138
  585MOL0     N77105   7.339   8.869   2.574  0.4814 -0.5974 -0.0984
  585MOL0     C77106   7.359   8.860   2.709  0.4067  0.2779 -0.0470
  585MOL0     C77107   7.237   8.887   2.761  0.0008  0.6000  0.4693
  585MOL0     C77108   7.204   8.902   2.904 -0.4897 -0.0114  0.0294
  585MOL0     C77109   7.053   8.903   2.927  0.7149 -0.6963 -1.1008
  585MOL0     C77110   7.025   8.885   3.080  1.2037  0.0690  0.5696
  585MOL0     C77111   6.878   8.892   3.114  1.8305  0.2401  0.4455
  585MOL0     O77112   6.802   8.812   3.015  0.5023 -0.0324 -0.5910
  585MOL0     C77113   6.679   8.769   3.055  0.5057 -0.3219 -0.6550
  585MOL0     C77114   6.627   8.649   3.011 -0.0906  0.3340  0.3898
  585MOL0     C77115   6.500   8.601   3.060 -0.1514 -0.1013  0.8283
  585MOL0     C77116   6.422   8.676   3.152  0.2763 -0.7373  0.0738
  585MOL0     C77117   6.287   8.625   3.197  0.5193  0.0897  0.0940
  585MOL0     O77118   6.213   8.711   3.275  0.4203  0.4021 -0.3565
  585MOL0     C77119   6.091   8.667   3.315 -0.2091 -0.0130  0.2306
  585MOL0     C77120   6.078   8.584   3.428  0.0285 -0.0953  0.2100
  585MOL0     C77121   5.957   8.534   3.472  0.1891  0.6860  0.3492
  585MOL0     C77122   5.837   8.547   3.402 -0.7469 -0.2562  0.2142
  585MOL0     O77123   5.717   8.492   3.435 -0.1591  0.7137 -0.3298
  585MOL0     C77124   5.682   8.440   3.560 -0.7317  0.5356 -1.1255
  585MOL0     C77125   5.536   8.470   3.595  0.2645 -1.0169  1.1009
  585MOL0     C77126   5.438   8.373   3.517  0.5021  0.1162  0.1966
  585MOL0     C77127   5.292   8.396   3.551  1.0542  0.0957 -0.0241
  585MOL0     C77128   5.194   8.268   3.533 -0.9708  0.1662 -0.4338
  585MOL0     C77129   5.206   8.190   3.405 -0.9425  0.1789  0.2222
  585MOL0     C77130   5.088   8.082   3.382 -0.5497 -0.1389  0.9142
  585MOL0     C77131   5.117   8.036   3.241  0.0969  1.0183 -0.0917
  585MOL0    Cl77132   5.276   7.953   3.236  0.1393 -0.1456  0.0032
  585MOL0     C77133   5.846   8.628   3.293  0.4658  0.0672 -0.4897
  585MOL0     C77134   5.966   8.691   3.252 -0.2072  0.1817  0.3010
  585MOL0     O77135   6.244   8.518   3.155  0.6994  0.4206 -0.4291
  585MOL0     C77136   6.463   8.806   3.183  0.4926  0.1364  0.3516
  585MOL0     C77137   6.588   8.853   3.137 -0.9048 -0.1590  0.6029
  585MOL0     N77138   7.152   8.895   2.659  0.4066 -0.0016  0.5000
  585MOL0     N77139   7.210   8.876   2.542  0.0426  0.3349  0.7525
  585MOL0     C77140   8.315   8.589   2.793  0.0730 -0.7865  0.1408
  585MOL0     C77141   8.428   8.598   2.717 -0.4956 -0.3345 -0.4381
  585MOL0     C77142   8.696   8.639   2.319  0.3644 -0.3470  0.0512
  585MOL0     C77143   8.807   8.629   2.402 -1.4358  0.1754 -0.3628
  585MOL0     C77144   8.928   8.675   2.350  0.7231  0.4857  0.3547
  585MOL0     C77145   8.937   8.726   2.217  0.8853  1.2699 -0.2220
  585MOL0     O77146   9.054   8.769   2.153  0.0305  0.1838 -0.2293
  585MOL0     C77147   9.183   8.749   2.209 -0.2736 -0.6043  0.1980
  585MOL0     C77148   9.229   8.604   2.229  0.4017 -0.2912  0.3406
  585MOL0     C77149   9.223   8.498   2.112 -0.0178  0.4372 -0.4972
  585MOL0     C77150   9.322   8.515   2.008  0.0174 -0.1110  0.4518
  585MOL0     C77151   9.341   8.401   1.925  0.1588  0.0176 -0.8442
  585MOL0     C77152   9.354   8.295   1.869 -0.5668  0.2516 -0.0252
  585MOL0     C77153   8.820   8.735   2.144  0.2670 -0.8522 -0.2491
  585MOL0     C77154   8.695   8.694   2.193  0.3880  0.2067 -0.4861
  585MOL0     H77155   8.289   8.483   2.426 -0.1694  1.3557  0.1833
  585MOL0     H77156   8.107   8.453   2.564 -0.0650 -1.6035  1.9420
  585MOL0     H77157   8.039   8.376   2.940 -0.3538  0.8646  0.6062
  585MOL0     H77158   8.024   8.355   2.764 -1.2969  0.8630 -0.7439
  585MOL0     H77159   7.830   8.521   2.920  0.2517 -0.2004 -0.0085
  585MOL0     H77160   7.807   8.352   2.864  3.8426 -0.7182  0.9778
  585MOL0     H77161   7.891   8.459   2.631  1.8649  0.4563  0.3803
  585MOL0     H77162   7.857   8.617   2.699  2.4363 -1.3384 -1.9361
  585MOL0     H77163   7.668   8.392   2.652 -0.7761  0.0099 -0.3626
  585MOL0     H77164   7.618   8.523   2.759  1.6051 -0.1103  1.3718
  585MOL0     H77165   7.692   8.566   2.474 -0.2859 -1.1200  0.0447
  585MOL0     H77166   7.678   8.698   2.588 -0.4151  0.8266 -0.6027
  585MOL0     H77167   7.452   8.630   2.640 -0.5092 -0.3575 -1.1797
  585MOL0     H77168   7.453   8.494   2.526 -0.0067 -0.2305 -2.2526
  585MOL0     H77169   7.527   8.670   2.352  0.6695 -1.8515 -0.1143
  585MOL0     H77170   7.356   8.642   2.393 -0.0274 -1.4170  1.2446
  585MOL0     H77171   7.414   8.886   2.367  2.3613 -0.7277 -1.5595
  585MOL0     H77172   7.530   8.890   2.496 -0.0389 -0.6387 -0.0202
  585MOL0     H77173   7.450   8.825   2.757  0.9768  1.3749 -0.3187
  585MOL0     H77174   7.248   9.000   2.925 -1.3753  0.5271 -0.5193
  585MOL0     H77175   7.243   8.819   2.963 -0.1254 -1.3457 -1.9662
  585MOL0     H77176   7.012   8.814   2.880  1.0937 -2.4783  1.7103
  585MOL0     H77177   7.012   8.987   2.871  1.3372  0.1996 -0.2495
  585MOL0     H77178   7.058   8.787   3.116 -2.5263 -1.8177 -0.5741
  585MOL0     H77179   7.065   8.969   3.138  0.5455  0.1827  0.8786
  585MOL0     H77180   6.836   8.993   3.109 -0.1871 -0.5816  0.0387
  585MOL0     H77181   6.859   8.856   3.215 -1.1354 -0.1222 -0.1551
  585MOL0     H77182   6.690   8.593   2.943  1.6131  0.9845  1.3552
  585MOL0     H77183   6.474   8.505   3.018 -0.9333  0.3068  0.3435
  585MOL0     H77184   6.165   8.559   3.489 -1.3364 -0.0869  2.2419
  585MOL0     H77185   5.962   8.460   3.552  0.4200 -1.5345 -1.6039
  585MOL0     H77186   5.739   8.496   3.635 -3.3962  1.4800  0.3169
  585MOL0     H77187   5.717   8.337   3.570  1.7206  1.3530 -0.5942
  585MOL0     H77188   5.508   8.573   3.569  3.4148  0.1518  1.8768
  585MOL0     H77189   5.545   8.443   3.701  1.1189  0.2014  1.3673
  585MOL0     H77190   5.464   8.267   3.525  0.5505 -0.2712 -3.4517
  585MOL0     H77191   5.445   8.405   3.412 -2.1769  0.3572  0.0452
  585MOL0     H77192   5.284   8.406   3.660 -1.0538 -1.4007  0.0109
  585MOL0     H77193   5.246   8.483   3.502  0.4811  1.8006  3.2641
  585MOL0     H77194   5.093   8.301   3.557 -0.7167  1.0161 -0.5246
  585MOL0     H77195   5.221   8.197   3.612 -0.3034 -0.3981 -1.1536
  585MOL0     H77196   5.306   8.147   3.399 -1.4337 -1.6483  3.2894
  585MOL0     H77197   5.197   8.264   3.324  0.1219 -1.4482 -1.4630
  585MOL0     H77198   5.093   7.995   3.448 -1.4308 -0.3497  0.7214
  585MOL0     H77199   4.984   8.117   3.391 -0.0012  2.1003 -0.3984
  585MOL0     H77200   5.111   8.121   3.172  0.4633 -0.6801 -2.3432
  585MOL0     H77201   5.048   7.955   3.212 -0.0688  0.9998  0.3422
  585MOL0     H77202   5.758   8.651   3.235  1.0671  0.3457 -1.3105
  585MOL0     H77203   5.960   8.753   3.164  0.7129 -0.3580 -0.1542
  585MOL0     H77204   6.389   8.863   3.237 -1.1090 -0.3779 -1.1953
  585MOL0     H77205   6.616   8.956   3.156  1.3769  0.0161 -2.8216
  585MOL0     H77206   8.314   8.619   2.897  0.9072  1.3228 -0.4172
  585MOL0     H77207   8.519   8.633   2.766 -0.3183 -0.5722 -0.5938
  585MOL0     H77208   8.803   8.581   2.499 -1.3113 -1.7804 -1.2700
  585MOL0     H77209   9.017   8.665   2.412  1.6121  0.3789 -0.8801
  585MOL0     H77210   9.202   8.809   2.298 -2.1229 -0.0083  0.2285
  585MOL0     H77211   9.251   8.783   2.130 -1.9274  0.2498 -0.9087
  585MOL0     H77212   9.334   8.611   2.256  0.5524  2.1618 -0.6006
  585MOL0     H77213   9.172   8.560   2.312  1.2214 -1.7827  0.1535
  585MOL0     H77214   9.121   8.505   2.071 -1.3826 -0.8728  2.4060
  585MOL0     H77215   9.219   8.402   2.164 -0.4915  0.9177  0.3730
  585MOL0     H77216   9.304   8.601   1.943  0.2278 -0.7274 -0.4440
  585MOL0     H77217   9.412   8.532   2.067 -0.5168 -1.5097  1.7478
  585MOL0     H77218   9.352   8.193   1.838 -0.3115  0.4963 -0.8705
  585MOL0     H77219   8.834   8.769   2.041  1.2851 -0.1296  0.1059
  585MOL0     H77220   8.603   8.707   2.135  1.5348  0.0829 -2.4378
  586MOL0     O77221   3.624   9.885   5.569 -0.2807 -0.8823 -0.3319
  586MOL0     C77222   3.679   9.835   5.471 -0.0011 -0.8487  0.0886
  586MOL0     O77223   3.637   9.841   5.343  0.0131  0.1582 -0.0565
  586MOL0     C77224   3.528   9.905   5.307 -0.6219 -1.0171  0.1627
  586MOL0     C77225   3.469   9.860   5.190  0.7697  0.2075 -0.1150
  586MOL0     C77226   3.358   9.917   5.136 -0.7664  0.5178  0.2937
  586MOL0     C77227   3.299  10.027   5.187 -0.2770  0.0573  0.3665
  586MOL0     O77228   3.194  10.104   5.133  0.1344 -0.0840 -0.1775
  586MOL0     C77229   3.151  10.071   5.002 -0.2689 -0.2870 -0.2206
  586MOL0     C77230   3.041  10.173   4.942  0.1323  0.5766 -0.5191
  586MOL0     C77231   2.906  10.140   5.006  0.6363 -0.5338 -0.9431
  586MOL0     C77232   2.814  10.263   4.998 -0.1938  0.0166  0.2125
  586MOL0     C77233   2.664  10.232   5.028  0.6091 -0.0641 -0.2090
  586MOL0     C77234   2.588  10.143   4.933 -0.4319 -0.5634  0.1206
  586MOL0     C77235   2.435  10.124   4.970 -0.6472  0.2965 -0.7818
  586MOL0     C77236   2.341  10.247   4.951 -0.6209 -0.7737  0.4408
  586MOL0     N77237   2.200  10.207   4.988 -0.0789  0.1934  0.8402
  586MOL0     C77238   2.120  10.124   4.903 -0.8055 -0.1285  0.3214
  586MOL0     C77239   2.004  10.124   4.961  0.6701 -0.0537  0.2664
  586MOL0     C77240   1.892  10.052   4.897  0.2843 -0.0624  0.0154
  586MOL0     C77241   1.831   9.948   4.999  0.8251 -0.0729 -0.8995
  586MOL0     C77242   1.715   9.862   4.928 -0.0294 -0.6984 -0.1742
  586MOL0     C77243   1.631   9.778   5.021 -0.9625  1.0425  0.4368
  586MOL0     O77244   1.579   9.873   5.112 -0.4269  0.0225 -0.4627
  586MOL0     C77245   1.493   9.840   5.207 -0.0802  0.2305  0.3269
  586MOL0     C77246   1.429   9.708   5.203  0.1812  0.3687 -0.0019
  586MOL0     C77247   1.333   9.673   5.303 -0.8562 -0.1105  0.0088
  586MOL0     C77248   1.308   9.762   5.412  0.6299 -0.0529 -0.0832
  586MOL0     C77249   1.210   9.741   5.519 -0.1641  0.3201 -0.2439
  586MOL0     O77250   1.123   9.629   5.504  0.3610  0.9766 -0.4529
  586MOL0     C77251   1.000   9.623   5.574  0.1887 -0.4157  0.5205
  586MOL0     C77252   0.950   9.498   5.611 -1.0072 -0.2941  0.7221
  586MOL0     C77253   0.826   9.480   5.662  0.0424 -0.1725 -0.0988
  586MOL0     C77254   0.734   9.589   5.673 -0.5341 -1.1316  0.3542
  586MOL0     O77255   0.606   9.569   5.714 -0.3732 -0.3518 -0.0796
  586MOL0     C77256   0.518   9.682   5.732 -0.9527 -0.8541 -0.0139
  586MOL0     C77257   0.399   9.611   5.797  0.9512 -0.4142 -0.5007
  586MOL0     C77258   0.305   9.730   5.851 -0.3894 -0.3065  0.7497
  586MOL0     C77259   0.172   9.679   5.916 -0.1718  0.3945 -0.3625
  586MOL0     C77260   0.087   9.793   5.979  0.6208 -0.6448 -0.3921
  586MOL0     C77261  -0.062   9.739   6.013 -0.5518 -0.0327 -0.3378
  586MOL0     C77262  -0.158   9.850   6.047  0.4438 -0.2603  0.0797
  586MOL0     C77263  -0.260   9.900   5.941 -0.2448  0.6270 -0.1658
  586MOL0    Cl77264  -0.158   9.933   5.801 -0.2637 -0.4968  0.0597
  586MOL0     C77265   0.784   9.714   5.635 -0.1377 -0.6921  0.3726
  586MOL0     C77266   0.919   9.730   5.575 -0.2497  0.0415  0.5408
  586MOL0     O77267   1.197   9.824   5.615  0.5545  0.7490  0.7557
  586MOL0     C77268   1.390   9.878   5.421  0.5239 -0.9488  0.1836
  586MOL0     C77269   1.475   9.920   5.321 -0.3421  0.7283  0.0712
  586MOL0     N77270   2.014  10.202   5.079  0.4841 -0.9949  0.2618
  586MOL0     N77271   2.128  10.254   5.097 -0.3493 -0.5999  0.2554
  586MOL0     C77272   3.354  10.086   5.307 -0.2922 -0.2256  0.1673
  586MOL0     C77273   3.468  10.022   5.369  1.1957 -0.3025 -0.4502
  586MOL0     C77274   3.814   9.775   5.501 -0.6716 -0.0051  0.2152
  586MOL0     C77275   3.905   9.765   5.389  0.2365  1.0711  0.2619
  586MOL0     C77276   4.034   9.721   5.396  0.9113 -0.0060 -0.5187
  586MOL0     C77277   4.083   9.681   5.530 -0.3911 -0.1501  0.4114
  586MOL0     O77278   4.211   9.642   5.550 -0.6542 -0.2358 -0.7684
  586MOL0     C77279   4.278   9.609   5.431  0.3865  0.4256  0.2793
  586MOL0     C77280   4.422   9.584   5.458  0.0230 -0.2372  0.3716
  586MOL0     C77281   4.456   9.454   5.533  0.0272 -0.2169  0.8438
  586MOL0     C77282   4.415   9.469   5.683  0.2010  0.5382 -0.2452
  586MOL0     C77283   4.516   9.410   5.769  0.7095  0.0810 -0.2830
  586MOL0     C77284   4.591   9.355   5.850 -0.6374  0.2829  0.7546
  586MOL0     C77285   4.002   9.701   5.641  0.1379  0.8822  0.4467
  586MOL0     C77286   3.867   9.749   5.630 -0.2001 -0.2834 -0.2262
  586MOL0     H77287   3.513   9.775   5.139 -0.8819 -1.0693  0.4789
  586MOL0     H77288   3.319   9.871   5.046  0.2166 -1.0993  0.6693
  586MOL0     H77289   3.107   9.971   5.009 -2.8104  0.8228  1.1668
  586MOL0     H77290   3.235  10.067   4.932 -0.0709  1.0242 -0.0816
  586MOL0     H77291   3.021  10.159   4.835 -3.2351 -0.5786  0.1425
  586MOL0     H77292   3.080  10.273   4.964  1.1736 -0.1867  1.2721
  586MOL0     H77293   2.923  10.121   5.112 -0.2583 -2.5966 -1.1239
  586MOL0     H77294   2.864  10.053   4.954  1.6340 -0.2381 -2.3109
  586MOL0     H77295   2.859  10.339   5.062  0.9529  2.3527 -3.1548
  586MOL0     H77296   2.831  10.313   4.903 -1.5321  1.5111  0.7190
  586MOL0     H77297   2.616  10.330   5.041 -0.1267 -0.5377  0.8135
  586MOL0     H77298   2.671  10.181   5.125  1.6512  0.4980  0.0266
  586MOL0     H77299   2.634  10.045   4.917 -3.2624 -2.1765  1.3560
  586MOL0     H77300   2.581  10.190   4.834  2.2044 -3.1877 -1.5009
  586MOL0     H77301   2.402  10.030   4.925  4.0446 -2.6363  1.1866
  586MOL0     H77302   2.427  10.103   5.077  0.1150 -0.1183 -0.8003
  586MOL0     H77303   2.338  10.283   4.848 -1.5139 -0.7747  0.4620
  586MOL0     H77304   2.368  10.333   5.013 -1.7590  1.1482 -1.5865
  586MOL0     H77305   2.157  10.084   4.810  1.0923 -1.3398  1.5235
  586MOL0     H77306   1.919  10.006   4.802  0.1324  0.4917 -0.2976
  586MOL0     H77307   1.802  10.111   4.877 -0.6757 -1.4337  0.1305
  586MOL0     H77308   1.797  10.004   5.086  1.2967 -2.6230  1.0697
  586MOL0     H77309   1.906   9.875   5.031  1.0698 -0.1296 -1.5702
  586MOL0     H77310   1.639   9.925   4.882 -2.3028 -2.5732  0.8032
  586MOL0     H77311   1.755   9.792   4.854  1.8115 -0.3542  0.4468
  586MOL0     H77312   1.695   9.703   5.070  0.9844  0.7398 -2.3251
  586MOL0     H77313   1.548   9.727   4.974  0.2214 -1.0940  0.5459
  586MOL0     H77314   1.444   9.636   5.123 -1.9996 -0.6134  0.3779
  586MOL0     H77315   1.274   9.582   5.299 -1.7662  0.4912 -0.4806
  586MOL0     H77316   1.015   9.413   5.592  2.9032  2.9754 -1.9973
  586MOL0     H77317   0.806   9.379   5.695  0.9038 -1.2111 -2.5236
  586MOL0     H77318   0.487   9.733   5.640 -2.4337 -1.8431 -0.0984
  586MOL0     H77319   0.559   9.748   5.809 -0.0306 -1.5871  0.1398
  586MOL0     H77320   0.423   9.554   5.888 -0.1168  0.6424  0.4673
  586MOL0     H77321   0.335   9.543   5.740 -1.4011 -2.6451  4.1757
  586MOL0     H77322   0.289   9.810   5.778  1.1218 -0.6249  0.0232
  586MOL0     H77323   0.351   9.774   5.940 -0.9022  1.9715 -0.0452
  586MOL0     H77324   0.109   9.636   5.837 -0.2158 -0.5392  0.1707
  586MOL0     H77325   0.180   9.605   5.996 -4.1106  0.8649  0.6823
  586MOL0     H77326   0.078   9.878   5.911 -2.2924 -1.2504 -0.9120
  586MOL0     H77327   0.128   9.829   6.074  0.3691 -1.4939  0.0594
  586MOL0     H77328  -0.070   9.666   6.093 -2.0640 -0.2340 -0.6431
  586MOL0     H77329  -0.084   9.679   5.924 -0.4121 -1.7443  0.7372
  586MOL0     H77330  -0.232   9.815   6.120 -0.3761 -0.3308 -0.7573
  586MOL0     H77331  -0.100   9.927   6.098  2.6728 -2.6556  1.3917
  586MOL0     H77332  -0.337   9.973   5.968 -3.5449 -2.6292  0.0536
  586MOL0     H77333  -0.325   9.815   5.916  0.8717 -0.6091  0.9851
  586MOL0     H77334   0.717   9.798   5.646 -1.2334 -1.3992 -0.6620
  586MOL0     H77335   0.932   9.834   5.545 -2.7552  0.6629  1.4272
  586MOL0     H77336   1.387   9.945   5.507  0.2150 -2.3509  1.3154
  586MOL0     H77337   1.528  10.014   5.311  1.6828 -0.2757  0.6970
  586MOL0     H77338   3.312  10.176   5.351  0.3681 -0.4566  1.2898
  586MOL0     H77339   3.507  10.056   5.465 -2.1477  0.4993  0.7581
  586MOL0     H77340   3.860   9.786   5.293 -0.8337 -0.1939  0.4579
  586MOL0     H77341   4.078   9.717   5.297  1.6819 -0.8450 -0.1517
  586MOL0     H77342   4.269   9.688   5.356 -1.1070 -0.0145 -0.0441
  586MOL0     H77343   4.244   9.514   5.387  1.7338 -2.0761  4.0901
  586MOL0     H77344   4.459   9.572   5.356  1.2010 -1.9111  0.9646
  586MOL0     H77345   4.469   9.673   5.503 -0.2038  0.9869 -1.6881
  586MOL0     H77346   4.565   9.447   5.531 -0.0299 -1.6359  1.4303
  586MOL0     H77347   4.406   9.369   5.484  1.8012 -0.3498 -0.8597
  586MOL0     H77348   4.400   9.573   5.711  3.8781  1.3793 -0.8968
  586MOL0     H77349   4.328   9.405   5.701  0.7703 -0.9289 -2.3530
  586MOL0     H77350   4.657   9.303   5.917  1.3848  0.5513 -0.9410
  586MOL0     H77351   4.038   9.666   5.738  1.8782  0.4341 -0.3300
  586MOL0     H77352   3.809   9.759   5.721 -0.1189  0.1277 -0.2172
  587MOL0     O77353   9.619   6.106   1.806  0.0126 -0.7549  0.0536
  587MOL0     C77354   9.585   6.011   1.744  0.7388  0.5387 -0.5402
  587MOL0     O77355   9.467   5.941   1.763 -0.4135  0.1097 -0.0091
  587MOL0     C77356   9.390   5.975   1.863  0.0067  0.1112  0.4522
  587MOL0     C77357   9.301   6.073   1.830 -0.0916 -0.7151  0.0770
  587MOL0     C77358   9.222   6.129   1.932  0.3128  0.5012  1.1546
  587MOL0     C77359   9.223   6.073   2.062  0.2949 -0.2694  0.0422
  587MOL0     O77360   9.123   6.100   2.151 -0.8659  0.0091 -0.2171
  587MOL0     C77361   9.141   6.197   2.254 -0.9557  0.4249  0.0715
  587MOL0     C77362   9.014   6.281   2.264  1.3422  0.9049 -0.6563
  587MOL0     C77363   8.884   6.195   2.270  0.3007 -0.1033  1.2525
  587MOL0     C77364   8.757   6.279   2.313  0.3713 -0.5488 -0.8032
  587MOL0     C77365   8.640   6.197   2.346 -0.2229 -0.2291 -0.2636
  587MOL0     C77366   8.525   6.278   2.408 -1.3294 -0.3732  0.7661
  587MOL0     C77367   8.392   6.225   2.356 -0.6231 -0.2918  0.3133
  587MOL0     C77368   8.281   6.321   2.403 -0.2547 -0.4436 -0.1821
  587MOL0     N77369   8.152   6.286   2.342 -0.1234 -0.8307  0.0140
  587MOL0     C77370   8.131   6.268   2.208  0.9669  0.1167 -0.3983
  587MOL0     C77371   8.007   6.220   2.198 -0.2735 -0.4462 -0.6751
  587MOL0     C77372   7.949   6.183   2.075  0.6148  0.0167  0.3730
  587MOL0     C77373   7.795   6.184   2.063  0.6988  0.3044  0.2640
  587MOL0     C77374   7.760   6.159   1.908 -0.7070 -0.6587  0.0404
  587MOL0     C77375   7.617   6.107   1.891  0.3439  0.3117 -0.3991
  587MOL0     O77376   7.630   5.963   1.880  0.3255  0.0156 -0.1576
  587MOL0     C77377   7.516   5.892   1.855 -0.4182 -0.2495 -0.5478
  587MOL0     C77378   7.383   5.938   1.857  0.0750 -0.0786  0.8462
  587MOL0     C77379   7.273   5.852   1.836 -0.8374  0.1338 -0.2504
  587MOL0     C77380   7.296   5.722   1.797  0.1987  0.1680 -0.6322
  587MOL0     C77381   7.180   5.629   1.757 -0.3018 -0.3354  0.4085
  587MOL0     O77382   7.052   5.682   1.759  0.3579  0.4735 -0.5912
  587MOL0     C77383   6.954   5.613   1.696 -0.1635 -0.2064  0.4352
  587MOL0     C77384   6.968   5.555   1.566 -0.0710 -0.0251  0.2184
  587MOL0     C77385   6.851   5.499   1.512 -0.3589  0.7661 -0.7095
  587MOL0     C77386   6.726   5.514   1.573 -0.8239 -0.0787  0.1254
  587MOL0     O77387   6.609   5.476   1.511 -0.6688  0.0343  0.6872
  587MOL0     C77388   6.611   5.420   1.373  0.3978 -1.0251 -0.2390
  587MOL0     C77389   6.478   5.389   1.320  0.2623 -0.9298  0.7525
  587MOL0     C77390   6.380   5.305   1.405 -0.0038  0.3713 -0.5675
  587MOL0     C77391   6.230   5.307   1.361 -0.1091 -0.2992  0.0112
  587MOL0     C77392   6.149   5.243   1.470 -0.5929 -0.4219  2.2592
  587MOL0     C77393   6.005   5.210   1.421 -0.4175  0.2572  0.0121
  587MOL0     C77394   5.901   5.312   1.470  0.5182  0.1913 -0.1376
  587MOL0     C77395   5.760   5.283   1.409  0.9249 -0.1569 -0.8183
  587MOL0    Cl77396   5.695   5.135   1.483 -0.3738 -0.3712 -0.2395
  587MOL0     C77397   6.722   5.583   1.696  0.5847 -0.0281 -0.3246
  587MOL0     C77398   6.832   5.629   1.757 -0.2513 -0.3598 -0.3465
  587MOL0     O77399   7.212   5.529   1.699 -0.1308  0.9038 -0.1687
  587MOL0     C77400   7.428   5.678   1.801  0.3050 -0.3403 -0.1450
  587MOL0     C77401   7.535   5.762   1.831 -0.5233  0.2587  0.1793
  587MOL0     N77402   7.956   6.205   2.327 -0.1443 -1.1316  0.0955
  587MOL0     N77403   8.035   6.258   2.413 -0.1555  0.5335  0.0190
  587MOL0     C77404   9.326   5.988   2.094  0.1133 -0.1316  1.4827
  587MOL0     C77405   9.405   5.932   1.993 -0.1509  0.5611  0.2123
  587MOL0     C77406   9.659   5.981   1.613 -0.4132 -0.5432  1.3512
  587MOL0     C77407   9.614   5.876   1.529 -0.3143 -0.0033 -0.1523
  587MOL0     C77408   9.668   5.853   1.402  0.2678 -0.3065 -0.7813
  587MOL0     C77409   9.781   5.920   1.363 -0.1344 -0.3160 -0.3523
  587MOL0     O77410   9.853   5.906   1.244 -0.4298 -0.7414 -0.3980
  587MOL0     C77411   9.820   5.810   1.147 -0.4663 -0.0248  0.0623
  587MOL0     C77412   9.696   5.845   1.065 -0.5341 -0.5876  0.1800
  587MOL0     C77413   9.733   5.948   0.954 -0.7986  0.1764 -0.3875
  587MOL0     C77414   9.777   6.082   1.019 -0.1300 -0.0824  0.7028
  587MOL0     C77415   9.797   6.183   0.913 -0.1419  1.2641  0.3743
  587MOL0     C77416   9.831   6.261   0.829  0.0117 -0.5497 -0.3439
  587MOL0     C77417   9.829   6.021   1.446 -1.4244 -0.6598 -0.3085
  587MOL0     C77418   9.768   6.055   1.569 -0.0450 -0.5245  0.7128
  587MOL0     H77419   9.303   6.103   1.726 -0.9226  1.6095  0.6598
  587MOL0     H77420   9.146   6.203   1.908  1.6510  1.1943 -1.2269
  587MOL0     H77421   9.224   6.266   2.243 -1.2484  0.5411 -1.5470
  587MOL0     H77422   9.155   6.147   2.351  0.5617 -0.3318 -0.5164
  587MOL0     H77423   9.010   6.342   2.173  2.5723 -0.4712 -1.6831
  587MOL0     H77424   9.022   6.343   2.353  0.7019  1.8806 -1.2547
  587MOL0     H77425   8.896   6.112   2.340  2.3792 -0.3087  0.7229
  587MOL0     H77426   8.871   6.157   2.168 -0.0808 -0.2518  1.3544
  587MOL0     H77427   8.779   6.330   2.407 -1.6550 -0.8589 -0.1107
  587MOL0     H77428   8.730   6.351   2.235 -1.5088 -1.5076 -1.0973
  587MOL0     H77429   8.671   6.124   2.422  1.8226 -0.4708 -1.2637
  587MOL0     H77430   8.621   6.128   2.263  0.2952  0.7606 -1.2120
  587MOL0     H77431   8.526   6.373   2.355  2.3272 -0.9851 -0.5865
  587MOL0     H77432   8.536   6.281   2.517 -0.0056 -1.8353  0.7039
  587MOL0     H77433   8.394   6.223   2.247  0.0165 -1.4351  0.3284
  587MOL0     H77434   8.379   6.132   2.412  1.5817 -0.1861  1.1168
  587MOL0     H77435   8.299   6.427   2.383 -2.3835 -0.3805 -2.1468
  587MOL0     H77436   8.259   6.300   2.508  2.3401  0.1230  0.5385
  587MOL0     H77437   8.205   6.290   2.131  1.5851 -2.0027 -0.4855
  587MOL0     H77438   7.985   6.081   2.058 -3.2112 -1.2474 -1.1607
  587MOL0     H77439   7.986   6.256   2.003  0.6708 -1.9985 -1.7411
  587MOL0     H77440   7.752   6.281   2.092  0.5466 -0.2695  2.0910
  587MOL0     H77441   7.751   6.106   2.126 -2.6875  2.1462  0.4425
  587MOL0     H77442   7.784   6.254   1.858 -1.4349  0.0177  0.9471
  587MOL0     H77443   7.835   6.087   1.874  1.6204 -0.6845  4.5407
  587MOL0     H77444   7.566   6.136   1.799 -2.3791 -3.1551 -0.1876
  587MOL0     H77445   7.552   6.133   1.975  1.6851 -0.6107  0.9623
  587MOL0     H77446   7.367   6.044   1.873 -0.2593 -0.1401  0.9321
  587MOL0     H77447   7.171   5.889   1.845 -0.8919 -0.2512  0.8870
  587MOL0     H77448   7.063   5.564   1.513 -0.8593  1.3361 -1.0650
  587MOL0     H77449   6.852   5.439   1.421  0.3443 -0.5732  0.1614
  587MOL0     H77450   6.669   5.327   1.371  1.7165 -0.2204 -1.5477
  587MOL0     H77451   6.664   5.492   1.309  0.2454  0.0994  0.8671
  587MOL0     H77452   6.493   5.341   1.223 -0.4146 -0.7465  0.5499
  587MOL0     H77453   6.430   5.485   1.300 -0.2672 -1.3042  0.1864
  587MOL0     H77454   6.373   5.358   1.501 -0.6837  1.7888 -1.3839
  587MOL0     H77455   6.415   5.201   1.407  0.5511  0.4963 -2.2079
  587MOL0     H77456   6.196   5.409   1.338  1.6700 -0.2185 -2.5833
  587MOL0     H77457   6.227   5.253   1.267  0.1640 -1.1935  0.5027
  587MOL0     H77458   6.162   5.295   1.565  1.5971 -0.7074  2.1790
  587MOL0     H77459   6.191   5.144   1.489  1.2569 -0.3491 -0.7315
  587MOL0     H77460   5.990   5.110   1.462  0.9522 -0.0343 -0.1282
  587MOL0     H77461   5.998   5.202   1.313 -1.1607  1.8661 -0.0841
  587MOL0     H77462   5.896   5.317   1.579  1.8615 -0.8391  0.0079
  587MOL0     H77463   5.928   5.412   1.437  0.2723  0.3684  0.1859
  587MOL0     H77464   5.774   5.268   1.301 -1.5612 -3.4364 -0.8624
  587MOL0     H77465   5.683   5.358   1.427 -0.6873 -1.8855 -0.1547
  587MOL0     H77466   6.631   5.621   1.742  1.0868  0.5695  0.2016
  587MOL0     H77467   6.825   5.684   1.850 -0.6215 -1.6196  0.4020
  587MOL0     H77468   7.447   5.573   1.779  0.2885 -0.7229  1.5489
  587MOL0     H77469   7.632   5.715   1.827 -1.0960 -0.8235 -2.6519
  587MOL0     H77470   9.339   5.964   2.199  0.6580 -3.2884  0.8015
  587MOL0     H77471   9.476   5.859   2.029  1.3688  2.0067  0.2696
  587MOL0     H77472   9.538   5.806   1.560 -0.5369 -1.4983 -3.5805
  587MOL0     H77473   9.627   5.777   1.337  0.5967 -0.3312 -0.9614
  587MOL0     H77474   9.808   5.712   1.194 -1.9024  0.0556 -0.0973
  587MOL0     H77475   9.905   5.794   1.080  0.5208 -0.7908  1.4511
  587MOL0     H77476   9.650   5.754   1.026 -1.1235 -0.1038 -0.2716
  587MOL0     H77477   9.617   5.885   1.128 -2.3748 -1.9988 -1.1444
  587MOL0     H77478   9.645   5.959   0.889 -1.3532 -0.5364  0.2273
  587MOL0     H77479   9.812   5.904   0.893  1.5616  0.3135  2.3778
  587MOL0     H77480   9.706   6.108   1.097  0.1455  0.4883  0.7713
  587MOL0     H77481   9.875   6.090   1.067  1.2098  3.5912 -2.1309
  587MOL0     H77482   9.854   6.345   0.766 -1.7920  1.1619  1.1618
  587MOL0     H77483   9.914   6.069   1.399 -0.5761 -2.9229 -1.2554
  587MOL0     H77484   9.804   6.134   1.635  1.1397 -1.1290  0.8241
  588MOL0     O77485   9.309   4.761   5.693 -0.0037 -0.1077  0.8094
  588MOL0     C77486   9.404   4.688   5.706 -0.5875 -0.4042  0.0442
  588MOL0     O77487   9.407   4.580   5.789 -0.2306  0.0922  0.4072
  588MOL0     C77488   9.288   4.539   5.856  0.1049  0.4630  0.2357
  588MOL0     C77489   9.253   4.409   5.853  0.3906 -0.2928  0.3303
  588MOL0     C77490   9.135   4.366   5.914  0.6939  1.0757 -0.2301
  588MOL0     C77491   9.049   4.457   5.976 -0.1316 -0.5619 -0.2765
  588MOL0     O77492   8.928   4.427   6.028  0.4674  0.3234  0.0619
  588MOL0     C77493   8.857   4.309   5.981 -0.0421  0.6657  0.2289
  588MOL0     C77494   8.705   4.333   6.015 -0.1536 -0.0842  0.1541
  588MOL0     C77495   8.627   4.227   5.941  0.0170 -0.0540 -1.0894
  588MOL0     C77496   8.478   4.277   5.940  0.2948 -0.1168 -0.3058
  588MOL0     C77497   8.422   4.328   5.810 -0.4573  1.1444 -0.0827
  588MOL0     C77498   8.274   4.363   5.794 -0.4524  0.2235 -0.0842
  588MOL0     C77499   8.253   4.429   5.657 -0.7431  0.1294 -0.1084
  588MOL0     C77500   8.129   4.509   5.653 -0.6227 -0.5594  0.4462
  588MOL0     N77501   8.007   4.430   5.645 -0.3754  0.2660  0.1913
  588MOL0     C77502   7.897   4.441   5.723  0.1459  0.5274 -0.7882
  588MOL0     C77503   7.806   4.353   5.669  0.2163 -0.8253 -0.1560
  588MOL0     C77504   7.667   4.318   5.692 -0.6935 -0.4640  0.0455
  588MOL0     C77505   7.645   4.233   5.820 -0.4007  0.5421 -0.2516
  588MOL0     C77506   7.739   4.113   5.814  0.3632  0.1356  0.4104
  588MOL0     C77507   7.708   4.029   5.938 -1.3600 -0.0499  0.5423
  588MOL0     O77508   7.730   4.097   6.065  0.1783 -0.3507 -0.3201
  588MOL0     C77509   7.860   4.099   6.108 -1.4747  0.5414  0.0429
  588MOL0     C77510   7.932   4.219   6.123  0.1170 -0.2740  0.1700
  588MOL0     C77511   8.061   4.225   6.167 -0.7678 -0.1261  0.3990
  588MOL0     C77512   8.126   4.106   6.199  0.3957 -0.5852 -0.1718
  588MOL0     C77513   8.261   4.105   6.253  0.3218 -0.6937  0.1584
  588MOL0     O77514   8.326   3.990   6.268  0.1264 -0.3890  0.2825
  588MOL0     C77515   8.452   3.984   6.317 -0.5025  0.4920  1.1703
  588MOL0     C77516   8.550   4.073   6.274  0.4326 -0.3910 -0.0335
  588MOL0     C77517   8.679   4.068   6.320 -0.2461  0.2740  0.2683
  588MOL0     C77518   8.718   3.966   6.403  0.5291 -0.8298 -0.4165
  588MOL0     O77519   8.853   3.978   6.439  0.9223 -0.2449 -0.1441
  588MOL0     C77520   8.908   3.878   6.513  1.1364  0.1182 -0.3870
  588MOL0     C77521   8.888   3.903   6.666  1.1134 -1.0504 -0.2238
  588MOL0     C77522   8.945   4.049   6.686 -0.1636  0.1365  0.1620
  588MOL0     C77523   8.944   4.096   6.832 -0.0743  0.1532  0.4387
  588MOL0     C77524   9.083   4.085   6.902 -0.7912 -0.3326 -0.4283
  588MOL0     C77525   9.145   3.940   6.900 -0.6967 -0.3503  0.3766
  588MOL0     C77526   9.272   3.933   6.979 -0.2541 -0.1532  0.0625
  588MOL0     C77527   9.332   3.785   6.986 -0.7988 -0.1647  0.3328
  588MOL0    Cl77528   9.390   3.736   6.827  0.2299 -0.0157  0.0762
  588MOL0     C77529   8.622   3.872   6.447 -1.0185 -0.4721  0.6300
  588MOL0     C77530   8.490   3.880   6.408  0.0096 -0.3875  0.1408
  588MOL0     O77531   8.313   4.218   6.267 -0.1799 -0.0898  0.1935
  588MOL0     C77532   8.067   3.978   6.169 -0.2193  0.8573 -1.5586
  588MOL0     C77533   7.938   3.980   6.137 -0.6465 -0.4936 -0.2215
  588MOL0     N77534   7.873   4.298   5.559  0.3023 -0.1399  0.6096
  588MOL0     N77535   7.992   4.339   5.548  0.1131 -0.0316 -0.4198
  588MOL0     C77536   9.087   4.584   5.980  0.0283 -0.1387  0.0201
  588MOL0     C77537   9.203   4.628   5.926 -0.2419  0.4004  0.0389
  588MOL0     C77538   9.517   4.716   5.626 -1.0772  0.0001 -0.0427
  588MOL0     C77539   9.509   4.786   5.505 -0.0837  0.5747  0.0289
  588MOL0     C77540   9.624   4.817   5.438 -0.2836 -0.0339  1.4912
  588MOL0     C77541   9.750   4.788   5.490 -0.4377  0.2994  0.9064
  588MOL0     O77542   9.857   4.823   5.404 -0.8148  0.1466  0.2892
  588MOL0     C77543   9.994   4.796   5.444 -0.7675  0.0818  0.2116
  588MOL0     C77544  10.091   4.844   5.338  0.0605  0.8882  0.2906
  588MOL0     C77545  10.144   4.992   5.345 -1.5030 -0.3134  0.0408
  588MOL0     C77546  10.257   5.020   5.440  0.2231  0.3510 -0.3423
  588MOL0     C77547  10.381   4.950   5.397 -0.1520 -0.3496 -0.3065
  588MOL0     C77548  10.484   4.908   5.354 -0.7852  0.1910  0.5407
  588MOL0     C77549   9.757   4.714   5.610 -0.5895 -0.5380 -0.4943
  588MOL0     C77550   9.640   4.683   5.676  0.5836  0.0242  0.7577
  588MOL0     H77551   9.311   4.347   5.785 -3.3332 -1.5670 -1.9585
  588MOL0     H77552   9.102   4.263   5.903  1.1777  0.9646 -0.7276
  588MOL0     H77553   8.888   4.215   6.026 -2.1248 -0.9445 -1.4592
  588MOL0     H77554   8.868   4.308   5.872  0.4783 -1.0142  0.2665
  588MOL0     H77555   8.671   4.429   5.974 -1.3104 -0.5265  0.0478
  588MOL0     H77556   8.683   4.328   6.122 -1.4652 -0.8672 -0.1295
  588MOL0     H77557   8.634   4.130   5.992 -1.7723 -0.8634 -2.2839
  588MOL0     H77558   8.663   4.216   5.839 -0.8167 -2.1783 -1.2195
  588MOL0     H77559   8.414   4.192   5.963 -0.1134  0.0392 -0.8297
  588MOL0     H77560   8.465   4.355   6.016 -0.8342 -2.4844  2.0803
  588MOL0     H77561   8.455   4.257   5.733 -0.1066  1.6062 -0.3681
  588MOL0     H77562   8.474   4.423   5.794 -3.2272  3.1049  1.6145
  588MOL0     H77563   8.253   4.430   5.877 -0.9069  1.4351 -1.1538
  588MOL0     H77564   8.219   4.269   5.794 -0.5694  0.1611 -3.7944
  588MOL0     H77565   8.335   4.501   5.646  0.3323 -1.0733 -0.2214
  588MOL0     H77566   8.266   4.360   5.573 -2.7656  0.6680 -0.9311
  588MOL0     H77567   8.138   4.580   5.570  1.2746 -1.4809 -0.1948
  588MOL0     H77568   8.122   4.560   5.749  0.6955  0.3085  0.1185
  588MOL0     H77569   7.890   4.507   5.809 -0.0035 -1.3765  0.7327
  588MOL0     H77570   7.628   4.264   5.605  0.7791  2.4765 -2.6429
  588MOL0     H77571   7.607   4.408   5.708  0.6427  0.1760  1.8397
  588MOL0     H77572   7.542   4.199   5.833 -0.6515  1.0381 -0.9029
  588MOL0     H77573   7.676   4.293   5.906 -1.0362 -1.7438  1.6926
  588MOL0     H77574   7.726   4.053   5.723 -0.1369 -0.7336  1.0443
  588MOL0     H77575   7.844   4.143   5.817 -0.0146  1.4987  0.8722
  588MOL0     H77576   7.773   3.941   5.931 -0.9891  0.1639  1.1911
  588MOL0     H77577   7.603   4.001   5.945 -1.3174 -0.2719  0.2978
  588MOL0     H77578   7.870   4.306   6.100 -0.1092 -0.7412 -1.0662
  588MOL0     H77579   8.111   4.318   6.190 -1.7418  0.3146  0.7365
  588MOL0     H77580   8.530   4.148   6.199 -0.1377 -0.4806  0.0271
  588MOL0     H77581   8.755   4.136   6.286  2.4349 -1.9988  1.3280
  588MOL0     H77582   9.017   3.872   6.507  1.2418  0.1331  1.1077
  588MOL0     H77583   8.872   3.780   6.479  0.7131  0.3264 -0.5397
  588MOL0     H77584   8.941   3.832   6.731  1.0651  3.0999  5.0000
  588MOL0     H77585   8.780   3.900   6.685  0.3965 -0.3043 -3.5895
  588MOL0     H77586   8.878   4.120   6.636 -1.7961 -1.2275  0.2857
  588MOL0     H77587   9.045   4.061   6.645  0.7328 -1.8858  1.5964
  588MOL0     H77588   8.910   4.200   6.827 -0.1472  0.0762 -1.1123
  588MOL0     H77589   8.867   4.036   6.880 -1.8309  1.9289 -0.0113
  588MOL0     H77590   9.062   4.101   7.008 -0.3117 -5.6794  0.7342
  588MOL0     H77591   9.146   4.157   6.849 -1.3448 -1.0784 -2.1787
  588MOL0     H77592   9.176   3.918   6.798  2.3756 -0.0336  1.1393
  588MOL0     H77593   9.078   3.861   6.933  0.1021 -1.1674  0.0926
  588MOL0     H77594   9.348   3.994   6.927  0.3162 -0.8310  0.0792
  588MOL0     H77595   9.268   3.980   7.078  2.6996  0.1623  0.1371
  588MOL0     H77596   9.265   3.704   7.019 -0.6489 -1.3504 -2.0301
  588MOL0     H77597   9.407   3.777   7.065 -2.1880 -2.3851  1.5468
  588MOL0     H77598   8.644   3.780   6.501 -0.2675 -1.2013 -0.8716
  588MOL0     H77599   8.414   3.809   6.438 -1.1863 -0.0665 -1.9263
  588MOL0     H77600   8.121   3.884   6.179  1.8043  2.0100 -1.0505
  588MOL0     H77601   7.901   3.879   6.124 -1.9219 -0.3901  2.0571
  588MOL0     H77602   9.018   4.655   6.023  0.0451 -0.4031  0.4865
  588MOL0     H77603   9.232   4.732   5.935 -1.9588  0.7225  3.3526
  588MOL0     H77604   9.420   4.835   5.467  1.1483  3.2399  0.3787
  588MOL0     H77605   9.623   4.879   5.349 -1.7873 -0.5404  1.1206
  588MOL0     H77606  10.016   4.691   5.463  0.1326  0.3991  1.0328
  588MOL0     H77607  10.030   4.850   5.532  2.3811 -1.7903  0.2153
  588MOL0     H77608  10.171   4.771   5.351  0.8441  1.8686  1.1746
  588MOL0     H77609  10.042   4.826   5.242 -0.4739  1.4804  0.4429
  588MOL0     H77610  10.056   5.050   5.372  0.0522  1.8988  0.5941
  588MOL0     H77611  10.188   5.027   5.251  0.9198 -0.3064  1.1246
  588MOL0     H77612  10.273   5.128   5.429 -0.2410  0.2286 -2.7560
  588MOL0     H77613  10.227   5.000   5.543  0.6123  2.3284  0.1940
  588MOL0     H77614  10.575   4.866   5.316 -0.2066  1.8323  0.0485
  588MOL0     H77615   9.853   4.696   5.657 -0.4325 -0.0789 -0.6269
  588MOL0     H77616   9.651   4.627   5.768 -0.2161 -0.9166  0.2965
  589MOL0     O77617   5.135   6.287   1.445 -0.2930  0.0151 -0.6490
  589MOL0     C77618   5.098   6.317   1.333  0.1854 -0.1945  0.0055
  589MOL0     O77619   5.105   6.234   1.226  0.5014  0.6553 -0.0567
  589MOL0     C77620   5.157   6.108   1.252  0.1169 -0.2692  0.2390
  589MOL0     C77621   5.072   5.993   1.228 -1.0367 -0.0597  0.6380
  589MOL0     C77622   5.132   5.865   1.238  0.2200  0.5098 -0.3586
  589MOL0     C77623   5.262   5.850   1.290  0.5128 -0.2253  0.9729
  589MOL0     O77624   5.329   5.733   1.298  0.6892 -0.5858 -0.4526
  589MOL0     C77625   5.259   5.623   1.373  0.1150 -0.5582  0.3136
  589MOL0     C77626   5.350   5.514   1.430  0.2804 -0.7280 -0.2449
  589MOL0     C77627   5.269   5.431   1.532  0.0051 -0.4819  0.3450
  589MOL0     C77628   5.341   5.308   1.593  0.2093  0.4675 -0.2478
  589MOL0     C77629   5.246   5.244   1.698 -0.3758  0.7454  0.5505
  589MOL0     C77630   5.317   5.138   1.776  0.4177 -0.0965  0.0268
  589MOL0     C77631   5.212   5.054   1.871 -0.5033 -0.1418  0.9365
  589MOL0     C77632   5.178   5.124   1.998 -0.2896  0.2274  0.6487
  589MOL0     N77633   5.130   5.023   2.103 -0.4076  0.0739  0.2359
  589MOL0     C77634   5.210   4.956   2.193  0.1326  0.0810 -0.8762
  589MOL0     C77635   5.118   4.870   2.250  0.2007 -0.0811 -0.4824
  589MOL0     C77636   5.152   4.788   2.367  0.5574 -0.4942  0.1454
  589MOL0     C77637   5.129   4.639   2.358 -0.0943  0.0099  1.0527
  589MOL0     C77638   5.216   4.586   2.248  0.2256  0.2676 -0.8633
  589MOL0     C77639   5.186   4.442   2.233 -0.3892 -0.4071 -0.2211
  589MOL0     O77640   5.078   4.414   2.146  0.4931 -0.0652 -0.3595
  589MOL0     C77641   4.946   4.399   2.191  0.1676  1.1736  0.6764
  589MOL0     C77642   4.848   4.397   2.092 -0.0863  0.5786  0.6394
  589MOL0     C77643   4.715   4.387   2.126  0.3962  0.0974 -0.4147
  589MOL0     C77644   4.674   4.373   2.258 -0.5320  0.7796  0.5247
  589MOL0     C77645   4.528   4.369   2.283  0.5844  0.6552  0.3996
  589MOL0     O77646   4.441   4.400   2.188  0.4665 -0.5177  0.4571
  589MOL0     C77647   4.316   4.430   2.229 -0.6221 -0.6469 -0.6306
  589MOL0     C77648   4.287   4.523   2.339 -0.4220 -0.0730  0.0796
  589MOL0     C77649   4.150   4.562   2.361 -0.3022 -0.6210  0.2725
  589MOL0     C77650   4.050   4.495   2.289  0.0378 -0.4026  0.1344
  589MOL0     O77651   3.924   4.542   2.322  0.1803  0.2787 -1.0006
  589MOL0     C77652   3.815   4.460   2.280 -0.4361  0.6479 -0.6927
  589MOL0     C77653   3.691   4.540   2.334  0.3011  0.8365  0.0682
  589MOL0     C77654   3.564   4.461   2.322 -0.2443 -0.0459 -0.3071
  589MOL0     C77655   3.457   4.543   2.399 -0.3564  0.8775  0.0406
  589MOL0     C77656   3.340   4.451   2.418  0.2338 -0.1795 -0.1069
  589MOL0     C77657   3.223   4.515   2.491  0.1452  0.0391 -1.1930
  589MOL0     C77658   3.096   4.442   2.466 -0.2587  1.1433  0.4299
  589MOL0     C77659   2.980   4.486   2.556 -0.3875 -0.3220  0.0205
  589MOL0    Cl77660   2.823   4.402   2.522 -0.1831  0.1723  0.4510
  589MOL0     C77661   4.083   4.401   2.195  0.1238 -0.3853  1.2932
  589MOL0     C77662   4.215   4.368   2.168  0.0102  0.4200 -0.5328
  589MOL0     O77663   4.502   4.343   2.400  0.6571  0.2397 -0.4847
  589MOL0     C77664   4.773   4.374   2.359 -0.4661 -0.0773 -0.3951
  589MOL0     C77665   4.912   4.387   2.327  0.4615 -0.3877  0.7407
  589MOL0     N77666   4.994   4.906   2.212  0.4155  1.0287 -0.1287
  589MOL0     N77667   4.995   4.987   2.116 -0.2226  0.9144  0.3088
  589MOL0     C77668   5.345   5.962   1.317  0.4505 -0.0026 -0.5368
  589MOL0     C77669   5.292   6.089   1.291 -0.1179  0.0781  0.1283
  589MOL0     C77670   5.043   6.451   1.314  0.3854 -0.8424  0.5848
  589MOL0     C77671   5.006   6.493   1.192  0.0457 -0.2240  0.5747
  589MOL0     C77672   4.963   6.625   1.172  0.1605 -0.8213  0.3456
  589MOL0     C77673   4.932   6.712   1.278  0.0405  0.3289  0.3855
  589MOL0     O77674   4.883   6.844   1.261  0.3866  0.0251 -0.1463
  589MOL0     C77675   4.832   6.880   1.125 -0.0917 -0.1581 -0.2658
  589MOL0     C77676   4.783   7.028   1.129 -0.4048 -0.5694  0.4855
  589MOL0     C77677   4.788   7.072   0.976  0.2021 -0.3071  0.4935
  589MOL0     C77678   4.687   7.186   0.945 -0.2561  0.2116  0.4469
  589MOL0     C77679   4.725   7.241   0.816 -0.5465 -0.7827  0.2667
  589MOL0     C77680   4.767   7.292   0.715 -0.3810 -0.2361 -0.5497
  589MOL0     C77681   4.949   6.661   1.405 -0.3346  0.0039  0.2490
  589MOL0     C77682   5.004   6.531   1.420  0.3717  0.2484 -1.0947
  589MOL0     H77683   4.977   6.000   1.176 -0.2376 -0.7764 -0.9929
  589MOL0     H77684   5.080   5.779   1.199  0.2363 -1.1350  2.9352
  589MOL0     H77685   5.190   5.566   1.311  0.6763 -1.3561  0.4036
  589MOL0     H77686   5.202   5.669   1.454 -0.5571 -0.6478 -0.0996
  589MOL0     H77687   5.431   5.555   1.492  2.3281 -2.7720 -1.4120
  589MOL0     H77688   5.398   5.462   1.346 -0.5797 -1.1241 -0.4994
  589MOL0     H77689   5.178   5.401   1.481  0.2529  1.2459 -1.2279
  589MOL0     H77690   5.241   5.498   1.614 -1.3823 -1.2161  0.4950
  589MOL0     H77691   5.358   5.234   1.515  0.5377  0.5299 -0.2363
  589MOL0     H77692   5.432   5.337   1.646  0.8421 -1.7679 -0.0088
  589MOL0     H77693   5.154   5.210   1.649 -0.8818  2.7520  0.0120
  589MOL0     H77694   5.226   5.321   1.773 -2.1941  0.0370  0.8179
  589MOL0     H77695   5.400   5.181   1.832  1.2863 -1.4918 -0.1239
  589MOL0     H77696   5.357   5.056   1.714 -0.9647 -1.0830  0.3798
  589MOL0     H77697   5.117   5.032   1.821  0.2197  2.9847 -2.2139
  589MOL0     H77698   5.258   4.958   1.897 -3.8122 -1.4515  2.5355
  589MOL0     H77699   5.110   5.206   1.971  0.6199  1.5319  2.1004
  589MOL0     H77700   5.269   5.169   2.039  0.2685 -2.4392  2.6309
  589MOL0     H77701   5.316   4.945   2.211 -0.4675 -0.4475  3.0656
  589MOL0     H77702   5.090   4.839   2.441  2.4212  3.1131 -0.5541
  589MOL0     H77703   5.254   4.813   2.398  1.1506  1.9404 -3.1460
  589MOL0     H77704   5.023   4.627   2.334  0.2878  1.4502 -1.8713
  589MOL0     H77705   5.152   4.602   2.458 -0.3529  0.3451  1.2375
  589MOL0     H77706   5.202   4.636   2.152 -0.8827  1.0526 -0.3104
  589MOL0     H77707   5.324   4.584   2.268  0.0494 -1.5007  0.1645
  589MOL0     H77708   5.167   4.404   2.334 -0.4236 -3.0334 -1.1336
  589MOL0     H77709   5.267   4.378   2.195 -0.2377 -1.9772  2.4599
  589MOL0     H77710   4.864   4.413   1.986 -1.9842 -1.9968 -0.1432
  589MOL0     H77711   4.637   4.374   2.051 -1.8950  0.5860  1.7545
  589MOL0     H77712   4.355   4.572   2.407 -1.1528 -0.3356  1.0141
  589MOL0     H77713   4.129   4.635   2.439 -1.3277 -1.8374  1.1899
  589MOL0     H77714   3.804   4.364   2.330 -4.5375  0.7568 -1.0443
  589MOL0     H77715   3.811   4.452   2.171 -0.9298 -1.0661 -0.5731
  589MOL0     H77716   3.673   4.626   2.270 -3.1887  0.2560  0.0858
  589MOL0     H77717   3.699   4.565   2.441 -0.8339  0.4728  0.2544
  589MOL0     H77718   3.589   4.363   2.364 -0.1616 -1.1748 -2.7794
  589MOL0     H77719   3.547   4.434   2.217 -0.9113  0.9384 -0.4659
  589MOL0     H77720   3.501   4.568   2.496 -1.3460  0.7076  0.5502
  589MOL0     H77721   3.427   4.632   2.343 -1.4527  0.4760 -0.0373
  589MOL0     H77722   3.368   4.369   2.485 -1.2190  0.0525  0.8271
  589MOL0     H77723   3.302   4.425   2.319 -0.9720  1.2477 -0.0426
  589MOL0     H77724   3.220   4.621   2.466  1.4924  0.8634  1.6400
  589MOL0     H77725   3.238   4.510   2.600  0.5821 -0.3295 -1.2699
  589MOL0     H77726   3.066   4.464   2.363  2.1088 -2.1133 -1.1454
  589MOL0     H77727   3.117   4.334   2.474 -2.8810  0.4640 -0.6441
  589MOL0     H77728   2.963   4.594   2.548 -1.9500 -0.3824  1.8492
  589MOL0     H77729   2.993   4.463   2.662 -0.7143 -3.7851 -0.5860
  589MOL0     H77730   4.006   4.349   2.140 -0.2025  2.3359 -1.0536
  589MOL0     H77731   4.243   4.284   2.105  0.8676 -2.7626  3.5791
  589MOL0     H77732   4.744   4.367   2.464 -0.1379  1.2394 -0.2078
  589MOL0     H77733   4.981   4.386   2.410  2.1942 -2.4874 -0.5867
  589MOL0     H77734   5.443   5.948   1.361 -0.1124 -1.0409  0.4346
  589MOL0     H77735   5.359   6.171   1.315  1.1564 -1.9334  4.6304
  589MOL0     H77736   5.018   6.442   1.097 -1.5964  3.3994 -1.7939
  589MOL0     H77737   4.950   6.649   1.067  0.7794 -2.6193 -0.1738
  589MOL0     H77738   4.750   6.813   1.097 -0.3988 -0.4752  1.2835
  589MOL0     H77739   4.916   6.866   1.057  0.8138  0.4666  0.6817
  589MOL0     H77740   4.681   7.046   1.162  0.3587  1.5341  1.8905
  589MOL0     H77741   4.848   7.091   1.190 -0.0443 -0.9411  0.4943
  589MOL0     H77742   4.775   6.993   0.902 -1.2688  0.5242 -0.1907
  589MOL0     H77743   4.888   7.115   0.964  0.2062  0.3569  2.5673
  589MOL0     H77744   4.579   7.164   0.952 -0.8614  2.2511 -1.4567
  589MOL0     H77745   4.705   7.258   1.025  0.4009  2.3641 -1.5436
  589MOL0     H77746   4.803   7.328   0.621 -1.6006 -0.7165 -1.2191
  589MOL0     H77747   4.918   6.715   1.494 -2.6416  1.9432 -1.6122
  589MOL0     H77748   5.002   6.474   1.512 -2.0476  1.4826 -0.3015
  590MOL0     O77749   6.422   1.363   7.776 -0.6100  0.1994 -0.5797
  590MOL0     C77750   6.378   1.400   7.883 -0.3153 -0.3118 -0.3142
  590MOL0     O77751   6.261   1.473   7.898  0.6452 -0.3699 -0.2089
  590MOL0     C77752   6.202   1.501   7.782 -0.0856  0.1687 -0.3103
  590MOL0     C77753   6.243   1.616   7.715  0.5431 -0.1204 -0.1430
  590MOL0     C77754   6.168   1.662   7.602 -0.6324  0.0166 -0.4353
  590MOL0     C77755   6.083   1.580   7.530 -1.4316  0.2291 -0.5852
  590MOL0     O77756   6.038   1.599   7.405 -0.0122 -0.1632  0.5187
  590MOL0     C77757   6.059   1.729   7.346  0.8348 -0.5384 -0.7046
  590MOL0     C77758   5.996   1.717   7.203  0.4937  0.3927 -0.1020
  590MOL0     C77759   6.012   1.855   7.137  0.8380 -0.7382  0.2899
  590MOL0     C77760   5.957   1.863   6.996  0.0992 -0.2986  0.0297
  590MOL0     C77761   5.989   1.992   6.924  0.0588 -0.2953 -0.4166
  590MOL0     C77762   5.864   2.054   6.850  0.0167 -0.7850  0.5729
  590MOL0     C77763   5.913   2.137   6.735  1.0155 -0.8986 -0.2030
  590MOL0     C77764   5.791   2.186   6.651  0.0008  0.1329 -0.0007
  590MOL0     N77765   5.738   2.317   6.699 -0.5419 -0.1675  0.6738
  590MOL0     C77766   5.821   2.424   6.686  0.3049 -0.1476  0.2691
  590MOL0     C77767   5.752   2.529   6.734 -0.4218 -0.3983 -0.3062
  590MOL0     C77768   5.809   2.664   6.751  0.1600  0.8496 -1.0158
  590MOL0     C77769   5.815   2.696   6.899  0.1753 -0.3182 -0.7254
  590MOL0     C77770   5.914   2.621   6.991  1.1636 -0.2345 -0.2629
  590MOL0     C77771   6.057   2.641   6.929  0.1721  0.3078  0.2322
  590MOL0     O77772   6.091   2.529   6.852  0.6961  0.0193  0.5804
  590MOL0     C77773   6.225   2.509   6.833  0.4661  1.0256 -0.2044
  590MOL0     C77774   6.264   2.371   6.841 -0.0189  0.7036  0.8166
  590MOL0     C77775   6.405   2.338   6.834  0.2242 -0.2378 -0.3487
  590MOL0     C77776   6.500   2.442   6.808 -0.3542 -0.6398 -0.0618
  590MOL0     C77777   6.646   2.421   6.810 -0.8027  0.5571 -0.4659
  590MOL0     O77778   6.724   2.527   6.812  0.9278 -0.4125 -0.2039
  590MOL0     C77779   6.861   2.520   6.832 -0.6066 -1.0016  0.0934
  590MOL0     C77780   6.917   2.451   6.944 -0.3633 -0.0122 -0.7404
  590MOL0     C77781   7.058   2.434   6.948  0.3165 -0.0008 -0.3097
  590MOL0     C77782   7.139   2.492   6.846 -0.5028 -0.1470 -0.1666
  590MOL0     O77783   7.270   2.454   6.848 -0.3921 -0.6830 -0.5265
  590MOL0     C77784   7.371   2.562   6.845 -0.2623 -0.4217 -0.0540
  590MOL0     C77785   7.516   2.527   6.886  0.1631 -0.3824  0.2425
  590MOL0     C77786   7.525   2.454   7.016  0.2247 -0.0222  0.9270
  590MOL0     C77787   7.678   2.422   7.046  0.1815 -0.9749 -0.5591
  590MOL0     C77788   7.690   2.317   7.156  0.1594 -0.4341  0.4358
  590MOL0     C77789   7.820   2.348   7.248 -0.4950  0.3765  0.3354
  590MOL0     C77790   7.942   2.322   7.162  0.8200  0.8351 -0.0637
  590MOL0     C77791   8.058   2.374   7.237 -0.7455  0.1081  0.4499
  590MOL0    Cl77792   8.110   2.288   7.379 -0.2466  0.3167  0.0302
  590MOL0     C77793   7.083   2.553   6.734  0.4494 -0.3635 -0.2444
  590MOL0     C77794   6.950   2.574   6.737 -0.4022  0.1490  0.6255
  590MOL0     O77795   6.686   2.303   6.802  0.0616 -0.5924  0.0003
  590MOL0     C77796   6.453   2.573   6.796  0.1291 -0.7930  0.6437
  590MOL0     C77797   6.317   2.609   6.818 -0.0496 -0.4295  0.1459
  590MOL0     N77798   5.621   2.486   6.747  0.2843 -0.4021 -0.1534
  590MOL0     N77799   5.613   2.358   6.729 -0.1341  0.8770 -0.8608
  590MOL0     C77800   6.045   1.466   7.604 -0.5240  0.9875  0.4605
  590MOL0     C77801   6.105   1.422   7.723  0.4933 -0.5062 -0.7849
  590MOL0     C77802   6.450   1.374   8.006  0.7569 -0.3443 -0.6057
  590MOL0     C77803   6.579   1.324   8.003  0.1856  0.3414  0.2044
  590MOL0     C77804   6.655   1.312   8.118  0.2412  0.1889 -0.2475
  590MOL0     C77805   6.598   1.343   8.242 -0.2909  0.0355 -0.0644
  590MOL0     O77806   6.668   1.327   8.362 -0.0229  0.0206 -0.0763
  590MOL0     C77807   6.795   1.396   8.375 -1.0820 -0.3202  0.5386
  590MOL0     C77808   6.919   1.306   8.370  0.1665  0.2538 -0.3932
  590MOL0     C77809   6.918   1.206   8.492 -0.8446  0.1823 -0.1086
  590MOL0     C77810   7.051   1.151   8.521 -0.5297  0.9976  0.5087
  590MOL0     C77811   7.142   1.255   8.573 -0.0599 -0.4938 -0.2711
  590MOL0     C77812   7.221   1.342   8.610 -0.2389  0.6557 -0.4237
  590MOL0     C77813   6.474   1.400   8.244 -0.0567  0.0699  0.4058
  590MOL0     C77814   6.393   1.419   8.132 -0.4446  0.4011  0.0542
  590MOL0     H77815   6.326   1.678   7.747 -0.4302  0.3231  1.7074
  590MOL0     H77816   6.216   1.752   7.566  0.9501 -0.4300  0.4826
  590MOL0     H77817   6.162   1.768   7.348  0.4770  0.6840  2.8232
  590MOL0     H77818   6.007   1.807   7.403 -0.1446 -2.6592  1.4655
  590MOL0     H77819   5.891   1.692   7.219  0.0540  1.0126 -1.8345
  590MOL0     H77820   6.045   1.637   7.147  0.2756 -0.0240  0.2906
  590MOL0     H77821   6.117   1.885   7.123  1.0123 -1.0573  0.8977
  590MOL0     H77822   5.958   1.931   7.194 -1.4370 -0.7860 -1.6520
  590MOL0     H77823   5.998   1.786   6.930  0.7526 -0.8034  0.9936
  590MOL0     H77824   5.848   1.860   7.003  0.1150 -0.4527  0.2195
  590MOL0     H77825   6.076   1.992   6.857 -0.3448  1.3160 -0.9767
  590MOL0     H77826   6.017   2.064   7.002 -1.2234 -1.2379  0.9874
  590MOL0     H77827   5.800   2.113   6.916  1.4021 -0.1071  1.3636
  590MOL0     H77828   5.806   1.978   6.797 -0.3539  0.6548 -1.2053
  590MOL0     H77829   5.967   2.227   6.766 -0.5193  0.0773 -0.3023
  590MOL0     H77830   5.978   2.078   6.670  0.6983 -0.7510 -0.6558
  590MOL0     H77831   5.709   2.112   6.652  1.5145 -1.6130  0.2497
  590MOL0     H77832   5.831   2.205   6.551  0.9711  1.1346  0.5609
  590MOL0     H77833   5.928   2.419   6.671  0.3604  1.9313 -0.2989
  590MOL0     H77834   5.746   2.732   6.692 -1.5267 -2.4591 -3.3727
  590MOL0     H77835   5.913   2.668   6.717 -0.2084 -0.4580 -2.3766
  590MOL0     H77836   5.719   2.694   6.951  0.5450 -1.6589 -0.0433
  590MOL0     H77837   5.851   2.800   6.905 -1.1301  0.1184 -0.0973
  590MOL0     H77838   5.919   2.683   7.080  0.3854 -0.3947 -0.1008
  590MOL0     H77839   5.893   2.516   7.016  2.8000  0.1859  3.4681
  590MOL0     H77840   6.135   2.658   7.004  0.1979 -1.6291  0.6949
  590MOL0     H77841   6.052   2.734   6.870  1.4039 -1.0710 -2.1753
  590MOL0     H77842   6.183   2.299   6.842 -0.1790  0.8185 -1.2347
  590MOL0     H77843   6.436   2.234   6.833 -0.6529 -0.5039 -0.6186
  590MOL0     H77844   6.848   2.415   7.020 -1.3132  2.3112 -0.4200
  590MOL0     H77845   7.100   2.384   7.035 -0.5913  1.3431  0.9575
  590MOL0     H77846   7.338   2.637   6.917  1.9191  1.3447 -0.7793
  590MOL0     H77847   7.379   2.619   6.751  0.4409  1.0861  0.8826
  590MOL0     H77848   7.581   2.615   6.887  1.3368 -1.1672 -1.5563
  590MOL0     H77849   7.558   2.475   6.799 -3.6730  0.7297 -2.5363
  590MOL0     H77850   7.484   2.358   6.985  1.9889 -0.4223 -0.3179
  590MOL0     H77851   7.479   2.513   7.096  1.6205  1.1598  0.9103
  590MOL0     H77852   7.725   2.383   6.955 -0.2208 -0.1246 -1.1489
  590MOL0     H77853   7.735   2.511   7.075 -0.5104 -0.7427  0.1378
  590MOL0     H77854   7.683   2.219   7.109 -1.7320  0.0467 -0.3684
  590MOL0     H77855   7.598   2.320   7.216 -1.5753  3.6568 -2.0211
  590MOL0     H77856   7.827   2.283   7.336  1.6533  2.6130  1.9491
  590MOL0     H77857   7.831   2.454   7.272  4.5060  0.6998 -2.1331
  590MOL0     H77858   7.952   2.216   7.138 -1.6816  0.2533  1.1653
  590MOL0     H77859   7.947   2.377   7.068  1.4917  0.2406 -0.3798
  590MOL0     H77860   8.047   2.479   7.265 -3.3265 -0.0916  0.3936
  590MOL0     H77861   8.143   2.372   7.168  0.3462  2.7929  1.5704
  590MOL0     H77862   7.137   2.601   6.653 -1.2495 -1.2832 -2.0122
  590MOL0     H77863   6.899   2.633   6.661  1.1622  2.7742  1.4641
  590MOL0     H77864   6.521   2.657   6.789 -1.2368  0.2958  0.0233
  590MOL0     H77865   6.280   2.711   6.809 -3.3807 -1.4808  0.3482
  590MOL0     H77866   5.969   1.405   7.556  1.0791  0.7790 -1.9435
  590MOL0     H77867   6.056   1.331   7.758 -0.5190 -0.2561 -1.4881
  590MOL0     H77868   6.619   1.300   7.905 -0.0330  0.9193 -0.0309
  590MOL0     H77869   6.757   1.278   8.101  0.3653  1.8924 -4.0224
  590MOL0     H77870   6.797   1.443   8.474  1.0345 -1.8079  1.2720
  590MOL0     H77871   6.812   1.473   8.300 -0.9698  1.4128  2.2772
  590MOL0     H77872   6.915   1.257   8.272  0.9138 -0.8956  0.1378
  590MOL0     H77873   7.012   1.363   8.377 -0.3193  0.8658  1.8535
  590MOL0     H77874   6.849   1.125   8.467  0.7292 -1.0865 -0.5116
  590MOL0     H77875   6.879   1.262   8.577  2.9583  2.1412  0.5603
  590MOL0     H77876   7.056   1.068   8.592  2.6313 -0.4924 -1.2449
  590MOL0     H77877   7.098   1.120   8.428 -1.2097  4.2951 -1.0815
  590MOL0     H77878   7.287   1.417   8.648  1.1500 -0.8757  0.3498
  590MOL0     H77879   6.440   1.445   8.336 -0.4369  3.0564 -1.0555
  590MOL0     H77880   6.292   1.458   8.143  0.3082  2.0305  1.4041
  591MOL0     O77881   3.214   0.589   2.955 -0.1025 -0.1675 -0.5337
  591MOL0     C77882   3.187   0.701   2.908 -0.3356  0.1142  0.1096
  591MOL0     O77883   3.268   0.778   2.832 -0.6783  0.3536  0.4047
  591MOL0     C77884   3.377   0.707   2.779 -0.4561 -0.4553  0.0872
  591MOL0     C77885   3.501   0.727   2.819  0.1303 -0.2358 -0.6090
  591MOL0     C77886   3.610   0.654   2.767  0.2828 -0.5558  0.1949
  591MOL0     C77887   3.591   0.565   2.668 -0.7974  0.5109  0.1571
  591MOL0     O77888   3.687   0.491   2.606  0.7301  0.3957  0.2958
  591MOL0     C77889   3.827   0.498   2.649 -0.1512 -0.3866 -0.6213
  591MOL0     C77890   3.899   0.400   2.561 -0.6978  0.3093  0.1462
  591MOL0     C77891   4.056   0.427   2.547  0.7707 -0.6421 -0.5460
  591MOL0     C77892   4.119   0.335   2.431  0.7255 -0.4539  0.0335
  591MOL0     C77893   4.247   0.398   2.382  0.2596 -0.0181 -0.7745
  591MOL0     C77894   4.292   0.322   2.255 -0.5456  0.0398 -0.3593
  591MOL0     C77895   4.427   0.364   2.190 -0.1766  0.5125  0.2180
  591MOL0     C77896   4.546   0.331   2.279  0.7677  0.5315  0.5958
  591MOL0     N77897   4.683   0.332   2.223  0.0186 -0.0906  1.1335
  591MOL0     C77898   4.724   0.287   2.097  0.0773 -0.8677  0.2785
  591MOL0     C77899   4.850   0.300   2.094 -0.3274  0.8458  0.6806
  591MOL0     C77900   4.943   0.266   1.985 -0.6423  0.6344  0.2280
  591MOL0     C77901   4.941   0.371   1.868 -1.2431  0.1185 -0.0158
  591MOL0     C77902   5.021   0.501   1.919  0.5135 -0.1265 -0.1375
  591MOL0     C77903   5.034   0.611   1.813  0.0858 -0.2799  0.1194
  591MOL0     O77904   5.109   0.576   1.695  0.2739  0.3412 -0.5427
  591MOL0     C77905   5.243   0.578   1.699 -0.7712  0.0732 -0.9955
  591MOL0     C77906   5.317   0.621   1.811  0.1955  0.4691  0.1034
  591MOL0     C77907   5.456   0.626   1.797 -0.4433  0.9294  0.0381
  591MOL0     C77908   5.530   0.590   1.677  1.2855 -0.8977  0.1134
  591MOL0     C77909   5.671   0.616   1.674 -0.7192  0.2566  0.2877
  591MOL0     O77910   5.725   0.693   1.776 -0.1458  0.5250  0.0918
  591MOL0     C77911   5.864   0.705   1.775  0.1345  0.2221 -0.7682
  591MOL0     C77912   5.935   0.776   1.678 -0.1207  0.0682 -0.7620
  591MOL0     C77913   6.074   0.790   1.682  0.3682  0.5479 -0.2452
  591MOL0     C77914   6.147   0.743   1.807  0.0818 -0.3435 -0.4789
  591MOL0     O77915   6.273   0.786   1.817 -0.0651  0.1308  0.4988
  591MOL0     C77916   6.346   0.744   1.929 -0.6816 -0.6318  0.0582
  591MOL0     C77917   6.490   0.807   1.935  0.1410  0.5373  0.0457
  591MOL0     C77918   6.483   0.956   1.977  0.5641 -0.0334  0.0550
  591MOL0     C77919   6.625   1.018   1.988  0.1794  0.8764  0.5823
  591MOL0     C77920   6.615   1.158   2.048  0.1333  0.6429 -0.3548
  591MOL0     C77921   6.759   1.222   2.045 -0.0646 -0.2387  0.1537
  591MOL0     C77922   6.774   1.364   2.109  0.0998 -0.1875 -0.3577
  591MOL0     C77923   6.658   1.455   2.065 -0.9545  0.6274 -0.6915
  591MOL0    Cl77924   6.661   1.478   1.889  0.6444 -0.3037 -0.0695
  591MOL0     C77925   6.069   0.668   1.901 -0.8462  0.6298 -0.1366
  591MOL0     C77926   5.927   0.651   1.887 -0.0191 -0.0344 -0.3915
  591MOL0     O77927   5.739   0.562   1.585 -0.2589 -0.2995 -0.4139
  591MOL0     C77928   5.453   0.531   1.577 -0.1300 -0.3686 -0.4330
  591MOL0     C77929   5.317   0.524   1.592  0.5179 -0.2061 -0.4093
  591MOL0     N77930   4.889   0.369   2.212 -0.5306  0.2827  0.5681
  591MOL0     N77931   4.793   0.376   2.289  0.2954 -1.0624  0.1102
  591MOL0     C77932   3.467   0.541   2.625  0.2033 -0.2166  0.8859
  591MOL0     C77933   3.359   0.604   2.684 -0.5881 -0.2223 -0.5162
  591MOL0     C77934   3.048   0.760   2.934 -1.1111  0.3626  0.3332
  591MOL0     C77935   2.981   0.731   3.055  0.3958  1.2890  0.6271
  591MOL0     C77936   2.857   0.790   3.074  0.3362 -0.2710  1.0691
  591MOL0     C77937   2.802   0.883   2.980 -0.5377  0.6591 -0.1505
  591MOL0     O77938   2.681   0.939   3.002  0.2474  0.0083 -0.4380
  591MOL0     C77939   2.589   0.926   2.896  0.2227  1.1584 -0.3995
  591MOL0     C77940   2.440   0.940   2.941  0.4684  0.2300  0.0482
  591MOL0     C77941   2.416   1.064   3.021 -0.2110 -0.1559 -0.2252
  591MOL0     C77942   2.267   1.106   3.021 -0.2931  0.4429  0.5631
  591MOL0     C77943   2.256   1.233   3.100  0.5194 -0.6119 -0.6553
  591MOL0     C77944   2.249   1.336   3.158 -0.9574  0.2317 -0.9190
  591MOL0     C77945   2.879   0.921   2.877  1.2973 -0.3558  0.6747
  591MOL0     C77946   3.003   0.860   2.850  0.0991  0.0634  0.0543
  591MOL0     H77947   3.515   0.812   2.885 -1.8273 -0.1623 -0.2312
  591MOL0     H77948   3.709   0.673   2.807 -0.1825 -0.4328  1.3359
  591MOL0     H77949   3.848   0.471   2.753  0.7447  0.3460 -0.5989
  591MOL0     H77950   3.869   0.597   2.627 -0.3050 -0.0245  0.6292
  591MOL0     H77951   3.854   0.410   2.462  0.2664 -1.4279 -0.5205
  591MOL0     H77952   3.879   0.297   2.592 -0.9449  0.5571  0.8229
  591MOL0     H77953   4.092   0.412   2.649 -1.7735  1.6221  0.8201
  591MOL0     H77954   4.066   0.534   2.527 -0.2313 -0.1124  1.5491
  591MOL0     H77955   4.124   0.232   2.470 -1.2358  0.0813  1.9075
  591MOL0     H77956   4.042   0.333   2.354 -1.0660 -1.2924  1.7562
  591MOL0     H77957   4.326   0.390   2.458  0.7976  1.6407 -1.1201
  591MOL0     H77958   4.247   0.506   2.363  1.7315  0.9080  3.4084
  591MOL0     H77959   4.214   0.331   2.179 -0.0171 -1.9168 -1.2088
  591MOL0     H77960   4.285   0.216   2.281 -0.2663  0.1824  0.3090
  591MOL0     H77961   4.426   0.311   2.095 -0.8927 -1.1536  1.1094
  591MOL0     H77962   4.426   0.472   2.175  0.9326  0.6286  0.8542
  591MOL0     H77963   4.533   0.231   2.321  0.6518  0.3491  0.1246
  591MOL0     H77964   4.538   0.398   2.366  1.1748  2.4167 -0.7636
  591MOL0     H77965   4.658   0.260   2.015  1.6904  0.6564 -1.6083
  591MOL0     H77966   4.908   0.167   1.955  0.8632  0.1112  0.1027
  591MOL0     H77967   5.045   0.258   2.023 -0.5821  1.6866  0.3072
  591MOL0     H77968   4.838   0.402   1.850 -1.5259 -0.8173 -0.0570
  591MOL0     H77969   4.982   0.345   1.770 -0.7267  2.1950 -0.3842
  591MOL0     H77970   4.976   0.536   2.013  0.0047 -2.3230  0.4976
  591MOL0     H77971   5.118   0.462   1.953 -0.3908 -0.9087  1.7278
  591MOL0     H77972   5.075   0.697   1.866  0.4043 -0.9088  0.9228
  591MOL0     H77973   4.929   0.635   1.791  0.2766  0.1346 -0.3418
  591MOL0     H77974   5.272   0.630   1.910 -0.5484  0.0476 -0.1898
  591MOL0     H77975   5.507   0.660   1.886 -0.7894  0.4815  0.4154
  591MOL0     H77976   5.876   0.808   1.593 -0.2605 -2.4812 -1.7079
  591MOL0     H77977   6.129   0.854   1.613  1.3871  0.3191  0.3288
  591MOL0     H77978   6.352   0.635   1.921  0.5597 -0.6341  0.7777
  591MOL0     H77979   6.290   0.762   2.021 -2.3735  1.3351 -1.2443
  591MOL0     H77980   6.521   0.800   1.830  2.3650  1.8158  0.5609
  591MOL0     H77981   6.552   0.756   2.009 -1.0471  1.3086  1.6180
  591MOL0     H77982   6.432   0.967   2.073  0.0857  1.2085 -0.3297
  591MOL0     H77983   6.416   1.006   1.908  0.6202  0.6106  0.4655
  591MOL0     H77984   6.688   0.953   2.049 -0.4214  0.6584  0.9811
  591MOL0     H77985   6.661   1.015   1.885  0.5791 -0.2988  0.7472
  591MOL0     H77986   6.575   1.165   2.149 -0.4553 -0.0791 -0.5306
  591MOL0     H77987   6.551   1.215   1.979 -0.0056  1.2571  0.2698
  591MOL0     H77988   6.791   1.245   1.942  1.5966  2.3910  1.1545
  591MOL0     H77989   6.833   1.159   2.095  0.8137  0.3468 -0.3768
  591MOL0     H77990   6.771   1.346   2.217  2.1500  1.8307  0.1078
  591MOL0     H77991   6.861   1.428   2.094 -0.8295  1.4814  1.0167
  591MOL0     H77992   6.675   1.553   2.111 -2.1558 -0.5000  2.4895
  591MOL0     H77993   6.556   1.421   2.088 -0.5831 -0.0883 -0.0589
  591MOL0     H77994   6.124   0.633   1.988  1.6641 -2.1285 -2.5922
  591MOL0     H77995   5.875   0.586   1.957 -1.5614 -0.5168 -1.9313
  591MOL0     H77996   5.506   0.492   1.491  2.2903  1.7314 -0.0287
  591MOL0     H77997   5.256   0.471   1.520 -0.9208  0.9787 -0.1113
  591MOL0     H77998   3.465   0.461   2.552  0.0782  0.6023 -0.0275
  591MOL0     H77999   3.258   0.593   2.647 -0.5194  1.9645 -1.5069
  591MOL0     H78000   3.018   0.658   3.127 -4.1905  0.1928  2.2195
  591MOL0     H78001   2.812   0.769   3.171 -2.2875 -0.7713 -0.1750
  591MOL0     H78002   2.605   0.824   2.861  0.8997  0.9078  0.5894
  591MOL0     H78003   2.604   0.998   2.815 -1.4943 -1.4302 -3.2107
  591MOL0     H78004   2.369   0.941   2.859 -1.6777  0.7510  1.8116
  591MOL0     H78005   2.412   0.853   3.002 -2.8100  1.1110 -0.0067
  591MOL0     H78006   2.481   1.143   2.985  0.2233 -0.2331  0.3723
  591MOL0     H78007   2.432   1.050   3.128 -2.7503  0.0559  0.2508
  591MOL0     H78008   2.232   1.133   2.921  0.2860  0.0405  0.2455
  591MOL0     H78009   2.197   1.036   3.067  0.8575  0.0268  1.7511
  591MOL0     H78010   2.252   1.432   3.205  1.9254 -0.4227  0.4395
  591MOL0     H78011   2.847   0.999   2.808  0.7459  0.6483  2.0157
  591MOL0     H78012   3.064   0.886   2.763 -0.1608 -0.6282 -0.3417
  592MOL0     O78013  10.555   4.951   8.358 -0.3985 -0.1893  0.1391
  592MOL0     C78014  10.572   5.072   8.369 -0.3874 -0.3212  0.6114
  592MOL0     O78015  10.468   5.165   8.373  0.1580  0.7738  0.0304
  592MOL0     C78016  10.342   5.119   8.348 -0.0424 -0.7055  0.2392
  592MOL0     C78017  10.261   5.075   8.446 -0.3701 -0.0719 -0.0009
  592MOL0     C78018  10.123   5.056   8.427  0.1467 -0.2776  0.5403
  592MOL0     C78019  10.064   5.077   8.304  1.0461  0.1444  0.3613
  592MOL0     O78020   9.925   5.069   8.288 -0.4924  0.0530  0.1798
  592MOL0     C78021   9.852   5.195   8.323  0.0635  0.1914 -0.0574
  592MOL0     C78022   9.701   5.158   8.283 -0.6416 -0.2001 -0.1174
  592MOL0     C78023   9.609   5.279   8.315  1.1387 -0.4348  0.2997
  592MOL0     C78024   9.463   5.249   8.276 -0.3255 -0.2871  0.0146
  592MOL0     C78025   9.387   5.368   8.333  0.0077 -0.5312  0.8453
  592MOL0     C78026   9.240   5.353   8.301 -0.2652  0.2556 -0.4872
  592MOL0     C78027   9.146   5.437   8.385 -0.3369  0.4191 -0.0174
  592MOL0     C78028   9.170   5.591   8.370  0.1497 -0.1820  0.2045
  592MOL0     N78029   9.166   5.637   8.237 -1.2509 -0.7366 -0.0820
  592MOL0     C78030   9.053   5.666   8.164 -0.4326 -0.1626 -0.4517
  592MOL0     C78031   9.101   5.690   8.041  0.3666  0.0807  0.0542
  592MOL0     C78032   9.016   5.706   7.920  0.2677  0.3796 -0.0078
  592MOL0     C78033   8.979   5.581   7.846  0.3799 -0.5954  0.3847
  592MOL0     C78034   8.872   5.605   7.744  0.0405 -0.5740  1.2436
  592MOL0     C78035   8.824   5.469   7.689 -0.1859  0.1920 -0.2068
  592MOL0     O78036   8.697   5.444   7.742 -0.3187  0.3199 -0.4370
  592MOL0     C78037   8.610   5.364   7.665  0.0726  0.0382 -0.4451
  592MOL0     C78038   8.470   5.383   7.696 -0.0895  0.0027  0.6089
  592MOL0     C78039   8.373   5.316   7.623 -0.6464 -0.5141  0.4091
  592MOL0     C78040   8.397   5.231   7.518  0.4117  0.2993  0.1391
  592MOL0     C78041   8.298   5.127   7.462  0.1571  0.0263  0.3708
  592MOL0     O78042   8.355   5.030   7.392  0.6512  0.2487  0.2325
  592MOL0     C78043   8.296   4.917   7.354  0.1534  0.0143 -0.0197
  592MOL0     C78044   8.173   4.869   7.411 -0.5238 -0.0288  0.0036
  592MOL0     C78045   8.127   4.749   7.365 -0.3779  0.0435 -0.0380
  592MOL0     C78046   8.196   4.670   7.276  0.2276  0.4385  0.4119
  592MOL0     O78047   8.147   4.542   7.247  0.5362 -0.0086 -0.3562
  592MOL0     C78048   8.128   4.506   7.116 -0.1534 -0.0951 -0.1165
  592MOL0     C78049   8.212   4.377   7.090  0.1205 -0.6308 -0.6728
  592MOL0     C78050   8.194   4.309   6.960  0.3184  1.4808  0.6064
  592MOL0     C78051   8.235   4.155   6.975  0.4921 -1.0842 -0.2849
  592MOL0     C78052   8.150   4.059   6.889 -0.8534  0.8954 -0.0061
  592MOL0     C78053   8.201   3.908   6.906 -0.8352  0.0886  0.4932
  592MOL0     C78054   8.335   3.880   6.841 -0.3739  0.3595  1.1231
  592MOL0     C78055   8.374   3.734   6.850 -0.3180  1.0959  0.0586
  592MOL0    Cl78056   8.536   3.706   6.783  0.0902 -0.0219 -0.3159
  592MOL0     C78057   8.314   4.712   7.224 -0.4616 -0.2443 -0.2773
  592MOL0     C78058   8.361   4.843   7.259 -0.7786  0.8500  0.2855
  592MOL0     O78059   8.181   5.139   7.494  0.3941  0.0570  0.6976
  592MOL0     C78060   8.538   5.217   7.485 -0.0960 -0.1102  0.1402
  592MOL0     C78061   8.640   5.288   7.550 -0.5985  0.3337  0.0809
  592MOL0     N78062   9.240   5.705   8.044  0.3024 -0.3410 -0.5495
  592MOL0     N78063   9.270   5.677   8.166 -0.1844  0.0820  0.3717
  592MOL0     C78064  10.156   5.107   8.199  0.4671 -0.0296  0.3621
  592MOL0     C78065  10.294   5.131   8.224  0.1072  0.4297  0.2288
  592MOL0     C78066  10.713   5.119   8.371  1.2127 -0.5172 -0.1769
  592MOL0     C78067  10.817   5.032   8.408  0.3660  0.1539  0.4726
  592MOL0     C78068  10.949   5.090   8.423  0.0433  0.4193 -0.7997
  592MOL0     C78069  10.987   5.219   8.373 -0.4452  0.3432 -0.3912
  592MOL0     O78070  11.116   5.244   8.389 -0.5270  0.2719  0.3486
  592MOL0     C78071  11.179   5.304   8.285 -0.9369  0.1269  0.6008
  592MOL0     C78072  11.335   5.286   8.319  0.5883 -0.0932 -0.3883
  592MOL0     C78073  11.378   5.132   8.336  0.0710  0.4321 -0.0720
  592MOL0     C78074  11.530   5.114   8.337  0.1400  0.6995  0.0054
  592MOL0     C78075  11.575   4.973   8.326  0.0981 -0.9574 -0.7002
  592MOL0     C78076  11.623   4.863   8.338 -0.5212 -0.9121  0.4069
  592MOL0     C78077  10.882   5.298   8.324  0.7114 -0.3752 -0.9418
  592MOL0     C78078  10.748   5.249   8.326 -0.5998  1.0255  0.2412
  592MOL0     H78079  10.313   5.066   8.541  0.3761  1.5806 -0.2177
  592MOL0     H78080  10.068   5.015   8.511 -0.6252  0.0757  0.2255
  592MOL0     H78081   9.888   5.275   8.259 -0.9907  1.5207  0.9611
  592MOL0     H78082   9.870   5.228   8.426  1.6499 -1.3853  0.2211
  592MOL0     H78083   9.663   5.065   8.327 -0.0072 -0.4382 -0.0660
  592MOL0     H78084   9.701   5.137   8.176 -0.9892  0.1862 -0.1964
  592MOL0     H78085   9.649   5.373   8.276  0.5637 -0.1459  0.3991
  592MOL0     H78086   9.611   5.293   8.424 -1.0109 -1.3797  0.5170
  592MOL0     H78087   9.454   5.253   8.167 -1.4668  1.6990  0.1312
  592MOL0     H78088   9.428   5.152   8.311  1.8248 -0.8088  0.8670
  592MOL0     H78089   9.426   5.463   8.296 -0.4499 -1.3984 -2.1773
  592MOL0     H78090   9.394   5.351   8.441  1.6364 -0.8050  0.7217
  592MOL0     H78091   9.207   5.250   8.319  0.4564 -0.0821 -1.0206
  592MOL0     H78092   9.225   5.363   8.193  1.1646 -1.6484 -0.9155
  592MOL0     H78093   9.044   5.421   8.348  0.2451  1.8521 -2.5219
  592MOL0     H78094   9.156   5.409   8.490 -0.6735 -0.1396 -0.1310
  592MOL0     H78095   9.262   5.628   8.417 -0.1320  0.3678  0.3310
  592MOL0     H78096   9.092   5.648   8.420 -0.3191  0.2333 -0.9707
  592MOL0     H78097   8.949   5.648   8.190 -0.8825  3.8457  1.2683
  592MOL0     H78098   9.072   5.770   7.852 -0.9603 -0.1531 -1.5800
  592MOL0     H78099   8.917   5.743   7.949 -0.4683 -2.6199  1.7604
  592MOL0     H78100   8.947   5.518   7.929 -2.4552  1.8812  1.3293
  592MOL0     H78101   9.066   5.541   7.794 -1.5894 -4.0178 -0.5884
  592MOL0     H78102   8.796   5.666   7.793  0.5219  0.5790  0.5812
  592MOL0     H78103   8.908   5.656   7.654 -1.1079  0.6619  1.4568
  592MOL0     H78104   8.895   5.387   7.700 -0.3205  0.2710  1.6061
  592MOL0     H78105   8.814   5.487   7.581  3.6562 -0.0569 -0.7301
  592MOL0     H78106   8.438   5.448   7.776 -1.3261  0.4604 -0.2219
  592MOL0     H78107   8.276   5.318   7.672 -0.4068 -1.5767  0.9393
  592MOL0     H78108   8.127   4.915   7.497  0.1502  2.3278 -0.8303
  592MOL0     H78109   8.030   4.716   7.400 -0.8916  1.3125 -0.2336
  592MOL0     H78110   8.161   4.580   7.042  0.3081 -0.6207 -0.4546
  592MOL0     H78111   8.022   4.495   7.091 -0.0782 -0.1659 -0.4138
  592MOL0     H78112   8.192   4.310   7.174  2.5033  0.6957  1.1076
  592MOL0     H78113   8.318   4.402   7.106 -0.3744  0.9249  0.3943
  592MOL0     H78114   8.252   4.352   6.878 -0.0625  1.0135  0.0846
  592MOL0     H78115   8.087   4.316   6.935  0.6976  1.3639 -1.1935
  592MOL0     H78116   8.336   4.156   6.933 -0.3239  2.5112 -2.6464
  592MOL0     H78117   8.237   4.119   7.078 -0.0125 -4.7097 -1.4028
  592MOL0     H78118   8.170   4.097   6.789 -0.6886  0.1444 -0.2699
  592MOL0     H78119   8.049   4.061   6.932 -0.5629 -0.4713  0.8279
  592MOL0     H78120   8.120   3.851   6.859 -0.1483  0.0848 -0.7201
  592MOL0     H78121   8.202   3.874   7.010 -0.2188  0.6387  0.6762
  592MOL0     H78122   8.326   3.898   6.734 -0.7644  0.0600  1.1025
  592MOL0     H78123   8.412   3.944   6.885  2.4062 -1.5822 -0.5515
  592MOL0     H78124   8.294   3.680   6.797  1.7157 -1.0292 -1.0298
  592MOL0     H78125   8.362   3.698   6.953 -3.5061  2.8050  0.4079
  592MOL0     H78126   8.371   4.662   7.146  0.9599 -0.6163  0.9520
  592MOL0     H78127   8.446   4.880   7.202  1.4649  1.2286  3.5774
  592MOL0     H78128   8.554   5.150   7.401 -1.8088 -1.6694  1.0026
  592MOL0     H78129   8.742   5.282   7.516 -0.1911  1.6944  0.9702
  592MOL0     H78130  10.122   5.103   8.096  2.2125 -1.1912 -0.2138
  592MOL0     H78131  10.345   5.168   8.136 -0.6208 -1.2710 -0.9818
  592MOL0     H78132  10.797   4.933   8.448 -2.7486  0.3967 -0.2162
  592MOL0     H78133  11.017   5.025   8.477  0.6834  1.8379  0.1561
  592MOL0     H78134  11.165   5.412   8.278  0.7616  0.4538  1.6199
  592MOL0     H78135  11.155   5.258   8.189  1.1320 -1.3224  0.7015
  592MOL0     H78136  11.384   5.321   8.227  0.2553 -2.3190 -1.4923
  592MOL0     H78137  11.353   5.340   8.412  0.3222 -0.3377 -0.1943
  592MOL0     H78138  11.332   5.079   8.251 -0.8086 -1.2808  1.4153
  592MOL0     H78139  11.331   5.091   8.426 -0.4296 -1.7873 -1.2747
  592MOL0     H78140  11.580   5.164   8.254  2.4216 -0.1994  0.7759
  592MOL0     H78141  11.573   5.164   8.425 -2.1592  1.2845  0.8806
  592MOL0     H78142  11.641   4.757   8.337 -1.1708 -1.0276 -0.1998
  592MOL0     H78143  10.885   5.396   8.277  0.4965  0.5555  0.8795
  592MOL0     H78144  10.675   5.319   8.286  0.8125  1.6892 -1.3206
  593MOL0     O78145   2.372   4.101   0.847 -0.6231  0.3325  0.0075
  593MOL0     C78146   2.406   4.084   0.965  0.2311 -1.3055 -0.4123
  593MOL0     O78147   2.356   3.994   1.053 -0.0689 -0.4512  0.3673
  593MOL0     C78148   2.226   3.949   1.028 -0.2849 -0.1219  0.2519
  593MOL0     C78149   2.128   4.014   0.961  0.0810 -0.7623  0.1332
  593MOL0     C78150   2.012   3.943   0.928 -0.1771 -0.9029  0.3334
  593MOL0     C78151   1.991   3.811   0.962  0.6054  0.4522  0.7651
  593MOL0     O78152   1.891   3.746   0.894 -0.1997  0.2677  0.5133
  593MOL0     C78153   1.769   3.810   0.900 -0.4160  0.0957  0.3706
  593MOL0     C78154   1.670   3.699   0.878 -0.7949  0.2321 -0.9070
  593MOL0     C78155   1.520   3.743   0.914 -0.4285 -0.4831  0.1647
  593MOL0     C78156   1.433   3.620   0.948  0.4406 -0.7340 -0.1345
  593MOL0     C78157   1.284   3.655   0.974  0.7329 -0.0918  0.2192
  593MOL0     C78158   1.246   3.691   1.114 -0.2246  0.2789  0.1200
  593MOL0     C78159   1.096   3.732   1.118  0.1764 -0.7934 -0.6756
  593MOL0     C78160   1.064   3.753   1.269  0.2407  0.3683  0.1794
  593MOL0     N78161   0.933   3.797   1.317 -0.1874  0.1487 -0.2428
  593MOL0     C78162   0.915   3.885   1.417 -0.2095  0.5059  0.2056
  593MOL0     C78163   0.791   3.863   1.470  0.3868  0.2071  0.0489
  593MOL0     C78164   0.737   3.941   1.589 -0.3386  0.4720  0.9465
  593MOL0     C78165   0.612   3.885   1.651  0.1715 -0.3307  0.1141
  593MOL0     C78166   0.599   3.935   1.796 -0.1638  1.0246  0.4179
  593MOL0     C78167   0.463   3.887   1.855 -0.3210  0.3823 -0.6390
  593MOL0     O78168   0.351   3.933   1.779  0.5308 -0.5477  0.5086
  593MOL0     C78169   0.235   3.859   1.794 -0.9235 -0.3933  0.1667
  593MOL0     C78170   0.165   3.817   1.679 -0.6014 -0.0996 -0.8165
  593MOL0     C78171   0.045   3.748   1.694 -0.0613  0.4685  0.1333
  593MOL0     C78172  -0.012   3.729   1.824 -0.6782  0.4937  0.7157
  593MOL0     C78173  -0.138   3.658   1.841  0.0556 -1.0955  0.1139
  593MOL0     O78174  -0.209   3.634   1.725 -0.4732  0.0024  0.0692
  593MOL0     C78175  -0.320   3.548   1.723 -0.1776  0.8987  0.5242
  593MOL0     C78176  -0.323   3.436   1.650 -0.0052  0.0337 -0.0091
  593MOL0     C78177  -0.433   3.345   1.642  0.4503  0.7388 -0.1709
  593MOL0     C78178  -0.552   3.384   1.709 -0.4871 -0.1373  0.9817
  593MOL0     O78179  -0.663   3.295   1.687 -0.2430 -0.0591  0.5235
  593MOL0     C78180  -0.788   3.326   1.755 -0.8468  0.8389 -0.2042
  593MOL0     C78181  -0.880   3.212   1.707 -0.5383 -0.0552  0.4003
  593MOL0     C78182  -1.011   3.196   1.776  0.6547  0.0994  0.8342
  593MOL0     C78183  -1.088   3.072   1.725 -0.0403 -0.4316  0.4705
  593MOL0     C78184  -1.201   3.027   1.815 -0.5456  0.3970 -0.1776
  593MOL0     C78185  -1.280   2.907   1.760 -0.9221  0.0853  0.4215
  593MOL0     C78186  -1.361   2.830   1.861 -0.0908 -0.7405  0.1358
  593MOL0     C78187  -1.466   2.746   1.785 -0.3386  0.4887 -0.2086
  593MOL0    Cl78188  -1.575   2.658   1.890 -0.0240 -0.5492  0.2704
  593MOL0     C78189  -0.548   3.497   1.794 -1.0432 -0.5953  0.2613
  593MOL0     C78190  -0.438   3.581   1.795 -1.1414 -0.0354 -0.5547
  593MOL0     O78191  -0.173   3.620   1.956 -0.8261  0.8495  0.1127
  593MOL0     C78192   0.059   3.772   1.941 -0.2343 -0.1525  0.0375
  593MOL0     C78193   0.184   3.825   1.920 -0.3170  0.1857  1.0135
  593MOL0     N78194   0.724   3.785   1.375 -0.8770 -0.9010 -0.7954
  593MOL0     N78195   0.807   3.752   1.282 -0.0479  0.7165 -0.2400
  593MOL0     C78196   2.081   3.749   1.041  0.4257  0.5110 -0.2942
  593MOL0     C78197   2.198   3.815   1.076  0.5228  0.6777 -0.8167
  593MOL0     C78198   2.523   4.156   1.025  0.0082  0.0125  0.6560
  593MOL0     C78199   2.527   4.184   1.166 -0.4393  0.7346  0.1345
  593MOL0     C78200   2.642   4.263   1.206  0.5096  0.2091 -0.4735
  593MOL0     C78201   2.735   4.306   1.121  0.4736 -0.1434  0.7665
  593MOL0     O78202   2.835   4.373   1.180  0.0742 -0.3311 -0.3087
  593MOL0     C78203   2.915   4.458   1.107 -0.0742  0.0641  0.1315
  593MOL0     C78204   3.028   4.516   1.199 -0.4135  0.0562  0.0113
  593MOL0     C78205   3.111   4.618   1.123 -0.0913 -0.6516  0.3069
  593MOL0     C78206   3.225   4.554   1.047  0.3524  0.7087  0.0870
  593MOL0     C78207   3.329   4.654   0.996  0.2646  0.2501 -0.3999
  593MOL0     C78208   3.405   4.736   0.955 -0.3454  0.1285 -0.6414
  593MOL0     C78209   2.721   4.293   0.986  1.0354  0.6469  0.6991
  593MOL0     C78210   2.613   4.218   0.938 -0.4696 -0.8618 -0.7984
  593MOL0     H78211   2.143   4.111   0.915  0.0947 -1.6050 -1.7798
  593MOL0     H78212   1.936   3.997   0.873  0.0105 -0.5963  0.3735
  593MOL0     H78213   1.760   3.895   0.832  4.8509  2.2267  1.7653
  593MOL0     H78214   1.749   3.847   1.001 -2.0591  0.7961 -0.1822
  593MOL0     H78215   1.688   3.620   0.952  2.9676  1.7728  0.0965
  593MOL0     H78216   1.686   3.657   0.778 -1.3882 -1.7587 -0.2147
  593MOL0     H78217   1.483   3.791   0.822  0.9761  0.5789  0.1148
  593MOL0     H78218   1.528   3.805   1.004  2.0384 -0.4346 -0.0027
  593MOL0     H78219   1.429   3.545   0.868 -1.4360  1.6810 -2.4939
  593MOL0     H78220   1.473   3.559   1.030 -0.6240  0.6717  1.5021
  593MOL0     H78221   1.215   3.573   0.953 -0.5031  1.0145 -0.2015
  593MOL0     H78222   1.253   3.746   0.922  1.1174 -0.0054  0.1326
  593MOL0     H78223   1.316   3.767   1.150  0.3849 -0.5209  0.6533
  593MOL0     H78224   1.251   3.599   1.172  0.9587 -0.6127 -1.3070
  593MOL0     H78225   1.073   3.823   1.060  2.0522  0.8110  0.9554
  593MOL0     H78226   1.038   3.650   1.075 -1.2268 -1.5005  2.3624
  593MOL0     H78227   1.136   3.826   1.307  2.7003 -1.7723 -0.0577
  593MOL0     H78228   1.076   3.651   1.308 -3.0124 -1.2556 -2.4951
  593MOL0     H78229   0.996   3.935   1.469  0.8404 -2.2399  1.4247
  593MOL0     H78230   0.713   4.041   1.551  2.6386  1.2445  0.8454
  593MOL0     H78231   0.815   3.947   1.665 -0.4725 -0.6231  1.1871
  593MOL0     H78232   0.607   3.775   1.650 -0.4835 -0.3755  2.1690
  593MOL0     H78233   0.528   3.912   1.587  1.3581 -2.4140 -2.5370
  593MOL0     H78234   0.685   3.900   1.854  1.1596  1.4814 -1.1615
  593MOL0     H78235   0.598   4.044   1.784 -3.4976  0.9708 -0.7119
  593MOL0     H78236   0.446   3.907   1.961  0.8410  2.4178 -0.7965
  593MOL0     H78237   0.462   3.778   1.844  1.2126  0.1827  0.9240
  593MOL0     H78238   0.191   3.842   1.577  1.0530 -0.8735 -0.6101
  593MOL0     H78239  -0.007   3.722   1.602  0.9279 -0.8227 -0.0861
  593MOL0     H78240  -0.238   3.417   1.585  0.1431 -1.2247  0.5193
  593MOL0     H78241  -0.436   3.253   1.584  2.1184 -1.0532  2.3519
  593MOL0     H78242  -0.825   3.411   1.699  0.7936  0.3712 -2.0859
  593MOL0     H78243  -0.781   3.340   1.864  1.7076 -1.3278  0.0426
  593MOL0     H78244  -0.822   3.121   1.719  2.5531  1.9027  1.5612
  593MOL0     H78245  -0.907   3.236   1.604 -0.2699 -4.9454 -1.0569
  593MOL0     H78246  -1.071   3.287   1.773  0.3735 -0.0963 -0.6011
  593MOL0     H78247  -0.995   3.178   1.882 -2.0968  2.2138  1.7039
  593MOL0     H78248  -1.127   3.103   1.628  1.7922  0.3818 -0.0530
  593MOL0     H78249  -1.007   3.000   1.714 -0.1717 -0.7183  1.3163
  593MOL0     H78250  -1.270   3.112   1.820  1.4849  2.0605  0.7398
  593MOL0     H78251  -1.162   2.999   1.913 -2.6936 -1.6985  0.1825
  593MOL0     H78252  -1.214   2.839   1.704  1.3856  1.4722  1.3132
  593MOL0     H78253  -1.350   2.954   1.691  0.1209 -0.5061 -1.0879
  593MOL0     H78254  -1.305   2.762   1.925  0.3304 -1.6237 -1.1287
  593MOL0     H78255  -1.414   2.902   1.924  2.2643  1.8696 -0.6382
  593MOL0     H78256  -1.423   2.670   1.718 -4.4695  1.3734 -4.3896
  593MOL0     H78257  -1.526   2.813   1.722 -1.9977 -0.7746 -0.0426
  593MOL0     H78258  -0.627   3.523   1.862 -0.6450 -1.3087  1.0079
  593MOL0     H78259  -0.439   3.672   1.854  0.6751 -1.3672  1.7168
  593MOL0     H78260   0.021   3.775   2.043  1.9106 -0.6408  0.8849
  593MOL0     H78261   0.244   3.847   2.008  1.3171  0.5244 -0.1218
  593MOL0     H78262   2.063   3.645   1.065  0.0847  0.6400  0.0163
  593MOL0     H78263   2.271   3.754   1.128  0.9137  1.7796 -0.0254
  593MOL0     H78264   2.449   4.155   1.235  0.6851 -1.1787  0.6892
  593MOL0     H78265   2.650   4.277   1.313 -3.1588  1.6711 -0.2299
  593MOL0     H78266   2.859   4.546   1.075 -0.1775  0.1052  0.4207
  593MOL0     H78267   2.968   4.414   1.022  4.1229  2.2213  1.3151
  593MOL0     H78268   2.963   4.563   1.273 -1.7641 -0.1016 -1.0393
  593MOL0     H78269   3.090   4.440   1.247 -1.3986  0.0335  1.2991
  593MOL0     H78270   3.150   4.690   1.196  2.0201 -2.8879  1.5266
  593MOL0     H78271   3.047   4.662   1.046 -1.2522 -3.2395 -0.2955
  593MOL0     H78272   3.278   4.483   1.112  0.0297 -1.0581 -1.4965
  593MOL0     H78273   3.183   4.504   0.960  0.6895  2.5581 -1.2008
  593MOL0     H78274   3.472   4.805   0.908  2.4698 -0.1838  2.5011
  593MOL0     H78275   2.804   4.326   0.924  1.0815 -0.6833  0.0310
  593MOL0     H78276   2.613   4.205   0.830 -1.7907  0.0601 -0.9285
  594MOL0     O78277  10.319   6.963  10.862  0.0597 -0.9583  0.1938
  594MOL0     C78278  10.268   6.974  10.751  0.6766 -0.4554  0.2178
  594MOL0     O78279  10.293   7.075  10.663  0.4246 -0.0188 -0.0331
  594MOL0     C78280  10.393   7.167  10.699  0.8861 -0.7592  0.3589
  594MOL0     C78281  10.366   7.301  10.695 -0.2152  0.5403 -0.2767
  594MOL0     C78282  10.473   7.391  10.722 -0.3305 -0.2160 -0.2373
  594MOL0     C78283  10.595   7.352  10.757 -0.2551  0.3068 -0.6090
  594MOL0     O78284  10.680   7.443  10.799  0.7276 -0.3835 -0.2597
  594MOL0     C78285  10.820   7.419  10.779 -1.0006 -1.0314 -0.3649
  594MOL0     C78286  10.895   7.560  10.799 -0.1103 -0.0327 -0.6516
  594MOL0     C78287  10.910   7.592  10.949 -0.1857  0.0824  0.1846
  594MOL0     C78288  10.973   7.733  10.964 -0.5165  0.5851  0.4452
  594MOL0     C78289  11.032   7.773  11.097 -0.3268 -0.1167  0.3144
  594MOL0     C78290  10.934   7.753  11.215 -0.0301 -0.9337  0.5203
  594MOL0     C78291  11.001   7.787  11.343  0.2163 -0.1624 -0.3697
  594MOL0     C78292  10.980   7.685  11.460  0.3668 -0.3023 -0.1441
  594MOL0     N78293  10.843   7.670  11.507 -0.1166  0.1002 -0.4419
  594MOL0     C78294  10.810   7.561  11.580 -0.2951 -0.2318  0.2744
  594MOL0     C78295  10.686   7.576  11.606  0.7183 -0.3835 -0.2869
  594MOL0     C78296  10.589   7.479  11.678 -0.4504  0.0740  0.2803
  594MOL0     C78297  10.467   7.459  11.596  0.0367 -1.0176  0.4068
  594MOL0     C78298  10.388   7.332  11.635  0.7671 -0.3461 -0.5973
  594MOL0     C78299  10.262   7.306  11.554 -0.9908  0.2675  0.7242
  594MOL0     O78300  10.192   7.203  11.628  0.1097 -0.5004 -0.8053
  594MOL0     C78301  10.065   7.163  11.578  0.4804 -0.5781  0.7882
  594MOL0     C78302  10.056   7.025  11.576 -0.7877 -0.7889 -0.6076
  594MOL0     C78303   9.934   6.969  11.549  0.4905  1.0202  0.8799
  594MOL0     C78304   9.824   7.050  11.503 -1.8110 -0.0776  0.0024
  594MOL0     C78305   9.694   6.986  11.480  0.2947 -0.0402  0.1997
  594MOL0     O78306   9.587   7.061  11.444 -0.6204  0.5220 -0.6752
  594MOL0     C78307   9.466   7.001  11.443  0.1776  0.2604 -0.3439
  594MOL0     C78308   9.403   7.005  11.319  0.5754  0.5521 -0.8189
  594MOL0     C78309   9.275   6.951  11.289  0.3858 -0.2205 -0.7309
  594MOL0     C78310   9.203   6.907  11.403  0.1603 -0.4698  0.8644
  594MOL0     O78311   9.074   6.866  11.391 -0.5482  0.5792 -0.2625
  594MOL0     C78312   8.984   6.885  11.506 -0.7789  0.7139 -0.5207
  594MOL0     C78313   8.848   6.889  11.441  0.3893  0.0046  0.7409
  594MOL0     C78314   8.730   6.882  11.543 -0.3302 -0.2175  0.0337
  594MOL0     C78315   8.600   6.845  11.473  0.4596 -0.3077 -0.2222
  594MOL0     C78316   8.482   6.837  11.571  0.2101 -0.1548  0.6546
  594MOL0     C78317   8.349   6.791  11.509  0.1334  0.2485  0.0242
  594MOL0     C78318   8.239   6.782  11.609  0.4712  0.7233  0.3879
  594MOL0     C78319   8.111   6.722  11.532  0.2916  0.4380 -0.0846
  594MOL0    Cl78320   8.044   6.835  11.415  0.0635 -0.1732  0.2836
  594MOL0     C78321   9.263   6.898  11.524 -0.5360  0.2453  0.1499
  594MOL0     C78322   9.389   6.944  11.544 -0.6237 -1.3638 -0.1291
  594MOL0     O78323   9.688   6.866  11.508 -0.0670  0.2923 -0.3162
  594MOL0     C78324   9.851   7.185  11.489  0.9795 -0.7004 -0.5354
  594MOL0     C78325   9.963   7.246  11.533 -0.2090 -0.3751 -0.1478
  594MOL0     N78326  10.643   7.700  11.554  0.7154  0.6428  0.3101
  594MOL0     N78327  10.741   7.760  11.498 -0.1502  0.3081  0.0207
  594MOL0     C78328  10.623   7.218  10.756  0.7533  1.2320  0.1076
  594MOL0     C78329  10.524   7.129  10.712 -0.2674  0.0763 -0.5775
  594MOL0     C78330  10.173   6.862  10.715 -0.2035 -0.5496  0.0290
  594MOL0     C78331  10.152   6.834  10.576 -0.3040 -0.6615  0.4254
  594MOL0     C78332  10.059   6.740  10.524  0.4690  1.3525 -0.2825
  594MOL0     C78333   9.987   6.666  10.623  0.8882  0.0243  0.4322
  594MOL0     O78334   9.893   6.568  10.591  0.1030  0.1386 -0.0154
  594MOL0     C78335   9.884   6.522  10.455  0.8865  0.3526 -0.5341
  594MOL0     C78336   9.800   6.400  10.448 -0.5458  0.3874  0.2558
  594MOL0     C78337   9.664   6.423  10.498  0.1782  0.2065  0.0520
  594MOL0     C78338   9.563   6.307  10.461  0.0757 -0.3257 -0.1617
  594MOL0     C78339   9.593   6.196  10.550  0.3320  0.3518 -0.6402
  594MOL0     C78340   9.614   6.099  10.620  0.0589  1.2158  0.4250
  594MOL0     C78341   9.995   6.699  10.760 -0.3465 -0.3710 -0.3991
  594MOL0     C78342  10.091   6.793  10.807  0.1719 -0.1926 -0.7028
  594MOL0     H78343  10.270   7.331  10.655  0.0263  1.3266 -0.2820
  594MOL0     H78344  10.440   7.495  10.720  0.6794  0.1083 -1.3559
  594MOL0     H78345  10.829   7.388  10.675 -2.2199  1.9053 -1.4557
  594MOL0     H78346  10.867   7.345  10.845  2.1243  0.2356 -1.0075
  594MOL0     H78347  10.842   7.643  10.750 -1.1708 -0.8600 -0.9604
  594MOL0     H78348  10.997   7.554  10.759  0.0813  2.3470 -0.6309
  594MOL0     H78349  10.981   7.526  11.000  0.9072 -0.2584 -1.6981
  594MOL0     H78350  10.813   7.597  10.999 -0.4208 -0.8268 -0.1540
  594MOL0     H78351  11.057   7.743  10.894 -0.5609 -0.8742  0.1527
  594MOL0     H78352  10.906   7.816  10.940 -0.6174  0.2984 -0.3204
  594MOL0     H78353  11.066   7.877  11.090 -3.2835  1.1362  2.4982
  594MOL0     H78354  11.130   7.725  11.109  0.5532  1.3779 -0.5572
  594MOL0     H78355  10.907   7.647  11.228  1.7179 -1.2084  2.4592
  594MOL0     H78356  10.845   7.817  11.209 -0.0408 -0.7698  1.9865
  594MOL0     H78357  11.109   7.792  11.329  0.2212  1.2246  0.0081
  594MOL0     H78358  10.972   7.887  11.376  0.3189 -0.1246 -0.3954
  594MOL0     H78359  11.035   7.699  11.553 -1.5829 -2.7412  1.5074
  594MOL0     H78360  11.025   7.590  11.429 -0.2301 -0.6482  0.0365
  594MOL0     H78361  10.859   7.465  11.593  1.0309  0.2653 -0.7442
  594MOL0     H78362  10.567   7.512  11.780  2.2563 -1.6257  1.5499
  594MOL0     H78363  10.639   7.384  11.696  1.2242  0.5043 -1.6661
  594MOL0     H78364  10.494   7.453  11.490  1.0675 -0.8107  0.6536
  594MOL0     H78365  10.404   7.545  11.621 -1.1442 -2.5276  3.1601
  594MOL0     H78366  10.454   7.246  11.622  0.5713 -0.6030  0.0652
  594MOL0     H78367  10.358   7.347  11.739  2.5552  1.3597 -0.2464
  594MOL0     H78368  10.289   7.269  11.455 -2.2719 -0.3033  0.5627
  594MOL0     H78369  10.193   7.391  11.545 -2.7293 -1.2810 -2.3977
  594MOL0     H78370  10.141   6.973  11.619 -0.9484  1.1353  2.3488
  594MOL0     H78371   9.931   6.861  11.546  1.4037  1.0050 -1.0784
  594MOL0     H78372   9.465   7.044  11.239  0.6782  2.2670  0.0622
  594MOL0     H78373   9.237   6.961  11.188  0.4664 -2.2865 -1.0167
  594MOL0     H78374   9.014   6.974  11.562  3.6484 -1.9109  1.8495
  594MOL0     H78375   8.996   6.798  11.572 -0.3657  1.8478  0.9587
  594MOL0     H78376   8.849   6.791  11.392  1.8841 -0.7882  2.2477
  594MOL0     H78377   8.833   6.970  11.369 -1.4996 -2.6244 -2.0861
  594MOL0     H78378   8.715   6.971  11.605 -2.9790 -0.1463 -0.6033
  594MOL0     H78379   8.762   6.804  11.614 -2.2690 -0.5758  0.5838
  594MOL0     H78380   8.579   6.908  11.385  2.5632 -1.0738 -1.3280
  594MOL0     H78381   8.609   6.742  11.437 -0.7399  0.9891 -5.0677
  594MOL0     H78382   8.466   6.937  11.613  0.6180  1.1151 -1.9999
  594MOL0     H78383   8.508   6.760  11.644  1.9377  1.1572  1.4948
  594MOL0     H78384   8.367   6.697  11.456  0.2260  0.1559  0.2163
  594MOL0     H78385   8.320   6.863  11.432  0.8649 -0.7321 -1.2050
  594MOL0     H78386   8.269   6.711  11.686  2.7769  1.1651 -0.0455
  594MOL0     H78387   8.222   6.878  11.660 -2.1596  0.9586 -0.7903
  594MOL0     H78388   8.034   6.695  11.605  1.5217 -1.5637  0.5811
  594MOL0     H78389   8.138   6.630  11.479  3.2168  3.0121 -3.5714
  594MOL0     H78390   9.220   6.870  11.620  0.6556  0.2802  0.7048
  594MOL0     H78391   9.433   6.946  11.643 -3.5048 -2.8602  1.2993
  594MOL0     H78392   9.771   7.251  11.454 -0.1713 -0.4274  2.3255
  594MOL0     H78393   9.976   7.354  11.531  0.8532 -0.4603  1.1110
  594MOL0     H78394  10.721   7.177  10.778  1.2889  1.5765 -1.4832
  594MOL0     H78395  10.544   7.025  10.691  1.9805  0.2498  0.4329
  594MOL0     H78396  10.217   6.884  10.504  0.6898 -0.3646  1.5035
  594MOL0     H78397  10.039   6.726  10.419  2.4227  2.5533 -0.8690
  594MOL0     H78398   9.977   6.494  10.405  1.0195 -0.3450  0.0824
  594MOL0     H78399   9.836   6.596  10.390  2.8684 -0.0042 -2.5128
  594MOL0     H78400   9.793   6.361  10.346  1.8050  1.2547 -0.3109
  594MOL0     H78401   9.852   6.325  10.506  2.3462  2.7403  0.9624
  594MOL0     H78402   9.622   6.514  10.454 -1.2608 -0.3046  0.2870
  594MOL0     H78403   9.657   6.429  10.607  0.2208 -3.1481  0.3592
  594MOL0     H78404   9.460   6.343  10.472  0.3505  0.8323 -1.1972
  594MOL0     H78405   9.569   6.280  10.355 -1.4438  0.7644 -0.5592
  594MOL0     H78406   9.632   6.021  10.692  1.0127  2.8070  2.0013
  594MOL0     H78407   9.931   6.644  10.828 -1.6705  0.3980 -1.0041
  594MOL0     H78408  10.095   6.812  10.914 -2.3506  3.3448 -1.0247
  595MOL0     O78409  10.214   4.631  11.192 -1.4959  0.4779 -0.3907
  595MOL0     C78410  10.216   4.751  11.180  0.4102  0.9176  0.2541
  595MOL0     O78411  10.100   4.830  11.198  0.2547 -0.1854  0.3431
  595MOL0     C78412   9.978   4.775  11.228  0.7321  0.4806 -0.6465
  595MOL0     C78413   9.869   4.840  11.166  0.4635 -0.0170  0.1036
  595MOL0     C78414   9.743   4.782  11.198  0.4027  0.0208  0.6983
  595MOL0     C78415   9.726   4.682  11.297 -1.0876 -0.1243 -0.5100
  595MOL0     O78416   9.607   4.637  11.360 -0.3614  0.7057 -0.1428
  595MOL0     C78417   9.486   4.640  11.274 -0.4378 -0.5970  0.1918
  595MOL0     C78418   9.382   4.547  11.332 -0.0074  0.4318 -0.5556
  595MOL0     C78419   9.263   4.540  11.237 -1.3317  0.3721 -1.0109
  595MOL0     C78420   9.138   4.467  11.301 -1.2341  0.4669  0.1712
  595MOL0     C78421   9.013   4.467  11.220  0.0093  0.0590  0.4923
  595MOL0     C78422   8.904   4.411  11.305 -0.4878 -0.3587 -0.4790
  595MOL0     C78423   8.772   4.425  11.240  0.2382 -0.7040  0.4485
  595MOL0     C78424   8.658   4.404  11.341  1.0792  0.5644  0.4258
  595MOL0     N78425   8.530   4.400  11.262 -0.1983  0.4135  0.1568
  595MOL0     C78426   8.483   4.500  11.180  0.5087 -0.0437  0.7516
  595MOL0     C78427   8.375   4.437  11.113  0.2458  0.4268 -0.5627
  595MOL0     C78428   8.282   4.508  11.018  0.2130 -1.2569  0.0832
  595MOL0     C78429   8.152   4.551  11.081  0.0696  0.1832 -0.2306
  595MOL0     C78430   8.066   4.636  10.986 -0.3431  0.1848  0.0741
  595MOL0     C78431   7.925   4.638  11.037 -0.2983 -0.3046 -0.1813
  595MOL0     O78432   7.840   4.692  10.937  0.1461 -0.6935  0.6465
  595MOL0     C78433   7.704   4.665  10.928 -0.1775  0.0967 -0.7379
  595MOL0     C78434   7.627   4.594  11.020  0.1127 -0.7263 -0.9220
  595MOL0     C78435   7.485   4.583  11.002  0.2628  0.0508  0.0223
  595MOL0     C78436   7.422   4.638  10.888  0.8560  0.3117 -0.6731
  595MOL0     C78437   7.273   4.637  10.868  0.1421 -0.6119 -0.4119
  595MOL0     O78438   7.217   4.709  10.760  0.8323 -0.1831 -0.1827
  595MOL0     C78439   7.093   4.685  10.703 -0.1952  0.1723 -0.3113
  595MOL0     C78440   7.024   4.567  10.709  0.2879 -0.7765  0.7974
  595MOL0     C78441   6.903   4.565  10.649  0.5436 -0.0136 -0.1710
  595MOL0     C78442   6.844   4.669  10.574 -0.2920 -0.2113  0.3857
  595MOL0     O78443   6.718   4.680  10.532 -0.0898  0.1624  0.5589
  595MOL0     C78444   6.622   4.592  10.589  0.7646 -1.1911  0.1157
  595MOL0     C78445   6.484   4.598  10.517 -0.7088  0.4732 -0.7050
  595MOL0     C78446   6.502   4.502  10.405  0.4578  0.8513  1.2338
  595MOL0     C78447   6.378   4.469  10.324  0.0436  0.4811  0.1572
  595MOL0     C78448   6.320   4.595  10.242  0.9752  0.4024 -0.1498
  595MOL0     C78449   6.171   4.560  10.185  0.3562  0.5569  0.3793
  595MOL0     C78450   6.120   4.675  10.096 -0.8226  0.2808  1.1051
  595MOL0     C78451   5.986   4.636  10.025 -0.1769 -0.2608  0.0652
  595MOL0    Cl78452   5.871   4.608  10.157  0.0793 -0.1264  0.2051
  595MOL0     C78453   6.916   4.785  10.572 -0.0297 -0.8338 -0.2672
  595MOL0     C78454   7.046   4.792  10.627 -0.2045 -0.5840 -0.0470
  595MOL0     O78455   7.212   4.554  10.939 -0.0334 -0.8444  0.5165
  595MOL0     C78456   7.504   4.720  10.807 -0.7190 -0.1164 -0.5806
  595MOL0     C78457   7.644   4.724  10.821 -0.2662 -0.6900 -0.1837
  595MOL0     N78458   8.365   4.304  11.161  0.8864 -0.6462 -0.1367
  595MOL0     N78459   8.454   4.284  11.258 -0.4658 -0.7544  0.5553
  595MOL0     C78460   9.838   4.632  11.356  0.3042  0.1358  0.1151
  595MOL0     C78461   9.964   4.675  11.321  0.2043 -0.2947 -0.8447
  595MOL0     C78462  10.352   4.816  11.167  0.9264 -0.1742  0.7981
  595MOL0     C78463  10.364   4.952  11.132  0.7236 -0.6558  0.5374
  595MOL0     C78464  10.493   5.004  11.114 -0.1307  1.2390  0.2177
  595MOL0     C78465  10.615   4.934  11.122  0.6749  0.4279  0.3011
  595MOL0     O78466  10.732   5.002  11.097  0.1605  0.1386  0.2400
  595MOL0     C78467  10.848   4.920  11.061 -1.2875 -0.5428  0.6204
  595MOL0     C78468  10.932   4.896  11.190 -0.5671  0.1169  0.4998
  595MOL0     C78469  11.057   4.800  11.176  0.2888 -0.0394  1.1704
  595MOL0     C78470  11.039   4.670  11.093 -0.5067  0.0931 -0.1037
  595MOL0     C78471  11.159   4.593  11.119 -0.1163 -0.1055 -1.1769
  595MOL0     C78472  11.246   4.518  11.148  0.3802  0.2309 -0.2359
  595MOL0     C78473  10.603   4.796  11.149  0.1773 -0.0363  0.5399
  595MOL0     C78474  10.469   4.742  11.167 -0.0322  0.1886 -0.5230
  595MOL0     H78475   9.879   4.913  11.086  1.3743 -0.2010  0.0443
  595MOL0     H78476   9.655   4.827  11.152  0.4845 -0.0043  0.5167
  595MOL0     H78477   9.513   4.608  11.173  0.1292 -0.5604  0.3256
  595MOL0     H78478   9.449   4.743  11.275  1.7485  0.2376  0.2194
  595MOL0     H78479   9.351   4.593  11.426 -1.0511  1.8646 -1.5602
  595MOL0     H78480   9.418   4.446  11.353  0.5571  0.5652 -0.8625
  595MOL0     H78481   9.306   4.479  11.157  3.7500  0.3292  1.3936
  595MOL0     H78482   9.239   4.642  11.205  1.5998  2.1003  1.6867
  595MOL0     H78483   9.164   4.366  11.335 -1.8721  1.5307  4.4850
  595MOL0     H78484   9.109   4.528  11.388 -1.9680 -0.4034  0.5603
  595MOL0     H78485   9.015   4.406  11.130 -1.0024  0.8778 -0.1142
  595MOL0     H78486   8.990   4.571  11.194  2.6855  0.9124  1.1900
  595MOL0     H78487   8.902   4.468  11.398 -2.0320  1.5768 -1.6312
  595MOL0     H78488   8.934   4.306  11.320  1.6683  0.4506  1.3322
  595MOL0     H78489   8.758   4.525  11.197 -3.1869 -0.3266  2.0510
  595MOL0     H78490   8.760   4.355  11.157  0.4001  0.9853 -1.0699
  595MOL0     H78491   8.647   4.478  11.421 -0.9989  1.0987 -0.2702
  595MOL0     H78492   8.669   4.309  11.394  2.8280  1.4492  1.7447
  595MOL0     H78493   8.501   4.607  11.175 -1.6251  0.3055 -0.8419
  595MOL0     H78494   8.254   4.444  10.933  0.4207  0.7160 -1.5557
  595MOL0     H78495   8.329   4.602  10.987 -1.2195 -0.0648  1.3321
  595MOL0     H78496   8.176   4.605  11.172 -0.2395 -0.5347  0.2865
  595MOL0     H78497   8.101   4.460  11.115  1.4442 -0.1811  0.9461
  595MOL0     H78498   8.092   4.741  10.970 -3.1894  0.7181 -2.0811
  595MOL0     H78499   8.064   4.589  10.887 -2.2522  3.3756 -1.5583
  595MOL0     H78500   7.917   4.696  11.130 -1.4720 -1.3925  0.4180
  595MOL0     H78501   7.889   4.536  11.051 -0.5025 -0.4487 -1.6322
  595MOL0     H78502   7.682   4.556  11.106  2.8547 -2.5617 -3.2875
  595MOL0     H78503   7.426   4.538  11.081 -0.8114  1.8998  0.3061
  595MOL0     H78504   7.060   4.481  10.765  3.7555  0.6417  1.0046
  595MOL0     H78505   6.854   4.469  10.657  1.5702 -0.4152  2.7035
  595MOL0     H78506   6.608   4.623  10.693 -0.5172  0.6522 -0.5408
  595MOL0     H78507   6.652   4.488  10.605 -1.1437 -1.7340  0.4615
  595MOL0     H78508   6.459   4.699  10.483 -0.2136  0.7078 -0.3751
  595MOL0     H78509   6.408   4.569  10.590 -2.5378  1.9189 -1.9446
  595MOL0     H78510   6.543   4.407  10.440  1.2771  0.4054 -0.8099
  595MOL0     H78511   6.572   4.548  10.335 -0.7925  1.8185  0.5930
  595MOL0     H78512   6.391   4.382  10.258 -1.0006 -0.7264  1.4603
  595MOL0     H78513   6.298   4.430  10.388  0.5957 -1.4290 -0.2461
  595MOL0     H78514   6.399   4.622  10.172  2.5684  0.8364  1.7207
  595MOL0     H78515   6.309   4.681  10.309 -1.2810 -0.1546  0.3034
  595MOL0     H78516   6.115   4.542  10.277  3.0898  0.0309  2.0490
  595MOL0     H78517   6.171   4.469  10.125  1.0553 -1.2323  2.9824
  595MOL0     H78518   6.092   4.768  10.148 -3.4475  0.9365 -1.2241
  595MOL0     H78519   6.194   4.703  10.021 -0.4841  3.0272  2.3301
  595MOL0     H78520   5.992   4.547   9.962 -0.4355 -1.4019  1.6026
  595MOL0     H78521   5.956   4.722   9.964 -0.8753  0.2495  1.0904
  595MOL0     H78522   6.879   4.879  10.534 -3.3330 -0.9882  2.1202
  595MOL0     H78523   7.101   4.884  10.615  0.6593 -0.8106  1.8975
  595MOL0     H78524   7.455   4.769  10.723 -1.3868  2.1557  1.0283
  595MOL0     H78525   7.701   4.780  10.748 -0.9346 -1.4468 -1.3225
  595MOL0     H78526   9.844   4.559  11.436  0.4353  0.8224  0.7394
  595MOL0     H78527  10.050   4.629  11.367  2.2865  2.1017 -2.0862
  595MOL0     H78528  10.274   5.009  11.117  1.5332  0.9272  1.4138
  595MOL0     H78529  10.505   5.109  11.089  0.2895  1.0221 -0.5123
  595MOL0     H78530  10.908   4.973  10.986 -2.4108 -1.6449 -1.1204
  595MOL0     H78531  10.815   4.830  11.010  1.7641 -1.5546  0.2426
  595MOL0     H78532  10.965   4.991  11.232 -2.5181  1.3116 -0.5056
  595MOL0     H78533  10.865   4.835  11.251  0.9639 -2.7442 -0.5035
  595MOL0     H78534  11.106   4.773  11.270  0.7264 -2.5796  0.3150
  595MOL0     H78535  11.130   4.857  11.119 -0.6546  0.6683  0.6314
  595MOL0     H78536  10.949   4.613  11.117  0.1269  0.3390  3.3431
  595MOL0     H78537  11.027   4.694  10.987 -0.5119  2.9560  0.4670
  595MOL0     H78538  11.326   4.450  11.169  0.4222  0.4613  0.3836
  595MOL0     H78539  10.686   4.731  11.175  0.2505 -0.4946 -0.7975
  595MOL0     H78540  10.463   4.635  11.183 -2.1797  0.3534  0.1191
  596MOL0     O78541   2.036   9.804   6.418 -0.1613 -0.4888  0.2220
  596MOL0     C78542   2.119   9.887   6.381  0.7733  0.7988  0.4726
  596MOL0     O78543   2.131  10.015   6.431  0.5499 -0.3034  0.2152
  596MOL0     C78544   2.035  10.079   6.510  1.3421  0.2469  0.2558
  596MOL0     C78545   1.953  10.013   6.598  0.5970 -0.2471 -1.4873
  596MOL0     C78546   1.849  10.086   6.661  0.0479 -0.2080  0.0402
  596MOL0     C78547   1.843  10.224   6.654  0.9363  0.1142 -1.1162
  596MOL0     O78548   1.751  10.287   6.729  0.3443  0.0733 -0.3162
  596MOL0     C78549   1.812  10.388   6.807 -0.3936 -0.2672 -0.2931
  596MOL0     C78550   1.719  10.440   6.913 -0.6307  0.4391 -0.2614
  596MOL0     C78551   1.582  10.476   6.860  0.8352  0.4727 -0.6846
  596MOL0     C78552   1.499  10.527   6.986 -0.5606  0.0624  0.6636
  596MOL0     C78553   1.360  10.580   6.942 -0.3644 -0.2066 -0.3685
  596MOL0     C78554   1.282  10.663   7.054 -0.8781  0.0154  0.4196
  596MOL0     C78555   1.209  10.579   7.156  0.2707  0.2658  0.2354
  596MOL0     C78556   1.085  10.522   7.089  0.0449 -0.0647 -0.5265
  596MOL0     N78557   0.963  10.589   7.137  0.6056  0.5995 -0.3301
  596MOL0     C78558   0.933  10.722   7.139 -0.0352  0.0703 -0.9416
  596MOL0     C78559   0.802  10.725   7.148 -0.3606 -0.2060  0.5074
  596MOL0     C78560   0.721  10.851   7.133  0.3487  0.5492  0.6519
  596MOL0     C78561   0.573  10.824   7.162 -0.0120  0.2524 -0.4814
  596MOL0     C78562   0.503  10.953   7.191  0.0096 -0.1718  0.1483
  596MOL0     C78563   0.350  10.957   7.234  0.1442 -0.2259  0.4004
  596MOL0     O78564   0.274  10.886   7.135  0.3362  0.8799 -0.0376
  596MOL0     C78565   0.142  10.884   7.145  1.5611  0.2433  0.2012
  596MOL0     C78566   0.079  10.809   7.049 -0.3024  0.2003 -0.1842
  596MOL0     C78567  -0.063  10.806   7.038  0.1007 -0.9206 -1.3093
  596MOL0     C78568  -0.135  10.884   7.135  0.3017 -0.3775  0.0343
  596MOL0     C78569  -0.280  10.896   7.137 -0.2465 -0.4363  0.2757
  596MOL0     O78570  -0.331  10.970   7.242 -0.2215 -0.0468  0.2002
  596MOL0     C78571  -0.454  11.025   7.224  0.0853 -0.0485 -0.9328
  596MOL0     C78572  -0.541  11.012   7.331 -0.2836 -0.1985  0.4413
  596MOL0     C78573  -0.677  11.031   7.318  0.7691  0.2733 -0.2511
  596MOL0     C78574  -0.726  11.083   7.200  0.4271 -0.7214  0.1689
  596MOL0     O78575  -0.858  11.114   7.175 -0.1007  0.5003  0.1859
  596MOL0     C78576  -0.946  11.081   7.282  0.1002  0.3328 -0.2518
  596MOL0     C78577  -1.080  11.143   7.247 -0.0577  0.4343  0.0210
  596MOL0     C78578  -1.187  11.116   7.359  1.3606 -0.1404 -0.1546
  596MOL0     C78579  -1.144  11.166   7.498 -0.0124 -0.6062 -0.1899
  596MOL0     C78580  -1.253  11.153   7.602 -0.4374 -0.7002 -0.0551
  596MOL0     C78581  -1.231  11.192   7.753  0.4557 -0.7019  0.4845
  596MOL0     C78582  -1.347  11.155   7.839  0.3384  0.3707  0.8546
  596MOL0     C78583  -1.300  11.146   7.978 -0.4040  0.4726  0.2620
  596MOL0    Cl78584  -1.416  11.066   8.096 -0.5718 -0.0120  0.2685
  596MOL0     C78585  -0.639  11.114   7.102  0.2769  0.9538  1.0336
  596MOL0     C78586  -0.501  11.078   7.104 -0.1897 -0.4800 -0.3991
  596MOL0     O78587  -0.343  10.845   7.047  0.9091  0.5493  0.6582
  596MOL0     C78588  -0.063  10.952   7.239  0.5462  0.5864  0.2536
  596MOL0     C78589   0.070  10.957   7.243 -1.0739 -0.4805  0.0860
  596MOL0     N78590   0.749  10.605   7.169  0.3269  0.2951 -0.3907
  596MOL0     N78591   0.845  10.521   7.156  0.0060 -0.9114 -0.0620
  596MOL0     C78592   1.927  10.284   6.559  0.1509  0.4952 -0.6956
  596MOL0     C78593   2.025  10.214   6.490 -0.6594  0.5679  0.1923
  596MOL0     C78594   2.219   9.824   6.288  0.6510  0.4402 -0.3509
  596MOL0     C78595   2.189   9.704   6.218  0.1833 -0.3998  0.3068
  596MOL0     C78596   2.280   9.661   6.118  0.1041  0.3895 -0.2296
  596MOL0     C78597   2.387   9.734   6.091 -0.1520 -0.4895 -0.0889
  596MOL0     O78598   2.475   9.678   6.010  0.1363  0.0848  0.4765
  596MOL0     C78599   2.606   9.737   5.993 -0.3585  0.7551  0.8985
  596MOL0     C78600   2.685   9.661   5.889 -0.1463  0.0614 -0.1119
  596MOL0     C78601   2.612   9.599   5.763 -0.2196  0.4331  0.2977
  596MOL0     C78602   2.502   9.676   5.705 -0.0079  0.2936  0.4528
  596MOL0     C78603   2.563   9.781   5.622 -0.9274 -0.4375  1.2059
  596MOL0     C78604   2.609   9.860   5.544 -0.3003  0.0307 -0.0167
  596MOL0     C78605   2.412   9.852   6.166 -1.0612 -0.5002  0.6977
  596MOL0     C78606   2.331   9.897   6.269 -0.1211 -0.1379  0.0170
  596MOL0     H78607   1.967   9.907   6.614  3.5127  0.1086 -1.1518
  596MOL0     H78608   1.781  10.031   6.726 -1.1134  0.1913 -0.8036
  596MOL0     H78609   1.869  10.461   6.748  1.8491 -1.2128  0.5835
  596MOL0     H78610   1.899  10.348   6.859  0.5736  1.5642 -0.3958
  596MOL0     H78611   1.765  10.533   6.951 -1.2028  0.0644  1.4452
  596MOL0     H78612   1.713  10.365   6.992  1.0295  0.1529 -0.3589
  596MOL0     H78613   1.530  10.395   6.809  2.8840 -2.1723  1.1918
  596MOL0     H78614   1.593  10.561   6.791  1.0596 -0.0639 -1.3212
  596MOL0     H78615   1.490  10.442   7.055 -0.3969  1.2953  2.2765
  596MOL0     H78616   1.556  10.602   7.042  1.1273  3.3730 -4.7780
  596MOL0     H78617   1.294  10.502   6.905 -0.6618  1.2489 -3.1801
  596MOL0     H78618   1.378  10.649   6.859 -0.7274  1.0150  0.5407
  596MOL0     H78619   1.223  10.735   6.997  2.3016  0.8839 -2.0748
  596MOL0     H78620   1.351  10.734   7.101 -0.9614 -0.2143  0.9006
  596MOL0     H78621   1.283  10.511   7.199  0.0997  1.2557  2.2208
  596MOL0     H78622   1.180  10.652   7.232  1.9651 -0.4888  1.6656
  596MOL0     H78623   1.081  10.418   7.122 -1.8364 -0.4020 -1.7002
  596MOL0     H78624   1.083  10.527   6.980 -2.6399  3.0346 -0.4700
  596MOL0     H78625   0.995  10.809   7.120  0.7025  0.1127  1.3306
  596MOL0     H78626   0.731  10.888   7.030 -0.9067  1.9181  0.9972
  596MOL0     H78627   0.770  10.926   7.195  1.0367 -0.7920  1.7952
  596MOL0     H78628   0.563  10.771   7.257 -1.0752  0.2536 -0.5878
  596MOL0     H78629   0.520  10.775   7.080 -2.4148  3.0285 -0.7344
  596MOL0     H78630   0.563  11.000   7.270  0.9290 -2.1863  0.7173
  596MOL0     H78631   0.522  11.015   7.103 -1.8814 -1.6696 -1.3986
  596MOL0     H78632   0.321  11.063   7.226 -1.7820 -0.7575 -0.1219
  596MOL0     H78633   0.342  10.913   7.334  0.5782 -0.2517  0.4279
  596MOL0     H78634   0.140  10.757   6.976  2.1593 -0.6604  2.3457
  596MOL0     H78635  -0.118  10.745   6.967 -2.2087  1.2124 -1.4843
  596MOL0     H78636  -0.495  10.969   7.420  0.4578  0.7840  0.5501
  596MOL0     H78637  -0.741  11.010   7.403 -0.7150  0.8817 -1.1751
  596MOL0     H78638  -0.914  11.130   7.374  0.3698  0.7059 -0.5434
  596MOL0     H78639  -0.953  10.972   7.288  0.7247 -0.1720 -4.8907
  596MOL0     H78640  -1.113  11.110   7.148 -0.5070  0.6153  0.1051
  596MOL0     H78641  -1.057  11.250   7.243  2.4180 -0.0545 -0.4848
  596MOL0     H78642  -1.226  11.014   7.368  2.1365 -0.3882  0.5442
  596MOL0     H78643  -1.259  11.190   7.323  0.0746  0.0098  2.5172
  596MOL0     H78644  -1.059  11.103   7.526 -0.2024 -0.1538  1.4632
  596MOL0     H78645  -1.103  11.267   7.496 -1.2856 -0.0373  1.1398
  596MOL0     H78646  -1.286  11.051   7.582 -0.4317 -0.7474  0.1753
  596MOL0     H78647  -1.327  11.226   7.569 -1.2398 -1.6847 -0.4989
  596MOL0     H78648  -1.214  11.300   7.767 -0.9777 -0.1798 -1.4036
  596MOL0     H78649  -1.139  11.137   7.777  0.3176 -1.5823 -0.9099
  596MOL0     H78650  -1.433  11.222   7.829  0.1736  0.2371  1.3227
  596MOL0     H78651  -1.373  11.053   7.809 -0.0059  1.1110 -1.5884
  596MOL0     H78652  -1.271  11.244   8.017 -1.5845  0.7646  0.4438
  596MOL0     H78653  -1.210  11.084   7.978 -0.4824  0.3497  1.0478
  596MOL0     H78654  -0.661  11.168   7.011  0.4645  2.4075  1.8188
  596MOL0     H78655  -0.436  11.104   7.022  1.4517  1.3639  1.3555
  596MOL0     H78656  -0.115  11.016   7.309  0.5801  1.3601 -0.4088
  596MOL0     H78657   0.127  11.022   7.308  1.3831  0.2365 -2.5928
  596MOL0     H78658   1.915  10.391   6.543  0.3514  1.2669  3.3043
  596MOL0     H78659   2.098  10.255   6.421  0.1375 -2.1751 -0.7339
  596MOL0     H78660   2.096   9.648   6.226 -1.7199  2.1767 -1.9168
  596MOL0     H78661   2.253   9.565   6.073  0.3001 -0.6901  1.8506
  596MOL0     H78662   2.660   9.749   6.087  0.5551  4.6236  0.0392
  596MOL0     H78663   2.597   9.839   5.955  0.2716 -0.3190 -2.4974
  596MOL0     H78664   2.769   9.729   5.872  0.7827 -0.7753  1.0392
  596MOL0     H78665   2.722   9.574   5.943 -1.5553 -1.1473 -1.0126
  596MOL0     H78666   2.577   9.501   5.797  0.4168  1.0573  3.0268
  596MOL0     H78667   2.685   9.581   5.683 -0.7516 -1.1968  0.1424
  596MOL0     H78668   2.443   9.616   5.634 -0.7661  0.5896  0.8173
  596MOL0     H78669   2.432   9.714   5.780  0.7784  0.3193  1.1812
  596MOL0     H78670   2.660   9.929   5.480  1.3695 -1.0394  0.1026
  596MOL0     H78671   2.505   9.905   6.150 -2.0160  1.3683  1.0790
  596MOL0     H78672   2.352   9.982   6.332  0.9244 -0.6203  0.3371
  597MOL0     O78673   4.073   5.431   2.128 -0.7208 -0.7141 -0.6350
  597MOL0     C78674   4.028   5.489   2.032 -0.4071 -0.2849  0.0042
  597MOL0     O78675   3.897   5.509   2.002  0.3797 -0.1270  0.2080
  597MOL0     C78676   3.792   5.461   2.080  0.4699 -0.5600  0.0781
  597MOL0     C78677   3.794   5.339   2.153 -0.1458  0.1086 -0.0983
  597MOL0     C78678   3.678   5.297   2.214  1.0552  0.1195 -0.4916
  597MOL0     C78679   3.569   5.387   2.236 -0.0859 -0.7478 -0.0091
  597MOL0     O78680   3.462   5.331   2.301 -0.1553  0.2915 -0.2249
  597MOL0     C78681   3.339   5.410   2.310  0.7319  0.4732  0.7832
  597MOL0     C78682   3.233   5.329   2.366  0.4216  0.9829  0.1384
  597MOL0     C78683   3.093   5.380   2.348  0.4210 -0.6369  0.1074
  597MOL0     C78684   2.999   5.304   2.431  0.3012 -0.3870  0.3054
  597MOL0     C78685   2.865   5.383   2.451  0.8660 -0.2171 -0.0701
  597MOL0     C78686   2.778   5.402   2.323 -1.1140 -0.7811  0.3027
  597MOL0     C78687   2.630   5.368   2.337 -0.6408  0.2548 -0.4387
  597MOL0     C78688   2.560   5.469   2.428  0.3618 -0.2858 -0.6907
  597MOL0     N78689   2.418   5.436   2.456 -0.0970 -0.6239  0.0675
  597MOL0     C78690   2.367   5.304   2.462 -0.0552  0.3036 -0.6975
  597MOL0     C78691   2.235   5.321   2.470 -0.1731  0.3762  0.1245
  597MOL0     C78692   2.128   5.219   2.498  0.4407  0.6165  0.4255
  597MOL0     C78693   2.159   5.127   2.610 -0.4056  0.1555 -0.0735
  597MOL0     C78694   2.101   4.983   2.591  0.1956 -0.2661  0.8864
  597MOL0     C78695   1.949   4.987   2.609  0.0509  0.8122  0.2813
  597MOL0     O78696   1.905   5.012   2.742  0.0658 -0.0244  0.1179
  597MOL0     C78697   1.788   4.953   2.782 -0.1291 -0.5106  0.8470
  597MOL0     C78698   1.695   4.893   2.700  0.5424 -0.5379  0.0590
  597MOL0     C78699   1.573   4.847   2.757 -0.2861  0.7999  0.2842
  597MOL0     C78700   1.549   4.862   2.896  0.1800  0.6379  0.1112
  597MOL0     C78701   1.419   4.822   2.961  0.0405 -0.2818 -0.0727
  597MOL0     O78702   1.420   4.792   3.101 -0.3985 -0.0273 -0.0400
  597MOL0     C78703   1.303   4.756   3.166  0.4212  0.8001  0.1255
  597MOL0     C78704   1.184   4.830   3.149 -0.7474  0.2057 -0.3158
  597MOL0     C78705   1.069   4.807   3.223  0.1016 -0.5216 -0.2660
  597MOL0     C78706   1.072   4.709   3.316 -0.7301 -0.7615 -1.1259
  597MOL0     O78707   0.973   4.684   3.400 -0.1576 -0.5965 -0.2036
  597MOL0     C78708   0.934   4.788   3.492 -0.4635  0.2903  0.2100
  597MOL0     C78709   0.821   4.745   3.581  0.2069 -0.2277  0.3704
  597MOL0     C78710   0.842   4.623   3.658 -0.0934  0.2448 -0.0996
  597MOL0     C78711   0.715   4.584   3.731 -0.8839  0.8920  0.8692
  597MOL0     C78712   0.758   4.460   3.820 -0.0495  0.0499 -0.1116
  597MOL0     C78713   0.648   4.408   3.923  0.1782 -0.2951  0.1524
  597MOL0     C78714   0.711   4.307   4.018 -0.4508 -0.0971 -0.1142
  597MOL0     C78715   0.607   4.262   4.123 -0.1851 -0.5683  0.5104
  597MOL0    Cl78716   0.579   4.400   4.229 -0.0353  0.0788 -0.1715
  597MOL0     C78717   1.193   4.636   3.340  0.1921  0.9904 -0.4409
  597MOL0     C78718   1.307   4.658   3.260 -0.2958  0.8831 -0.1121
  597MOL0     O78719   1.326   4.806   2.886  0.8181  0.0784 -0.3742
  597MOL0     C78720   1.643   4.918   2.976 -0.4141  0.1397 -0.4551
  597MOL0     C78721   1.767   4.964   2.924  0.1034 -0.0746 -0.1584
  597MOL0     N78722   2.209   5.456   2.460  0.6061  0.4523 -0.4346
  597MOL0     N78723   2.318   5.524   2.462  1.3527 -0.0893 -0.3113
  597MOL0     C78724   3.581   5.511   2.189  0.1993 -0.4217  0.8009
  597MOL0     C78725   3.688   5.546   2.105  0.1170 -0.7049  0.4947
  597MOL0     C78726   4.137   5.535   1.936  0.0645 -0.5758 -0.3633
  597MOL0     C78727   4.277   5.519   1.961 -0.4802 -1.1471 -0.3085
  597MOL0     C78728   4.369   5.571   1.867 -0.0155  0.4173 -0.0706
  597MOL0     C78729   4.337   5.632   1.753 -0.2526 -0.3676  0.5079
  597MOL0     O78730   4.437   5.662   1.663 -0.6076  0.4249 -0.6686
  597MOL0     C78731   4.399   5.706   1.534 -0.3219 -0.8844 -0.2253
  597MOL0     C78732   4.534   5.736   1.448 -0.4968  0.0027  0.2464
  597MOL0     C78733   4.602   5.854   1.494  0.2173 -0.0095 -0.2391
  597MOL0     C78734   4.700   5.908   1.397 -0.5788 -0.9046 -0.1318
  597MOL0     C78735   4.736   6.046   1.420 -0.0230 -0.5185  0.6364
  597MOL0     C78736   4.754   6.166   1.452  0.9973  0.6806 -0.8665
  597MOL0     C78737   4.206   5.653   1.732  0.0924 -0.6164  0.0233
  597MOL0     C78738   4.110   5.612   1.828  0.2100 -0.5078  0.2065
  597MOL0     H78739   3.871   5.264   2.139  1.5116  1.9253 -1.1666
  597MOL0     H78740   3.675   5.192   2.244  0.0945 -0.0021 -0.9913
  597MOL0     H78741   3.307   5.431   2.208 -1.4437  0.1679  1.3458
  597MOL0     H78742   3.369   5.501   2.362  2.7986 -0.8440  2.0421
  597MOL0     H78743   3.252   5.319   2.473  0.8014 -0.3064 -0.0348
  597MOL0     H78744   3.241   5.230   2.319 -1.2025  1.5316 -1.4191
  597MOL0     H78745   3.062   5.377   2.243 -2.5010  3.1251  0.6127
  597MOL0     H78746   3.094   5.483   2.386 -0.3470  0.1616 -1.8909
  597MOL0     H78747   2.984   5.208   2.381 -2.1842  0.0808  0.0171
  597MOL0     H78748   3.039   5.285   2.531  0.3660  0.4411  0.4441
  597MOL0     H78749   2.876   5.483   2.493  1.4351  1.0097 -2.8919
  597MOL0     H78750   2.808   5.324   2.523  0.7934 -1.4608 -1.1119
  597MOL0     H78751   2.826   5.344   2.244  2.0934  0.8325  0.9164
  597MOL0     H78752   2.784   5.507   2.293  1.4749 -0.4197  1.7793
  597MOL0     H78753   2.580   5.363   2.240  1.2288  0.7946 -1.4802
  597MOL0     H78754   2.607   5.271   2.384 -1.6035  0.2254 -0.9477
  597MOL0     H78755   2.560   5.570   2.386 -0.0888  0.0461  0.0889
  597MOL0     H78756   2.612   5.475   2.524 -0.6392 -0.1383 -0.1470
  597MOL0     H78757   2.417   5.208   2.464 -0.5378 -0.0039 -2.1912
  597MOL0     H78758   2.103   5.168   2.405 -1.3803  1.9108  0.1469
  597MOL0     H78759   2.035   5.266   2.533  0.4779 -0.0408  1.4365
  597MOL0     H78760   2.126   5.164   2.708  1.0196 -2.0233  1.3300
  597MOL0     H78761   2.268   5.114   2.613 -0.4692 -0.5674 -0.6442
  597MOL0     H78762   2.133   4.948   2.493  2.8636 -0.0114  1.5991
  597MOL0     H78763   2.141   4.918   2.669 -2.6642 -1.1773  1.7117
  597MOL0     H78764   1.919   4.885   2.585 -1.3265  0.5120  2.9426
  597MOL0     H78765   1.901   5.045   2.529 -2.7139 -2.7943 -0.9455
  597MOL0     H78766   1.726   4.880   2.597  1.6022 -0.3552  0.3473
  597MOL0     H78767   1.498   4.790   2.703 -1.5034  0.5334  2.1764
  597MOL0     H78768   1.165   4.905   3.073 -1.3663  0.7435  0.3559
  597MOL0     H78769   0.984   4.875   3.219  1.7688  1.9665  2.5340
  597MOL0     H78770   0.917   4.884   3.441 -0.2447  0.2665  0.0914
  597MOL0     H78771   1.017   4.812   3.559 -0.3092  2.3525 -0.6325
  597MOL0     H78772   0.739   4.723   3.511  2.8962 -1.3745 -2.6664
  597MOL0     H78773   0.812   4.826   3.654  1.9537  0.3646 -0.0369
  597MOL0     H78774   0.917   4.625   3.737  0.6619 -1.7887 -0.7065
  597MOL0     H78775   0.860   4.536   3.595 -2.1703 -2.1098  2.2917
  597MOL0     H78776   0.679   4.667   3.792  0.9227  1.4752  1.2222
  597MOL0     H78777   0.638   4.550   3.663 -1.0229 -2.4154  2.5088
  597MOL0     H78778   0.850   4.485   3.873 -0.4055  4.3980 -1.1536
  597MOL0     H78779   0.784   4.377   3.753  1.8891  0.1055  0.5194
  597MOL0     H78780   0.573   4.361   3.859  0.3948 -0.6150  0.1301
  597MOL0     H78781   0.606   4.488   3.984  3.0746  1.0379  0.5856
  597MOL0     H78782   0.758   4.220   3.973  2.3145  0.5586  1.2443
  597MOL0     H78783   0.793   4.352   4.076  1.6598 -0.0262 -2.9479
  597MOL0     H78784   0.645   4.176   4.178  0.3123 -1.5845 -1.3345
  597MOL0     H78785   0.520   4.233   4.063 -0.9855 -0.4190  1.5708
  597MOL0     H78786   1.183   4.576   3.430 -2.2469  2.2945  0.2779
  597MOL0     H78787   1.393   4.593   3.268  0.1612  1.2409 -1.6083
  597MOL0     H78788   1.627   4.928   3.083 -2.1046 -0.0570 -0.6727
  597MOL0     H78789   1.838   5.016   2.987 -0.7516  0.6930  0.1879
  597MOL0     H78790   3.503   5.584   2.210  0.9978  0.5407  0.5040
  597MOL0     H78791   3.691   5.642   2.054 -1.0482  0.0854  1.8122
  597MOL0     H78792   4.305   5.473   2.055 -2.1852 -0.3549  0.6265
  597MOL0     H78793   4.474   5.547   1.881 -0.1499  0.6676  1.5747
  597MOL0     H78794   4.349   5.801   1.554 -1.4164 -1.4481 -0.1944
  597MOL0     H78795   4.330   5.636   1.486 -1.0668 -2.3513  2.7459
  597MOL0     H78796   4.601   5.649   1.452  1.8383  1.7467  1.7093
  597MOL0     H78797   4.510   5.759   1.344 -0.3567 -0.7400  0.0391
  597MOL0     H78798   4.646   5.828   1.590 -1.6708  1.1321  1.0184
  597MOL0     H78799   4.524   5.929   1.514 -2.0522 -2.0306 -0.9901
  597MOL0     H78800   4.786   5.842   1.382 -0.1455 -0.1611 -1.0855
  597MOL0     H78801   4.649   5.908   1.300  0.2958  1.2561 -0.6630
  597MOL0     H78802   4.772   6.270   1.471 -0.8060  0.8284  0.2679
  597MOL0     H78803   4.171   5.716   1.650  0.4380 -1.8609 -1.1270
  597MOL0     H78804   4.006   5.636   1.807  0.2725  0.1822  0.6814
  598MOL0     O78805   4.330   4.960   7.369  0.0429 -0.9935 -0.1976
  598MOL0     C78806   4.276   4.984   7.260  0.6933 -0.5192  0.3526
  598MOL0     O78807   4.171   5.070   7.244  0.5789  0.3730  0.9342
  598MOL0     C78808   4.116   5.145   7.348 -0.6244  0.6136  1.0611
  598MOL0     C78809   4.118   5.281   7.343  0.0616  0.6735  0.0954
  598MOL0     C78810   4.051   5.361   7.442 -0.1231 -1.1688 -0.5127
  598MOL0     C78811   3.995   5.296   7.552 -0.0574 -0.5452  0.3482
  598MOL0     O78812   3.944   5.361   7.663 -0.1896 -0.8917 -0.1209
  598MOL0     C78813   3.933   5.504   7.653 -0.9179 -0.2478  0.7146
  598MOL0     C78814   3.867   5.569   7.782 -0.4463 -0.5805 -0.0393
  598MOL0     C78815   3.739   5.493   7.814  0.1981  0.1652 -0.0603
  598MOL0     C78816   3.644   5.574   7.898  0.8877 -0.0666 -0.0893
  598MOL0     C78817   3.530   5.489   7.963  0.1956 -0.4402  0.0127
  598MOL0     C78818   3.420   5.577   8.008 -0.1352 -0.3051 -0.2872
  598MOL0     C78819   3.284   5.502   8.036  0.4154 -0.5660  0.8330
  598MOL0     C78820   3.186   5.610   8.081  0.3193 -0.5584 -0.1644
  598MOL0     N78821   3.051   5.555   8.102 -0.6622 -0.2383  0.6564
  598MOL0     C78822   2.943   5.600   8.039  0.1972 -0.0102  0.1454
  598MOL0     C78823   2.833   5.537   8.101 -0.4558  0.0172 -0.1927
  598MOL0     C78824   2.688   5.547   8.084  0.0957  0.7657 -1.0162
  598MOL0     C78825   2.619   5.599   8.211 -0.3666 -1.4102 -0.3859
  598MOL0     C78826   2.570   5.474   8.298 -0.1767  0.1597 -0.5949
  598MOL0     C78827   2.497   5.511   8.439  0.3289 -0.1448  1.1249
  598MOL0     O78828   2.389   5.609   8.415 -0.0553 -0.0515 -0.3729
  598MOL0     C78829   2.266   5.571   8.371 -0.5224 -0.2765  0.2348
  598MOL0     C78830   2.228   5.439   8.331  0.6440  0.4396  0.9352
  598MOL0     C78831   2.101   5.413   8.278  0.8930 -0.3355 -0.3755
  598MOL0     C78832   2.001   5.511   8.279 -0.8025 -0.2421 -0.4655
  598MOL0     C78833   1.862   5.480   8.247  1.8996 -0.2031  0.6116
  598MOL0     O78834   1.829   5.371   8.168  0.1461  0.3819  0.1185
  598MOL0     C78835   1.707   5.314   8.198  0.1859  0.3293  0.2954
  598MOL0     C78836   1.600   5.345   8.120 -0.3226  0.2797 -0.0714
  598MOL0     C78837   1.473   5.283   8.148  0.0314  0.4762  0.1055
  598MOL0     C78838   1.465   5.200   8.253  1.6592  0.8032 -0.0257
  598MOL0     O78839   1.350   5.134   8.276  0.2006 -0.3216  0.1549
  598MOL0     C78840   1.230   5.213   8.289  0.1775  0.0308 -0.8320
  598MOL0     C78841   1.136   5.127   8.379 -0.3301 -0.7343 -0.2569
  598MOL0     C78842   1.021   5.216   8.439  0.3639  0.4181  0.0866
  598MOL0     C78843   0.926   5.115   8.513  0.0309 -0.2863 -0.5849
  598MOL0     C78844   0.780   5.155   8.508 -0.3503  0.4844 -0.3552
  598MOL0     C78845   0.757   5.304   8.538 -0.0970 -0.0868  0.9522
  598MOL0     C78846   0.620   5.333   8.590 -0.3334  1.0753  0.4517
  598MOL0     C78847   0.606   5.286   8.744 -0.0367 -1.0942 -0.7576
  598MOL0    Cl78848   0.443   5.332   8.795 -0.5563 -0.1680 -0.3310
  598MOL0     C78849   1.577   5.178   8.336 -0.7418 -0.3895 -0.4551
  598MOL0     C78850   1.702   5.228   8.308  0.0286  0.1877  0.9234
  598MOL0     O78851   1.773   5.548   8.300 -0.1900  0.9049  0.6235
  598MOL0     C78852   2.031   5.637   8.327 -0.0915  0.0283 -0.0666
  598MOL0     C78853   2.167   5.672   8.365 -0.5046 -0.3427 -1.1300
  598MOL0     N78854   2.890   5.456   8.202  0.8580  0.1910 -0.3044
  598MOL0     N78855   3.016   5.464   8.193 -0.2121  0.4968  0.4212
  598MOL0     C78856   4.001   5.156   7.567  0.5095 -0.5231  0.5506
  598MOL0     C78857   4.060   5.081   7.462  0.2288 -0.3848 -0.6303
  598MOL0     C78858   4.321   4.897   7.149 -0.1028  0.2270 -0.7408
  598MOL0     C78859   4.436   4.815   7.159 -0.7484  0.0629  0.2903
  598MOL0     C78860   4.483   4.739   7.048  1.3822 -0.2671 -0.3766
  598MOL0     C78861   4.407   4.742   6.930  0.3601 -0.3289  0.0936
  598MOL0     O78862   4.442   4.678   6.813  0.1305  0.1786  0.6850
  598MOL0     C78863   4.579   4.629   6.810 -0.1635 -0.2552  0.0247
  598MOL0     C78864   4.615   4.568   6.676  0.8041 -0.5321 -0.0232
  598MOL0     C78865   4.539   4.431   6.662  0.5020  0.4386  0.0292
  598MOL0     C78866   4.564   4.367   6.522  0.3712 -0.0065 -0.0726
  598MOL0     C78867   4.705   4.324   6.515  0.0423 -0.5883 -0.7728
  598MOL0     C78868   4.810   4.274   6.487  0.7443 -0.1722 -0.0534
  598MOL0     C78869   4.287   4.819   6.926  0.1804 -0.0672 -0.8056
  598MOL0     C78870   4.239   4.894   7.035 -0.7226  0.6700  0.0159
  598MOL0     H78871   4.166   5.344   7.269 -0.3398  0.7024 -0.1415
  598MOL0     H78872   4.075   5.467   7.442  1.1074 -1.3417 -3.5329
  598MOL0     H78873   3.862   5.527   7.573 -0.2203 -0.7044 -0.0592
  598MOL0     H78874   4.022   5.561   7.624 -0.9733 -1.8298 -3.1364
  598MOL0     H78875   3.841   5.676   7.781  0.4834 -0.3339  0.7892
  598MOL0     H78876   3.938   5.555   7.864  1.5649 -1.9074 -1.9118
  598MOL0     H78877   3.771   5.402   7.865  1.1580 -1.0468 -2.6537
  598MOL0     H78878   3.682   5.459   7.726 -0.1570 -0.0684  0.2525
  598MOL0     H78879   3.695   5.619   7.984 -0.9303 -0.1898  1.1209
  598MOL0     H78880   3.597   5.650   7.835  0.5970 -0.1606  0.0082
  598MOL0     H78881   3.579   5.442   8.049  0.1782  0.0576  0.2946
  598MOL0     H78882   3.491   5.415   7.892  1.9997 -0.2597 -1.2646
  598MOL0     H78883   3.410   5.658   7.936  1.1582 -0.6349 -0.8752
  598MOL0     H78884   3.457   5.624   8.100 -0.5127 -3.2295  1.4992
  598MOL0     H78885   3.251   5.440   7.952 -2.9831 -0.4015  1.8944
  598MOL0     H78886   3.283   5.436   8.123 -1.5191 -0.4251  0.9660
  598MOL0     H78887   3.180   5.682   8.000  1.9281 -0.4322 -0.2155
  598MOL0     H78888   3.214   5.669   8.169  1.7581 -0.6042 -0.5621
  598MOL0     H78889   2.941   5.680   7.965  0.0836 -0.2551 -0.1200
  598MOL0     H78890   2.651   5.446   8.063  1.1442  0.3305 -0.8548
  598MOL0     H78891   2.669   5.613   7.999 -1.2109  0.4154 -1.0150
  598MOL0     H78892   2.526   5.651   8.188 -0.2470 -0.6235  0.8133
  598MOL0     H78893   2.687   5.664   8.267 -2.3077 -0.3855  0.9155
  598MOL0     H78894   2.498   5.416   8.239 -0.2560  1.3588 -1.7138
  598MOL0     H78895   2.655   5.410   8.324 -1.7701 -1.2383  1.5477
  598MOL0     H78896   2.575   5.556   8.501  0.9975  1.1638 -0.5668
  598MOL0     H78897   2.455   5.424   8.489  0.2116 -0.0298  1.2249
  598MOL0     H78898   2.301   5.359   8.333  1.9936  1.5246 -1.2878
  598MOL0     H78899   2.069   5.316   8.244 -0.5401  0.0444 -0.1942
  598MOL0     H78900   1.611   5.410   8.033  0.4379 -0.8980 -0.8860
  598MOL0     H78901   1.392   5.291   8.077  0.2685  1.6411 -0.0623
  598MOL0     H78902   1.189   5.247   8.194 -1.3864  0.2828 -0.0893
  598MOL0     H78903   1.233   5.302   8.354  0.1066 -0.0466 -0.7212
  598MOL0     H78904   1.195   5.068   8.450  1.5211  0.4847 -0.6832
  598MOL0     H78905   1.104   5.058   8.300  2.2508 -0.1563 -1.9500
  598MOL0     H78906   0.977   5.270   8.354 -1.3881  0.0169  0.7031
  598MOL0     H78907   1.068   5.277   8.516  1.8815 -2.1674  1.3553
  598MOL0     H78908   0.935   5.014   8.470  0.6810 -0.5136  0.0704
  598MOL0     H78909   0.949   5.103   8.619  1.8417  2.2408 -0.5960
  598MOL0     H78910   0.720   5.093   8.576 -1.0943 -0.8621 -2.1592
  598MOL0     H78911   0.745   5.128   8.408  1.0010 -1.7345 -0.3111
  598MOL0     H78912   0.770   5.374   8.454 -4.0555 -0.1870  0.0531
  598MOL0     H78913   0.821   5.332   8.622 -0.7928  1.0745  1.1280
  598MOL0     H78914   0.589   5.436   8.570 -0.1264  0.6590 -2.3902
  598MOL0     H78915   0.549   5.283   8.524 -1.2348  1.3808  1.1641
  598MOL0     H78916   0.682   5.336   8.805 -0.1589 -0.3273 -1.2188
  598MOL0     H78917   0.616   5.178   8.753 -1.2969 -1.1780 -0.2187
  598MOL0     H78918   1.567   5.103   8.414  1.3872 -1.4622 -1.1325
  598MOL0     H78919   1.791   5.205   8.365  0.8318  0.5600 -0.1621
  598MOL0     H78920   1.953   5.709   8.347 -0.0521  0.3005 -0.8583
  598MOL0     H78921   2.199   5.774   8.385  2.0979 -0.6783 -3.1096
  598MOL0     H78922   3.968   5.108   7.659 -0.5425  1.1511  1.0983
  598MOL0     H78923   4.062   4.973   7.468  1.7077 -0.4970 -2.4107
  598MOL0     H78924   4.491   4.813   7.252  0.2905  2.2023 -0.2323
  598MOL0     H78925   4.577   4.693   7.078  2.1752  0.0409 -2.2188
  598MOL0     H78926   4.596   4.552   6.886  0.7064 -1.5698 -1.4337
  598MOL0     H78927   4.645   4.713   6.836  0.0772 -0.6968  0.8557
  598MOL0     H78928   4.585   4.633   6.593 -2.7455  0.5310  1.8602
  598MOL0     H78929   4.724   4.560   6.681  0.9627  1.3273  0.1215
  598MOL0     H78930   4.431   4.439   6.679  0.5490  0.9576  0.1103
  598MOL0     H78931   4.569   4.370   6.748 -1.9763 -0.0359  0.6321
  598MOL0     H78932   4.500   4.278   6.516  2.5383 -1.7003  0.7708
  598MOL0     H78933   4.536   4.427   6.435  0.1487  1.2486  0.8345
  598MOL0     H78934   4.900   4.225   6.454 -1.2278 -3.1618 -1.4049
  598MOL0     H78935   4.222   4.817   6.840 -0.7273 -2.2907 -0.1601
  598MOL0     H78936   4.158   4.965   7.021  1.3408  2.7746 -2.1359
  599MOL0     O78937   1.054   8.017   6.485  0.5496 -0.2546  0.7580
  599MOL0     C78938   1.103   8.067   6.389 -0.2522 -1.0596  0.1506
  599MOL0     O78939   1.046   8.165   6.310 -0.6924 -0.2047  0.0547
  599MOL0     C78940   0.911   8.181   6.294 -0.8231 -0.0383  1.3169
  599MOL0     C78941   0.875   8.311   6.256  0.0243  0.3302  1.1899
  599MOL0     C78942   0.735   8.339   6.235 -0.8122  0.5585 -0.1705
  599MOL0     C78943   0.637   8.251   6.259 -0.5251  0.2223  1.1445
  599MOL0     O78944   0.506   8.295   6.243  0.5573 -0.0138  0.0257
  599MOL0     C78945   0.403   8.243   6.332 -0.1118 -0.2509  0.5860
  599MOL0     C78946   0.278   8.335   6.310  0.1611  0.9848 -0.5008
  599MOL0     C78947   0.178   8.332   6.426 -0.7400 -0.4471  0.3043
  599MOL0     C78948   0.107   8.201   6.444 -1.0882  0.5534  0.1255
  599MOL0     C78949  -0.015   8.231   6.544 -0.0978 -0.8664  0.3013
  599MOL0     C78950  -0.084   8.103   6.577  0.4803 -0.2304 -0.7510
  599MOL0     C78951  -0.208   8.136   6.674  0.0008 -0.3365  0.1646
  599MOL0     C78952  -0.321   8.176   6.577  0.0168 -0.5494  0.6162
  599MOL0     N78953  -0.446   8.193   6.649  0.2862  0.0394  0.0029
  599MOL0     C78954  -0.485   8.311   6.707  0.2982  0.1970  0.7329
  599MOL0     C78955  -0.610   8.293   6.744 -0.5316 -1.1364  1.3374
  599MOL0     C78956  -0.691   8.396   6.815 -0.4483 -0.1029 -0.0430
  599MOL0     C78957  -0.732   8.513   6.724  0.3131  0.8609 -0.6514
  599MOL0     C78958  -0.818   8.467   6.606  0.1480 -0.0093  0.4537
  599MOL0     C78959  -0.936   8.376   6.645  0.0873 -0.8874 -1.3304
  599MOL0     O78960  -1.024   8.456   6.727 -0.0994 -0.1004 -0.0307
  599MOL0     C78961  -1.121   8.386   6.796 -0.2729  0.4379  0.3713
  599MOL0     C78962  -1.211   8.458   6.866  0.5645  0.1766  0.0132
  599MOL0     C78963  -1.320   8.390   6.936  0.1725  0.4738  0.3309
  599MOL0     C78964  -1.339   8.255   6.917  0.2421  0.1006 -0.6733
  599MOL0     C78965  -1.450   8.201   6.985  1.0329  0.4535 -0.0936
  599MOL0     O78966  -1.476   8.248   7.112  0.0849  0.1863 -0.2564
  599MOL0     C78967  -1.551   8.173   7.200 -0.3723 -0.0724 -0.0510
  599MOL0     C78968  -1.612   8.246   7.303  0.5653 -0.0780  0.2495
  599MOL0     C78969  -1.694   8.190   7.403 -0.2412 -0.6168  0.1325
  599MOL0     C78970  -1.715   8.048   7.398  0.3416 -0.5664 -0.7979
  599MOL0     O78971  -1.773   8.000   7.509  0.5716  0.3130 -0.3299
  599MOL0     C78972  -1.873   7.901   7.484 -0.0608 -1.0968 -0.1637
  599MOL0     C78973  -1.942   7.887   7.616  0.1617  0.1771  1.0743
  599MOL0     C78974  -1.847   7.828   7.722  0.3657  0.5084  0.3236
  599MOL0     C78975  -1.882   7.831   7.873 -0.1158  1.0364 -0.3426
  599MOL0     C78976  -1.769   7.761   7.955  1.0145  0.7689  0.3586
  599MOL0     C78977  -1.658   7.854   7.991  1.2469  0.2786  0.4287
  599MOL0     C78978  -1.540   7.775   8.033  0.3582  0.2695 -0.1515
  599MOL0     C78979  -1.420   7.862   8.090 -1.5005 -0.6462 -0.2773
  599MOL0    Cl78980  -1.291   7.735   8.138  0.5954  0.1333 -0.4897
  599MOL0     C78981  -1.650   7.970   7.301 -0.1704  0.3622  0.1017
  599MOL0     C78982  -1.566   8.031   7.208 -0.6127  0.1017 -1.0396
  599MOL0     O78983  -1.516   8.117   6.931  0.6933  0.7026 -0.0672
  599MOL0     C78984  -1.256   8.190   6.829 -0.7719  0.5991 -0.5326
  599MOL0     C78985  -1.142   8.250   6.779 -0.5405  0.0431 -0.4955
  599MOL0     N78986  -0.650   8.168   6.712 -0.5027 -0.1545 -0.6589
  599MOL0     N78987  -0.555   8.109   6.644 -0.0013 -0.9084 -0.2958
  599MOL0     C78988   0.677   8.128   6.307  0.1561  0.3351  0.4033
  599MOL0     C78989   0.815   8.091   6.335  1.7184 -0.4087  0.2873
  599MOL0     C78990   1.247   8.018   6.355  1.3092  0.6389 -0.6821
  599MOL0     C78991   1.321   8.071   6.251  0.8166 -0.8488  0.6260
  599MOL0     C78992   1.450   8.037   6.227 -0.1255  0.2406  0.7454
  599MOL0     C78993   1.514   7.938   6.296 -0.4198  0.5332 -0.3942
  599MOL0     O78994   1.639   7.884   6.287 -0.1300 -0.3029  0.8356
  599MOL0     C78995   1.717   7.939   6.177  0.1008 -0.4011 -0.9933
  599MOL0     C78996   1.850   7.868   6.170 -0.2160  0.4507 -0.1828
  599MOL0     C78997   1.957   7.946   6.085  0.0215 -0.5079 -0.0319
  599MOL0     C78998   2.071   7.860   6.041 -0.1045 -0.4082 -0.2923
  599MOL0     C78999   2.186   7.852   6.133  0.5333 -0.0106 -0.0424
  599MOL0     C79000   2.301   7.857   6.183  0.2647 -0.1067  0.5455
  599MOL0     C79001   1.445   7.889   6.411  0.4979  0.3303 -0.0928
  599MOL0     C79002   1.313   7.926   6.427 -0.9700 -0.0112 -0.3542
  599MOL0     H79003   0.946   8.380   6.211 -1.5573  1.2202 -0.0314
  599MOL0     H79004   0.713   8.431   6.181  1.5494  0.3982 -1.5602
  599MOL0     H79005   0.435   8.252   6.436 -0.1910  1.1405  0.5046
  599MOL0     H79006   0.370   8.145   6.295 -0.4548 -0.8630  2.4063
  599MOL0     H79007   0.226   8.313   6.217 -1.0886 -2.0584  0.7891
  599MOL0     H79008   0.312   8.438   6.294 -1.1197  1.3294 -1.1117
  599MOL0     H79009   0.114   8.412   6.387  2.2317  0.9772 -2.1160
  599MOL0     H79010   0.225   8.352   6.523 -3.8520  0.7314  1.6851
  599MOL0     H79011   0.065   8.166   6.349  1.6850  1.1476 -1.4500
  599MOL0     H79012   0.172   8.121   6.481 -0.3685 -0.8404 -3.6866
  599MOL0     H79013  -0.087   8.295   6.490 -0.7567 -2.8827 -1.3291
  599MOL0     H79014   0.013   8.288   6.633 -0.1143 -2.2781  1.2279
  599MOL0     H79015  -0.018   8.034   6.630 -0.4904 -0.9270 -0.4121
  599MOL0     H79016  -0.111   8.043   6.489  1.1944 -0.9058 -0.5226
  599MOL0     H79017  -0.229   8.040   6.723  3.7491 -1.2345  0.3096
  599MOL0     H79018  -0.194   8.215   6.748  0.7197 -0.0471 -0.2676
  599MOL0     H79019  -0.341   8.100   6.501 -0.4497  0.4479 -0.2850
  599MOL0     H79020  -0.312   8.273   6.528 -1.1007 -0.7454 -0.0074
  599MOL0     H79021  -0.424   8.400   6.713 -0.3525  0.7065 -0.0000
  599MOL0     H79022  -0.629   8.445   6.891 -1.9833 -1.1226  1.9663
  599MOL0     H79023  -0.772   8.344   6.868  0.8078  0.2401  2.3734
  599MOL0     H79024  -0.648   8.579   6.702  0.0598  1.0510 -1.0753
  599MOL0     H79025  -0.791   8.584   6.783  2.5860  1.5385  0.9507
  599MOL0     H79026  -0.874   8.543   6.550 -0.2696 -0.4569  0.2583
  599MOL0     H79027  -0.747   8.422   6.536  0.8115  0.8625  0.5392
  599MOL0     H79028  -0.903   8.287   6.700  2.5758  0.6835 -0.1526
  599MOL0     H79029  -0.990   8.353   6.552 -1.6941  0.6401 -0.7295
  599MOL0     H79030  -1.199   8.566   6.873 -0.6433  0.3887 -0.8502
  599MOL0     H79031  -1.385   8.439   7.008 -1.2771  2.3429 -2.1051
  599MOL0     H79032  -1.594   8.352   7.293 -0.5492  0.3180  2.0587
  599MOL0     H79033  -1.735   8.255   7.480  1.2238  0.4723  0.0375
  599MOL0     H79034  -1.842   7.801   7.451 -2.8282 -1.5341 -1.8181
  599MOL0     H79035  -1.951   7.941   7.419  1.4687 -0.1271 -1.4662
  599MOL0     H79036  -2.027   7.821   7.593  0.5060 -0.8743  2.6477
  599MOL0     H79037  -1.984   7.982   7.648 -1.3847  0.3090 -1.1078
  599MOL0     H79038  -1.746   7.868   7.715  0.3218  0.5396 -0.2210
  599MOL0     H79039  -1.838   7.723   7.690  3.3589  1.2256 -1.6289
  599MOL0     H79040  -1.898   7.933   7.910 -0.4477  1.3588 -1.3499
  599MOL0     H79041  -1.980   7.783   7.882  1.2547 -1.9464 -0.0475
  599MOL0     H79042  -1.740   7.678   7.891 -1.6235  0.7495 -0.9479
  599MOL0     H79043  -1.800   7.724   8.053  4.0261 -0.7607  0.8563
  599MOL0     H79044  -1.685   7.922   8.071  1.1634 -2.3304  2.7780
  599MOL0     H79045  -1.639   7.904   7.896 -1.2489  0.0412 -0.2569
  599MOL0     H79046  -1.568   7.706   8.114  0.6580  1.0133  0.6011
  599MOL0     H79047  -1.497   7.721   7.948  1.9920  0.6280  0.4090
  599MOL0     H79048  -1.440   7.924   8.178  2.3272 -0.1790  0.4454
  599MOL0     H79049  -1.375   7.924   8.011  1.2100  1.0349  2.3624
  599MOL0     H79050  -1.655   7.862   7.307  1.4604  0.2910  0.7201
  599MOL0     H79051  -1.509   7.974   7.135 -2.7232 -2.1706 -1.0067
  599MOL0     H79052  -1.271   8.085   6.808  0.0639  0.7800 -2.2170
  599MOL0     H79053  -1.090   8.173   6.724  0.8911  0.3574  0.3846
  599MOL0     H79054   0.601   8.057   6.336 -1.0109  2.0294  1.6677
  599MOL0     H79055   0.834   7.994   6.379 -1.1402 -0.8524  0.7676
  599MOL0     H79056   1.277   8.152   6.192 -0.0507 -1.6392  0.1604
  599MOL0     H79057   1.496   8.093   6.145 -2.0152  1.4457  0.4485
  599MOL0     H79058   1.741   8.042   6.204 -0.7119 -0.0651 -1.5386
  599MOL0     H79059   1.667   7.935   6.080 -0.5264 -2.9889 -0.6286
  599MOL0     H79060   1.881   7.863   6.275 -1.6055  0.3110  0.2475
  599MOL0     H79061   1.828   7.773   6.122 -1.7026  0.4452  0.4351
  599MOL0     H79062   1.999   8.034   6.136 -0.2221  0.2243 -1.0558
  599MOL0     H79063   1.913   7.989   5.995 -1.5484 -0.0449  0.9233
  599MOL0     H79064   2.049   7.753   6.031  0.2084 -0.5093  0.0982
  599MOL0     H79065   2.108   7.894   5.944  1.8229  1.7182  1.0932
  599MOL0     H79066   2.387   7.863   6.247  0.1576 -2.0999  0.9191
  599MOL0     H79067   1.491   7.825   6.485 -1.5556  1.1517  2.0039
  599MOL0     H79068   1.260   7.877   6.508 -1.4466 -0.5910 -1.0079
  600MOL0     O79069   8.431   1.230  10.979  0.0333 -0.0869  0.1071
  600MOL0     C79070   8.463   1.283  11.078  0.1196 -0.6171  1.0455
  600MOL0     O79071   8.390   1.302  11.177 -1.0203  0.1307 -0.4630
  600MOL0     C79072   8.258   1.276  11.169  0.2170  0.2273 -0.2198
  600MOL0     C79073   8.194   1.177  11.244  0.2116  0.9829  0.7982
  600MOL0     C79074   8.057   1.151  11.226  0.0257 -0.4403  0.0721
  600MOL0     C79075   7.974   1.229  11.139  0.3144 -0.3230 -0.1915
  600MOL0     O79076   7.838   1.223  11.131  0.6333  0.3645 -0.0188
  600MOL0     C79077   7.770   1.132  11.221  0.1253  0.1238 -0.8905
  600MOL0     C79078   7.615   1.130  11.203  0.3156 -0.6374  0.8817
  600MOL0     C79079   7.551   1.249  11.266 -1.3256 -0.2386  0.6600
  600MOL0     C79080   7.600   1.386  11.218  0.0325  0.3961  0.3942
  600MOL0     C79081   7.508   1.499  11.275 -0.3238 -0.0897 -0.6445
  600MOL0     C79082   7.513   1.503  11.428  0.2985  0.3149  0.0439
  600MOL0     C79083   7.644   1.546  11.492 -1.0678  0.0975 -0.2086
  600MOL0     C79084   7.633   1.533  11.655 -0.0670  0.4708  0.0950
  600MOL0     N79085   7.764   1.557  11.714 -0.3041  0.0066 -1.4112
  600MOL0     C79086   7.878   1.480  11.679 -0.2483 -0.1262 -0.7455
  600MOL0     C79087   7.981   1.531  11.755  0.2115  0.1366 -0.1469
  600MOL0     C79088   8.125   1.506  11.743 -0.1500 -0.2925 -0.1797
  600MOL0     C79089   8.178   1.479  11.885 -0.2765  0.1878  0.2063
  600MOL0     C79090   8.322   1.428  11.877  0.4003  0.1070  0.3718
  600MOL0     C79091   8.369   1.411  12.018  0.1984 -0.5413 -0.2188
  600MOL0     O79092   8.489   1.337  12.027  0.3640 -0.0835 -0.1990
  600MOL0     C79093   8.609   1.388  12.001  1.8662  0.6072  0.0719
  600MOL0     C79094   8.637   1.526  11.982  0.0188 -0.2467 -0.7665
  600MOL0     C79095   8.764   1.567  11.967  0.3716 -0.0148 -0.2386
  600MOL0     C79096   8.871   1.473  11.963  0.7690 -0.2144  0.1148
  600MOL0     C79097   9.001   1.525  11.943  0.7380  0.2867  0.4806
  600MOL0     O79098   9.015   1.663  11.919 -0.2167  0.7626  0.3217
  600MOL0     C79099   9.134   1.722  11.910 -0.5118 -0.2131 -0.6682
  600MOL0     C79100   9.228   1.689  11.819  0.8896  0.1004  0.5012
  600MOL0     C79101   9.349   1.750  11.812  0.2219 -0.2699 -0.2533
  600MOL0     C79102   9.389   1.858  11.894 -0.1446 -0.7811 -0.7456
  600MOL0     O79103   9.510   1.925  11.878 -0.4223  0.0972 -0.8424
  600MOL0     C79104   9.556   1.956  11.750 -0.2871 -0.4676  0.9011
  600MOL0     C79105   9.638   2.071  11.762  0.6052 -1.2636  0.2571
  600MOL0     C79106   9.760   2.074  11.861  0.5309  0.3662  0.4576
  600MOL0     C79107   9.840   2.201  11.834 -0.1742 -0.4731  0.3819
  600MOL0     C79108   9.951   2.208  11.937  0.2441 -0.2111 -0.5726
  600MOL0     C79109  10.072   2.300  11.924 -0.3739 -0.5175  0.2820
  600MOL0     C79110  10.085   2.392  12.045  0.3807 -0.2126  0.0718
  600MOL0     C79111  10.209   2.471  12.056  0.6367 -0.4167  0.2622
  600MOL0    Cl79112  10.208   2.552  12.217  0.5017 -0.0870 -0.2389
  600MOL0     C79113   9.284   1.908  11.983 -0.2050 -0.1322 -0.1633
  600MOL0     C79114   9.159   1.840  11.987 -0.4471  0.5348 -0.1014
  600MOL0     O79115   9.096   1.449  11.963  0.1498 -0.3716 -0.2917
  600MOL0     C79116   8.848   1.333  11.969 -0.0911  0.1218 -0.0626
  600MOL0     C79117   8.712   1.291  11.989  0.0063  1.0182 -0.0542
  600MOL0     N79118   7.918   1.622  11.844 -0.0554 -0.3724 -0.1626
  600MOL0     N79119   7.793   1.638  11.817  0.1479 -0.6643 -0.5778
  600MOL0     C79120   8.040   1.323  11.060 -0.3583 -0.7943  0.4256
  600MOL0     C79121   8.178   1.348  11.076 -0.3772  0.5662 -0.0952
  600MOL0     C79122   8.601   1.335  11.087  0.1875  0.0077 -0.6869
  600MOL0     C79123   8.679   1.346  10.970 -0.2070 -0.5542 -0.1918
  600MOL0     C79124   8.808   1.408  10.971  0.1440 -0.1968  0.1810
  600MOL0     C79125   8.853   1.465  11.093  0.1547  0.0293 -0.1858
  600MOL0     O79126   8.964   1.541  11.115  0.0466  0.3182 -0.2843
  600MOL0     C79127   9.038   1.573  10.996 -0.1061  0.7237  0.4173
  600MOL0     C79128   9.175   1.642  11.029  0.1600  0.4474  1.2025
  600MOL0     C79129   9.150   1.783  11.071  1.0384  0.2188 -0.1489
  600MOL0     C79130   9.268   1.846  11.134 -0.1221 -0.0635 -0.1379
  600MOL0     C79131   9.370   1.895  11.040  0.1841 -0.8081 -0.1307
  600MOL0     C79132   9.452   1.944  10.967  0.6619 -0.2721  0.0500
  600MOL0     C79133   8.778   1.447  11.216  0.1855  0.5742 -0.8588
  600MOL0     C79134   8.651   1.385  11.209  0.8788  0.2411  0.0121
  600MOL0     H79135   8.256   1.115  11.308  2.6518 -0.3861 -2.5510
  600MOL0     H79136   8.008   1.076  11.287  0.8445 -1.8895 -0.9868
  600MOL0     H79137   7.786   1.158  11.326 -3.6837 -2.9796  0.6997
  600MOL0     H79138   7.805   1.031  11.202 -1.4332 -0.6222  0.0143
  600MOL0     H79139   7.575   1.036  11.241  0.0962 -1.4440 -1.2166
  600MOL0     H79140   7.592   1.135  11.096  0.2088 -2.2229  0.8107
  600MOL0     H79141   7.565   1.244  11.374  0.4032 -0.3127  0.4655
  600MOL0     H79142   7.446   1.234  11.238 -0.3653 -3.4134 -1.9651
  600MOL0     H79143   7.698   1.399  11.265  0.4258 -2.6181  0.5909
  600MOL0     H79144   7.612   1.394  11.110 -1.1978 -0.0906  0.2078
  600MOL0     H79145   7.408   1.465  11.245 -1.8650  1.4167  2.3041
  600MOL0     H79146   7.532   1.599  11.238 -1.4572  0.9156  1.1914
  600MOL0     H79147   7.486   1.407  11.472  3.4261 -0.5250  0.3368
  600MOL0     H79148   7.435   1.573  11.461  1.4648  1.7417 -0.1177
  600MOL0     H79149   7.727   1.479  11.470 -1.5154 -1.0814  1.4438
  600MOL0     H79150   7.667   1.650  11.469 -2.2839  0.8093  1.5569
  600MOL0     H79151   7.612   1.427  11.670  1.6358 -0.1700 -1.7566
  600MOL0     H79152   7.548   1.597  11.682 -0.8974 -0.1691 -0.9131
  600MOL0     H79153   7.877   1.411  11.596 -1.2657  0.8497 -1.5847
  600MOL0     H79154   8.183   1.589  11.701 -2.1314  0.8425 -0.8218
  600MOL0     H79155   8.140   1.415  11.684 -0.3353 -0.1057 -0.5183
  600MOL0     H79156   8.113   1.403  11.932  0.3774  0.1614  1.0927
  600MOL0     H79157   8.155   1.568  11.944 -0.7532 -0.1291  0.5110
  600MOL0     H79158   8.313   1.333  11.823 -0.3672  0.4603 -0.1447
  600MOL0     H79159   8.380   1.498  11.816 -3.0228  1.3052 -1.8102
  600MOL0     H79160   8.293   1.356  12.074 -1.3699  1.6948 -0.0134
  600MOL0     H79161   8.377   1.512  12.060 -0.2100 -0.6060  0.0172
  600MOL0     H79162   8.557   1.598  11.976 -0.8498 -0.8559  2.0531
  600MOL0     H79163   8.779   1.672  11.943 -2.1580 -0.1736 -3.0298
  600MOL0     H79164   9.201   1.613  11.746  2.0481 -1.8582  1.9877
  600MOL0     H79165   9.413   1.713  11.732 -0.9820 -0.4019 -1.1798
  600MOL0     H79166   9.468   1.970  11.686 -0.3142 -1.4693  0.7033
  600MOL0     H79167   9.619   1.873  11.718  0.1755  0.4291 -0.6455
  600MOL0     H79168   9.570   2.153  11.789  1.8427  0.0937 -0.6109
  600MOL0     H79169   9.676   2.098  11.663  2.4936 -0.7449  1.0768
  600MOL0     H79170   9.815   1.980  11.854  0.9353  0.5930  0.5462
  600MOL0     H79171   9.714   2.078  11.960 -1.4924 -1.7920 -0.2973
  600MOL0     H79172   9.879   2.193  11.732 -1.0934 -2.9669  0.1463
  600MOL0     H79173   9.781   2.292  11.847  0.1118 -0.2830  0.3426
  600MOL0     H79174  10.003   2.113  11.952  1.8117  0.7400  0.3826
  600MOL0     H79175   9.898   2.232  12.030  0.2082  1.0741 -0.9048
  600MOL0     H79176  10.056   2.352  11.830 -1.1502 -3.9441 -1.6446
  600MOL0     H79177  10.157   2.233  11.908 -1.3312 -1.5370 -0.6793
  600MOL0     H79178  10.003   2.464  12.054 -0.1712 -0.9237  0.9232
  600MOL0     H79179  10.075   2.327  12.132  3.4097 -1.5956 -0.4789
  600MOL0     H79180  10.202   2.553  11.984 -0.1747  1.6646  2.5357
  600MOL0     H79181  10.302   2.416  12.038  0.1512 -1.2418  0.2264
  600MOL0     H79182   9.312   1.987  12.053 -1.7125  0.7296 -0.5049
  600MOL0     H79183   9.068   1.873  12.038 -0.8830 -0.1023 -0.4567
  600MOL0     H79184   8.927   1.260  11.956 -0.0147 -0.0229  1.1012
  600MOL0     H79185   8.695   1.184  11.989  0.6608  0.9125  0.0184
  600MOL0     H79186   7.975   1.379  10.994  0.1778  0.5093  0.9740
  600MOL0     H79187   8.218   1.434  11.023  1.1955  0.7302  1.2816
  600MOL0     H79188   8.635   1.317  10.876  2.1804 -1.9857 -0.9413
  600MOL0     H79189   8.864   1.417  10.879 -0.7967  0.8580 -0.3169
  600MOL0     H79190   8.981   1.632  10.925  1.6666 -0.8525 -2.5015
  600MOL0     H79191   9.054   1.470  10.963 -0.6895  0.3948  1.1343
  600MOL0     H79192   9.224   1.578  11.102  0.1006  0.7462  1.5082
  600MOL0     H79193   9.241   1.643  10.942 -0.5200 -0.7177  0.6580
  600MOL0     H79194   9.077   1.785  11.152  0.6010  0.3835 -0.5388
  600MOL0     H79195   9.118   1.843  10.985 -0.6300 -0.8868 -0.3473
  600MOL0     H79196   9.226   1.926  11.196 -1.9762  0.4129 -1.9199
  600MOL0     H79197   9.326   1.778  11.196  2.4265  2.2854  0.2751
  600MOL0     H79198   9.532   1.993  10.916  0.4424  0.3649  0.3034
  600MOL0     H79199   8.813   1.492  11.308 -1.4277  2.2357 -0.9847
  600MOL0     H79200   8.585   1.375  11.295 -0.7228 -1.5518 -1.3261
  601MOL0     O79201   2.767   1.118   0.153 -0.0621  0.2216  0.2288
  601MOL0     C79202   2.812   1.231   0.154  0.3952 -0.2643 -0.1947
  601MOL0     O79203   2.739   1.346   0.124 -0.5671  0.0031 -0.0032
  601MOL0     C79204   2.604   1.349   0.130  0.1051  0.2621 -0.3832
  601MOL0     C79205   2.527   1.380   0.022 -0.0965 -0.7475 -0.4558
  601MOL0     C79206   2.388   1.405   0.045  0.0851  0.0079  0.3426
  601MOL0     C79207   2.327   1.400   0.170  0.6182 -0.3727 -0.6256
  601MOL0     O79208   2.200   1.439   0.205  0.6299 -0.1098  0.5744
  601MOL0     C79209   2.103   1.446   0.101 -0.8151 -0.3633  0.2328
  601MOL0     C79210   1.968   1.420   0.159 -0.4316 -0.1119 -0.0591
  601MOL0     C79211   1.938   1.486   0.298 -0.7241 -0.6880 -0.2089
  601MOL0     C79212   1.794   1.462   0.337  0.9831  0.4849 -0.2899
  601MOL0     C79213   1.760   1.460   0.486  0.4449 -0.4133 -0.0018
  601MOL0     C79214   1.609   1.436   0.503  1.0241 -0.5657 -0.2569
  601MOL0     C79215   1.560   1.457   0.650 -0.4376 -0.1739 -0.5936
  601MOL0     C79216   1.407   1.456   0.670  0.2125 -0.1486 -0.1045
  601MOL0     N79217   1.355   1.586   0.619  0.5209  1.0486  0.0970
  601MOL0     C79218   1.285   1.604   0.503  0.9534  0.1040  0.0602
  601MOL0     C79219   1.197   1.704   0.529 -0.1082 -0.0938 -0.3989
  601MOL0     C79220   1.105   1.769   0.431 -0.4903 -0.3807  0.4424
  601MOL0     C79221   1.186   1.850   0.320  1.1197  0.1609  0.5020
  601MOL0     C79222   1.260   1.973   0.373  0.1287 -0.2676  0.1169
  601MOL0     C79223   1.329   2.056   0.263 -0.4451  1.0836  0.2327
  601MOL0     O79224   1.427   2.137   0.324  0.0432  0.2372  0.2936
  601MOL0     C79225   1.543   2.082   0.367 -0.0828  0.4454  0.9245
  601MOL0     C79226   1.602   1.957   0.331  0.3469 -0.4204 -0.9251
  601MOL0     C79227   1.721   1.907   0.389  0.6699  0.1243  0.2138
  601MOL0     C79228   1.774   1.974   0.494  0.4107 -0.0888  0.5705
  601MOL0     C79229   1.901   1.928   0.557  0.5926  0.0353  0.1227
  601MOL0     O79230   1.956   1.815   0.503 -1.1123 -0.2811  0.0521
  601MOL0     C79231   2.093   1.784   0.527 -0.1486  0.0388 -0.6182
  601MOL0     C79232   2.195   1.877   0.526 -0.7519 -0.0337  0.4121
  601MOL0     C79233   2.331   1.834   0.540 -0.2576  0.2138  0.1980
  601MOL0     C79234   2.368   1.700   0.550 -0.6304 -0.2814 -0.1045
  601MOL0     O79235   2.506   1.670   0.567  0.1466 -0.4200  0.2255
  601MOL0     C79236   2.543   1.543   0.621  0.5194 -0.1591 -0.0253
  601MOL0     C79237   2.687   1.538   0.671  0.1424 -0.4799  1.2297
  601MOL0     C79238   2.788   1.542   0.561  0.0099  0.3517  0.0487
  601MOL0     C79239   2.924   1.505   0.629 -0.7333 -0.0803 -0.3772
  601MOL0     C79240   3.036   1.490   0.515 -0.6054 -0.3032 -0.0730
  601MOL0     C79241   3.170   1.452   0.595 -0.8490  0.4304 -0.4907
  601MOL0     C79242   3.287   1.417   0.500 -0.4151 -1.0863  0.1068
  601MOL0     C79243   3.425   1.397   0.571 -0.5765 -0.9750 -0.1288
  601MOL0    Cl79244   3.424   1.252   0.675 -0.1272  0.5118 -0.1254
  601MOL0     C79245   2.262   1.610   0.547 -0.4738  0.0409 -0.7269
  601MOL0     C79246   2.131   1.651   0.526 -0.2928 -0.7837  0.1873
  601MOL0     O79247   1.939   1.985   0.659  0.2685 -0.1906 -0.2681
  601MOL0     C79248   1.719   2.094   0.536 -0.0172  0.0628 -0.2866
  601MOL0     C79249   1.604   2.145   0.476 -0.1910  0.1254 -0.9216
  601MOL0     N79250   1.219   1.756   0.651 -0.0729  0.5814  0.2665
  601MOL0     N79251   1.325   1.687   0.702  0.6635 -0.5065 -0.0694
  601MOL0     C79252   2.408   1.361   0.273 -0.7906  0.3591  0.3172
  601MOL0     C79253   2.542   1.339   0.260 -0.9935  0.3783  0.1016
  601MOL0     C79254   2.954   1.244   0.160 -0.5576 -0.6025 -0.1192
  601MOL0     C79255   3.020   1.360   0.117 -0.2808 -0.4986 -0.0649
  601MOL0     C79256   3.159   1.375   0.115 -0.0628 -0.5291  0.5949
  601MOL0     C79257   3.238   1.273   0.162 -0.3168 -0.5570  0.3328
  601MOL0     O79258   3.377   1.273   0.173 -0.4245 -0.5850  0.3811
  601MOL0     C79259   3.454   1.379   0.113 -0.4890  0.1224  0.0001
  601MOL0     C79260   3.598   1.321   0.131 -0.0723  0.3626  0.0731
  601MOL0     C79261   3.642   1.328   0.278  0.8777 -0.6883 -0.3511
  601MOL0     C79262   3.783   1.319   0.315  0.1183  0.3514  0.9344
  601MOL0     C79263   3.803   1.362   0.450  0.1730 -0.3597 -1.0043
  601MOL0     C79264   3.822   1.407   0.562  0.1996  0.3832  0.9390
  601MOL0     C79265   3.174   1.151   0.194 -0.5568 -0.0757  0.7293
  601MOL0     C79266   3.041   1.138   0.195  0.8391 -0.7240  0.0664
  601MOL0     H79267   2.579   1.405  -0.070  0.5421 -1.8034 -0.4009
  601MOL0     H79268   2.339   1.449  -0.041 -1.3229  1.0522  1.6158
  601MOL0     H79269   2.119   1.366   0.028 -1.0428 -1.5429  1.4407
  601MOL0     H79270   2.102   1.543   0.050  0.2312 -1.4255 -1.9519
  601MOL0     H79271   1.964   1.311   0.172  0.4447 -0.0809  0.5808
  601MOL0     H79272   1.893   1.459   0.090 -0.6050  3.4739  1.9060
  601MOL0     H79273   1.945   1.595   0.299  1.6865 -0.7412  2.5442
  601MOL0     H79274   1.998   1.442   0.378  0.7430  1.5161 -0.0132
  601MOL0     H79275   1.727   1.533   0.288  0.9739  1.3304  0.9198
  601MOL0     H79276   1.773   1.356   0.317 -2.1182  1.0893 -0.6740
  601MOL0     H79277   1.783   1.557   0.531  2.2462 -0.0770 -1.5459
  601MOL0     H79278   1.812   1.383   0.543 -0.2748 -1.3520 -0.5946
  601MOL0     H79279   1.573   1.336   0.477  0.9084 -0.6803  0.3135
  601MOL0     H79280   1.554   1.504   0.437  0.5063  0.5483  1.2605
  601MOL0     H79281   1.602   1.371   0.704  0.3426  1.3069  1.2513
  601MOL0     H79282   1.596   1.552   0.690 -2.5960  0.2205  0.5356
  601MOL0     H79283   1.387   1.448   0.778 -0.5897 -0.3916 -0.2585
  601MOL0     H79284   1.361   1.368   0.624  0.6668 -0.0847 -0.6913
  601MOL0     H79285   1.292   1.544   0.413  0.5988 -0.3402  0.3250
  601MOL0     H79286   1.037   1.839   0.481 -1.3979 -1.3852  0.6430
  601MOL0     H79287   1.050   1.698   0.370  0.6581 -0.6191 -0.3460
  601MOL0     H79288   1.111   1.883   0.248  1.6406 -0.3280 -0.2731
  601MOL0     H79289   1.253   1.786   0.261 -1.9730 -3.2213  0.3322
  601MOL0     H79290   1.198   2.044   0.427  0.4643  1.4778 -1.6617
  601MOL0     H79291   1.336   1.932   0.441 -1.6012 -1.2869  1.4910
  601MOL0     H79292   1.259   2.129   0.222  1.6644  2.3569 -1.2944
  601MOL0     H79293   1.369   1.992   0.183 -0.9579  1.0914 -0.0336
  601MOL0     H79294   1.550   1.907   0.250 -2.1077 -0.3970  0.5473
  601MOL0     H79295   1.760   1.818   0.342  0.4543 -0.4561  1.1104
  601MOL0     H79296   2.177   1.984   0.516  1.3417  0.5246  1.9239
  601MOL0     H79297   2.404   1.915   0.548 -0.4705  0.3595  0.7352
  601MOL0     H79298   2.522   1.471   0.542  0.9836 -0.5439  0.2006
  601MOL0     H79299   2.480   1.517   0.707 -0.3801 -1.1782 -0.9640
  601MOL0     H79300   2.694   1.451   0.736 -1.5509 -1.5114  0.0906
  601MOL0     H79301   2.712   1.630   0.726  0.5380  1.3456 -1.7523
  601MOL0     H79302   2.806   1.640   0.515  3.2306 -0.3030 -0.3552
  601MOL0     H79303   2.767   1.463   0.488 -1.5927  1.4713 -0.7547
  601MOL0     H79304   2.951   1.583   0.701  1.5191 -0.8238 -0.3601
  601MOL0     H79305   2.920   1.407   0.677  1.7874  0.2673  0.6817
  601MOL0     H79306   3.039   1.581   0.454 -1.2243  0.3164  0.7888
  601MOL0     H79307   3.011   1.408   0.447 -1.1297  0.8356 -1.2918
  601MOL0     H79308   3.161   1.362   0.657  0.1057  0.5288 -0.1855
  601MOL0     H79309   3.197   1.541   0.652  0.8348  2.2033 -3.8061
  601MOL0     H79310   3.261   1.327   0.443  0.2180 -0.5652 -1.0491
  601MOL0     H79311   3.297   1.501   0.431  2.2178 -1.1048  0.3502
  601MOL0     H79312   3.443   1.484   0.635 -3.3495  0.4337 -1.0789
  601MOL0     H79313   3.505   1.385   0.498 -0.1797 -1.3517  0.3682
  601MOL0     H79314   2.292   1.506   0.532 -1.2309  0.0558 -2.6482
  601MOL0     H79315   2.054   1.575   0.520 -1.2293 -0.4294  4.2127
  601MOL0     H79316   1.767   2.142   0.621 -3.2298 -1.5337  2.7398
  601MOL0     H79317   1.558   2.235   0.515  0.6794 -0.6417  2.0942
  601MOL0     H79318   2.378   1.345   0.376  1.9356 -0.4673  1.0732
  601MOL0     H79319   2.606   1.322   0.346  0.6520  0.3836 -1.0608
  601MOL0     H79320   2.967   1.451   0.088  1.1549  1.1663  2.2701
  601MOL0     H79321   3.208   1.469   0.092 -1.8142  0.0510 -1.0205
  601MOL0     H79322   3.452   1.474   0.167  1.0585  1.3005 -1.8907
  601MOL0     H79323   3.429   1.390   0.007 -0.8815 -0.4812  0.0237
  601MOL0     H79324   3.593   1.226   0.076 -1.5864  0.6164 -0.2622
  601MOL0     H79325   3.658   1.390   0.070 -0.9765  0.3819 -0.8150
  601MOL0     H79326   3.578   1.265   0.341 -1.6728  1.5262 -0.5509
  601MOL0     H79327   3.599   1.423   0.310 -2.1875 -1.5113 -1.6026
  601MOL0     H79328   3.825   1.219   0.301 -0.4954  0.3419 -1.2643
  601MOL0     H79329   3.828   1.388   0.243  0.3617 -1.5339 -0.8222
  601MOL0     H79330   3.836   1.458   0.655  1.1767  1.5541  0.1825
  601MOL0     H79331   3.233   1.063   0.218  1.3018  0.4972 -1.4409
  601MOL0     H79332   2.992   1.043   0.215  2.1656 -1.8711 -1.7816
  602MOL0     O79333   1.860   0.436  11.114 -0.4887  0.4628  0.2933
  602MOL0     C79334   1.930   0.369  11.047  0.5551 -0.4067 -0.0946
  602MOL0     O79335   1.889   0.259  10.977  0.3091  0.3195 -0.5464
  602MOL0     C79336   1.761   0.213  10.982 -0.2754 -0.1219 -0.5942
  602MOL0     C79337   1.681   0.201  11.101 -0.2829 -0.2312 -0.8096
  602MOL0     C79338   1.553   0.161  11.103  0.0814  0.1730  0.9488
  602MOL0     C79339   1.495   0.117  10.976  0.3488 -0.5566 -0.6659
  602MOL0     O79340   1.375   0.058  10.958  0.3254 -0.3200  0.1586
  602MOL0     C79341   1.350  -0.042  11.054  0.2012 -1.0092  0.6079
  602MOL0     C79342   1.222  -0.120  11.008 -0.4629 -0.2411 -0.3528
  602MOL0     C79343   1.106  -0.033  10.969  0.4009 -1.1343  0.7822
  602MOL0     C79344   0.972  -0.098  10.980  0.1621 -0.0069  0.2993
  602MOL0     C79345   0.866  -0.006  10.929  0.5590  0.0501 -0.9490
  602MOL0     C79346   0.722  -0.063  10.948  0.0740 -0.0846  0.5484
  602MOL0     C79347   0.614   0.034  10.896  0.6304  0.0035 -0.0080
  602MOL0     C79348   0.479  -0.029  10.899  0.0789 -0.1221  0.3254
  602MOL0     N79349   0.438  -0.098  10.779  0.1255  0.7040 -0.3377
  602MOL0     C79350   0.392  -0.233  10.787 -0.3068  0.0885 -0.5887
  602MOL0     C79351   0.406  -0.280  10.663  0.9091 -0.0784  1.0321
  602MOL0     C79352   0.386  -0.425  10.630 -0.4365 -0.1757 -0.4563
  602MOL0     C79353   0.354  -0.428  10.482 -1.0766  0.3859  0.0192
  602MOL0     C79354   0.285  -0.553  10.448 -0.0753 -0.2144  0.9517
  602MOL0     C79355   0.282  -0.591  10.295 -0.1686 -0.4180 -0.1243
  602MOL0     O79356   0.181  -0.532  10.219 -0.2553 -0.1108 -0.5590
  602MOL0     C79357   0.062  -0.606  10.200  1.1294 -0.8918 -0.0291
  602MOL0     C79358  -0.026  -0.558  10.100 -0.7920 -0.3427  0.5104
  602MOL0     C79359  -0.135  -0.634  10.059 -0.5761  0.1803 -0.3185
  602MOL0     C79360  -0.193  -0.734  10.134 -0.0780  0.6190 -0.5948
  602MOL0     C79361  -0.313  -0.802  10.091  0.5706 -0.2888 -0.1107
  602MOL0     O79362  -0.368  -0.888  10.181  0.4737 -0.1623 -0.2960
  602MOL0     C79363  -0.484  -0.953  10.155 -0.1811  0.5166 -0.0528
  602MOL0     C79364  -0.602  -0.890  10.114  0.7608  0.6078  0.3492
  602MOL0     C79365  -0.719  -0.952  10.091 -0.2009  1.2624 -0.4204
  602MOL0     C79366  -0.729  -1.090  10.122 -0.6882 -0.3078  0.0737
  602MOL0     O79367  -0.844  -1.155  10.104 -0.0126 -0.0351 -0.3979
  602MOL0     C79368  -0.875  -1.241  10.214  0.3136  0.3741 -0.3364
  602MOL0     C79369  -1.030  -1.238  10.251  0.2483  0.1712  0.9190
  602MOL0     C79370  -1.116  -1.202  10.127  0.0284  0.1626 -1.2948
  602MOL0     C79371  -1.266  -1.192  10.155  0.0822 -0.3814  0.8945
  602MOL0     C79372  -1.340  -1.120  10.045 -0.4689  0.2451 -0.3180
  602MOL0     C79373  -1.494  -1.130  10.069  0.2027 -0.1336 -0.0418
  602MOL0     C79374  -1.552  -1.019  10.159 -0.6933  0.7929  0.5547
  602MOL0     C79375  -1.701  -1.053  10.183 -0.4302 -0.0305  0.3345
  602MOL0    Cl79376  -1.727  -1.214  10.258  0.3067  0.1306  0.1144
  602MOL0     C79377  -0.605  -1.152  10.174 -0.2199 -0.0746 -0.0810
  602MOL0     C79378  -0.485  -1.089  10.188  0.6523  0.1808 -0.1039
  602MOL0     O79379  -0.353  -0.782   9.979 -0.1766  0.1166  0.0837
  602MOL0     C79380  -0.114  -0.775  10.249  0.2945  0.0249 -0.9015
  602MOL0     C79381   0.014  -0.714  10.274 -0.9310 -0.1017 -0.1836
  602MOL0     N79382   0.450  -0.183  10.584  0.3576 -0.1638  0.9058
  602MOL0     N79383   0.459  -0.072  10.647 -0.4338  0.4447 -0.0007
  602MOL0     C79384   1.571   0.126  10.860 -0.7726  0.4210  0.1769
  602MOL0     C79385   1.705   0.173  10.861  0.0976 -0.3191  0.7385
  602MOL0     C79386   2.063   0.417  11.028 -0.1247  0.5717  0.1755
  602MOL0     C79387   2.157   0.344  10.950  0.6839  0.3418 -0.5748
  602MOL0     C79388   2.287   0.381  10.944  0.2972  0.1014 -0.3078
  602MOL0     C79389   2.332   0.492  11.015  0.5378 -0.5133  0.0579
  602MOL0     O79390   2.466   0.525  11.024  0.0793 -1.2066  0.4204
  602MOL0     C79391   2.561   0.446  10.949  0.3741 -0.0471 -0.1484
  602MOL0     C79392   2.695   0.517  10.938 -0.8849  0.5500  0.9128
  602MOL0     C79393   2.772   0.447  10.820  0.1454 -0.3897 -0.6663
  602MOL0     C79394   2.897   0.521  10.787 -0.3873  0.0281  0.8334
  602MOL0     C79395   3.003   0.516  10.884 -0.6117 -0.6977  0.0133
  602MOL0     C79396   3.085   0.511  10.975  0.4682 -0.3139 -1.0895
  602MOL0     C79397   2.241   0.576  11.083  0.0013  0.3733 -0.1722
  602MOL0     C79398   2.106   0.537  11.086 -0.4391 -0.1624  0.0573
  602MOL0     H79399   1.733   0.221  11.195  0.6526  0.7427 -1.5064
  602MOL0     H79400   1.503   0.151  11.198  0.6783  1.1624  1.3766
  602MOL0     H79401   1.338  -0.000  11.154 -1.8107 -2.1700  0.9107
  602MOL0     H79402   1.426  -0.119  11.068 -1.1943 -2.2414  1.6303
  602MOL0     H79403   1.193  -0.185  11.091  0.0185 -0.4236 -0.3259
  602MOL0     H79404   1.255  -0.184  10.926  1.4053  1.8162 -1.3077
  602MOL0     H79405   1.119  -0.000  10.865 -1.0744 -1.3671  0.5064
  602MOL0     H79406   1.100   0.053  11.036 -2.0792 -1.1942  0.7402
  602MOL0     H79407   0.974  -0.180  10.908  1.7991  1.0863 -0.9683
  602MOL0     H79408   0.952  -0.136  11.081 -1.3585 -2.0959 -0.7340
  602MOL0     H79409   0.886   0.032  10.828 -0.7781  0.9303 -0.9152
  602MOL0     H79410   0.875   0.074  11.002  0.2355  1.0440 -1.9743
  602MOL0     H79411   0.708  -0.081  11.055 -0.5299 -3.1692  0.0447
  602MOL0     H79412   0.707  -0.159  10.898 -3.7874  0.4104  0.4634
  602MOL0     H79413   0.610   0.121  10.962 -1.0509  2.2321 -2.7704
  602MOL0     H79414   0.638   0.070  10.796 -0.5854 -1.1940 -0.7739
  602MOL0     H79415   0.398   0.042  10.919  0.8008 -0.0158  3.3902
  602MOL0     H79416   0.473  -0.097  10.985 -0.8039 -0.5224 -0.0309
  602MOL0     H79417   0.363  -0.284  10.878  0.3940  0.5037 -0.1197
  602MOL0     H79418   0.315  -0.481  10.691 -0.8714  0.6559 -0.1869
  602MOL0     H79419   0.472  -0.488  10.654  0.9247  2.6057  2.7258
  602MOL0     H79420   0.443  -0.413  10.421 -0.2650 -1.6022  0.6455
  602MOL0     H79421   0.284  -0.345  10.465 -1.9935 -0.5342 -0.8455
  602MOL0     H79422   0.335  -0.634  10.503  1.3911 -0.8852 -1.1864
  602MOL0     H79423   0.186  -0.540  10.491  0.2790 -3.0835  2.9127
  602MOL0     H79424   0.275  -0.700  10.292 -0.6438 -0.3759 -0.6318
  602MOL0     H79425   0.372  -0.550  10.248 -0.5822  2.7312  1.5744
  602MOL0     H79426   0.007  -0.472  10.041 -1.0918 -1.0528 -0.7137
  602MOL0     H79427  -0.178  -0.606   9.963 -1.2558 -0.8097 -0.3200
  602MOL0     H79428  -0.594  -0.786  10.084 -0.6814  0.5825 -0.1963
  602MOL0     H79429  -0.804  -0.894  10.056 -1.4676 -0.1740  0.1269
  602MOL0     H79430  -0.819  -1.220  10.306  1.8473 -0.5740 -1.0229
  602MOL0     H79431  -0.858  -1.339  10.167 -0.5739  0.1705 -0.2563
  602MOL0     H79432  -1.039  -1.170  10.336  0.5372  2.1585 -0.5759
  602MOL0     H79433  -1.054  -1.340  10.283  0.1763 -0.4187 -0.8994
  602MOL0     H79434  -1.091  -1.260  10.038  0.0875  1.4561 -2.1554
  602MOL0     H79435  -1.075  -1.102  10.105  0.9726  0.8308  2.7272
  602MOL0     H79436  -1.308  -1.289  10.183  1.3917 -0.6706  1.9615
  602MOL0     H79437  -1.282  -1.131  10.244 -0.4541 -1.4863  1.5756
  602MOL0     H79438  -1.312  -1.165   9.949  0.6883  3.1513 -1.4448
  602MOL0     H79439  -1.316  -1.013  10.046 -1.8979  0.7448  4.2494
  602MOL0     H79440  -1.510  -1.229  10.111 -0.1997 -0.5078 -1.0506
  602MOL0     H79441  -1.549  -1.133   9.975  1.2692 -0.5402 -0.6743
  602MOL0     H79442  -1.499  -1.019  10.255 -1.1381 -0.3167  0.8158
  602MOL0     H79443  -1.536  -0.917  10.124 -0.3315  0.4357 -0.3585
  602MOL0     H79444  -1.764  -1.057  10.093 -3.4295 -0.4041  2.3299
  602MOL0     H79445  -1.738  -0.973  10.248  3.1894 -0.2778  3.0320
  602MOL0     H79446  -0.612  -1.255  10.207 -3.2002 -0.3566 -1.2993
  602MOL0     H79447  -0.398  -1.141  10.227  1.2691  1.1342 -0.1918
  602MOL0     H79448  -0.147  -0.858  10.310  0.1538 -0.6882 -1.9108
  602MOL0     H79449   0.073  -0.762  10.351 -1.0592 -1.7725 -1.0696
  602MOL0     H79450   1.514   0.096  10.773 -0.8499 -3.8732  1.4468
  602MOL0     H79451   1.750   0.188  10.763  0.4774 -2.2712  0.5863
  602MOL0     H79452   2.133   0.255  10.891  1.0353  1.1128 -1.9177
  602MOL0     H79453   2.340   0.317  10.875 -3.2565 -3.4576 -0.1113
  602MOL0     H79454   2.514   0.432  10.851 -1.1412 -1.2005  0.6870
  602MOL0     H79455   2.580   0.349  10.997  0.3578  0.0970  0.1571
  602MOL0     H79456   2.675   0.621  10.912 -1.4985  0.4707  1.0481
  602MOL0     H79457   2.753   0.515  11.031  1.1214 -1.9399 -0.2654
  602MOL0     H79458   2.716   0.450  10.726  1.0394 -2.9755 -1.3504
  602MOL0     H79459   2.793   0.344  10.850  0.2720  0.2913  1.7703
  602MOL0     H79460   2.933   0.477  10.693  0.8094  0.3899  1.1033
  602MOL0     H79461   2.876   0.624  10.755  1.0515  0.0997  0.0149
  602MOL0     H79462   3.159   0.503  11.052 -1.2955 -2.7172  0.5033
  602MOL0     H79463   2.265   0.668  11.134  0.0814 -0.8313  2.1262
  602MOL0     H79464   2.037   0.608  11.130  1.0482  2.0105 -0.9417
  603MOL0     O79465   9.220   9.371   1.851  0.0957  1.0801  0.3301
  603MOL0     C79466   9.259   9.273   1.908 -0.5033  0.6620 -0.0161
  603MOL0     O79467   9.181   9.164   1.955  0.4525  0.1168  0.3338
  603MOL0     C79468   9.047   9.176   1.986  0.4574  0.0003 -0.5507
  603MOL0     C79469   8.985   9.088   2.079  0.5771 -0.2823  0.0337
  603MOL0     C79470   8.846   9.084   2.101  0.7668  0.8153  0.2892
  603MOL0     C79471   8.766   9.169   2.026  0.4678  0.0528 -0.5769
  603MOL0     O79472   8.630   9.177   2.015  0.1951  0.0602 -0.3405
  603MOL0     C79473   8.554   9.081   2.088  0.2923  0.1594 -1.1436
  603MOL0     C79474   8.420   9.054   2.016 -0.0060  0.5197 -0.6737
  603MOL0     C79475   8.319   8.998   2.117  0.5559 -0.1463  1.2488
  603MOL0     C79476   8.181   8.992   2.044 -0.0966  0.1550  0.0142
  603MOL0     C79477   8.178   8.900   1.918  0.1424  0.0285 -0.4450
  603MOL0     C79478   8.225   8.747   1.934  0.0431 -0.7298 -0.1842
  603MOL0     C79479   8.141   8.694   2.043 -0.0898  0.3166 -0.1818
  603MOL0     C79480   8.172   8.546   2.079  0.5711  0.8653 -0.1786
  603MOL0     N79481   8.068   8.490   2.163  0.2941  0.0395  0.8320
  603MOL0     C79482   7.934   8.493   2.132  0.4045  1.0031 -0.4092
  603MOL0     C79483   7.892   8.414   2.238  0.1726  0.0013 -0.0430
  603MOL0     C79484   7.755   8.362   2.262 -0.2262  0.1309 -0.2374
  603MOL0     C79485   7.646   8.418   2.176 -0.5611  0.4626 -0.1935
  603MOL0     C79486   7.506   8.352   2.197  0.7923 -0.2571  0.2641
  603MOL0     C79487   7.407   8.411   2.097 -0.5373  0.7867 -0.6726
  603MOL0     O79488   7.377   8.539   2.143 -0.9537 -0.2618  0.0165
  603MOL0     C79489   7.245   8.555   2.149 -0.7201  0.2663  0.0554
  603MOL0     C79490   7.175   8.632   2.063 -0.0044 -1.2028 -0.1699
  603MOL0     C79491   7.036   8.639   2.066 -0.1986  0.6504  0.1288
  603MOL0     C79492   6.965   8.569   2.164  0.6167  0.6431  0.6729
  603MOL0     C79493   6.810   8.572   2.159  0.2269 -0.4555  0.0100
  603MOL0     O79494   6.753   8.677   2.089  0.0621  0.2364 -0.1663
  603MOL0     C79495   6.620   8.698   2.104 -0.0358 -0.1899 -0.3161
  603MOL0     C79496   6.529   8.597   2.081  0.5374  0.3048  0.2810
  603MOL0     C79497   6.388   8.625   2.081 -0.7512  0.1175 -0.4653
  603MOL0     C79498   6.347   8.755   2.110 -0.3001 -0.3207 -0.3319
  603MOL0     O79499   6.216   8.800   2.125 -0.2422 -0.3503  0.2935
  603MOL0     C79500   6.123   8.699   2.162  1.2358 -0.7678  0.8468
  603MOL0     C79501   5.984   8.772   2.174  0.3767  0.5029  0.3258
  603MOL0     C79502   5.865   8.690   2.235  0.2502  0.1831  0.2357
  603MOL0     C79503   5.903   8.665   2.381  0.4683  0.2474  0.3598
  603MOL0     C79504   5.774   8.622   2.460 -0.6441 -0.9276 -0.1942
  603MOL0     C79505   5.670   8.733   2.511 -0.0176  0.7523  0.0389
  603MOL0     C79506   5.563   8.677   2.613  0.8487 -0.1123 -0.1845
  603MOL0     C79507   5.453   8.787   2.648  0.0365  0.0908 -0.6144
  603MOL0    Cl79508   5.522   8.864   2.794  0.4739 -0.3213 -0.2967
  603MOL0     C79509   6.441   8.851   2.132  0.4244 -0.2343 -0.3329
  603MOL0     C79510   6.576   8.816   2.130  0.3609  0.1338 -0.9336
  603MOL0     O79511   6.750   8.482   2.219  0.3028 -0.6260  0.6223
  603MOL0     C79512   7.034   8.495   2.261 -0.6576  1.0379  0.3294
  603MOL0     C79513   7.176   8.482   2.249 -0.3935  0.5723  0.1585
  603MOL0     N79514   7.990   8.387   2.322 -0.0992  0.0967  0.4912
  603MOL0     N79515   8.099   8.434   2.277  0.4912  0.2067 -0.3353
  603MOL0     C79516   8.818   9.258   1.937 -0.2795  0.8216  0.1153
  603MOL0     C79517   8.959   9.266   1.927  0.1072  0.1812 -0.2102
  603MOL0     C79518   9.408   9.267   1.923 -0.8028  0.1206  0.3953
  603MOL0     C79519   9.489   9.371   1.891 -0.1846 -0.0547  0.1031
  603MOL0     C79520   9.629   9.359   1.897 -0.9147  0.7292 -0.1590
  603MOL0     C79521   9.697   9.251   1.942 -0.5212 -0.3736  1.1591
  603MOL0     O79522   9.837   9.238   1.955  0.5706  0.1455  0.4060
  603MOL0     C79523   9.929   9.349   1.927 -0.5583 -0.5774 -0.2860
  603MOL0     C79524  10.073   9.297   1.940  0.3466 -0.2215 -0.8146
  603MOL0     C79525  10.179   9.392   1.873  0.2265 -0.8729 -0.1112
  603MOL0     C79526  10.302   9.422   1.972 -0.8752 -0.7449  0.2442
  603MOL0     C79527  10.391   9.528   1.916 -0.5722 -0.3069  0.2876
  603MOL0     C79528  10.481   9.602   1.877 -0.2588 -0.3125  0.0456
  603MOL0     C79529   9.614   9.137   1.968 -0.1442 -0.3150 -0.0817
  603MOL0     C79530   9.471   9.145   1.957  0.1244  0.2465  0.0854
  603MOL0     H79531   9.054   9.034   2.142  2.3567  2.3934  0.5128
  603MOL0     H79532   8.797   9.041   2.189  0.3176  0.7250  0.0001
  603MOL0     H79533   8.546   9.111   2.193  1.2819 -0.3097 -0.9192
  603MOL0     H79534   8.607   8.986   2.088 -0.4987 -0.3335  0.9796
  603MOL0     H79535   8.429   8.983   1.934  0.0612  2.6408 -2.6057
  603MOL0     H79536   8.380   9.143   1.967 -0.1980  0.7515 -0.1025
  603MOL0     H79537   8.310   9.055   2.210 -2.0985 -1.4051  1.8641
  603MOL0     H79538   8.343   8.893   2.136  0.4264 -0.4718 -0.2754
  603MOL0     H79539   8.114   8.951   2.121  2.1240 -1.7323  1.0585
  603MOL0     H79540   8.153   9.093   2.012 -0.0521  0.1885  0.0791
  603MOL0     H79541   8.232   8.947   1.835 -1.4082 -0.4024 -1.7406
  603MOL0     H79542   8.077   8.881   1.880  0.4369 -1.3146 -0.6269
  603MOL0     H79543   8.332   8.748   1.956  0.2805 -1.5834 -1.2556
  603MOL0     H79544   8.210   8.693   1.840  1.3642  1.0389 -1.4894
  603MOL0     H79545   8.144   8.749   2.138 -2.4383 -0.4903  0.4100
  603MOL0     H79546   8.042   8.685   1.997  0.7005  3.1345 -2.7993
  603MOL0     H79547   8.260   8.537   2.143  0.6405  0.9309 -0.2614
  603MOL0     H79548   8.193   8.488   1.988  0.7127  3.1216 -1.6755
  603MOL0     H79549   7.873   8.534   2.053 -0.9268 -1.8479 -0.9922
  603MOL0     H79550   7.736   8.378   2.368 -1.4274  1.3290 -0.6051
  603MOL0     H79551   7.750   8.253   2.251 -1.7996  0.2202 -0.5119
  603MOL0     H79552   7.677   8.410   2.072 -2.0145  0.1758 -0.6296
  603MOL0     H79553   7.639   8.525   2.198 -2.5596  0.1878  0.7408
  603MOL0     H79554   7.508   8.244   2.184 -0.2177  0.0103 -3.1343
  603MOL0     H79555   7.469   8.374   2.298 -0.9807 -0.1101 -0.3738
  603MOL0     H79556   7.326   8.338   2.092  2.0431 -2.3317 -0.0252
  603MOL0     H79557   7.450   8.402   1.997 -1.0010 -0.1968 -0.7941
  603MOL0     H79558   7.222   8.685   1.981 -0.3819 -2.4011 -1.2015
  603MOL0     H79559   6.984   8.695   1.989 -1.1396  2.1873  1.7795
  603MOL0     H79560   6.552   8.491   2.071  1.1342  0.3001  1.4753
  603MOL0     H79561   6.318   8.557   2.033  0.5170 -1.5020 -0.1125
  603MOL0     H79562   6.155   8.650   2.255  1.9741 -4.4791 -1.1476
  603MOL0     H79563   6.131   8.604   2.107  1.6510 -0.9324  1.1815
  603MOL0     H79564   5.961   8.805   2.073 -1.4227  1.4367  0.9954
  603MOL0     H79565   6.006   8.863   2.232 -1.3356  1.0608  0.1614
  603MOL0     H79566   5.850   8.599   2.176 -1.4095  1.1944 -1.0043
  603MOL0     H79567   5.777   8.755   2.240 -0.0600 -0.3031  1.7243
  603MOL0     H79568   5.968   8.577   2.382  0.7697  0.4657  0.1069
  603MOL0     H79569   5.952   8.748   2.432 -1.0506  0.3920  1.6417
  603MOL0     H79570   5.802   8.559   2.545  0.9054  0.0771  0.0798
  603MOL0     H79571   5.722   8.561   2.386  0.9993  0.0137 -2.2220
  603MOL0     H79572   5.616   8.778   2.428 -0.9753 -2.8030 -1.4608
  603MOL0     H79573   5.738   8.800   2.565 -1.5549  1.2454  1.4420
  603MOL0     H79574   5.504   8.598   2.566 -1.4302  0.7072  1.1554
  603MOL0     H79575   5.607   8.632   2.702 -0.8967  0.6700  1.1196
  603MOL0     H79576   5.368   8.723   2.674 -0.7297  1.1799 -0.3699
  603MOL0     H79577   5.431   8.856   2.566  3.2827  1.1214 -0.7303
  603MOL0     H79578   6.402   8.950   2.154  0.7340  0.2508 -1.9083
  603MOL0     H79579   6.641   8.902   2.140  0.8904 -0.2655 -0.9236
  603MOL0     H79580   6.981   8.439   2.338 -0.7983 -1.4372 -1.4436
  603MOL0     H79581   7.225   8.428   2.329 -0.0594  0.0935 -0.3647
  603MOL0     H79582   8.748   9.318   1.879  1.9034  3.8386  0.3348
  603MOL0     H79583   8.991   9.342   1.857  2.3254 -0.9820 -0.5158
  603MOL0     H79584   9.453   9.462   1.844  1.8944  0.3084 -0.9334
  603MOL0     H79585   9.692   9.446   1.881 -0.0859  0.1197 -0.2825
  603MOL0     H79586   9.918   9.441   1.986  0.8854  1.1902 -2.6298
  603MOL0     H79587   9.929   9.375   1.821  1.5087  1.6838  0.1954
  603MOL0     H79588  10.093   9.274   2.045 -1.3339 -0.1288 -0.4559
  603MOL0     H79589  10.085   9.197   1.896  0.3649 -0.6904  0.2177
  603MOL0     H79590  10.127   9.487   1.855  1.3176 -0.1211  0.5652
  603MOL0     H79591  10.212   9.343   1.781 -2.5189 -0.0881 -1.6367
  603MOL0     H79592  10.272   9.462   2.069  2.2785  2.3586  0.1266
  603MOL0     H79593  10.353   9.326   1.986  0.8592  0.2287  0.9093
  603MOL0     H79594  10.564   9.664   1.850  0.5339 -0.9522  0.9606
  603MOL0     H79595   9.651   9.039   1.997  0.0373 -0.4413 -0.7222
  603MOL0     H79596   9.414   9.059   1.989 -0.1068  0.8852  1.4652
  604MOL0     O79597   3.551   4.340  11.024 -0.8023 -0.2643  0.0282
  604MOL0     C79598   3.566   4.393  11.129 -0.2132  0.6322 -0.5481
  604MOL0     O79599   3.473   4.386  11.226 -0.2479 -0.5038  0.4144
  604MOL0     C79600   3.355   4.322  11.197  0.2278 -0.0906  0.3804
  604MOL0     C79601   3.329   4.209  11.277  0.0081  0.5665 -0.1360
  604MOL0     C79602   3.218   4.126  11.253 -0.1212 -0.0217 -0.4680
  604MOL0     C79603   3.124   4.168  11.153  0.0698 -1.2064 -0.2262
  604MOL0     O79604   3.007   4.100  11.121 -0.0370 -0.3161 -0.3048
  604MOL0     C79605   2.971   4.002  11.219  0.7407 -0.0785 -0.0919
  604MOL0     C79606   2.814   3.990  11.220 -0.6429  0.1500 -0.4396
  604MOL0     C79607   2.760   3.870  11.293  0.3751 -0.5771 -0.3122
  604MOL0     C79608   2.610   3.851  11.286 -0.2719 -0.3525  0.0076
  604MOL0     C79609   2.554   3.713  11.319 -0.6073 -0.1531  0.9359
  604MOL0     C79610   2.561   3.702  11.472  0.2310 -0.9171  0.1504
  604MOL0     C79611   2.491   3.570  11.520 -0.9929 -0.2142  1.0196
  604MOL0     C79612   2.557   3.429  11.491  0.0740  0.1345 -0.6015
  604MOL0     N79613   2.699   3.421  11.512  0.2394 -0.2437  0.2031
  604MOL0     C79614   2.781   3.463  11.412  0.1722 -0.2396 -0.0298
  604MOL0     C79615   2.900   3.426  11.456  0.3480  0.5447  0.7378
  604MOL0     C79616   3.019   3.443  11.354 -0.3081  0.5665 -0.6652
  604MOL0     C79617   3.156   3.408  11.419  0.8814  0.7895  0.0431
  604MOL0     C79618   3.256   3.430  11.302  0.5572 -0.2627 -0.2608
  604MOL0     C79619   3.407   3.424  11.345  0.5427 -0.1965 -0.0269
  604MOL0     O79620   3.490   3.461  11.234  0.1545  0.2293  0.5558
  604MOL0     C79621   3.611   3.515  11.265 -0.2588  0.6653 -0.0119
  604MOL0     C79622   3.669   3.589  11.167 -0.5989 -0.7951  0.6834
  604MOL0     C79623   3.792   3.659  11.191 -0.1054  1.0005 -0.0339
  604MOL0     C79624   3.859   3.647  11.318 -0.0401  0.0096 -0.4336
  604MOL0     C79625   3.987   3.718  11.347  0.3443  0.8933  0.0389
  604MOL0     O79626   4.051   3.766  11.236  0.4660 -0.3550 -1.1130
  604MOL0     C79627   4.181   3.810  11.232  0.0145 -0.2306 -0.6546
  604MOL0     C79628   4.263   3.847  11.336 -0.4539 -0.8445 -1.0154
  604MOL0     C79629   4.382   3.911  11.309 -0.5660  0.1581 -0.6198
  604MOL0     C79630   4.441   3.914  11.185 -0.3794 -0.1927 -0.0635
  604MOL0     O79631   4.565   3.982  11.165 -0.7509 -0.1921  0.1532
  604MOL0     C79632   4.583   4.040  11.040  0.0404 -0.4024 -1.1371
  604MOL0     C79633   4.715   4.119  11.052 -0.0246 -0.7530  0.1877
  604MOL0     C79634   4.838   4.031  11.066  0.0514  0.4454  0.0465
  604MOL0     C79635   4.962   4.119  11.061 -0.9693 -0.5163  0.2963
  604MOL0     C79636   5.086   4.036  11.106 -0.0325 -0.5543  0.2029
  604MOL0     C79637   5.214   4.114  11.079 -1.0948 -0.6618  0.1146
  604MOL0     C79638   5.336   4.042  11.125 -0.5228 -0.2005  0.2146
  604MOL0     C79639   5.466   4.125  11.125  0.9327  0.6163  0.5540
  604MOL0    Cl79640   5.595   4.029  11.194  0.1043 -0.5633 -0.6135
  604MOL0     C79641   4.368   3.852  11.078 -0.8090  0.5291  0.3684
  604MOL0     C79642   4.238   3.803  11.104  0.7876 -0.3630  0.3555
  604MOL0     O79643   4.022   3.725  11.465 -0.3594  0.8271 -0.1683
  604MOL0     C79644   3.794   3.573  11.420 -0.2349  0.1155  0.7787
  604MOL0     C79645   3.676   3.499  11.393  0.3321 -0.2662 -0.4092
  604MOL0     N79646   2.887   3.360  11.573  0.6135  0.0239 -0.6431
  604MOL0     N79647   2.766   3.379  11.618  0.0159 -0.1963 -1.0467
  604MOL0     C79648   3.139   4.298  11.091  1.0512  0.0793  0.3729
  604MOL0     C79649   3.259   4.372  11.112  1.1983  0.1743  1.2009
  604MOL0     C79650   3.690   4.470  11.159 -0.0485 -0.2455  0.2678
  604MOL0     C79651   3.815   4.439  11.100 -0.0070  0.2216  1.1008
  604MOL0     C79652   3.937   4.508  11.129 -0.4813 -0.1528 -0.3335
  604MOL0     C79653   3.929   4.621  11.214 -0.3224  0.0737 -1.5616
  604MOL0     O79654   4.031   4.704  11.257 -0.0643  0.7663  0.3140
  604MOL0     C79655   4.146   4.694  11.172  0.5203  0.5758  0.6729
  604MOL0     C79656   4.253   4.793  11.210  0.2827 -0.2286  0.1621
  604MOL0     C79657   4.390   4.740  11.190 -0.2257 -0.5559 -0.3174
  604MOL0     C79658   4.509   4.813  11.226 -0.8008 -0.6680 -0.4180
  604MOL0     C79659   4.529   4.952  11.172 -0.2295 -0.2352 -0.3933
  604MOL0     C79660   4.555   5.066  11.138  0.3670 -0.8378 -0.2575
  604MOL0     C79661   3.803   4.650  11.277  0.0690  0.4678 -0.8096
  604MOL0     C79662   3.690   4.572  11.255  0.2213 -0.1504 -0.5392
  604MOL0     H79663   3.399   4.167  11.348  0.2278 -0.7641 -1.0955
  604MOL0     H79664   3.211   4.043  11.323  0.0233 -0.0108 -0.4415
  604MOL0     H79665   2.989   4.045  11.318 -0.1668 -0.0997  0.0855
  604MOL0     H79666   3.012   3.902  11.197 -2.2651 -1.0341 -1.9327
  604MOL0     H79667   2.768   3.988  11.121  0.5012  0.1218 -0.9852
  604MOL0     H79668   2.764   4.077  11.264 -1.9013 -1.1795  0.8984
  604MOL0     H79669   2.796   3.883  11.396 -2.4358  1.8360  0.4989
  604MOL0     H79670   2.820   3.786  11.256  1.9399  0.0385  0.7312
  604MOL0     H79671   2.557   3.928  11.342 -2.0017 -1.4423 -0.0839
  604MOL0     H79672   2.587   3.873  11.181  0.6519  0.1532 -0.0990
  604MOL0     H79673   2.617   3.636  11.274 -0.6698 -0.6479  1.6876
  604MOL0     H79674   2.452   3.718  11.280  0.4513  2.9465 -1.9842
  604MOL0     H79675   2.517   3.790  11.520 -0.0794 -1.0917  0.1885
  604MOL0     H79676   2.668   3.695  11.493  1.7642  1.7093 -5.0634
  604MOL0     H79677   2.466   3.582  11.626  0.2454 -2.3807  1.6293
  604MOL0     H79678   2.399   3.556  11.464  0.5841 -1.0887 -1.5593
  604MOL0     H79679   2.528   3.399  11.390 -1.7029  0.7182 -0.2958
  604MOL0     H79680   2.510   3.357  11.558  2.7774  1.2380  2.8249
  604MOL0     H79681   2.763   3.496  11.310  0.2962 -3.1585 -1.0802
  604MOL0     H79682   3.005   3.545  11.318 -0.7114  0.6167 -0.3686
  604MOL0     H79683   3.001   3.374  11.271  0.7570  1.0231 -1.3002
  604MOL0     H79684   3.148   3.313  11.472 -1.5588  1.3997  0.8953
  604MOL0     H79685   3.185   3.484  11.492  1.0043  0.5303  0.2656
  604MOL0     H79686   3.224   3.358  11.226 -1.3634 -0.6484  0.8381
  604MOL0     H79687   3.235   3.532  11.271 -2.4442  0.2114  2.6770
  604MOL0     H79688   3.427   3.323  11.382  2.2376 -0.7495 -2.2054
  604MOL0     H79689   3.406   3.491  11.431 -0.9333  0.0047 -0.1699
  604MOL0     H79690   3.622   3.585  11.069 -0.6005 -1.9346  0.7272
  604MOL0     H79691   3.841   3.710  11.109  1.0811 -0.7848 -0.4914
  604MOL0     H79692   4.234   3.857  11.441  0.7841  1.4419 -0.8333
  604MOL0     H79693   4.421   3.956  11.400  0.2969 -2.1208  0.2176
  604MOL0     H79694   4.505   4.110  11.010 -1.5047 -1.3901  0.3632
  604MOL0     H79695   4.578   3.959  10.967 -2.1414 -2.3105  0.9606
  604MOL0     H79696   4.710   4.182  11.141  2.8213 -2.1190  1.4273
  604MOL0     H79697   4.734   4.180  10.963 -2.2809 -0.2311  0.0068
  604MOL0     H79698   4.837   3.951  10.992 -0.4060  1.1892 -0.7617
  604MOL0     H79699   4.834   3.974  11.160  0.6032  0.3069 -0.0100
  604MOL0     H79700   4.972   4.142  10.954 -1.6874 -1.9040 -0.0990
  604MOL0     H79701   4.968   4.205  11.127  1.6439 -0.3091 -0.1120
  604MOL0     H79702   5.093   3.947  11.044 -1.7208  0.9722 -2.3649
  604MOL0     H79703   5.083   3.995  11.208 -0.6852  0.0695  0.4427
  604MOL0     H79704   5.221   4.213  11.124  0.5311  0.7088 -2.8468
  604MOL0     H79705   5.217   4.138  10.972  0.2320 -1.8615 -0.1517
  604MOL0     H79706   5.313   4.008  11.226  1.0249 -0.8820  0.3781
  604MOL0     H79707   5.362   3.950  11.071 -0.4706 -0.7751  1.2148
  604MOL0     H79708   5.457   4.217  11.184 -2.5730  1.4688 -0.9992
  604MOL0     H79709   5.502   4.140  11.023  1.2466 -1.7545  0.2652
  604MOL0     H79710   4.410   3.851  10.977  1.4239 -0.9345  1.2183
  604MOL0     H79711   4.184   3.763  11.018  1.3586  0.0654 -0.2052
  604MOL0     H79712   3.844   3.562  11.516 -1.7327  0.8704  1.6790
  604MOL0     H79713   3.620   3.437  11.462 -2.3155  1.3788 -0.8927
  604MOL0     H79714   3.072   4.329  11.011  1.4444 -0.1528 -0.0523
  604MOL0     H79715   3.262   4.464  11.055  1.4074 -0.3618  0.3431
  604MOL0     H79716   3.823   4.357  11.030 -0.0898  1.4419 -0.3882
  604MOL0     H79717   4.031   4.468  11.092 -1.3744 -4.3065  1.3261
  604MOL0     H79718   4.115   4.720  11.070  2.2233  0.8457  0.2019
  604MOL0     H79719   4.189   4.594  11.174  1.6072  0.7023 -4.1131
  604MOL0     H79720   4.248   4.880  11.143  1.5007 -1.9792 -2.3283
  604MOL0     H79721   4.242   4.825  11.314  2.8370 -0.8287  0.6808
  604MOL0     H79722   4.394   4.715  11.084 -1.9364 -1.2964 -0.2414
  604MOL0     H79723   4.401   4.646  11.246 -0.1332 -0.2164  0.2375
  604MOL0     H79724   4.511   4.814  11.336  1.8513  0.0829 -0.4078
  604MOL0     H79725   4.593   4.754  11.189 -1.0287 -1.6188  0.5314
  604MOL0     H79726   4.580   5.165  11.104  0.4230 -1.3953 -1.9222
  604MOL0     H79727   3.801   4.725  11.355  0.9161  1.0282 -1.3131
  604MOL0     H79728   3.603   4.587  11.317  1.0371 -0.7877  0.8019
  605MOL0     O79729   7.000   4.184   4.637 -0.0133 -0.7853  0.2332
  605MOL0     C79730   6.928   4.284   4.665 -0.4723  0.5545 -0.3707
  605MOL0     O79731   6.967   4.405   4.718  0.3183 -0.2807 -0.5826
  605MOL0     C79732   7.097   4.441   4.749 -0.6225 -0.5351  0.5150
  605MOL0     C79733   7.204   4.353   4.781  0.1175 -0.6206  1.1101
  605MOL0     C79734   7.331   4.418   4.817 -1.1686  0.1572 -0.6332
  605MOL0     C79735   7.343   4.556   4.814  0.3896  1.5097 -0.0452
  605MOL0     O79736   7.472   4.604   4.850  1.0686  0.0128 -0.0128
  605MOL0     C79737   7.492   4.745   4.861  0.3384  0.1636 -0.3875
  605MOL0     C79738   7.621   4.774   4.935 -1.0346 -1.0569  0.0374
  605MOL0     C79739   7.658   4.914   4.890  0.2023 -0.3005 -0.6126
  605MOL0     C79740   7.755   4.975   4.995 -0.2081 -0.2355  0.6462
  605MOL0     C79741   7.800   5.114   4.959  0.5032 -0.6109 -0.5633
  605MOL0     C79742   7.936   5.152   5.033  0.7879  0.2203 -0.2131
  605MOL0     C79743   8.057   5.070   4.978 -0.6154 -0.2687  0.4588
  605MOL0     C79744   8.180   5.109   5.068  0.4573 -0.5255 -0.6201
  605MOL0     N79745   8.215   5.250   5.089 -0.0585 -0.7692 -0.1925
  605MOL0     C79746   8.206   5.347   4.989 -0.4579  0.0176  0.5683
  605MOL0     C79747   8.245   5.459   5.047  0.4196  0.0539  0.0823
  605MOL0     C79748   8.270   5.590   4.989  0.4764 -0.0300  0.6608
  605MOL0     C79749   8.150   5.654   4.920  0.3982  0.6486  0.1794
  605MOL0     C79750   8.030   5.644   5.015 -0.0840  0.0255  0.4293
  605MOL0     C79751   7.900   5.703   4.959 -0.1478 -0.2062  0.6936
  605MOL0     O79752   7.857   5.627   4.844  0.1692 -0.1126 -1.0314
  605MOL0     C79753   7.723   5.596   4.839  0.2281  0.4124  0.0095
  605MOL0     C79754   7.672   5.509   4.937  0.0583  0.2776 -0.0491
  605MOL0     C79755   7.533   5.487   4.948  0.5358  0.5263 -0.1739
  605MOL0     C79756   7.441   5.554   4.865  0.4269 -0.0081  0.5386
  605MOL0     C79757   7.298   5.520   4.884  0.9764 -0.0903 -0.5588
  605MOL0     O79758   7.213   5.566   4.790 -0.1350  0.4587  0.9786
  605MOL0     C79759   7.079   5.517   4.801  0.2975 -0.2013  0.0985
  605MOL0     C79760   6.970   5.596   4.833 -0.8917  0.8968  1.2523
  605MOL0     C79761   6.844   5.544   4.854 -0.2018  0.3812  0.2178
  605MOL0     C79762   6.825   5.404   4.843  0.2922 -0.0848  0.0702
  605MOL0     O79763   6.706   5.357   4.877  0.4215  0.0387 -0.4898
  605MOL0     C79764   6.664   5.226   4.828 -0.3963 -0.5241  0.1862
  605MOL0     C79765   6.536   5.176   4.893 -0.2867  0.2161  0.1655
  605MOL0     C79766   6.529   5.027   4.867 -1.1218 -0.1103  0.6348
  605MOL0     C79767   6.398   4.973   4.932  0.3070 -0.5110  0.1633
  605MOL0     C79768   6.365   4.822   4.904  0.0778  0.2670 -0.1087
  605MOL0     C79769   6.242   4.785   4.990  0.3051 -0.4575 -0.5208
  605MOL0     C79770   6.191   4.654   4.923 -0.0831 -0.4586  0.4846
  605MOL0     C79771   6.063   4.612   4.993  0.1495 -0.7985  0.6440
  605MOL0    Cl79772   6.059   4.618   5.178  0.3081 -0.0586  0.3182
  605MOL0     C79773   6.930   5.322   4.795  0.5209 -0.0186 -0.0767
  605MOL0     C79774   7.058   5.380   4.771 -0.0347  0.1572 -0.0631
  605MOL0     O79775   7.263   5.453   4.985  0.0669 -0.0868 -0.2337
  605MOL0     C79776   7.498   5.641   4.768  0.8122 -0.0356  0.3437
  605MOL0     C79777   7.635   5.665   4.756 -0.3788 -0.6369  0.5125
  605MOL0     N79778   8.271   5.430   5.176 -0.2396  0.2751  0.4744
  605MOL0     N79779   8.256   5.305   5.201 -0.1911  0.0439  0.5371
  605MOL0     C79780   7.239   4.638   4.776  0.3148  0.0099 -0.6679
  605MOL0     C79781   7.116   4.583   4.745 -0.3848  0.6033  0.4977
  605MOL0     C79782   6.784   4.265   4.644 -0.4781 -0.4383 -0.9417
  605MOL0     C79783   6.690   4.355   4.702 -0.3009  0.2941  0.1201
  605MOL0     C79784   6.548   4.339   4.693 -0.7361  0.0237 -0.6923
  605MOL0     C79785   6.499   4.223   4.627  0.0398  0.0087 -0.5247
  605MOL0     O79786   6.357   4.213   4.623  0.0684  0.4828 -0.3117
  605MOL0     C79787   6.305   4.104   4.543 -0.5118  0.2166 -0.0138
  605MOL0     C79788   6.301   3.970   4.620 -0.0014 -0.2872  0.0367
  605MOL0     C79789   6.183   3.881   4.573 -0.4329 -0.4777  0.9084
  605MOL0     C79790   6.206   3.823   4.429 -0.4362 -0.0850 -0.8571
  605MOL0     C79791   6.146   3.909   4.324 -0.3676  0.1113 -1.9417
  605MOL0     C79792   6.112   3.975   4.225 -0.5482  0.4004 -0.3480
  605MOL0     C79793   6.591   4.142   4.565 -0.5271  0.0700 -0.4182
  605MOL0     C79794   6.731   4.164   4.566 -1.2115  0.5978  0.0148
  605MOL0     H79795   7.198   4.245   4.784  0.6119 -0.8472 -2.1131
  605MOL0     H79796   7.411   4.359   4.860 -2.7473 -0.1992  2.0815
  605MOL0     H79797   7.413   4.787   4.924  0.4353  1.2780 -0.9933
  605MOL0     H79798   7.491   4.788   4.761  0.5666 -1.6569 -1.2089
  605MOL0     H79799   7.702   4.707   4.906 -0.2078 -0.4583  0.8785
  605MOL0     H79800   7.608   4.757   5.043  4.5994 -2.1450  0.8909
  605MOL0     H79801   7.572   4.978   4.869  0.1236  0.5885  2.1256
  605MOL0     H79802   7.714   4.899   4.797  1.2201  1.9498 -0.4179
  605MOL0     H79803   7.704   4.977   5.092 -1.3806  1.1067  0.0430
  605MOL0     H79804   7.841   4.909   5.012  0.9470  1.9059  4.1127
  605MOL0     H79805   7.717   5.181   4.982  0.8258 -0.7716  1.1576
  605MOL0     H79806   7.811   5.131   4.851 -1.1871  3.4132 -0.2783
  605MOL0     H79807   7.928   5.139   5.142  1.6086  0.2977 -0.1351
  605MOL0     H79808   7.947   5.259   5.012 -0.4719  0.4917  0.3976
  605MOL0     H79809   8.037   4.963   4.985  0.2759 -0.4434  0.5313
  605MOL0     H79810   8.083   5.090   4.874  3.1049 -2.8538  0.6530
  605MOL0     H79811   8.263   5.050   5.030 -1.2142 -4.3757  1.1620
  605MOL0     H79812   8.162   5.079   5.172  2.8883  0.4904  0.1753
  605MOL0     H79813   8.189   5.342   4.882  1.6120  0.4935  0.1761
  605MOL0     H79814   8.347   5.572   4.913  0.7765  2.6919  0.2453
  605MOL0     H79815   8.313   5.659   5.062  1.0744  2.5866 -1.9850
  605MOL0     H79816   8.125   5.596   4.830  0.5602  0.6833  0.1125
  605MOL0     H79817   8.175   5.756   4.888  0.6920  0.1662 -1.1808
  605MOL0     H79818   8.009   5.542   5.048 -3.1631  0.3669 -0.1508
  605MOL0     H79819   8.060   5.690   5.109 -1.4250 -0.7791  1.2885
  605MOL0     H79820   7.919   5.807   4.933 -0.3068 -0.2677  0.3173
  605MOL0     H79821   7.818   5.712   5.031 -0.6440  2.1520 -0.0581
  605MOL0     H79822   7.747   5.470   5.006 -1.9341 -1.0434  1.4843
  605MOL0     H79823   7.499   5.409   5.016 -1.0010  0.0285 -1.4502
  605MOL0     H79824   7.002   5.700   4.841  2.9922 -0.2121  2.1871
  605MOL0     H79825   6.757   5.602   4.883  0.5446  0.8341  1.6318
  605MOL0     H79826   6.745   5.156   4.852  1.3363  0.1747 -3.1331
  605MOL0     H79827   6.653   5.230   4.720 -1.4301  0.9497  0.3130
  605MOL0     H79828   6.452   5.224   4.843  0.3041  0.8684 -0.2212
  605MOL0     H79829   6.529   5.195   5.001  0.8344 -1.8104  0.6548
  605MOL0     H79830   6.612   4.971   4.911 -1.1572 -1.1314 -0.5163
  605MOL0     H79831   6.533   5.002   4.761  0.4511  2.6881 -0.0501
  605MOL0     H79832   6.400   4.984   5.040 -0.9327  0.2536  0.1279
  605MOL0     H79833   6.306   5.022   4.897 -0.7272 -2.9013 -0.6903
  605MOL0     H79834   6.440   4.747   4.928 -0.7486  0.6802  4.8688
  605MOL0     H79835   6.343   4.814   4.797  1.3909  0.3735 -0.3995
  605MOL0     H79836   6.157   4.854   4.989 -1.2350 -2.1937  1.2993
  605MOL0     H79837   6.268   4.761   5.094  2.4152  0.1986 -0.8483
  605MOL0     H79838   6.176   4.657   4.815 -2.6824 -3.1171  0.6765
  605MOL0     H79839   6.260   4.572   4.943  1.4213  0.8404  0.8847
  605MOL0     H79840   6.042   4.509   4.961  0.1175 -0.6700  0.2382
  605MOL0     H79841   5.984   4.673   4.948  3.4810  2.3399 -1.5193
  605MOL0     H79842   6.929   5.213   4.799  0.8761 -0.0323 -0.2868
  605MOL0     H79843   7.141   5.319   4.737 -0.9328  0.5712 -3.4250
  605MOL0     H79844   7.422   5.683   4.704 -0.3185 -2.9165 -0.3667
  605MOL0     H79845   7.667   5.740   4.685 -1.5942 -0.6014 -0.0162
  605MOL0     H79846   7.241   4.745   4.789 -0.4383 -0.0575  0.0556
  605MOL0     H79847   7.028   4.639   4.713 -0.0327  0.4587 -0.7834
  605MOL0     H79848   6.722   4.438   4.764 -0.0212 -0.0515  0.4457
  605MOL0     H79849   6.476   4.407   4.736  1.7495  2.0184  0.5642
  605MOL0     H79850   6.367   4.088   4.455  0.5099  1.7494  0.3934
  605MOL0     H79851   6.200   4.115   4.512 -0.7918 -0.3347  0.6969
  605MOL0     H79852   6.393   3.919   4.589 -0.8326 -2.6489  1.2684
  605MOL0     H79853   6.301   4.001   4.725  1.6990  0.3829 -0.1191
  605MOL0     H79854   6.088   3.934   4.583  0.6548  1.6741  0.3895
  605MOL0     H79855   6.181   3.800   4.646  0.7432  0.2381  1.7807
  605MOL0     H79856   6.311   3.798   4.408  0.0264  2.5081 -2.0711
  605MOL0     H79857   6.153   3.728   4.429  0.2261 -0.4667 -0.0324
  605MOL0     H79858   6.079   4.024   4.135 -0.4276 -0.7573 -1.0388
  605MOL0     H79859   6.566   4.047   4.519  1.7801 -1.3031  0.9475
  605MOL0     H79860   6.797   4.093   4.516  0.5098  3.2572 -1.7748
  606MOL0     O79861   4.555   2.584   0.008 -0.2238  0.2735 -0.3694
  606MOL0     C79862   4.594   2.542   0.117 -0.6746 -0.8343  0.7880
  606MOL0     O79863   4.533   2.446   0.193  0.1536  0.2618 -0.1701
  606MOL0     C79864   4.398   2.407   0.174 -0.4880  0.5298  0.1915
  606MOL0     C79865   4.293   2.500   0.140 -0.4015  0.4868  0.3303
  606MOL0     C79866   4.162   2.450   0.119 -1.0818 -1.1245  0.1579
  606MOL0     C79867   4.132   2.316   0.139 -0.3341 -0.5561 -0.7842
  606MOL0     O79868   4.014   2.250   0.114  0.4920 -0.4279  0.1095
  606MOL0     C79869   3.927   2.304   0.015 -0.7086 -1.1915  0.4482
  606MOL0     C79870   3.814   2.211  -0.011  0.5399 -0.1387  1.0003
  606MOL0     C79871   3.709   2.283  -0.086  0.7486 -0.3373  0.2907
  606MOL0     C79872   3.583   2.202  -0.093  1.2119 -0.4993 -0.0280
  606MOL0     C79873   3.476   2.268  -0.184 -0.7340 -1.1366  0.3571
  606MOL0     C79874   3.383   2.168  -0.250 -0.4460 -0.5825  0.2562
  606MOL0     C79875   3.317   2.070  -0.157  0.1525  0.0329 -0.3370
  606MOL0     C79876   3.215   1.968  -0.231 -0.7787  0.2917  0.0629
  606MOL0     N79877   3.160   1.872  -0.141  0.5107  0.1656 -0.5277
  606MOL0     C79878   3.078   1.894  -0.034  0.2047 -0.8960 -0.2175
  606MOL0     C79879   3.054   1.776   0.026 -0.4289  0.5471  1.1389
  606MOL0     C79880   2.977   1.752   0.157 -0.3196  0.4435  0.2619
  606MOL0     C79881   2.838   1.742   0.112  0.0742  0.8629 -0.2314
  606MOL0     C79882   2.746   1.719   0.243  0.0684 -0.0504  0.3144
  606MOL0     C79883   2.591   1.724   0.223  0.4089  0.2496  0.2584
  606MOL0     O79884   2.556   1.815   0.119 -0.0039  0.0412  0.2153
  606MOL0     C79885   2.420   1.831   0.111 -0.1746  0.2822 -0.2272
  606MOL0     C79886   2.321   1.771   0.195 -0.4015 -0.5938  0.1003
  606MOL0     C79887   2.183   1.796   0.174 -0.7136 -0.1976  0.2581
  606MOL0     C79888   2.143   1.876   0.065  0.0706 -0.5426 -0.1005
  606MOL0     C79889   2.005   1.915   0.047  0.5675  0.8394  1.3735
  606MOL0     O79890   1.970   2.000  -0.058 -0.0595  0.3279 -0.3100
  606MOL0     C79891   1.843   2.031  -0.076 -0.0578 -0.0933  0.2874
  606MOL0     C79892   1.771   2.102   0.019 -0.2455  0.4015  0.1236
  606MOL0     C79893   1.635   2.135  -0.002  0.5951 -0.4372  0.1900
  606MOL0     C79894   1.569   2.079  -0.114 -0.6478  0.9794  0.8105
  606MOL0     O79895   1.432   2.100  -0.116 -0.4458 -0.6759 -0.2349
  606MOL0     C79896   1.357   2.058  -0.226 -0.5364  0.3923 -0.0911
  606MOL0     C79897   1.328   1.910  -0.234 -0.2272 -0.0644 -0.3755
  606MOL0     C79898   1.234   1.860  -0.125  1.0918 -0.0762 -0.6284
  606MOL0     C79899   1.184   1.723  -0.171 -0.5003 -0.0542  0.7973
  606MOL0     C79900   1.124   1.660  -0.053 -0.1227  0.9761 -0.1497
  606MOL0     C79901   0.995   1.715  -0.017  0.9893 -0.6582 -0.5862
  606MOL0     C79902   0.913   1.639   0.085  1.1296  0.9673  0.1746
  606MOL0     C79903   0.807   1.736   0.144 -0.0440  0.0873  0.3222
  606MOL0    Cl79904   0.705   1.654   0.261 -0.3144  0.3402  0.1321
  606MOL0     C79905   1.645   2.005  -0.212  0.4581 -0.6652 -0.4336
  606MOL0     C79906   1.781   1.989  -0.187 -0.4080 -0.6086 -0.1731
  606MOL0     O79907   1.920   1.866   0.124  0.1803  0.6475 -0.0860
  606MOL0     C79908   2.235   1.926  -0.020  0.2717 -0.0035 -0.0089
  606MOL0     C79909   2.374   1.902  -0.003  0.1107 -0.2762  0.1513
  606MOL0     N79910   3.137   1.681  -0.034 -0.4588 -0.5754 -0.9271
  606MOL0     N79911   3.201   1.743  -0.134  0.4799 -0.7072 -0.8758
  606MOL0     C79912   4.231   2.237   0.193  0.4962 -0.0448  0.2179
  606MOL0     C79913   4.360   2.278   0.202 -0.4196  0.7146 -0.4938
  606MOL0     C79914   4.728   2.606   0.166 -0.9918 -0.3384 -0.6597
  606MOL0     C79915   4.775   2.727   0.121  0.0814 -0.4403 -0.1468
  606MOL0     C79916   4.901   2.781   0.151  0.9530  0.8165 -0.4336
  606MOL0     C79917   4.978   2.718   0.243  0.0578 -0.1822 -0.2354
  606MOL0     O79918   5.101   2.760   0.281 -0.1751  0.3722 -0.2509
  606MOL0     C79919   5.149   2.884   0.235  0.1759 -0.4294 -0.7787
  606MOL0     C79920   5.294   2.893   0.278  0.7921  0.3176  0.3240
  606MOL0     C79921   5.369   3.016   0.237 -0.4109  0.8971  0.3313
  606MOL0     C79922   5.293   3.151   0.234  0.0677  0.2924 -0.6825
  606MOL0     C79923   5.245   3.184   0.368 -1.2706  0.5521  0.1121
  606MOL0     C79924   5.220   3.206   0.489  0.4499  0.5387 -0.1721
  606MOL0     C79925   4.925   2.606   0.312  0.2038  0.8847 -0.1851
  606MOL0     C79926   4.803   2.550   0.276 -0.2403 -0.1721  0.2420
  606MOL0     H79927   4.317   2.604   0.120 -0.8406  0.1710 -2.2163
  606MOL0     H79928   4.085   2.523   0.097  0.5069  0.3738 -0.6285
  606MOL0     H79929   3.981   2.323  -0.079  0.0925 -1.2962  0.8836
  606MOL0     H79930   3.891   2.401   0.050  1.9712  0.6942 -1.5850
  606MOL0     H79931   3.772   2.165   0.079 -3.0750  2.2749  0.7665
  606MOL0     H79932   3.840   2.126  -0.074 -3.5651 -2.3521  1.9190
  606MOL0     H79933   3.740   2.299  -0.190  1.2556  0.6190  0.5789
  606MOL0     H79934   3.693   2.385  -0.050  2.8705  0.0257  0.3237
  606MOL0     H79935   3.608   2.110  -0.147 -2.3243 -2.1335  0.8204
  606MOL0     H79936   3.550   2.189   0.010  3.7894 -0.5634  0.8535
  606MOL0     H79937   3.524   2.321  -0.267 -0.9848 -1.2916  0.1105
  606MOL0     H79938   3.405   2.327  -0.125  0.8910  0.4717  0.8136
  606MOL0     H79939   3.449   2.110  -0.316 -0.9237  0.7295 -1.4657
  606MOL0     H79940   3.313   2.219  -0.317  1.1723 -0.8598 -1.7588
  606MOL0     H79941   3.385   2.014  -0.092  3.4625  2.5097 -1.3640
  606MOL0     H79942   3.255   2.132  -0.092 -2.7187 -1.7300 -1.2216
  606MOL0     H79943   3.265   1.924  -0.319  1.2426  0.8687  0.8789
  606MOL0     H79944   3.127   2.023  -0.266 -1.2542  1.3687  2.7849
  606MOL0     H79945   3.044   1.995  -0.014  2.0532  0.0201 -1.3436
  606MOL0     H79946   2.994   1.841   0.218 -1.2699  1.5027 -0.9720
  606MOL0     H79947   3.022   1.665   0.205 -1.3942  0.2218  0.8936
  606MOL0     H79948   2.827   1.657   0.044 -1.1009 -0.9843  2.0928
  606MOL0     H79949   2.804   1.832   0.061  0.0273  1.8990  1.5238
  606MOL0     H79950   2.760   1.618   0.282 -0.8199 -0.8292 -1.2709
  606MOL0     H79951   2.782   1.797   0.311 -1.3605 -1.3351  2.6925
  606MOL0     H79952   2.542   1.756   0.315 -5.1650  2.5982 -2.9578
  606MOL0     H79953   2.546   1.625   0.217  3.0388 -1.1445  1.9683
  606MOL0     H79954   2.342   1.701   0.276 -1.6698 -1.9092 -0.6730
  606MOL0     H79955   2.098   1.749   0.223 -3.0275 -1.9000 -4.7421
  606MOL0     H79956   1.817   2.143   0.108 -0.7569 -1.1265  1.1280
  606MOL0     H79957   1.585   2.211   0.058  0.5786 -1.2311  1.2139
  606MOL0     H79958   1.410   2.098  -0.314 -0.0667  2.7560  1.1773
  606MOL0     H79959   1.266   2.118  -0.224  0.7908  2.4918  0.3710
  606MOL0     H79960   1.422   1.853  -0.236  0.5812  1.2464 -1.2935
  606MOL0     H79961   1.279   1.879  -0.327  1.8363 -1.0673 -1.2035
  606MOL0     H79962   1.146   1.923  -0.115 -0.0920 -1.7200 -0.2035
  606MOL0     H79963   1.303   1.861  -0.040  2.5528 -4.1960 -1.4985
  606MOL0     H79964   1.113   1.736  -0.254 -0.5929  2.0485  1.1371
  606MOL0     H79965   1.270   1.666  -0.207  0.2596  1.5036  0.0106
  606MOL0     H79966   1.188   1.666   0.035 -1.2977  1.2669  0.6995
  606MOL0     H79967   1.103   1.553  -0.061  0.6251  0.6720  1.5230
  606MOL0     H79968   0.923   1.719  -0.100 -0.5863  1.0273  0.7648
  606MOL0     H79969   1.002   1.818   0.018 -0.8079 -0.7010  0.0068
  606MOL0     H79970   0.881   1.550   0.031 -1.7208  1.0146  1.5946
  606MOL0     H79971   0.978   1.606   0.167  2.3150 -2.9242 -2.0690
  606MOL0     H79972   0.752   1.766   0.054  1.2184  1.3257 -0.0845
  606MOL0     H79973   0.858   1.823   0.186  2.0049 -0.5174 -0.7270
  606MOL0     H79974   1.597   1.967  -0.302 -1.5367 -2.5417  1.2963
  606MOL0     H79975   1.837   1.931  -0.259 -0.6495 -0.7991 -0.2097
  606MOL0     H79976   2.209   1.982  -0.108  3.0720 -1.4846 -1.9349
  606MOL0     H79977   2.456   1.945  -0.059  0.2595  0.8828  1.2165
  606MOL0     H79978   4.217   2.130   0.204  2.4649 -0.5201 -1.4013
  606MOL0     H79979   4.430   2.210   0.251 -0.1030  0.6747 -0.9982
  606MOL0     H79980   4.719   2.782   0.046 -1.6426 -0.9847  0.6911
  606MOL0     H79981   4.932   2.868   0.094  0.2799  1.4518  0.1402
  606MOL0     H79982   5.083   2.959   0.279  0.1008 -2.3899  2.7769
  606MOL0     H79983   5.139   2.887   0.126 -2.6847 -0.0307 -0.5774
  606MOL0     H79984   5.309   2.867   0.383  0.5980 -1.1724  0.0170
  606MOL0     H79985   5.337   2.804   0.231 -1.3244 -0.6270  0.0348
  606MOL0     H79986   5.410   2.992   0.138 -1.0269  2.0342 -0.2248
  606MOL0     H79987   5.462   3.022   0.294  0.1811 -1.1116 -0.3439
  606MOL0     H79988   5.356   3.236   0.206  0.8751  1.7636  4.5244
  606MOL0     H79989   5.209   3.146   0.163 -0.5909 -0.2789  0.1094
  606MOL0     H79990   5.219   3.206   0.596 -0.5967  1.6549 -0.1601
  606MOL0     H79991   4.977   2.564   0.398 -1.0836  0.1057  0.2437
  606MOL0     H79992   4.769   2.466   0.337 -0.3776  1.6100  2.7956
  607MOL0     O79993   4.492   9.264  10.773 -0.0846  0.3444  0.2831
  607MOL0     C79994   4.528   9.231  10.663 -0.3869  0.3424  0.0733
  607MOL0     O79995   4.470   9.261  10.545  0.1081 -0.3175  0.3417
  607MOL0     C79996   4.360   9.340  10.553  0.4310  0.2482  0.1804
  607MOL0     C79997   4.233   9.292  10.568  0.5057  0.3176  0.4949
  607MOL0     C79998   4.120   9.377  10.544 -0.4966 -0.0111  0.1161
  607MOL0     C79999   4.130   9.512  10.516 -0.0916 -1.2112  0.0313
  607MOL0     O80000   4.032   9.607  10.492 -0.5881 -0.1140  0.5137
  607MOL0     C80001   3.891   9.583  10.485 -0.0772  0.2748  0.2667
  607MOL0     C80002   3.824   9.605  10.617  0.0650  0.3183 -0.2369
  607MOL0     C80003   3.684   9.630  10.603 -0.3385 -0.5303  0.9009
  607MOL0     C80004   3.625   9.661  10.742 -0.0293 -0.0633 -0.1175
  607MOL0     C80005   3.469   9.654  10.748 -0.4978 -0.6416 -0.1164
  607MOL0     C80006   3.417   9.695  10.880  0.7306 -0.7885 -0.4494
  607MOL0     C80007   3.268   9.703  10.896  0.4440  0.6673 -0.3601
  607MOL0     C80008   3.201   9.567  10.870 -0.2518  0.1061  0.5491
  607MOL0     N80009   3.058   9.578  10.886 -0.0122  0.8831  0.3236
  607MOL0     C80010   2.997   9.607  11.008 -0.0452  0.3650  0.2076
  607MOL0     C80011   2.870   9.630  10.974 -0.6114  0.9201 -0.0899
  607MOL0     C80012   2.770   9.684  11.080 -0.1097 -0.2260  0.6020
  607MOL0     C80013   2.628   9.620  11.071  0.0709 -0.1603 -0.0863
  607MOL0     C80014   2.548   9.664  11.197 -0.0323 -1.0102  1.1407
  607MOL0     C80015   2.428   9.577  11.211 -0.4338 -0.5661  0.3705
  607MOL0     O80016   2.351   9.628  11.321 -0.6260  0.4239  0.2934
  607MOL0     C80017   2.243   9.549  11.367  0.2225  0.0399 -0.5950
  607MOL0     C80018   2.149   9.489  11.281  0.6562  0.5251 -0.6151
  607MOL0     C80019   2.038   9.421  11.342  0.6770  0.2256 -0.0785
  607MOL0     C80020   2.016   9.419  11.486 -0.0820 -0.2107  0.2370
  607MOL0     C80021   1.894   9.365  11.555  0.5721 -0.8643 -0.2249
  607MOL0     O80022   1.796   9.305  11.481  0.3874  0.5253 -0.1754
  607MOL0     C80023   1.671   9.281  11.537  0.0690  0.4182  0.0812
  607MOL0     C80024   1.607   9.170  11.488  0.8634 -0.2714 -0.4125
  607MOL0     C80025   1.484   9.129  11.546  0.2506  0.2911 -0.6300
  607MOL0     C80026   1.415   9.208  11.643 -0.3654  0.0000  0.6046
  607MOL0     O80027   1.298   9.168  11.688 -0.1901  0.0623 -0.2318
  607MOL0     C80028   1.238   9.248  11.790  0.0571  0.1635 -0.1123
  607MOL0     C80029   1.127   9.162  11.853 -0.5095 -0.6628 -0.5800
  607MOL0     C80030   1.063   9.229  11.979 -1.3884 -0.3804 -0.0535
  607MOL0     C80031   0.961   9.134  12.061  0.3749 -0.2023 -0.5924
  607MOL0     C80032   0.909   9.203  12.197 -0.1379 -0.2693  0.6121
  607MOL0     C80033   0.836   9.335  12.155  0.4538  0.3547 -0.7668
  607MOL0     C80034   0.737   9.365  12.270 -0.5107  0.5242 -0.1415
  607MOL0     C80035   0.796   9.429  12.401  0.2927  0.1883  0.1185
  607MOL0    Cl80036   0.862   9.590  12.375  0.2363  0.1323 -0.3471
  607MOL0     C80037   1.477   9.329  11.676 -0.9786 -0.4039  0.0557
  607MOL0     C80038   1.597   9.371  11.621 -0.3786  0.6121  0.6857
  607MOL0     O80039   1.890   9.386  11.677  0.2704 -0.5591  0.3016
  607MOL0     C80040   2.124   9.463  11.561 -1.0012  1.3256  0.3961
  607MOL0     C80041   2.229   9.528  11.505  0.4644 -1.8170 -0.7103
  607MOL0     N80042   2.849   9.619  10.838  0.4181 -0.1361 -0.0350
  607MOL0     N80043   2.964   9.591  10.786 -0.5944  0.1334 -0.6606
  607MOL0     C80044   4.261   9.566  10.514 -0.2362  0.2011  0.7665
  607MOL0     C80045   4.377   9.480  10.517  0.2320 -0.1473 -0.1965
  607MOL0     C80046   4.651   9.153  10.648  0.8264 -0.1915  0.5849
  607MOL0     C80047   4.701   9.085  10.531 -0.6036 -1.0188  0.0257
  607MOL0     C80048   4.826   9.018  10.529  0.8257 -0.1227  1.0366
  607MOL0     C80049   4.899   9.002  10.646  0.1450  0.3362 -0.9454
  607MOL0     O80050   5.021   8.941  10.634  0.7264  0.5481  0.5214
  607MOL0     C80051   5.121   8.947  10.744  0.0835  0.3883 -0.3165
  607MOL0     C80052   5.259   8.954  10.683 -0.0179 -0.1547  0.5112
  607MOL0     C80053   5.358   8.983  10.787 -0.5146 -0.6486  0.1830
  607MOL0     C80054   5.492   9.014  10.713  0.4693 -0.1112  0.5614
  607MOL0     C80055   5.605   9.025  10.799  0.9772 -0.6629 -0.7161
  607MOL0     C80056   5.711   9.044  10.861  0.2772  0.1886  0.1522
  607MOL0     C80057   4.845   9.059  10.763 -0.1835 -0.1708  0.1563
  607MOL0     C80058   4.735   9.141  10.766  0.1415 -0.0377 -0.4152
  607MOL0     H80059   4.209   9.190  10.594  1.1848  0.3743  1.4070
  607MOL0     H80060   4.024   9.328  10.534 -0.7164  0.0675  1.5572
  607MOL0     H80061   3.865   9.483  10.448 -0.8662  0.0608  1.3398
  607MOL0     H80062   3.862   9.663  10.416  0.3084  0.0197 -0.1899
  607MOL0     H80063   3.867   9.689  10.672  0.3891 -1.7993  3.0104
  607MOL0     H80064   3.843   9.526  10.690 -1.9277  0.5336  0.5852
  607MOL0     H80065   3.636   9.550  10.545  2.2378 -0.2530 -1.8525
  607MOL0     H80066   3.668   9.715  10.537  0.5540 -0.3020  0.9624
  607MOL0     H80067   3.661   9.601  10.826 -0.7353  0.1885  0.3758
  607MOL0     H80068   3.654   9.762  10.774 -1.1376  0.2464 -0.0506
  607MOL0     H80069   3.433   9.556  10.718 -0.4861 -0.6859  0.0130
  607MOL0     H80070   3.443   9.723  10.667  0.5215 -0.9037 -0.6793
  607MOL0     H80071   3.449   9.796  10.907  0.2664 -0.5805 -0.6538
  607MOL0     H80072   3.463   9.629  10.954  3.6570  0.4953 -0.9870
  607MOL0     H80073   3.237   9.753  10.988 -0.6484 -1.8724  0.7339
  607MOL0     H80074   3.244   9.772  10.814 -0.6210  0.3030 -0.3769
  607MOL0     H80075   3.237   9.500  10.949  1.5174 -2.0864 -1.9553
  607MOL0     H80076   3.224   9.534  10.769 -2.3080  2.1290 -0.6839
  607MOL0     H80077   3.036   9.615  11.108 -2.6317  2.9309  1.1560
  607MOL0     H80078   2.777   9.792  11.071  3.8181 -0.0252  3.6574
  607MOL0     H80079   2.803   9.662  11.181  0.9689  0.5150  0.4248
  607MOL0     H80080   2.635   9.511  11.062 -1.6196 -0.6299  2.9784
  607MOL0     H80081   2.580   9.647  10.977  0.7216  0.0123 -0.3724
  607MOL0     H80082   2.607   9.658  11.289 -1.4361 -1.9210  2.0068
  607MOL0     H80083   2.527   9.771  11.186  2.3263 -0.6080 -0.1755
  607MOL0     H80084   2.461   9.474  11.230 -0.7899 -0.9782 -1.1439
  607MOL0     H80085   2.364   9.566  11.123 -0.8160 -0.8970  0.6776
  607MOL0     H80086   2.160   9.499  11.173  0.3362 -0.5252 -0.7522
  607MOL0     H80087   1.958   9.373  11.287 -0.4320  0.7476  1.0193
  607MOL0     H80088   1.636   9.106  11.405 -1.9797  1.5051 -2.9856
  607MOL0     H80089   1.442   9.041  11.498  1.4390 -0.4971 -0.2535
  607MOL0     H80090   1.192   9.341  11.757  1.5344  0.8114 -0.3783
  607MOL0     H80091   1.302   9.272  11.875  0.0351 -1.0310  0.2555
  607MOL0     H80092   1.153   9.063  11.893 -1.6953 -0.3911  0.9855
  607MOL0     H80093   1.049   9.158  11.776  0.0447 -0.5384 -1.1517
  607MOL0     H80094   1.011   9.320  11.948 -1.8013 -1.1047 -1.5666
  607MOL0     H80095   1.153   9.253  12.037 -0.6285 -2.1167 -0.4390
  607MOL0     H80096   0.876   9.113  11.995 -0.4493  1.3741 -0.0635
  607MOL0     H80097   1.011   9.040  12.087  1.5718  0.6502  0.2906
  607MOL0     H80098   0.978   9.228  12.278  0.0242 -1.1620  0.7667
  607MOL0     H80099   0.841   9.130  12.244  1.2783 -1.2444  1.2175
  607MOL0     H80100   0.793   9.321  12.056  2.2178  1.9351 -1.8150
  607MOL0     H80101   0.908   9.416  12.143  1.6325  0.1329  3.2912
  607MOL0     H80102   0.654   9.431  12.243 -0.4365  1.3900  1.6322
  607MOL0     H80103   0.685   9.272  12.291 -0.8219  0.6611 -0.2973
  607MOL0     H80104   0.863   9.364  12.457  0.9436 -0.2596 -1.1510
  607MOL0     H80105   0.708   9.439  12.466 -0.6054  2.5076 -1.3162
  607MOL0     H80106   1.426   9.406  11.733 -0.1749 -0.6071  1.0907
  607MOL0     H80107   1.637   9.470  11.640 -0.1163  0.3126  1.7386
  607MOL0     H80108   2.127   9.456  11.670  1.6537 -1.7098  0.2835
  607MOL0     H80109   2.302   9.565  11.576  0.2001 -3.6140  0.5534
  607MOL0     H80110   4.271   9.674  10.504  0.0390  0.2602  1.6403
  607MOL0     H80111   4.479   9.516  10.505  0.1908 -0.3009 -1.0936
  607MOL0     H80112   4.641   9.093  10.441  0.3169  0.3890 -0.5088
  607MOL0     H80113   4.874   8.966  10.447 -0.0389 -0.5431  0.7840
  607MOL0     H80114   5.108   8.858  10.806  1.3690  0.0747 -0.4719
  607MOL0     H80115   5.105   9.035  10.807 -0.8234  0.6078 -0.8370
  607MOL0     H80116   5.281   8.859  10.634  0.2616  0.8094 -1.2996
  607MOL0     H80117   5.261   9.019  10.595  2.1938 -1.8890 -0.8421
  607MOL0     H80118   5.368   8.893  10.848  0.5805 -1.9682 -1.8199
  607MOL0     H80119   5.326   9.067  10.849 -1.7805 -1.2727  0.4108
  607MOL0     H80120   5.503   8.928  10.645 -1.6780 -0.4285  0.5218
  607MOL0     H80121   5.477   9.099  10.645 -0.9178 -3.1585 -3.3830
  607MOL0     H80122   5.801   9.056  10.918 -0.7934 -0.5623  2.1002
  607MOL0     H80123   4.892   9.034  10.857 -2.7915 -1.3920  1.2484
  607MOL0     H80124   4.700   9.181  10.861 -1.7918  1.7326 -1.7758
  608MOL0     O80125   1.688   1.800   6.104  0.1499  0.4424 -0.5195
  608MOL0     C80126   1.583   1.786   6.038 -0.1521 -0.1700  0.3698
  608MOL0     O80127   1.455   1.785   6.090 -0.1931 -0.0681 -0.4731
  608MOL0     C80128   1.455   1.778   6.227 -0.2496  0.2710 -0.4489
  608MOL0     C80129   1.378   1.867   6.304  1.3200 -0.9073 -0.3786
  608MOL0     C80130   1.389   1.885   6.449  0.7225 -0.3318  0.7818
  608MOL0     C80131   1.481   1.805   6.521  0.4716  0.7923  0.4865
  608MOL0     O80132   1.515   1.831   6.650 -0.2681  0.6661 -0.5138
  608MOL0     C80133   1.577   1.721   6.722 -0.0079 -0.0972  0.5819
  608MOL0     C80134   1.588   1.754   6.872 -0.4622 -0.5128 -0.3186
  608MOL0     C80135   1.638   1.626   6.952 -0.4639  0.8128  0.2938
  608MOL0     C80136   1.689   1.641   7.099 -0.2738  0.0300 -0.5234
  608MOL0     C80137   1.687   1.514   7.181 -0.7131  0.3673  0.9204
  608MOL0     C80138   1.714   1.543   7.323 -0.2492  0.7602  0.2449
  608MOL0     C80139   1.640   1.440   7.418 -0.5438  0.3129  0.3927
  608MOL0     C80140   1.703   1.446   7.558  0.2489 -0.1437 -0.8310
  608MOL0     N80141   1.697   1.582   7.624 -0.1924  0.1026  0.5199
  608MOL0     C80142   1.576   1.644   7.651  1.0194 -0.0384  0.2217
  608MOL0     C80143   1.619   1.764   7.691  0.3195 -0.4040 -0.6644
  608MOL0     C80144   1.522   1.879   7.707 -0.3035 -0.2621 -0.4763
  608MOL0     C80145   1.527   1.985   7.595  0.0283  1.1575  0.2483
  608MOL0     C80146   1.493   2.129   7.646 -0.9465  0.3916  0.6247
  608MOL0     C80147   1.351   2.155   7.681  0.4199  0.0538  0.4005
  608MOL0     O80148   1.269   2.138   7.560  0.1438  0.6756 -0.6002
  608MOL0     C80149   1.137   2.151   7.568  0.1923  0.3307  0.1359
  608MOL0     C80150   1.067   2.193   7.678  0.0812 -0.3667 -1.0264
  608MOL0     C80151   0.934   2.225   7.679  0.4712  0.9633  1.6574
  608MOL0     C80152   0.850   2.200   7.557  0.1267 -0.2705 -0.2215
  608MOL0     C80153   0.706   2.252   7.559 -0.2782 -0.3604  0.2775
  608MOL0     O80154   0.656   2.286   7.682 -0.6668  0.4453  0.6438
  608MOL0     C80155   0.524   2.316   7.695 -0.0654 -0.5913  0.5701
  608MOL0     C80156   0.456   2.269   7.811  0.1204 -1.1054 -0.9439
  608MOL0     C80157   0.322   2.296   7.834  0.2744 -0.1448  0.5039
  608MOL0     C80158   0.248   2.370   7.734 -1.1217 -0.4805 -0.0454
  608MOL0     O80159   0.115   2.406   7.750 -0.3334  0.0345 -0.0520
  608MOL0     C80160   0.039   2.333   7.854 -1.0440  0.8161 -0.0462
  608MOL0     C80161  -0.103   2.352   7.847  0.1499 -0.1980 -0.3442
  608MOL0     C80162  -0.155   2.300   7.705 -0.5002 -0.5162  0.0095
  608MOL0     C80163  -0.305   2.281   7.711 -0.5569 -0.5916 -0.3624
  608MOL0     C80164  -0.357   2.177   7.610  0.7187 -0.3127 -0.1398
  608MOL0     C80165  -0.511   2.138   7.659  0.3678 -0.1415  0.6432
  608MOL0     C80166  -0.592   2.059   7.560 -0.6156  0.1590 -0.2849
  608MOL0     C80167  -0.730   2.126   7.552 -0.3317  0.0736 -0.0197
  608MOL0    Cl80168  -0.849   2.035   7.443  0.0194 -0.1187  0.2417
  608MOL0     C80169   0.314   2.422   7.623  0.0639  0.1631 -0.5103
  608MOL0     C80170   0.452   2.393   7.600  0.5626 -1.0672  0.4230
  608MOL0     O80171   0.643   2.243   7.456  0.0644  0.2012  0.5449
  608MOL0     C80172   0.924   2.149   7.444  0.4389 -0.6284 -0.0114
  608MOL0     C80173   1.064   2.128   7.449  0.1917 -0.0772  0.2141
  608MOL0     N80174   1.757   1.780   7.684  0.6612 -0.1781  1.0408
  608MOL0     N80175   1.802   1.664   7.654 -0.8031 -0.0305 -0.2752
  608MOL0     C80176   1.557   1.712   6.446 -0.3559 -0.8255 -1.1670
  608MOL0     C80177   1.541   1.703   6.309 -0.0737  0.5990  0.2010
  608MOL0     C80178   1.597   1.810   5.890  0.4203 -0.8312  0.8051
  608MOL0     C80179   1.719   1.862   5.843  0.5150  0.2052  0.1113
  608MOL0     C80180   1.738   1.886   5.709  0.1555 -0.0390 -0.2184
  608MOL0     C80181   1.627   1.866   5.621  0.0406 -0.7664 -0.0303
  608MOL0     O80182   1.655   1.891   5.490  0.5771 -0.6041  0.4972
  608MOL0     C80183   1.550   1.882   5.398  0.5710  1.5900  0.0521
  608MOL0     C80184   1.584   1.952   5.264  0.2542  0.2142  0.4463
  608MOL0     C80185   1.613   2.101   5.275  0.2673 -0.4335  0.5429
  608MOL0     C80186   1.649   2.144   5.134  0.7328 -0.4150  0.0513
  608MOL0     C80187   1.699   2.283   5.144  0.5143  0.7968 -0.2377
  608MOL0     C80188   1.740   2.398   5.152  0.8891  0.4996 -0.8110
  608MOL0     C80189   1.498   1.822   5.675 -1.6453  0.2719  0.1602
  608MOL0     C80190   1.491   1.790   5.808 -0.1495  0.0023 -0.5655
  608MOL0     H80191   1.300   1.933   6.269  0.6180 -1.2895  0.4464
  608MOL0     H80192   1.326   1.955   6.501  1.7004 -1.1328  3.1507
  608MOL0     H80193   1.678   1.691   6.692  0.9065  2.6830  0.6333
  608MOL0     H80194   1.510   1.635   6.712 -1.3707  0.8416  1.3358
  608MOL0     H80195   1.486   1.784   6.896 -0.8779 -1.5751 -0.7046
  608MOL0     H80196   1.647   1.845   6.885  0.4076 -1.0039 -0.7161
  608MOL0     H80197   1.731   1.593   6.905 -0.5258  0.0188  0.6997
  608MOL0     H80198   1.565   1.544   6.947  1.7965 -1.8074  4.3019
  608MOL0     H80199   1.793   1.676   7.099  0.6516 -2.3603  2.4870
  608MOL0     H80200   1.625   1.712   7.152 -0.2177 -0.6065  0.4045
  608MOL0     H80201   1.773   1.454   7.147  0.3846  1.7673  1.1250
  608MOL0     H80202   1.599   1.450   7.174  1.4233 -2.8785  1.6271
  608MOL0     H80203   1.691   1.644   7.358  0.5656 -0.0130  3.3519
  608MOL0     H80204   1.821   1.523   7.335  0.1828  0.6042 -2.9616
  608MOL0     H80205   1.531   1.456   7.416 -0.2059  3.1298  0.3126
  608MOL0     H80206   1.664   1.337   7.388  0.0632  0.4803  0.2997
  608MOL0     H80207   1.809   1.423   7.545  0.9688  2.3558 -0.0552
  608MOL0     H80208   1.659   1.375   7.628  0.0587  0.7675 -0.0061
  608MOL0     H80209   1.478   1.600   7.633  1.2391  0.6220 -3.1615
  608MOL0     H80210   1.525   1.929   7.805 -1.7282 -0.6660 -0.1891
  608MOL0     H80211   1.418   1.845   7.703 -0.2707 -0.2618 -2.1330
  608MOL0     H80212   1.459   1.952   7.517 -0.6465  2.4483  0.2768
  608MOL0     H80213   1.629   1.994   7.556  1.1263 -1.4332  2.1782
  608MOL0     H80214   1.552   2.146   7.736 -1.2662 -2.4192  1.4691
  608MOL0     H80215   1.504   2.202   7.565 -0.9094 -0.1582  0.1256
  608MOL0     H80216   1.333   2.248   7.734 -0.0919 -1.5824  3.3338
  608MOL0     H80217   1.314   2.085   7.757 -0.8483  2.4440  2.0923
  608MOL0     H80218   1.120   2.204   7.772 -1.4684 -3.0402  0.2950
  608MOL0     H80219   0.885   2.252   7.772 -0.1909  0.2110  1.5339
  608MOL0     H80220   0.519   2.216   7.882  2.1062  1.2562 -0.8128
  608MOL0     H80221   0.263   2.282   7.924 -1.6704 -0.4052 -0.7697
  608MOL0     H80222   0.067   2.368   7.954 -1.8732 -0.8671  0.8185
  608MOL0     H80223   0.061   2.226   7.853 -2.1318  0.5573 -1.9152
  608MOL0     H80224  -0.129   2.457   7.866  0.6375 -0.1145 -0.1429
  608MOL0     H80225  -0.153   2.291   7.923 -1.1884  1.4681  0.1790
  608MOL0     H80226  -0.110   2.204   7.680  0.7054 -0.3152  1.2709
  608MOL0     H80227  -0.134   2.381   7.635 -0.4596 -0.5614 -0.0299
  608MOL0     H80228  -0.323   2.241   7.811  2.6284  0.9990  1.0138
  608MOL0     H80229  -0.354   2.379   7.708  1.6157  0.5927  0.2307
  608MOL0     H80230  -0.284   2.096   7.609  1.1421  0.0384 -2.0702
  608MOL0     H80231  -0.372   2.225   7.513 -0.8090  2.3766  1.3006
  608MOL0     H80232  -0.552   2.239   7.673 -0.5671 -0.4359  0.1764
  608MOL0     H80233  -0.499   2.095   7.759  2.5356  2.1632  1.4611
  608MOL0     H80234  -0.550   2.062   7.459 -0.7698 -0.3204 -0.3618
  608MOL0     H80235  -0.595   1.954   7.589 -0.9355 -0.0199 -0.9495
  608MOL0     H80236  -0.716   2.228   7.514 -1.8059 -0.7626 -3.1462
  608MOL0     H80237  -0.784   2.129   7.647  0.1315  1.1856  0.2215
  608MOL0     H80238   0.269   2.493   7.554 -0.6437 -1.7026 -2.0689
  608MOL0     H80239   0.503   2.434   7.514 -0.6489  1.5669  0.8580
  608MOL0     H80240   0.864   2.137   7.355 -2.4478  0.4037  1.6437
  608MOL0     H80241   1.116   2.089   7.361 -0.8629 -0.8600 -0.0786
  608MOL0     H80242   1.627   1.647   6.497  0.1438  0.6265  0.0555
  608MOL0     H80243   1.614   1.637   6.264  2.4234  2.4546  1.2256
  608MOL0     H80244   1.802   1.884   5.909  0.3568 -0.5172  0.5602
  608MOL0     H80245   1.823   1.932   5.660  0.2423 -1.4203 -1.4494
  608MOL0     H80246   1.454   1.924   5.430 -0.0996  0.0212  0.2110
  608MOL0     H80247   1.519   1.779   5.378  1.7673  1.1260  0.4935
  608MOL0     H80248   1.657   1.891   5.210 -3.2934 -3.2335 -0.9363
  608MOL0     H80249   1.498   1.942   5.197 -0.2259  2.3933  0.6613
  608MOL0     H80250   1.693   2.121   5.347  0.2402  0.0640  0.4385
  608MOL0     H80251   1.522   2.153   5.308  0.6546  2.5270 -2.5531
  608MOL0     H80252   1.726   2.076   5.096  0.0491 -3.0639  2.9713
  608MOL0     H80253   1.558   2.130   5.075  1.4091  0.8463 -1.3244
  608MOL0     H80254   1.781   2.497   5.157 -0.1471  0.9274 -0.3550
  608MOL0     H80255   1.420   1.797   5.604 -2.6588 -0.9311  1.6473
  608MOL0     H80256   1.403   1.740   5.846  2.8120 -4.3875  1.2353
  609MOL0     O80257  10.913   9.285   9.481 -0.0754 -0.1096 -0.5597
  609MOL0     C80258  10.908   9.413   9.486 -0.0532  0.2344 -0.1990
  609MOL0     O80259  10.795   9.481   9.506  0.7811 -1.1579 -0.8393
  609MOL0     C80260  10.670   9.435   9.541  0.6550 -0.1048  0.3502
  609MOL0     C80261  10.640   9.303   9.570 -0.0486 -0.2554 -0.4438
  609MOL0     C80262  10.512   9.269   9.620 -0.0629 -0.0173  0.4091
  609MOL0     C80263  10.417   9.367   9.643 -0.3515 -0.3226 -0.0642
  609MOL0     O80264  10.302   9.345   9.708 -0.2068  0.1597  0.6099
  609MOL0     C80265  10.201   9.268   9.643  0.0607  0.2604  0.7175
  609MOL0     C80266  10.084   9.239   9.741 -0.0949  0.3841  0.9245
  609MOL0     C80267   9.958   9.208   9.650 -0.0146  1.7691  0.2169
  609MOL0     C80268   9.822   9.187   9.718 -0.0078 -0.6889 -0.3339
  609MOL0     C80269   9.717   9.156   9.609 -0.0832  0.3326 -0.4414
  609MOL0     C80270   9.575   9.167   9.648 -0.0471  0.0582  0.1085
  609MOL0     C80271   9.490   9.098   9.537  0.2996  0.4034 -0.0561
  609MOL0     C80272   9.344   9.111   9.586 -0.5538  0.3723  0.6080
  609MOL0     N80273   9.263   9.065   9.477 -0.1023 -0.1083 -0.6229
  609MOL0     C80274   9.249   9.110   9.350 -0.5157 -0.3477  0.2844
  609MOL0     C80275   9.182   9.012   9.292  0.3184  0.1598 -0.5268
  609MOL0     C80276   9.150   9.010   9.145  0.2986 -0.5626 -0.1043
  609MOL0     C80277   9.272   9.015   9.056 -0.7609 -0.1468 -0.0790
  609MOL0     C80278   9.241   9.047   8.903  0.1542 -1.0074  0.3307
  609MOL0     C80279   9.370   9.056   8.837  0.2361 -0.0781 -0.4475
  609MOL0     O80280   9.424   8.923   8.839 -0.1826  0.1013  0.2600
  609MOL0     C80281   9.542   8.901   8.774 -0.1486 -0.8018  0.3820
  609MOL0     C80282   9.598   8.997   8.692  0.2375 -0.3376  0.3284
  609MOL0     C80283   9.714   8.971   8.614  0.4803  0.0653  0.2519
  609MOL0     C80284   9.786   8.854   8.631  0.5717 -0.3846 -0.0414
  609MOL0     C80285   9.918   8.840   8.567 -0.0818  0.2020  0.4472
  609MOL0     O80286   9.919   8.879   8.437 -0.0733  0.2206  0.2224
  609MOL0     C80287  10.030   8.832   8.368  0.4723 -0.2548 -0.3860
  609MOL0     C80288  10.030   8.704   8.318  0.0052 -0.4303 -0.4504
  609MOL0     C80289  10.147   8.648   8.270 -1.1261  0.5847 -0.0992
  609MOL0     C80290  10.266   8.722   8.279 -0.2198  0.1983 -0.2745
  609MOL0     O80291  10.379   8.668   8.225  1.0768  0.0989  0.3707
  609MOL0     C80292  10.435   8.742   8.116 -0.3124  0.1030  0.4231
  609MOL0     C80293  10.584   8.763   8.132  0.1068  0.3999 -0.1316
  609MOL0     C80294  10.664   8.634   8.115  0.2497  0.2308 -0.1735
  609MOL0     C80295  10.821   8.628   8.136 -0.3429 -0.0386 -0.0160
  609MOL0     C80296  10.856   8.667   8.279  0.5943  0.4188  0.6648
  609MOL0     C80297  11.000   8.619   8.297 -0.2094  0.4724  1.2779
  609MOL0     C80298  11.052   8.683   8.416  0.4401 -0.4607  0.1498
  609MOL0     C80299  11.202   8.694   8.416 -0.5825  1.0848  0.0681
  609MOL0    Cl80300  11.257   8.856   8.378 -0.0134 -0.0938 -0.0234
  609MOL0     C80301  10.268   8.852   8.334 -0.3233  0.4273 -0.2717
  609MOL0     C80302  10.141   8.910   8.380 -0.1311  0.0728 -0.5741
  609MOL0     O80303  10.004   8.780   8.629 -0.3799  0.6071  0.3398
  609MOL0     C80304   9.731   8.763   8.723 -0.1902  0.3981 -0.4659
  609MOL0     C80305   9.612   8.784   8.791 -0.0492 -0.5518  0.7950
  609MOL0     N80306   9.155   8.908   9.377  0.2478  0.6141 -0.6613
  609MOL0     N80307   9.208   8.942   9.488  0.6123  0.5367  0.0065
  609MOL0     C80308  10.450   9.504   9.610  0.5538 -0.6525 -0.2028
  609MOL0     C80309  10.576   9.533   9.562 -0.0449 -0.7198 -0.2945
  609MOL0     C80310  11.025   9.488   9.437 -0.2018 -0.3928  0.1882
  609MOL0     C80311  11.150   9.428   9.405  0.0621  0.3682  0.0852
  609MOL0     C80312  11.253   9.514   9.358 -0.3152 -0.1610  0.2497
  609MOL0     C80313  11.234   9.648   9.338  0.3384  0.2537 -0.1315
  609MOL0     O80314  11.332   9.734   9.300  0.2591  0.2024  0.0216
  609MOL0     C80315  11.472   9.688   9.291  0.7129  0.0931  0.3053
  609MOL0     C80316  11.558   9.824   9.271 -0.1311 -0.0532  0.7412
  609MOL0     C80317  11.713   9.794   9.256  0.7062  0.2538 -0.2665
  609MOL0     C80318  11.803   9.923   9.273  0.4041  0.3224 -0.0906
  609MOL0     C80319  11.772  10.034   9.181  0.0551 -0.0730 -0.4611
  609MOL0     C80320  11.757  10.122   9.106  0.2529 -0.5306 -0.2881
  609MOL0     C80321  11.108   9.699   9.365 -1.0422 -0.0453  0.0177
  609MOL0     C80322  11.007   9.624   9.413 -0.5473  0.5015 -0.8111
  609MOL0     H80323  10.714   9.223   9.575 -1.9620 -2.1722 -0.9862
  609MOL0     H80324  10.483   9.166   9.638  0.2165 -0.7120 -2.6984
  609MOL0     H80325  10.249   9.178   9.604  0.6693 -0.3584  2.7437
  609MOL0     H80326  10.165   9.324   9.557  1.8276 -0.9529 -0.8991
  609MOL0     H80327  10.065   9.327   9.803 -0.2999  2.3229 -1.7370
  609MOL0     H80328  10.108   9.148   9.796 -2.6147 -1.3958 -0.6936
  609MOL0     H80329   9.978   9.116   9.594 -1.5987  0.8876  1.0105
  609MOL0     H80330   9.951   9.278   9.567  1.5321  1.0461 -0.5641
  609MOL0     H80331   9.830   9.104   9.788 -1.0508 -0.6280 -0.1168
  609MOL0     H80332   9.801   9.280   9.770  0.7532 -0.5305 -0.3022
  609MOL0     H80333   9.743   9.055   9.575 -1.2201  0.4382 -1.6951
  609MOL0     H80334   9.729   9.227   9.527  0.5217 -2.0793 -2.5765
  609MOL0     H80335   9.546   9.271   9.664 -0.3834 -0.3137  2.2302
  609MOL0     H80336   9.577   9.118   9.746  1.3126  0.3316  0.2381
  609MOL0     H80337   9.492   9.156   9.444 -3.9709  0.3500 -0.3854
  609MOL0     H80338   9.537   9.000   9.523  1.3125  0.5200  2.1008
  609MOL0     H80339   9.321   9.217   9.604 -1.0817  0.7380 -1.9349
  609MOL0     H80340   9.333   9.054   9.679  0.4279  0.0632  0.5475
  609MOL0     H80341   9.302   9.195   9.309  0.0959 -1.1219 -0.5618
  609MOL0     H80342   9.088   9.097   9.121  1.2702  0.2655  0.3261
  609MOL0     H80343   9.084   8.927   9.117 -0.5509  0.2165 -0.4906
  609MOL0     H80344   9.315   8.915   9.058 -2.5880 -1.0040 -1.1125
  609MOL0     H80345   9.338   9.096   9.087 -0.5052 -0.0791 -0.7897
  609MOL0     H80346   9.189   8.975   8.839 -0.3193  0.4269 -0.9459
  609MOL0     H80347   9.199   9.148   8.904  0.9148 -0.6658 -0.4541
  609MOL0     H80348   9.445   9.123   8.881 -0.2854  1.5017 -1.8721
  609MOL0     H80349   9.345   9.099   8.740 -0.9585  0.8623  0.2528
  609MOL0     H80350   9.563   9.099   8.681  0.2812 -0.3487  0.0741
  609MOL0     H80351   9.759   9.044   8.549  1.9185  0.3473  1.4991
  609MOL0     H80352   9.940   8.644   8.309  0.4610 -1.1708 -0.1378
  609MOL0     H80353  10.153   8.549   8.225  1.0022 -0.1690  1.6483
  609MOL0     H80354  10.393   8.843   8.113  0.7917  0.6506  1.8908
  609MOL0     H80355  10.410   8.683   8.027 -0.3235 -1.8554  1.6534
  609MOL0     H80356  10.601   8.807   8.231 -1.7517 -1.2963  1.0379
  609MOL0     H80357  10.628   8.835   8.063  1.9859  0.4392  1.0303
  609MOL0     H80358  10.638   8.601   8.014 -0.8002  0.4886 -0.0066
  609MOL0     H80359  10.612   8.560   8.178 -1.0182 -0.9431 -2.4604
  609MOL0     H80360  10.860   8.528   8.113 -0.2634 -0.4290  1.7260
  609MOL0     H80361  10.856   8.703   8.064  0.3793 -0.8245 -0.5115
  609MOL0     H80362  10.795   8.621   8.357  1.8302 -0.6210  1.0468
  609MOL0     H80363  10.842   8.775   8.290 -1.3362  0.0859  2.3071
  609MOL0     H80364  11.066   8.637   8.212  0.8539 -2.2477  1.4326
  609MOL0     H80365  10.990   8.510   8.307 -2.9336  0.3655 -1.1687
  609MOL0     H80366  11.004   8.781   8.425  0.6153 -0.4016  0.4795
  609MOL0     H80367  11.026   8.627   8.506 -0.4789  1.2014  0.9614
  609MOL0     H80368  11.251   8.628   8.345 -1.9736  1.1025 -0.9439
  609MOL0     H80369  11.235   8.658   8.514 -1.1856  0.1626 -0.0520
  609MOL0     H80370  10.353   8.919   8.343 -0.7231  0.7611  1.3599
  609MOL0     H80371  10.131   9.005   8.431 -0.9457  0.3845 -1.2966
  609MOL0     H80372   9.787   8.678   8.761 -2.1625 -0.5064  0.5802
  609MOL0     H80373   9.579   8.706   8.859 -2.2475 -0.9233 -0.6214
  609MOL0     H80374  10.373   9.581   9.611  1.4790  0.2998  0.1743
  609MOL0     H80375  10.605   9.627   9.518 -2.0838 -0.2273 -0.7085
  609MOL0     H80376  11.162   9.322   9.424  1.2002 -0.1196 -2.7863
  609MOL0     H80377  11.353   9.473   9.350  0.5985  1.9632  0.0656
  609MOL0     H80378  11.492   9.615   9.212  2.7292  2.6285 -1.7276
  609MOL0     H80379  11.509   9.650   9.387 -1.1521  1.4447  1.6286
  609MOL0     H80380  11.531   9.873   9.177  3.1545  1.1504  0.2672
  609MOL0     H80381  11.541   9.885   9.359  0.9640  0.0225  0.9119
  609MOL0     H80382  11.726   9.748   9.157 -1.3958 -1.5819  0.2206
  609MOL0     H80383  11.743   9.722   9.333 -0.4156  0.8893  0.7929
  609MOL0     H80384  11.775   9.959   9.372 -1.9683  1.6866 -1.1660
  609MOL0     H80385  11.908   9.892   9.266 -0.2928 -2.0107 -1.2008
  609MOL0     H80386  11.747  10.193   9.026 -2.9652 -3.1798 -2.4920
  609MOL0     H80387  11.096   9.804   9.336  1.0686 -0.2465 -1.8685
  609MOL0     H80388  10.914   9.676   9.434 -1.0783 -0.3871 -0.9190
  610MOL0     O80389   4.187   0.585   6.058 -0.1815  0.4621  0.5638
  610MOL0     C80390   4.176   0.500   5.973 -0.0179  1.0356  0.0864
  610MOL0     O80391   4.270   0.412   5.924 -0.6778  0.0365  0.2464
  610MOL0     C80392   4.387   0.392   5.979 -0.0319 -0.3423  0.3225
  610MOL0     C80393   4.418   0.285   6.060  0.0394  0.6563  0.0573
  610MOL0     C80394   4.538   0.264   6.119  0.3777  0.2094  0.4379
  610MOL0     C80395   4.649   0.354   6.098 -0.6509  0.6294  0.6958
  610MOL0     O80396   4.774   0.343   6.154  0.4170 -0.3169 -0.3427
  610MOL0     C80397   4.778   0.262   6.270  0.1036 -0.1898 -0.0141
  610MOL0     C80398   4.915   0.275   6.339 -0.3024  0.1813 -0.1538
  610MOL0     C80399   5.024   0.190   6.277  0.2742  0.2879 -0.6165
  610MOL0     C80400   5.139   0.153   6.373  0.2787  0.3034 -0.0480
  610MOL0     C80401   5.258   0.085   6.292 -1.0581 -0.6178  0.8436
  610MOL0     C80402   5.397   0.082   6.370 -0.0723 -0.2063  0.0158
  610MOL0     C80403   5.502   0.030   6.274  0.3317  0.0969  0.9772
  610MOL0     C80404   5.530  -0.119   6.276 -0.6030 -0.0551  0.0901
  610MOL0     N80405   5.425  -0.202   6.220 -0.0601 -0.1388 -0.8198
  610MOL0     C80406   5.368  -0.176   6.098 -0.2947  0.4289 -0.1383
  610MOL0     C80407   5.250  -0.250   6.101 -0.4579 -0.1028  0.1880
  610MOL0     C80408   5.144  -0.252   5.985 -0.5566 -1.2080 -0.1225
  610MOL0     C80409   5.030  -0.357   6.006 -0.1284 -0.8425 -1.0133
  610MOL0     C80410   4.912  -0.307   6.099  0.2029 -0.8013  0.1175
  610MOL0     C80411   4.814  -0.206   6.025 -0.2601  1.0935 -0.0742
  610MOL0     O80412   4.707  -0.154   6.110 -1.1463 -0.3324  0.7552
  610MOL0     C80413   4.588  -0.111   6.055  0.3947 -0.1360  1.0317
  610MOL0     C80414   4.567  -0.067   5.926  0.3791 -0.3977 -0.5587
  610MOL0     C80415   4.438  -0.029   5.882 -0.2331 -0.1949 -0.5117
  610MOL0     C80416   4.325  -0.053   5.965  0.1761 -0.8643 -0.0388
  610MOL0     C80417   4.181  -0.041   5.918 -0.2112  0.2524  0.0762
  610MOL0     O80418   4.077  -0.094   5.992  0.8368 -0.2707  0.2088
  610MOL0     C80419   3.956  -0.105   5.928 -0.4191 -0.0816  0.0704
  610MOL0     C80420   3.895  -0.232   5.921  0.1288 -0.4862 -0.2013
  610MOL0     C80421   3.778  -0.254   5.855 -0.0359 -0.2668 -0.3379
  610MOL0     C80422   3.702  -0.142   5.806  0.3557  0.0413 -0.0695
  610MOL0     O80423   3.580  -0.162   5.753  0.4650  0.0635 -0.1628
  610MOL0     C80424   3.584  -0.259   5.644 -0.2415 -0.4444 -0.4178
  610MOL0     C80425   3.454  -0.237   5.552  0.5215  0.0515 -0.1134
  610MOL0     C80426   3.449  -0.098   5.481 -0.1445  0.1574  0.4579
  610MOL0     C80427   3.563  -0.075   5.384 -0.1975 -0.7855  0.3593
  610MOL0     C80428   3.593   0.073   5.347 -0.4427  0.3327  0.3777
  610MOL0     C80429   3.464   0.129   5.298 -0.7226  0.1677  0.1357
  610MOL0     C80430   3.487   0.262   5.222  0.1177 -0.7848 -0.5819
  610MOL0     C80431   3.370   0.317   5.132  0.2324  0.6389 -0.5454
  610MOL0    Cl80432   3.287   0.175   5.058  0.3049 -0.1026  0.2175
  610MOL0     C80433   3.757  -0.012   5.821 -0.3666  0.5006  0.3099
  610MOL0     C80434   3.887   0.007   5.877  0.6941 -0.1184 -1.1466
  610MOL0     O80435   4.162   0.032   5.816  0.6371 -0.0659  0.1754
  610MOL0     C80436   4.351  -0.092   6.096  0.3102 -0.2261 -0.5039
  610MOL0     C80437   4.480  -0.115   6.145 -0.1430  0.5672 -0.1475
  610MOL0     N80438   5.238  -0.308   6.225  0.4304  0.5665 -0.1294
  610MOL0     N80439   5.340  -0.281   6.292 -0.1244  0.9868  0.5635
  610MOL0     C80440   4.621   0.467   6.022 -1.2988 -0.9212 -0.7532
  610MOL0     C80441   4.490   0.490   5.966  0.4230  0.4968 -0.2047
  610MOL0     C80442   4.044   0.509   5.904  1.0915 -0.0839  0.4613
  610MOL0     C80443   4.019   0.428   5.788 -0.0522 -0.3241 -0.1602
  610MOL0     C80444   3.893   0.438   5.719  0.0486  0.5954 -0.1274
  610MOL0     C80445   3.794   0.526   5.763 -1.0042  0.1694 -0.0128
  610MOL0     O80446   3.672   0.545   5.704  0.6288 -0.4321 -0.0919
  610MOL0     C80447   3.615   0.436   5.625 -0.6216 -0.1589  0.3461
  610MOL0     C80448   3.461   0.461   5.591 -0.1533  0.4332 -0.4342
  610MOL0     C80449   3.442   0.565   5.486 -0.4248  0.0739  0.5305
  610MOL0     C80450   3.305   0.576   5.435 -0.3134 -0.3059 -0.6297
  610MOL0     C80451   3.299   0.645   5.314 -0.3213 -0.4003 -0.8582
  610MOL0     C80452   3.312   0.705   5.210 -0.4008 -0.0527 -0.6269
  610MOL0     C80453   3.818   0.605   5.870  0.1649 -0.0771  0.1278
  610MOL0     C80454   3.939   0.600   5.943 -1.1323  0.3621  0.0330
  610MOL0     H80455   4.341   0.210   6.076  1.1179 -0.1237  1.9959
  610MOL0     H80456   4.545   0.177   6.183  1.0130 -1.8763 -2.2867
  610MOL0     H80457   4.770   0.159   6.233 -0.2723 -0.6103  1.2001
  610MOL0     H80458   4.699   0.271   6.345  1.6645 -2.3559  2.0188
  610MOL0     H80459   4.900   0.251   6.445  1.3935 -0.5115 -0.0392
  610MOL0     H80460   4.956   0.376   6.327 -0.4845  0.1291 -1.3535
  610MOL0     H80461   5.059   0.232   6.182 -0.5316 -0.1279 -1.1100
  610MOL0     H80462   4.990   0.088   6.257  0.6771 -0.0026  0.1355
  610MOL0     H80463   5.177   0.249   6.409  0.7433  0.2959 -0.5049
  610MOL0     H80464   5.103   0.092   6.456  0.1241  0.9924  0.3941
  610MOL0     H80465   5.284   0.149   6.207  1.0446 -0.0625  1.8330
  610MOL0     H80466   5.231  -0.011   6.248  3.3880 -1.6974 -0.0406
  610MOL0     H80467   5.387   0.021   6.461 -1.8590  0.6740  0.4602
  610MOL0     H80468   5.431   0.182   6.399 -0.2652 -0.2630  0.4583
  610MOL0     H80469   5.471   0.053   6.172  1.2133 -0.8773  0.4725
  610MOL0     H80470   5.591   0.089   6.299  0.3686 -1.0278  3.9093
  610MOL0     H80471   5.543  -0.154   6.378  3.3531 -2.7297 -1.1020
  610MOL0     H80472   5.623  -0.149   6.228 -0.6507 -0.0547 -0.0046
  610MOL0     H80473   5.415  -0.108   6.027  1.4387  1.2806  1.7174
  610MOL0     H80474   5.191  -0.277   5.890  0.3676  0.1168 -0.0364
  610MOL0     H80475   5.090  -0.157   5.975  0.3643 -0.5461  0.8568
  610MOL0     H80476   5.076  -0.454   6.030  1.4431 -0.1346 -1.0297
  610MOL0     H80477   4.985  -0.369   5.907 -1.1014  3.8033 -1.3190
  610MOL0     H80478   4.853  -0.391   6.134  1.5285 -2.0441 -0.5006
  610MOL0     H80479   4.953  -0.264   6.191 -1.8047  1.8077 -0.0778
  610MOL0     H80480   4.767  -0.265   5.946  2.3451  0.0632 -0.9718
  610MOL0     H80481   4.866  -0.122   5.978 -1.5176  1.9052 -0.0553
  610MOL0     H80482   4.660  -0.062   5.871  0.0239 -1.8058 -1.3343
  610MOL0     H80483   4.437  -0.001   5.777 -0.5515 -3.2124 -1.4023
  610MOL0     H80484   3.946  -0.325   5.943 -0.6770 -0.6125  1.2929
  610MOL0     H80485   3.739  -0.355   5.847 -2.5560  0.2883  2.6311
  610MOL0     H80486   3.585  -0.364   5.673  2.9553 -0.0950  1.1693
  610MOL0     H80487   3.678  -0.239   5.593  0.6543  0.1820  1.3811
  610MOL0     H80488   3.369  -0.243   5.620  0.6245 -2.0733 -0.1244
  610MOL0     H80489   3.441  -0.310   5.472 -1.7584  0.6573 -0.3707
  610MOL0     H80490   3.448  -0.021   5.559  1.6933  0.1318  0.5561
  610MOL0     H80491   3.348  -0.084   5.440 -0.1388 -0.7555  0.1106
  610MOL0     H80492   3.654  -0.110   5.433 -0.0703 -1.4153 -0.3192
  610MOL0     H80493   3.545  -0.134   5.294  0.3274  1.1213 -1.0861
  610MOL0     H80494   3.672   0.072   5.272 -1.1982  2.2572 -0.5250
  610MOL0     H80495   3.623   0.125   5.439 -0.5555 -0.4717  0.8815
  610MOL0     H80496   3.409   0.146   5.391  0.5831 -1.1377  1.1946
  610MOL0     H80497   3.406   0.056   5.242 -1.7623  1.0635  0.0097
  610MOL0     H80498   3.508   0.343   5.292  4.5570 -1.0009 -1.3540
  610MOL0     H80499   3.572   0.248   5.154  0.4173 -0.0851 -0.3611
  610MOL0     H80500   3.408   0.388   5.058 -0.4087  0.9936 -0.5496
  610MOL0     H80501   3.301   0.363   5.204  1.1002 -0.0813  0.7924
  610MOL0     H80502   3.700   0.072   5.781 -4.2610 -1.6980  0.7640
  610MOL0     H80503   3.938   0.103   5.874  0.7440 -0.1594 -1.6702
  610MOL0     H80504   4.266  -0.115   6.160  2.1784 -2.2852  1.4010
  610MOL0     H80505   4.509  -0.143   6.246  0.7690 -1.7376 -0.9785
  610MOL0     H80506   4.695   0.546   6.020 -0.8759 -1.2029  1.6679
  610MOL0     H80507   4.477   0.576   5.902  1.9370 -0.4500 -1.9105
  610MOL0     H80508   4.089   0.351   5.760 -0.7453 -0.6858 -0.9116
  610MOL0     H80509   3.876   0.364   5.641  1.3294 -0.4204  0.5215
  610MOL0     H80510   3.622   0.346   5.687 -2.3449  0.3447  1.3384
  610MOL0     H80511   3.680   0.429   5.537 -1.5217 -0.0586 -0.3434
  610MOL0     H80512   3.425   0.361   5.565 -3.5253  1.1845  0.9359
  610MOL0     H80513   3.413   0.493   5.683  1.0531  0.1402  0.3204
  610MOL0     H80514   3.522   0.545   5.414  0.7665  0.9684  1.5509
  610MOL0     H80515   3.463   0.662   5.533 -2.6013  0.2766  1.1592
  610MOL0     H80516   3.258   0.477   5.429 -0.1994 -0.3386 -1.0505
  610MOL0     H80517   3.236   0.628   5.502 -1.2928 -2.4964  0.1397
  610MOL0     H80518   3.334   0.760   5.121  1.4681  1.7461  0.8266
  610MOL0     H80519   3.740   0.677   5.892  0.1860 -0.1042  0.2912
  610MOL0     H80520   3.949   0.663   6.031 -1.2224  0.5837 -0.1142
  611MOL0     O80521   5.224   2.567   5.122  0.5742 -0.1538 -0.6484
  611MOL0     C80522   5.299   2.528   5.212 -0.3164  0.5693  0.1174
  611MOL0     O80523   5.268   2.534   5.341 -0.4920 -0.1567 -0.2529
  611MOL0     C80524   5.135   2.544   5.372  0.0013  0.5672 -0.2421
  611MOL0     C80525   5.095   2.635   5.466  0.2628  0.1723 -0.5127
  611MOL0     C80526   4.961   2.660   5.496 -0.8006 -0.4737  0.1370
  611MOL0     C80527   4.856   2.590   5.426  0.4877  0.3397  0.4114
  611MOL0     O80528   4.726   2.625   5.458  0.3197  0.0562 -0.1423
  611MOL0     C80529   4.623   2.593   5.368 -0.0410 -0.2853 -0.5539
  611MOL0     C80530   4.519   2.704   5.369  1.0091 -0.3064  0.1329
  611MOL0     C80531   4.413   2.658   5.270  0.4045  0.9290  1.2030
  611MOL0     C80532   4.310   2.771   5.234  0.6073  0.7965 -0.0152
  611MOL0     C80533   4.204   2.719   5.134 -0.5180  0.0097 -0.5954
  611MOL0     C80534   4.089   2.819   5.131 -0.1273  0.7388  0.2142
  611MOL0     C80535   3.997   2.838   5.250  0.4972 -0.2321  0.5563
  611MOL0     C80536   3.884   2.735   5.265  0.1353  0.9608  0.0053
  611MOL0     N80537   3.793   2.767   5.373  0.3000 -0.5213 -0.0512
  611MOL0     C80538   3.811   2.740   5.509  0.2746  0.2406  0.9925
  611MOL0     C80539   3.683   2.776   5.559  0.4080 -0.0999  0.0035
  611MOL0     C80540   3.651   2.770   5.711  0.2712 -0.7650 -0.5671
  611MOL0     C80541   3.598   2.906   5.753 -0.4980 -0.0543  0.5999
  611MOL0     C80542   3.558   2.912   5.896 -0.3671  0.8295 -0.1273
  611MOL0     C80543   3.405   2.923   5.916 -0.2827  0.1966  1.1029
  611MOL0     O80544   3.331   2.799   5.868  0.0317 -0.3535  0.2736
  611MOL0     C80545   3.194   2.819   5.892  0.9003 -0.9393  0.5772
  611MOL0     C80546   3.148   2.805   6.025 -0.1548  0.7268  0.6003
  611MOL0     C80547   3.011   2.800   6.055 -0.2446 -0.2562 -0.5328
  611MOL0     C80548   2.914   2.819   5.954  0.1378  0.1490 -0.8142
  611MOL0     C80549   2.774   2.840   5.985 -0.3797  0.2785 -0.1073
  611MOL0     O80550   2.687   2.863   5.887  0.8265  0.1375  0.1469
  611MOL0     C80551   2.555   2.839   5.903  0.4235 -0.5824  0.0667
  611MOL0     C80552   2.463   2.933   5.863  0.9079  0.4138  0.0218
  611MOL0     C80553   2.320   2.921   5.888  0.2643 -0.0858  0.4823
  611MOL0     C80554   2.276   2.814   5.959  0.0505 -0.5955 -0.1181
  611MOL0     O80555   2.144   2.818   5.990  0.1037  0.0571 -0.2950
  611MOL0     C80556   2.093   2.720   6.086  0.1119 -0.2743 -0.3528
  611MOL0     C80557   1.970   2.786   6.154 -1.0069  0.3761  0.5763
  611MOL0     C80558   1.847   2.793   6.079  0.1325 -0.4783 -0.1577
  611MOL0     C80559   1.736   2.843   6.176  0.2901 -0.5169 -0.0255
  611MOL0     C80560   1.594   2.816   6.118 -0.1678  0.8876 -0.6320
  611MOL0     C80561   1.480   2.827   6.220 -0.0751 -0.0507 -0.0287
  611MOL0     C80562   1.327   2.808   6.160  0.6110 -1.1086 -0.6065
  611MOL0     C80563   1.231   2.809   6.281  0.4860  0.1950 -1.0939
  611MOL0    Cl80564   1.230   2.952   6.381 -0.0596  0.3706  0.0358
  611MOL0     C80565   2.369   2.709   5.991  0.0210 -1.5381 -0.3906
  611MOL0     C80566   2.507   2.719   5.962 -0.0570 -0.2852 -1.0215
  611MOL0     O80567   2.738   2.841   6.105 -0.7440 -0.1370 -0.7409
  611MOL0     C80568   2.962   2.831   5.819 -0.3451 -0.5647 -0.2120
  611MOL0     C80569   3.100   2.839   5.793 -0.0920  0.0599  0.3003
  611MOL0     N80570   3.596   2.805   5.454 -0.6202  0.5618  0.7595
  611MOL0     N80571   3.663   2.809   5.348 -0.5052  0.8656  0.1465
  611MOL0     C80572   4.893   2.496   5.329 -0.9949  0.8196 -1.0779
  611MOL0     C80573   5.030   2.470   5.308 -0.1103 -0.5787  0.0423
  611MOL0     C80574   5.437   2.473   5.174  0.7075 -0.0926  0.0058
  611MOL0     C80575   5.462   2.423   5.044 -0.0920  0.5422  0.3275
  611MOL0     C80576   5.579   2.350   5.022 -0.1704 -0.1113  0.1439
  611MOL0     C80577   5.674   2.337   5.124  0.3794 -0.0474  0.6751
  611MOL0     O80578   5.787   2.260   5.089 -0.0937 -0.1432 -0.0825
  611MOL0     C80579   5.860   2.196   5.193 -0.4276 -0.3283 -0.0997
  611MOL0     C80580   5.991   2.140   5.141 -0.0342 -0.5051  0.0994
  611MOL0     C80581   6.091   2.101   5.255  0.2433  0.7731  0.6895
  611MOL0     C80582   6.162   2.229   5.291 -0.1143  0.1672 -0.1163
  611MOL0     C80583   6.239   2.222   5.414 -0.4171  0.2080  0.6328
  611MOL0     C80584   6.289   2.209   5.520 -0.5607 -0.4381  0.5282
  611MOL0     C80585   5.649   2.399   5.250  0.6450  0.5675  0.2175
  611MOL0     C80586   5.532   2.463   5.274  1.4140  0.2814  0.3320
  611MOL0     H80587   5.157   2.699   5.528 -0.0520  0.9972 -1.0430
  611MOL0     H80588   4.935   2.739   5.565  1.1573  1.2081 -0.9385
  611MOL0     H80589   4.577   2.498   5.397 -0.2544 -0.2141 -0.6572
  611MOL0     H80590   4.651   2.594   5.262 -1.3511 -3.9964 -1.1036
  611MOL0     H80591   4.559   2.803   5.343  1.2972 -0.5868 -0.5109
  611MOL0     H80592   4.464   2.708   5.464 -1.4390 -1.6158 -1.1393
  611MOL0     H80593   4.354   2.576   5.311  1.7530 -2.0970 -2.2937
  611MOL0     H80594   4.461   2.613   5.182 -1.0738  0.4023  0.6457
  611MOL0     H80595   4.258   2.795   5.327  0.2693 -1.1549  0.3513
  611MOL0     H80596   4.372   2.856   5.205  1.4697  0.1640 -0.0709
  611MOL0     H80597   4.162   2.622   5.164 -0.6620 -0.1885 -1.4046
  611MOL0     H80598   4.261   2.700   5.042  1.8824 -4.1041  1.4410
  611MOL0     H80599   4.040   2.815   5.033 -3.2815 -2.7819  1.6843
  611MOL0     H80600   4.147   2.912   5.130  2.3186 -0.7122 -1.2482
  611MOL0     H80601   4.048   2.848   5.347 -0.1391 -1.2093  1.0055
  611MOL0     H80602   3.964   2.942   5.244  1.4152  0.5272  4.8651
  611MOL0     H80603   3.923   2.635   5.287 -0.5378  0.5637 -0.5348
  611MOL0     H80604   3.812   2.719   5.183  1.0852  0.0942 -0.6831
  611MOL0     H80605   3.898   2.692   5.552  0.6465 -0.7308 -0.7804
  611MOL0     H80606   3.740   2.747   5.771  0.7877 -0.2863 -1.1351
  611MOL0     H80607   3.573   2.693   5.714 -1.6782  1.1393  0.3766
  611MOL0     H80608   3.514   2.925   5.685 -0.1097  0.2254  0.1911
  611MOL0     H80609   3.670   2.987   5.737 -3.7175  3.3272  1.7769
  611MOL0     H80610   3.615   2.834   5.947  0.0155  0.4696 -1.0759
  611MOL0     H80611   3.602   2.996   5.952 -0.7746 -0.8568  2.9320
  611MOL0     H80612   3.365   3.007   5.858  1.1834 -1.3480 -2.4279
  611MOL0     H80613   3.384   2.938   6.023  2.1793 -1.8024  1.9700
  611MOL0     H80614   3.210   2.810   6.114  1.2531 -0.7017 -0.2551
  611MOL0     H80615   2.977   2.804   6.157  2.7808  1.7053  0.5659
  611MOL0     H80616   2.506   3.006   5.795  1.6610 -2.5640 -3.0077
  611MOL0     H80617   2.260   3.001   5.845 -0.5599 -0.7419  0.3889
  611MOL0     H80618   2.172   2.691   6.157  3.4871  3.4659 -2.2118
  611MOL0     H80619   2.067   2.634   6.024 -0.0194 -0.3894 -0.1402
  611MOL0     H80620   2.002   2.888   6.179  0.0907  0.5177 -1.1730
  611MOL0     H80621   1.945   2.735   6.247 -2.0313  1.4948  0.9417
  611MOL0     H80622   1.813   2.698   6.037 -0.9065  1.0092 -2.9820
  611MOL0     H80623   1.859   2.864   5.996  1.5082  1.6104  1.6892
  611MOL0     H80624   1.744   2.786   6.268 -1.0737 -1.7542 -0.6347
  611MOL0     H80625   1.743   2.951   6.191  1.2145 -0.4096 -1.0730
  611MOL0     H80626   1.580   2.711   6.089  0.3144 -0.2176  2.6783
  611MOL0     H80627   1.571   2.879   6.032 -3.2086 -0.1183 -0.6539
  611MOL0     H80628   1.491   2.921   6.276 -0.0622 -1.9314  3.3967
  611MOL0     H80629   1.498   2.747   6.293  3.4011 -0.3476 -1.0491
  611MOL0     H80630   1.314   2.898   6.099 -0.9156  0.2187  1.5258
  611MOL0     H80631   1.317   2.720   6.097 -2.1319  0.1297 -2.0856
  611MOL0     H80632   1.262   2.722   6.339 -3.5124 -0.2602  0.7552
  611MOL0     H80633   1.128   2.787   6.248 -0.9065  0.3155  2.7360
  611MOL0     H80634   2.340   2.626   6.054  0.9561 -1.5653  0.0159
  611MOL0     H80635   2.580   2.643   5.987  0.1812  0.2350 -0.0723
  611MOL0     H80636   2.899   2.830   5.730  0.7948 -1.3483 -1.0330
  611MOL0     H80637   3.116   2.844   5.685 -4.1428  1.9781 -0.3812
  611MOL0     H80638   4.819   2.440   5.272 -0.5213 -1.2801  0.2585
  611MOL0     H80639   5.054   2.391   5.237  0.9130  0.2728 -0.5898
  611MOL0     H80640   5.391   2.450   4.967 -3.7178  0.7766  3.5069
  611MOL0     H80641   5.602   2.318   4.921  0.7342  1.0099 -0.0200
  611MOL0     H80642   5.803   2.120   5.247  1.0625 -0.9194  0.7003
  611MOL0     H80643   5.884   2.275   5.265 -1.9871 -0.6236  0.7976
  611MOL0     H80644   5.964   2.048   5.088  1.9620 -1.2984  0.3435
  611MOL0     H80645   6.034   2.220   5.080 -0.3814  1.2421  2.0661
  611MOL0     H80646   6.165   2.033   5.211 -1.2269 -1.1758  1.0836
  611MOL0     H80647   6.033   2.051   5.334  0.0354 -0.1024  0.0038
  611MOL0     H80648   6.233   2.248   5.210 -1.3921 -1.7170 -1.7779
  611MOL0     H80649   6.097   2.316   5.306  0.2556  0.4474 -0.1250
  611MOL0     H80650   6.333   2.197   5.617 -1.9723 -0.9986  1.1243
  611MOL0     H80651   5.720   2.371   5.327  0.7828 -0.6830 -0.3472
  611MOL0     H80652   5.508   2.504   5.371 -0.2855  0.1002  0.0229
  612MOL0     O80653   3.612   5.316   5.314  1.1049  0.5142  0.0219
  612MOL0     C80654   3.612   5.318   5.192  0.1215 -0.1690 -0.4267
  612MOL0     O80655   3.507   5.346   5.109  0.3954 -0.3724  0.6246
  612MOL0     C80656   3.372   5.361   5.146 -0.2004  0.1047  0.4395
  612MOL0     C80657   3.271   5.334   5.050 -0.3679 -0.1788  0.0808
  612MOL0     C80658   3.136   5.341   5.076 -1.0428 -0.6670 -0.0904
  612MOL0     C80659   3.093   5.377   5.203 -0.4139  0.4877 -0.6155
  612MOL0     O80660   2.970   5.405   5.244  0.6648 -0.5590 -0.1247
  612MOL0     C80661   2.866   5.340   5.174 -0.5459 -0.0398 -0.1595
  612MOL0     C80662   2.736   5.334   5.253 -0.3713 -0.4471 -0.2709
  612MOL0     C80663   2.670   5.475   5.261  0.2614  0.4399  0.2166
  612MOL0     C80664   2.532   5.459   5.323 -0.3654  0.2646 -0.0990
  612MOL0     C80665   2.456   5.588   5.328 -0.6722  0.1212  1.0738
  612MOL0     C80666   2.319   5.562   5.375 -0.1822 -0.0120 -0.3744
  612MOL0     C80667   2.241   5.695   5.374  0.1327  0.2648 -0.3790
  612MOL0     C80668   2.093   5.681   5.429  0.4501  0.2688  0.1232
  612MOL0     N80669   2.006   5.608   5.339  0.0726  0.0569  0.7602
  612MOL0     C80670   2.002   5.466   5.342 -0.0402 -0.1511  0.0354
  612MOL0     C80671   1.946   5.430   5.224  0.5965 -0.1560  0.2001
  612MOL0     C80672   1.914   5.290   5.166  0.1838 -0.0814  0.1290
  612MOL0     C80673   2.010   5.258   5.056 -0.5977  0.1123  0.3009
  612MOL0     C80674   2.144   5.207   5.110 -0.3664 -0.1948  0.8511
  612MOL0     C80675   2.267   5.217   5.017  0.5418  0.0544 -0.1582
  612MOL0     O80676   2.373   5.140   5.083 -0.1840  0.4895  0.2158
  612MOL0     C80677   2.494   5.103   5.027 -0.3940 -0.7814 -0.2987
  612MOL0     C80678   2.555   5.167   4.925  0.6871 -0.2554  0.0997
  612MOL0     C80679   2.684   5.145   4.885 -1.2651  0.2236 -0.5746
  612MOL0     C80680   2.764   5.068   4.966 -0.2070 -0.7139 -0.0469
  612MOL0     C80681   2.909   5.060   4.947 -0.9883 -0.3753  0.5967
  612MOL0     O80682   2.981   4.957   5.012  0.0464  0.5214  0.2286
  612MOL0     C80683   3.113   4.928   5.000  0.0458 -0.0981 -0.8983
  612MOL0     C80684   3.158   4.828   5.080 -0.7405  0.2669 -0.6611
  612MOL0     C80685   3.291   4.790   5.077 -0.2935 -0.3382  0.5371
  612MOL0     C80686   3.383   4.859   4.997  0.0777 -0.4394 -0.5818
  612MOL0     O80687   3.509   4.807   4.992 -0.3775 -0.1397 -0.0271
  612MOL0     C80688   3.604   4.861   4.895  0.1449 -0.3891 -0.2225
  612MOL0     C80689   3.745   4.808   4.928 -0.1196  0.5270 -0.1906
  612MOL0     C80690   3.835   4.790   4.801  0.0489  0.2591 -0.0456
  612MOL0     C80691   3.980   4.787   4.844  1.1304 -0.1127  0.1172
  612MOL0     C80692   4.076   4.745   4.722 -0.2018 -0.5356 -0.2526
  612MOL0     C80693   4.218   4.790   4.748 -0.6016  0.2361  0.7045
  612MOL0     C80694   4.311   4.746   4.631 -0.2355 -0.4663 -0.0189
  612MOL0     C80695   4.464   4.765   4.667  0.6747 -0.6371  0.1468
  612MOL0    Cl80696   4.502   4.632   4.785  0.1249 -0.3200 -0.0462
  612MOL0     C80697   3.343   4.966   4.914 -0.5417  0.1403  0.2578
  612MOL0     C80698   3.210   4.998   4.918  0.2840 -0.5125 -0.0283
  612MOL0     O80699   2.956   5.141   4.866  0.3328  0.0818 -0.2434
  612MOL0     C80700   2.705   5.001   5.077  0.2269  0.2514 -0.3104
  612MOL0     C80701   2.574   5.027   5.108 -0.8873  0.7827 -0.1134
  612MOL0     N80702   1.918   5.549   5.157 -0.1137  0.0138 -0.0559
  612MOL0     N80703   1.943   5.652   5.226  0.5343  0.2658  0.0158
  612MOL0     C80704   3.186   5.415   5.294 -0.8389  0.1028  0.2116
  612MOL0     C80705   3.327   5.407   5.269  0.8623 -0.4105 -0.0429
  612MOL0     C80706   3.736   5.276   5.117  0.2548  0.0283 -0.1940
  612MOL0     C80707   3.851   5.241   5.185  0.1355  0.0683  0.2474
  612MOL0     C80708   3.969   5.213   5.113  0.0798 -0.7213  0.6529
  612MOL0     C80709   3.973   5.208   4.969  0.0164  0.0270 -0.4341
  612MOL0     O80710   4.093   5.189   4.903  0.0693  0.5393  0.1021
  612MOL0     C80711   4.104   5.191   4.760 -0.0098 -1.1106  0.6114
  612MOL0     C80712   4.243   5.194   4.718  1.4467 -0.1425 -0.3696
  612MOL0     C80713   4.247   5.152   4.572 -0.3280  0.1420  0.6274
  612MOL0     C80714   4.384   5.117   4.520 -0.6289 -0.0965 -0.0036
  612MOL0     C80715   4.448   5.242   4.477 -0.5021 -0.0011  0.1372
  612MOL0     C80716   4.490   5.352   4.440  0.4774  0.2865 -0.0173
  612MOL0     C80717   3.851   5.223   4.901 -0.5742 -0.0104 -0.8135
  612MOL0     C80718   3.732   5.265   4.977 -0.6870 -0.0050  0.3357
  612MOL0     H80719   3.300   5.294   4.954 -0.7975 -0.8382  0.2189
  612MOL0     H80720   3.068   5.306   4.999  0.0151 -1.2966 -0.7488
  612MOL0     H80721   2.897   5.239   5.143 -1.5100  0.5969 -3.6650
  612MOL0     H80722   2.831   5.390   5.083  2.7947  2.5963 -0.2001
  612MOL0     H80723   2.759   5.295   5.353  0.6870  2.4171  0.7073
  612MOL0     H80724   2.669   5.271   5.194 -2.7761  2.8183 -1.3277
  612MOL0     H80725   2.674   5.532   5.168  1.8983 -1.3989 -0.9046
  612MOL0     H80726   2.720   5.546   5.327 -2.6571  1.0654  1.9641
  612MOL0     H80727   2.473   5.384   5.270 -3.3625  3.1303 -1.0658
  612MOL0     H80728   2.545   5.420   5.425  1.5536  0.8533 -0.0813
  612MOL0     H80729   2.455   5.631   5.227 -2.0647  2.1517  1.8896
  612MOL0     H80730   2.507   5.654   5.400 -0.6043  1.2584  0.0194
  612MOL0     H80731   2.317   5.526   5.478 -4.6090  0.9776  0.0679
  612MOL0     H80732   2.268   5.482   5.319  1.3232 -2.9009  2.0557
  612MOL0     H80733   2.296   5.767   5.435  1.3691 -0.0515 -1.1049
  612MOL0     H80734   2.239   5.738   5.273  0.3404  2.0436  0.3275
  612MOL0     H80735   2.051   5.781   5.432  1.2016  0.5683  1.5128
  612MOL0     H80736   2.095   5.633   5.527 -0.7277 -2.7823 -1.2069
  612MOL0     H80737   2.055   5.401   5.411 -2.0026 -1.9136 -0.0025
  612MOL0     H80738   1.811   5.288   5.129 -0.8440 -0.1860  2.7396
  612MOL0     H80739   1.911   5.216   5.246 -2.5891 -0.3257 -0.0805
  612MOL0     H80740   2.028   5.340   4.985  1.3699 -2.3774 -2.3261
  612MOL0     H80741   1.966   5.184   4.988  1.3451 -0.8191 -0.0185
  612MOL0     H80742   2.166   5.266   5.200 -3.5396  1.3904  0.7110
  612MOL0     H80743   2.135   5.102   5.139 -1.2460 -0.3873 -0.0650
  612MOL0     H80744   2.298   5.320   4.999  0.4018  0.1238 -0.0124
  612MOL0     H80745   2.236   5.176   4.921 -4.3357  2.0454  0.2317
  612MOL0     H80746   2.495   5.237   4.867 -2.0612 -1.2833  1.5352
  612MOL0     H80747   2.716   5.202   4.798 -0.0811  0.4890  0.0150
  612MOL0     H80748   3.087   4.780   5.145 -1.0705 -1.2265 -2.0584
  612MOL0     H80749   3.325   4.715   5.147  0.7152 -1.3391 -0.9841
  612MOL0     H80750   3.618   4.970   4.897 -2.5120  0.0127  0.4445
  612MOL0     H80751   3.576   4.833   4.792  3.2197 -1.0499 -0.9760
  612MOL0     H80752   3.742   4.711   4.977 -1.2011  2.1621  3.3248
  612MOL0     H80753   3.793   4.878   4.997  1.3319 -4.1384  4.1248
  612MOL0     H80754   3.828   4.861   4.718  0.5977 -1.7047 -1.8688
  612MOL0     H80755   3.807   4.697   4.750 -0.5607  1.1092 -1.3307
  612MOL0     H80756   4.010   4.878   4.897 -0.6726  0.1495  0.7704
  612MOL0     H80757   3.971   4.708   4.919 -1.0451 -0.0415  0.0103
  612MOL0     H80758   4.034   4.783   4.627 -1.8090  1.5445  1.1815
  612MOL0     H80759   4.070   4.637   4.706  0.0406 -0.7334  0.8981
  612MOL0     H80760   4.249   4.757   4.848 -3.5426  1.5456  2.2082
  612MOL0     H80761   4.221   4.900   4.747 -3.2282  0.3876 -0.5639
  612MOL0     H80762   4.289   4.641   4.610  0.7665 -1.1514  2.1255
  612MOL0     H80763   4.283   4.799   4.539 -2.3188 -2.2034 -0.4758
  612MOL0     H80764   4.491   4.863   4.708  2.9308 -0.6282 -1.1934
  612MOL0     H80765   4.522   4.763   4.575  0.0600 -4.3633 -0.3216
  612MOL0     H80766   3.414   5.006   4.842 -0.5412 -0.1953  0.0704
  612MOL0     H80767   3.185   5.085   4.860 -0.8102 -1.2792 -0.7389
  612MOL0     H80768   2.758   4.930   5.140  1.4869 -1.3398 -2.9817
  612MOL0     H80769   2.530   4.976   5.194 -0.3041 -0.6814 -0.6424
  612MOL0     H80770   3.158   5.453   5.392  1.4115  0.4713  0.7595
  612MOL0     H80771   3.403   5.440   5.339  1.0615  0.5607 -0.6894
  612MOL0     H80772   3.861   5.244   5.293 -0.7143  1.5258  0.3067
  612MOL0     H80773   4.065   5.193   5.159 -0.3395 -2.1342  0.9685
  612MOL0     H80774   4.058   5.287   4.734  1.1091 -0.6895  0.1137
  612MOL0     H80775   4.048   5.107   4.719  0.8385 -2.0512  1.3376
  612MOL0     H80776   4.294   5.289   4.734 -0.0301  0.2579  2.4773
  612MOL0     H80777   4.284   5.111   4.777 -2.4158 -3.1608 -1.5303
  612MOL0     H80778   4.193   5.223   4.510 -1.4731 -0.4010  0.9877
  612MOL0     H80779   4.194   5.056   4.575  0.8432 -0.5498  0.2635
  612MOL0     H80780   4.452   5.057   4.582  2.1700  3.9832  1.2741
  612MOL0     H80781   4.370   5.062   4.427 -1.3743 -1.3001  0.7898
  612MOL0     H80782   4.525   5.444   4.398 -0.0352 -0.6221 -2.6798
  612MOL0     H80783   3.840   5.215   4.794 -0.8289 -2.2797 -0.6799
  612MOL0     H80784   3.646   5.283   4.912  2.2394  4.8597 -2.8388
  613MOL0     O80785   6.611   3.176  10.112  0.8463 -1.1120  0.4509
  613MOL0     C80786   6.503   3.188  10.049  0.0059  0.8430 -0.0123
  613MOL0     O80787   6.465   3.108   9.951  1.1367 -0.2981  0.4028
  613MOL0     C80788   6.540   3.008   9.908 -0.5845 -0.4072 -0.8131
  613MOL0     C80789   6.505   2.884   9.959 -0.5448  0.5104 -0.8719
  613MOL0     C80790   6.583   2.777   9.919  0.9599  0.4054 -0.1715
  613MOL0     C80791   6.695   2.788   9.833  0.1920 -0.4478  0.5124
  613MOL0     O80792   6.775   2.690   9.788 -0.0168  0.1033 -0.1192
  613MOL0     C80793   6.767   2.557   9.841  0.7240 -0.8520 -0.7605
  613MOL0     C80794   6.721   2.470   9.722  0.8355  0.2418  0.1137
  613MOL0     C80795   6.716   2.318   9.741 -0.1630 -0.2350 -0.2547
  613MOL0     C80796   6.706   2.234   9.610  0.1397  0.7313  0.1577
  613MOL0     C80797   6.677   2.077   9.622 -0.5326 -0.2905  0.8807
  613MOL0     C80798   6.757   1.998   9.516 -0.6768  0.1273  0.2669
  613MOL0     C80799   6.713   1.853   9.520  0.2731  0.0689 -0.7774
  613MOL0     C80800   6.790   1.768   9.425  0.0974 -0.2367 -0.6162
  613MOL0     N80801   6.761   1.620   9.443  0.3670 -0.1325 -0.8294
  613MOL0     C80802   6.631   1.570   9.457 -0.4026  0.2642  0.3044
  613MOL0     C80803   6.637   1.435   9.469 -0.4747  0.0721  0.3196
  613MOL0     C80804   6.525   1.343   9.488  0.3633 -0.1549  0.9789
  613MOL0     C80805   6.572   1.200   9.524 -0.0732  0.4499  0.1158
  613MOL0     C80806   6.476   1.084   9.530 -0.7884 -0.7237  0.1210
  613MOL0     C80807   6.358   1.099   9.622  0.1875  0.3381  0.0080
  613MOL0     O80808   6.400   1.173   9.739  0.0568  0.2461  0.2118
  613MOL0     C80809   6.315   1.193   9.848  0.9771 -0.3539  0.3807
  613MOL0     C80810   6.179   1.136   9.857  0.4190 -0.1804  0.5125
  613MOL0     C80811   6.089   1.189   9.956 -0.5945  0.5524  0.0736
  613MOL0     C80812   6.138   1.290  10.045  0.3848  0.3907  0.2214
  613MOL0     C80813   6.041   1.336  10.152  0.3537  0.0431 -1.2116
  613MOL0     O80814   5.902   1.314  10.144  0.7275 -0.0805 -0.4943
  613MOL0     C80815   5.808   1.357  10.236  0.4539  0.0045 -0.1267
  613MOL0     C80816   5.803   1.480  10.294 -0.4449  0.2671  0.6421
  613MOL0     C80817   5.695   1.519  10.380  0.0204  0.3951 -0.2671
  613MOL0     C80818   5.587   1.431  10.397 -0.0717 -0.7239 -1.0563
  613MOL0     O80819   5.486   1.479  10.474 -0.8343 -0.3299  0.6118
  613MOL0     C80820   5.381   1.395  10.515 -0.1547  0.3169 -0.4142
  613MOL0     C80821   5.271   1.467  10.592  1.1268 -0.2406  0.9079
  613MOL0     C80822   5.187   1.545  10.500  0.5456 -0.0133  0.2356
  613MOL0     C80823   5.087   1.634  10.574  0.4685  0.1858 -0.5548
  613MOL0     C80824   4.965   1.556  10.631  0.2001  0.2340 -0.3683
  613MOL0     C80825   4.901   1.467  10.524  0.2148 -0.3509  1.1518
  613MOL0     C80826   4.759   1.410  10.570 -0.4324 -0.6322 -0.2924
  613MOL0     C80827   4.700   1.318  10.462 -0.5745  0.1938  0.4965
  613MOL0    Cl80828   4.533   1.278  10.515  0.3960  0.3549  0.0329
  613MOL0     C80829   5.599   1.304  10.337  0.2343  1.1859 -0.1465
  613MOL0     C80830   5.706   1.274  10.249  1.3340  0.1352  0.3835
  613MOL0     O80831   6.091   1.391  10.254 -0.3053 -0.6992  0.2091
  613MOL0     C80832   6.270   1.346  10.029  0.6217 -0.2256 -1.1776
  613MOL0     C80833   6.354   1.299   9.926 -0.3289 -0.5041  0.1726
  613MOL0     N80834   6.773   1.402   9.458 -0.0631 -0.4702 -0.3638
  613MOL0     N80835   6.841   1.511   9.439 -0.5535  0.6030 -0.1453
  613MOL0     C80836   6.716   2.917   9.785  0.2482 -0.1414  0.7220
  613MOL0     C80837   6.649   3.028   9.825 -0.2367  1.2916  0.4908
  613MOL0     C80838   6.413   3.300  10.084  0.8749 -0.3584  0.7051
  613MOL0     C80839   6.321   3.346   9.985  1.0822 -0.5093  0.9649
  613MOL0     C80840   6.232   3.447  10.007  0.2321  0.2768  0.0950
  613MOL0     C80841   6.230   3.506  10.139 -0.6970 -0.5421  0.6569
  613MOL0     O80842   6.150   3.614  10.175 -0.5485  0.2508  0.5418
  613MOL0     C80843   6.076   3.667  10.069  0.3109 -0.4650 -0.2416
  613MOL0     C80844   5.947   3.589  10.057 -0.2807  0.7715  0.4901
  613MOL0     C80845   5.834   3.626  10.155 -0.6833  0.4576 -0.9101
  613MOL0     C80846   5.705   3.568  10.116 -0.1566  0.8213 -0.4124
  613MOL0     C80847   5.719   3.425  10.132  0.6837 -0.4201  0.8951
  613MOL0     C80848   5.719   3.306  10.142 -0.4678  1.1357 -0.1138
  613MOL0     C80849   6.318   3.455  10.237  0.2834  0.1047  0.7829
  613MOL0     C80850   6.411   3.353  10.210  0.0841  0.0140 -1.0553
  613MOL0     H80851   6.412   2.877  10.014  1.1556 -0.4530  2.0778
  613MOL0     H80852   6.543   2.687   9.964 -0.2622  0.9284 -0.1752
  613MOL0     H80853   6.700   2.559   9.927  1.9217 -0.6712  0.1933
  613MOL0     H80854   6.867   2.524   9.868  0.8155 -1.2967 -1.5959
  613MOL0     H80855   6.776   2.505   9.635 -0.6224 -1.1890 -1.4614
  613MOL0     H80856   6.621   2.504   9.694  0.4582  0.5755  1.7488
  613MOL0     H80857   6.633   2.294   9.808 -0.3428  0.4270 -0.2287
  613MOL0     H80858   6.802   2.270   9.789 -1.1902 -2.8099 -0.8433
  613MOL0     H80859   6.621   2.277   9.558 -0.6233 -0.8063  0.1031
  613MOL0     H80860   6.798   2.240   9.551 -0.4918  0.7109 -0.8559
  613MOL0     H80861   6.571   2.051   9.616 -0.3633 -0.9480  0.6677
  613MOL0     H80862   6.703   2.041   9.722 -0.0920  0.1642  0.9306
  613MOL0     H80863   6.864   2.000   9.538 -0.7779 -1.4503  1.0583
  613MOL0     H80864   6.742   2.043   9.417 -2.1916  1.7961  1.1919
  613MOL0     H80865   6.726   1.803   9.616  0.5149  0.0843 -0.8000
  613MOL0     H80866   6.607   1.847   9.494 -0.4569  0.3799  1.8975
  613MOL0     H80867   6.897   1.780   9.442  0.3441 -0.1835 -2.0688
  613MOL0     H80868   6.758   1.812   9.330  2.3249  1.9551 -0.4387
  613MOL0     H80869   6.542   1.632   9.457 -1.3704 -1.0749  0.7615
  613MOL0     H80870   6.471   1.335   9.393 -1.9505 -2.2537  2.3363
  613MOL0     H80871   6.462   1.387   9.566 -1.5777  0.6611 -0.9264
  613MOL0     H80872   6.625   1.212   9.619 -1.5162  0.0824  0.9978
  613MOL0     H80873   6.648   1.170   9.452  0.4678 -1.0356  1.2389
  613MOL0     H80874   6.438   1.070   9.429  0.9209  0.6583 -0.7725
  613MOL0     H80875   6.531   0.992   9.553 -0.1912 -0.5209 -0.4670
  613MOL0     H80876   6.332   1.001   9.662  0.8599  0.8714  1.8693
  613MOL0     H80877   6.269   1.144   9.577 -1.5005 -0.2741  2.5347
  613MOL0     H80878   6.146   1.055   9.792  0.2393  0.1756  0.1582
  613MOL0     H80879   5.985   1.161   9.974 -0.1346 -1.5155 -0.2357
  613MOL0     H80880   5.887   1.547  10.280  0.3107 -0.2894  2.2348
  613MOL0     H80881   5.700   1.625  10.404  0.8432  0.1366  0.7544
  613MOL0     H80882   5.416   1.317  10.583 -1.3811 -0.2281 -0.3835
  613MOL0     H80883   5.344   1.349  10.423  1.3531 -1.5753 -0.1429
  613MOL0     H80884   5.317   1.523  10.674 -0.6756  1.9187  0.5636
  613MOL0     H80885   5.216   1.384  10.637 -2.8260  2.0851  0.8260
  613MOL0     H80886   5.142   1.469  10.437 -0.5591 -0.3034  1.3338
  613MOL0     H80887   5.248   1.611  10.437  0.3981 -1.1916 -1.1977
  613MOL0     H80888   5.126   1.698  10.654 -0.6329  0.6186 -0.3407
  613MOL0     H80889   5.053   1.712  10.505  0.4154  0.7407  0.0850
  613MOL0     H80890   4.897   1.627  10.679  2.9131  2.0685  1.0187
  613MOL0     H80891   4.998   1.490  10.712  0.7923 -1.8045 -2.1820
  613MOL0     H80892   4.961   1.381  10.494 -1.2965 -0.5676 -1.5744
  613MOL0     H80893   4.888   1.527  10.433 -0.2876 -0.7703  0.9392
  613MOL0     H80894   4.770   1.367  10.670 -1.7057  0.8130  0.5222
  613MOL0     H80895   4.682   1.487  10.577 -0.1895 -0.3723 -0.4597
  613MOL0     H80896   4.762   1.228  10.461  1.7178  1.5598  3.5332
  613MOL0     H80897   4.706   1.375  10.369 -0.5659 -0.6931 -0.0570
  613MOL0     H80898   5.531   1.220  10.346  0.8771  0.7574  0.9155
  613MOL0     H80899   5.699   1.175  10.204 -0.1133  0.8202 -1.0165
  613MOL0     H80900   6.296   1.412  10.111 -1.9635 -2.1432  1.4124
  613MOL0     H80901   6.458   1.331   9.930 -0.3832 -0.3627  2.8218
  613MOL0     H80902   6.799   2.931   9.716 -1.8172  1.0399 -1.6894
  613MOL0     H80903   6.682   3.128   9.799 -0.7907  1.6042  0.9681
  613MOL0     H80904   6.319   3.313   9.881  2.2771  1.3875  0.2941
  613MOL0     H80905   6.170   3.489   9.929 -0.4213  2.3110  1.6416
  613MOL0     H80906   6.127   3.675   9.972 -1.8632 -0.9905 -1.4930
  613MOL0     H80907   6.049   3.770  10.094 -0.6659 -1.2254  2.0712
  613MOL0     H80908   5.909   3.607   9.956  1.6865 -0.4528 -0.5283
  613MOL0     H80909   5.971   3.482  10.060 -1.8279  0.4074  1.0454
  613MOL0     H80910   5.820   3.735  10.152  0.5191  0.6275 -0.9658
  613MOL0     H80911   5.866   3.604  10.257 -1.7918 -0.8614 -0.8303
  613MOL0     H80912   5.622   3.599  10.180  1.3825  2.5107  0.8596
  613MOL0     H80913   5.678   3.595  10.013  0.9712 -0.5782 -1.1024
  613MOL0     H80914   5.712   3.201  10.163  2.7943  0.3985 -2.0572
  613MOL0     H80915   6.323   3.507  10.332 -0.7705  3.0643 -0.6424
  613MOL0     H80916   6.486   3.323  10.283  0.5703  1.3568 -0.9742
  614MOL0     O80917   1.267  10.735   8.598 -0.7315  0.4206 -1.1262
  614MOL0     C80918   1.267  10.839   8.671  0.5324  0.9462  0.2060
  614MOL0     O80919   1.161  10.921   8.693 -0.5621 -0.2947 -1.5445
  614MOL0     C80920   1.031  10.869   8.698  0.0570  0.5269 -0.0197
  614MOL0     C80921   0.923  10.954   8.678 -0.0021  0.6379 -0.3648
  614MOL0     C80922   0.799  10.906   8.662  0.2685  0.5196  0.4031
  614MOL0     C80923   0.766  10.767   8.671  0.2128  0.1059  0.9552
  614MOL0     O80924   0.647  10.722   8.630 -0.4273 -0.1500 -0.6448
  614MOL0     C80925   0.603  10.593   8.674  0.3142  0.4485 -0.7254
  614MOL0     C80926   0.478  10.564   8.592 -0.2658 -0.1737  0.4187
  614MOL0     C80927   0.360  10.653   8.645 -0.9886 -0.2726  0.3557
  614MOL0     C80928   0.224  10.610   8.603  0.0480 -0.0808 -0.3237
  614MOL0     C80929   0.127  10.662   8.711 -0.6616 -0.4143 -0.3707
  614MOL0     C80930   0.143  10.814   8.751 -0.3096 -0.2726  0.7499
  614MOL0     C80931   0.047  10.855   8.857  0.7019  0.1578  0.1312
  614MOL0     C80932  -0.054  10.956   8.802  0.2476  0.4045  0.0641
  614MOL0     N80933  -0.126  11.026   8.907 -0.6738  0.8670 -0.9939
  614MOL0     C80934  -0.195  10.962   9.014 -1.2669  0.4730 -0.4474
  614MOL0     C80935  -0.248  11.061   9.092 -0.7167  1.0598 -0.1768
  614MOL0     C80936  -0.323  11.029   9.219 -0.6780 -0.0362 -0.5158
  614MOL0     C80937  -0.410  11.141   9.266  0.0579 -0.3356 -0.6446
  614MOL0     C80938  -0.473  11.114   9.405  0.2716  0.3875  0.0296
  614MOL0     C80939  -0.537  11.241   9.464 -0.4450 -0.2529 -0.0941
  614MOL0     O80940  -0.573  11.204   9.598 -0.5248 -0.7501 -0.4630
  614MOL0     C80941  -0.695  11.140   9.618 -0.8558  0.3685 -0.7867
  614MOL0     C80942  -0.697  11.034   9.712  0.0604 -0.1652  0.1219
  614MOL0     C80943  -0.815  10.978   9.744  0.2727  0.0270 -0.3177
  614MOL0     C80944  -0.937  11.015   9.686  0.8632  0.6770  0.0358
  614MOL0     C80945  -1.066  10.955   9.729  0.8534  0.8553  0.0025
  614MOL0     O80946  -1.179  10.989   9.664 -0.4792  0.4249 -0.2060
  614MOL0     C80947  -1.309  10.942   9.691 -0.2411  0.5571  0.6692
  614MOL0     C80948  -1.330  10.815   9.741 -0.1216  0.7782  0.0325
  614MOL0     C80949  -1.454  10.764   9.763 -0.2892  0.1190 -0.4978
  614MOL0     C80950  -1.564  10.838   9.730  0.0016 -0.0608  0.8717
  614MOL0     O80951  -1.682  10.767   9.742  0.1317  0.1439 -0.0361
  614MOL0     C80952  -1.804  10.836   9.708 -0.3935 -0.3093  0.0074
  614MOL0     C80953  -1.908  10.733   9.748 -0.4765 -0.0039 -0.2624
  614MOL0     C80954  -1.904  10.706   9.900  0.5319 -0.4587 -0.6329
  614MOL0     C80955  -2.035  10.651   9.977 -0.1805 -0.0103 -0.6161
  614MOL0     C80956  -2.043  10.504   9.939 -0.9182  0.4957 -0.4072
  614MOL0     C80957  -2.153  10.451  10.031  0.7449 -0.3519  0.3609
  614MOL0     C80958  -2.155  10.293  10.022  0.0053 -0.0340 -0.3030
  614MOL0     C80959  -2.054  10.238  10.127  0.9912  0.1341 -0.0531
  614MOL0    Cl80960  -2.073  10.060  10.155  0.2113 -0.3129 -0.0381
  614MOL0     C80961  -1.547  10.968   9.672 -0.7058 -0.8796 -0.0371
  614MOL0     C80962  -1.418  11.024   9.654  0.3028  0.0586  0.6358
  614MOL0     O80963  -1.067  10.897   9.836  0.0629  0.2786  0.5264
  614MOL0     C80964  -0.932  11.109   9.582  0.7751 -0.7557  0.1671
  614MOL0     C80965  -0.813  11.172   9.550 -0.6653 -0.4504  0.5136
  614MOL0     N80966  -0.216  11.181   9.022  0.5565  0.1600 -0.5067
  614MOL0     N80967  -0.148  11.159   8.916 -0.0706  0.1598  0.0535
  614MOL0     C80968   0.868  10.684   8.728  0.3309  0.4482 -0.0710
  614MOL0     C80969   1.001  10.736   8.734  0.8524  0.7889 -0.3920
  614MOL0     C80970   1.401  10.880   8.712 -0.4010 -0.6602  0.0130
  614MOL0     C80971   1.515  10.814   8.664 -0.2788  0.4433  0.0006
  614MOL0     C80972   1.643  10.851   8.706  0.8522 -0.4249 -0.4932
  614MOL0     C80973   1.659  10.951   8.803  0.1245  0.4879  0.0032
  614MOL0     O80974   1.783  10.975   8.859  0.3488 -0.3889  0.1057
  614MOL0     C80975   1.902  10.912   8.803  0.9556 -0.2216 -0.4157
  614MOL0     C80976   2.022  10.963   8.882 -0.3899 -0.2259 -0.5925
  614MOL0     C80977   2.152  10.902   8.827  0.5526  0.0378  0.4049
  614MOL0     C80978   2.271  10.955   8.906  0.5370 -0.3867 -0.1732
  614MOL0     C80979   2.389  10.885   8.854 -0.8764  0.0112  0.3395
  614MOL0     C80980   2.480  10.815   8.818 -0.6896 -0.2506 -0.3975
  614MOL0     C80981   1.548  11.016   8.853  0.1094 -0.4131  0.2733
  614MOL0     C80982   1.426  10.983   8.798  0.7454 -0.2399  0.1820
  614MOL0     H80983   0.938  11.062   8.674 -1.2291  0.8112 -3.0727
  614MOL0     H80984   0.731  10.986   8.638  2.2781  1.6092 -2.1023
  614MOL0     H80985   0.579  10.580   8.780  1.3341 -1.3584 -0.6623
  614MOL0     H80986   0.675  10.515   8.646  2.2787 -0.0559  4.4572
  614MOL0     H80987   0.446  10.459   8.594 -0.5114 -0.2426 -2.8809
  614MOL0     H80988   0.488  10.589   8.487 -2.5132 -0.7755  0.0107
  614MOL0     H80989   0.375  10.758   8.619  1.8362 -0.8864 -0.8033
  614MOL0     H80990   0.362  10.635   8.753  1.8936 -1.4563  0.1804
  614MOL0     H80991   0.194  10.642   8.503 -1.9419 -1.0346 -0.1000
  614MOL0     H80992   0.220  10.501   8.601  0.8179 -0.2242  2.1013
  614MOL0     H80993   0.151  10.602   8.799  3.6714  1.1023 -0.2729
  614MOL0     H80994   0.020  10.651   8.693 -0.9125  2.1471 -0.8115
  614MOL0     H80995   0.144  10.883   8.665 -2.0311  1.0522  1.7190
  614MOL0     H80996   0.249  10.823   8.776  0.8137  2.5977 -3.7862
  614MOL0     H80997   0.005  10.764   8.902  2.1261  0.2363  1.7198
  614MOL0     H80998   0.107  10.914   8.927  1.3994 -2.4668  1.9166
  614MOL0     H80999  -0.133  10.905   8.746  0.1103  0.3693  0.2913
  614MOL0     H81000  -0.003  11.028   8.737 -0.0138  0.1128 -0.4764
  614MOL0     H81001  -0.197  10.858   9.044 -1.3128  0.2529 -1.2153
  614MOL0     H81002  -0.244  11.000   9.289 -0.4821  0.6195 -0.4620
  614MOL0     H81003  -0.391  10.945   9.203 -0.9642  0.1715 -0.4014
  614MOL0     H81004  -0.493  11.166   9.200 -1.3751 -0.7873  0.9186
  614MOL0     H81005  -0.332  11.217   9.274  0.9526 -1.3443  0.9993
  614MOL0     H81006  -0.553  11.040   9.401 -3.3433  3.9570 -0.0155
  614MOL0     H81007  -0.386  11.080   9.463  1.0825 -0.6192 -1.6827
  614MOL0     H81008  -0.617  11.281   9.401  0.2985  0.0994 -0.8401
  614MOL0     H81009  -0.460  11.318   9.468 -1.5482  0.9696 -1.5149
  614MOL0     H81010  -0.608  11.010   9.770  0.8573  1.3022 -0.4283
  614MOL0     H81011  -0.811  10.901   9.820  2.2847  0.7887  0.4049
  614MOL0     H81012  -1.243  10.766   9.786  0.7483  1.2428 -1.0989
  614MOL0     H81013  -1.456  10.671   9.820  1.0027 -1.7524 -3.2725
  614MOL0     H81014  -1.814  10.858   9.601  0.5031 -0.0527 -0.0274
  614MOL0     H81015  -1.813  10.929   9.764  0.6123 -0.1545 -0.0684
  614MOL0     H81016  -1.903  10.642   9.687  1.1866  0.4942 -0.9151
  614MOL0     H81017  -2.009  10.773   9.735 -0.7377  0.6010  2.8985
  614MOL0     H81018  -1.887  10.799   9.956  0.7305 -0.8877  0.0281
  614MOL0     H81019  -1.818  10.645   9.928  1.3441  1.2835  0.8757
  614MOL0     H81020  -2.027  10.656  10.085 -1.1818 -0.8414 -0.4793
  614MOL0     H81021  -2.127  10.703   9.946 -0.3744  0.3180  0.4736
  614MOL0     H81022  -1.953  10.453   9.975 -1.0202  0.6196  0.0306
  614MOL0     H81023  -2.058  10.498   9.831  1.5985  2.3673 -0.9748
  614MOL0     H81024  -2.250  10.482   9.990  0.3889 -0.1223  1.3623
  614MOL0     H81025  -2.135  10.486  10.133  0.9291 -0.5537  0.3972
  614MOL0     H81026  -2.253  10.249  10.040  0.2419 -0.4487 -0.0191
  614MOL0     H81027  -2.126  10.262   9.921 -1.8296  0.9732 -1.1973
  614MOL0     H81028  -2.055  10.296  10.221  1.8838  1.6807 -0.9454
  614MOL0     H81029  -1.952  10.248  10.087  0.4148 -0.0768 -1.6364
  614MOL0     H81030  -1.634  11.020   9.633 -1.3886 -0.7521  1.5682
  614MOL0     H81031  -1.406  11.120   9.604  3.6978 -0.8155 -0.4733
  614MOL0     H81032  -1.021  11.149   9.535  1.1414 -0.0569  0.0529
  614MOL0     H81033  -0.819  11.257   9.483 -1.6625  0.2598  1.4575
  614MOL0     H81034   0.855  10.578   8.749  0.6953 -0.2421 -2.9429
  614MOL0     H81035   1.074  10.665   8.773 -2.0538 -2.3148 -0.1616
  614MOL0     H81036   1.519  10.732   8.593  0.2383  0.6764 -0.2460
  614MOL0     H81037   1.730  10.804   8.661  3.0164  2.3392  0.5145
  614MOL0     H81038   1.922  10.947   8.702  0.3938  0.5311 -0.2825
  614MOL0     H81039   1.889  10.804   8.811  0.4780 -0.0516  1.9905
  614MOL0     H81040   2.031  11.071   8.865 -0.9449 -0.0840 -0.0395
  614MOL0     H81041   2.019  10.942   8.989  0.0908 -0.3049 -0.5954
  614MOL0     H81042   2.176  10.942   8.728  2.5195 -1.7645  0.0752
  614MOL0     H81043   2.143  10.793   8.821 -0.7496  0.1638 -0.3131
  614MOL0     H81044   2.274  11.064   8.896 -1.1131 -0.3619 -0.8554
  614MOL0     H81045   2.262  10.931   9.012 -0.0215 -0.2392 -0.1821
  614MOL0     H81046   2.560  10.752   8.783 -0.3565  0.1153 -0.2996
  614MOL0     H81047   1.550  11.087   8.935 -1.8166 -0.3172  0.2844
  614MOL0     H81048   1.341  11.036   8.839  0.5252 -0.5328  0.1057
  615MOL0     O81049   4.872   4.863   0.416  0.3014  0.1230 -0.5200
  615MOL0     C81050   4.831   4.813   0.313 -0.1205 -0.6184  0.1756
  615MOL0     O81051   4.736   4.858   0.237 -0.2348  0.9784 -0.1427
  615MOL0     C81052   4.690   4.983   0.268 -0.7158 -0.5073 -0.9124
  615MOL0     C81053   4.784   5.091   0.269  0.3199 -0.4098  0.5665
  615MOL0     C81054   4.745   5.224   0.272 -0.3590 -0.3043  0.2753
  615MOL0     C81055   4.611   5.256   0.292 -0.6757  0.6687 -0.5426
  615MOL0     O81056   4.586   5.386   0.311  0.1763 -0.0308 -0.3252
  615MOL0     C81057   4.446   5.426   0.304  1.1727 -0.0598  0.8998
  615MOL0     C81058   4.429   5.569   0.352 -0.3462 -0.4269 -0.8074
  615MOL0     C81059   4.432   5.581   0.514 -0.1179 -0.2905  0.2200
  615MOL0     C81060   4.451   5.726   0.563  1.2180  0.4804 -0.3576
  615MOL0     C81061   4.355   5.840   0.511 -1.0026 -0.3620 -0.0347
  615MOL0     C81062   4.206   5.825   0.553  0.4518 -0.5143  0.3986
  615MOL0     C81063   4.198   5.853   0.709  0.3541  0.4262 -0.4271
  615MOL0     C81064   4.148   5.725   0.786 -0.2435 -0.6111 -0.0252
  615MOL0     N81065   4.168   5.744   0.933  1.0279  0.0051 -0.4523
  615MOL0     C81066   4.080   5.791   1.029  0.7797  0.3875  0.1642
  615MOL0     C81067   4.152   5.786   1.142 -0.0970  0.0881  0.1095
  615MOL0     C81068   4.096   5.815   1.280  0.4090  0.3969 -1.1724
  615MOL0     C81069   4.038   5.692   1.349  0.5937  0.3485  0.0039
  615MOL0     C81070   3.890   5.665   1.307  0.0490 -0.4928 -0.7575
  615MOL0     C81071   3.833   5.536   1.381  0.5716 -0.7580 -0.2547
  615MOL0     O81072   3.828   5.552   1.520  0.6182 -0.0983  0.2992
  615MOL0     C81073   3.701   5.554   1.584  0.4889  0.0911  0.7009
  615MOL0     C81074   3.697   5.515   1.714  0.5520 -0.0801  0.3690
  615MOL0     C81075   3.567   5.499   1.778 -0.5866 -0.5540 -0.9063
  615MOL0     C81076   3.449   5.535   1.715 -0.3028  1.0297  0.6323
  615MOL0     C81077   3.324   5.517   1.792 -0.1148  0.4494  0.1307
  615MOL0     O81078   3.214   5.538   1.705  0.5310  0.2169  0.0300
  615MOL0     C81079   3.093   5.552   1.772 -0.2803  0.1814  0.3668
  615MOL0     C81080   3.015   5.670   1.784  0.8149 -0.3682 -0.0784
  615MOL0     C81081   2.891   5.674   1.860  0.1520  0.2296  1.1138
  615MOL0     C81082   2.840   5.556   1.915 -0.1447  0.1674 -0.5439
  615MOL0     O81083   2.713   5.541   1.976  0.1637 -0.5359 -0.1879
  615MOL0     C81084   2.615   5.648   1.961  0.6998 -0.5939  0.5460
  615MOL0     C81085   2.486   5.620   2.031 -0.2923  0.1424 -0.3075
  615MOL0     C81086   2.399   5.517   1.963 -0.2702 -0.0269  0.4379
  615MOL0     C81087   2.286   5.482   2.050  0.6971  0.1225  0.0024
  615MOL0     C81088   2.176   5.399   1.982  0.8815  0.1567 -0.3949
  615MOL0     C81089   2.046   5.400   2.061  0.3326 -0.1237  0.0431
  615MOL0     C81090   1.939   5.299   2.014  0.3538 -0.4720 -0.5809
  615MOL0     C81091   1.966   5.167   2.081 -0.6894 -0.1520 -0.5378
  615MOL0    Cl81092   1.837   5.051   2.057  0.1627  0.0694 -0.1150
  615MOL0     C81093   2.918   5.439   1.897  0.3049 -0.0383  0.0330
  615MOL0     C81094   3.039   5.433   1.830  0.4143  0.4443 -0.2209
  615MOL0     O81095   3.327   5.507   1.917  0.3094 -0.5357 -0.0280
  615MOL0     C81096   3.455   5.579   1.588  0.6856  0.6975  0.1303
  615MOL0     C81097   3.578   5.597   1.522 -0.2316 -0.3738 -0.5798
  615MOL0     N81098   4.285   5.742   1.103  0.0941  0.3255  0.1658
  615MOL0     N81099   4.293   5.710   0.981  0.2224 -0.5193  0.3092
  615MOL0     C81100   4.522   5.148   0.311  0.0103 -0.1823 -0.5765
  615MOL0     C81101   4.562   5.018   0.300 -0.2778 -0.6772 -0.5131
  615MOL0     C81102   4.886   4.678   0.272  0.8756  0.6262 -0.0239
  615MOL0     C81103   4.902   4.638   0.136  0.2317 -0.7526  0.7339
  615MOL0     C81104   4.953   4.510   0.108  0.4579  0.3902  0.0928
  615MOL0     C81105   4.979   4.424   0.213  0.3314 -0.1684 -0.0753
  615MOL0     O81106   5.022   4.304   0.161 -0.2318 -0.0887 -0.2508
  615MOL0     C81107   5.010   4.180   0.241 -0.9616  0.8841  0.8062
  615MOL0     C81108   5.152   4.149   0.285  0.2718  0.9803  0.3609
  615MOL0     C81109   5.166   4.005   0.335 -0.1387 -0.4483  0.8305
  615MOL0     C81110   5.095   3.960   0.466 -0.2400 -0.3657 -0.0436
  615MOL0     C81111   5.136   3.818   0.484  0.3867 -0.5020 -0.9455
  615MOL0     C81112   5.160   3.701   0.502  0.7335  0.1256  0.2531
  615MOL0     C81113   4.971   4.461   0.342 -0.2829  0.1881 -0.2301
  615MOL0     C81114   4.916   4.583   0.367  0.3362 -0.0299 -0.9756
  615MOL0     H81115   4.890   5.072   0.258  0.3514  0.8066 -1.6900
  615MOL0     H81116   4.827   5.294   0.265 -0.0188 -0.7827 -0.7566
  615MOL0     H81117   4.375   5.364   0.358 -1.3215  2.0100  0.2070
  615MOL0     H81118   4.399   5.430   0.206 -0.8168  5.6197  1.7175
  615MOL0     H81119   4.332   5.607   0.319  0.3467  2.5574  0.2639
  615MOL0     H81120   4.514   5.616   0.302 -0.6426 -1.4571 -2.3423
  615MOL0     H81121   4.504   5.508   0.554 -1.7095 -1.5820  0.8509
  615MOL0     H81122   4.347   5.531   0.560  0.6802  0.5128  2.7205
  615MOL0     H81123   4.455   5.719   0.672  0.6947 -3.3613 -0.4463
  615MOL0     H81124   4.555   5.750   0.536  2.4296 -0.8944  2.5751
  615MOL0     H81125   4.374   5.856   0.405  2.5061  0.7411  0.6284
  615MOL0     H81126   4.400   5.933   0.547 -0.8063  0.4395 -2.1986
  615MOL0     H81127   4.164   5.724   0.544  0.6995 -0.6464  0.7589
  615MOL0     H81128   4.148   5.896   0.493  0.9708 -1.5512 -1.4166
  615MOL0     H81129   4.300   5.875   0.742 -0.1613  0.3930  1.3180
  615MOL0     H81130   4.130   5.938   0.727 -2.0221 -0.9374 -2.3171
  615MOL0     H81131   4.195   5.636   0.745 -2.0522 -2.4487  1.6427
  615MOL0     H81132   4.042   5.727   0.759  0.2431  0.4008 -2.0708
  615MOL0     H81133   3.974   5.811   1.027  0.5111 -0.9081 -1.5093
  615MOL0     H81134   4.022   5.895   1.287  0.3281  0.1735  2.0647
  615MOL0     H81135   4.184   5.844   1.339 -0.0922  1.7608 -1.0717
  615MOL0     H81136   4.034   5.710   1.457 -2.5269 -2.6311  0.5755
  615MOL0     H81137   4.101   5.603   1.334  3.5129  1.8870  2.1250
  615MOL0     H81138   3.821   5.750   1.311  1.0992  0.3857  3.3316
  615MOL0     H81139   3.901   5.643   1.201  1.2664  1.8177 -1.1676
  615MOL0     H81140   3.914   5.466   1.359  2.4724  1.6897 -1.4997
  615MOL0     H81141   3.738   5.510   1.334 -0.3426  0.3198  0.8949
  615MOL0     H81142   3.785   5.493   1.774 -0.2794 -0.1539  1.5997
  615MOL0     H81143   3.559   5.472   1.883 -2.0976  2.3893 -0.1508
  615MOL0     H81144   3.051   5.762   1.737 -1.6516 -0.3613 -2.1828
  615MOL0     H81145   2.833   5.765   1.857  0.4577  0.4022 -1.0749
  615MOL0     H81146   2.605   5.663   1.853  2.1501  1.3092  0.6267
  615MOL0     H81147   2.655   5.739   2.005  0.1931 -0.2725  0.3499
  615MOL0     H81148   2.425   5.711   2.032  0.9134  0.9841 -1.1714
  615MOL0     H81149   2.517   5.589   2.131  0.2038 -0.1430 -0.5477
  615MOL0     H81150   2.463   5.433   1.932 -1.6559 -1.3076  0.9157
  615MOL0     H81151   2.353   5.573   1.882 -0.0899  3.0895  2.3392
  615MOL0     H81152   2.334   5.432   2.135  5.1387  3.7842  0.0390
  615MOL0     H81153   2.244   5.571   2.097  0.9996  0.0415  0.4306
  615MOL0     H81154   2.204   5.296   1.960  1.2441  0.4869 -1.5316
  615MOL0     H81155   2.146   5.449   1.890  0.6391  0.9689  0.1118
  615MOL0     H81156   2.000   5.499   2.048  0.0948  0.0832  2.1083
  615MOL0     H81157   2.057   5.389   2.169 -0.5462  0.2806  0.1845
  615MOL0     H81158   1.838   5.320   2.051  0.1719 -2.9813  0.5992
  615MOL0     H81159   1.948   5.276   1.908  0.2311 -2.5883 -0.1934
  615MOL0     H81160   1.977   5.185   2.189  3.2990  1.5458 -1.0615
  615MOL0     H81161   2.056   5.118   2.044  0.3685 -0.7106  2.4908
  615MOL0     H81162   2.880   5.344   1.933 -0.3333  1.3709  3.3821
  615MOL0     H81163   3.089   5.339   1.811 -2.2974 -0.9525 -1.0636
  615MOL0     H81164   3.365   5.615   1.539  1.3383  2.0994 -0.0793
  615MOL0     H81165   3.594   5.618   1.417 -0.0507 -1.4288 -0.7705
  615MOL0     H81166   4.414   5.160   0.314 -0.0846 -0.8230  2.4986
  615MOL0     H81167   4.481   4.946   0.291  0.0057 -1.4343  2.2329
  615MOL0     H81168   4.871   4.710   0.061 -0.5855 -1.2539  0.5755
  615MOL0     H81169   4.987   4.480   0.010  1.4491  1.6646  0.0258
  615MOL0     H81170   4.973   4.096   0.181  0.9616 -0.5336  1.4846
  615MOL0     H81171   4.950   4.187   0.332 -0.4239  1.2354  1.1358
  615MOL0     H81172   5.223   4.163   0.203  0.8609  1.1618  0.8932
  615MOL0     H81173   5.177   4.218   0.366 -1.8411 -0.1684  2.0863
  615MOL0     H81174   5.273   3.993   0.357 -0.4170 -1.7275  1.6077
  615MOL0     H81175   5.134   3.937   0.255 -1.9105 -1.6919  2.5131
  615MOL0     H81176   5.121   4.016   0.556 -1.3698 -1.7934  1.2136
  615MOL0     H81177   4.987   3.954   0.450 -0.5084  0.7982  1.1829
  615MOL0     H81178   5.184   3.598   0.516 -3.5857 -0.8449  2.0970
  615MOL0     H81179   4.989   4.396   0.428  0.8487 -0.4246 -0.9020
  615MOL0     H81180   4.907   4.610   0.472  1.2952  0.3864 -0.9920
  616MOL0     O81181   2.709   9.150   2.766 -0.2076  0.7302 -0.0666
  616MOL0     C81182   2.703   9.217   2.663  0.0319  0.2897  0.4575
  616MOL0     O81183   2.777   9.195   2.552  0.1396 -0.6345  0.5063
  616MOL0     C81184   2.889   9.113   2.565  0.6065 -0.5242  0.4518
  616MOL0     C81185   2.916   9.013   2.472  0.2181 -0.0355 -0.1266
  616MOL0     C81186   3.034   8.939   2.462  0.0392  0.1222  0.6374
  616MOL0     C81187   3.139   8.964   2.556 -0.1964  0.5754  0.2673
  616MOL0     O81188   3.261   8.900   2.536  0.1239 -0.5901 -0.6096
  616MOL0     C81189   3.370   8.911   2.630 -0.6577  0.5279 -0.1632
  616MOL0     C81190   3.496   8.891   2.550 -0.3769 -0.4480  0.4327
  616MOL0     C81191   3.630   8.920   2.629  0.3717 -0.1711  0.4746
  616MOL0     C81192   3.761   8.862   2.564  0.2745 -0.7373  0.5429
  616MOL0     C81193   3.882   8.915   2.639 -0.0859 -0.1640 -0.4319
  616MOL0     C81194   4.013   8.862   2.575  0.2645  0.4019  0.1530
  616MOL0     C81195   4.141   8.884   2.660  1.4264 -0.1308  0.4839
  616MOL0     C81196   4.210   9.019   2.652 -0.9772  0.0231  0.0055
  616MOL0     N81197   4.351   8.993   2.675 -0.6248  0.7030 -0.2024
  616MOL0     C81198   4.454   8.975   2.576  0.2056  0.4204 -0.6950
  616MOL0     C81199   4.568   8.956   2.650  0.3704 -0.3683 -0.3421
  616MOL0     C81200   4.699   8.900   2.601  0.3225 -0.6897 -0.5760
  616MOL0     C81201   4.677   8.745   2.591 -0.5638 -0.3605 -0.4291
  616MOL0     C81202   4.623   8.673   2.716 -0.0448  0.4020 -0.5137
  616MOL0     C81203   4.590   8.526   2.684 -0.1832  0.3239  0.4591
  616MOL0     O81204   4.498   8.506   2.578 -0.6660  0.0358 -0.3510
  616MOL0     C81205   4.366   8.503   2.621 -0.1813  0.9657  1.1509
  616MOL0     C81206   4.320   8.554   2.743 -0.1358 -0.0151  0.8707
  616MOL0     C81207   4.184   8.554   2.776 -0.5403  0.8767  0.0980
  616MOL0     C81208   4.089   8.507   2.695  0.5727  0.1273  0.6380
  616MOL0     C81209   3.948   8.527   2.725 -0.3497  0.4168  0.1262
  616MOL0     O81210   3.906   8.609   2.833  0.0485  0.0113  0.0951
  616MOL0     C81211   3.771   8.623   2.870 -0.3083  0.6035 -0.7064
  616MOL0     C81212   3.732   8.752   2.928  0.1169  0.2946  0.5033
  616MOL0     C81213   3.596   8.779   2.957 -0.1907  1.1716  0.0932
  616MOL0     C81214   3.497   8.694   2.925  0.1545  0.0353 -0.5347
  616MOL0     O81215   3.374   8.729   2.970 -0.4154 -0.6606 -0.3849
  616MOL0     C81216   3.262   8.653   2.924  0.8201  0.0799  0.3737
  616MOL0     C81217   3.138   8.730   2.952  0.6116 -0.6422  0.3440
  616MOL0     C81218   3.015   8.677   2.899 -0.1478  1.0710 -0.4487
  616MOL0     C81219   3.013   8.662   2.743 -0.2636 -0.0441 -0.7276
  616MOL0     C81220   2.875   8.687   2.695 -0.4726  0.2714  0.2396
  616MOL0     C81221   2.763   8.587   2.722 -0.0704  0.2874  0.1325
  616MOL0     C81222   2.634   8.653   2.666 -0.1472 -0.3390  0.5984
  616MOL0     C81223   2.509   8.583   2.702 -0.6997 -0.1243  0.2806
  616MOL0    Cl81224   2.543   8.406   2.673  0.2072  0.0775 -0.0265
  616MOL0     C81225   3.526   8.568   2.865 -0.9458 -0.5527 -0.2704
  616MOL0     C81226   3.665   8.532   2.844  0.5227  0.4667 -0.7588
  616MOL0     O81227   3.872   8.469   2.649 -0.2234  0.0556  0.1059
  616MOL0     C81228   4.129   8.453   2.576  0.5243 -0.5021  1.0853
  616MOL0     C81229   4.266   8.449   2.535  0.2670 -0.9151 -0.5075
  616MOL0     N81230   4.538   8.977   2.787 -0.3293 -0.2115 -0.1489
  616MOL0     N81231   4.410   8.998   2.802 -0.0246 -0.1763 -0.0888
  616MOL0     C81232   3.106   9.053   2.663  0.3570 -0.2161  0.0563
  616MOL0     C81233   2.989   9.141   2.654 -0.1255  0.4235 -0.5511
  616MOL0     C81234   2.590   9.307   2.648 -0.4305 -0.0267 -0.0214
  616MOL0     C81235   2.497   9.325   2.754  0.9143  0.1446  0.0451
  616MOL0     C81236   2.382   9.397   2.734 -0.1343  0.1096  0.5608
  616MOL0     C81237   2.359   9.474   2.616  0.1643 -0.1698 -1.6334
  616MOL0     O81238   2.249   9.554   2.594  0.1928 -0.1395 -0.0183
  616MOL0     C81239   2.148   9.567   2.698 -0.1672  0.3028 -0.1368
  616MOL0     C81240   2.021   9.634   2.642 -0.6818  0.4989  0.3331
  616MOL0     C81241   2.015   9.783   2.654 -0.1820 -0.3035  0.3344
  616MOL0     C81242   2.146   9.865   2.668 -0.6290  0.1393 -0.3359
  616MOL0     C81243   2.227   9.871   2.553 -0.5977 -0.1953  0.5978
  616MOL0     C81244   2.317   9.851   2.473  0.4096  1.5819  0.1632
  616MOL0     C81245   2.447   9.461   2.517 -0.3514 -0.0818  0.4224
  616MOL0     C81246   2.571   9.389   2.531 -0.3680 -0.2181 -0.6242
  616MOL0     H81247   2.830   8.984   2.413  1.4026 -1.3607 -1.2801
  616MOL0     H81248   3.064   8.878   2.378  0.9943  2.7554 -1.0645
  616MOL0     H81249   3.355   8.836   2.708  0.6868  1.2245  0.8040
  616MOL0     H81250   3.380   9.010   2.676  0.7486 -0.2349  1.2762
  616MOL0     H81251   3.502   8.967   2.471  2.7916 -0.5841  0.4103
  616MOL0     H81252   3.501   8.790   2.510  1.1661  0.2633 -1.3407
  616MOL0     H81253   3.631   8.875   2.729  1.7904  0.1356  0.6220
  616MOL0     H81254   3.650   9.028   2.623  2.7127 -0.6196 -2.2836
  616MOL0     H81255   3.757   8.753   2.573  0.8121 -0.6085  3.2829
  616MOL0     H81256   3.779   8.880   2.458  1.9914 -2.5312  0.4690
  616MOL0     H81257   3.873   8.883   2.743 -0.3035 -1.3042 -0.7847
  616MOL0     H81258   3.876   9.024   2.628 -0.4798  0.2642  3.0773
  616MOL0     H81259   4.028   8.908   2.477  1.8223 -1.0248 -0.3216
  616MOL0     H81260   3.986   8.758   2.553 -0.0705  0.5542 -0.1596
  616MOL0     H81261   4.098   8.886   2.760 -1.6949  0.5386 -0.7372
  616MOL0     H81262   4.199   8.794   2.641 -0.4524 -1.2946 -0.0385
  616MOL0     H81263   4.181   9.094   2.726  0.3714  2.1768 -1.5611
  616MOL0     H81264   4.206   9.077   2.559  1.4970  0.6721  0.2496
  616MOL0     H81265   4.456   8.970   2.468  1.1474 -1.5774 -0.6522
  616MOL0     H81266   4.783   8.929   2.666 -0.3374 -1.3515  0.6204
  616MOL0     H81267   4.718   8.940   2.502 -0.1493  2.3986  0.4912
  616MOL0     H81268   4.772   8.704   2.555  1.3306  2.7206  0.6222
  616MOL0     H81269   4.602   8.723   2.515 -1.3760 -0.9251  0.5169
  616MOL0     H81270   4.699   8.669   2.795 -1.4999 -2.1924  0.9249
  616MOL0     H81271   4.540   8.726   2.765 -1.0928 -0.8937 -0.8304
  616MOL0     H81272   4.567   8.473   2.777  0.8649  0.4121  0.7868
  616MOL0     H81273   4.682   8.479   2.646 -0.0634  0.2078  0.8804
  616MOL0     H81274   4.389   8.600   2.814 -0.9271  2.8367 -0.0510
  616MOL0     H81275   4.161   8.585   2.877  0.9402 -0.3702  0.8721
  616MOL0     H81276   3.812   8.817   2.961  1.9376 -0.5611 -1.9333
  616MOL0     H81277   3.572   8.872   3.008 -1.8030  0.3696  0.8543
  616MOL0     H81278   3.253   8.554   2.971  1.3133  0.3773  1.1086
  616MOL0     H81279   3.275   8.630   2.818 -1.9976 -2.7289  0.4814
  616MOL0     H81280   3.148   8.834   2.919 -0.2658 -1.2750 -2.0997
  616MOL0     H81281   3.123   8.734   3.061 -0.5228 -3.1897  0.3455
  616MOL0     H81282   2.931   8.733   2.940  1.2556  0.8681  2.9983
  616MOL0     H81283   3.002   8.579   2.947  2.5983  1.0410  0.4051
  616MOL0     H81284   3.083   8.729   2.692  1.3619 -2.1449 -1.4289
  616MOL0     H81285   3.048   8.562   2.717 -0.2358  0.1789 -1.5909
  616MOL0     H81286   2.881   8.702   2.587 -2.2083  0.6778  0.1823
  616MOL0     H81287   2.839   8.786   2.726  1.1939 -0.2264  4.4825
  616MOL0     H81288   2.760   8.564   2.829  1.0409 -2.9554 -0.4021
  616MOL0     H81289   2.802   8.498   2.671 -0.8235  0.0806 -0.0887
  616MOL0     H81290   2.618   8.744   2.725 -3.3387 -1.5741  1.8505
  616MOL0     H81291   2.631   8.666   2.558 -2.6688 -2.0113  0.3989
  616MOL0     H81292   2.424   8.623   2.646 -0.8100  1.4423  1.5053
  616MOL0     H81293   2.495   8.583   2.811 -0.2703 -1.8616  0.3722
  616MOL0     H81294   3.449   8.496   2.837 -1.2131 -1.5232  2.6229
  616MOL0     H81295   3.679   8.434   2.799 -1.8568 -1.2185  1.8210
  616MOL0     H81296   4.049   8.415   2.513 -0.2201  2.8389 -0.2358
  616MOL0     H81297   4.306   8.400   2.447  0.9178  0.6662 -1.1142
  616MOL0     H81298   3.173   9.074   2.746  0.4591 -0.2755 -0.0096
  616MOL0     H81299   2.975   9.221   2.727  3.2338  1.8257 -1.2500
  616MOL0     H81300   2.514   9.273   2.847  3.1635  1.8877  0.6768
  616MOL0     H81301   2.310   9.397   2.815 -0.2216 -3.7575  0.6691
  616MOL0     H81302   2.175   9.618   2.791 -0.7665 -0.4148  0.4457
  616MOL0     H81303   2.120   9.466   2.731  0.1147  0.3414  0.2348
  616MOL0     H81304   2.002   9.605   2.538 -1.0558  2.9998 -0.3558
  616MOL0     H81305   1.941   9.586   2.699  1.1764 -1.3987  1.4758
  616MOL0     H81306   1.955   9.801   2.744 -0.4308 -5.6962  1.5771
  616MOL0     H81307   1.962   9.818   2.565  1.8744 -0.3338 -0.9485
  616MOL0     H81308   2.115   9.964   2.704  0.3784 -0.4236  2.3704
  616MOL0     H81309   2.218   9.824   2.740  1.2624 -0.2080 -2.3056
  616MOL0     H81310   2.400   9.837   2.407  2.1926 -2.2816  2.8108
  616MOL0     H81311   2.433   9.513   2.423  0.8009  0.3292  0.4605
  616MOL0     H81312   2.638   9.392   2.445 -0.7123 -1.2428 -0.9393
  617MOL0     O81313   5.608   4.207   2.851  0.6218 -0.0218 -0.3346
  617MOL0     C81314   5.675   4.181   2.953 -0.1024  0.5249 -0.5139
  617MOL0     O81315   5.626   4.128   3.067 -1.0762  0.1637  0.1704
  617MOL0     C81316   5.499   4.096   3.085  0.3254  0.5949  0.1428
  617MOL0     C81317   5.421   4.175   3.160 -0.8216 -0.9330 -0.2967
  617MOL0     C81318   5.290   4.159   3.185  0.3373  0.3530  0.0068
  617MOL0     C81319   5.225   4.045   3.125  0.1616 -0.3724  0.3663
  617MOL0     O81320   5.092   4.020   3.144 -0.0311 -0.2314  0.0098
  617MOL0     C81321   5.033   4.080   3.264 -0.5823 -0.4852 -0.2656
  617MOL0     C81322   4.901   4.014   3.296  0.2680  0.2488  0.4708
  617MOL0     C81323   4.812   3.973   3.177  0.0378  0.0442  0.7334
  617MOL0     C81324   4.668   3.908   3.210  0.0209  0.7538  0.0230
  617MOL0     C81325   4.639   3.778   3.139  0.7202 -0.0247 -0.7101
  617MOL0     C81326   4.500   3.717   3.182  0.8893 -0.1521  0.7686
  617MOL0     C81327   4.500   3.669   3.322 -0.3022 -0.3351  0.3006
  617MOL0     C81328   4.360   3.626   3.371  0.2983 -0.4620  0.3637
  617MOL0     N81329   4.285   3.749   3.403 -0.3323  0.3323 -0.3128
  617MOL0     C81330   4.280   3.805   3.525 -0.4103  0.7238 -0.3875
  617MOL0     C81331   4.174   3.896   3.518 -0.1240 -0.4635  0.1163
  617MOL0     C81332   4.137   3.978   3.636  0.2217 -1.3984  0.3875
  617MOL0     C81333   3.984   4.002   3.651  0.4277  0.5168 -0.2096
  617MOL0     C81334   3.926   3.873   3.716 -0.5148  0.2091  0.2111
  617MOL0     C81335   3.768   3.885   3.730 -1.0975 -0.4433 -1.0839
  617MOL0     O81336   3.734   4.020   3.786  0.0747  1.0232 -0.4406
  617MOL0     C81337   3.609   4.013   3.843  0.0570 -0.6079 -0.3492
  617MOL0     C81338   3.589   4.089   3.958  0.8451  0.3026  0.1752
  617MOL0     C81339   3.465   4.092   4.025 -0.4478 -0.1304  0.6062
  617MOL0     C81340   3.359   4.013   3.987 -0.5115 -0.1284 -0.0823
  617MOL0     C81341   3.232   4.014   4.064  0.4794 -0.3828 -0.0219
  617MOL0     O81342   3.153   3.905   4.054  0.5488 -0.3165  0.1707
  617MOL0     C81343   3.041   3.891   4.141  0.4870  0.1588 -0.2105
  617MOL0     C81344   3.045   3.794   4.248 -0.1685  0.2700 -0.4888
  617MOL0     C81345   2.940   3.782   4.338  0.3405  0.3761  0.0457
  617MOL0     C81346   2.817   3.845   4.313  0.0200 -0.2751 -0.4884
  617MOL0     O81347   2.697   3.848   4.391 -0.0889  0.2543 -0.1306
  617MOL0     C81348   2.689   3.752   4.495  0.1391 -0.1528  0.2160
  617MOL0     C81349   2.552   3.722   4.544  0.0378 -0.2381 -0.4683
  617MOL0     C81350   2.453   3.671   4.441  0.3928  0.3083  0.7913
  617MOL0     C81351   2.308   3.664   4.503 -0.0266 -0.7345 -0.2185
  617MOL0     C81352   2.232   3.796   4.525 -0.0004  0.0296  0.4690
  617MOL0     C81353   2.079   3.785   4.535 -0.7249 -0.3512  0.2701
  617MOL0     C81354   2.034   3.714   4.660 -0.2376 -0.3343 -1.2016
  617MOL0     C81355   1.880   3.703   4.690 -0.0222 -0.3789 -1.0786
  617MOL0    Cl81356   1.799   3.860   4.706  0.0047 -0.1154  0.5509
  617MOL0     C81357   2.814   3.941   4.209 -0.2230  0.3530 -0.4285
  617MOL0     C81358   2.928   3.965   4.126  0.2614 -0.5234  0.1547
  617MOL0     O81359   3.212   4.104   4.154 -0.5013  0.0910 -0.4310
  617MOL0     C81360   3.383   3.939   3.866 -1.4123  0.5655 -0.4323
  617MOL0     C81361   3.508   3.939   3.795  0.1022  0.4929  0.4279
  617MOL0     N81362   4.123   3.895   3.388 -0.5461  0.2303 -0.3848
  617MOL0     N81363   4.195   3.814   3.322 -0.1565  0.2173 -0.0269
  617MOL0     C81364   5.307   3.954   3.044  0.0770 -0.1887  1.1100
  617MOL0     C81365   5.437   3.986   3.024  0.2957  1.1364  0.9142
  617MOL0     C81366   5.822   4.209   2.951 -0.4538 -0.5054 -0.1862
  617MOL0     C81367   5.879   4.310   2.865 -0.1012  0.3674  0.2155
  617MOL0     C81368   6.016   4.331   2.852  0.2301  0.2659  0.3800
  617MOL0     C81369   6.103   4.266   2.941  0.4238  0.9149  0.3326
  617MOL0     O81370   6.238   4.286   2.928  0.5677  1.0198 -0.1894
  617MOL0     C81371   6.301   4.353   3.040 -0.1413  0.6088  0.0437
  617MOL0     C81372   6.434   4.410   2.985 -0.5041  0.4218  0.4222
  617MOL0     C81373   6.439   4.483   2.848  0.0977  0.0634  0.3377
  617MOL0     C81374   6.338   4.604   2.847 -0.7177  0.0457  0.0361
  617MOL0     C81375   6.380   4.700   2.744 -0.2631 -0.2148  0.0633
  617MOL0     C81376   6.411   4.793   2.674  0.2549  0.3804  0.0978
  617MOL0     C81377   6.051   4.177   3.033 -0.0439 -0.2009 -0.0449
  617MOL0     C81378   5.913   4.149   3.037  0.6472 -0.1098 -0.0762
  617MOL0     H81379   5.470   4.262   3.203 -2.8567  0.1816 -0.1595
  617MOL0     H81380   5.244   4.234   3.249 -1.2517 -0.8315  0.3272
  617MOL0     H81381   5.024   4.189   3.256  1.6309 -0.3130 -1.3248
  617MOL0     H81382   5.101   4.064   3.348  0.3526  0.9675 -0.6984
  617MOL0     H81383   4.840   4.071   3.367 -0.3596 -0.1531  0.2581
  617MOL0     H81384   4.934   3.923   3.348 -1.3358  0.1803  1.4465
  617MOL0     H81385   4.861   3.900   3.112  0.4483  0.5980  0.4214
  617MOL0     H81386   4.800   4.062   3.116  0.2024  0.4602  1.3007
  617MOL0     H81387   4.654   3.886   3.317  2.6666  0.7632  0.4550
  617MOL0     H81388   4.592   3.983   3.187  1.6115  1.8177 -2.0384
  617MOL0     H81389   4.714   3.701   3.160  4.2677  2.7437 -2.2943
  617MOL0     H81390   4.621   3.784   3.031 -2.2252 -2.8725 -0.5425
  617MOL0     H81391   4.469   3.635   3.117 -1.5018  0.9979  0.3166
  617MOL0     H81392   4.427   3.799   3.176  0.9580 -0.0598  1.2005
  617MOL0     H81393   4.565   3.581   3.321  0.9003  0.4084 -3.5783
  617MOL0     H81394   4.547   3.741   3.390  1.7538 -0.3031 -1.0722
  617MOL0     H81395   4.371   3.574   3.467 -0.0283 -0.7866  0.2260
  617MOL0     H81396   4.305   3.567   3.298 -1.0688  1.9999 -0.7190
  617MOL0     H81397   4.333   3.789   3.618 -0.5408 -0.8105 -0.5612
  617MOL0     H81398   4.190   4.071   3.611  2.4363 -3.1312 -1.8677
  617MOL0     H81399   4.179   3.945   3.732  0.4899 -0.8170  0.4776
  617MOL0     H81400   3.930   4.020   3.557 -0.0106 -1.9613 -0.4967
  617MOL0     H81401   3.973   4.097   3.704  1.6200  1.8449 -2.1938
  617MOL0     H81402   3.943   3.783   3.657 -0.0312  1.1640 -1.1551
  617MOL0     H81403   3.981   3.862   3.810  1.1445 -1.6068 -0.9065
  617MOL0     H81404   3.722   3.803   3.786 -1.0043 -0.1260 -0.5329
  617MOL0     H81405   3.724   3.885   3.630 -2.2419  1.4030 -0.6230
  617MOL0     H81406   3.661   4.163   3.991  0.4401  0.0396  1.7304
  617MOL0     H81407   3.451   4.162   4.106 -2.9269  1.7814 -1.3219
  617MOL0     H81408   3.147   3.761   4.269  0.0695  1.1670 -0.1589
  617MOL0     H81409   2.943   3.717   4.425 -0.1609 -1.4845 -1.2575
  617MOL0     H81410   2.754   3.805   4.565 -0.8218  1.0156  0.2520
  617MOL0     H81411   2.734   3.659   4.460 -3.1612 -1.5489 -0.7223
  617MOL0     H81412   2.511   3.817   4.579 -0.5384 -1.0961  1.3258
  617MOL0     H81413   2.553   3.659   4.634  0.0162  0.0692 -0.2523
  617MOL0     H81414   2.486   3.571   4.411  2.2940  1.7836 -2.5654
  617MOL0     H81415   2.451   3.726   4.347 -1.7111 -2.5464 -1.0067
  617MOL0     H81416   2.246   3.603   4.436  0.9611 -0.1650 -1.7034
  617MOL0     H81417   2.305   3.614   4.601  1.9479  2.2385  1.5221
  617MOL0     H81418   2.248   3.855   4.434  2.1510 -3.8635 -1.9653
  617MOL0     H81419   2.266   3.855   4.610 -3.5584  1.6366  1.0020
  617MOL0     H81420   2.042   3.733   4.445  0.5943  1.7880 -1.6241
  617MOL0     H81421   2.036   3.886   4.531 -2.5179 -1.0042  1.7069
  617MOL0     H81422   2.075   3.614   4.646 -3.8773 -2.0402 -0.8584
  617MOL0     H81423   2.084   3.759   4.746 -3.1631  1.3363 -0.2082
  617MOL0     H81424   1.860   3.650   4.783  2.2180  0.3622 -0.1074
  617MOL0     H81425   1.837   3.639   4.612 -0.4256 -0.6296 -0.6504
  617MOL0     H81426   2.720   3.990   4.187 -1.0925  0.1702  2.4996
  617MOL0     H81427   2.913   4.040   4.049  0.4841 -0.5608  0.0756
  617MOL0     H81428   3.308   3.869   3.831 -0.0510 -2.0833  1.5558
  617MOL0     H81429   3.524   3.867   3.715  2.6216  1.6244 -0.2057
  617MOL0     H81430   5.256   3.870   2.996 -1.2530  0.4447  1.3730
  617MOL0     H81431   5.496   3.920   2.961  0.0461  1.4368  0.3601
  617MOL0     H81432   5.815   4.368   2.799  0.7441  1.5064  0.3804
  617MOL0     H81433   6.047   4.409   2.783 -2.3768  0.7623 -0.3379
  617MOL0     H81434   6.317   4.277   3.117  0.8725  0.0973 -0.6408
  617MOL0     H81435   6.229   4.430   3.070  0.1520  0.4604  1.1759
  617MOL0     H81436   6.484   4.478   3.055  0.9302 -1.7133  1.5828
  617MOL0     H81437   6.490   4.316   2.975 -3.1202 -0.9519 -3.4821
  617MOL0     H81438   6.412   4.411   2.770  4.0043 -0.4564 -0.7415
  617MOL0     H81439   6.542   4.516   2.831  0.4825 -0.0656  2.2144
  617MOL0     H81440   6.241   4.565   2.814  0.1450 -0.6626 -1.8331
  617MOL0     H81441   6.345   4.649   2.946  0.4412  0.0454 -0.0302
  617MOL0     H81442   6.449   4.874   2.614  0.5568  0.2167  0.0650
  617MOL0     H81443   6.118   4.124   3.100 -0.1464 -2.0929 -1.3322
  617MOL0     H81444   5.875   4.089   3.119 -2.0132  1.5482  0.0089
  618MOL0     O81445   0.108   1.263   7.267  0.1067  0.1649  0.9356
  618MOL0     C81446   0.182   1.178   7.326  0.3762 -0.3070  0.3350
  618MOL0     O81447   0.142   1.079   7.407  0.6976  0.2531  0.2026
  618MOL0     C81448   0.008   1.056   7.422  0.6421  0.3530 -1.1337
  618MOL0     C81449  -0.077   1.041   7.308 -0.9910  0.7466 -0.5602
  618MOL0     C81450  -0.211   1.020   7.312 -0.0201  0.1352 -0.1893
  618MOL0     C81451  -0.276   1.031   7.438  0.1214 -0.0037 -0.4775
  618MOL0     O81452  -0.415   1.016   7.442  0.5580  0.2543  1.1030
  618MOL0     C81453  -0.497   1.112   7.504 -0.1633  0.6083  0.0472
  618MOL0     C81454  -0.644   1.074   7.463 -0.6520  0.3118 -1.0690
  618MOL0     C81455  -0.738   1.173   7.529  0.4781 -0.0758 -0.5571
  618MOL0     C81456  -0.880   1.160   7.467 -0.7552  0.9794  1.1866
  618MOL0     C81457  -0.974   1.270   7.515 -0.4545  0.3347  0.0013
  618MOL0     C81458  -1.092   1.281   7.423 -1.1891 -0.4542  0.1478
  618MOL0     C81459  -1.183   1.152   7.418 -0.2424  0.1870  0.3347
  618MOL0     C81460  -1.315   1.151   7.339 -1.2165 -0.3739  0.3672
  618MOL0     N81461  -1.413   1.244   7.392  0.2194  0.3069 -0.1311
  618MOL0     C81462  -1.450   1.259   7.525  0.2810 -0.7867  0.4262
  618MOL0     C81463  -1.574   1.316   7.520  0.0934 -0.0799 -1.1373
  618MOL0     C81464  -1.660   1.362   7.635 -0.1634 -0.8089 -0.1068
  618MOL0     C81465  -1.633   1.499   7.682 -0.6725 -0.0576  0.2343
  618MOL0     C81466  -1.501   1.525   7.756 -0.4803  0.5226  0.6895
  618MOL0     C81467  -1.489   1.477   7.901  1.1930 -0.2405  0.0824
  618MOL0     O81468  -1.496   1.334   7.903  0.2410  0.2646 -0.3105
  618MOL0     C81469  -1.386   1.253   7.881 -0.2610  0.7105  0.4566
  618MOL0     C81470  -1.256   1.302   7.861 -0.3172  0.1032 -0.4273
  618MOL0     C81471  -1.144   1.213   7.848 -0.1173 -0.6685 -0.1596
  618MOL0     C81472  -1.171   1.073   7.862 -0.2505  0.1269  0.1312
  618MOL0     C81473  -1.064   0.976   7.858 -0.2227  0.7547  0.7237
  618MOL0     O81474  -1.105   0.853   7.905 -0.6837  0.3487  0.3898
  618MOL0     C81475  -1.007   0.760   7.948  0.6037 -0.1436 -0.5097
  618MOL0     C81476  -1.033   0.632   7.923 -0.3519  0.3567  1.2436
  618MOL0     C81477  -0.943   0.537   7.963  0.6591  0.5291  0.0134
  618MOL0     C81478  -0.838   0.560   8.038  0.0286  0.4317 -0.2412
  618MOL0     O81479  -0.770   0.446   8.073 -0.1300 -0.3631 -0.2834
  618MOL0     C81480  -0.635   0.460   8.123 -0.6374  0.0719  0.3452
  618MOL0     C81481  -0.563   0.329   8.087  0.0095  0.0857  0.8529
  618MOL0     C81482  -0.645   0.207   8.135 -0.2546 -0.4209 -0.1047
  618MOL0     C81483  -0.549   0.089   8.134 -0.2721  0.1310 -0.5371
  618MOL0     C81484  -0.634  -0.040   8.148 -0.1721 -0.0805 -0.2012
  618MOL0     C81485  -0.525  -0.158   8.134 -0.0181  0.6142  0.1747
  618MOL0     C81486  -0.588  -0.290   8.180 -0.0385 -0.2857 -0.1125
  618MOL0     C81487  -0.499  -0.407   8.138  0.2021  0.0096 -0.1958
  618MOL0    Cl81488  -0.528  -0.414   7.951 -0.1978 -0.0109  0.1138
  618MOL0     C81489  -0.803   0.697   8.065  0.8185  0.8843 -0.1739
  618MOL0     C81490  -0.894   0.794   8.022  0.1765  0.2427  0.4646
  618MOL0     O81491  -0.954   1.013   7.816  0.3488  0.3406  0.1531
  618MOL0     C81492  -1.301   1.028   7.868  1.3470  0.0641 -0.2407
  618MOL0     C81493  -1.415   1.116   7.874  0.0369  0.8235  0.0362
  618MOL0     N81494  -1.606   1.341   7.386 -0.8058 -0.3485 -0.3615
  618MOL0     N81495  -1.509   1.304   7.312 -1.0221  0.2221 -0.1342
  618MOL0     C81496  -0.199   1.042   7.554  1.0473 -0.4268 -0.4257
  618MOL0     C81497  -0.055   1.054   7.549  0.7237  0.6502  0.1085
  618MOL0     C81498   0.324   1.196   7.310  0.7018 -0.0330 -0.7804
  618MOL0     C81499   0.413   1.113   7.371  0.1796 -0.5415  0.0818
  618MOL0     C81500   0.552   1.129   7.345  0.1239  0.0176 -0.0232
  618MOL0     C81501   0.602   1.242   7.280 -0.0935 -0.5046  0.5667
  618MOL0     O81502   0.735   1.244   7.258 -0.2506  0.1921  0.2603
  618MOL0     C81503   0.793   1.371   7.294  0.5119  0.9455 -0.3356
  618MOL0     C81504   0.824   1.390   7.443  0.2973  0.5855 -0.4371
  618MOL0     C81505   0.697   1.404   7.532 -0.0871  0.0135  0.7497
  618MOL0     C81506   0.729   1.460   7.674 -0.6526 -0.2576  1.2245
  618MOL0     C81507   0.602   1.494   7.737 -0.4864 -0.1628  0.2910
  618MOL0     C81508   0.497   1.521   7.795  0.0524  0.5115 -0.1201
  618MOL0     C81509   0.512   1.338   7.228 -0.0924  0.2302  0.8921
  618MOL0     C81510   0.372   1.313   7.240  0.2703 -1.3802 -0.2861
  618MOL0     H81511  -0.049   1.034   7.203 -1.8911  1.0447 -0.8277
  618MOL0     H81512  -0.266   1.000   7.221  0.4861 -1.2336 -0.2151
  618MOL0     H81513  -0.475   1.212   7.466 -1.5303  0.3864 -1.4435
  618MOL0     H81514  -0.494   1.099   7.612  0.6688  0.6776  0.0382
  618MOL0     H81515  -0.661   0.970   7.493 -0.4146  0.0396 -1.8454
  618MOL0     H81516  -0.657   1.085   7.355  3.1994 -0.3601 -1.7766
  618MOL0     H81517  -0.710   1.275   7.501 -0.2202  0.4768  0.6514
  618MOL0     H81518  -0.756   1.170   7.637 -4.9594  1.3626 -1.0846
  618MOL0     H81519  -0.877   1.153   7.358 -0.8922 -2.2589  1.2807
  618MOL0     H81520  -0.921   1.062   7.496  2.5007 -0.4764  1.4035
  618MOL0     H81521  -0.918   1.363   7.525  0.9568 -0.6162  1.5541
  618MOL0     H81522  -1.010   1.253   7.617 -1.0617 -0.4853 -0.3361
  618MOL0     H81523  -1.068   1.316   7.322  0.6431  3.8040  1.8387
  618MOL0     H81524  -1.143   1.371   7.458 -0.0909 -0.2432  1.2737
  618MOL0     H81525  -1.123   1.075   7.369  1.7280  3.0089 -2.0666
  618MOL0     H81526  -1.196   1.127   7.524 -0.1894  1.8207  0.7462
  618MOL0     H81527  -1.347   1.047   7.338  0.1580 -0.8204  1.0966
  618MOL0     H81528  -1.288   1.175   7.235  1.5215  0.4272  1.1646
  618MOL0     H81529  -1.407   1.224   7.618  0.3278 -0.4403  0.5362
  618MOL0     H81530  -1.644   1.293   7.718  2.0052 -0.8630 -0.5108
  618MOL0     H81531  -1.766   1.358   7.607 -0.2256 -3.3015  0.2581
  618MOL0     H81532  -1.723   1.515   7.742 -3.2433 -4.1995 -2.0879
  618MOL0     H81533  -1.626   1.567   7.596 -0.6443 -0.5234 -0.1364
  618MOL0     H81534  -1.424   1.485   7.689 -0.3133  4.7642 -1.9921
  618MOL0     H81535  -1.479   1.629   7.778  2.4309 -0.4597  3.0011
  618MOL0     H81536  -1.568   1.529   7.956 -0.1228 -1.3690 -0.6820
  618MOL0     H81537  -1.396   1.517   7.945  0.6661  0.3727  0.6654
  618MOL0     H81538  -1.232   1.408   7.860 -1.0061  0.2632 -1.5659
  618MOL0     H81539  -1.043   1.252   7.839 -1.1916  3.0774  1.8966
  618MOL0     H81540  -1.118   0.608   7.861 -0.1222  1.0230  0.6663
  618MOL0     H81541  -0.970   0.436   7.935  0.9995 -0.8391  4.0415
  618MOL0     H81542  -0.630   0.481   8.230  0.9618 -3.9111  1.2149
  618MOL0     H81543  -0.584   0.537   8.064 -1.3204 -0.4595 -0.9853
  618MOL0     H81544  -0.462   0.325   8.129 -0.5205  1.5490  2.3468
  618MOL0     H81545  -0.558   0.332   7.977 -3.7375  1.0689  0.5893
  618MOL0     H81546  -0.726   0.186   8.064 -2.2305 -2.5518  2.5609
  618MOL0     H81547  -0.691   0.222   8.233  1.5595 -1.8949  1.0422
  618MOL0     H81548  -0.495   0.085   8.039  1.3370  0.7125  0.3165
  618MOL0     H81549  -0.477   0.089   8.217 -0.2371  0.8561 -0.5631
  618MOL0     H81550  -0.708  -0.048   8.069 -0.2721  1.6899 -0.3249
  618MOL0     H81551  -0.682  -0.046   8.247 -0.4665  0.4342 -0.3100
  618MOL0     H81552  -0.445  -0.128   8.203  1.5380 -1.7043 -0.5094
  618MOL0     H81553  -0.486  -0.168   8.033  2.4038  0.8193  1.0222
  618MOL0     H81554  -0.588  -0.287   8.290  1.5634  4.7819 -0.0021
  618MOL0     H81555  -0.692  -0.305   8.150  0.5301  1.4179 -3.2831
  618MOL0     H81556  -0.537  -0.502   8.178  0.1048 -0.3638 -1.1563
  618MOL0     H81557  -0.394  -0.394   8.164  0.2649 -0.2433 -0.3216
  618MOL0     H81558  -0.714   0.728   8.119 -0.3637  3.3231  0.5253
  618MOL0     H81559  -0.894   0.900   8.046 -1.6862 -0.0321  1.9401
  618MOL0     H81560  -1.316   0.920   7.870  0.4629  0.1132 -2.1009
  618MOL0     H81561  -1.514   1.073   7.883  0.1331  0.6716  0.3810
  618MOL0     H81562  -0.249   1.044   7.650  3.7347  0.7129  1.0802
  618MOL0     H81563  -0.007   1.065   7.645 -2.5086 -0.5417  2.0220
  618MOL0     H81564   0.375   1.032   7.433  1.7297 -0.7330  0.8263
  618MOL0     H81565   0.625   1.056   7.377 -2.0146 -2.9814 -1.5057
  618MOL0     H81566   0.738   1.459   7.257 -1.7249 -0.0938  0.3264
  618MOL0     H81567   0.885   1.373   7.236  0.0190  0.7389 -1.1366
  618MOL0     H81568   0.882   1.310   7.490 -0.9453 -0.2518 -0.2725
  618MOL0     H81569   0.885   1.480   7.458 -0.5340  1.2273 -0.7936
  618MOL0     H81570   0.645   1.308   7.538  0.0040  0.0389  2.0516
  618MOL0     H81571   0.627   1.476   7.488 -1.0670 -1.3222  0.0413
  618MOL0     H81572   0.780   1.388   7.739  2.9016 -0.4184 -1.4407
  618MOL0     H81573   0.781   1.556   7.675  0.9155 -1.0397 -0.5489
  618MOL0     H81574   0.410   1.531   7.857  1.6655  2.3267  2.0240
  618MOL0     H81575   0.532   1.433   7.179 -1.9754  0.2245  0.0344
  618MOL0     H81576   0.305   1.382   7.189  0.0811 -1.4704 -0.1630
  619MOL0     O81577  10.810   6.252   2.397  0.2103  0.5376 -0.1417
  619MOL0     C81578  10.889   6.335   2.370  0.9234 -0.1643  0.5792
  619MOL0     O81579  10.866   6.469   2.387  0.6081 -0.0206  0.0808
  619MOL0     C81580  10.742   6.509   2.424 -0.4124  0.0950  0.1597
  619MOL0     C81581  10.646   6.549   2.328  0.0506  0.0120  0.1342
  619MOL0     C81582  10.524   6.590   2.374 -0.4751 -0.4388  0.6543
  619MOL0     C81583  10.490   6.605   2.508  0.3257 -0.6279  0.0583
  619MOL0     O81584  10.368   6.639   2.565  0.6817 -0.4777  0.1488
  619MOL0     C81585  10.270   6.700   2.479  0.2683 -0.4891 -0.2383
  619MOL0     C81586  10.161   6.781   2.560 -0.1892  1.1273 -0.4623
  619MOL0     C81587  10.133   6.723   2.698  0.5404 -0.1162  0.5422
  619MOL0     C81588  10.016   6.796   2.774 -0.0670 -0.3952 -0.1393
  619MOL0     C81589  10.025   6.766   2.932  0.3840 -0.0890  0.2070
  619MOL0     C81590   9.915   6.821   3.018  0.0232  0.6330  0.1862
  619MOL0     C81591   9.937   6.772   3.163 -0.2176 -0.6753  0.2111
  619MOL0     C81592   9.899   6.629   3.184 -0.0136 -0.5533  1.2663
  619MOL0     N81593   9.755   6.611   3.155  0.5457  0.2859  0.2106
  619MOL0     C81594   9.646   6.635   3.235  0.8027 -0.1878 -1.0280
  619MOL0     C81595   9.540   6.599   3.166  0.0376 -0.1139  0.2797
  619MOL0     C81596   9.397   6.600   3.212 -0.3057  0.5060 -0.1911
  619MOL0     C81597   9.352   6.466   3.278  0.1681  0.3582 -0.0496
  619MOL0     C81598   9.301   6.358   3.181 -0.5468  0.1867 -0.0494
  619MOL0     C81599   9.162   6.391   3.118  0.0124 -0.1548  0.1372
  619MOL0     O81600   9.056   6.389   3.211 -0.4878  0.6067 -0.3425
  619MOL0     C81601   8.934   6.439   3.175 -0.0122  0.1761 -0.3739
  619MOL0     C81602   8.899   6.468   3.044 -0.0941 -0.2999 -0.3527
  619MOL0     C81603   8.768   6.502   3.001 -1.2446  0.3779  0.1063
  619MOL0     C81604   8.669   6.523   3.100  0.1047 -0.0699  0.1616
  619MOL0     C81605   8.528   6.559   3.056  0.1676  0.9782  0.1801
  619MOL0     O81606   8.435   6.585   3.153 -1.0151  0.0855  0.7041
  619MOL0     C81607   8.297   6.594   3.114  0.1725  0.5659 -0.6179
  619MOL0     C81608   8.254   6.690   3.026  0.5591 -0.2909 -0.7952
  619MOL0     C81609   8.117   6.693   2.990 -0.2659  0.4204  0.5552
  619MOL0     C81610   8.034   6.589   3.030  0.3994 -0.3109 -0.3252
  619MOL0     O81611   7.903   6.592   2.994 -0.6521  0.3392  0.6114
  619MOL0     C81612   7.841   6.701   2.927 -0.2883  0.0193 -0.5989
  619MOL0     C81613   7.709   6.657   2.865  0.0849 -0.8118 -0.1563
  619MOL0     C81614   7.630   6.771   2.788 -0.5949  0.1807 -0.3815
  619MOL0     C81615   7.479   6.741   2.776  0.3254 -0.1360  0.2601
  619MOL0     C81616   7.395   6.861   2.738  0.8673  0.2875 -0.0007
  619MOL0     C81617   7.248   6.818   2.723  0.2142  0.9564 -0.3496
  619MOL0     C81618   7.194   6.757   2.853 -0.4260 -0.4717  0.2858
  619MOL0     C81619   7.046   6.807   2.868  0.0943 -0.2619 -0.3279
  619MOL0    Cl81620   6.994   6.764   3.036  0.2305  0.0303 -0.0388
  619MOL0     C81621   8.083   6.496   3.112 -0.4779 -0.1108 -0.4483
  619MOL0     C81622   8.211   6.492   3.160  0.2788  0.1018 -0.1907
  619MOL0     O81623   8.505   6.555   2.934  0.5699  0.0966 -0.3723
  619MOL0     C81624   8.691   6.494   3.236  0.3838  0.7493 -0.3916
  619MOL0     C81625   8.826   6.449   3.261  0.5994 -0.3765 -0.5652
  619MOL0     N81626   9.581   6.553   3.039 -0.2726 -0.3839 -0.4849
  619MOL0     N81627   9.705   6.559   3.036 -0.6504 -0.2813  0.0103
  619MOL0     C81628  10.585   6.568   2.595 -0.5890  0.3851  0.5792
  619MOL0     C81629  10.718   6.526   2.559 -0.0431  0.6855  0.6615
  619MOL0     C81630  11.024   6.282   2.337  0.1945  0.4471  0.3884
  619MOL0     C81631  11.072   6.152   2.368 -0.1754  0.1404 -0.1629
  619MOL0     C81632  11.199   6.113   2.340  0.5641  0.5210 -0.4223
  619MOL0     C81633  11.287   6.212   2.283  0.9318  0.3106 -0.2175
  619MOL0     O81634  11.410   6.182   2.239  0.0603  0.3411  0.2128
  619MOL0     C81635  11.477   6.053   2.254 -0.2732  0.6872 -0.2468
  619MOL0     C81636  11.622   6.074   2.255 -0.2102  0.0375 -0.3702
  619MOL0     C81637  11.665   6.130   2.122 -0.8508 -0.5123 -0.1396
  619MOL0     C81638  11.820   6.123   2.104  0.3185  0.0710 -0.6120
  619MOL0     C81639  11.882   5.990   2.133 -0.6269 -0.1069 -0.3006
  619MOL0     C81640  11.935   5.882   2.146  0.0712  0.1592  0.0437
  619MOL0     C81641  11.246   6.342   2.254 -0.1452  0.8097  0.2201
  619MOL0     C81642  11.116   6.375   2.283 -0.6444 -0.2627 -0.0669
  619MOL0     H81643  10.652   6.526   2.222 -3.0376 -1.0428  0.0916
  619MOL0     H81644  10.447   6.606   2.299  0.2219 -2.0765 -0.4525
  619MOL0     H81645  10.235   6.625   2.408  0.4936  0.1544 -1.0484
  619MOL0     H81646  10.328   6.763   2.411  0.1651  0.1953  0.3040
  619MOL0     H81647  10.066   6.787   2.506 -0.7329 -3.9967 -0.5762
  619MOL0     H81648  10.197   6.882   2.584 -0.5201  0.6234  2.5333
  619MOL0     H81649  10.230   6.727   2.747 -0.2946 -2.3864  2.6083
  619MOL0     H81650  10.098   6.619   2.698  1.1973 -0.3667  2.0796
  619MOL0     H81651  10.031   6.903   2.757 -0.9485 -0.0792  0.9505
  619MOL0     H81652   9.921   6.768   2.728 -1.0031  0.2967  1.2923
  619MOL0     H81653  10.113   6.808   2.982 -1.3417  3.5072  0.5270
  619MOL0     H81654  10.026   6.656   2.933  1.3623 -0.1115 -0.7156
  619MOL0     H81655   9.819   6.784   2.981  0.2541 -1.9847  1.9489
  619MOL0     H81656   9.936   6.928   3.011  2.2664  0.2159 -0.3527
  619MOL0     H81657  10.042   6.786   3.194 -0.1852  3.3650 -1.2321
  619MOL0     H81658   9.877   6.828   3.235 -0.6813 -2.1634  1.0474
  619MOL0     H81659   9.927   6.593   3.284  1.7712 -0.0900  0.9773
  619MOL0     H81660   9.950   6.557   3.120 -1.0933  0.1275 -0.4214
  619MOL0     H81661   9.655   6.673   3.336 -0.7629  0.2115 -1.0128
  619MOL0     H81662   9.336   6.628   3.126 -0.9291 -0.9432 -0.2460
  619MOL0     H81663   9.389   6.680   3.287  1.4230 -2.1466  3.0715
  619MOL0     H81664   9.262   6.481   3.338 -1.3729 -3.8391 -0.9548
  619MOL0     H81665   9.425   6.419   3.344  1.8878  2.5638 -0.2563
  619MOL0     H81666   9.373   6.336   3.102 -1.0356 -0.1449 -0.4041
  619MOL0     H81667   9.289   6.261   3.230  1.3051 -0.0697 -0.0173
  619MOL0     H81668   9.143   6.316   3.041  0.2941 -1.1316  0.9906
  619MOL0     H81669   9.162   6.489   3.069  2.0652  0.4015  1.1246
  619MOL0     H81670   8.962   6.446   2.958  0.7564 -1.6569  0.5737
  619MOL0     H81671   8.754   6.512   2.894  0.3086  1.7407  0.0016
  619MOL0     H81672   8.321   6.768   2.991  0.5478 -0.8757 -2.1880
  619MOL0     H81673   8.092   6.779   2.928  3.2257  0.7801 -0.5873
  619MOL0     H81674   7.906   6.747   2.852  1.9571 -1.7839  0.1028
  619MOL0     H81675   7.822   6.781   3.000 -0.2644  0.1357 -0.7187
  619MOL0     H81676   7.646   6.623   2.948  0.6490 -1.8929 -0.1610
  619MOL0     H81677   7.733   6.587   2.785  0.9201 -0.0081 -0.6271
  619MOL0     H81678   7.668   6.794   2.688 -1.1855 -0.6649 -0.8172
  619MOL0     H81679   7.632   6.859   2.853 -1.0395  0.7949 -1.1809
  619MOL0     H81680   7.469   6.657   2.707 -1.6467  0.1220  0.1561
  619MOL0     H81681   7.438   6.712   2.874 -0.7346  1.7107  0.4291
  619MOL0     H81682   7.419   6.898   2.637  3.7136 -2.5324 -0.5303
  619MOL0     H81683   7.412   6.940   2.812  0.9159  0.4899 -0.2238
  619MOL0     H81684   7.248   6.738   2.649 -1.2942  2.0857 -1.6773
  619MOL0     H81685   7.181   6.897   2.686 -1.4307 -0.0114  0.4170
  619MOL0     H81686   7.205   6.648   2.859 -1.1361 -0.6540 -1.1974
  619MOL0     H81687   7.250   6.798   2.938  2.8414 -1.3194 -1.3009
  619MOL0     H81688   6.985   6.754   2.794 -1.0132 -0.0884  0.4408
  619MOL0     H81689   7.031   6.915   2.854 -1.2369 -0.0584  2.2703
  619MOL0     H81690   8.020   6.415   3.147 -0.7959  0.2991 -0.0617
  619MOL0     H81691   8.249   6.402   3.208 -2.2443 -1.1856 -0.4167
  619MOL0     H81692   8.614   6.492   3.314  0.1276 -2.4334 -0.6144
  619MOL0     H81693   8.855   6.412   3.358  0.1070 -1.3557 -0.7785
  619MOL0     H81694  10.554   6.565   2.699 -1.5125  1.2464  0.3434
  619MOL0     H81695  10.792   6.480   2.624 -0.2712 -0.9111 -0.1486
  619MOL0     H81696  11.005   6.082   2.418  0.0179  0.4449  0.5264
  619MOL0     H81697  11.236   6.015   2.367  4.7603  1.6791 -1.3410
  619MOL0     H81698  11.451   5.982   2.175  3.1512 -1.8028  0.6354
  619MOL0     H81699  11.450   6.009   2.350 -0.2398 -0.1693 -0.6248
  619MOL0     H81700  11.637   6.142   2.339 -1.7894  1.0108 -0.8289
  619MOL0     H81701  11.681   5.988   2.289  1.3811  1.3516  0.3516
  619MOL0     H81702  11.632   6.234   2.109  0.7809  0.5324  2.9028
  619MOL0     H81703  11.622   6.077   2.037 -2.4241 -0.4083  0.5652
  619MOL0     H81704  11.855   6.138   2.002  3.4823 -1.0772  0.1888
  619MOL0     H81705  11.860   6.207   2.162 -2.6407  1.1168  0.1059
  619MOL0     H81706  11.993   5.794   2.164 -0.7677 -0.7348 -1.4543
  619MOL0     H81707  11.314   6.414   2.209 -0.1345  1.4780  1.2849
  619MOL0     H81708  11.085   6.476   2.257  0.0763  0.1749  0.7286
  620MOL0     O81709  10.953   3.262   4.387  0.5666  0.5082 -0.2630
  620MOL0     C81710  11.015   3.339   4.460 -0.2632  0.6681 -0.0793
  620MOL0     O81711  10.957   3.398   4.569 -1.0561  0.0416 -0.4386
  620MOL0     C81712  10.830   3.378   4.618  0.4050 -0.6055  0.3315
  620MOL0     C81713  10.798   3.436   4.736  0.1326  0.0142 -0.4378
  620MOL0     C81714  10.679   3.419   4.806 -0.7362 -0.1263 -0.2981
  620MOL0     C81715  10.573   3.354   4.745  0.0098 -0.3530 -0.5551
  620MOL0     O81716  10.457   3.344   4.825  0.5508 -0.1029  1.2110
  620MOL0     C81717  10.346   3.282   4.752  0.8674  0.0560 -0.6249
  620MOL0     C81718  10.225   3.280   4.846  0.1002  0.8370 -0.0738
  620MOL0     C81719  10.220   3.179   4.950  0.0864 -0.8638 -0.7051
  620MOL0     C81720  10.084   3.194   5.024 -0.1470 -0.3358 -0.1985
  620MOL0     C81721  10.089   3.111   5.147 -0.3463  0.6187 -0.1561
  620MOL0     C81722   9.969   3.155   5.238  0.0481 -0.0614  0.5426
  620MOL0     C81723   9.832   3.131   5.173 -0.6863 -0.0358  0.0212
  620MOL0     C81724   9.723   3.183   5.266  0.9574  0.3231 -0.5783
  620MOL0     N81725   9.583   3.149   5.225 -0.2159  0.3505 -0.3675
  620MOL0     C81726   9.481   3.105   5.300  0.2353  0.1624  0.1324
  620MOL0     C81727   9.371   3.093   5.215 -0.3788  0.7201 -0.6640
  620MOL0     C81728   9.226   3.063   5.248  0.3934  0.7677 -0.2583
  620MOL0     C81729   9.151   3.188   5.299 -0.5380 -0.4895  0.4659
  620MOL0     C81730   9.109   3.269   5.183 -0.9770  0.5434  0.1078
  620MOL0     C81731   8.987   3.219   5.128 -0.3949  0.8206  0.5260
  620MOL0     O81732   8.876   3.252   5.212  0.5109  0.3218  0.2420
  620MOL0     C81733   8.753   3.255   5.146  0.3025 -0.1781  0.0196
  620MOL0     C81734   8.653   3.326   5.210  0.4397  0.4647 -0.2196
  620MOL0     C81735   8.520   3.336   5.167 -0.2690  0.0373 -0.0769
  620MOL0     C81736   8.487   3.288   5.038  0.0715 -0.3570  0.5406
  620MOL0     C81737   8.349   3.313   4.984 -0.0738 -0.3314 -0.8847
  620MOL0     O81738   8.262   3.398   5.052 -0.2753  0.3996 -0.3409
  620MOL0     C81739   8.137   3.410   4.994 -0.1846  0.7223  0.9599
  620MOL0     C81740   8.032   3.358   5.060  1.0459 -0.9943 -0.5053
  620MOL0     C81741   7.909   3.331   4.998  0.2496  0.0140 -0.0686
  620MOL0     C81742   7.882   3.380   4.865  0.1762 -0.5991 -0.5072
  620MOL0     O81743   7.757   3.370   4.803  0.1461 -0.4289  0.2867
  620MOL0     C81744   7.645   3.412   4.890  0.0883  0.8401 -0.2655
  620MOL0     C81745   7.513   3.377   4.835 -0.9549  0.5153  0.5350
  620MOL0     C81746   7.480   3.438   4.694 -0.0343  0.5313 -0.0269
  620MOL0     C81747   7.336   3.402   4.643 -0.4957  0.2908 -1.3066
  620MOL0     C81748   7.297   3.464   4.503 -0.1257  0.0830  0.0523
  620MOL0     C81749   7.146   3.455   4.483  0.0319 -0.3276  0.1952
  620MOL0     C81750   7.090   3.488   4.343  0.1923  0.8370  0.7519
  620MOL0     C81751   6.938   3.492   4.329 -0.6798  0.2995 -0.6889
  620MOL0    Cl81752   6.876   3.336   4.379  0.4621 -0.5091  0.1165
  620MOL0     C81753   7.982   3.451   4.807  0.5102  0.4404 -0.1405
  620MOL0     C81754   8.110   3.465   4.864  0.6073 -0.4343 -0.7724
  620MOL0     O81755   8.331   3.256   4.875  0.1348 -0.0486  0.3253
  620MOL0     C81756   8.587   3.209   4.963 -0.3789  0.7227 -1.8349
  620MOL0     C81757   8.715   3.179   5.031 -0.6822 -0.0902  0.1987
  620MOL0     N81758   9.412   3.118   5.093  0.1874  0.0112 -0.2744
  620MOL0     N81759   9.541   3.145   5.100  0.1918  0.2200  0.4900
  620MOL0     C81760  10.600   3.300   4.615  0.4319 -0.3810 -0.2547
  620MOL0     C81761  10.723   3.314   4.549 -0.0600  0.4814 -0.1217
  620MOL0     C81762  11.164   3.366   4.433 -0.4548 -0.4495 -0.0930
  620MOL0     C81763  11.226   3.331   4.313  0.1078 -0.1110  0.0134
  620MOL0     C81764  11.358   3.373   4.279 -0.6199  0.5866  0.6044
  620MOL0     C81765  11.431   3.447   4.374 -0.7686  0.3644  0.4294
  620MOL0     O81766  11.557   3.493   4.350 -0.6531  0.1354 -0.5136
  620MOL0     C81767  11.629   3.478   4.221 -0.6749 -0.4424 -0.4960
  620MOL0     C81768  11.776   3.507   4.251  0.1790  0.1583 -0.0074
  620MOL0     C81769  11.851   3.503   4.118 -0.2836 -0.2604  0.1636
  620MOL0     C81770  11.994   3.553   4.140  0.2239  0.4442  0.1832
  620MOL0     C81771  12.069   3.556   4.018  0.1325  0.1836 -0.4492
  620MOL0     C81772  12.133   3.535   3.918  0.1700 -0.4477  0.1946
  620MOL0     C81773  11.363   3.492   4.482  0.0300 -0.4676  0.2434
  620MOL0     C81774  11.232   3.454   4.511  0.6417  0.5107  0.6949
  620MOL0     H81775  10.865   3.511   4.777 -0.4839  0.3132  0.0283
  620MOL0     H81776  10.664   3.464   4.904  1.5395  3.2213 -1.3314
  620MOL0     H81777  10.361   3.189   4.697 -1.1425 -0.4654 -0.3799
  620MOL0     H81778  10.317   3.349   4.670  0.7762 -0.1277 -0.7429
  620MOL0     H81779  10.147   3.261   4.772  2.2269 -2.9249 -1.6606
  620MOL0     H81780  10.213   3.377   4.894 -0.7172  0.7047 -0.0051
  620MOL0     H81781  10.303   3.190   5.021  2.0010 -2.1587 -2.6013
  620MOL0     H81782  10.227   3.079   4.908  1.3815  0.0546 -2.8425
  620MOL0     H81783  10.072   3.301   5.044 -0.0171  0.2873 -3.0530
  620MOL0     H81784  10.013   3.148   4.956 -0.3396 -0.1399 -0.1292
  620MOL0     H81785  10.189   3.107   5.191  0.3073 -0.1704 -1.6522
  620MOL0     H81786  10.085   3.006   5.115 -2.3743 -0.0396  1.9681
  620MOL0     H81787   9.970   3.262   5.257 -2.3606  0.0332  0.4726
  620MOL0     H81788   9.976   3.109   5.338  0.8062  0.3205  0.6692
  620MOL0     H81789   9.821   3.173   5.073  1.2869 -0.8651 -0.5713
  620MOL0     H81790   9.815   3.023   5.163  1.8803 -0.7008  1.7727
  620MOL0     H81791   9.728   3.292   5.277 -1.0602  0.3741  0.1736
  620MOL0     H81792   9.728   3.140   5.366 -4.7783 -3.0463 -1.2677
  620MOL0     H81793   9.487   3.074   5.404  1.5115  1.9120  0.6106
  620MOL0     H81794   9.227   2.981   5.320  0.7232  0.3195 -0.7649
  620MOL0     H81795   9.179   3.017   5.161  0.0563 -0.8780  0.7554
  620MOL0     H81796   9.216   3.240   5.369 -2.2954  1.5805  0.6662
  620MOL0     H81797   9.059   3.174   5.356 -0.3791  1.1382  1.1697
  620MOL0     H81798   9.099   3.377   5.197  0.0505  0.6041  0.4371
  620MOL0     H81799   9.195   3.267   5.115  0.7853  1.3081  2.1865
  620MOL0     H81800   8.979   3.113   5.100 -0.2826  0.8943  0.2195
  620MOL0     H81801   8.978   3.270   5.032 -0.9002 -3.1981 -1.7736
  620MOL0     H81802   8.682   3.377   5.301 -0.9183  0.1020  0.4406
  620MOL0     H81803   8.445   3.385   5.229 -1.4475 -0.0257 -1.3890
  620MOL0     H81804   8.045   3.331   5.165  2.0045 -3.3352 -1.1594
  620MOL0     H81805   7.833   3.277   5.053  2.0295 -3.0529 -0.3974
  620MOL0     H81806   7.649   3.516   4.926 -0.7348  0.3450  1.3477
  620MOL0     H81807   7.644   3.347   4.978  0.3352  0.9575 -0.1767
  620MOL0     H81808   7.435   3.412   4.904 -1.6251  0.7949 -0.3396
  620MOL0     H81809   7.507   3.268   4.836  0.9251  0.3774  1.3281
  620MOL0     H81810   7.553   3.405   4.620 -0.3570  0.4718 -0.3226
  620MOL0     H81811   7.498   3.546   4.693  0.5652  0.4361 -0.4846
  620MOL0     H81812   7.330   3.293   4.636 -2.2291 -0.3628  4.5700
  620MOL0     H81813   7.256   3.439   4.709  2.5528  3.1004  1.1776
  620MOL0     H81814   7.348   3.409   4.423 -0.1009 -0.2267  0.2759
  620MOL0     H81815   7.318   3.571   4.498 -3.5556  0.9845  1.7828
  620MOL0     H81816   7.116   3.526   4.560  1.9067  1.0407 -0.2600
  620MOL0     H81817   7.106   3.356   4.507  1.0359 -0.0588  3.4130
  620MOL0     H81818   7.150   3.568   4.298  3.9575 -3.3014 -2.4685
  620MOL0     H81819   7.125   3.406   4.279 -0.3015 -0.7837  2.4859
  620MOL0     H81820   6.911   3.516   4.225  1.6384 -0.2591 -1.4712
  620MOL0     H81821   6.896   3.569   4.395  0.1541 -0.6419  1.0076
  620MOL0     H81822   7.960   3.496   4.711 -0.1460  0.5078  0.0404
  620MOL0     H81823   8.182   3.512   4.798  1.0682  0.5847  0.4169
  620MOL0     H81824   8.567   3.171   4.864  0.3515  2.0344 -2.5118
  620MOL0     H81825   8.788   3.117   4.978 -1.0472  0.8315 -1.4473
  620MOL0     H81826  10.514   3.258   4.563  1.5955 -1.3605 -1.4762
  620MOL0     H81827  10.732   3.266   4.452 -0.7129 -0.8452  0.4565
  620MOL0     H81828  11.172   3.272   4.240  0.3162  0.2187 -0.4101
  620MOL0     H81829  11.393   3.332   4.185 -1.1822 -0.6196  0.8970
  620MOL0     H81830  11.597   3.559   4.156 -2.4877 -0.7397 -0.0381
  620MOL0     H81831  11.616   3.379   4.177 -2.1763 -0.3889 -0.2460
  620MOL0     H81832  11.774   3.609   4.290 -1.0528  0.1958 -0.1420
  620MOL0     H81833  11.818   3.448   4.333 -0.7663  1.7974  1.7282
  620MOL0     H81834  11.806   3.565   4.040 -0.9665  0.8171  1.3867
  620MOL0     H81835  11.851   3.397   4.089 -1.9073 -0.3615  0.4490
  620MOL0     H81836  11.993   3.652   4.187  0.0060  0.4750  0.1119
  620MOL0     H81837  12.043   3.489   4.214  0.0846 -0.7582 -0.7224
  620MOL0     H81838  12.191   3.516   3.830  1.2260  2.1925  0.2317
  620MOL0     H81839  11.409   3.562   4.551  1.8745 -0.5237 -0.8878
  620MOL0     H81840  11.182   3.493   4.599 -0.6119 -2.8537  1.6276
  621MOL0     O81841   9.489  10.374   9.283  0.0071  0.4040  0.5434
  621MOL0     C81842   9.484  10.465   9.359 -0.7402  0.2048  0.1411
  621MOL0     O81843   9.388  10.506   9.449 -0.7316  0.8090  0.2396
  621MOL0     C81844   9.276  10.433   9.458  0.4596  0.8925  0.9333
  621MOL0     C81845   9.247  10.371   9.578  0.3374  0.5843 -0.5183
  621MOL0     C81846   9.117  10.314   9.603 -0.3605  0.4447 -0.4069
  621MOL0     C81847   9.022  10.305   9.501  0.5931 -0.4059  0.8142
  621MOL0     O81848   8.896  10.251   9.535 -0.5343  0.4778 -0.2969
  621MOL0     C81849   8.794  10.284   9.447  0.8576 -0.2235 -0.4659
  621MOL0     C81850   8.666  10.208   9.489 -0.8755 -0.1801 -0.3529
  621MOL0     C81851   8.537  10.258   9.413 -0.1990  0.4304  0.0467
  621MOL0     C81852   8.414  10.196   9.490  0.1429  0.5885 -0.0149
  621MOL0     C81853   8.282  10.256   9.434 -0.8007  0.0485  0.4963
  621MOL0     C81854   8.171  10.184   9.503  0.1376 -0.3646 -0.5311
  621MOL0     C81855   8.031  10.255   9.459 -0.1480  0.2189 -0.5436
  621MOL0     C81856   8.006  10.222   9.314 -0.4168  0.3967 -0.0932
  621MOL0     N81857   7.885  10.277   9.247  0.0983  0.0525 -0.5636
  621MOL0     C81858   7.757  10.230   9.271  0.1598  0.3964 -0.4500
  621MOL0     C81859   7.679  10.322   9.218 -1.0421 -0.2396 -0.9363
  621MOL0     C81860   7.527  10.325   9.226  0.2228 -0.1112 -0.0412
  621MOL0     C81861   7.456  10.434   9.139 -1.1642  0.1718 -1.2153
  621MOL0     C81862   7.310  10.447   9.167  0.4365 -0.1312  0.2773
  621MOL0     C81863   7.224  10.456   9.039 -0.6742  0.4146 -0.4088
  621MOL0     O81864   7.249  10.576   8.969 -0.1276 -1.2923  0.0351
  621MOL0     C81865   7.140  10.606   8.890 -0.0638 -0.2808  0.5543
  621MOL0     C81866   7.114  10.541   8.768 -0.2667  0.3010 -0.8974
  621MOL0     C81867   7.002  10.568   8.686 -0.1020 -0.5190 -0.1821
  621MOL0     C81868   6.910  10.661   8.727 -0.2582  0.4808 -0.4502
  621MOL0     C81869   6.792  10.693   8.641  0.0229 -0.0432  0.0405
  621MOL0     O81870   6.765  10.607   8.545  0.2223  0.0588 -0.2723
  621MOL0     C81871   6.650  10.633   8.464  0.7579  0.5057  0.1956
  621MOL0     C81872   6.529  10.565   8.499 -0.0797 -0.2473 -0.2182
  621MOL0     C81873   6.414  10.596   8.419  0.4104 -0.2366 -0.6582
  621MOL0     C81874   6.421  10.676   8.310  0.2903 -0.4160  1.2730
  621MOL0     O81875   6.302  10.695   8.242 -0.4648  0.2077  0.1346
  621MOL0     C81876   6.303  10.786   8.127  0.2742  0.4078  0.0227
  621MOL0     C81877   6.162  10.776   8.067 -0.0988  0.2626  0.1649
  621MOL0     C81878   6.055  10.848   8.154  0.0217 -0.4980 -0.0226
  621MOL0     C81879   5.925  10.843   8.077 -0.2840  0.5400 -0.1267
  621MOL0     C81880   5.818  10.915   8.153  0.4463  0.8486 -0.5340
  621MOL0     C81881   5.690  10.938   8.071  0.0821  0.6950  0.2136
  621MOL0     C81882   5.602  11.032   8.147 -0.1499  0.2783  0.1261
  621MOL0     C81883   5.460  11.034   8.085  0.0762 -0.3628 -0.1484
  621MOL0    Cl81884   5.463  11.065   7.914  0.0053  0.1934 -0.2542
  621MOL0     C81885   6.548  10.737   8.271 -0.1516  0.0996  0.3978
  621MOL0     C81886   6.659  10.714   8.355 -0.2410 -0.1390  0.1277
  621MOL0     O81887   6.737  10.801   8.659  1.2226 -0.6930 -0.1331
  621MOL0     C81888   6.935  10.723   8.853  1.6411  0.6419 -0.5422
  621MOL0     C81889   7.045  10.696   8.931 -0.1555 -0.2672  0.2069
  621MOL0     N81890   7.759  10.423   9.162 -0.3444 -0.4039  0.7566
  621MOL0     N81891   7.885  10.389   9.175 -0.5077 -0.7303  0.0115
  621MOL0     C81892   9.052  10.360   9.374  0.3712 -0.5402 -0.1319
  621MOL0     C81893   9.177  10.422   9.361  0.2521 -0.9478  0.0948
  621MOL0     C81894   9.617  10.536   9.365 -0.0431  0.0984 -0.1158
  621MOL0     C81895   9.730  10.480   9.300  0.1840 -0.3614  0.3223
  621MOL0     C81896   9.845  10.550   9.296 -0.9257  0.3047  0.4342
  621MOL0     C81897   9.857  10.686   9.356 -0.0121  0.1518  0.2465
  621MOL0     O81898   9.961  10.769   9.335 -0.4569 -0.7860  0.6919
  621MOL0     C81899  10.091  10.720   9.290  0.5106  0.3596  1.0376
  621MOL0     C81900  10.212  10.810   9.330  0.6728  0.4743  0.7617
  621MOL0     C81901  10.349  10.772   9.268 -0.1625  0.3661 -0.6826
  621MOL0     C81902  10.351  10.792   9.119 -0.1538 -0.4455 -0.0700
  621MOL0     C81903  10.486  10.813   9.057  0.5338 -0.2207 -0.2216
  621MOL0     C81904  10.591  10.836   9.019 -0.1595 -0.4526 -0.2903
  621MOL0     C81905   9.742  10.739   9.419 -0.4964 -0.2298  0.6912
  621MOL0     C81906   9.623  10.657   9.422  0.2226 -0.6359 -0.0196
  621MOL0     H81907   9.323  10.357   9.654 -1.7333 -3.0549  1.1514
  621MOL0     H81908   9.090  10.258   9.691  2.1019 -0.2759 -0.0339
  621MOL0     H81909   8.809  10.257   9.342  1.7624  1.9659 -0.9536
  621MOL0     H81910   8.774  10.391   9.449 -1.9509 -0.6784 -0.6901
  621MOL0     H81911   8.661  10.218   9.597  2.3091 -0.2899 -0.0899
  621MOL0     H81912   8.685  10.102   9.467  3.3491  0.2080  0.5708
  621MOL0     H81913   8.538  10.234   9.306 -0.5531  1.2109 -0.1435
  621MOL0     H81914   8.530  10.367   9.424 -0.9205  0.5028 -0.9474
  621MOL0     H81915   8.415  10.087   9.484  0.8432  0.3234  3.1109
  621MOL0     H81916   8.428  10.223   9.595 -0.4682 -0.6699  0.4079
  621MOL0     H81917   8.284  10.233   9.327 -1.3972  0.0436  0.4848
  621MOL0     H81918   8.276  10.363   9.455  0.0980 -0.4263  3.7699
  621MOL0     H81919   8.186  10.187   9.612  0.6225 -3.2310 -0.4325
  621MOL0     H81920   8.160  10.077   9.483 -0.0171 -0.0634 -2.1389
  621MOL0     H81921   7.948  10.221   9.522 -0.4298 -0.9965 -1.5154
  621MOL0     H81922   8.042  10.363   9.469  2.1135  0.1558 -1.7744
  621MOL0     H81923   8.004  10.113   9.315  0.3977  0.3745  1.5854
  621MOL0     H81924   8.091  10.250   9.251 -1.1513  2.4464 -0.2475
  621MOL0     H81925   7.716  10.144   9.324 -1.4318  2.1093  1.2445
  621MOL0     H81926   7.493  10.345   9.327  1.8717 -1.3544  0.8195
  621MOL0     H81927   7.484  10.227   9.200 -0.9066  0.3779 -0.0801
  621MOL0     H81928   7.463  10.401   9.035 -0.4341 -3.8375 -0.0624
  621MOL0     H81929   7.516  10.525   9.139  1.7583 -1.6129  0.0656
  621MOL0     H81930   7.273  10.366   9.230 -4.2392  2.8735  1.9770
  621MOL0     H81931   7.301  10.544   9.216  0.9014  0.9403 -1.6262
  621MOL0     H81932   7.118  10.449   9.064 -0.6134  1.1057  0.0658
  621MOL0     H81933   7.255  10.374   8.973 -0.3263 -2.4651  3.0239
  621MOL0     H81934   7.193  10.475   8.734 -0.1715 -0.2599  0.3284
  621MOL0     H81935   7.000  10.508   8.595  1.1489 -2.0877  0.7710
  621MOL0     H81936   6.530  10.502   8.587  2.0637  0.8945  0.6345
  621MOL0     H81937   6.323  10.548   8.454  2.1086 -2.9612  0.3868
  621MOL0     H81938   6.370  10.758   8.046  0.3501  0.2650  0.1330
  621MOL0     H81939   6.327  10.887   8.164  2.0878 -0.1135  0.3604
  621MOL0     H81940   6.141  10.670   8.055  0.1651  0.1718  0.4844
  621MOL0     H81941   6.165  10.828   7.971  0.4247  1.7832  0.9677
  621MOL0     H81942   6.090  10.951   8.163 -0.3141 -0.4025  0.2058
  621MOL0     H81943   6.058  10.809   8.256  0.4303  1.4363  0.7342
  621MOL0     H81944   5.948  10.893   7.982  2.7412  1.8736  1.1628
  621MOL0     H81945   5.894  10.739   8.064 -1.4879  0.6899  1.3294
  621MOL0     H81946   5.855  11.013   8.186 -3.4154  2.4801 -0.4445
  621MOL0     H81947   5.783  10.854   8.237  1.5259 -0.9239 -1.3262
  621MOL0     H81948   5.629  10.848   8.060  0.3476  0.5925 -0.5653
  621MOL0     H81949   5.719  10.966   7.969 -1.5010 -1.0509 -0.7801
  621MOL0     H81950   5.600  10.996   8.251  0.6375  2.2262  0.8652
  621MOL0     H81951   5.647  11.132   8.149  2.4087 -0.5865 -3.6291
  621MOL0     H81952   5.401  11.106   8.142 -1.5493 -2.1134  0.4778
  621MOL0     H81953   5.415  10.935   8.097 -0.5355  0.0047  0.6478
  621MOL0     H81954   6.558  10.792   8.178  0.6883 -2.1644 -0.9314
  621MOL0     H81955   6.754  10.760   8.331 -0.0800  0.7259  2.1895
  621MOL0     H81956   6.856  10.790   8.885  0.4952 -0.8534 -0.1448
  621MOL0     H81957   7.058  10.752   9.023 -0.5767 -1.2676  0.8877
  621MOL0     H81958   8.993  10.355   9.282  0.8402  0.1126 -0.4775
  621MOL0     H81959   9.206  10.449   9.260  2.3962 -4.6001 -0.4385
  621MOL0     H81960   9.720  10.389   9.242  0.7894 -0.8523  0.9693
  621MOL0     H81961   9.918  10.492   9.241 -4.4059 -3.9237 -0.2528
  621MOL0     H81962  10.087  10.711   9.181 -0.2508  1.1280  0.9886
  621MOL0     H81963  10.115  10.619   9.326 -1.8375 -0.4998  0.3841
  621MOL0     H81964  10.188  10.916   9.317  0.7397  0.6670  2.0719
  621MOL0     H81965  10.212  10.789   9.437  2.2596 -0.8638  0.5499
  621MOL0     H81966  10.356  10.669   9.301 -2.1804  0.3733 -0.0747
  621MOL0     H81967  10.427  10.830   9.318  1.6990 -0.3396 -2.6245
  621MOL0     H81968  10.313  10.702   9.069  0.1060  0.9470 -2.9803
  621MOL0     H81969  10.286  10.879   9.100  0.3656 -0.2829 -1.2070
  621MOL0     H81970  10.683  10.872   8.976 -1.5444 -0.4417 -3.5141
  621MOL0     H81971   9.744  10.842   9.452  1.3856  0.8747 -2.4853
  621MOL0     H81972   9.535  10.696   9.472 -1.1563 -1.2814 -1.8229
  622MOL0     O81973   6.040  10.178   5.092  0.0987  0.3665  0.2472
  622MOL0     C81974   6.121  10.115   5.162  0.3959  0.5599 -0.5058
  622MOL0     O81975   6.096   9.996   5.227 -0.2761  0.2551 -0.5789
  622MOL0     C81976   5.973   9.966   5.276 -0.1216 -0.2010  0.2392
  622MOL0     C81977   5.867  10.050   5.307 -0.7534  0.2733  0.4121
  622MOL0     C81978   5.739  10.010   5.355  0.4847 -0.2113 -0.7395
  622MOL0     C81979   5.718   9.868   5.363  1.3306 -0.3627 -0.7932
  622MOL0     O81980   5.592   9.834   5.412 -0.4984  0.2592  0.5789
  622MOL0     C81981   5.561   9.699   5.436 -0.0904 -0.3183 -0.5077
  622MOL0     C81982   5.409   9.689   5.434 -0.4128  0.2547 -0.6608
  622MOL0     C81983   5.352   9.791   5.534 -0.6599  0.3491 -1.4877
  622MOL0     C81984   5.206   9.773   5.555  1.0055 -0.5457 -0.1766
  622MOL0     C81985   5.155   9.886   5.643 -0.4615 -1.2639 -0.0920
  622MOL0     C81986   4.999   9.895   5.651  0.2151  0.3924 -0.3806
  622MOL0     C81987   4.929   9.988   5.550 -0.4779 -0.2323 -0.8250
  622MOL0     C81988   4.777   9.953   5.533  0.0393 -1.4146 -0.4435
  622MOL0     N81989   4.701   9.937   5.663  0.2679  0.4193 -0.2470
  622MOL0     C81990   4.691   9.818   5.731  0.3533  0.1986  0.0001
  622MOL0     C81991   4.620   9.857   5.845  0.6535  0.1105 -0.0685
  622MOL0     C81992   4.578   9.761   5.956 -0.1056 -0.0160  0.1071
  622MOL0     C81993   4.611   9.830   6.092 -0.1663  0.5018  1.2083
  622MOL0     C81994   4.579   9.726   6.201  0.0302  0.4991  0.1194
  622MOL0     C81995   4.572   9.787   6.344  0.3730  0.1039 -0.6077
  622MOL0     O81996   4.494   9.909   6.359 -0.1974 -0.3183 -0.0554
  622MOL0     C81997   4.354   9.905   6.358  0.2160  0.6153 -0.8464
  622MOL0     C81998   4.287  10.023   6.334  0.9579  0.7114 -1.0804
  622MOL0     C81999   4.149  10.027   6.326  0.1713 -0.2971  0.7824
  622MOL0     C82000   4.067   9.916   6.361  0.0041  0.1194 -0.6379
  622MOL0     C82001   3.919   9.924   6.357 -0.0288 -1.0661  0.1822
  622MOL0     O82002   3.852   9.834   6.433 -0.2325  0.4017 -0.3337
  622MOL0     C82003   3.718   9.843   6.468 -0.6004  0.3154 -0.6463
  622MOL0     C82004   3.665   9.741   6.545  0.4624 -0.2316 -0.4952
  622MOL0     C82005   3.540   9.751   6.615  0.5975 -0.2244  0.2526
  622MOL0     C82006   3.467   9.875   6.612  0.1811  0.2728 -0.5466
  622MOL0     O82007   3.351   9.905   6.669 -0.8820 -0.1058 -0.2827
  622MOL0     C82008   3.326   9.841   6.799 -1.2134  0.8866  0.2567
  622MOL0     C82009   3.232   9.931   6.876  0.0793  0.2324  0.0992
  622MOL0     C82010   3.087   9.911   6.822 -0.3415 -0.8438  0.8298
  622MOL0     C82011   3.000  10.030   6.860 -0.6877 -0.1143  0.6923
  622MOL0     C82012   2.868  10.029   6.788  0.4147 -0.7686  0.0432
  622MOL0     C82013   2.764  10.128   6.850  0.1505  0.6071  0.2116
  622MOL0     C82014   2.640  10.111   6.773 -0.2287 -0.0394 -0.1034
  622MOL0     C82015   2.531  10.205   6.824 -0.1804 -1.0759  0.7107
  622MOL0    Cl82016   2.591  10.372   6.825 -0.1405 -0.1682 -0.6408
  622MOL0     C82017   3.516   9.974   6.527  0.0727  0.3338 -0.8011
  622MOL0     C82018   3.639   9.960   6.462  0.0503  0.0871  0.6959
  622MOL0     O82019   3.865  10.002   6.282  0.2557 -0.0843  0.3383
  622MOL0     C82020   4.131   9.792   6.387  0.4187 -0.6807 -0.0517
  622MOL0     C82021   4.273   9.789   6.380 -0.6969  0.7119 -0.6986
  622MOL0     N82022   4.574   9.984   5.833 -0.1424  0.0939  0.0716
  622MOL0     N82023   4.628  10.030   5.729  0.2143  0.4234 -0.0622
  622MOL0     C82024   5.817   9.784   5.323  0.3393 -0.3607  0.1758
  622MOL0     C82025   5.942   9.831   5.296 -0.3874 -0.2372  0.3024
  622MOL0     C82026   6.253  10.178   5.178 -0.4127 -0.3270  0.2899
  622MOL0     C82027   6.281  10.292   5.095 -0.2048  0.4049 -0.1918
  622MOL0     C82028   6.416  10.342   5.094 -0.2400 -0.3479  0.1056
  622MOL0     C82029   6.524  10.274   5.165  0.7486 -0.2613 -0.3275
  622MOL0     O82030   6.651  10.324   5.184  0.4358  0.1431 -0.7093
  622MOL0     C82031   6.690  10.443   5.121  0.0470 -0.1427 -0.3948
  622MOL0     C82032   6.843  10.465   5.122 -0.2011 -0.4122 -0.5125
  622MOL0     C82033   6.902  10.479   5.264  0.0174 -0.3405 -0.0134
  622MOL0     C82034   7.049  10.435   5.274  0.2303  0.5055 -0.1012
  622MOL0     C82035   7.066  10.303   5.333  0.5343 -0.4380  0.2740
  622MOL0     C82036   7.061  10.192   5.390  0.2704 -0.4197 -0.0391
  622MOL0     C82037   6.491  10.170   5.246  0.3884  1.0218  0.2068
  622MOL0     C82038   6.359  10.121   5.249  0.6719 -0.2331 -1.0575
  622MOL0     H82039   5.894  10.153   5.288  2.5670 -0.9499 -2.3379
  622MOL0     H82040   5.667  10.082   5.393  0.3210 -1.6919  2.0137
  622MOL0     H82041   5.592   9.677   5.538 -0.9506 -1.1458 -0.4078
  622MOL0     H82042   5.594   9.618   5.371 -3.1029 -3.8652  2.0002
  622MOL0     H82043   5.386   9.588   5.468 -0.4319 -0.0651 -1.5957
  622MOL0     H82044   5.359   9.711   5.339  1.1716  1.5225 -1.2454
  622MOL0     H82045   5.375   9.893   5.500 -1.3650  0.9612 -0.2055
  622MOL0     H82046   5.402   9.781   5.631  0.2742  0.8680 -1.9007
  622MOL0     H82047   5.145   9.783   5.464  0.5951  0.5339  0.1995
  622MOL0     H82048   5.183   9.677   5.602  1.0748 -0.7471 -0.5472
  622MOL0     H82049   5.190   9.975   5.589 -3.3466  0.5640  0.8219
  622MOL0     H82050   5.200   9.888   5.743  2.3974  3.7367 -1.0944
  622MOL0     H82051   4.977   9.906   5.758  1.1090  0.0480 -0.1523
  622MOL0     H82052   4.966   9.792   5.637 -0.1601  0.0412  2.4153
  622MOL0     H82053   4.948  10.090   5.586 -0.1548 -0.7516  0.5695
  622MOL0     H82054   4.974   9.970   5.452  0.8253  0.8082 -0.4545
  622MOL0     H82055   4.774   9.854   5.486 -0.2165 -2.1836  1.1084
  622MOL0     H82056   4.717  10.016   5.467 -0.7452 -2.1167 -0.4125
  622MOL0     H82057   4.741   9.728   5.698 -1.2808  0.1008 -2.5465
  622MOL0     H82058   4.637   9.669   5.954 -1.5495 -1.1249  2.8163
  622MOL0     H82059   4.475   9.726   5.945  0.2055 -1.5811  1.8050
  622MOL0     H82060   4.547   9.919   6.099 -0.3286  0.4529  0.3961
  622MOL0     H82061   4.714   9.865   6.092  0.8933 -2.0493 -2.3117
  622MOL0     H82062   4.478   9.686   6.189 -0.5107  0.0629  4.4000
  622MOL0     H82063   4.644   9.639   6.194 -0.0946  0.2853  1.3123
  622MOL0     H82064   4.678   9.808   6.362  0.2984 -0.1971  0.2424
  622MOL0     H82065   4.529   9.722   6.421 -2.5833  1.3944 -1.0095
  622MOL0     H82066   4.342  10.116   6.330 -0.2038  1.5597  0.8602
  622MOL0     H82067   4.106  10.124   6.303 -1.1442 -1.5243 -2.6239
  622MOL0     H82068   3.729   9.654   6.550  1.1759  0.3510  0.9449
  622MOL0     H82069   3.507   9.669   6.677  1.2588  0.2571  1.2718
  622MOL0     H82070   3.420   9.829   6.853 -1.0685  1.7540  0.2106
  622MOL0     H82071   3.271   9.747   6.791 -0.8111  0.6745 -0.0887
  622MOL0     H82072   3.263  10.035   6.864  3.0051 -0.5818 -0.0721
  622MOL0     H82073   3.221   9.902   6.981 -1.6808  0.9009  0.1392
  622MOL0     H82074   3.044   9.821   6.866 -2.2979  0.2282  1.2143
  622MOL0     H82075   3.090   9.886   6.716  1.9959  0.7203  0.4417
  622MOL0     H82076   2.988  10.033   6.969  0.9304 -0.0318  0.8879
  622MOL0     H82077   3.032  10.131   6.837 -0.0700 -0.0289  1.8201
  622MOL0     H82078   2.827   9.928   6.801  0.2843 -0.4259  3.0118
  622MOL0     H82079   2.875  10.049   6.681 -2.3291  0.0685 -0.0599
  622MOL0     H82080   2.797  10.232   6.845 -1.4408  1.3055  2.4434
  622MOL0     H82081   2.741  10.103   6.955  0.8636  0.5035  0.3442
  622MOL0     H82082   2.664  10.133   6.669 -0.2737  0.4235 -0.0198
  622MOL0     H82083   2.599  10.010   6.772 -1.0079  0.1523  2.6750
  622MOL0     H82084   2.506  10.183   6.928 -1.9800 -1.8628  0.1446
  622MOL0     H82085   2.442  10.199   6.761 -0.8709 -0.5403  1.6117
  622MOL0     H82086   3.458  10.061   6.497  2.4312  1.7422 -1.4966
  622MOL0     H82087   3.673  10.033   6.390 -0.3550 -2.8797 -2.8525
  622MOL0     H82088   4.070   9.705   6.408  1.7654 -1.5447  0.4051
  622MOL0     H82089   4.327   9.698   6.405  1.3176  1.0150 -3.5708
  622MOL0     H82090   5.795   9.679   5.310  2.3969 -0.6850 -1.2128
  622MOL0     H82091   6.017   9.754   5.276 -0.5887  0.0325 -1.7418
  622MOL0     H82092   6.209  10.340   5.030  0.7297 -0.5852 -2.0343
  622MOL0     H82093   6.434  10.424   5.026  2.0203  0.2892  1.3652
  622MOL0     H82094   6.643  10.536   5.155  0.9358  1.0768 -2.2950
  622MOL0     H82095   6.665  10.439   5.014 -0.6802 -0.2095 -0.2302
  622MOL0     H82096   6.890  10.375   5.082  1.1248  0.2060 -0.4107
  622MOL0     H82097   6.872  10.558   5.071  0.3225  1.3627  2.7292
  622MOL0     H82098   6.841  10.423   5.336 -0.3871  1.4757  1.1263
  622MOL0     H82099   6.876  10.580   5.296 -1.0107 -0.5564 -0.1616
  622MOL0     H82100   7.095  10.442   5.175  0.2912  0.4305 -0.0785
  622MOL0     H82101   7.092  10.510   5.341  1.4944  0.1986 -0.5403
  622MOL0     H82102   7.071  10.095   5.434  0.4641  0.8878  3.0938
  622MOL0     H82103   6.571  10.128   5.305  2.8974  3.1338 -1.4873
  622MOL0     H82104   6.348  10.033   5.311  1.4202 -1.2250 -2.2832
  623MOL0     O82105   5.946   3.509   0.645 -0.2336 -0.0611 -0.0510
  623MOL0     C82106   6.047   3.460   0.699  0.5767  0.1029 -0.9818
  623MOL0     O82107   6.043   3.336   0.769  1.0009 -0.5875 -0.2016
  623MOL0     C82108   5.924   3.286   0.811  0.0183  0.4338  0.6688
  623MOL0     C82109   5.814   3.357   0.871  0.5908 -0.8928  0.1521
  623MOL0     C82110   5.703   3.293   0.911 -0.0536  0.1073  0.1236
  623MOL0     C82111   5.690   3.152   0.882  0.6664  0.0797  0.4345
  623MOL0     O82112   5.567   3.085   0.898  0.0252 -0.7409 -0.3305
  623MOL0     C82113   5.465   3.155   0.971 -0.3886  0.1788  0.1775
  623MOL0     C82114   5.349   3.060   0.976  0.6897  0.2168  0.6786
  623MOL0     C82115   5.274   3.030   0.844 -0.0099  0.0184  0.3338
  623MOL0     C82116   5.145   2.946   0.863  0.8318 -0.8737  0.6276
  623MOL0     C82117   5.071   2.941   0.724 -0.4784  0.3192  0.9244
  623MOL0     C82118   4.933   2.871   0.735  0.5496 -0.3011  0.8109
  623MOL0     C82119   4.873   2.861   0.595 -0.6874  0.6629  0.2380
  623MOL0     C82120   4.746   2.781   0.580 -0.7191 -0.2048  0.7093
  623MOL0     N82121   4.638   2.871   0.533  0.0318 -0.0884  0.1301
  623MOL0     C82122   4.620   2.898   0.404  0.5277  0.2565  0.2742
  623MOL0     C82123   4.515   2.981   0.398 -0.0315 -0.7170 -0.0572
  623MOL0     C82124   4.472   3.053   0.271  0.9275  0.7562  0.5554
  623MOL0     C82125   4.366   2.976   0.191 -0.1792 -0.2900  0.4454
  623MOL0     C82126   4.254   2.941   0.282 -0.6357  0.7592 -0.6931
  623MOL0     C82127   4.142   2.859   0.226  1.2843 -0.2895  0.3933
  623MOL0     O82128   4.083   2.784   0.324  0.1714  0.5300  0.4985
  623MOL0     C82129   3.956   2.736   0.303 -0.1865 -0.1367 -0.4970
  623MOL0     C82130   3.876   2.743   0.192 -0.0392 -0.1136  0.5040
  623MOL0     C82131   3.748   2.694   0.198  0.4713 -0.7355  1.2799
  623MOL0     C82132   3.698   2.624   0.305 -0.2117  0.4358 -0.0324
  623MOL0     C82133   3.563   2.571   0.299 -0.0058 -0.0433  0.7480
  623MOL0     O82134   3.503   2.570   0.180 -0.0936  0.4528 -0.0212
  623MOL0     C82135   3.406   2.479   0.160 -0.0214  0.6108  0.7976
  623MOL0     C82136   3.283   2.526   0.114 -0.6882  0.0455  0.2531
  623MOL0     C82137   3.177   2.438   0.085  0.4250  0.1240 -0.1183
  623MOL0     C82138   3.186   2.304   0.113  0.5170  0.6464  1.1248
  623MOL0     O82139   3.082   2.215   0.106  0.2414  0.0911 -0.2905
  623MOL0     C82140   2.966   2.266   0.183  0.1490 -0.5036  0.0579
  623MOL0     C82141   2.848   2.166   0.196 -1.5073  0.1020  0.4315
  623MOL0     C82142   2.728   2.232   0.263 -0.9821 -0.5564  0.8110
  623MOL0     C82143   2.604   2.142   0.269  0.1814 -0.4689 -0.2044
  623MOL0     C82144   2.472   2.220   0.310  0.3606  0.1646 -0.5353
  623MOL0     C82145   2.346   2.138   0.289  0.2290  0.1566 -0.3420
  623MOL0     C82146   2.227   2.227   0.332 -0.8813 -0.3980 -0.3770
  623MOL0     C82147   2.102   2.177   0.275 -0.1283  0.0412 -0.4629
  623MOL0    Cl82148   1.953   2.259   0.329 -0.1624 -0.4572 -0.3152
  623MOL0     C82149   3.309   2.258   0.158  0.8264  0.6006 -0.2869
  623MOL0     C82150   3.419   2.342   0.182  0.1450  0.3307 -0.0844
  623MOL0     O82151   3.516   2.528   0.404  1.3934 -0.2473 -0.4319
  623MOL0     C82152   3.783   2.615   0.418  0.8268 -0.0778  0.5520
  623MOL0     C82153   3.910   2.668   0.416 -0.2470  0.0279  0.1715
  623MOL0     N82154   4.477   3.006   0.531  0.4663 -0.4742  0.3648
  623MOL0     N82155   4.549   2.941   0.610 -0.3906  0.1557  0.6367
  623MOL0     C82156   5.793   3.078   0.822  0.7849 -0.2979  0.1428
  623MOL0     C82157   5.911   3.143   0.796 -0.1903 -0.3027 -0.0230
  623MOL0     C82158   6.179   3.519   0.693 -0.1638  0.2989  0.5070
  623MOL0     C82159   6.195   3.655   0.674  0.4475 -0.9496 -0.4946
  623MOL0     C82160   6.324   3.715   0.670  0.1564  0.9265 -0.6047
  623MOL0     C82161   6.443   3.637   0.684  0.8807 -0.6345 -0.6274
  623MOL0     O82162   6.571   3.680   0.684  0.2050 -0.0151 -0.4716
  623MOL0     C82163   6.599   3.817   0.649 -0.0717 -0.1142  0.0495
  623MOL0     C82164   6.748   3.822   0.632 -0.8704  0.2127  0.9118
  623MOL0     C82165   6.809   3.877   0.760  0.2134 -0.4204  0.0670
  623MOL0     C82166   6.942   3.816   0.789  0.2316 -0.0580  1.0885
  623MOL0     C82167   6.999   3.897   0.899  0.5552 -0.4510 -0.1864
  623MOL0     C82168   7.046   3.971   0.988 -0.8367  0.3579  0.3209
  623MOL0     C82169   6.433   3.503   0.707  0.5999  0.0227 -0.6079
  623MOL0     C82170   6.299   3.441   0.708 -0.1629  0.8835  1.1524
  623MOL0     H82171   5.806   3.465   0.882 -1.0655 -0.7999 -1.4942
  623MOL0     H82172   5.637   3.359   0.967 -0.3603 -0.9902  1.1029
  623MOL0     H82173   5.439   3.253   0.929 -0.2670 -0.2352 -0.8833
  623MOL0     H82174   5.493   3.177   1.075 -0.1302 -2.3407  0.6944
  623MOL0     H82175   5.274   3.110   1.040 -0.6630  0.6031 -1.1192
  623MOL0     H82176   5.378   2.963   1.016 -3.4892 -0.7601  1.8434
  623MOL0     H82177   5.342   2.979   0.776  0.7627  0.9796  0.3588
  623MOL0     H82178   5.237   3.126   0.805 -1.3133 -0.3657  0.5600
  623MOL0     H82179   5.175   2.845   0.894 -2.1983 -1.7917  0.8605
  623MOL0     H82180   5.077   2.984   0.939 -0.9586  4.0547 -2.9073
  623MOL0     H82181   5.139   2.875   0.670  0.7043  2.7713 -0.8020
  623MOL0     H82182   5.054   3.036   0.672 -0.7093 -0.9894 -1.5306
  623MOL0     H82183   4.866   2.938   0.791 -0.0532  2.3484 -2.7011
  623MOL0     H82184   4.934   2.767   0.768 -1.0436  0.0872  2.2618
  623MOL0     H82185   4.862   2.966   0.565  1.4905  0.7724 -0.3102
  623MOL0     H82186   4.956   2.824   0.535  0.2784 -0.7818  2.3357
  623MOL0     H82187   4.710   2.739   0.674  2.0363 -2.5957  0.8489
  623MOL0     H82188   4.756   2.690   0.521 -0.3092  0.7723 -0.7928
  623MOL0     H82189   4.674   2.840   0.330  1.0361  1.0391  0.0207
  623MOL0     H82190   4.553   3.079   0.203  0.6862 -0.3684 -0.1875
  623MOL0     H82191   4.439   3.150   0.309 -2.5466 -0.2257  0.4191
  623MOL0     H82192   4.410   2.880   0.163  1.1652  0.5897 -0.5342
  623MOL0     H82193   4.327   3.034   0.107 -1.2265  1.3842  2.0006
  623MOL0     H82194   4.299   2.884   0.363  2.0734  0.8209 -2.0313
  623MOL0     H82195   4.219   3.031   0.334  0.1690  0.4139  0.4687
  623MOL0     H82196   4.185   2.794   0.149  1.5904 -0.3865  0.6459
  623MOL0     H82197   4.072   2.931   0.182  0.1469 -2.0721 -0.8514
  623MOL0     H82198   3.908   2.785   0.097  1.9838  0.7795  1.5326
  623MOL0     H82199   3.685   2.709   0.111  0.3257  0.7520  1.6216
  623MOL0     H82200   3.270   2.631   0.087 -0.0461 -0.0807 -0.5659
  623MOL0     H82201   3.087   2.482   0.043  0.7056 -0.3818 -1.2703
  623MOL0     H82202   2.926   2.358   0.139 -0.9750 -0.8430  0.3215
  623MOL0     H82203   2.989   2.293   0.287 -1.4039 -3.1231  1.1823
  623MOL0     H82204   2.873   2.084   0.264 -1.5770  1.2717  1.9010
  623MOL0     H82205   2.824   2.127   0.097 -2.5970 -2.2684  1.5517
  623MOL0     H82206   2.702   2.323   0.207 -1.7108 -0.1854  1.6992
  623MOL0     H82207   2.764   2.278   0.356  1.1452 -1.5860  0.5478
  623MOL0     H82208   2.607   2.096   0.170  2.9552  1.6989 -1.2629
  623MOL0     H82209   2.617   2.062   0.343 -1.4583  0.3380  1.0431
  623MOL0     H82210   2.471   2.305   0.242  0.9699 -0.3143 -1.1599
  623MOL0     H82211   2.484   2.249   0.415  1.6370  0.0675 -0.6386
  623MOL0     H82212   2.352   2.053   0.358 -1.4410  1.8907  2.1429
  623MOL0     H82213   2.332   2.103   0.186 -2.2154 -2.4771  0.7440
  623MOL0     H82214   2.236   2.222   0.441 -1.2192 -0.0789 -0.3317
  623MOL0     H82215   2.247   2.325   0.288 -2.5104 -0.3672 -1.1106
  623MOL0     H82216   2.087   2.070   0.290  1.3161 -0.3142 -1.3376
  623MOL0     H82217   2.106   2.198   0.168  0.8961  1.3577 -0.1941
  623MOL0     H82218   3.335   2.155   0.179  2.7157  1.7324  4.3226
  623MOL0     H82219   3.511   2.305   0.226  0.9002  0.1512 -1.7318
  623MOL0     H82220   3.750   2.549   0.498  1.4855 -1.6488 -0.4253
  623MOL0     H82221   3.983   2.659   0.495  0.6966 -4.7017 -0.9375
  623MOL0     H82222   5.766   2.979   0.787  0.5659  0.0403 -0.6724
  623MOL0     H82223   6.002   3.105   0.752 -0.4522 -0.4543 -0.4367
  623MOL0     H82224   6.111   3.723   0.662  1.3363  0.3179  0.2413
  623MOL0     H82225   6.322   3.819   0.638  1.1246 -0.2558 -5.2750
  623MOL0     H82226   6.578   3.881   0.735  0.1955  1.0658 -0.7230
  623MOL0     H82227   6.541   3.852   0.562  0.8209  0.6197 -0.2730
  623MOL0     H82228   6.793   3.725   0.609  1.0719  0.6557  2.5955
  623MOL0     H82229   6.779   3.885   0.548  0.3631 -0.6252  0.7143
  623MOL0     H82230   6.740   3.858   0.843 -0.6085  1.4016 -0.1435
  623MOL0     H82231   6.805   3.986   0.751 -4.3796 -0.4927 -1.9757
  623MOL0     H82232   6.931   3.711   0.819 -1.6119 -0.4618 -0.8420
  623MOL0     H82233   7.004   3.819   0.699  2.1641 -1.2161  2.2777
  623MOL0     H82234   7.089   4.024   1.070 -0.1272  0.3374 -0.0305
  623MOL0     H82235   6.528   3.453   0.722  1.2458  1.2738 -0.3835
  623MOL0     H82236   6.290   3.335   0.731 -0.0746  0.3094 -1.1492
  624MOL0     O82237  10.488   3.510  10.155 -0.1912  0.5042 -0.1763
  624MOL0     C82238  10.517   3.471  10.045 -1.0445 -0.2141  0.5214
  624MOL0     O82239  10.441   3.464   9.931  0.3315  0.7302  0.1436
  624MOL0     C82240  10.307   3.506   9.951  0.0232 -0.5080 -0.4638
  624MOL0     C82241  10.283   3.636   9.915  0.2198 -1.3393 -0.2351
  624MOL0     C82242  10.152   3.686   9.927  0.1846  0.4715 -0.6184
  624MOL0     C82243  10.044   3.599   9.961  0.8884 -0.3529 -0.8124
  624MOL0     O82244   9.909   3.635   9.959  0.3516  0.0228 -0.6581
  624MOL0     C82245   9.869   3.778   9.954 -1.2050 -0.2196 -0.2922
  624MOL0     C82246   9.879   3.828   9.804  0.1643 -0.1074 -0.5295
  624MOL0     C82247   9.895   3.977   9.787 -0.5265  0.8794 -0.3253
  624MOL0     C82248   9.890   4.019   9.642 -0.0299  0.5276  0.1747
  624MOL0     C82249   9.951   4.159   9.622 -0.5183  0.1818  0.3388
  624MOL0     C82250  10.103   4.163   9.645  0.2078 -0.2249  0.1655
  624MOL0     C82251  10.192   4.074   9.562 -0.2166  0.1004 -0.7011
  624MOL0     C82252  10.341   4.094   9.569  0.0559  0.1612  0.5985
  624MOL0     N82253  10.405   4.052   9.689 -0.2303 -0.2153 -0.5986
  624MOL0     C82254  10.516   3.967   9.705  1.3951 -0.2223 -0.2570
  624MOL0     C82255  10.530   3.943   9.837 -0.0753  0.6356 -0.1237
  624MOL0     C82256  10.630   3.864   9.910  0.3065  0.1143 -0.2165
  624MOL0     C82257  10.748   3.944   9.990  0.0343  0.0203  0.3607
  624MOL0     C82258  10.700   3.991  10.131 -0.3906 -0.0910  1.0889
  624MOL0     C82259  10.693   3.870  10.228  0.1502  0.7407 -0.2470
  624MOL0     O82260  10.626   3.899  10.357 -0.5923 -0.0466  0.3059
  624MOL0     C82261  10.494   3.874  10.354  0.5515  0.0205 -0.5632
  624MOL0     C82262  10.406   3.832  10.244 -0.6918  0.6303  0.8983
  624MOL0     C82263  10.266   3.814  10.267 -0.5313 -0.2984 -0.2099
  624MOL0     C82264  10.204   3.850  10.388  0.6417 -0.3128  0.6396
  624MOL0     C82265  10.056   3.851  10.400  0.0885 -0.1082 -0.3108
  624MOL0     O82266  10.002   3.874  10.518  0.7611  0.0036  0.2502
  624MOL0     C82267   9.864   3.887  10.543 -1.0714 -0.6523 -1.5405
  624MOL0     C82268   9.829   3.941  10.663 -0.3394 -0.4589 -0.0382
  624MOL0     C82269   9.697   3.947  10.705  0.0798 -0.1297 -0.5753
  624MOL0     C82270   9.587   3.923  10.621 -0.3054  0.0167  0.7353
  624MOL0     O82271   9.460   3.947  10.666 -0.2630 -0.4144  0.4113
  624MOL0     C82272   9.355   3.859  10.630  0.4597 -0.6017  0.1251
  624MOL0     C82273   9.232   3.889  10.712 -0.0145  0.1605 -0.3602
  624MOL0     C82274   9.123   3.790  10.689  0.6227  0.4699 -0.4013
  624MOL0     C82275   8.987   3.833  10.741 -0.4873 -0.3493  0.1583
  624MOL0     C82276   8.874   3.743  10.683  0.5063  0.9347  0.0441
  624MOL0     C82277   8.735   3.807  10.715  0.0393  0.0755 -0.0899
  624MOL0     C82278   8.630   3.705  10.668  0.0199  0.9875  0.1656
  624MOL0     C82279   8.494   3.752  10.702 -0.6723  0.3010 -0.6072
  624MOL0    Cl82280   8.390   3.618  10.662  0.1620  0.0230 -0.1412
  624MOL0     C82281   9.622   3.872  10.492 -0.6878 -0.3364 -0.7466
  624MOL0     C82282   9.756   3.840  10.462  0.5116  0.6630 -0.0409
  624MOL0     O82283   9.998   3.852  10.295 -0.6437 -0.1299 -0.8202
  624MOL0     C82284  10.281   3.903  10.490  0.0404  0.0458  0.6560
  624MOL0     C82285  10.422   3.898  10.475 -0.1889 -0.9516 -0.6796
  624MOL0     N82286  10.424   4.010   9.892 -0.6356  0.5561 -0.3447
  624MOL0     N82287  10.353   4.082   9.811 -0.4804  0.0807  1.0627
  624MOL0     C82288  10.069   3.472   9.995 -0.1859 -0.5603 -0.3925
  624MOL0     C82289  10.205   3.426   9.992  1.7127  0.3700  0.0125
  624MOL0     C82290  10.669   3.483  10.033 -0.3371  0.9419  0.4231
  624MOL0     C82291  10.731   3.460   9.910  0.1373  0.4694 -1.3165
  624MOL0     C82292  10.867   3.466   9.890 -0.4805  0.1432  0.0750
  624MOL0     C82293  10.943   3.507   9.996 -0.6760 -0.1488  0.5894
  624MOL0     O82294  11.074   3.528   9.963  0.1971 -0.5378  0.3687
  624MOL0     C82295  11.176   3.545  10.061 -0.2716  0.3206  0.4000
  624MOL0     C82296  11.314   3.501  10.015  1.1874  0.2854 -0.0161
  624MOL0     C82297  11.439   3.569  10.078  0.7473 -0.3232  0.2724
  624MOL0     C82298  11.575   3.524  10.034  0.1522  0.0722 -0.3433
  624MOL0     C82299  11.605   3.386  10.080  0.1150 -0.0174  1.2419
  624MOL0     C82300  11.627   3.263  10.096  0.3143 -0.4122 -0.9690
  624MOL0     C82301  10.887   3.527  10.119  0.0957 -0.0982 -0.4236
  624MOL0     C82302  10.749   3.526  10.141 -0.0794 -0.2563  0.3155
  624MOL0     H82303  10.363   3.706   9.892  0.0292 -0.4095  1.7041
  624MOL0     H82304  10.138   3.790   9.897  1.1810  0.8351  0.1245
  624MOL0     H82305   9.935   3.841  10.013  0.6171 -1.3971 -0.9812
  624MOL0     H82306   9.765   3.793   9.984 -1.3775  2.1227 -1.7943
  624MOL0     H82307   9.786   3.801   9.754  0.7550  0.3163 -1.8831
  624MOL0     H82308   9.956   3.767   9.755  1.0266 -1.2021  1.9590
  624MOL0     H82309   9.999   3.989   9.820  0.9662 -0.8336 -3.8777
  624MOL0     H82310   9.822   4.039   9.840  0.5868  2.0090 -0.0374
  624MOL0     H82311   9.933   3.945   9.573  0.4234  2.7692 -2.1292
  624MOL0     H82312   9.785   4.031   9.616 -0.0475 -0.0685 -0.0379
  624MOL0     H82313   9.898   4.223   9.694  0.2597 -0.0479  1.1265
  624MOL0     H82314   9.932   4.198   9.522  0.8120  1.5869  0.5989
  624MOL0     H82315  10.117   4.155   9.753 -2.8559 -0.9128  0.6068
  624MOL0     H82316  10.129   4.265   9.615 -0.4631 -0.4262 -1.1398
  624MOL0     H82317  10.160   3.973   9.590  1.5573 -0.2445  0.2443
  624MOL0     H82318  10.166   4.096   9.458  0.3648  2.4054 -0.4145
  624MOL0     H82319  10.355   4.199   9.545 -0.5154 -0.0416 -0.6664
  624MOL0     H82320  10.389   4.045   9.484 -0.2394 -0.1928  0.6315
  624MOL0     H82321  10.574   3.930   9.621  0.0907  0.0877 -1.3320
  624MOL0     H82322  10.672   3.794   9.837 -3.2325 -2.8836  0.3557
  624MOL0     H82323  10.573   3.794   9.971  0.7252  1.7310  2.1901
  624MOL0     H82324  10.780   4.029   9.928  0.0228  1.6577  2.5006
  624MOL0     H82325  10.841   3.887   9.994  0.5575  0.5150 -2.5086
  624MOL0     H82326  10.765   4.070  10.167 -0.9264  1.1920 -0.6169
  624MOL0     H82327  10.602   4.033  10.108  0.9453  3.2685  1.0151
  624MOL0     H82328  10.797   3.842  10.251  1.1147  2.7585 -1.8634
  624MOL0     H82329  10.649   3.786  10.173  0.3235 -0.5270  1.4359
  624MOL0     H82330  10.435   3.804  10.143  1.2170  1.1306  1.2537
  624MOL0     H82331  10.205   3.791  10.180 -1.2270  0.7875 -0.0386
  624MOL0     H82332   9.899   3.981  10.737 -0.6227  0.5446 -0.2937
  624MOL0     H82333   9.677   3.992  10.802 -1.0829  0.7376 -1.1766
  624MOL0     H82334   9.392   3.758  10.652  1.3871 -0.6351 -1.4708
  624MOL0     H82335   9.350   3.868  10.522  3.1187 -1.1211 -0.1037
  624MOL0     H82336   9.206   3.995  10.699  0.1441 -0.0820 -3.0554
  624MOL0     H82337   9.263   3.886  10.817 -2.2540 -0.5053  0.3402
  624MOL0     H82338   9.137   3.689  10.730 -1.4411  0.2757 -0.1101
  624MOL0     H82339   9.120   3.783  10.580  2.0758  0.7603 -0.4919
  624MOL0     H82340   8.993   3.834  10.850  0.0238  2.0072  0.1561
  624MOL0     H82341   8.970   3.935  10.705  1.9331  0.5371  1.3266
  624MOL0     H82342   8.882   3.640  10.719  2.8245  0.3736 -1.8018
  624MOL0     H82343   8.895   3.730  10.577  0.1029 -0.5025  0.1239
  624MOL0     H82344   8.724   3.907  10.673  2.2935  0.1514 -0.6162
  624MOL0     H82345   8.732   3.821  10.824  2.3672 -2.8557  0.4902
  624MOL0     H82346   8.644   3.698  10.559  4.3412  3.2938  0.3320
  624MOL0     H82347   8.657   3.610  10.715  2.3774  1.7850  0.5856
  624MOL0     H82348   8.480   3.847  10.650  2.4336  1.2500  0.1019
  624MOL0     H82349   8.504   3.787  10.805 -0.8266  0.4650 -0.6472
  624MOL0     H82350   9.538   3.843  10.429 -1.0588 -1.2570  0.1337
  624MOL0     H82351   9.780   3.776  10.378 -0.6973  1.4058 -0.9992
  624MOL0     H82352  10.245   3.943  10.584  3.1319  2.6118  0.8786
  624MOL0     H82353  10.483   3.947  10.550 -1.2714  0.0098 -0.3916
  624MOL0     H82354   9.988   3.401  10.012 -2.0163  1.1384 -1.5182
  624MOL0     H82355  10.233   3.325  10.020 -0.2478 -0.7150 -1.7303
  624MOL0     H82356  10.670   3.431   9.825  0.4402  0.8538 -1.6723
  624MOL0     H82357  10.906   3.458   9.790  4.6545 -0.1188  1.8264
  624MOL0     H82358  11.153   3.493  10.155  2.1083 -1.9190 -0.1425
  624MOL0     H82359  11.166   3.651  10.085 -1.1196  1.4183 -3.9578
  624MOL0     H82360  11.318   3.392  10.025 -0.8482  0.3015  1.6508
  624MOL0     H82361  11.324   3.524   9.908  0.0277 -4.4026 -1.3939
  624MOL0     H82362  11.426   3.558  10.186  0.4442  2.4334  0.5868
  624MOL0     H82363  11.439   3.678  10.068 -0.6840 -0.1993  1.3436
  624MOL0     H82364  11.586   3.537   9.926  1.1537  3.4342  0.0496
  624MOL0     H82365  11.650   3.589  10.080  0.7614 -0.7525 -0.1491
  624MOL0     H82366  11.622   3.158  10.112 -0.7111  0.0749  2.5642
  624MOL0     H82367  10.939   3.551  10.211 -0.6756 -1.7288  0.4901
  624MOL0     H82368  10.704   3.538  10.239 -2.8128  0.5147 -0.9280
  625MOL0     O82369   4.398   4.689   5.394  0.4087  0.0465  0.4877
  625MOL0     C82370   4.413   4.721   5.276 -0.1064  0.2552 -0.2575
  625MOL0     O82371   4.302   4.750   5.194 -0.1774  0.1917 -0.2330
  625MOL0     C82372   4.172   4.749   5.249 -0.0142 -0.2821  0.1334
  625MOL0     C82373   4.091   4.852   5.204  0.5661  0.3353  0.3479
  625MOL0     C82374   3.959   4.860   5.240 -0.1011  0.1158  0.4485
  625MOL0     C82375   3.899   4.776   5.337  0.4871  0.6398  0.7579
  625MOL0     O82376   3.772   4.789   5.383  0.1389 -0.4391 -0.1709
  625MOL0     C82377   3.697   4.899   5.328 -0.5081  0.2874  0.2308
  625MOL0     C82378   3.558   4.903   5.389 -0.4194  0.3918  0.5047
  625MOL0     C82379   3.495   5.043   5.406 -0.5925  0.1852  0.9418
  625MOL0     C82380   3.372   5.045   5.486 -0.5351 -0.4250  0.8251
  625MOL0     C82381   3.256   4.982   5.405  0.6500 -0.4606  0.0935
  625MOL0     C82382   3.127   5.039   5.474 -1.3109  0.4148 -0.5213
  625MOL0     C82383   3.003   4.952   5.426 -0.3092  0.4029 -0.2763
  625MOL0     C82384   2.875   5.014   5.472 -0.4934 -0.4344  0.7005
  625MOL0     N82385   2.756   4.933   5.457  0.0045 -0.1359 -0.2701
  625MOL0     C82386   2.634   4.966   5.517 -0.1194  1.2640  0.5344
  625MOL0     C82387   2.549   4.873   5.463 -1.0909 -0.1117 -1.1741
  625MOL0     C82388   2.408   4.847   5.492  0.2394  0.0526  0.6918
  625MOL0     C82389   2.346   4.917   5.610 -0.1995  0.0851 -0.2655
  625MOL0     C82390   2.289   5.053   5.560  0.0695  0.4080 -0.3249
  625MOL0     C82391   2.259   5.147   5.681 -0.3179 -0.3876  0.6571
  625MOL0     O82392   2.142   5.111   5.753 -0.5717 -0.3979 -0.4989
  625MOL0     C82393   2.028   5.174   5.720  0.8521 -0.0179  0.4788
  625MOL0     C82394   1.933   5.091   5.652 -0.3406 -0.0151 -0.5040
  625MOL0     C82395   1.814   5.142   5.606  0.8444  0.2432  1.2651
  625MOL0     C82396   1.785   5.281   5.623 -0.4583 -0.3278  0.3513
  625MOL0     C82397   1.655   5.337   5.585  0.3561 -0.3197 -0.7316
  625MOL0     O82398   1.612   5.456   5.644  0.2755 -0.1972  0.4437
  625MOL0     C82399   1.491   5.511   5.619 -0.5052  0.0331  0.8165
  625MOL0     C82400   1.389   5.472   5.533 -0.5757  0.7200 -0.3479
  625MOL0     C82401   1.267   5.542   5.520 -0.9329 -0.4185  0.0506
  625MOL0     C82402   1.242   5.660   5.586 -0.6642  0.0375  0.0599
  625MOL0     O82403   1.119   5.719   5.565  0.4590 -0.5770 -0.2226
  625MOL0     C82404   1.064   5.811   5.660 -0.2695  0.6997 -0.5486
  625MOL0     C82405   0.916   5.852   5.643  0.3215 -0.2693 -1.2241
  625MOL0     C82406   0.821   5.737   5.611 -0.4774  0.2020  0.2326
  625MOL0     C82407   0.673   5.775   5.603  0.1417 -0.0362 -0.4865
  625MOL0     C82408   0.582   5.651   5.559 -0.5281  0.2035 -0.4309
  625MOL0     C82409   0.431   5.686   5.557  0.3964  0.1476 -0.5855
  625MOL0     C82410   0.332   5.575   5.505 -0.2926 -0.2564 -1.0416
  625MOL0     C82411   0.342   5.452   5.591 -0.9456 -0.6457  0.4292
  625MOL0    Cl82412   0.201   5.342   5.563 -0.6607  0.2862  0.5846
  625MOL0     C82413   1.344   5.705   5.666 -0.0360 -0.3946  0.0173
  625MOL0     C82414   1.462   5.628   5.683  0.7695 -0.6070  0.1585
  625MOL0     O82415   1.592   5.277   5.498  0.1159  0.4008 -0.7147
  625MOL0     C82416   1.874   5.371   5.692 -0.4226 -0.0323  0.4895
  625MOL0     C82417   1.997   5.311   5.735  0.8083 -0.1355  0.4247
  625MOL0     N82418   2.621   4.790   5.376 -0.9901 -0.6282 -0.9131
  625MOL0     N82419   2.742   4.817   5.386 -0.2056 -0.0540  0.4194
  625MOL0     C82420   3.975   4.669   5.377 -0.1884 -0.1056  0.2622
  625MOL0     C82421   4.110   4.653   5.334  0.2938  0.0776 -0.1994
  625MOL0     C82422   4.546   4.709   5.210 -0.5203 -0.2798 -0.0769
  625MOL0     C82423   4.576   4.760   5.081  1.0275  0.0111 -0.3434
  625MOL0     C82424   4.705   4.771   5.030 -0.3353 -0.3819  0.2247
  625MOL0     C82425   4.811   4.705   5.091 -0.5006  0.5734 -0.6882
  625MOL0     O82426   4.940   4.707   5.044  0.0938  0.4806  0.7316
  625MOL0     C82427   4.982   4.811   4.949 -0.0941  0.4356 -0.0369
  625MOL0     C82428   4.965   4.760   4.806  0.4751  0.0270  0.1497
  625MOL0     C82429   5.043   4.641   4.776 -0.6307  0.5638  0.2492
  625MOL0     C82430   4.980   4.543   4.682  0.8629 -0.8574  0.3715
  625MOL0     C82431   4.880   4.473   4.755 -0.1005  0.7469 -0.3328
  625MOL0     C82432   4.795   4.413   4.819 -0.3017 -0.0576  0.1977
  625MOL0     C82433   4.776   4.635   5.208 -0.1531 -0.2041 -0.0853
  625MOL0     C82434   4.647   4.632   5.266  0.4838  0.4101 -0.2473
  625MOL0     H82435   4.134   4.933   5.146 -0.6661  0.9815  0.3074
  625MOL0     H82436   3.914   4.942   5.185 -0.4640 -0.7686 -0.6125
  625MOL0     H82437   3.694   4.896   5.219 -1.6331  1.1775  0.2180
  625MOL0     H82438   3.752   4.988   5.359  0.9474 -1.1926  2.2421
  625MOL0     H82439   3.553   4.851   5.485  0.4966 -0.5471  0.0659
  625MOL0     H82440   3.480   4.858   5.327 -1.4695  2.9799 -0.2054
  625MOL0     H82441   3.473   5.090   5.310 -1.6009 -2.6027 -0.3282
  625MOL0     H82442   3.570   5.106   5.454  0.9368  0.0089 -1.0845
  625MOL0     H82443   3.379   4.998   5.585  1.0111  0.2814  1.0706
  625MOL0     H82444   3.353   5.152   5.501  1.3899  0.4689 -2.1845
  625MOL0     H82445   3.252   4.873   5.409 -0.5590 -0.4044  0.9157
  625MOL0     H82446   3.262   5.011   5.299 -4.4584 -2.8779 -1.1770
  625MOL0     H82447   3.120   5.147   5.455 -1.8616  0.3475 -0.7111
  625MOL0     H82448   3.131   5.028   5.583  0.3735  2.9512 -0.2147
  625MOL0     H82449   2.999   4.941   5.317  0.5662  1.1725 -0.4045
  625MOL0     H82450   3.007   4.852   5.469  1.5692  0.3471 -0.4922
  625MOL0     H82451   2.864   5.096   5.400  0.6242 -1.9868 -1.3735
  625MOL0     H82452   2.887   5.057   5.571  1.9830  0.7795 -0.0576
  625MOL0     H82453   2.606   5.033   5.598  0.2126 -0.1214  1.8395
  625MOL0     H82454   2.400   4.741   5.516  1.6523  0.2425  2.1705
  625MOL0     H82455   2.350   4.861   5.400  0.2806 -0.0692  0.6471
  625MOL0     H82456   2.431   4.919   5.679 -1.1818  1.7044  0.9554
  625MOL0     H82457   2.270   4.850   5.652 -0.8220  1.5582  1.0374
  625MOL0     H82458   2.345   5.113   5.488 -3.0995  0.5977 -2.8663
  625MOL0     H82459   2.200   5.024   5.502 -0.3736  1.0684  0.0176
  625MOL0     H82460   2.255   5.253   5.653 -1.0848 -0.2884  1.0982
  625MOL0     H82461   2.341   5.124   5.750 -0.2348  0.8114  0.9887
  625MOL0     H82462   1.958   4.987   5.632  4.1175  1.0062 -1.2903
  625MOL0     H82463   1.743   5.083   5.549 -0.4964 -0.2540  3.3210
  625MOL0     H82464   1.408   5.387   5.468  2.0615  0.6573  0.3824
  625MOL0     H82465   1.182   5.505   5.463  0.1896  0.2842 -2.1792
  625MOL0     H82466   1.113   5.909   5.654  1.6966 -0.1850  0.2568
  625MOL0     H82467   1.078   5.782   5.765  0.8189  1.2190 -0.5339
  625MOL0     H82468   0.907   5.926   5.563 -1.2391  1.4871  0.4939
  625MOL0     H82469   0.884   5.907   5.731  0.8510  2.3266 -2.5437
  625MOL0     H82470   0.834   5.650   5.676 -1.6950  0.6074  1.0501
  625MOL0     H82471   0.854   5.710   5.510  3.2043 -1.2263  1.6568
  625MOL0     H82472   0.636   5.815   5.698 -0.9303  0.0273 -0.9150
  625MOL0     H82473   0.665   5.858   5.532 -2.0439 -1.2594 -1.7899
  625MOL0     H82474   0.596   5.566   5.627 -0.3884 -0.1913 -0.9408
  625MOL0     H82475   0.616   5.598   5.469  1.1903 -3.7392  2.2370
  625MOL0     H82476   0.419   5.783   5.507 -2.9045  1.7024  2.7080
  625MOL0     H82477   0.411   5.698   5.664 -0.0732 -2.3088 -0.3529
  625MOL0     H82478   0.228   5.609   5.512 -0.2293 -0.2550  0.2144
  625MOL0     H82479   0.348   5.558   5.398  0.7386 -1.1600 -0.7639
  625MOL0     H82480   0.355   5.471   5.698 -1.4402 -0.2712  0.4285
  625MOL0     H82481   0.438   5.404   5.569  0.7613  0.9066  3.7146
  625MOL0     H82482   1.333   5.806   5.705  2.8888 -0.3649  0.9872
  625MOL0     H82483   1.542   5.664   5.747  0.8906 -1.5740  0.5815
  625MOL0     H82484   1.862   5.477   5.711  1.5537 -0.1365  2.8183
  625MOL0     H82485   2.071   5.382   5.772  0.4015  1.0864 -0.9948
  625MOL0     H82486   3.922   4.604   5.447 -2.7906 -2.7062 -3.7097
  625MOL0     H82487   4.169   4.572   5.375  0.4073  1.5782  2.9172
  625MOL0     H82488   4.510   4.828   5.028  0.7773 -1.8271 -2.5472
  625MOL0     H82489   4.728   4.846   4.956  1.0627  0.1439  1.1376
  625MOL0     H82490   5.086   4.835   4.970 -0.5472  0.5844  2.2184
  625MOL0     H82491   4.931   4.907   4.966 -1.2420 -0.0691 -0.5577
  625MOL0     H82492   4.860   4.733   4.790  0.7644 -0.2829 -1.3474
  625MOL0     H82493   5.000   4.835   4.735 -1.3951  1.9631  1.1592
  625MOL0     H82494   5.068   4.585   4.867 -1.2164 -0.0972  0.0158
  625MOL0     H82495   5.136   4.675   4.730 -1.1297  1.9182  0.2004
  625MOL0     H82496   4.927   4.599   4.604  1.6394 -1.0350 -0.2974
  625MOL0     H82497   5.060   4.486   4.635  0.3632 -2.1955  1.1086
  625MOL0     H82498   4.714   4.359   4.865 -0.7182 -0.0304 -0.4837
  625MOL0     H82499   4.857   4.574   5.246 -2.9726 -3.2762  1.4983
  625MOL0     H82500   4.627   4.565   5.349 -0.4495  0.0219 -0.7807
  626MOL0     O82501   4.815   6.629   8.825  0.2237  0.5184 -0.2199
  626MOL0     C82502   4.867   6.732   8.870 -0.3765  0.7274  0.4531
  626MOL0     O82503   4.812   6.814   8.963  0.5519  0.6343  0.3291
  626MOL0     C82504   4.689   6.787   9.020  0.1931  0.5787 -0.5835
  626MOL0     C82505   4.571   6.813   8.955  0.8160 -0.1991 -0.1571
  626MOL0     C82506   4.457   6.789   9.025 -0.9211  1.2049  0.2048
  626MOL0     C82507   4.455   6.739   9.157  0.2965  0.6792 -0.0186
  626MOL0     O82508   4.340   6.718   9.223  0.7124  0.1214  0.0214
  626MOL0     C82509   4.212   6.735   9.164  0.1212  0.0679 -0.6639
  626MOL0     C82510   4.095   6.723   9.260  0.3416  0.0380  0.6373
  626MOL0     C82511   4.097   6.602   9.349  0.0051  0.5959  0.0404
  626MOL0     C82512   3.957   6.585   9.418  0.2502 -0.0932 -0.0720
  626MOL0     C82513   3.957   6.481   9.525  0.5862 -0.0364  1.0713
  626MOL0     C82514   3.998   6.535   9.663  0.1836  0.2023 -1.4387
  626MOL0     C82515   3.864   6.554   9.748 -0.2850 -0.1977 -0.3236
  626MOL0     C82516   3.880   6.559   9.904  0.2227 -0.0036 -0.1395
  626MOL0     N82517   3.753   6.547   9.971 -0.3697 -0.1205 -0.0471
  626MOL0     C82518   3.669   6.650   9.994  0.1614  0.2292  0.4478
  626MOL0     C82519   3.550   6.593  10.030  0.5538  0.2016 -0.0864
  626MOL0     C82520   3.418   6.663  10.065  0.2938 -0.6318  0.5643
  626MOL0     C82521   3.367   6.738   9.945  0.1355  0.2281  0.2637
  626MOL0     C82522   3.250   6.827   9.980 -0.9160 -0.0657  0.5755
  626MOL0     C82523   3.194   6.896   9.858  0.5723 -0.7367  0.6008
  626MOL0     O82524   3.098   6.997   9.907 -0.6037 -0.1351  0.1739
  626MOL0     C82525   2.989   6.961   9.988 -0.3487 -0.3316  0.0100
  626MOL0     C82526   2.913   6.849   9.958 -0.3517  0.3473 -0.6214
  626MOL0     C82527   2.809   6.812  10.039  0.4933 -0.4778 -0.0754
  626MOL0     C82528   2.773   6.889  10.151 -0.7425  0.4477 -0.2260
  626MOL0     C82529   2.652   6.844  10.232 -1.5215  1.2458  0.3043
  626MOL0     O82530   2.598   6.944  10.312 -0.1563  0.1438  0.2213
  626MOL0     C82531   2.475   6.928  10.369 -0.3884  0.5594  0.5066
  626MOL0     C82532   2.457   6.999  10.490  0.6007  0.4392 -0.7879
  626MOL0     C82533   2.327   7.012  10.541  0.0407 -0.5017  0.7422
  626MOL0     C82534   2.218   6.967  10.471  1.4105  0.1786 -0.2995
  626MOL0     O82535   2.096   6.985  10.524  0.5131 -0.3389 -0.2758
  626MOL0     C82536   2.066   6.893  10.622 -0.2391  0.0400 -0.2623
  626MOL0     C82537   1.922   6.915  10.668  0.3009  0.6946 -0.2531
  626MOL0     C82538   1.872   6.809  10.766 -0.8351 -0.3385  0.1463
  626MOL0     C82539   1.732   6.832  10.810  0.2029 -0.8218  0.0542
  626MOL0     C82540   1.682   6.723  10.906 -0.8372 -0.0634  0.3252
  626MOL0     C82541   1.540   6.747  10.963  0.2667 -0.1188  0.6432
  626MOL0     C82542   1.441   6.827  10.871  0.5065  0.0934  0.1998
  626MOL0     C82543   1.292   6.814  10.906  0.1499 -0.1880  0.0242
  626MOL0    Cl82544   1.233   6.977  10.846  0.0173 -0.1870  0.1474
  626MOL0     C82545   2.237   6.880  10.363 -0.6396 -1.0186 -0.6921
  626MOL0     C82546   2.367   6.858  10.310  0.5769 -0.3527 -0.0754
  626MOL0     O82547   2.612   6.726  10.225 -0.1510  0.1766  0.6251
  626MOL0     C82548   2.845   7.007  10.180  0.5980  0.0586  0.7226
  626MOL0     C82549   2.946   7.038  10.096 -0.4700  0.1564 -0.1908
  626MOL0     N82550   3.558   6.456  10.013 -0.5996 -0.4072 -0.6952
  626MOL0     N82551   3.677   6.436   9.971  0.1253  0.4144 -0.3928
  626MOL0     C82552   4.575   6.711   9.213  0.1834  0.6352  0.6532
  626MOL0     C82553   4.693   6.742   9.146  0.0794  0.8861 -0.0606
  626MOL0     C82554   5.014   6.733   8.870 -0.3230 -0.8043 -0.3242
  626MOL0     C82555   5.088   6.831   8.944  0.9720  0.8451 -0.3225
  626MOL0     C82556   5.227   6.824   8.947  0.5761  0.2162  0.5039
  626MOL0     C82557   5.296   6.716   8.889 -0.1666  0.6175  0.4582
  626MOL0     O82558   5.431   6.723   8.907  0.4758  0.6921  0.6752
  626MOL0     C82559   5.509   6.738   8.788  0.3657  0.5859  0.0434
  626MOL0     C82560   5.661   6.709   8.813 -0.3455 -0.5962 -0.4447
  626MOL0     C82561   5.716   6.813   8.911  0.1728 -0.7867 -0.1461
  626MOL0     C82562   5.865   6.839   8.889  0.3828  0.3344 -0.0113
  626MOL0     C82563   5.912   6.943   8.987  0.4442  0.4404 -0.4753
  626MOL0     C82564   5.967   7.019   9.071 -0.4418 -0.6407  0.0483
  626MOL0     C82565   5.225   6.623   8.816 -0.2115 -0.3220 -0.4446
  626MOL0     C82566   5.085   6.630   8.805  0.0906  0.2256  0.5814
  626MOL0     H82567   4.573   6.861   8.858  0.4751  1.4408  0.6231
  626MOL0     H82568   4.363   6.816   8.977 -1.6758 -2.3864 -0.6136
  626MOL0     H82569   4.209   6.660   9.084  0.2976 -0.2198 -0.4064
  626MOL0     H82570   4.206   6.836   9.124  0.3414  0.6562  0.7257
  626MOL0     H82571   4.010   6.718   9.191  1.1894  1.2407 -0.5551
  626MOL0     H82572   4.081   6.814   9.319 -0.6068  0.0372  0.4283
  626MOL0     H82573   4.173   6.610   9.427 -0.0237 -1.1331  0.2999
  626MOL0     H82574   4.104   6.516   9.282  0.7185  0.6970 -0.0187
  626MOL0     H82575   3.938   6.685   9.459  1.6890  1.2039 -2.3155
  626MOL0     H82576   3.885   6.560   9.340  0.3578  0.4512 -0.3543
  626MOL0     H82577   4.024   6.404   9.487  0.4628 -0.1298  1.0440
  626MOL0     H82578   3.851   6.455   9.526 -0.5916  3.5996 -2.4777
  626MOL0     H82579   4.070   6.618   9.664  1.6392 -1.0292 -0.9087
  626MOL0     H82580   4.056   6.459   9.716  0.0109  1.2252  0.3252
  626MOL0     H82581   3.817   6.649   9.720 -1.2790 -1.3202 -2.6929
  626MOL0     H82582   3.794   6.473   9.727 -0.3566 -0.9240  2.3216
  626MOL0     H82583   3.922   6.657   9.930  0.9031  0.5614 -2.9978
  626MOL0     H82584   3.937   6.471   9.936 -0.9710 -0.1040  1.8566
  626MOL0     H82585   3.692   6.755  10.005 -0.1895  0.3074  0.4745
  626MOL0     H82586   3.426   6.746  10.136 -1.9412  0.6567 -0.5524
  626MOL0     H82587   3.346   6.596  10.113  0.1498 -1.3965 -0.6847
  626MOL0     H82588   3.340   6.657   9.876  3.8483  0.2567 -1.4668
  626MOL0     H82589   3.450   6.796   9.903 -0.2597 -0.3211 -1.3546
  626MOL0     H82590   3.173   6.766  10.028 -0.0969 -1.2895  0.3703
  626MOL0     H82591   3.280   6.901  10.055 -1.2169 -2.8402  3.6763
  626MOL0     H82592   3.149   6.828   9.785 -3.0584  1.5365  0.4346
  626MOL0     H82593   3.277   6.944   9.805  0.6104  0.2013  1.4782
  626MOL0     H82594   2.918   6.786   9.869 -2.5371 -0.9765  0.1148
  626MOL0     H82595   2.747   6.725  10.022 -0.4185  0.1500 -0.0207
  626MOL0     H82596   2.541   7.048  10.540 -0.0148  1.5169 -0.7758
  626MOL0     H82597   2.311   7.068  10.633  0.6788 -1.7963  1.6649
  626MOL0     H82598   2.128   6.898  10.712 -0.2306  0.3248 -0.2835
  626MOL0     H82599   2.071   6.787  10.597 -0.4499 -1.0418  3.6225
  626MOL0     H82600   1.854   6.903  10.584  0.2628 -0.4659 -0.0722
  626MOL0     H82601   1.902   7.018  10.700 -2.7623 -0.0031  0.3429
  626MOL0     H82602   1.939   6.811  10.852 -0.9119  3.4805  0.2871
  626MOL0     H82603   1.885   6.710  10.720  2.0467 -0.1764  0.4718
  626MOL0     H82604   1.740   6.923  10.869  4.0766 -0.6573 -0.4385
  626MOL0     H82605   1.660   6.843  10.728 -2.1458 -1.4628  1.9200
  626MOL0     H82606   1.753   6.720  10.989 -0.9353  0.4347  0.4284
  626MOL0     H82607   1.687   6.622  10.862 -0.7018  0.7664 -1.6653
  626MOL0     H82608   1.553   6.794  11.060  1.1290 -2.7697  1.8925
  626MOL0     H82609   1.509   6.643  10.974 -1.8507  0.4290  0.2743
  626MOL0     H82610   1.474   6.930  10.891 -1.1720  0.4994  1.0400
  626MOL0     H82611   1.457   6.805  10.765  0.1893 -0.8907  0.3443
  626MOL0     H82612   1.246   6.822  11.005 -2.8661 -0.9988 -1.1994
  626MOL0     H82613   1.249   6.729  10.852 -1.8420  2.0960 -2.2709
  626MOL0     H82614   2.144   6.856  10.311 -3.4030  2.3910  2.1539
  626MOL0     H82615   2.366   6.805  10.215  1.9878 -0.9279  0.2074
  626MOL0     H82616   2.813   7.079  10.255  1.0622  2.3140 -1.1329
  626MOL0     H82617   3.000   7.132  10.109 -2.2240  1.1804 -0.0185
  626MOL0     H82618   4.566   6.680   9.316  1.3433  3.3789  1.6664
  626MOL0     H82619   4.780   6.722   9.208 -0.5604  0.0149  0.5861
  626MOL0     H82620   5.032   6.911   8.993 -0.5519  0.3729 -1.2267
  626MOL0     H82621   5.277   6.897   9.011 -1.3057  1.4065  0.6916
  626MOL0     H82622   5.484   6.835   8.744 -0.9792  1.0964  1.8164
  626MOL0     H82623   5.479   6.676   8.702  0.5508  1.3397 -0.5771
  626MOL0     H82624   5.683   6.608   8.848 -1.5593 -1.0058 -0.8015
  626MOL0     H82625   5.715   6.725   8.719 -0.1157 -1.3358 -0.4451
  626MOL0     H82626   5.701   6.785   9.016 -2.7529  2.8738  0.6252
  626MOL0     H82627   5.652   6.899   8.889 -2.2178 -2.9914 -2.4592
  626MOL0     H82628   5.922   6.747   8.905 -0.3526  0.0317  0.9280
  626MOL0     H82629   5.877   6.867   8.784  1.6589  1.2620  0.3633
  626MOL0     H82630   6.024   7.097   9.118  0.3020  0.5891 -2.6802
  626MOL0     H82631   5.280   6.552   8.756  1.1079  0.2706  0.0406
  626MOL0     H82632   5.031   6.557   8.745 -0.9885  1.8647 -0.5212
  627MOL0     O82633   0.481   8.321   4.055 -0.4385  0.6171  0.3672
  627MOL0     C82634   0.471   8.291   3.936  0.6778  0.0188 -0.2957
  627MOL0     O82635   0.362   8.223   3.879 -0.3733 -0.3235  0.3279
  627MOL0     C82636   0.239   8.238   3.938 -0.2784  0.3768  0.0812
  627MOL0     C82637   0.180   8.361   3.986 -0.0522  0.2637  0.3975
  627MOL0     C82638   0.061   8.350   4.062 -0.5106 -0.1936  0.1482
  627MOL0     C82639  -0.012   8.235   4.085 -0.6000  0.8118  0.3408
  627MOL0     O82640  -0.137   8.245   4.145  0.2106 -0.1500 -0.4544
  627MOL0     C82641  -0.220   8.126   4.144 -0.5206 -1.2288  0.0709
  627MOL0     C82642  -0.357   8.164   4.197 -0.4916  0.6028  0.1056
  627MOL0     C82643  -0.468   8.050   4.183 -0.1834 -0.4241  0.0312
  627MOL0     C82644  -0.604   8.107   4.218  0.4397  0.2449  0.4062
  627MOL0     C82645  -0.696   7.983   4.257 -0.6040 -0.6134 -0.2441
  627MOL0     C82646  -0.837   8.028   4.259  0.5861  0.6252  0.2258
  627MOL0     C82647  -0.938   7.936   4.332  0.0664 -0.0611  1.3444
  627MOL0     C82648  -0.966   7.800   4.252 -0.2741 -0.2210 -0.2588
  627MOL0     N82649  -1.062   7.723   4.333 -0.7701 -0.1730  0.3828
  627MOL0     C82650  -1.020   7.642   4.431 -0.0623  0.3087  0.7558
  627MOL0     C82651  -1.129   7.573   4.469 -0.5668  0.5619  0.0362
  627MOL0     C82652  -1.125   7.486   4.596  0.5235  0.3969 -0.0749
  627MOL0     C82653  -1.230   7.379   4.595 -0.5937  0.3450  0.7683
  627MOL0     C82654  -1.368   7.422   4.644  0.4888 -0.2537  0.7939
  627MOL0     C82655  -1.468   7.306   4.654  1.0274  0.0441  0.3936
  627MOL0     O82656  -1.607   7.339   4.643 -0.0472 -0.1995  0.3725
  627MOL0     C82657  -1.653   7.448   4.709  0.2719  0.0735 -0.1714
  627MOL0     C82658  -1.648   7.447   4.852 -0.5914 -0.4196  0.3092
  627MOL0     C82659  -1.698   7.563   4.922  0.5470 -0.0138 -0.1513
  627MOL0     C82660  -1.763   7.670   4.853  0.9110  0.9468  0.0912
  627MOL0     C82661  -1.812   7.794   4.918  0.2752 -0.7609 -0.1836
  627MOL0     O82662  -1.835   7.778   5.053  0.0248 -0.0751 -0.0968
  627MOL0     C82663  -1.848   7.889   5.128  0.5407  0.0901  0.4634
  627MOL0     C82664  -1.741   7.973   5.153 -0.3935 -1.0259 -0.3556
  627MOL0     C82665  -1.748   8.081   5.240 -0.8271 -0.3138  0.6749
  627MOL0     C82666  -1.871   8.105   5.316  0.4368  0.3624  0.0343
  627MOL0     O82667  -1.866   8.211   5.403 -0.2901 -0.7506 -0.5532
  627MOL0     C82668  -1.965   8.219   5.506  0.1931  0.0601  1.0486
  627MOL0     C82669  -1.952   8.354   5.564  0.4504  0.5143  0.6996
  627MOL0     C82670  -1.834   8.363   5.661  0.0472 -0.0059 -0.1112
  627MOL0     C82671  -1.792   8.506   5.682  0.3990 -1.3300  0.0792
  627MOL0     C82672  -1.679   8.507   5.788  0.0903  0.0184  0.4009
  627MOL0     C82673  -1.662   8.655   5.844  0.3010  0.4496  0.0667
  627MOL0     C82674  -1.570   8.657   5.958  0.2121 -0.5694 -0.7464
  627MOL0     C82675  -1.524   8.798   5.991  0.2917 -0.4033  0.1210
  627MOL0    Cl82676  -1.436   8.776   6.150 -0.0121 -0.1146 -0.2041
  627MOL0     C82677  -1.978   8.013   5.291  0.0301  0.8499 -0.8347
  627MOL0     C82678  -1.970   7.917   5.187  0.0300 -0.5042  0.2108
  627MOL0     O82679  -1.808   7.900   4.855 -0.4137 -0.2142 -0.1521
  627MOL0     C82680  -1.761   7.660   4.713 -0.2131  0.7705 -0.2782
  627MOL0     C82681  -1.708   7.551   4.644 -0.2329 -0.8182 -0.7316
  627MOL0     N82682  -1.234   7.615   4.395 -0.3617  0.0241 -0.1027
  627MOL0     N82683  -1.191   7.695   4.311 -0.1953 -0.0245 -0.5657
  627MOL0     C82684   0.053   8.117   4.037  0.3668  0.3544 -0.0610
  627MOL0     C82685   0.172   8.119   3.967 -0.1671  0.8273 -0.4682
  627MOL0     C82686   0.584   8.307   3.847  0.2646 -0.4728 -0.4060
  627MOL0     C82687   0.670   8.413   3.838 -0.0777 -0.1533  0.9993
  627MOL0     C82688   0.777   8.411   3.744  0.0536 -0.2896  0.7065
  627MOL0     C82689   0.780   8.310   3.639 -0.2820 -0.3695  0.1117
  627MOL0     O82690   0.887   8.303   3.554  0.5868  0.2163 -0.6614
  627MOL0     C82691   0.879   8.221   3.439 -0.6141  0.2984 -0.5706
  627MOL0     C82692   1.007   8.239   3.353  0.4207 -0.1910  0.2091
  627MOL0     C82693   1.014   8.385   3.297  0.8204 -0.0600 -0.8294
  627MOL0     C82694   1.114   8.419   3.188  0.1584 -0.3298  0.0637
  627MOL0     C82695   1.252   8.445   3.235 -0.3944  0.3566 -0.6947
  627MOL0     C82696   1.365   8.467   3.271 -0.8200 -0.6632 -0.3998
  627MOL0     C82697   0.684   8.206   3.645  0.0099 -0.4056 -0.0069
  627MOL0     C82698   0.601   8.198   3.756  0.4093 -1.0971 -0.2412
  627MOL0     H82699   0.228   8.455   3.958  2.9351 -1.0850  0.5556
  627MOL0     H82700   0.029   8.443   4.107 -0.0903 -0.0987  0.2490
  627MOL0     H82701  -0.170   8.048   4.203  0.3919 -0.7430 -0.0573
  627MOL0     H82702  -0.228   8.092   4.041  2.2915  0.5168 -0.8360
  627MOL0     H82703  -0.391   8.248   4.136 -1.7563  0.5847  0.7528
  627MOL0     H82704  -0.352   8.200   4.300  0.7272  2.6370 -0.6155
  627MOL0     H82705  -0.436   7.976   4.257  1.2451  0.8945  0.8173
  627MOL0     H82706  -0.461   8.007   4.083 -0.5986  0.8444 -0.5687
  627MOL0     H82707  -0.594   8.179   4.300  0.3865  3.0827 -1.9291
  627MOL0     H82708  -0.647   8.156   4.130 -4.5196  0.7686  2.7916
  627MOL0     H82709  -0.667   7.938   4.352  0.3732 -1.6186 -0.9927
  627MOL0     H82710  -0.668   7.906   4.184  1.2817 -0.5118  0.3108
  627MOL0     H82711  -0.867   8.037   4.154 -1.4996  1.8829  0.8533
  627MOL0     H82712  -0.848   8.125   4.308  0.7799  1.1210 -0.6956
  627MOL0     H82713  -0.907   7.901   4.431  0.4504 -0.9283  0.9293
  627MOL0     H82714  -1.026   8.000   4.344 -0.7196 -0.9871  0.6565
  627MOL0     H82715  -0.875   7.742   4.233  0.5645  0.0250  2.5005
  627MOL0     H82716  -1.003   7.829   4.154  2.0736 -0.1794 -1.1986
  627MOL0     H82717  -0.915   7.632   4.459  0.0074 -0.5582  0.2189
  627MOL0     H82718  -1.141   7.547   4.685  0.4283 -0.4423  0.4847
  627MOL0     H82719  -1.029   7.437   4.613 -0.9452 -1.8922  2.2373
  627MOL0     H82720  -1.188   7.307   4.667  0.0758  1.3400  1.4041
  627MOL0     H82721  -1.251   7.334   4.498  0.8265 -1.1858  1.1206
  627MOL0     H82722  -1.354   7.465   4.743  4.4072  0.1952  0.2168
  627MOL0     H82723  -1.409   7.494   4.572  1.6526 -2.0804 -1.8502
  627MOL0     H82724  -1.447   7.253   4.748  0.7009 -1.0578 -0.1340
  627MOL0     H82725  -1.445   7.237   4.572  1.6945  1.0030 -0.2473
  627MOL0     H82726  -1.599   7.361   4.895  1.7809 -0.2869 -1.8857
  627MOL0     H82727  -1.700   7.578   5.029 -0.7560 -0.4607 -0.0930
  627MOL0     H82728  -1.650   7.952   5.099  0.1827 -2.6483  1.1752
  627MOL0     H82729  -1.659   8.142   5.253 -0.2768 -0.6062 -1.3801
  627MOL0     H82730  -1.936   8.146   5.583  1.6877 -0.1926  0.2936
  627MOL0     H82731  -2.065   8.202   5.466 -0.7449 -0.3452  3.3736
  627MOL0     H82732  -2.046   8.373   5.616 -0.1747  1.1585 -0.6183
  627MOL0     H82733  -1.960   8.435   5.491  0.9462  2.2626  2.4906
  627MOL0     H82734  -1.757   8.307   5.606 -1.1577  0.1499 -2.0706
  627MOL0     H82735  -1.859   8.317   5.756  1.0152 -2.3047 -0.9117
  627MOL0     H82736  -1.754   8.551   5.590 -1.5102 -0.7032 -0.4322
  627MOL0     H82737  -1.878   8.562   5.719  1.4297 -0.4247  1.2262
  627MOL0     H82738  -1.583   8.464   5.757 -0.2154  0.1418 -0.7555
  627MOL0     H82739  -1.720   8.448   5.871 -2.3547 -2.0587 -2.0949
  627MOL0     H82740  -1.752   8.716   5.857 -0.0553  0.2153 -1.1628
  627MOL0     H82741  -1.618   8.700   5.755 -1.2265 -0.6941 -1.3313
  627MOL0     H82742  -1.623   8.619   6.046 -0.2331  1.5629 -0.0330
  627MOL0     H82743  -1.485   8.589   5.944 -0.0702 -0.8608 -1.0727
  627MOL0     H82744  -1.602   8.872   6.011  0.7931 -0.5449  3.1785
  627MOL0     H82745  -1.456   8.821   5.909 -2.0780 -1.8421 -2.3942
  627MOL0     H82746  -2.071   8.011   5.348  0.9791 -3.8653  0.9803
  627MOL0     H82747  -2.054   7.849   5.175  0.2156 -0.2743 -3.2547
  627MOL0     H82748  -1.807   7.741   4.656 -1.3326  0.3861  0.0512
  627MOL0     H82749  -1.709   7.542   4.535 -0.3646  0.6127 -0.8666
  627MOL0     H82750   0.002   8.023   4.053 -0.3811  1.0462  1.9323
  627MOL0     H82751   0.210   8.019   3.947 -0.6733  0.6088 -0.3563
  627MOL0     H82752   0.678   8.493   3.911 -0.1314  0.1722  0.6494
  627MOL0     H82753   0.852   8.489   3.740 -0.4119  0.5129  4.2371
  627MOL0     H82754   0.789   8.227   3.377 -1.3193 -0.1003  0.3837
  627MOL0     H82755   0.882   8.116   3.469  0.7504  0.7503  1.0657
  627MOL0     H82756   1.098   8.229   3.413 -0.3024  1.8229  1.7385
  627MOL0     H82757   1.007   8.167   3.270  0.7780 -0.0753  0.1070
  627MOL0     H82758   1.024   8.450   3.385 -1.7368 -0.4486 -0.1691
  627MOL0     H82759   0.918   8.408   3.250  1.2358  4.5299  0.1263
  627MOL0     H82760   1.130   8.338   3.117  3.1809  0.5955 -0.4736
  627MOL0     H82761   1.079   8.515   3.150  0.5109  0.0724  0.7342
  627MOL0     H82762   1.467   8.472   3.302 -0.7251  0.0157 -0.8104
  627MOL0     H82763   0.683   8.120   3.580 -1.2048 -0.6526  0.3143
  627MOL0     H82764   0.546   8.105   3.756  0.5542 -1.2694  2.2701
  628MOL0     O82765   6.637   7.232   4.899 -0.4438  0.0698 -0.3241
  628MOL0     C82766   6.683   7.319   4.976 -0.4591 -1.4260  0.0423
  628MOL0     O82767   6.629   7.366   5.085 -0.1257 -0.2384  0.4494
  628MOL0     C82768   6.505   7.319   5.121 -0.3243  0.5602  0.2643
  628MOL0     C82769   6.400   7.320   5.031  0.5436  0.1500  0.3973
  628MOL0     C82770   6.266   7.293   5.075  0.3636  0.1089  0.3718
  628MOL0     C82771   6.240   7.240   5.202  0.0567 -0.0772  0.0940
  628MOL0     O82772   6.112   7.227   5.242  0.0268  0.3291  0.2047
  628MOL0     C82773   6.082   7.198   5.377  0.6531  0.7433  0.2089
  628MOL0     C82774   5.922   7.189   5.381  0.4995 -0.2357  0.3416
  628MOL0     C82775   5.857   7.170   5.527  0.5128  0.0862  0.3210
  628MOL0     C82776   5.704   7.151   5.513  0.4266  0.4549 -0.4041
  628MOL0     C82777   5.671   7.003   5.471 -0.3802  0.4516  0.1334
  628MOL0     C82778   5.541   7.005   5.395 -0.1368  0.8850 -0.5449
  628MOL0     C82779   5.502   6.866   5.340 -0.0446 -0.7683 -0.4973
  628MOL0     C82780   5.385   6.884   5.238 -0.2797  0.3365  0.7447
  628MOL0     N82781   5.256   6.939   5.280  0.8111  0.2852 -0.1072
  628MOL0     C82782   5.148   6.862   5.323  0.1508  0.4854  0.2025
  628MOL0     C82783   5.045   6.954   5.342 -1.4303  0.4709 -0.3178
  628MOL0     C82784   4.907   6.917   5.393  0.2449 -0.2659 -0.0460
  628MOL0     C82785   4.808   7.036   5.356  0.6672  0.3144  0.4855
  628MOL0     C82786   4.663   6.989   5.388  0.3428  0.2784  0.0612
  628MOL0     C82787   4.560   7.104   5.354  0.0906  0.4620 -0.1427
  628MOL0     O82788   4.551   7.171   5.477 -0.1128  0.4702  0.5390
  628MOL0     C82789   4.445   7.255   5.488 -0.6881 -0.1180  0.1030
  628MOL0     C82790   4.376   7.266   5.613  0.1792  0.0777 -0.4241
  628MOL0     C82791   4.262   7.345   5.613  0.4270 -0.0355 -0.1103
  628MOL0     C82792   4.218   7.419   5.503  0.6374 -0.1448 -0.4080
  628MOL0     C82793   4.089   7.496   5.519 -0.3024 -0.6929 -0.2004
  628MOL0     O82794   4.010   7.510   5.405 -0.0125 -0.5014 -0.0863
  628MOL0     C82795   3.875   7.551   5.416 -0.2941 -0.5058 -0.6423
  628MOL0     C82796   3.812   7.596   5.305 -1.0794  0.2169 -0.2518
  628MOL0     C82797   3.677   7.621   5.290 -0.0780  0.2061 -0.5448
  628MOL0     C82798   3.597   7.612   5.400 -0.2480 -0.3274  0.0861
  628MOL0     O82799   3.462   7.655   5.396  0.0099  1.2294 -0.8804
  628MOL0     C82800   3.386   7.634   5.280  0.7430  0.7389  0.1904
  628MOL0     C82801   3.231   7.639   5.306  0.3626 -0.3523 -0.3937
  628MOL0     C82802   3.143   7.612   5.179 -0.6027  0.1660  0.2703
  628MOL0     C82803   3.005   7.663   5.223  0.4630 -0.3620  0.3279
  628MOL0     C82804   2.898   7.594   5.133  0.7636 -0.2152  0.4907
  628MOL0     C82805   2.759   7.649   5.168 -0.1427 -0.5355  0.7012
  628MOL0     C82806   2.715   7.628   5.320 -0.1034 -0.4544  0.4930
  628MOL0     C82807   2.571   7.587   5.331  1.0513 -0.3973  0.1284
  628MOL0    Cl82808   2.459   7.698   5.230 -0.2602  0.0458 -0.4660
  628MOL0     C82809   3.654   7.569   5.520 -0.2768 -0.3052 -0.0733
  628MOL0     C82810   3.788   7.540   5.531 -1.3272 -0.1758  0.8859
  628MOL0     O82811   4.054   7.527   5.630  0.0726  0.2620 -0.1653
  628MOL0     C82812   4.281   7.407   5.382  0.4079 -0.6046 -0.4858
  628MOL0     C82813   4.391   7.323   5.378  0.0794 -0.0862 -0.1515
  628MOL0     N82814   5.104   7.076   5.314 -0.3053  0.0187 -0.4602
  628MOL0     N82815   5.228   7.069   5.284  0.6773 -1.2711  0.0380
  628MOL0     C82816   6.355   7.242   5.288 -0.3545 -0.4518 -0.2912
  628MOL0     C82817   6.482   7.285   5.248 -0.2056  0.0486  0.6565
  628MOL0     C82818   6.823   7.349   4.952  0.2139 -0.1164  0.2820
  628MOL0     C82819   6.894   7.321   4.833  0.6564  1.2932 -0.5769
  628MOL0     C82820   7.033   7.351   4.818  0.5878  0.9577  0.3831
  628MOL0     C82821   7.104   7.417   4.925  0.4074 -0.1635  0.1078
  628MOL0     O82822   7.237   7.427   4.929 -0.4997 -0.1590  0.8684
  628MOL0     C82823   7.307   7.432   4.800  0.1097  0.0395 -0.7314
  628MOL0     C82824   7.450   7.494   4.810  0.1700 -0.1076 -0.3244
  628MOL0     C82825   7.464   7.641   4.872  1.0350  0.2829 -0.1290
  628MOL0     C82826   7.357   7.750   4.828 -0.1074 -0.1560  0.4865
  628MOL0     C82827   7.399   7.877   4.874  0.8939 -0.1261 -1.3367
  628MOL0     C82828   7.426   7.990   4.909  0.0216 -0.8678 -0.4896
  628MOL0     C82829   7.028   7.466   5.034 -0.0481 -1.0463  0.2404
  628MOL0     C82830   6.903   7.410   5.049  0.0397  0.3860 -1.2778
  628MOL0     H82831   6.413   7.360   4.931  1.3851 -2.1671 -0.4972
  628MOL0     H82832   6.175   7.300   5.017 -1.9232 -0.3504  3.6465
  628MOL0     H82833   6.120   7.282   5.436  1.6430 -0.4566  1.3594
  628MOL0     H82834   6.135   7.108   5.410  1.1462  1.6385  2.0080
  628MOL0     H82835   5.889   7.106   5.318 -1.1501  2.3104 -2.4476
  628MOL0     H82836   5.880   7.277   5.331 -0.2230 -2.2006 -2.8701
  628MOL0     H82837   5.860   7.249   5.603 -3.3470 -0.1148  0.9029
  628MOL0     H82838   5.904   7.084   5.574  1.4186 -0.1842 -1.0262
  628MOL0     H82839   5.649   7.171   5.605 -1.3335 -1.9106 -0.8222
  628MOL0     H82840   5.661   7.216   5.436  1.5683 -0.4870 -1.9176
  628MOL0     H82841   5.676   6.937   5.558 -3.1330  0.6689  0.5480
  628MOL0     H82842   5.741   6.969   5.394 -2.1108 -2.3460 -0.3607
  628MOL0     H82843   5.553   7.075   5.312 -2.1913 -0.0087 -1.6767
  628MOL0     H82844   5.458   7.040   5.456  1.1172 -0.9196  2.4148
  628MOL0     H82845   5.586   6.826   5.281  2.1238 -0.1711  1.9926
  628MOL0     H82846   5.463   6.801   5.419  0.0656  1.4882  1.4945
  628MOL0     H82847   5.367   6.793   5.179 -0.4340  0.8031  0.0574
  628MOL0     H82848   5.419   6.947   5.155 -1.1331  1.0763  0.9433
  628MOL0     H82849   5.136   6.755   5.332 -0.0778  0.2076 -2.4097
  628MOL0     H82850   4.896   6.921   5.502 -0.1619  0.6798 -0.1088
  628MOL0     H82851   4.866   6.825   5.352 -0.4849  0.4235 -0.9017
  628MOL0     H82852   4.814   7.057   5.248  0.5882  1.7616  0.7401
  628MOL0     H82853   4.840   7.129   5.404 -1.3797  0.7622  1.0741
  628MOL0     H82854   4.650   6.898   5.329 -2.4334  0.9649 -0.5522
  628MOL0     H82855   4.648   6.966   5.494  3.8406  0.6594  0.7368
  628MOL0     H82856   4.463   7.070   5.316  0.8402 -1.4841 -0.4539
  628MOL0     H82857   4.595   7.171   5.274 -0.4769 -1.2434 -1.8887
  628MOL0     H82858   4.416   7.224   5.705  2.4818  2.4759 -0.2180
  628MOL0     H82859   4.213   7.360   5.708 -0.2723  2.8954 -0.8350
  628MOL0     H82860   3.863   7.611   5.210  0.2556 -0.9724  0.2430
  628MOL0     H82861   3.643   7.656   5.193  0.6330 -2.0389 -1.6728
  628MOL0     H82862   3.407   7.532   5.248 -1.1552 -0.0638  1.3012
  628MOL0     H82863   3.401   7.708   5.201 -1.0667  0.9886  0.0537
  628MOL0     H82864   3.213   7.741   5.342  1.0606  0.7464 -2.9726
  628MOL0     H82865   3.203   7.568   5.385  1.1415  0.3426  0.5289
  628MOL0     H82866   3.157   7.507   5.150  0.5713  0.5210 -0.5233
  628MOL0     H82867   3.171   7.674   5.093 -0.4201  1.4642  1.2367
  628MOL0     H82868   2.978   7.647   5.328 -2.0810  0.0401 -0.1886
  628MOL0     H82869   2.996   7.772   5.228  0.5544 -0.3628  0.5094
  628MOL0     H82870   2.898   7.485   5.139 -2.0267 -0.2741  0.9144
  628MOL0     H82871   2.923   7.619   5.029 -0.6027 -2.8480 -0.5487
  628MOL0     H82872   2.681   7.612   5.101 -0.3122  1.1396 -0.0790
  628MOL0     H82873   2.760   7.756   5.148 -1.5471 -0.7767 -0.8733
  628MOL0     H82874   2.768   7.541   5.360 -1.4849 -2.1911 -1.2559
  628MOL0     H82875   2.738   7.714   5.383  1.4650 -0.3601 -0.1706
  628MOL0     H82876   2.546   7.591   5.437  1.5462 -1.0140  0.2783
  628MOL0     H82877   2.561   7.479   5.320  1.7980 -0.7894  2.7045
  628MOL0     H82878   3.597   7.563   5.611 -0.2509 -1.8345 -0.1327
  628MOL0     H82879   3.819   7.515   5.632 -0.6446  0.5196  0.8590
  628MOL0     H82880   4.251   7.472   5.300  1.7634  0.6541 -0.0400
  628MOL0     H82881   4.456   7.322   5.291  1.1142 -1.1778  0.5828
  628MOL0     H82882   6.340   7.234   5.396 -0.6188 -1.7537 -0.4092
  628MOL0     H82883   6.569   7.290   5.314  1.9349 -2.1736 -1.7253
  628MOL0     H82884   6.839   7.272   4.753  0.2849 -1.9077  1.4441
  628MOL0     H82885   7.086   7.312   4.731  1.6178  0.5272  1.1941
  628MOL0     H82886   7.256   7.487   4.720  0.8969  0.7992 -0.7292
  628MOL0     H82887   7.320   7.330   4.762 -0.3937 -0.6917  0.9908
  628MOL0     H82888   7.514   7.419   4.858 -2.8813 -1.4090  2.0558
  628MOL0     H82889   7.483   7.512   4.707 -0.5084 -0.6044 -0.6383
  628MOL0     H82890   7.564   7.681   4.853  0.8381  0.4617 -0.8391
  628MOL0     H82891   7.447   7.637   4.980  0.8342 -1.2044 -0.2037
  628MOL0     H82892   7.347   7.749   4.719 -0.0584  0.2341  0.4771
  628MOL0     H82893   7.263   7.721   4.876  1.3446 -1.4284  2.7437
  628MOL0     H82894   7.441   8.094   4.931 -2.7619 -1.0873  3.4873
  628MOL0     H82895   7.064   7.531   5.113  0.1811  0.5864 -1.1594
  628MOL0     H82896   6.865   7.435   5.147 -1.2323 -3.0897 -0.7508
  629MOL0     O82897   8.418   0.218   0.492 -0.3729 -0.4951  0.1449
  629MOL0     C82898   8.484   0.217   0.383 -0.2179 -0.3362  0.1201
  629MOL0     O82899   8.427   0.216   0.258 -0.7349  0.7788 -0.3842
  629MOL0     C82900   8.288   0.193   0.251 -0.9505  0.0276  0.0620
  629MOL0     C82901   8.187   0.282   0.303  0.2560  0.0424 -0.9688
  629MOL0     C82902   8.050   0.250   0.281  1.1765  0.2183 -0.1598
  629MOL0     C82903   8.011   0.133   0.228 -0.8261  0.0079  0.0898
  629MOL0     O82904   7.876   0.099   0.229  0.0325  0.2589  0.1082
  629MOL0     C82905   7.784   0.150   0.324  0.8648  0.9754 -0.5522
  629MOL0     C82906   7.670   0.048   0.347  0.5591 -0.2547  0.4198
  629MOL0     C82907   7.556   0.106   0.431 -0.0345  0.0329 -0.1658
  629MOL0     C82908   7.434   0.021   0.421  0.0874 -0.0061  0.2330
  629MOL0     C82909   7.316   0.063   0.501  0.1923 -0.1822  0.9718
  629MOL0     C82910   7.343   0.084   0.651  0.7219  0.6768  0.0064
  629MOL0     C82911   7.416  -0.019   0.729  0.5433 -0.6349 -0.1988
  629MOL0     C82912   7.437   0.011   0.872  0.2778 -1.4680  0.3740
  629MOL0     N82913   7.545   0.114   0.887 -0.9046 -1.5485  0.1956
  629MOL0     C82914   7.526   0.231   0.954 -0.5116 -0.1951 -0.6826
  629MOL0     C82915   7.659   0.280   0.974  0.2114  0.9539  0.7955
  629MOL0     C82916   7.707   0.402   1.045 -0.1547  0.5636  0.2746
  629MOL0     C82917   7.705   0.525   0.956 -1.1278 -0.0235 -0.4789
  629MOL0     C82918   7.725   0.654   1.034 -0.3325  0.1952  0.1263
  629MOL0     C82919   7.787   0.765   0.939 -0.3528 -0.2599  0.4252
  629MOL0     O82920   7.729   0.785   0.810  0.1092  0.2900  0.2074
  629MOL0     C82921   7.598   0.829   0.805 -0.2905 -0.1697 -0.9453
  629MOL0     C82922   7.528   0.881   0.914 -1.0362  0.1008  0.0225
  629MOL0     C82923   7.397   0.926   0.908  0.5786 -0.5053  0.7596
  629MOL0     C82924   7.334   0.922   0.784 -0.1100 -0.1104 -0.1944
  629MOL0     C82925   7.194   0.970   0.784 -0.5430  0.2364 -0.4109
  629MOL0     O82926   7.121   0.943   0.673  0.2169  0.1106 -0.2324
  629MOL0     C82927   6.983   0.974   0.678  0.0562  0.1808 -0.2419
  629MOL0     C82928   6.899   0.880   0.730  0.2911  0.6398 -0.1969
  629MOL0     C82929   6.763   0.904   0.737  0.3407  0.7371 -0.0581
  629MOL0     C82930   6.704   1.019   0.679  0.8278  0.5527  0.9094
  629MOL0     O82931   6.572   1.051   0.681 -0.7786  0.3704  0.1684
  629MOL0     C82932   6.478   0.942   0.661 -0.4989 -0.1727  0.6191
  629MOL0     C82933   6.367   0.970   0.759 -0.6151  0.8410  0.1649
  629MOL0     C82934   6.247   0.881   0.750  0.5106  0.9202 -0.3279
  629MOL0     C82935   6.132   0.934   0.822  0.0127 -0.0165  0.2984
  629MOL0     C82936   6.019   0.829   0.826 -0.1999 -0.3620 -0.1896
  629MOL0     C82937   5.893   0.882   0.887 -0.3745 -0.2127 -0.0060
  629MOL0     C82938   5.786   0.771   0.890  0.1997 -0.1316  0.2279
  629MOL0     C82939   5.657   0.810   0.964 -0.7559  0.0718 -0.2858
  629MOL0    Cl82940   5.532   0.886   0.869  0.0050 -0.0485  0.2817
  629MOL0     C82941   6.797   1.115   0.639 -0.2369 -0.2948  0.0024
  629MOL0     C82942   6.938   1.094   0.635  0.3892 -0.2854  0.0881
  629MOL0     O82943   7.154   1.026   0.886  0.0215  0.3467  0.2017
  629MOL0     C82944   7.401   0.873   0.673 -0.0177  0.4211  0.2288
  629MOL0     C82945   7.531   0.824   0.686 -0.0209  0.3181  0.4313
  629MOL0     N82946   7.753   0.195   0.912  0.2491 -0.5886  0.0396
  629MOL0     N82947   7.682   0.102   0.868  0.4780 -0.2460  0.0967
  629MOL0     C82948   8.109   0.045   0.175  0.0934 -0.1842 -0.1201
  629MOL0     C82949   8.246   0.075   0.185  0.7396  0.0406  0.0680
  629MOL0     C82950   8.633   0.221   0.388 -0.6406  0.1707 -1.4953
  629MOL0     C82951   8.706   0.226   0.512  0.2686  0.4161  0.2016
  629MOL0     C82952   8.845   0.222   0.516 -0.1678 -0.7118  0.5536
  629MOL0     C82953   8.913   0.229   0.391  0.8571 -0.2666  0.1562
  629MOL0     O82954   9.051   0.235   0.398  0.3177  0.3906 -0.0750
  629MOL0     C82955   9.121   0.187   0.287 -1.0318  0.0274  0.1263
  629MOL0     C82956   9.247   0.119   0.342  0.0840  0.5548  0.0093
  629MOL0     C82957   9.220   0.003   0.446 -0.5687 -0.0472 -0.5331
  629MOL0     C82958   9.349  -0.076   0.452  0.8836 -0.2261 -0.4484
  629MOL0     C82959   9.465   0.004   0.483 -0.0128  0.7155 -0.2446
  629MOL0     C82960   9.568   0.067   0.498  0.2725  0.1933 -0.2581
  629MOL0     C82961   8.849   0.221   0.266 -0.5629 -0.0151  0.6622
  629MOL0     C82962   8.708   0.219   0.269  0.1008  0.4386  0.5492
  629MOL0     H82963   8.206   0.370   0.365 -0.6629 -0.3130 -0.1586
  629MOL0     H82964   7.976   0.323   0.313 -0.2879 -1.5979  0.8664
  629MOL0     H82965   7.733   0.241   0.291 -0.4265  0.4824  0.0111
  629MOL0     H82966   7.836   0.171   0.418 -0.8746 -1.1371  0.9704
  629MOL0     H82967   7.704  -0.045   0.392  0.0019 -0.2946  0.7647
  629MOL0     H82968   7.628   0.018   0.250  3.3916  0.7800 -1.2479
  629MOL0     H82969   7.538   0.204   0.385 -1.1406 -0.6865 -1.3299
  629MOL0     H82970   7.593   0.131   0.531 -1.1542 -1.2184  0.5841
  629MOL0     H82971   7.405   0.020   0.315  0.0848  0.6343  0.2245
  629MOL0     H82972   7.454  -0.084   0.443  3.4421  0.4506 -0.0848
  629MOL0     H82973   7.228  -0.002   0.490 -0.9288  1.0314  2.2502
  629MOL0     H82974   7.278   0.161   0.471  1.2620  1.3882  4.2874
  629MOL0     H82975   7.243   0.096   0.692 -0.8508 -3.0364 -2.2518
  629MOL0     H82976   7.394   0.180   0.661  0.6049  0.7656 -0.2236
  629MOL0     H82977   7.365  -0.115   0.724  1.5053 -1.2634  1.4053
  629MOL0     H82978   7.515  -0.042   0.687 -1.0389 -1.9749 -3.5670
  629MOL0     H82979   7.469  -0.078   0.927  1.4502 -0.7725  0.8459
  629MOL0     H82980   7.343   0.044   0.918 -1.2980 -1.9259 -2.2714
  629MOL0     H82981   7.428   0.267   0.985 -0.2784  0.9370 -1.2235
  629MOL0     H82982   7.810   0.373   1.072 -0.8283 -0.2754  2.1106
  629MOL0     H82983   7.659   0.416   1.142 -0.1389 -0.1937  0.4036
  629MOL0     H82984   7.614   0.520   0.896 -1.4828 -1.8534  0.1577
  629MOL0     H82985   7.789   0.519   0.887 -0.3642  0.1158  0.4130
  629MOL0     H82986   7.627   0.694   1.062 -0.8904 -0.2880 -1.0442
  629MOL0     H82987   7.795   0.639   1.117 -0.6673 -0.6234  0.2689
  629MOL0     H82988   7.887   0.723   0.921 -1.0269 -1.5189 -0.5996
  629MOL0     H82989   7.796   0.862   0.989  1.8003  0.2027 -0.7145
  629MOL0     H82990   7.573   0.900   1.010  0.0644 -1.7848 -0.0752
  629MOL0     H82991   7.349   0.959   0.999 -2.5031 -1.2015 -0.4770
  629MOL0     H82992   6.939   0.796   0.784 -0.0726  1.2448  1.0505
  629MOL0     H82993   6.714   0.817   0.777  2.5069 -1.0857 -1.1396
  629MOL0     H82994   6.515   0.842   0.685 -0.4753  0.0851  1.7181
  629MOL0     H82995   6.441   0.948   0.558  1.8551  1.0264 -0.2170
  629MOL0     H82996   6.333   1.070   0.731 -3.4002 -0.0839 -0.0876
  629MOL0     H82997   6.410   0.963   0.859  0.9427 -1.7183 -0.5999
  629MOL0     H82998   6.281   0.785   0.790 -1.2337  0.6511  0.6171
  629MOL0     H82999   6.223   0.862   0.645  2.0149 -0.1428 -0.5215
  629MOL0     H83000   6.163   0.955   0.925  1.9399 -0.5214 -0.1267
  629MOL0     H83001   6.094   1.027   0.780 -1.5327 -0.9879 -0.5479
  629MOL0     H83002   6.065   0.750   0.886  0.1999  1.2724  1.7717
  629MOL0     H83003   5.997   0.784   0.729  1.0258 -0.3317 -0.4926
  629MOL0     H83004   5.863   0.971   0.830 -0.4581 -0.1432  0.1462
  629MOL0     H83005   5.908   0.916   0.990 -2.5029  0.0498  0.2696
  629MOL0     H83006   5.760   0.738   0.789  2.0886 -0.8799 -0.0604
  629MOL0     H83007   5.828   0.683   0.940 -1.6642  0.5051  3.1939
  629MOL0     H83008   5.688   0.876   1.046  1.1686 -1.3914  0.2453
  629MOL0     H83009   5.612   0.717   0.999  1.4848 -0.3161  1.8706
  629MOL0     H83010   6.746   1.207   0.616 -1.9443 -0.6025  2.1799
  629MOL0     H83011   7.002   1.176   0.603  1.7188 -1.2022  0.3211
  629MOL0     H83012   7.361   0.862   0.573 -0.7829  2.3917  0.2778
  629MOL0     H83013   7.588   0.791   0.600  1.5931  0.2763  1.4834
  629MOL0     H83014   8.071  -0.048   0.133 -0.0709 -1.2486  2.1994
  629MOL0     H83015   8.324   0.012   0.144  0.7112 -0.9875  1.4962
  629MOL0     H83016   8.657   0.238   0.609  4.8355  0.6892  2.7754
  629MOL0     H83017   8.905   0.227   0.607  0.6235 -0.5948  0.0374
  629MOL0     H83018   9.158   0.271   0.228  1.5108  0.3458  2.0025
  629MOL0     H83019   9.065   0.114   0.227 -0.4411  1.1633 -1.8897
  629MOL0     H83020   9.307   0.075   0.262  0.7332 -1.5854  1.5769
  629MOL0     H83021   9.302   0.202   0.387  0.0016  0.9384 -0.5915
  629MOL0     H83022   9.143  -0.067   0.411 -0.5157 -0.6716  0.5392
  629MOL0     H83023   9.203   0.043   0.546 -0.0149  0.5241 -0.6624
  629MOL0     H83024   9.318  -0.152   0.524  1.8874 -0.5354 -0.3238
  629MOL0     H83025   9.366  -0.124   0.355  0.8457 -1.0399 -0.0645
  629MOL0     H83026   9.651   0.134   0.503  2.7969 -2.5458 -2.0911
  629MOL0     H83027   8.904   0.230   0.173 -0.6701  1.0603  0.6888
  629MOL0     H83028   8.657   0.208   0.174 -0.2872 -0.8345  0.8847
  630MOL0     O83029  10.796  10.474   2.307  0.3482  0.4258 -0.1823
  630MOL0     C83030  10.851  10.571   2.248  0.6327 -0.4415 -0.2747
  630MOL0     O83031  10.808  10.627   2.135  0.2787 -0.0555  0.2843
  630MOL0     C83032  10.688  10.593   2.081 -0.1490 -0.2633  0.1578
  630MOL0     C83033  10.591  10.693   2.070 -0.0616 -0.1664 -0.5223
  630MOL0     C83034  10.466  10.664   2.008  0.1104 -0.6885 -0.0952
  630MOL0     C83035  10.438  10.534   1.970 -0.4671 -0.5816 -0.2678
  630MOL0     O83036  10.312  10.524   1.923 -0.6784  0.1437 -0.8110
  630MOL0     C83037  10.261  10.395   1.874  0.3827 -0.1198  0.5649
  630MOL0     C83038  10.120  10.417   1.814  0.3296 -0.6146 -0.5457
  630MOL0     C83039  10.087  10.292   1.740 -0.3505 -0.8358 -0.7526
  630MOL0     C83040   9.960  10.305   1.664 -0.2789 -0.3307 -0.5307
  630MOL0     C83041   9.932  10.178   1.602  0.5081 -0.4943  0.6870
  630MOL0     C83042   9.791  10.190   1.530  0.1725 -0.3553 -0.5296
  630MOL0     C83043   9.701  10.078   1.567 -0.1136 -0.2852 -0.0081
  630MOL0     C83044   9.564  10.078   1.502 -0.1893  0.3435  0.5865
  630MOL0     N83045   9.468  10.172   1.555  0.0422  0.1871 -0.3900
  630MOL0     C83046   9.385  10.130   1.651  0.1919  0.3252 -0.4780
  630MOL0     C83047   9.321  10.251   1.692 -0.3812 -0.1066 -0.0888
  630MOL0     C83048   9.231  10.261   1.812 -0.5259  0.6328 -0.4933
  630MOL0     C83049   9.092  10.202   1.797 -0.2178  0.7166 -0.3881
  630MOL0     C83050   9.010  10.305   1.716 -0.7897 -0.4181 -0.6792
  630MOL0     C83051   8.888  10.237   1.660  0.0303  0.0377  0.1256
  630MOL0     O83052   8.783  10.222   1.753 -0.1835 -0.0163 -0.7227
  630MOL0     C83053   8.660  10.188   1.703 -0.5289 -0.1002  0.6722
  630MOL0     C83054   8.576  10.140   1.798  0.5489 -0.6461  0.2983
  630MOL0     C83055   8.438  10.125   1.776 -0.5306 -0.4379  0.4060
  630MOL0     C83056   8.389  10.131   1.643 -0.2818  0.1898 -0.8014
  630MOL0     C83057   8.249  10.123   1.617  0.8562 -0.1456 -0.2505
  630MOL0     O83058   8.173  10.068   1.710  0.2372 -0.2813  0.4491
  630MOL0     C83059   8.039  10.073   1.700 -0.0802 -0.4244 -0.1441
  630MOL0     C83060   7.975   9.952   1.674 -0.1204 -0.4672  0.6287
  630MOL0     C83061   7.839   9.946   1.677  0.4566  0.4378 -0.4129
  630MOL0     C83062   7.767  10.055   1.722 -0.1281  0.1975  0.1623
  630MOL0     O83063   7.629  10.022   1.740 -0.7019 -0.5253 -0.4210
  630MOL0     C83064   7.539  10.132   1.748 -0.2406 -0.0095 -0.7561
  630MOL0     C83065   7.399  10.077   1.720 -0.9863 -0.5305 -0.2854
  630MOL0     C83066   7.331   9.967   1.805 -0.1110  0.2825 -0.0477
  630MOL0     C83067   7.189   9.941   1.747 -0.5502 -1.4693  0.0616
  630MOL0     C83068   7.141   9.813   1.814  0.1911  0.5693 -0.0138
  630MOL0     C83069   6.994   9.785   1.770 -0.9121  0.7842  0.2598
  630MOL0     C83070   6.932   9.654   1.829  0.1794  0.4858 -0.3542
  630MOL0     C83071   6.775   9.654   1.799 -0.1208 -0.7622 -0.3962
  630MOL0    Cl83072   6.751   9.641   1.618  0.0406 -0.0352  0.0959
  630MOL0     C83073   7.832  10.177   1.749 -0.1826 -0.2048 -0.1146
  630MOL0     C83074   7.967  10.180   1.737 -0.1449 -0.5144  1.1658
  630MOL0     O83075   8.210  10.164   1.507  0.1698 -0.4772  0.4220
  630MOL0     C83076   8.474  10.172   1.550 -0.4038 -0.1399 -0.3845
  630MOL0     C83077   8.611  10.198   1.578  0.7095  0.0846  0.2398
  630MOL0     N83078   9.363  10.353   1.609  0.8061 -0.2946  0.0841
  630MOL0     N83079   9.447  10.301   1.522 -0.5786  0.0246 -0.7170
  630MOL0     C83080  10.528  10.432   1.989 -0.3097  0.0328  0.3729
  630MOL0     C83081  10.646  10.467   2.032 -0.7968 -0.0211 -0.5460
  630MOL0     C83082  10.966  10.641   2.298 -0.3663  0.1955 -0.1209
  630MOL0     C83083  11.008  10.631   2.436  0.3676  0.1978 -0.2225
  630MOL0     C83084  11.137  10.679   2.475  0.1743 -0.2745  0.9150
  630MOL0     C83085  11.204  10.762   2.388  0.7983  0.2810  0.2116
  630MOL0     O83086  11.324  10.810   2.425  0.4549  0.4287  0.4537
  630MOL0     C83087  11.391  10.762   2.537 -0.4389 -0.3482  0.8943
  630MOL0     C83088  11.544  10.790   2.537  0.1730 -0.5992  0.8007
  630MOL0     C83089  11.584  10.941   2.526  0.4514 -0.1059 -0.1033
  630MOL0     C83090  11.733  10.945   2.524 -0.6807 -0.2653 -0.3452
  630MOL0     C83091  11.785  11.083   2.537  0.4006 -0.4538  0.1481
  630MOL0     C83092  11.843  11.184   2.551  0.0233 -0.5037  0.1607
  630MOL0     C83093  11.155  10.787   2.259  0.2397 -0.3368 -0.0338
  630MOL0     C83094  11.033  10.729   2.213  0.0689  0.0841  0.0354
  630MOL0     H83095  10.611  10.791   2.112  1.7451  0.6989 -3.1261
  630MOL0     H83096  10.394  10.744   1.993 -0.4375 -0.8269  1.5285
  630MOL0     H83097  10.260  10.319   1.953 -1.7749 -0.9582 -0.2026
  630MOL0     H83098  10.323  10.350   1.795 -0.9796 -0.2299 -0.4700
  630MOL0     H83099  10.128  10.500   1.743  0.9490 -1.3166 -1.3353
  630MOL0     H83100  10.056  10.428   1.901  2.4202 -0.7555  1.1008
  630MOL0     H83101  10.074  10.206   1.806  0.9982 -0.8663 -0.5078
  630MOL0     H83102  10.172  10.265   1.677 -0.2950 -0.8114 -0.6888
  630MOL0     H83103   9.885  10.330   1.740 -0.4627  3.0333 -1.6398
  630MOL0     H83104   9.954  10.388   1.593  1.7114  0.1870 -0.1450
  630MOL0     H83105   9.935  10.090   1.666  1.6493 -2.4451 -1.8615
  630MOL0     H83106  10.013  10.162   1.530 -0.1076 -0.3051 -0.0632
  630MOL0     H83107   9.792  10.193   1.421 -0.0637  0.0392 -0.5254
  630MOL0     H83108   9.744  10.283   1.564  2.1910  0.2723  0.6517
  630MOL0     H83109   9.749   9.984   1.539 -0.8600  0.3077 -3.7681
  630MOL0     H83110   9.699  10.084   1.676  0.4195 -3.2330  0.2563
  630MOL0     H83111   9.527   9.975   1.504 -1.0438  0.6258 -0.0294
  630MOL0     H83112   9.581  10.092   1.395 -0.4647 -1.4907  0.2718
  630MOL0     H83113   9.366  10.031   1.691  1.7110 -0.2779 -1.1824
  630MOL0     H83114   9.225  10.364   1.847  3.1397  1.4903 -1.9198
  630MOL0     H83115   9.280  10.199   1.889 -3.2341 -1.2873 -0.1511
  630MOL0     H83116   9.041  10.193   1.893 -0.4618 -1.1687 -0.6586
  630MOL0     H83117   9.086  10.106   1.745 -5.4912  0.9961 -0.9159
  630MOL0     H83118   8.973  10.385   1.782  0.5536 -1.1566  1.0577
  630MOL0     H83119   9.071  10.347   1.636 -0.3753 -0.8227 -0.5806
  630MOL0     H83120   8.911  10.148   1.601  1.7881  1.4422 -1.4462
  630MOL0     H83121   8.852  10.311   1.587 -0.4847 -0.2285  0.0978
  630MOL0     H83122   8.620  10.148   1.897 -0.9675  0.9212  0.8932
  630MOL0     H83123   8.375  10.110   1.863 -0.5910  0.2653  0.4888
  630MOL0     H83124   8.039   9.867   1.651  2.4139  1.0960  1.4784
  630MOL0     H83125   7.788   9.850   1.667  0.8877  0.2110 -0.4352
  630MOL0     H83126   7.556  10.215   1.679 -1.0484  0.0462 -0.8974
  630MOL0     H83127   7.543  10.171   1.850  2.5686  1.2782 -1.2709
  630MOL0     H83128   7.407  10.046   1.616 -2.2853 -0.7280 -0.3434
  630MOL0     H83129   7.328  10.160   1.723 -0.7190 -0.3144  0.2481
  630MOL0     H83130   7.330  10.003   1.908  1.1092  1.6128 -0.4796
  630MOL0     H83131   7.372   9.867   1.790 -1.2649 -0.0965 -0.8471
  630MOL0     H83132   7.128  10.029   1.770  1.2593 -1.1321  4.4458
  630MOL0     H83133   7.194   9.926   1.638 -1.2079  1.7283 -0.5081
  630MOL0     H83134   7.142   9.832   1.922  0.7896  1.8611 -0.2321
  630MOL0     H83135   7.203   9.725   1.794 -1.4229 -0.7846  0.7024
  630MOL0     H83136   6.990   9.777   1.661 -0.3278  0.4239  0.2655
  630MOL0     H83137   6.929   9.864   1.809 -1.5149  0.3897  0.0866
  630MOL0     H83138   6.980   9.565   1.788  2.4480  0.9306  1.1725
  630MOL0     H83139   6.935   9.635   1.937  1.4063  0.8403 -0.3148
  630MOL0     H83140   6.723   9.742   1.837 -0.3871 -0.3514 -1.6495
  630MOL0     H83141   6.733   9.562   1.841 -0.2664 -0.6512 -0.2972
  630MOL0     H83142   7.790  10.272   1.782  1.2845  0.7538 -0.8658
  630MOL0     H83143   8.012  10.273   1.769  0.5580 -0.7235  0.7974
  630MOL0     H83144   8.431  10.215   1.460  1.1185  2.6461  0.1131
  630MOL0     H83145   8.676  10.233   1.498  1.4010  1.8827  1.5172
  630MOL0     H83146  10.503  10.328   1.973  2.1253 -0.7212  0.9192
  630MOL0     H83147  10.707  10.381   2.057  0.1491  0.5838 -0.7554
  630MOL0     H83148  10.954  10.577   2.513  2.4522 -3.6051 -1.1512
  630MOL0     H83149  11.169  10.649   2.574  0.6412 -0.7561  0.6248
  630MOL0     H83150  11.385  10.653   2.546  0.7626 -0.3493  1.9468
  630MOL0     H83151  11.342  10.811   2.622 -1.7817 -1.7415  0.9720
  630MOL0     H83152  11.585  10.757   2.633 -1.9216 -3.2722  0.9032
  630MOL0     H83153  11.596  10.747   2.451  0.3243 -2.3066  1.7009
  630MOL0     H83154  11.532  10.986   2.611 -2.9556 -0.2243 -1.9516
  630MOL0     H83155  11.544  10.980   2.432  0.9844  1.2976  0.2380
  630MOL0     H83156  11.772  10.893   2.612 -0.0491  0.6207 -0.0859
  630MOL0     H83157  11.778  10.904   2.433  2.1271  1.2911  0.2238
  630MOL0     H83158  11.890  11.279   2.568  1.5326 -1.1580 -0.1479
  630MOL0     H83159  11.210  10.854   2.193 -1.4605  1.2140  0.0504
  630MOL0     H83160  11.008  10.740   2.108 -1.7218  1.5858  0.5660
  631MOL0     O83161   4.744   3.666  10.361 -0.6027  0.5424 -0.5981
  631MOL0     C83162   4.768   3.550  10.399 -0.4870 -0.0876 -0.2118
  631MOL0     O83163   4.678   3.446  10.404 -0.3951 -0.4781  0.3469
  631MOL0     C83164   4.545   3.482  10.392  0.2426  0.4338 -0.5430
  631MOL0     C83165   4.460   3.448  10.498 -1.0730 -0.3698 -0.1406
  631MOL0     C83166   4.322   3.447  10.484 -0.7033  0.2803  0.0340
  631MOL0     C83167   4.267   3.501  10.368 -0.0344  0.5225  0.2675
  631MOL0     O83168   4.130   3.520  10.356  0.5936 -0.5955 -0.0378
  631MOL0     C83169   4.045   3.403  10.355 -0.3574 -1.1870  0.0089
  631MOL0     C83170   4.044   3.344  10.210  0.2494  0.0571  0.0738
  631MOL0     C83171   3.973   3.215  10.194  0.4550  0.2782  0.4594
  631MOL0     C83172   3.826   3.224  10.230  1.1286 -0.0921 -0.0622
  631MOL0     C83173   3.738   3.098  10.210  0.2672  0.0865  0.5892
  631MOL0     C83174   3.705   3.080  10.061  0.9923  0.1705 -0.4710
  631MOL0     C83175   3.593   2.968  10.028  0.4926 -0.4185  0.2524
  631MOL0     C83176   3.666   2.845   9.972 -0.5583  0.7652  0.4565
  631MOL0     N83177   3.594   2.717   9.964 -0.3421 -0.3956 -0.7292
  631MOL0     C83178   3.491   2.692   9.881 -0.2179 -0.1809  0.0288
  631MOL0     C83179   3.424   2.589   9.940  0.7563 -0.4711 -0.4863
  631MOL0     C83180   3.309   2.523   9.873  0.6481  0.6493  0.2407
  631MOL0     C83181   3.178   2.612   9.874  0.3488  1.1134 -0.0856
  631MOL0     C83182   3.145   2.662  10.013  0.4214 -0.2620 -0.2649
  631MOL0     C83183   2.996   2.677  10.025  0.2069  0.2190 -0.3262
  631MOL0     O83184   2.958   2.738  10.144 -0.1534  0.0085 -0.4286
  631MOL0     C83185   2.822   2.754  10.173 -0.3790 -0.4963  0.1906
  631MOL0     C83186   2.787   2.812  10.300 -0.0211 -0.6306  0.3437
  631MOL0     C83187   2.653   2.856  10.318  0.3613  0.0210  0.5720
  631MOL0     C83188   2.557   2.833  10.216 -0.6364 -0.6647 -0.2561
  631MOL0     C83189   2.415   2.854  10.245 -0.5163 -0.2666 -0.2948
  631MOL0     O83190   2.332   2.803  10.165  0.5952  0.0149  0.5148
  631MOL0     C83191   2.216   2.871  10.144 -0.2209 -0.7625  0.4960
  631MOL0     C83192   2.220   3.000  10.091 -0.2482 -0.0368 -0.7798
  631MOL0     C83193   2.093   3.053  10.073  0.3029  0.2372  0.4599
  631MOL0     C83194   1.974   2.983  10.116 -0.2026 -0.9257  1.1126
  631MOL0     O83195   1.860   3.041  10.071  0.4178  0.3323 -0.3340
  631MOL0     C83196   1.736   2.964  10.101 -0.5412 -0.1390  0.3055
  631MOL0     C83197   1.634   3.005   9.992 -1.0939  0.1104 -0.3446
  631MOL0     C83198   1.534   3.109  10.027  0.7186 -0.3610  0.4213
  631MOL0     C83199   1.593   3.250  10.057  0.1980  0.3266 -0.5011
  631MOL0     C83200   1.486   3.363  10.060 -0.1519 -0.0833  0.0369
  631MOL0     C83201   1.374   3.329  10.166 -0.1127  0.3713 -0.3054
  631MOL0     C83202   1.281   3.449  10.164  0.3591 -0.4558  0.7816
  631MOL0     C83203   1.170   3.433  10.258  0.5550  0.2794 -0.4961
  631MOL0    Cl83204   1.235   3.425  10.425  0.0793  0.0699 -0.3155
  631MOL0     C83205   1.981   2.867  10.181 -0.2941 -0.1085  0.6904
  631MOL0     C83206   2.106   2.804  10.187  0.0908  0.4354  0.5503
  631MOL0     O83207   2.387   2.926  10.342  0.0432  0.6351 -0.2700
  631MOL0     C83208   2.590   2.769  10.099 -0.4310  0.4221  1.2568
  631MOL0     C83209   2.720   2.728  10.075 -0.1649 -0.1850  0.1172
  631MOL0     N83210   3.495   2.554  10.045  0.2753  1.1873 -0.1296
  631MOL0     N83211   3.594   2.623  10.062 -0.3310  0.0732 -0.7374
  631MOL0     C83212   4.351   3.545  10.261 -0.1849  0.5194 -0.1671
  631MOL0     C83213   4.486   3.530  10.274 -0.1710  0.2424 -0.8373
  631MOL0     C83214   4.904   3.526  10.455  0.2319 -1.1124 -0.3498
  631MOL0     C83215   4.923   3.412  10.523 -0.7384  0.2450 -0.6419
  631MOL0     C83216   5.045   3.384  10.582 -0.6076 -0.4954  0.4889
  631MOL0     C83217   5.153   3.468  10.570  0.1688  0.1056 -0.4802
  631MOL0     O83218   5.268   3.437  10.635  0.4607  0.7208 -0.0810
  631MOL0     C83219   5.396   3.495  10.606  0.3828 -0.6296  0.1109
  631MOL0     C83220   5.506   3.411  10.655  0.1119  0.2384  0.4997
  631MOL0     C83221   5.640   3.444  10.573  0.7046 -0.3199 -0.3316
  631MOL0     C83222   5.748   3.341  10.587  0.6869  0.5185  0.5122
  631MOL0     C83223   5.871   3.397  10.543  0.0699  0.2990 -0.2996
  631MOL0     C83224   5.984   3.433  10.505 -0.5234  0.1872  0.3400
  631MOL0     C83225   5.137   3.596  10.499  0.1971  0.5073 -0.0118
  631MOL0     C83226   5.010   3.624  10.440 -1.0170 -0.8836  0.0071
  631MOL0     H83227   4.497   3.402  10.589  1.0955 -0.5957 -1.0554
  631MOL0     H83228   4.250   3.415  10.558 -0.7198 -1.6338 -0.7457
  631MOL0     H83229   3.947   3.439  10.385  0.4943  1.1283  0.2386
  631MOL0     H83230   4.076   3.323  10.423 -0.1717 -1.8278 -0.8261
  631MOL0     H83231   4.147   3.343  10.173  0.1589  3.5962 -0.6080
  631MOL0     H83232   3.993   3.424  10.156  0.6625  0.1664 -0.1573
  631MOL0     H83233   4.012   3.133  10.254  0.1681 -0.5374 -0.4463
  631MOL0     H83234   3.985   3.187  10.089  0.3923  0.6221  0.3566
  631MOL0     H83235   3.816   3.244  10.337  0.1718  0.7034 -0.2810
  631MOL0     H83236   3.781   3.308  10.176  1.2855  0.2614  0.3556
  631MOL0     H83237   3.648   3.133  10.261 -0.3817 -2.7792  1.5892
  631MOL0     H83238   3.762   3.003  10.258 -3.0730 -2.4272 -2.2177
  631MOL0     H83239   3.793   3.046  10.006  1.6196  0.8715  0.0802
  631MOL0     H83240   3.672   3.178  10.025 -2.9044 -0.9303 -0.2745
  631MOL0     H83241   3.553   2.927  10.121  0.9467 -1.4627 -0.0072
  631MOL0     H83242   3.517   3.004   9.958  0.9357  1.0124  0.4615
  631MOL0     H83243   3.757   2.829  10.031  1.2265  0.0826 -2.2853
  631MOL0     H83244   3.703   2.866   9.871  1.6695 -1.8588  0.5736
  631MOL0     H83245   3.464   2.748   9.792  1.2301  1.6689  0.6835
  631MOL0     H83246   3.293   2.428   9.925 -0.3338  0.1126 -0.9828
  631MOL0     H83247   3.325   2.495   9.768  0.3460 -0.3362  0.4434
  631MOL0     H83248   3.096   2.556   9.829  1.8816 -1.2557 -0.1035
  631MOL0     H83249   3.206   2.696   9.809  2.9342 -0.5468 -1.2633
  631MOL0     H83250   3.190   2.603  10.093 -0.5717  1.4670  1.6654
  631MOL0     H83251   3.174   2.767  10.025 -2.4656  0.7533 -1.3786
  631MOL0     H83252   2.941   2.584  10.007  0.3830  0.3126 -1.4138
  631MOL0     H83253   2.985   2.746   9.941  0.3002 -0.9240 -1.3065
  631MOL0     H83254   2.864   2.841  10.371  1.0629  0.0419 -1.0477
  631MOL0     H83255   2.621   2.897  10.413 -0.2719  0.3584  0.2191
  631MOL0     H83256   2.309   3.049  10.053  1.7958 -1.5506  1.7918
  631MOL0     H83257   2.091   3.150  10.025  2.5029  0.0747 -0.0900
  631MOL0     H83258   1.698   2.991  10.200  0.0520  0.8445  0.2800
  631MOL0     H83259   1.751   2.855  10.099  1.6261  0.1115 -1.1517
  631MOL0     H83260   1.579   2.914   9.963 -1.1902  0.8104 -2.4750
  631MOL0     H83261   1.683   3.033   9.899 -0.7121 -1.1113 -0.5307
  631MOL0     H83262   1.475   3.075  10.113  2.2040  0.0822  1.6759
  631MOL0     H83263   1.464   3.131   9.946 -0.2062  0.9976  1.5473
  631MOL0     H83264   1.649   3.244  10.151 -0.5371 -1.3533 -0.1297
  631MOL0     H83265   1.659   3.264   9.971  0.4845 -0.1272 -0.3592
  631MOL0     H83266   1.446   3.385   9.961  2.4077  2.2025 -0.6129
  631MOL0     H83267   1.530   3.454  10.102 -2.3544 -0.3323  3.2914
  631MOL0     H83268   1.420   3.321  10.265  1.0193 -0.4680 -0.8754
  631MOL0     H83269   1.320   3.234  10.155  0.5298 -0.0622  0.2484
  631MOL0     H83270   1.344   3.536  10.185  0.4397 -0.3841  0.2748
  631MOL0     H83271   1.243   3.462  10.062  3.5872 -1.4454 -0.6928
  631MOL0     H83272   1.126   3.336  10.234  2.0527 -0.7828  0.8343
  631MOL0     H83273   1.098   3.513  10.240  1.7194  1.4879  0.0345
  631MOL0     H83274   1.894   2.807  10.205 -0.3136 -0.8784 -1.0975
  631MOL0     H83275   2.118   2.705  10.231 -0.2618  0.4708  0.7332
  631MOL0     H83276   2.520   2.731  10.025  1.5012 -3.1245  0.9976
  631MOL0     H83277   2.745   2.680   9.981  0.8226  2.7092 -1.2026
  631MOL0     H83278   4.299   3.595  10.180 -0.1287  1.1278  0.1622
  631MOL0     H83279   4.556   3.561  10.197  0.1790 -2.2149 -1.6033
  631MOL0     H83280   4.845   3.336  10.514 -1.2913  0.9240 -1.9158
  631MOL0     H83281   5.049   3.292  10.638 -2.5618 -1.6641 -1.1401
  631MOL0     H83282   5.403   3.584  10.669 -0.8651 -0.6595  0.3284
  631MOL0     H83283   5.402   3.512  10.499 -1.6401  1.5464  0.2684
  631MOL0     H83284   5.511   3.426  10.764  1.7942  0.5104  0.4019
  631MOL0     H83285   5.482   3.306  10.637  0.5427  0.0065  1.2186
  631MOL0     H83286   5.683   3.541  10.600  2.9598 -0.9705 -1.3535
  631MOL0     H83287   5.619   3.443  10.466  0.1059  1.5733 -0.2532
  631MOL0     H83288   5.767   3.317  10.692 -1.1947  1.3033  1.0612
  631MOL0     H83289   5.711   3.256  10.529 -0.7886  0.3885  1.6097
  631MOL0     H83290   6.085   3.455  10.479  0.9945 -3.4023  2.4682
  631MOL0     H83291   5.219   3.666  10.487  0.0840  0.3956 -1.7913
  631MOL0     H83292   4.989   3.717  10.388  0.8598 -0.3834  0.0885
  632MOL0     O83293   6.440   8.434   3.468 -0.6591  0.2958 -0.1830
  632MOL0     C83294   6.521   8.342   3.441 -0.5839 -0.4215  0.4057
  632MOL0     O83295   6.481   8.208   3.423  0.7524 -0.4053 -0.1564
  632MOL0     C83296   6.351   8.180   3.388 -0.7619  0.5048 -0.0264
  632MOL0     C83297   6.293   8.244   3.276  0.5617 -0.3189 -0.2924
  632MOL0     C83298   6.162   8.216   3.248  0.3284 -0.0546 -0.0134
  632MOL0     C83299   6.087   8.127   3.321 -0.1985  0.3419  0.7635
  632MOL0     O83300   5.961   8.076   3.289  0.1769  0.5222 -0.2501
  632MOL0     C83301   5.894   8.161   3.195  0.7963  0.3944 -0.4616
  632MOL0     C83302   5.747   8.106   3.190 -0.5805 -0.7205 -0.4291
  632MOL0     C83303   5.655   8.185   3.096 -1.1787  0.3415  0.6993
  632MOL0     C83304   5.641   8.324   3.148  0.4717 -0.3679 -0.1152
  632MOL0     C83305   5.524   8.400   3.099  0.3220  0.3861 -0.2697
  632MOL0     C83306   5.534   8.406   2.947  0.0711 -0.1554  0.5133
  632MOL0     C83307   5.438   8.509   2.899  0.5936 -0.1003 -0.4412
  632MOL0     C83308   5.281   8.469   2.906 -0.6792 -0.8308 -0.0507
  632MOL0     N83309   5.267   8.348   2.825  0.2197 -0.0168  0.0686
  632MOL0     C83310   5.247   8.345   2.690  0.2523 -0.4117 -0.0260
  632MOL0     C83311   5.238   8.214   2.658  0.1996 -0.5789  0.5875
  632MOL0     C83312   5.203   8.164   2.522  1.0707  0.8678 -0.1317
  632MOL0     C83313   5.074   8.084   2.519  0.2979 -0.1906 -0.3419
  632MOL0     C83314   4.960   8.153   2.593 -0.2258 -0.0623  0.2035
  632MOL0     C83315   4.817   8.108   2.552 -1.0887 -0.6461  0.4700
  632MOL0     O83316   4.729   8.164   2.651  0.3803  0.6831 -0.3371
  632MOL0     C83317   4.593   8.129   2.644 -0.5853 -0.4398 -0.6767
  632MOL0     C83318   4.531   8.068   2.539 -1.1727 -0.6857  0.1574
  632MOL0     C83319   4.397   8.045   2.539 -0.0893  0.7490  0.6386
  632MOL0     C83320   4.315   8.087   2.640 -0.1021  1.1548 -0.3257
  632MOL0     C83321   4.166   8.060   2.632  0.3890  0.2618 -0.1347
  632MOL0     O83322   4.080   8.136   2.711  0.4510  0.0920 -0.1382
  632MOL0     C83323   3.942   8.121   2.706  0.0478  0.3179 -0.7646
  632MOL0     C83324   3.873   8.172   2.814 -0.0652  0.6287  0.4103
  632MOL0     C83325   3.735   8.161   2.828  0.3196 -0.1710 -0.9949
  632MOL0     C83326   3.661   8.122   2.718 -0.1936  0.1752 -0.4897
  632MOL0     O83327   3.522   8.136   2.718 -0.5204  0.4046 -0.2648
  632MOL0     C83328   3.447   8.200   2.826  0.0821 -1.4995  0.5757
  632MOL0     C83329   3.405   8.097   2.923  0.7341  0.1259 -1.4709
  632MOL0     C83330   3.319   8.148   3.045 -0.8074  1.0206 -0.0652
  632MOL0     C83331   3.185   8.202   2.992  0.6274  0.7224  0.5766
  632MOL0     C83332   3.073   8.226   3.091  0.3082 -0.7706 -0.6303
  632MOL0     C83333   2.943   8.292   3.037  0.6835  0.5267  0.3795
  632MOL0     C83334   2.808   8.226   3.068 -1.0051  0.7010 -0.5935
  632MOL0     C83335   2.706   8.306   2.986  0.8490 -0.7579 -0.3318
  632MOL0    Cl83336   2.543   8.307   3.059 -0.6458 -0.4050  0.3389
  632MOL0     C83337   3.721   8.077   2.607 -0.1878  0.2141  0.1839
  632MOL0     C83338   3.868   8.075   2.600  0.0765 -0.1699 -0.3083
  632MOL0     O83339   4.135   7.966   2.556  0.9958  0.2255 -0.6266
  632MOL0     C83340   4.372   8.152   2.752 -0.2769 -0.3518 -0.6490
  632MOL0     C83341   4.514   8.173   2.752  0.1345 -0.6823 -0.3991
  632MOL0     N83342   5.247   8.145   2.769  1.1571  0.2709  0.2633
  632MOL0     N83343   5.249   8.223   2.871  0.4408  1.0685  0.0617
  632MOL0     C83344   6.146   8.063   3.426 -0.6401 -0.2105 -0.5486
  632MOL0     C83345   6.283   8.082   3.454 -0.5438 -0.0566  0.3493
  632MOL0     C83346   6.668   8.382   3.438  0.8889 -0.2761 -0.2706
  632MOL0     C83347   6.765   8.290   3.384  0.7262  0.6551 -0.2581
  632MOL0     C83348   6.897   8.335   3.379 -0.9272 -0.2515  0.6020
  632MOL0     C83349   6.938   8.463   3.413  0.3457  0.0166 -0.7679
  632MOL0     O83350   7.069   8.493   3.386 -0.6370  0.3665  0.1075
  632MOL0     C83351   7.122   8.607   3.454 -0.0894 -0.3267  0.4016
  632MOL0     C83352   7.143   8.580   3.600 -0.0222  0.5180 -0.1890
  632MOL0     C83353   7.274   8.491   3.627  0.6009 -0.6971  0.3233
  632MOL0     C83354   7.410   8.540   3.585 -0.1303  0.4078 -0.4583
  632MOL0     C83355   7.519   8.435   3.624  0.6012  0.1952 -0.6197
  632MOL0     C83356   7.608   8.358   3.639  0.2621 -0.3451  0.2167
  632MOL0     C83357   6.834   8.548   3.463 -0.3567 -0.8894 -0.5091
  632MOL0     C83358   6.709   8.507   3.492  0.2366  0.7323  0.5710
  632MOL0     H83359   6.356   8.298   3.207  0.8182 -0.2292  0.0076
  632MOL0     H83360   6.122   8.270   3.164  1.6051  1.3543  0.2488
  632MOL0     H83361   5.936   8.164   3.094  0.2964 -0.0289 -0.6864
  632MOL0     H83362   5.899   8.262   3.236  0.1170  0.2343  0.0269
  632MOL0     H83363   5.715   8.102   3.295 -0.2352 -0.3266 -0.3069
  632MOL0     H83364   5.762   8.004   3.153  2.1747 -0.0646 -1.3559
  632MOL0     H83365   5.560   8.131   3.091  0.8934 -3.6979  0.6997
  632MOL0     H83366   5.692   8.192   2.994 -0.1573 -0.3001  1.0045
  632MOL0     H83367   5.649   8.316   3.257  2.6260 -2.6086 -0.3384
  632MOL0     H83368   5.732   8.380   3.124  0.4904  0.7086  2.1901
  632MOL0     H83369   5.526   8.501   3.141 -0.6825 -0.0913  1.0249
  632MOL0     H83370   5.431   8.361   3.142 -0.2769  2.2703  0.2614
  632MOL0     H83371   5.512   8.309   2.901 -2.7645  1.3976 -1.7852
  632MOL0     H83372   5.633   8.430   2.907 -0.8140 -0.8943 -2.3669
  632MOL0     H83373   5.442   8.605   2.951 -1.4890  0.1758 -0.7134
  632MOL0     H83374   5.445   8.527   2.792 -3.4483 -4.0447 -1.6861
  632MOL0     H83375   5.225   8.549   2.857  1.6597  0.4449 -0.7930
  632MOL0     H83376   5.248   8.453   3.009 -0.2690  2.0937  0.6390
  632MOL0     H83377   5.233   8.431   2.624  0.0062 -1.5773 -1.5514
  632MOL0     H83378   5.283   8.100   2.483 -0.8408 -2.4319  1.0148
  632MOL0     H83379   5.182   8.245   2.452  2.1334  0.9379 -0.3899
  632MOL0     H83380   5.100   7.998   2.581  1.6587  0.5179  0.0985
  632MOL0     H83381   5.040   8.042   2.423 -0.4503 -3.7313  1.2836
  632MOL0     H83382   4.982   8.133   2.698 -0.3505 -0.4840  0.1501
  632MOL0     H83383   4.976   8.258   2.568  0.4569 -0.0526  0.6585
  632MOL0     H83384   4.810   8.001   2.572 -3.5342 -0.6053  0.1493
  632MOL0     H83385   4.795   8.138   2.449  1.4817 -2.7476 -0.7986
  632MOL0     H83386   4.580   8.029   2.451 -3.0768  1.7302 -2.1282
  632MOL0     H83387   4.348   7.990   2.459 -3.9254  1.9577  1.9298
  632MOL0     H83388   3.940   8.219   2.885  1.9568 -0.0015 -0.9974
  632MOL0     H83389   3.699   8.195   2.925  0.7703 -0.2223 -0.8105
  632MOL0     H83390   3.363   8.260   2.789  0.0569 -2.0988 -0.4008
  632MOL0     H83391   3.514   8.269   2.878 -0.2161 -1.3261  0.7317
  632MOL0     H83392   3.490   8.056   2.977  0.3551  2.9729  1.6304
  632MOL0     H83393   3.354   8.013   2.875  0.8130 -0.8792  0.1391
  632MOL0     H83394   3.366   8.232   3.096 -1.1409  1.0002  0.2785
  632MOL0     H83395   3.305   8.067   3.117  0.7634  0.7057 -0.0848
  632MOL0     H83396   3.205   8.291   2.932  1.3776  0.9661  1.1689
  632MOL0     H83397   3.142   8.118   2.935 -0.7298  2.0409 -0.4108
  632MOL0     H83398   3.115   8.294   3.165  0.1898 -1.3043 -0.0664
  632MOL0     H83399   3.054   8.136   3.150 -2.2092 -0.2335 -0.4817
  632MOL0     H83400   2.936   8.292   2.928 -1.9117  3.3773  0.3934
  632MOL0     H83401   2.951   8.398   3.065  3.4027  0.9128 -1.4836
  632MOL0     H83402   2.808   8.120   3.042 -1.6963  0.4489  0.3705
  632MOL0     H83403   2.786   8.238   3.175 -0.0348 -1.1583 -0.1338
  632MOL0     H83404   2.708   8.269   2.883  1.4336  1.8019 -1.3071
  632MOL0     H83405   2.737   8.411   2.982  2.0455 -1.1276 -1.6368
  632MOL0     H83406   3.646   8.057   2.531 -1.2174 -0.2649  1.3046
  632MOL0     H83407   3.910   8.027   2.512 -1.7839 -0.8963 -0.8653
  632MOL0     H83408   4.309   8.179   2.836  1.4612  0.4904  0.4372
  632MOL0     H83409   4.558   8.226   2.835 -2.0746 -0.6183  0.8057
  632MOL0     H83410   6.103   7.977   3.476  2.2562 -0.7823  1.2187
  632MOL0     H83411   6.328   8.035   3.540 -1.0141  1.4719  1.4658
  632MOL0     H83412   6.731   8.196   3.341 -1.0341  1.3226 -0.4087
  632MOL0     H83413   6.965   8.266   3.330 -1.4135  0.1740 -0.7292
  632MOL0     H83414   7.062   8.697   3.435 -0.5163 -0.8129 -0.5904
  632MOL0     H83415   7.219   8.636   3.411 -1.5788 -0.3672 -3.3410
  632MOL0     H83416   7.151   8.676   3.653  0.1459  1.0949 -1.2361
  632MOL0     H83417   7.052   8.529   3.632 -0.7896 -1.7490 -5.1075
  632MOL0     H83418   7.252   8.396   3.579  1.2813 -0.1649 -1.0932
  632MOL0     H83419   7.285   8.467   3.733  0.0877 -0.8382  0.3478
  632MOL0     H83420   7.420   8.575   3.482 -1.0320  0.1922 -0.6270
  632MOL0     H83421   7.427   8.627   3.649  0.9531  2.0262 -2.7887
  632MOL0     H83422   7.691   8.291   3.643  0.9821  0.2923 -2.4093
  632MOL0     H83423   6.869   8.643   3.501  1.4349 -2.1609  1.2817
  632MOL0     H83424   6.634   8.564   3.545 -0.6277 -0.8943  1.1681
  633MOL0     O83425   3.607   6.202   7.167 -0.1907  0.1674  0.3320
  633MOL0     C83426   3.520   6.277   7.209 -0.6103 -0.8902  0.3421
  633MOL0     O83427   3.548   6.407   7.241  0.0692  0.0117 -0.2860
  633MOL0     C83428   3.666   6.461   7.203 -0.0931  0.6008  0.2743
  633MOL0     C83429   3.687   6.481   7.063 -0.4147  1.0375  0.1039
  633MOL0     C83430   3.819   6.519   7.013 -0.4792  0.4825 -0.0859
  633MOL0     C83431   3.916   6.556   7.106 -0.6790  0.8831 -0.0194
  633MOL0     O83432   4.032   6.625   7.086  0.9767  0.4669  0.0263
  633MOL0     C83433   4.041   6.733   6.986  0.5833 -0.5000 -0.3963
  633MOL0     C83434   4.123   6.853   7.037 -0.0507 -0.0020  0.2648
  633MOL0     C83435   4.132   6.966   6.936  0.0126 -0.7533 -0.7238
  633MOL0     C83436   4.002   7.039   6.910 -0.4727 -0.0834  0.3851
  633MOL0     C83437   3.935   7.114   7.034 -0.1318  0.1219  0.4745
  633MOL0     C83438   3.794   7.171   7.002 -0.2883  0.8303 -0.1997
  633MOL0     C83439   3.747   7.258   7.117 -0.1898 -0.1144 -0.0226
  633MOL0     C83440   3.603   7.313   7.095 -0.3000  0.6398 -0.6710
  633MOL0     N83441   3.506   7.202   7.103 -0.5712  0.1609  0.4639
  633MOL0     C83442   3.397   7.199   7.011 -0.6885  0.2079 -0.6113
  633MOL0     C83443   3.330   7.091   7.049 -0.5271  0.0609 -0.3651
  633MOL0     C83444   3.189   7.062   7.000  0.7908 -0.3147 -0.2480
  633MOL0     C83445   3.071   7.149   7.064  0.4803 -0.1502  0.9060
  633MOL0     C83446   2.943   7.117   6.991  0.6119 -0.9084  0.6762
  633MOL0     C83447   2.879   6.992   7.057  0.3074  0.5930 -0.1560
  633MOL0     O83448   2.815   7.031   7.180 -0.1046 -0.0820  0.2345
  633MOL0     C83449   2.680   6.996   7.210 -0.6408  0.1378  1.0376
  633MOL0     C83450   2.626   6.867   7.181  0.3135 -0.7117 -1.1845
  633MOL0     C83451   2.490   6.845   7.216  0.6175  0.2542 -0.1898
  633MOL0     C83452   2.407   6.944   7.272  0.6903 -0.1863 -0.4573
  633MOL0     C83453   2.265   6.912   7.300 -0.4963 -0.2055  0.4060
  633MOL0     O83454   2.234   6.785   7.322  0.5685 -0.1241 -0.1320
  633MOL0     C83455   2.107   6.761   7.378  0.2133 -0.5787  0.0314
  633MOL0     C83456   1.987   6.762   7.301 -1.3056 -0.4417 -0.3863
  633MOL0     C83457   1.861   6.739   7.357 -0.0014  0.2585  0.3183
  633MOL0     C83458   1.852   6.699   7.490 -0.2262  0.3972  0.0233
  633MOL0     O83459   1.737   6.663   7.559 -0.4362 -0.2791  0.1303
  633MOL0     C83460   1.648   6.565   7.493 -0.3900  0.4085 -0.2186
  633MOL0     C83461   1.554   6.504   7.601  0.9844 -1.1872 -0.8261
  633MOL0     C83462   1.624   6.458   7.730 -0.2912  0.1625 -0.1834
  633MOL0     C83463   1.736   6.348   7.711  0.1859 -0.4118  0.3192
  633MOL0     C83464   1.818   6.313   7.829  0.4957  0.1140  0.3268
  633MOL0     C83465   1.898   6.189   7.786 -0.7082  0.5398 -0.3475
  633MOL0     C83466   1.989   6.152   7.901  0.2007  0.0175  0.7634
  633MOL0     C83467   2.064   6.018   7.872  1.0091  0.6912  0.3341
  633MOL0    Cl83468   2.161   6.029   7.729  0.3324  0.6189 -0.1818
  633MOL0     C83469   1.967   6.701   7.569  0.3757  0.4289  0.1877
  633MOL0     C83470   2.092   6.735   7.514  0.7361  0.5118 -0.0744
  633MOL0     O83471   2.189   7.010   7.319 -0.0316 -0.8558  0.5504
  633MOL0     C83472   2.469   7.062   7.311  0.0900 -0.1860 -0.0969
  633MOL0     C83473   2.605   7.086   7.285 -0.1180  1.1763  0.0167
  633MOL0     N83474   3.387   7.027   7.154 -0.3176 -0.1333 -0.3947
  633MOL0     N83475   3.490   7.100   7.190  0.6303 -0.2257 -0.2330
  633MOL0     C83476   3.886   6.534   7.243  0.4721  0.1065 -0.5664
  633MOL0     C83477   3.758   6.498   7.296 -0.0987 -0.2327  1.2332
  633MOL0     C83478   3.384   6.218   7.231  0.0835  0.3384 -0.5399
  633MOL0     C83479   3.351   6.075   7.230  1.1772 -0.7910 -0.1144
  633MOL0     C83480   3.219   6.040   7.261 -0.3562 -0.3508 -0.0666
  633MOL0     C83481   3.116   6.131   7.284  0.3513 -0.2243  0.1787
  633MOL0     O83482   2.999   6.077   7.316 -0.6983  0.2261 -0.0903
  633MOL0     C83483   2.879   6.149   7.310 -0.1713  0.2599  0.4894
  633MOL0     C83484   2.760   6.054   7.324  0.7011  0.3449  0.0002
  633MOL0     C83485   2.753   5.982   7.464  0.2258  0.5769 -0.4043
  633MOL0     C83486   2.621   5.983   7.547 -0.0206 -0.1025 -0.0113
  633MOL0     C83487   2.504   5.948   7.469  0.0021  0.2115  0.2842
  633MOL0     C83488   2.400   5.914   7.414  0.7223 -0.1064  0.1843
  633MOL0     C83489   3.152   6.267   7.286  0.3819 -0.2241  0.5023
  633MOL0     C83490   3.280   6.305   7.256 -0.4431  0.1189 -0.0193
  633MOL0     H83491   3.610   6.461   6.989  1.3606 -0.4689 -1.4448
  633MOL0     H83492   3.829   6.516   6.905 -1.3307 -1.5609 -0.1624
  633MOL0     H83493   3.943   6.764   6.949  0.8237  0.2335 -0.4208
  633MOL0     H83494   4.094   6.687   6.902  0.3321 -1.3263 -0.1124
  633MOL0     H83495   4.225   6.823   7.061  0.3274  0.7501 -0.3574
  633MOL0     H83496   4.087   6.887   7.135  0.1776  1.3288 -0.0931
  633MOL0     H83497   4.173   6.929   6.841 -1.7641 -1.1511 -1.3804
  633MOL0     H83498   4.197   7.047   6.969 -1.8276  0.4577  0.0815
  633MOL0     H83499   4.022   7.111   6.831  0.4378  1.3690  1.8563
  633MOL0     H83500   3.931   6.968   6.868 -2.9944  1.6193  1.5426
  633MOL0     H83501   4.007   7.192   7.059 -1.0191  1.2506 -0.3352
  633MOL0     H83502   3.919   7.043   7.115  1.1153 -0.4825  0.2142
  633MOL0     H83503   3.732   7.083   6.986  2.5491 -1.0925 -1.4974
  633MOL0     H83504   3.784   7.220   6.905 -0.0207 -1.3664 -1.4070
  633MOL0     H83505   3.750   7.216   7.218 -0.8624  0.6227  0.3183
  633MOL0     H83506   3.821   7.338   7.121 -0.6476  0.2952  0.4781
  633MOL0     H83507   3.605   7.360   6.996 -0.1357 -1.2792 -1.6140
  633MOL0     H83508   3.580   7.390   7.170  1.6538  2.0084 -1.3934
  633MOL0     H83509   3.369   7.268   6.932  0.4819 -0.7115 -1.8692
  633MOL0     H83510   3.171   6.954   7.003  1.7169 -0.5452 -1.7981
  633MOL0     H83511   3.186   7.104   6.899  3.2035  0.0144 -0.2415
  633MOL0     H83512   3.099   7.251   7.039 -1.0119 -0.2256 -1.3199
  633MOL0     H83513   3.067   7.142   7.173  2.1516  0.1989  1.0169
  633MOL0     H83514   2.870   7.198   6.996  0.4051 -0.9773 -0.8733
  633MOL0     H83515   2.966   7.099   6.886  1.2437  1.0662  0.4324
  633MOL0     H83516   2.942   6.903   7.070 -1.5730 -1.1022 -2.0075
  633MOL0     H83517   2.802   6.955   6.989 -2.5414  0.7615  2.6920
  633MOL0     H83518   2.681   6.788   7.131 -2.0012 -1.2053 -3.1019
  633MOL0     H83519   2.446   6.748   7.192  0.2167  0.2616  0.4869
  633MOL0     H83520   1.998   6.780   7.195 -0.6879  0.1543 -0.2292
  633MOL0     H83521   1.773   6.762   7.297  0.1898  0.2817  0.0440
  633MOL0     H83522   1.715   6.488   7.454  0.6978 -0.3933  2.9437
  633MOL0     H83523   1.597   6.618   7.413 -1.6753  0.6944  0.7611
  633MOL0     H83524   1.500   6.420   7.557 -1.5459 -0.0517 -0.0831
  633MOL0     H83525   1.483   6.578   7.640  1.4527 -1.4697  0.6326
  633MOL0     H83526   1.552   6.406   7.794  1.5365 -0.2479  1.6432
  633MOL0     H83527   1.656   6.539   7.796  0.6052 -1.4018  1.3933
  633MOL0     H83528   1.685   6.260   7.671  0.9787 -0.3199 -0.9449
  633MOL0     H83529   1.808   6.384   7.637  0.4799  1.2082  1.3365
  633MOL0     H83530   1.746   6.295   7.909 -2.3217  2.1229 -1.5209
  633MOL0     H83531   1.879   6.401   7.854 -0.0716  0.5364  0.2542
  633MOL0     H83532   1.965   6.218   7.705 -0.6057  0.8860 -0.1424
  633MOL0     H83533   1.834   6.106   7.756 -1.6091  1.3422 -0.7313
  633MOL0     H83534   2.060   6.233   7.920 -1.5099  1.4173  1.3950
  633MOL0     H83535   1.933   6.135   7.993 -0.1307 -1.5967  0.2926
  633MOL0     H83536   1.974   5.956   7.868 -0.0473  2.2242 -1.0951
  633MOL0     H83537   2.125   5.979   7.954 -1.8855  0.4591  2.4932
  633MOL0     H83538   1.952   6.684   7.675 -2.5908  1.8886  0.1111
  633MOL0     H83539   2.179   6.735   7.579  0.7979  3.2690 -0.0659
  633MOL0     H83540   2.418   7.140   7.367 -0.4199  0.0156 -0.8202
  633MOL0     H83541   2.655   7.172   7.326  1.4953 -0.3322  1.3867
  633MOL0     H83542   3.958   6.567   7.318  3.7345 -1.0283 -2.9594
  633MOL0     H83543   3.738   6.489   7.403 -0.4325 -0.8732  1.1215
  633MOL0     H83544   3.428   6.000   7.212  2.2016  0.6412 -2.1988
  633MOL0     H83545   3.210   5.934   7.279  0.9396 -1.0542 -2.9572
  633MOL0     H83546   2.868   6.200   7.214  1.2843 -1.3894 -0.6096
  633MOL0     H83547   2.882   6.235   7.378  0.4529  1.5299 -1.0752
  633MOL0     H83548   2.670   6.112   7.299  1.1968  2.5813  2.8596
  633MOL0     H83549   2.767   5.972   7.252  1.2831 -3.9316  4.4565
  633MOL0     H83550   2.826   6.017   7.538  0.5860 -1.3625  0.2381
  633MOL0     H83551   2.771   5.875   7.449  0.7388  0.2028  2.2828
  633MOL0     H83552   2.633   5.914   7.631 -1.8177 -0.5118 -0.0493
  633MOL0     H83553   2.608   6.078   7.600 -1.7439 -1.1744  1.6157
  633MOL0     H83554   2.298   5.885   7.398 -0.5513  2.7942  2.2535
  633MOL0     H83555   3.086   6.350   7.310  1.2707 -0.1376  2.9236
  633MOL0     H83556   3.298   6.412   7.251  0.6229  0.2127  3.3394
  634MOL0     O83557   5.875  10.552   0.958 -0.0239  0.7445  0.5016
  634MOL0     C83558   5.841  10.547   0.839  0.2425 -0.0324 -0.3416
  634MOL0     O83559   5.921  10.499   0.738  0.5042  0.6041  0.0943
  634MOL0     C83560   6.038  10.434   0.775  0.3803  0.0015  0.1590
  634MOL0     C83561   6.038  10.294   0.803  0.1623  0.0297  0.3022
  634MOL0     C83562   6.154  10.225   0.843 -0.1024  0.6055 -0.5038
  634MOL0     C83563   6.272  10.301   0.853 -0.0171 -0.1889  0.9649
  634MOL0     O83564   6.389  10.244   0.892  0.1209 -0.2898 -0.0831
  634MOL0     C83565   6.414  10.122   0.818 -0.0133  0.0912  0.2148
  634MOL0     C83566   6.558  10.084   0.862  0.1161 -0.1915 -1.3484
  634MOL0     C83567   6.659  10.173   0.795 -0.0285 -0.3851  1.2370
  634MOL0     C83568   6.802  10.141   0.836 -0.2743  0.2224 -0.2381
  634MOL0     C83569   6.842   9.987   0.819 -0.5694  0.2950  0.8314
  634MOL0     C83570   6.995   9.957   0.866  0.2001 -0.7577  0.0146
  634MOL0     C83571   7.016   9.956   1.017  0.1728  0.2942 -0.0850
  634MOL0     C83572   7.145   9.882   1.061 -0.4483  0.5325  0.1374
  634MOL0     N83573   7.262   9.929   0.995  0.2213  0.0727 -0.2766
  634MOL0     C83574   7.301  10.057   0.972 -0.1379  0.0274 -0.0858
  634MOL0     C83575   7.394  10.049   0.872  0.7973 -0.3353 -0.4004
  634MOL0     C83576   7.476  10.150   0.798 -0.5916  0.1406  0.3631
  634MOL0     C83577   7.410  10.283   0.774 -0.0907  0.2178 -0.1994
  634MOL0     C83578   7.422  10.381   0.892 -0.1230 -0.0780  0.1748
  634MOL0     C83579   7.326  10.493   0.894 -1.2938 -0.1889 -0.1762
  634MOL0     O83580   7.194  10.451   0.934 -0.4976 -0.1347 -0.1863
  634MOL0     C83581   7.102  10.544   0.961  0.9871  0.0986  0.5832
  634MOL0     C83582   6.973  10.509   0.993  0.1793 -0.3385 -0.1725
  634MOL0     C83583   6.877  10.599   1.039  0.0894  0.3172  0.6946
  634MOL0     C83584   6.900  10.745   1.054  0.6395  0.1461 -0.3180
  634MOL0     C83585   6.801  10.826   1.125 -0.3580 -0.7180 -0.0310
  634MOL0     O83586   6.675  10.776   1.150  0.0649 -0.3286 -0.5219
  634MOL0     C83587   6.591  10.855   1.223  0.7056 -0.2458 -0.0637
  634MOL0     C83588   6.607  10.887   1.357 -0.1163 -0.8465  0.4930
  634MOL0     C83589   6.511  10.950   1.429 -0.5054 -0.1767 -0.4170
  634MOL0     C83590   6.384  10.982   1.379 -0.3896 -0.8576 -0.0334
  634MOL0     O83591   6.290  11.056   1.442  0.1246  0.6646 -0.1819
  634MOL0     C83592   6.297  11.042   1.588 -0.9383 -0.7172  0.8131
  634MOL0     C83593   6.180  11.123   1.655  0.0600  0.0532  0.5050
  634MOL0     C83594   6.043  11.070   1.637  0.2298 -0.2346 -0.5796
  634MOL0     C83595   6.021  10.948   1.725  0.2410  0.0168  0.0050
  634MOL0     C83596   5.879  10.914   1.755  0.1228 -0.3040  0.7835
  634MOL0     C83597   5.795  10.871   1.635 -0.3336  0.3768  0.5328
  634MOL0     C83598   5.660  10.818   1.667  0.3793 -1.3770  0.4374
  634MOL0     C83599   5.578  10.919   1.746 -0.5084 -0.7739  0.5679
  634MOL0    Cl83600   5.452  10.847   1.830 -0.0471  0.3610  0.2095
  634MOL0     C83601   6.361  10.947   1.240 -0.1499 -0.5660  0.3606
  634MOL0     C83602   6.467  10.887   1.170  0.0619 -0.4259  0.1137
  634MOL0     O83603   6.833  10.946   1.141 -0.4423  0.7458 -0.1526
  634MOL0     C83604   7.032  10.786   1.016  0.0141 -0.0357  0.3063
  634MOL0     C83605   7.125  10.687   0.960  0.6823 -0.2994 -0.3921
  634MOL0     N83606   7.412   9.920   0.847 -0.4537  0.3847 -0.0335
  634MOL0     N83607   7.343   9.849   0.926 -0.2488  0.1841 -0.1169
  634MOL0     C83608   6.274  10.445   0.826 -0.2610 -0.2395  0.2593
  634MOL0     C83609   6.156  10.500   0.786  0.1565 -0.4089  0.3276
  634MOL0     C83610   5.709  10.609   0.806  0.1807  0.2585 -0.5407
  634MOL0     C83611   5.650  10.600   0.686  0.4482  0.6128 -0.1273
  634MOL0     C83612   5.518  10.645   0.670 -0.0618 -0.7115 -0.8398
  634MOL0     C83613   5.437  10.690   0.779 -0.5979 -0.4530 -0.7593
  634MOL0     O83614   5.310  10.730   0.752  0.1854  0.9448 -0.1306
  634MOL0     C83615   5.220  10.749   0.863 -0.3935 -0.0885 -0.0104
  634MOL0     C83616   5.085  10.795   0.806 -0.3970  0.4706  0.2422
  634MOL0     C83617   5.001  10.869   0.907 -0.7847  0.4220 -0.2838
  634MOL0     C83618   4.855  10.855   0.862 -0.1602 -0.0841  0.8396
  634MOL0     C83619   4.775  10.919   0.973 -0.1694  0.4623  0.3426
  634MOL0     C83620   4.717  10.968   1.069  0.0679 -0.8585  0.8633
  634MOL0     C83621   5.505  10.704   0.901  0.6556  0.6408 -0.3230
  634MOL0     C83622   5.635  10.663   0.913  0.3856 -0.1560 -0.2502
  634MOL0     H83623   5.943  10.242   0.788  0.0911  0.1188  0.4412
  634MOL0     H83624   6.149  10.117   0.853 -0.8040  0.7951  1.9781
  634MOL0     H83625   6.404  10.145   0.712 -4.8026 -0.0146  0.4041
  634MOL0     H83626   6.349  10.042   0.853  0.9765  0.7126  3.9131
  634MOL0     H83627   6.572   9.978   0.836 -0.1877 -0.3038 -1.0590
  634MOL0     H83628   6.558  10.085   0.972 -1.2915  0.6628 -1.3383
  634MOL0     H83629   6.630  10.276   0.822 -0.0275 -0.8137  3.0108
  634MOL0     H83630   6.662  10.160   0.687  4.4292 -1.4141  1.3198
  634MOL0     H83631   6.879  10.193   0.779  1.3688 -0.6027  1.1162
  634MOL0     H83632   6.818  10.170   0.940 -0.5776  0.4593 -0.2537
  634MOL0     H83633   6.843   9.952   0.716 -0.7294 -2.0548  1.5788
  634MOL0     H83634   6.773   9.922   0.873  0.6474 -2.4372 -0.7258
  634MOL0     H83635   7.048  10.043   0.824  0.6023  0.6560  3.1557
  634MOL0     H83636   7.028   9.861   0.824  0.9787 -1.3323  1.8426
  634MOL0     H83637   7.033  10.057   1.054  1.9626  0.8205 -2.1771
  634MOL0     H83638   6.939   9.892   1.062  1.6459 -1.4020  0.1721
  634MOL0     H83639   7.140   9.775   1.043 -3.0039  0.6284 -0.0894
  634MOL0     H83640   7.163   9.896   1.169  3.7009 -1.6644 -0.0639
  634MOL0     H83641   7.264  10.152   1.009 -1.5146  0.2130 -1.7875
  634MOL0     H83642   7.515  10.107   0.706  2.4632 -0.1744  1.6685
  634MOL0     H83643   7.567  10.165   0.857  0.5911 -1.7336 -0.8729
  634MOL0     H83644   7.304  10.269   0.751 -0.1763  1.2513 -0.4940
  634MOL0     H83645   7.456  10.331   0.686 -0.7506 -0.0801 -0.7167
  634MOL0     H83646   7.409  10.330   0.988  0.1719  0.4383  0.4926
  634MOL0     H83647   7.521  10.425   0.878 -1.0879  1.4314 -2.6283
  634MOL0     H83648   7.326  10.535   0.793  1.6358  2.5009  0.7788
  634MOL0     H83649   7.373  10.571   0.955  2.3516  1.3508 -4.3869
  634MOL0     H83650   6.936  10.407   0.990 -1.4231  0.2304 -2.3370
  634MOL0     H83651   6.780  10.568   1.076 -0.0885  0.9890  0.8001
  634MOL0     H83652   6.710  10.883   1.392 -0.6631  2.3258  2.9246
  634MOL0     H83653   6.540  10.984   1.528  0.3032  0.2195 -0.7865
  634MOL0     H83654   6.389  11.078   1.634  0.0018 -3.0667  0.8947
  634MOL0     H83655   6.285  10.936   1.611 -1.2281 -0.9844 -0.4676
  634MOL0     H83656   6.183  11.222   1.610  0.0225 -0.8709 -1.6397
  634MOL0     H83657   6.202  11.131   1.762 -0.6599  0.7577  0.6097
  634MOL0     H83658   6.034  11.046   1.531 -0.2135  1.8886 -1.0690
  634MOL0     H83659   5.969  11.146   1.665 -2.1287 -1.8959 -1.9083
  634MOL0     H83660   6.072  10.866   1.673  2.0617 -0.8983  2.9798
  634MOL0     H83661   6.066  10.949   1.824 -5.7587 -0.8830  3.1557
  634MOL0     H83662   5.832  11.005   1.795 -0.1515  0.3021 -0.8229
  634MOL0     H83663   5.870  10.831   1.825  0.8274 -0.2096  0.9927
  634MOL0     H83664   5.859  10.802   1.579  0.4614  0.8385  0.8483
  634MOL0     H83665   5.787  10.959   1.571 -0.6468 -0.7938 -1.0979
  634MOL0     H83666   5.605  10.799   1.575  1.7473  2.0655 -1.2852
  634MOL0     H83667   5.659  10.728   1.729 -2.1023 -1.2553  0.6393
  634MOL0     H83668   5.540  10.995   1.677  2.4404  0.7059  0.4076
  634MOL0     H83669   5.644  10.960   1.824 -0.6754 -1.2690  0.9776
  634MOL0     H83670   6.267  10.969   1.191 -0.9236  1.1992  2.4873
  634MOL0     H83671   6.429  10.850   1.075 -2.0730 -1.3389  1.2460
  634MOL0     H83672   7.063  10.890   1.013 -0.3951  0.0690 -0.3944
  634MOL0     H83673   7.222  10.730   0.938 -0.8156  2.2901 -2.7109
  634MOL0     H83674   6.360  10.510   0.835 -1.2324  1.2501 -0.7943
  634MOL0     H83675   6.160  10.608   0.769  0.2341 -0.2691  1.1908
  634MOL0     H83676   5.707  10.549   0.609 -0.8332  0.3685 -0.9377
  634MOL0     H83677   5.466  10.627   0.577 -0.3152 -0.8190 -0.6807
  634MOL0     H83678   5.258  10.832   0.923  0.0503 -1.1719  1.2698
  634MOL0     H83679   5.203  10.659   0.922 -3.4804  1.1914  1.2497
  634MOL0     H83680   5.096  10.854   0.715 -1.9114  1.0666  0.4208
  634MOL0     H83681   5.031  10.708   0.769 -1.0419  0.4690  1.1454
  634MOL0     H83682   5.026  10.975   0.907  3.4511 -0.4025  0.0184
  634MOL0     H83683   5.013  10.825   1.007  4.0105  1.2043 -0.3057
  634MOL0     H83684   4.843  10.916   0.773 -0.0422 -1.2929 -0.0356
  634MOL0     H83685   4.831  10.748   0.860  1.2736 -0.4258 -1.5317
  634MOL0     H83686   4.670  10.993   1.162 -0.5982 -0.8199  0.5191
  634MOL0     H83687   5.463  10.740   0.995 -2.6679  0.4059 -1.5880
  634MOL0     H83688   5.668  10.672   1.016  0.0018  0.5236 -0.1807
  635MOL0     O83689   2.351   1.030   2.114 -0.9515  0.3477  0.6527
  635MOL0     C83690   2.448   1.020   2.185 -0.5363 -0.2673 -0.1283
  635MOL0     O83691   2.448   1.020   2.329  0.3549  0.3336 -0.1700
  635MOL0     C83692   2.352   1.083   2.404  0.3240 -0.3517 -0.1697
  635MOL0     C83693   2.325   1.031   2.536 -0.3577 -0.2422  0.2206
  635MOL0     C83694   2.233   1.105   2.616 -0.0134 -0.0465  0.6169
  635MOL0     C83695   2.164   1.216   2.574  0.6919  0.5558  0.7348
  635MOL0     O83696   2.069   1.271   2.653  0.0126 -0.0821  0.3605
  635MOL0     C83697   1.984   1.369   2.589  0.2471 -0.4012 -0.4542
  635MOL0     C83698   1.860   1.383   2.685 -0.4480  0.0431  0.6588
  635MOL0     C83699   1.777   1.509   2.650  0.5782 -0.2943  0.3181
  635MOL0     C83700   1.650   1.518   2.737 -0.3447 -0.3874 -0.0884
  635MOL0     C83701   1.565   1.646   2.722  0.5896  0.1614 -0.1757
  635MOL0     C83702   1.516   1.658   2.583  0.4997  0.8325 -0.6850
  635MOL0     C83703   1.394   1.748   2.587 -0.5442 -0.0563 -0.1275
  635MOL0     C83704   1.355   1.797   2.446  0.8118 -0.8060 -0.8025
  635MOL0     N83705   1.334   1.952   2.443 -0.1402  0.0268  0.2717
  635MOL0     C83706   1.224   2.012   2.497 -0.8190 -0.6222  1.2880
  635MOL0     C83707   1.242   2.142   2.465 -0.5160  0.0907 -0.3870
  635MOL0     C83708   1.148   2.252   2.502 -0.8295  0.6580  0.0627
  635MOL0     C83709   1.101   2.351   2.405  0.1603  0.6038 -1.1406
  635MOL0     C83710   1.072   2.293   2.269 -0.1027 -0.2532  0.2312
  635MOL0     C83711   0.972   2.377   2.199 -0.4698  0.7180  0.4808
  635MOL0     O83712   0.965   2.338   2.059  0.1053 -0.4160  0.0340
  635MOL0     C83713   0.858   2.380   1.983 -0.2166  0.2585  0.0478
  635MOL0     C83714   0.738   2.429   2.032 -0.3225 -0.0559 -0.1974
  635MOL0     C83715   0.634   2.456   1.940 -0.0034 -0.6241 -0.0790
  635MOL0     C83716   0.632   2.402   1.808 -0.4937 -0.0583  0.2369
  635MOL0     C83717   0.515   2.412   1.725 -0.0926 -0.3891 -0.0363
  635MOL0     O83718   0.404   2.483   1.770 -0.8264  0.5523 -0.1457
  635MOL0     C83719   0.287   2.464   1.703 -0.4054 -0.2917  0.3909
  635MOL0     C83720   0.210   2.346   1.712  0.3199  0.1120  0.2904
  635MOL0     C83721   0.095   2.332   1.630  0.1706 -0.0885 -0.3099
  635MOL0     C83722   0.041   2.443   1.561 -0.3890  0.1770 -0.6738
  635MOL0     O83723  -0.064   2.437   1.483  0.6801 -0.4382  0.8975
  635MOL0     C83724  -0.133   2.312   1.452  0.2834 -0.1378  0.1254
  635MOL0     C83725  -0.231   2.319   1.326 -0.4583 -0.8738 -0.4648
  635MOL0     C83726  -0.298   2.190   1.303 -0.6042 -0.5525  0.2059
  635MOL0     C83727  -0.411   2.213   1.196  1.0202  0.6905 -1.5964
  635MOL0     C83728  -0.499   2.080   1.181 -0.3246 -0.8901 -0.0942
  635MOL0     C83729  -0.571   2.074   1.051 -0.1440 -0.0974  0.2076
  635MOL0     C83730  -0.685   2.175   1.050 -0.7899 -0.4241 -0.4588
  635MOL0     C83731  -0.814   2.147   1.139 -0.1222  0.5441  0.3554
  635MOL0    Cl83732  -0.964   2.126   1.052  0.6255 -0.1937  0.0014
  635MOL0     C83733   0.114   2.565   1.564  0.5131 -1.6902  0.0188
  635MOL0     C83734   0.239   2.571   1.629 -0.9220  0.3033 -0.5321
  635MOL0     O83735   0.533   2.368   1.610  0.0363  0.1316  0.2010
  635MOL0     C83736   0.744   2.326   1.773  0.3226  0.1701 -0.5442
  635MOL0     C83737   0.859   2.313   1.857  0.2445 -0.6931 -0.0681
  635MOL0     N83738   1.361   2.152   2.385  0.3318 -0.5864  0.2891
  635MOL0     N83739   1.413   2.038   2.375  0.2664 -0.9501 -0.3672
  635MOL0     C83740   2.189   1.250   2.436  0.1888 -0.5388 -0.9154
  635MOL0     C83741   2.286   1.194   2.360  0.2760  0.0539  0.2562
  635MOL0     C83742   2.571   0.984   2.114 -0.1769 -0.4123  0.1541
  635MOL0     C83743   2.701   0.972   2.175  0.3676  0.3318  0.2105
  635MOL0     C83744   2.821   0.954   2.102  0.4328 -0.5674  0.3459
  635MOL0     C83745   2.812   0.936   1.961 -0.1020  0.0893 -0.0626
  635MOL0     O83746   2.920   0.900   1.882 -0.0493 -0.0475 -0.7788
  635MOL0     C83747   3.048   0.881   1.939  0.2709 -0.6015 -0.2822
  635MOL0     C83748   3.146   0.810   1.843  0.3854  0.0022  0.6017
  635MOL0     C83749   3.273   0.785   1.916 -0.1454  0.0745  0.2436
  635MOL0     C83750   3.373   0.732   1.814  0.3348  0.5587  0.5406
  635MOL0     C83751   3.511   0.749   1.863  0.8946  0.8470 -1.0884
  635MOL0     C83752   3.625   0.753   1.902 -0.0095  0.8847  0.3166
  635MOL0     C83753   2.684   0.948   1.902  0.4123 -0.2883 -0.4911
  635MOL0     C83754   2.566   0.962   1.976 -0.5159 -0.2702 -0.0862
  635MOL0     H83755   2.373   0.943   2.578  0.2849  0.0205  0.0338
  635MOL0     H83756   2.213   1.076   2.718  1.4873 -1.3207  0.5813
  635MOL0     H83757   1.945   1.345   2.490  2.3343  0.8380 -1.6537
  635MOL0     H83758   2.033   1.466   2.582  1.1131 -0.9174 -2.0194
  635MOL0     H83759   1.891   1.395   2.789  0.2367  0.5204  0.4132
  635MOL0     H83760   1.799   1.293   2.684  0.9149 -0.9137 -0.3014
  635MOL0     H83761   1.747   1.503   2.545  0.6057  0.3040  0.2736
  635MOL0     H83762   1.832   1.603   2.659 -1.8194  1.6476 -2.9809
  635MOL0     H83763   1.592   1.425   2.729  3.1951 -2.8711  0.7420
  635MOL0     H83764   1.681   1.519   2.842 -0.7434 -2.0836  0.0817
  635MOL0     H83765   1.612   1.741   2.748 -1.1253  0.6967  1.1628
  635MOL0     H83766   1.483   1.637   2.794  0.3302 -0.9948 -0.5924
  635MOL0     H83767   1.469   1.562   2.561 -1.9097  1.3184  1.8228
  635MOL0     H83768   1.599   1.684   2.516  0.3199 -0.5412 -1.4820
  635MOL0     H83769   1.309   1.690   2.625  0.0367 -1.0289 -0.2753
  635MOL0     H83770   1.415   1.828   2.658  2.7902 -0.8514 -0.0433
  635MOL0     H83771   1.263   1.747   2.415  1.6407 -2.2254 -1.0657
  635MOL0     H83772   1.441   1.774   2.383  0.5207  2.4967 -2.6439
  635MOL0     H83773   1.138   1.971   2.548 -2.6474 -0.3422 -1.3351
  635MOL0     H83774   1.195   2.305   2.585 -0.3242  1.6259 -0.8219
  635MOL0     H83775   1.055   2.214   2.548 -0.7073  2.3414  1.8600
  635MOL0     H83776   1.168   2.437   2.395  1.8812 -0.3814  0.9711
  635MOL0     H83777   1.007   2.384   2.449 -0.8422 -3.3277  0.0438
  635MOL0     H83778   1.161   2.303   2.206  1.5140  1.2166  2.5833
  635MOL0     H83779   1.022   2.196   2.265 -1.0018  0.1918 -3.5535
  635MOL0     H83780   1.009   2.480   2.201  0.9489  0.2642 -0.8892
  635MOL0     H83781   0.876   2.360   2.249  0.0814 -1.2074  0.9600
  635MOL0     H83782   0.722   2.462   2.134 -4.0825 -1.2187 -0.2430
  635MOL0     H83783   0.555   2.523   1.973  1.0007 -1.2748  4.2475
  635MOL0     H83784   0.247   2.266   1.776 -2.0229 -0.9068  0.4563
  635MOL0     H83785   0.045   2.235   1.629 -1.7869  0.8628  0.7762
  635MOL0     H83786  -0.186   2.278   1.541  0.1985  2.0555  0.9546
  635MOL0     H83787  -0.061   2.234   1.424 -0.3126  0.2023 -2.6351
  635MOL0     H83788  -0.175   2.354   1.239 -0.9440  1.8875  0.2357
  635MOL0     H83789  -0.306   2.397   1.341 -0.9083 -1.5751  1.2248
  635MOL0     H83790  -0.346   2.158   1.396 -0.2580 -0.8076  0.2998
  635MOL0     H83791  -0.224   2.115   1.271 -1.0903 -1.3981  1.0252
  635MOL0     H83792  -0.471   2.301   1.218 -1.0569 -0.3529 -2.7565
  635MOL0     H83793  -0.366   2.241   1.100  1.7338  1.6314 -1.0093
  635MOL0     H83794  -0.579   2.082   1.256 -0.7413 -0.8115 -0.5315
  635MOL0     H83795  -0.433   1.994   1.194  0.9050  0.1494  0.8165
  635MOL0     H83796  -0.618   1.977   1.029 -2.7046  1.2534 -0.8265
  635MOL0     H83797  -0.495   2.089   0.974  1.5860  1.5212  2.1342
  635MOL0     H83798  -0.644   2.274   1.072  0.9890 -0.9335 -1.2902
  635MOL0     H83799  -0.714   2.190   0.946  1.4535  1.9544 -0.8435
  635MOL0     H83800  -0.838   2.230   1.206  1.6490 -0.4489  2.3355
  635MOL0     H83801  -0.800   2.060   1.204  0.1775  0.3756  0.0718
  635MOL0     H83802   0.064   2.643   1.507  1.7497  0.3439  1.6084
  635MOL0     H83803   0.291   2.666   1.622 -0.7250  0.4178  1.7169
  635MOL0     H83804   0.747   2.276   1.677 -0.1140 -0.0035 -0.4693
  635MOL0     H83805   0.940   2.251   1.820  1.2720  0.6137 -0.0914
  635MOL0     H83806   2.137   1.330   2.384 -0.7248 -0.4037  0.1752
  635MOL0     H83807   2.319   1.229   2.263 -1.1957  2.8035  0.6305
  635MOL0     H83808   2.702   0.979   2.283 -1.4477 -0.5205  0.3126
  635MOL0     H83809   2.918   0.963   2.150 -0.5611  0.7025  2.2537
  635MOL0     H83810   3.049   0.828   2.034  1.4007 -1.2698 -0.6482
  635MOL0     H83811   3.096   0.976   1.961  0.8173 -1.2843  1.6411
  635MOL0     H83812   3.097   0.718   1.811 -1.2321  0.8916  0.3702
  635MOL0     H83813   3.161   0.881   1.760 -0.4246  0.0041  0.4439
  635MOL0     H83814   3.273   0.715   1.999  2.1469 -2.6832 -1.8908
  635MOL0     H83815   3.305   0.879   1.961 -2.1250 -0.3682  2.7810
  635MOL0     H83816   3.348   0.626   1.802  0.4737  0.4997  0.7659
  635MOL0     H83817   3.357   0.789   1.722  0.2404 -0.4585 -0.0946
  635MOL0     H83818   3.730   0.752   1.921  0.2256  1.2126 -0.9074
  635MOL0     H83819   2.684   0.935   1.795 -0.0079 -0.0189 -0.5244
  635MOL0     H83820   2.470   0.967   1.927 -0.7567  2.3245  0.4804
  636MOL0     O83821   6.696   8.021   3.021  0.6898  0.4354 -0.3823
  636MOL0     C83822   6.698   8.143   3.008  0.8875  0.3413 -0.6579
  636MOL0     O83823   6.589   8.218   2.982 -0.1871 -0.2282  0.0135
  636MOL0     C83824   6.468   8.159   2.947 -1.4731  0.2025  0.0699
  636MOL0     C83825   6.387   8.230   2.859  0.1502  0.1353 -0.1480
  636MOL0     C83826   6.260   8.186   2.827  0.3596 -0.7000 -0.9192
  636MOL0     C83827   6.204   8.072   2.872  0.4290  0.7169 -0.1439
  636MOL0     O83828   6.079   8.021   2.820  0.4192 -0.3140 -0.1255
  636MOL0     C83829   6.050   7.883   2.875 -0.0749 -0.3354  0.8353
  636MOL0     C83830   5.928   7.830   2.792 -0.7388 -0.2271  1.0522
  636MOL0     C83831   5.810   7.867   2.872  0.7826 -0.0037  0.7087
  636MOL0     C83832   5.688   7.821   2.795 -0.1461 -0.3980  0.1654
  636MOL0     C83833   5.550   7.869   2.860  0.3019 -0.3805  0.1520
  636MOL0     C83834   5.419   7.808   2.799 -0.2751 -0.2169  0.0248
  636MOL0     C83835   5.298   7.808   2.899  0.0658  0.0453 -0.0364
  636MOL0     C83836   5.174   7.758   2.823  0.6609 -0.8637 -0.2974
  636MOL0     N83837   5.047   7.781   2.896  0.1312 -0.0211 -0.7136
  636MOL0     C83838   5.005   7.901   2.938  0.5659 -0.8720  0.5512
  636MOL0     C83839   4.873   7.902   2.961 -0.0082  0.2677  0.0599
  636MOL0     C83840   4.793   8.019   3.016 -0.4157  0.8330  0.5281
  636MOL0     C83841   4.719   7.978   3.145  0.2766 -0.2630  0.7262
  636MOL0     C83842   4.664   8.092   3.235  0.1293  0.9358 -0.5533
  636MOL0     C83843   4.577   8.180   3.141  0.3579 -0.3337 -0.3326
  636MOL0     O83844   4.502   8.265   3.239 -0.1579  0.3036  0.1374
  636MOL0     C83845   4.371   8.304   3.213 -0.3273 -0.8989  0.3865
  636MOL0     C83846   4.311   8.298   3.091 -0.1384 -0.1649  0.5401
  636MOL0     C83847   4.179   8.323   3.080  0.3378 -0.0304 -0.1681
  636MOL0     C83848   4.093   8.340   3.194 -1.0167 -0.1969  0.3715
  636MOL0     C83849   3.947   8.350   3.191  0.5784 -0.1511 -0.6927
  636MOL0     O83850   3.879   8.357   3.307 -0.8214  0.2662  0.2274
  636MOL0     C83851   3.746   8.374   3.310 -0.1984 -0.2376  0.8695
  636MOL0     C83852   3.664   8.290   3.385  0.0227  0.0712 -0.7933
  636MOL0     C83853   3.529   8.302   3.382 -0.2156 -0.4579 -0.3806
  636MOL0     C83854   3.471   8.403   3.309 -1.5712 -0.4407  0.2640
  636MOL0     O83855   3.337   8.406   3.305 -0.0566  0.8378 -0.7130
  636MOL0     C83856   3.284   8.463   3.426  0.4182  0.2633 -0.2669
  636MOL0     C83857   3.132   8.459   3.423  0.7040 -0.2585 -0.2536
  636MOL0     C83858   3.072   8.583   3.348 -0.5186  0.0807 -0.3330
  636MOL0     C83859   2.917   8.584   3.349  0.4668 -0.6102 -0.5873
  636MOL0     C83860   2.865   8.703   3.429 -0.1812 -0.1936  0.0632
  636MOL0     C83861   2.713   8.703   3.451 -0.4770 -0.0270  0.0819
  636MOL0     C83862   2.683   8.808   3.571  0.9948  0.7491  0.0319
  636MOL0     C83863   2.533   8.830   3.600 -0.7422 -0.0047  0.4698
  636MOL0    Cl83864   2.454   8.674   3.632 -0.2980  0.0827  0.5218
  636MOL0     C83865   3.546   8.492   3.228  0.6551  0.1148 -1.1926
  636MOL0     C83866   3.683   8.478   3.225  0.5996  0.2526 -0.4966
  636MOL0     O83867   3.898   8.375   3.079  0.1127 -0.2764 -0.1874
  636MOL0     C83868   4.160   8.339   3.318 -0.1023 -0.6869  0.3737
  636MOL0     C83869   4.298   8.327   3.329 -0.4811 -0.3204  0.9063
  636MOL0     N83870   4.837   7.772   2.950  0.4636  0.2067 -1.0223
  636MOL0     N83871   4.940   7.699   2.919  0.3689 -0.1732 -0.5640
  636MOL0     C83872   6.282   8.002   2.972 -0.1736 -0.5525  1.0416
  636MOL0     C83873   6.406   8.053   3.017 -0.2180 -0.0010  0.2258
  636MOL0     C83874   6.833   8.210   3.016 -0.0466  0.3881 -0.3249
  636MOL0     C83875   6.847   8.342   3.029  0.2523 -0.7377 -0.4738
  636MOL0     C83876   6.968   8.413   3.033 -0.6176 -0.2012  0.4691
  636MOL0     C83877   7.081   8.332   3.021 -0.8904  0.2309 -0.4293
  636MOL0     O83878   7.211   8.368   3.003 -0.2478 -0.2603 -0.3939
  636MOL0     C83879   7.255   8.512   3.021  0.5072 -0.1511 -0.4974
  636MOL0     C83880   7.402   8.522   3.044 -0.1694  0.1335  0.3315
  636MOL0     C83881   7.436   8.488   3.191  0.5312 -0.3596 -0.5282
  636MOL0     C83882   7.584   8.491   3.215  0.8187  0.2745  0.5165
  636MOL0     C83883   7.620   8.607   3.295 -0.0156 -0.0957  0.5740
  636MOL0     C83884   7.642   8.705   3.360  0.5203  0.2676 -0.0336
  636MOL0     C83885   7.072   8.193   3.017 -0.8386  0.4271 -0.4698
  636MOL0     C83886   6.950   8.133   3.008 -0.0862  0.0578 -0.9731
  636MOL0     H83887   6.410   8.331   2.826  0.7317 -0.1234 -0.5573
  636MOL0     H83888   6.212   8.248   2.752 -0.6318 -1.3167 -0.8033
  636MOL0     H83889   6.021   7.881   2.981 -0.6380 -0.4705  0.6791
  636MOL0     H83890   6.132   7.813   2.856  1.9626  2.3736 -1.0388
  636MOL0     H83891   5.936   7.723   2.771 -0.8745  0.1858 -1.2680
  636MOL0     H83892   5.929   7.867   2.690 -1.8686  0.3491  1.2400
  636MOL0     H83893   5.817   7.974   2.891  1.4323 -0.2470  1.9685
  636MOL0     H83894   5.817   7.819   2.971  2.2763  1.5448  1.4031
  636MOL0     H83895   5.692   7.863   2.694 -3.7991  0.0750  0.0706
  636MOL0     H83896   5.694   7.712   2.789  2.9388 -0.2770 -0.0870
  636MOL0     H83897   5.550   7.978   2.868 -0.2217 -0.2235 -1.5817
  636MOL0     H83898   5.559   7.828   2.961 -0.6923  0.9538  0.8117
  636MOL0     H83899   5.436   7.705   2.766 -0.6186 -1.7768  4.2090
  636MOL0     H83900   5.389   7.860   2.707 -0.6244  1.3931  1.0174
  636MOL0     H83901   5.304   7.741   2.985 -0.3808 -2.1403 -1.6260
  636MOL0     H83902   5.283   7.911   2.933  0.8671  0.5889 -1.2471
  636MOL0     H83903   5.183   7.649   2.823 -3.2405 -1.3242  0.9180
  636MOL0     H83904   5.166   7.807   2.725 -0.7857  0.3668  0.3886
  636MOL0     H83905   5.067   7.990   2.937  1.4564 -1.4451 -2.0012
  636MOL0     H83906   4.711   8.046   2.948  0.2865 -0.3147 -0.8309
  636MOL0     H83907   4.855   8.106   3.040 -0.5527  1.7756 -2.1563
  636MOL0     H83908   4.785   7.913   3.203  2.3232 -1.5815 -2.7822
  636MOL0     H83909   4.636   7.912   3.116  1.6543 -1.1648 -1.4122
  636MOL0     H83910   4.602   8.052   3.316  0.3440  2.5679  0.4570
  636MOL0     H83911   4.740   8.158   3.277 -0.0567 -1.5583  4.4770
  636MOL0     H83912   4.514   8.133   3.065 -0.8475  1.4493 -0.5053
  636MOL0     H83913   4.649   8.245   3.090  1.5095 -1.3849 -0.0785
  636MOL0     H83914   4.373   8.268   3.006 -1.3029  0.1793 -0.4678
  636MOL0     H83915   4.141   8.324   2.978  1.2919 -0.4464 -0.5430
  636MOL0     H83916   3.704   8.206   3.441 -0.0231  0.7181  0.2373
  636MOL0     H83917   3.459   8.247   3.444  0.7481 -0.8011  0.4453
  636MOL0     H83918   3.322   8.565   3.442  1.1985 -0.3790  2.4106
  636MOL0     H83919   3.313   8.399   3.509 -0.2819  2.1079  1.5013
  636MOL0     H83920   3.092   8.472   3.524  0.4288  2.8780 -0.6806
  636MOL0     H83921   3.093   8.368   3.376 -2.8029  0.2463  1.4169
  636MOL0     H83922   3.108   8.565   3.246 -0.7238 -4.4098  0.1696
  636MOL0     H83923   3.107   8.677   3.391  0.1012 -0.2325 -0.1501
  636MOL0     H83924   2.878   8.596   3.248  2.4413 -2.0496 -1.6033
  636MOL0     H83925   2.879   8.491   3.392  1.4648 -0.9596 -0.4283
  636MOL0     H83926   2.905   8.796   3.387 -0.4326  0.3125  0.9097
  636MOL0     H83927   2.915   8.699   3.527  1.9526 -1.6430 -1.0020
  636MOL0     H83928   2.689   8.602   3.485  1.2495 -0.1526  1.0350
  636MOL0     H83929   2.648   8.731   3.368 -3.1114  1.5686  2.4637
  636MOL0     H83930   2.731   8.776   3.664  0.0344 -1.6175 -0.2158
  636MOL0     H83931   2.719   8.906   3.538 -1.0250  1.1136 -1.2319
  636MOL0     H83932   2.494   8.875   3.508  1.6966  0.2696 -0.5045
  636MOL0     H83933   2.526   8.899   3.684  0.1710 -0.3269  0.8237
  636MOL0     H83934   3.493   8.571   3.176  1.5226  0.6514 -1.2831
  636MOL0     H83935   3.749   8.541   3.166  2.4502 -0.3177  0.8884
  636MOL0     H83936   4.098   8.351   3.406  0.6818 -3.0601  1.3488
  636MOL0     H83937   4.354   8.340   3.421  2.1255  0.5715 -0.7064
  636MOL0     H83938   6.232   7.927   3.032 -1.9160 -0.5999 -0.3729
  636MOL0     H83939   6.457   7.996   3.094 -0.9845 -2.0923 -0.7551
  636MOL0     H83940   6.760   8.405   3.040 -0.0072 -1.1940  0.1497
  636MOL0     H83941   6.977   8.521   3.046 -1.0934 -0.3424  2.2668
  636MOL0     H83942   7.196   8.556   3.101 -2.1480 -0.6399 -2.0629
  636MOL0     H83943   7.221   8.559   2.929  1.6090 -2.1658 -2.0375
  636MOL0     H83944   7.447   8.458   2.967 -1.2382 -1.2034  0.7871
  636MOL0     H83945   7.445   8.621   3.026  0.6614 -0.1867  0.4988
  636MOL0     H83946   7.409   8.384   3.212 -1.0613  0.5255  2.4705
  636MOL0     H83947   7.382   8.546   3.268 -0.3778 -3.5829  1.4511
  636MOL0     H83948   7.601   8.408   3.285  1.3045 -0.5952 -0.5970
  636MOL0     H83949   7.644   8.471   3.126 -1.4416  1.0873 -1.2859
  636MOL0     H83950   7.656   8.793   3.420 -1.3049 -0.6505  1.8852
  636MOL0     H83951   7.164   8.137   3.029  0.0965  2.1947  1.3371
  636MOL0     H83952   6.943   8.025   3.006 -0.2964  0.0711 -3.0542
  637MOL0     O83953   5.147   6.775   6.644 -0.6153 -0.1777  0.6592
  637MOL0     C83954   5.072   6.709   6.579  0.5891 -0.6507  0.0123
  637MOL0     O83955   5.091   6.577   6.564  0.0533 -0.4629 -0.0162
  637MOL0     C83956   5.210   6.523   6.602  0.1616  0.0099 -0.6110
  637MOL0     C83957   5.317   6.500   6.518 -0.5222  0.0338 -0.7286
  637MOL0     C83958   5.429   6.436   6.572 -0.1690 -0.2203  0.1166
  637MOL0     C83959   5.442   6.407   6.704 -0.2899  1.1357 -0.1864
  637MOL0     O83960   5.558   6.354   6.763  0.5004  0.4595  0.6439
  637MOL0     C83961   5.681   6.394   6.697  0.1052  0.0108  0.4709
  637MOL0     C83962   5.798   6.365   6.796 -0.1148  0.0367  0.1181
  637MOL0     C83963   5.931   6.393   6.721 -0.3877  0.2753 -0.5289
  637MOL0     C83964   6.055   6.370   6.807 -0.5073 -0.7348 -0.1338
  637MOL0     C83965   6.183   6.397   6.725  0.2696 -0.0679 -0.3884
  637MOL0     C83966   6.305   6.424   6.823  0.2287  0.3147 -0.2403
  637MOL0     C83967   6.432   6.438   6.747  0.8370 -0.0498 -0.9958
  637MOL0     C83968   6.438   6.567   6.660  0.1623  0.0570  0.1087
  637MOL0     N83969   6.571   6.571   6.598 -0.0580 -0.3108  0.5726
  637MOL0     C83970   6.634   6.691   6.568 -0.3812  0.2246 -0.6218
  637MOL0     C83971   6.753   6.663   6.511  0.3559  0.3318 -0.3129
  637MOL0     C83972   6.847   6.775   6.477  0.5482  0.3023 -0.2207
  637MOL0     C83973   6.906   6.759   6.336  0.3304  0.1742  0.2832
  637MOL0     C83974   7.028   6.859   6.313  0.1303  1.0327 -0.5420
  637MOL0     C83975   7.072   6.852   6.167  0.1208  0.3044  0.4615
  637MOL0     O83976   7.203   6.908   6.150 -0.6741  0.0686 -0.4116
  637MOL0     C83977   7.319   6.825   6.159  0.3834  0.6709  0.1213
  637MOL0     C83978   7.320   6.692   6.192  0.1539 -0.2810 -0.7467
  637MOL0     C83979   7.442   6.621   6.209  0.1393  0.1871 -0.5830
  637MOL0     C83980   7.566   6.682   6.171  0.6396  0.9153  0.8794
  637MOL0     C83981   7.689   6.601   6.182 -0.5443  0.6595  0.0598
  637MOL0     O83982   7.801   6.640   6.126 -0.8340 -0.1466 -0.5605
  637MOL0     C83983   7.927   6.579   6.155  0.6494 -0.1910  0.5151
  637MOL0     C83984   8.032   6.658   6.187  0.1950 -0.1385  0.2084
  637MOL0     C83985   8.159   6.611   6.216 -0.4874  0.5995  0.1631
  637MOL0     C83986   8.183   6.472   6.208 -0.0789 -0.3248 -0.9939
  637MOL0     O83987   8.313   6.428   6.233 -0.1717  0.3308  0.1778
  637MOL0     C83988   8.363   6.313   6.157 -0.3508  0.2091  0.0426
  637MOL0     C83989   8.517   6.294   6.164  0.3947  0.0939  0.8298
  637MOL0     C83990   8.600   6.413   6.102 -0.3815 -0.4147  0.6267
  637MOL0     C83991   8.614   6.548   6.178  0.1705 -0.2767  0.3117
  637MOL0     C83992   8.681   6.655   6.086  0.5356 -0.2918 -0.1200
  637MOL0     C83993   8.599   6.693   5.963  0.8417  1.0443  0.5474
  637MOL0     C83994   8.442   6.705   5.987 -0.6723  0.0901 -0.0853
  637MOL0     C83995   8.390   6.831   6.056 -0.7907 -0.5354 -0.0725
  637MOL0    Cl83996   8.401   6.964   5.942 -0.2211 -0.1214  0.1546
  637MOL0     C83997   8.079   6.388   6.176  0.3335  0.4943 -0.0523
  637MOL0     C83998   7.952   6.438   6.149  0.0721 -0.7819 -0.4168
  637MOL0     O83999   7.675   6.501   6.247 -0.3620 -0.3139  0.8895
  637MOL0     C84000   7.561   6.809   6.122 -0.4370 -0.9651  0.0130
  637MOL0     C84001   7.439   6.876   6.122  0.3662  0.2057  0.3096
  637MOL0     N84002   6.759   6.525   6.502  0.3029 -0.4680 -0.0004
  637MOL0     N84003   6.644   6.470   6.546 -0.0029  0.0335  0.2735
  637MOL0     C84004   5.331   6.420   6.786  0.1461  0.6079  0.5443
  637MOL0     C84005   5.220   6.479   6.731 -0.4909 -0.0441 -0.3942
  637MOL0     C84006   4.962   6.786   6.522  0.3329 -0.1412  0.4771
  637MOL0     C84007   4.844   6.717   6.482 -0.6128 -0.0727 -0.3352
  637MOL0     C84008   4.740   6.789   6.430 -0.1045 -1.1462 -0.6929
  637MOL0     C84009   4.743   6.927   6.411  0.0337 -0.1580  0.3261
  637MOL0     O84010   4.629   6.963   6.343 -0.5431 -0.6716 -0.1933
  637MOL0     C84011   4.612   7.098   6.313  0.0119  0.7304 -0.3527
  637MOL0     C84012   4.472   7.114   6.268  0.2499  0.0805  0.8052
  637MOL0     C84013   4.425   7.263   6.256 -0.4058  0.0917 -0.6352
  637MOL0     C84014   4.296   7.272   6.195  0.4217 -0.1314 -0.6074
  637MOL0     C84015   4.224   7.393   6.234  1.3701 -1.5254 -0.0103
  637MOL0     C84016   4.178   7.505   6.274  0.8832  0.5301 -0.4603
  637MOL0     C84017   4.858   6.994   6.445 -0.2770  0.2784  0.2774
  637MOL0     C84018   4.963   6.928   6.511 -0.3806  0.1109  0.8990
  637MOL0     H84019   5.310   6.536   6.416  0.1164  0.3139 -0.6767
  637MOL0     H84020   5.509   6.411   6.503 -0.4705  0.5245 -0.5159
  637MOL0     H84021   5.679   6.496   6.657  0.6601 -0.5794 -1.1472
  637MOL0     H84022   5.689   6.328   6.609 -0.3093  1.8333 -0.9952
  637MOL0     H84023   5.795   6.262   6.833 -2.2970  0.1777  0.4810
  637MOL0     H84024   5.791   6.429   6.884  1.5545  2.2041 -1.2312
  637MOL0     H84025   5.938   6.502   6.706  2.5105  0.1156 -0.8245
  637MOL0     H84026   5.949   6.347   6.624 -2.0651  0.7119 -1.0897
  637MOL0     H84027   6.053   6.427   6.900  0.4049 -1.5914  0.4321
  637MOL0     H84028   6.055   6.264   6.834 -0.8166 -0.9755 -1.0413
  637MOL0     H84029   6.162   6.489   6.670  1.5460 -0.6165 -1.8673
  637MOL0     H84030   6.198   6.308   6.663  0.9643 -1.7354  2.0294
  637MOL0     H84031   6.306   6.341   6.894  2.0989  1.4536  1.1664
  637MOL0     H84032   6.295   6.513   6.886 -0.3049  1.1156 -1.4225
  637MOL0     H84033   6.502   6.453   6.830 -1.7805  2.2697  0.9595
  637MOL0     H84034   6.466   6.345   6.699  3.4921  0.4893 -0.3355
  637MOL0     H84035   6.419   6.645   6.734 -0.6790 -1.4697  1.5757
  637MOL0     H84036   6.360   6.569   6.584  0.2632 -1.4684 -0.0610
  637MOL0     H84037   6.606   6.793   6.593 -1.0390 -0.3832  1.3924
  637MOL0     H84038   6.920   6.787   6.557 -0.9926  2.1559  0.9982
  637MOL0     H84039   6.787   6.866   6.481 -0.8250 -0.6022  0.6681
  637MOL0     H84040   6.828   6.789   6.265  1.3646  0.2551 -0.8370
  637MOL0     H84041   6.938   6.656   6.316 -0.3987  0.0429 -0.2453
  637MOL0     H84042   7.004   6.961   6.345  1.1217  1.0244  0.2696
  637MOL0     H84043   7.111   6.823   6.375 -0.7160  3.7852  2.5143
  637MOL0     H84044   6.998   6.906   6.106  0.0164 -0.7219 -0.3626
  637MOL0     H84045   7.060   6.751   6.126  0.4858  0.5147 -0.1856
  637MOL0     H84046   7.229   6.641   6.224 -0.2402 -0.2390 -1.7638
  637MOL0     H84047   7.428   6.522   6.252 -0.5573  0.9642  1.0621
  637MOL0     H84048   8.005   6.761   6.212 -3.2074 -1.3136  2.0071
  637MOL0     H84049   8.243   6.676   6.237  0.7053  0.2972 -3.1892
  637MOL0     H84050   8.351   6.323   6.049 -0.4022 -3.2457 -0.3961
  637MOL0     H84051   8.321   6.216   6.185  1.8636 -1.0237 -0.6084
  637MOL0     H84052   8.537   6.203   6.107 -1.5505  2.0780 -3.5133
  637MOL0     H84053   8.548   6.282   6.268 -0.2279  2.4716  1.3370
  637MOL0     H84054   8.566   6.429   5.999  2.0999 -0.9711 -0.3421
  637MOL0     H84055   8.707   6.392   6.099 -0.2657  0.2059  0.1433
  637MOL0     H84056   8.513   6.575   6.210 -0.4362  1.2721 -2.5774
  637MOL0     H84057   8.673   6.526   6.267  2.1966  1.7102 -0.4563
  637MOL0     H84058   8.771   6.610   6.043  1.2822  1.3704 -0.3847
  637MOL0     H84059   8.695   6.753   6.134 -1.7404  1.8127 -3.2989
  637MOL0     H84060   8.621   6.620   5.885 -0.2925  0.9207  0.3152
  637MOL0     H84061   8.635   6.783   5.913 -3.2446  0.8751 -3.3231
  637MOL0     H84062   8.412   6.709   5.882  4.1774  1.1389 -1.6966
  637MOL0     H84063   8.402   6.616   6.036 -2.8439  0.7649 -0.5627
  637MOL0     H84064   8.453   6.847   6.145  0.3964  0.5526 -1.0733
  637MOL0     H84065   8.284   6.829   6.082 -0.4437 -0.0266  1.5061
  637MOL0     H84066   8.093   6.280   6.172 -0.4363  0.4234 -3.5990
  637MOL0     H84067   7.875   6.363   6.133  0.9241 -2.9563  4.1190
  637MOL0     H84068   7.654   6.860   6.099 -0.2431 -0.4581  1.7922
  637MOL0     H84069   7.441   6.983   6.104 -1.8014 -0.2874 -4.0870
  637MOL0     H84070   5.335   6.404   6.894  1.2013  0.3852  0.4857
  637MOL0     H84071   5.134   6.499   6.794 -1.4383 -1.1299 -1.3022
  637MOL0     H84072   4.827   6.613   6.509 -0.4345 -0.3807 -1.3792
  637MOL0     H84073   4.645   6.738   6.412 -0.1968 -0.3804 -2.5772
  637MOL0     H84074   4.686   7.126   6.237  0.1668 -0.2897 -0.5999
  637MOL0     H84075   4.617   7.165   6.399  0.2062  1.7036 -1.1005
  637MOL0     H84076   4.456   7.068   6.170  0.8045 -0.7579  1.0954
  637MOL0     H84077   4.405   7.058   6.333  0.5505 -0.3003  0.7889
  637MOL0     H84078   4.504   7.311   6.198  0.4950  1.6486  1.7154
  637MOL0     H84079   4.417   7.308   6.356 -0.3536  0.4432 -0.7910
  637MOL0     H84080   4.303   7.273   6.086 -0.8547 -0.7560 -0.7132
  637MOL0     H84081   4.236   7.184   6.217  1.2992 -0.9063 -1.2435
  637MOL0     H84082   4.158   7.605   6.309  0.0977  0.3939 -0.5199
  637MOL0     H84083   4.868   7.102   6.433 -0.0742  0.5425  2.4554
  637MOL0     H84084   5.054   6.981   6.536  1.3160 -0.6005 -3.0222
  638MOL0     O84085   7.629   2.231   1.197  0.8710 -0.3317  0.1948
  638MOL0     C84086   7.687   2.337   1.154 -0.1389  0.8666 -0.5351
  638MOL0     O84087   7.625   2.450   1.121 -0.3570  0.0354 -0.3470
  638MOL0     C84088   7.488   2.463   1.107  0.1638  0.6788  0.1015
  638MOL0     C84089   7.447   2.569   1.029 -0.1602 -0.1596  0.0789
  638MOL0     C84090   7.317   2.610   1.006 -0.2346 -0.0344 -0.5776
  638MOL0     C84091   7.211   2.534   1.048  0.3839 -0.6345 -0.3534
  638MOL0     O84092   7.085   2.571   1.023 -0.3447 -0.1993 -0.4410
  638MOL0     C84093   6.982   2.516   1.108 -0.8114  0.0008 -0.3730
  638MOL0     C84094   6.848   2.583   1.081  0.3813 -0.0948 -0.3369
  638MOL0     C84095   6.740   2.525   1.175  0.0290 -0.9006  0.2064
  638MOL0     C84096   6.601   2.535   1.115 -0.2926  0.5587 -0.1510
  638MOL0     C84097   6.543   2.679   1.081 -0.0601 -0.0022 -0.0934
  638MOL0     C84098   6.524   2.770   1.208  0.2388  0.2820 -0.0856
  638MOL0     C84099   6.398   2.717   1.281 -0.5031 -1.3212  0.1366
  638MOL0     C84100   6.338   2.821   1.380 -0.2496  0.5028 -0.2796
  638MOL0     N84101   6.247   2.765   1.476 -0.1652  0.1059  0.3335
  638MOL0     C84102   6.155   2.668   1.448  0.2366  0.0358 -0.2677
  638MOL0     C84103   6.082   2.654   1.563  0.6530 -0.8959  0.7956
  638MOL0     C84104   5.963   2.563   1.583 -0.4272 -0.1519 -0.0627
  638MOL0     C84105   5.837   2.633   1.621 -0.8000 -0.2086 -0.1120
  638MOL0     C84106   5.728   2.555   1.695 -0.1844 -0.8188 -0.2589
  638MOL0     C84107   5.594   2.624   1.692 -0.4701  0.0012  0.6611
  638MOL0     O84108   5.515   2.541   1.774 -0.4335 -0.5370 -0.2173
  638MOL0     C84109   5.381   2.541   1.759 -0.1835  0.2155 -0.2870
  638MOL0     C84110   5.307   2.650   1.715 -0.2649  0.2341 -0.2489
  638MOL0     C84111   5.173   2.633   1.702  0.1002  1.3266  0.0740
  638MOL0     C84112   5.107   2.514   1.738  0.2522 -0.5429  0.4902
  638MOL0     C84113   4.963   2.496   1.718 -0.6763 -1.0250 -0.0249
  638MOL0     O84114   4.913   2.375   1.720  0.0335  0.5548  0.1541
  638MOL0     C84115   4.777   2.355   1.737  0.4604  0.4178  0.1617
  638MOL0     C84116   4.708   2.260   1.655 -0.6532  0.5576 -0.6134
  638MOL0     C84117   4.577   2.229   1.672 -0.8772 -0.3259 -0.1182
  638MOL0     C84118   4.501   2.284   1.777  0.7936  0.2939 -0.4424
  638MOL0     O84119   4.365   2.273   1.771 -0.1875  0.1722  0.0461
  638MOL0     C84120   4.333   2.177   1.872 -0.1296 -0.1867 -0.0057
  638MOL0     C84121   4.182   2.155   1.855  0.5847  0.0612 -0.1778
  638MOL0     C84122   4.131   2.060   1.967  0.2700  0.5596  0.4609
  638MOL0     C84123   3.976   2.035   1.955 -0.5620  0.6864  0.1401
  638MOL0     C84124   3.917   1.931   2.052  0.1098 -0.0973 -1.2228
  638MOL0     C84125   4.004   1.806   2.085 -0.7886 -1.0131  0.0858
  638MOL0     C84126   3.942   1.704   2.178  0.9973  0.3554  0.1756
  638MOL0     C84127   4.025   1.583   2.189 -0.1398 -0.0810 -0.2122
  638MOL0    Cl84128   3.951   1.445   2.266  0.0587 -0.2001 -0.3293
  638MOL0     C84129   4.569   2.370   1.860  0.3091 -0.2444  0.1798
  638MOL0     C84130   4.702   2.415   1.842  0.2935 -0.1830 -0.6757
  638MOL0     O84131   4.894   2.597   1.716 -0.5159  0.1255  0.0928
  638MOL0     C84132   5.178   2.404   1.782 -0.3611  0.2551  0.3416
  638MOL0     C84133   5.316   2.417   1.794 -0.4297 -0.7503  0.7675
  638MOL0     N84134   6.125   2.749   1.653  0.0457  0.2590 -0.0701
  638MOL0     N84135   6.220   2.813   1.597  0.6933  0.7861  0.3160
  638MOL0     C84136   7.249   2.418   1.118  0.2026 -0.2681  0.1536
  638MOL0     C84137   7.381   2.387   1.152  0.2522 -0.2329  0.0516
  638MOL0     C84138   7.829   2.343   1.163 -0.1479  0.6457  0.4589
  638MOL0     C84139   7.897   2.465   1.143 -0.3559  0.4092 -0.4395
  638MOL0     C84140   8.047   2.464   1.150  0.4703  0.2328 -0.3246
  638MOL0     C84141   8.123   2.344   1.166  0.1649 -0.4556  0.3050
  638MOL0     O84142   8.253   2.341   1.171  0.5938 -0.0138 -0.6049
  638MOL0     C84143   8.319   2.220   1.212  1.0147 -0.4983 -0.4014
  638MOL0     C84144   8.470   2.232   1.215 -0.5777 -0.3797  0.5943
  638MOL0     C84145   8.513   2.342   1.323 -0.4468  0.0688  0.5817
  638MOL0     C84146   8.572   2.470   1.257  0.7466 -0.4160  0.2372
  638MOL0     C84147   8.700   2.434   1.197 -1.1306  0.3887  0.2451
  638MOL0     C84148   8.800   2.391   1.132  0.3415  1.4553 -0.6036
  638MOL0     C84149   8.041   2.226   1.181 -0.1557  0.0082 -1.0934
  638MOL0     C84150   7.901   2.222   1.179 -0.4672 -0.4645 -0.3824
  638MOL0     H84151   7.524   2.636   0.992 -1.4915  1.2472 -0.2628
  638MOL0     H84152   7.312   2.708   0.959  4.5074  0.8161  0.1437
  638MOL0     H84153   7.003   2.536   1.213  1.4336 -1.8286 -0.3877
  638MOL0     H84154   6.974   2.409   1.086  0.9588  0.1343 -2.0022
  638MOL0     H84155   6.824   2.564   0.976 -3.5870 -1.0804  0.6129
  638MOL0     H84156   6.856   2.692   1.095  0.2186 -0.0551 -0.5544
  638MOL0     H84157   6.746   2.583   1.268 -0.1427  1.6041 -1.2505
  638MOL0     H84158   6.762   2.420   1.193  2.0152 -0.5516 -0.0595
  638MOL0     H84159   6.613   2.483   1.020 -2.0725  2.0131 -1.2718
  638MOL0     H84160   6.531   2.471   1.170 -1.6192 -1.0072 -3.3858
  638MOL0     H84161   6.457   2.685   1.015 -0.4012 -1.5805  0.1561
  638MOL0     H84162   6.627   2.716   1.021 -1.6783  0.4386 -2.1893
  638MOL0     H84163   6.504   2.870   1.170 -1.4459 -0.4391 -1.1690
  638MOL0     H84164   6.607   2.777   1.279  0.4474  1.8473 -0.4454
  638MOL0     H84165   6.324   2.693   1.204  1.0984 -1.4587 -1.4200
  638MOL0     H84166   6.425   2.626   1.337  0.5545 -0.0240  1.8467
  638MOL0     H84167   6.277   2.882   1.313  1.9587  2.3903 -0.7119
  638MOL0     H84168   6.409   2.882   1.437  1.7035 -1.7738 -0.1401
  638MOL0     H84169   6.142   2.625   1.349 -1.6953  1.0583 -0.5068
  638MOL0     H84170   5.992   2.503   1.669 -1.4937 -0.9942 -0.2795
  638MOL0     H84171   5.944   2.508   1.490 -1.0305 -2.4878  1.3564
  638MOL0     H84172   5.802   2.673   1.526  2.3952  2.4630 -0.3350
  638MOL0     H84173   5.872   2.720   1.677  1.9798 -0.5076 -1.2438
  638MOL0     H84174   5.734   2.455   1.651  1.0206 -2.1848  2.7295
  638MOL0     H84175   5.759   2.551   1.800  0.9077  0.8622 -0.4611
  638MOL0     H84176   5.559   2.641   1.590  2.2686  2.7910  0.0414
  638MOL0     H84177   5.616   2.724   1.732  0.7453 -0.2099  0.5388
  638MOL0     H84178   5.356   2.745   1.694 -1.3596  1.0974  0.9535
  638MOL0     H84179   5.113   2.718   1.672 -0.6429  0.1659 -1.8759
  638MOL0     H84180   4.778   2.207   1.591  0.8903 -0.0594  1.4680
  638MOL0     H84181   4.532   2.162   1.600  2.0500 -1.2776 -1.1939
  638MOL0     H84182   4.371   2.204   1.971 -0.0840 -1.0813  0.2278
  638MOL0     H84183   4.378   2.080   1.850 -1.7104 -0.7829 -0.8030
  638MOL0     H84184   4.153   2.115   1.757  0.5395  1.7142 -0.8644
  638MOL0     H84185   4.137   2.253   1.867  1.3476  0.4995 -0.8306
  638MOL0     H84186   4.145   2.105   2.066 -2.8398 -0.0758  1.2843
  638MOL0     H84187   4.187   1.966   1.963  2.3866  1.5884  2.6535
  638MOL0     H84188   3.917   2.126   1.963 -1.0713  0.6640 -2.4440
  638MOL0     H84189   3.955   2.006   1.852 -0.4804  0.1703  0.2668
  638MOL0     H84190   3.813   1.910   2.023  0.3861 -3.7287 -0.0350
  638MOL0     H84191   3.903   1.983   2.147 -1.5619 -0.4545 -1.2355
  638MOL0     H84192   4.088   1.855   2.134 -2.2387  1.8712 -0.0939
  638MOL0     H84193   4.037   1.757   1.994  1.6912 -0.3551  0.5570
  638MOL0     H84194   3.935   1.734   2.283 -0.1310 -0.5622  0.3820
  638MOL0     H84195   3.839   1.692   2.141  0.0173  4.2610  1.1279
  638MOL0     H84196   4.114   1.610   2.246 -0.4226 -0.9460  0.6708
  638MOL0     H84197   4.063   1.554   2.091  2.1803  1.0055  0.2949
  638MOL0     H84198   4.510   2.418   1.939  1.4349  1.5559 -0.0130
  638MOL0     H84199   4.747   2.496   1.899 -1.9837  2.2075 -2.0298
  638MOL0     H84200   5.145   2.304   1.809  0.4676  0.3738  1.9104
  638MOL0     H84201   5.376   2.328   1.807  1.5687 -0.3704 -3.8721
  638MOL0     H84202   7.177   2.348   1.160 -0.6976 -0.6624 -1.9653
  638MOL0     H84203   7.404   2.306   1.220  1.4021 -0.5275 -0.6639
  638MOL0     H84204   7.845   2.560   1.135  0.4178  0.7753 -1.3474
  638MOL0     H84205   8.107   2.554   1.146  0.5423  0.2527  1.0106
  638MOL0     H84206   8.293   2.137   1.145 -1.1173 -0.4124  0.2168
  638MOL0     H84207   8.290   2.181   1.310  1.1437 -0.1181 -0.2120
  638MOL0     H84208   8.503   2.132   1.244 -2.1814 -0.7942  1.1247
  638MOL0     H84209   8.494   2.256   1.111 -2.4122  1.0718  0.4461
  638MOL0     H84210   8.586   2.302   1.394 -1.6639 -0.5550  1.5362
  638MOL0     H84211   8.426   2.378   1.379  0.3374 -0.0247  1.9069
  638MOL0     H84212   8.503   2.511   1.182  2.1946 -0.8634 -1.4071
  638MOL0     H84213   8.579   2.553   1.328  0.2096 -0.8064  0.7488
  638MOL0     H84214   8.897   2.370   1.091  0.7803  0.7644  0.7106
  638MOL0     H84215   8.097   2.139   1.213  0.6306  0.8594 -0.0668
  638MOL0     H84216   7.839   2.139   1.210 -0.5823  0.8870  3.6309
  639MOL0     O84217   3.291   3.869   1.505  0.3896  0.3357  0.3140
  639MOL0     C84218   3.185   3.926   1.466 -0.1973  0.2424 -0.2935
  639MOL0     O84219   3.173   4.046   1.391  0.2515 -0.1674 -0.3631
  639MOL0     C84220   3.293   4.108   1.360  0.1712  0.8232 -0.1753
  639MOL0     C84221   3.412   4.047   1.326 -0.5233 -1.0850  0.6127
  639MOL0     C84222   3.519   4.128   1.286  0.4372 -0.1321 -0.2759
  639MOL0     C84223   3.509   4.268   1.287 -0.2330 -0.0635  0.2820
  639MOL0     O84224   3.618   4.335   1.245  0.2315 -0.1586  0.4077
  639MOL0     C84225   3.611   4.465   1.191  0.7522  0.6371  0.2542
  639MOL0     C84226   3.759   4.503   1.159 -0.6625 -0.8600 -0.3261
  639MOL0     C84227   3.763   4.644   1.093 -0.4453  0.5816  1.1960
  639MOL0     C84228   3.890   4.674   1.010 -0.3595 -0.7828 -0.2595
  639MOL0     C84229   3.908   4.809   0.949 -0.4224 -0.9333 -0.6382
  639MOL0     C84230   3.916   4.927   1.044 -0.6447 -0.4098  0.7118
  639MOL0     C84231   4.055   4.936   1.120  0.5770  0.0018 -0.4123
  639MOL0     C84232   4.039   5.013   1.252 -0.8786  0.5150 -0.6276
  639MOL0     N84233   4.009   4.923   1.366 -0.6778 -0.4395  0.6053
  639MOL0     C84234   3.969   4.791   1.369 -0.2927  0.5862  0.0087
  639MOL0     C84235   3.935   4.772   1.503  0.3815 -0.1230  0.2113
  639MOL0     C84236   3.873   4.654   1.569  0.9221  0.5104  0.4116
  639MOL0     C84237   3.723   4.681   1.588  0.9239  1.1486  0.0405
  639MOL0     C84238   3.662   4.539   1.605  0.0159 -0.3186  0.2153
  639MOL0     C84239   3.512   4.548   1.637 -0.5150 -0.1160  0.8332
  639MOL0     O84240   3.451   4.606   1.525  0.5721 -0.5558 -0.3774
  639MOL0     C84241   3.314   4.627   1.539  0.4239  0.2681  0.3052
  639MOL0     C84242   3.229   4.580   1.643 -0.3557 -0.3455  0.6506
  639MOL0     C84243   3.087   4.602   1.642  0.0223 -0.3610 -0.2702
  639MOL0     C84244   3.025   4.691   1.550  0.3837  0.3063 -0.0720
  639MOL0     C84245   2.880   4.728   1.560 -0.3653  0.2367  0.0836
  639MOL0     O84246   2.811   4.672   1.664  0.4832 -0.1230  0.1456
  639MOL0     C84247   2.676   4.662   1.648  0.0498 -0.7449 -0.2183
  639MOL0     C84248   2.593   4.738   1.729  0.0638  0.1987 -0.7955
  639MOL0     C84249   2.456   4.722   1.732 -0.0460  0.2351 -0.7343
  639MOL0     C84250   2.394   4.634   1.650  0.1496  0.0582  0.2124
  639MOL0     O84251   2.259   4.625   1.658  0.7327  0.0987  0.5449
  639MOL0     C84252   2.176   4.544   1.561  0.0278 -0.0335  0.1705
  639MOL0     C84253   2.186   4.392   1.605  0.2247  0.4564  0.4442
  639MOL0     C84254   2.046   4.327   1.595  0.1196  0.6187  0.2863
  639MOL0     C84255   2.044   4.171   1.632  0.3274 -0.7058  0.3245
  639MOL0     C84256   1.904   4.128   1.646 -0.0671 -0.5423 -0.2744
  639MOL0     C84257   1.902   3.986   1.695 -0.1908  0.3492  0.5118
  639MOL0     C84258   1.770   3.916   1.665 -0.5285  0.0653  0.2966
  639MOL0     C84259   1.775   3.771   1.713 -0.2886 -0.2511  0.6299
  639MOL0    Cl84260   1.720   3.787   1.879  0.2469  0.0290 -0.5965
  639MOL0     C84261   2.465   4.567   1.552  0.3011 -0.2123 -0.0381
  639MOL0     C84262   2.606   4.574   1.559 -0.6062 -0.2405  0.4953
  639MOL0     O84263   2.831   4.789   1.464 -0.3452 -0.4996 -0.1146
  639MOL0     C84264   3.112   4.743   1.454  0.4522  0.4478  0.5682
  639MOL0     C84265   3.246   4.714   1.442 -0.6919 -0.4627  0.1291
  639MOL0     N84266   3.962   4.884   1.570  0.1738  0.9268  0.1281
  639MOL0     N84267   4.009   4.971   1.490  0.8627  0.1999  0.1735
  639MOL0     C84268   3.393   4.329   1.328 -0.5250 -0.3572  0.7695
  639MOL0     C84269   3.285   4.249   1.364  0.2200 -0.2373 -0.4492
  639MOL0     C84270   3.059   3.873   1.518 -0.3716 -0.2030  0.2241
  639MOL0     C84271   3.062   3.763   1.603  0.0350  0.3649 -0.0931
  639MOL0     C84272   2.950   3.717   1.673  0.8733 -0.1178 -0.0518
  639MOL0     C84273   2.826   3.783   1.658  0.0539 -0.5516  0.5496
  639MOL0     O84274   2.707   3.741   1.721 -0.3593 -0.1698  0.2356
  639MOL0     C84275   2.716   3.682   1.851  0.0049 -0.7457  0.3263
  639MOL0     C84276   2.662   3.785   1.941 -0.2029 -0.7277 -0.6937
  639MOL0     C84277   2.631   3.727   2.079 -0.3279 -0.2797  1.1618
  639MOL0     C84278   2.577   3.834   2.171 -0.3559 -0.3823 -0.6219
  639MOL0     C84279   2.549   3.759   2.293  1.0985  0.7302 -0.6403
  639MOL0     C84280   2.535   3.697   2.404  1.4129  0.1353  0.6532
  639MOL0     C84281   2.828   3.888   1.560  0.6584  0.0422  1.4806
  639MOL0     C84282   2.938   3.930   1.491  0.2580 -0.0387  0.9244
  639MOL0     H84283   3.425   3.940   1.311 -2.0745 -1.0439 -1.2340
  639MOL0     H84284   3.610   4.081   1.249  0.0787  0.2055 -1.6197
  639MOL0     H84285   3.571   4.545   1.254  0.7474 -0.3406  1.5267
  639MOL0     H84286   3.545   4.463   1.103  1.3717 -2.7641 -0.2451
  639MOL0     H84287   3.803   4.432   1.089  0.9626 -0.4526  0.2481
  639MOL0     H84288   3.828   4.507   1.244 -2.3707  0.8936  1.0734
  639MOL0     H84289   3.738   4.727   1.160  0.9281  1.0825  1.1219
  639MOL0     H84290   3.683   4.645   1.019 -0.6211  3.3951  1.3202
  639MOL0     H84291   3.972   4.666   1.082 -0.9574 -0.0424  0.5317
  639MOL0     H84292   3.900   4.591   0.939  2.6380 -0.0109 -0.8837
  639MOL0     H84293   3.830   4.819   0.873 -0.7099  0.5961 -0.1665
  639MOL0     H84294   4.004   4.805   0.896  0.4689 -0.5255  0.8828
  639MOL0     H84295   3.834   4.917   1.116 -3.5071 -1.7952 -2.4664
  639MOL0     H84296   3.895   5.013   0.979 -0.5625 -0.5327  0.5230
  639MOL0     H84297   4.105   4.843   1.148 -0.1438  0.1080  1.3725
  639MOL0     H84298   4.119   4.990   1.049 -1.3569  1.3447 -1.2116
  639MOL0     H84299   3.971   5.099   1.242 -0.5440  0.7026 -1.3710
  639MOL0     H84300   4.133   5.057   1.287 -1.0355  0.3423  0.0089
  639MOL0     H84301   3.957   4.723   1.285  0.1647  0.8134 -0.2425
  639MOL0     H84302   3.914   4.631   1.667 -0.3821 -0.8390  0.6902
  639MOL0     H84303   3.884   4.564   1.507  0.3198  1.2501 -0.8269
  639MOL0     H84304   3.673   4.737   1.508 -1.5482  0.2946  0.8893
  639MOL0     H84305   3.718   4.742   1.678  3.3149  0.7280  0.5057
  639MOL0     H84306   3.668   4.472   1.519  0.2099 -2.3790  1.7519
  639MOL0     H84307   3.703   4.484   1.690 -1.0285  1.6821  2.1155
  639MOL0     H84308   3.497   4.611   1.725  2.0144  0.2425  1.0737
  639MOL0     H84309   3.476   4.446   1.658 -0.5933  0.0798  1.6975
  639MOL0     H84310   3.269   4.528   1.729 -0.1935 -1.6663 -0.2082
  639MOL0     H84311   3.033   4.572   1.730  2.0708  1.3183  1.6785
  639MOL0     H84312   2.638   4.807   1.799  1.1113 -0.8365 -0.4002
  639MOL0     H84313   2.393   4.771   1.805 -2.3678 -1.8752 -1.1945
  639MOL0     H84314   2.203   4.557   1.456 -2.4716  1.7071 -0.3400
  639MOL0     H84315   2.077   4.589   1.561  1.7257  4.1866  0.5440
  639MOL0     H84316   2.229   4.386   1.705  1.2241 -1.5998 -0.0520
  639MOL0     H84317   2.266   4.342   1.548  0.8453  1.3187  0.5446
  639MOL0     H84318   2.004   4.335   1.494 -2.2946 -1.4060  1.0376
  639MOL0     H84319   1.978   4.377   1.664 -0.3956  0.2957  0.0204
  639MOL0     H84320   2.096   4.117   1.552 -0.3505 -1.1138  0.1488
  639MOL0     H84321   2.090   4.157   1.730  0.6741 -0.9330  0.1289
  639MOL0     H84322   1.864   4.141   1.545  0.9144  0.3573 -0.5580
  639MOL0     H84323   1.846   4.184   1.720 -0.2514  0.2284 -0.9907
  639MOL0     H84324   1.929   3.998   1.801  0.6771 -1.9112  0.6045
  639MOL0     H84325   1.965   3.920   1.635 -1.3002 -1.1247  0.8991
  639MOL0     H84326   1.685   3.973   1.703  0.8369  1.7822  0.9020
  639MOL0     H84327   1.750   3.923   1.558  1.6662  2.7881 -0.0686
  639MOL0     H84328   1.875   3.726   1.716 -0.0449  0.0174 -1.4745
  639MOL0     H84329   1.699   3.714   1.659 -1.2429  2.1927 -0.7805
  639MOL0     H84330   2.426   4.504   1.472  3.8807 -2.0110 -0.5787
  639MOL0     H84331   2.669   4.517   1.491 -0.9924  1.2759 -1.1887
  639MOL0     H84332   3.067   4.807   1.379 -0.8566 -0.7928  0.2463
  639MOL0     H84333   3.310   4.750   1.361  1.2066 -0.5357  1.5168
  639MOL0     H84334   3.373   4.435   1.323  1.3770  0.0024  0.2667
  639MOL0     H84335   3.194   4.297   1.397 -0.6341 -0.5202 -2.3146
  639MOL0     H84336   3.150   3.700   1.609 -0.3614 -0.0530  3.0541
  639MOL0     H84337   2.968   3.628   1.732  1.2599  0.1685  0.2644
  639MOL0     H84338   2.815   3.644   1.874  0.6396  1.1057  0.8631
  639MOL0     H84339   2.642   3.602   1.852 -0.8253  0.0002  0.3097
  639MOL0     H84340   2.743   3.858   1.948 -1.0700  0.0876  1.4591
  639MOL0     H84341   2.581   3.844   1.898  0.1035 -0.0701 -0.3711
  639MOL0     H84342   2.715   3.673   2.124 -1.6031 -2.2533  1.3066
  639MOL0     H84343   2.549   3.658   2.055 -1.7976  1.0494  2.2053
  639MOL0     H84344   2.651   3.909   2.198 -0.6690 -0.5277  0.7640
  639MOL0     H84345   2.491   3.883   2.126  0.4727 -0.2550 -2.1271
  639MOL0     H84346   2.523   3.643   2.496 -2.2504 -0.6038 -0.1041
  639MOL0     H84347   2.729   3.926   1.540  0.1733 -0.3429  2.9964
  639MOL0     H84348   2.937   4.014   1.422 -0.0005  0.9894  2.1457
  640MOL0     O84349   4.810   6.252   0.645  0.2665 -0.7395 -0.3898
  640MOL0     C84350   4.860   6.245   0.757  0.9228  0.5600  0.4024
  640MOL0     O84351   4.869   6.352   0.848  0.4136  1.0043 -0.1888
  640MOL0     C84352   4.819   6.474   0.796  0.7891  0.4779  0.0424
  640MOL0     C84353   4.686   6.487   0.762 -0.0483  0.9931  0.1182
  640MOL0     C84354   4.634   6.610   0.736  0.7685  0.5189  0.4002
  640MOL0     C84355   4.717   6.720   0.722 -0.3497  0.2809  0.0184
  640MOL0     O84356   4.657   6.841   0.707  0.5030 -0.0664  0.3534
  640MOL0     C84357   4.702   6.918   0.586 -0.9836  0.5222  1.0131
  640MOL0     C84358   4.575   6.971   0.518  0.1501  0.0134 -0.8674
  640MOL0     C84359   4.614   7.049   0.389  0.7875  0.5636 -0.3683
  640MOL0     C84360   4.489   7.110   0.309 -0.2923  0.3495 -0.3269
  640MOL0     C84361   4.433   7.226   0.385 -0.0341 -0.5398  0.0692
  640MOL0     C84362   4.365   7.318   0.276 -0.2513  1.2336 -1.1504
  640MOL0     C84363   4.289   7.441   0.341 -0.5894 -0.1057  1.0718
  640MOL0     C84364   4.216   7.521   0.236 -0.6741 -0.5573  0.4561
  640MOL0     N84365   4.145   7.638   0.281 -0.3159 -0.5653  0.4970
  640MOL0     C84366   4.209   7.752   0.308 -0.5017 -0.7905  0.2634
  640MOL0     C84367   4.115   7.830   0.361  0.0144  0.1443 -0.0843
  640MOL0     C84368   4.149   7.971   0.433  0.5553  0.1286  0.5188
  640MOL0     C84369   4.030   8.055   0.478  0.3484 -0.8084 -0.3850
  640MOL0     C84370   3.956   8.123   0.365 -0.6220 -0.0434  0.5199
  640MOL0     C84371   3.844   8.205   0.413  0.1025  0.7041 -0.4522
  640MOL0     O84372   3.749   8.131   0.493 -0.3658  0.1808  0.1232
  640MOL0     C84373   3.632   8.180   0.539  1.0160  0.2133  0.3336
  640MOL0     C84374   3.542   8.091   0.602 -0.0500  0.1657 -0.8382
  640MOL0     C84375   3.420   8.135   0.648 -0.1817 -0.1741  0.0059
  640MOL0     C84376   3.388   8.270   0.638 -0.9787  0.9988 -0.2060
  640MOL0     C84377   3.263   8.321   0.701  0.1591  0.4457 -0.2401
  640MOL0     O84378   3.240   8.463   0.720 -0.6473  0.8788  0.2385
  640MOL0     C84379   3.121   8.508   0.769 -0.7663 -1.0724  0.3449
  640MOL0     C84380   3.004   8.440   0.803  0.4773 -0.2691 -0.0381
  640MOL0     C84381   2.886   8.506   0.834  1.2158 -0.0945 -0.4225
  640MOL0     C84382   2.887   8.640   0.848  1.5556 -0.5863  0.6677
  640MOL0     O84383   2.773   8.717   0.866  0.2793  0.1886 -0.6420
  640MOL0     C84384   2.663   8.661   0.945  0.3239  0.5323 -0.4789
  640MOL0     C84385   2.559   8.757   0.979  0.9763 -0.2352 -0.5869
  640MOL0     C84386   2.448   8.690   1.072  0.1537  0.2817  0.1860
  640MOL0     C84387   2.360   8.804   1.126  0.3032 -0.2131  0.4289
  640MOL0     C84388   2.296   8.769   1.266  0.1318 -0.2763  0.7036
  640MOL0     C84389   2.255   8.894   1.346  0.6325  0.0129 -0.2892
  640MOL0     C84390   2.165   8.857   1.466 -0.4261 -0.1624  0.4194
  640MOL0     C84391   2.126   8.978   1.547 -0.3171 -0.2446  0.3137
  640MOL0    Cl84392   2.267   9.034   1.638 -0.5008 -0.1280  0.1629
  640MOL0     C84393   3.005   8.709   0.820  0.4643 -0.0802  0.2106
  640MOL0     C84394   3.120   8.646   0.780  1.0919 -0.3445 -0.4984
  640MOL0     O84395   3.193   8.231   0.738 -0.7550 -0.1308 -0.2300
  640MOL0     C84396   3.473   8.354   0.568  0.0239  0.3393  0.1504
  640MOL0     C84397   3.590   8.311   0.520 -0.0067  0.5936  0.6184
  640MOL0     N84398   3.995   7.766   0.360 -0.3559 -0.4897  1.0436
  640MOL0     N84399   4.008   7.659   0.297 -0.4949  0.1135  1.0052
  640MOL0     C84400   4.856   6.710   0.743  0.1310  0.1304  0.7190
  640MOL0     C84401   4.899   6.585   0.783 -0.8100  1.0203  0.2703
  640MOL0     C84402   4.928   6.123   0.795 -0.1619  0.2470 -0.1462
  640MOL0     C84403   4.903   6.007   0.724 -0.1009  1.5358 -0.0702
  640MOL0     C84404   4.991   5.895   0.736  0.2916  0.1666 -0.0037
  640MOL0     C84405   5.096   5.894   0.827 -0.7708 -0.5283  0.3781
  640MOL0     O84406   5.192   5.802   0.830 -0.4023 -0.4476 -0.2648
  640MOL0     C84407   5.201   5.708   0.727 -0.4439  0.4453 -0.2206
  640MOL0     C84408   5.316   5.612   0.746 -0.0184  0.3325 -0.0983
  640MOL0     C84409   5.289   5.501   0.860 -0.2345 -0.0298 -0.4017
  640MOL0     C84410   5.411   5.418   0.873 -0.6537  0.4837 -0.0885
  640MOL0     C84411   5.418   5.343   1.001  0.0604 -0.1128 -0.8680
  640MOL0     C84412   5.444   5.283   1.108 -0.2390 -0.2647  0.1173
  640MOL0     C84413   5.108   6.013   0.898 -0.7705  0.3814 -1.0600
  640MOL0     C84414   5.039   6.125   0.885  0.6215  0.1789  0.1108
  640MOL0     H84415   4.634   6.392   0.757  0.5061  0.7360 -1.6664
  640MOL0     H84416   4.527   6.615   0.716  1.3237  0.6344 -3.2258
  640MOL0     H84417   4.758   6.852   0.519  0.5542  3.1173 -0.4286
  640MOL0     H84418   4.763   7.006   0.605 -1.8222  1.0898  1.1498
  640MOL0     H84419   4.517   7.034   0.586 -1.7601 -2.1256 -0.3671
  640MOL0     H84420   4.506   6.892   0.488  1.1688 -0.1378 -2.9570
  640MOL0     H84421   4.670   6.981   0.324  3.2796  0.6643  1.5393
  640MOL0     H84422   4.689   7.126   0.407 -0.8984  2.0197  0.7967
  640MOL0     H84423   4.532   7.142   0.214  1.1462 -0.7297 -0.0770
  640MOL0     H84424   4.416   7.029   0.297  0.8899 -0.8739  0.4338
  640MOL0     H84425   4.507   7.290   0.435  0.6324  1.2680 -2.9211
  640MOL0     H84426   4.363   7.196   0.463  1.7152 -0.9600  1.5554
  640MOL0     H84427   4.286   7.263   0.224 -2.5486  1.5639  1.7266
  640MOL0     H84428   4.443   7.353   0.208  1.3141  2.9283  1.3503
  640MOL0     H84429   4.212   7.413   0.413  1.8794 -0.4935  3.7585
  640MOL0     H84430   4.354   7.510   0.395  0.2343  0.2072 -0.2816
  640MOL0     H84431   4.149   7.458   0.177 -3.2812  1.7100  0.7683
  640MOL0     H84432   4.291   7.556   0.165 -1.8567 -1.2518 -1.1925
  640MOL0     H84433   4.313   7.779   0.294 -1.3516  2.3265 -1.0114
  640MOL0     H84434   4.220   8.027   0.372  0.8918 -1.7974 -0.9621
  640MOL0     H84435   4.208   7.955   0.524  1.2528  3.6243  0.8503
  640MOL0     H84436   4.063   8.121   0.558  3.6077 -3.7352  0.9218
  640MOL0     H84437   3.957   7.983   0.517  3.3528 -4.0779 -0.2851
  640MOL0     H84438   4.026   8.184   0.308 -1.3559  3.0208  2.6296
  640MOL0     H84439   3.906   8.045   0.306 -1.5725 -1.1387  2.6835
  640MOL0     H84440   3.788   8.251   0.331 -1.0724  1.6571  0.8332
  640MOL0     H84441   3.881   8.289   0.472  0.2883 -0.8414  1.7572
  640MOL0     H84442   3.563   7.985   0.609 -2.4414 -0.4959 -2.4412
  640MOL0     H84443   3.364   8.058   0.698  0.6099 -1.0461 -0.4180
  640MOL0     H84444   2.990   8.335   0.777 -1.2564 -0.2458  0.6519
  640MOL0     H84445   2.803   8.437   0.843  1.2635 -0.3117 -1.5275
  640MOL0     H84446   2.704   8.631   1.042  1.6704  2.6415 -0.3260
  640MOL0     H84447   2.615   8.581   0.889 -0.2929  0.0602  0.6964
  640MOL0     H84448   2.515   8.805   0.891 -1.7939 -0.3134  0.6567
  640MOL0     H84449   2.615   8.831   1.037  2.6636 -1.8287 -0.0894
  640MOL0     H84450   2.496   8.635   1.153 -1.4774 -1.7308 -0.1477
  640MOL0     H84451   2.384   8.627   1.010  3.6636  0.7937 -4.4415
  640MOL0     H84452   2.413   8.900   1.131 -1.6652  1.3035 -3.4579
  640MOL0     H84453   2.277   8.810   1.055 -1.1733 -0.9289  2.0057
  640MOL0     H84454   2.373   8.718   1.324 -0.3917 -2.0422 -0.1013
  640MOL0     H84455   2.229   8.686   1.242  1.9712 -1.1794 -1.8149
  640MOL0     H84456   2.203   8.955   1.271  0.0182  0.3660  0.4052
  640MOL0     H84457   2.337   8.959   1.378 -0.3142  2.1989 -2.0130
  640MOL0     H84458   2.083   8.803   1.418  1.6805 -1.7634 -1.6169
  640MOL0     H84459   2.214   8.789   1.537 -1.1125  0.5655  1.6155
  640MOL0     H84460   2.037   8.960   1.609 -0.5740  2.0963  0.7389
  640MOL0     H84461   2.102   9.061   1.480  1.2200  1.4596  1.7704
  640MOL0     H84462   2.998   8.817   0.828  3.7265  0.4080 -1.8346
  640MOL0     H84463   3.208   8.710   0.780 -0.3093  1.7248  1.5427
  640MOL0     H84464   3.464   8.461   0.551  0.5601  0.2804 -0.5217
  640MOL0     H84465   3.648   8.378   0.458 -2.7374 -0.0792 -2.9784
  640MOL0     H84466   4.923   6.795   0.745 -0.3315  0.5724 -0.8093
  640MOL0     H84467   5.004   6.576   0.807  0.0968  1.3781 -3.0674
  640MOL0     H84468   4.834   6.002   0.641 -0.1635 -0.8347  0.0653
  640MOL0     H84469   4.970   5.806   0.678  2.2699  1.1339 -2.3738
  640MOL0     H84470   5.210   5.763   0.633 -1.5759 -2.7514 -2.3631
  640MOL0     H84471   5.106   5.654   0.720 -0.5586  0.7490 -1.0494
  640MOL0     H84472   5.339   5.557   0.655  0.0734  0.7927 -0.3563
  640MOL0     H84473   5.403   5.675   0.765 -0.6914  2.1188 -2.4059
  640MOL0     H84474   5.205   5.441   0.824  0.9093 -1.4621 -0.7558
  640MOL0     H84475   5.252   5.545   0.953 -0.4988  1.6881 -1.2788
  640MOL0     H84476   5.408   5.348   0.789 -0.7198 -2.8556  2.4667
  640MOL0     H84477   5.506   5.471   0.864 -0.5922  0.5208  0.7013
  640MOL0     H84478   5.467   5.232   1.200  1.4768 -0.9494 -0.6469
  640MOL0     H84479   5.193   6.031   0.963 -0.8803 -1.5586 -0.3206
  640MOL0     H84480   5.076   6.209   0.943 -0.1988 -0.0271  0.9606
  641MOL0     O84481   6.152  11.156   7.707 -0.4071 -0.6735 -0.9889
  641MOL0     C84482   6.208  11.053   7.717 -0.0650  0.5889 -0.6534
  641MOL0     O84483   6.163  10.930   7.668 -0.6129 -0.5366  0.1758
  641MOL0     C84484   6.046  10.931   7.605 -0.3496 -0.3612 -0.4690
  641MOL0     C84485   5.927  10.974   7.676 -0.0102  0.1719  1.1504
  641MOL0     C84486   5.798  10.958   7.610  0.6819  0.3694 -0.8815
  641MOL0     C84487   5.783  10.899   7.485 -0.0480  0.4021  0.5748
  641MOL0     O84488   5.664  10.862   7.423  0.5244  0.4239  0.6911
  641MOL0     C84489   5.534  10.872   7.493 -0.1762  0.1943  0.6843
  641MOL0     C84490   5.514  10.765   7.594  0.5889 -0.0392  0.0451
  641MOL0     C84491   5.505  10.627   7.537 -0.4588  1.0828  0.6549
  641MOL0     C84492   5.463  10.518   7.633 -0.2772 -0.0748 -1.2167
  641MOL0     C84493   5.430  10.397   7.547  0.0133 -0.2553  0.5546
  641MOL0     C84494   5.402  10.265   7.621  0.9206  0.4698 -0.3083
  641MOL0     C84495   5.264  10.248   7.685 -0.1626 -0.2377 -0.1605
  641MOL0     C84496   5.228  10.107   7.729  1.2245  0.9584  0.7095
  641MOL0     N84497   5.104  10.110   7.813  0.3951 -0.3246  0.2852
  641MOL0     C84498   5.091  10.174   7.930 -0.0623  0.3337  0.8310
  641MOL0     C84499   4.958  10.179   7.949 -0.3928  0.3074  0.1625
  641MOL0     C84500   4.874  10.236   8.070  0.0012  0.4683  0.7277
  641MOL0     C84501   4.806  10.111   8.129  0.0006  0.3315  0.1378
  641MOL0     C84502   4.711  10.138   8.244 -0.3402  0.6733 -0.5428
  641MOL0     C84503   4.622  10.257   8.233  0.3920 -0.7900  0.7671
  641MOL0     O84504   4.530  10.249   8.121  0.9005  0.6397 -0.0837
  641MOL0     C84505   4.396  10.256   8.159 -0.0836  0.3190  0.4643
  641MOL0     C84506   4.346  10.166   8.246 -0.0290  0.2197 -0.1795
  641MOL0     C84507   4.211  10.170   8.287  0.6259  0.2658 -0.6556
  641MOL0     C84508   4.113  10.260   8.231  0.5410  0.9307  0.3101
  641MOL0     C84509   3.971  10.252   8.258 -0.0979  0.3867 -0.1759
  641MOL0     O84510   3.876  10.317   8.181  0.3941  0.0766 -0.6689
  641MOL0     C84511   3.744  10.284   8.199  0.2572 -0.2035  0.2893
  641MOL0     C84512   3.707  10.143   8.206  0.4441 -0.1093 -0.7897
  641MOL0     C84513   3.581  10.112   8.252 -0.1405  0.3663  0.6185
  641MOL0     C84514   3.487  10.212   8.277  1.0524  0.0737  0.0142
  641MOL0     O84515   3.363  10.173   8.324 -0.4887 -0.7846  0.4993
  641MOL0     C84516   3.256  10.249   8.274 -0.7125 -0.3567 -0.1048
  641MOL0     C84517   3.131  10.200   8.343  0.0721 -0.1693 -0.3044
  641MOL0     C84518   3.012  10.288   8.300 -0.4446  0.4324  0.7314
  641MOL0     C84519   2.886  10.234   8.359  0.6621 -0.4295  0.4390
  641MOL0     C84520   2.754  10.251   8.275  0.4723  0.1017  0.0929
  641MOL0     C84521   2.637  10.255   8.372  0.4606  0.6717  0.0035
  641MOL0     C84522   2.498  10.226   8.298 -0.5791  0.3502 -0.2377
  641MOL0     C84523   2.395  10.167   8.398 -0.7825 -0.2288  0.8409
  641MOL0    Cl84524   2.345  10.287   8.521  0.0002  0.3256  0.0867
  641MOL0     C84525   3.527  10.346   8.277 -0.0416  0.0632  0.1707
  641MOL0     C84526   3.647  10.383   8.225 -0.4221  0.2665  0.5252
  641MOL0     O84527   3.936  10.189   8.358 -0.1182  0.3098  0.7783
  641MOL0     C84528   4.172  10.349   8.138 -0.0009 -0.2855 -0.4796
  641MOL0     C84529   4.310  10.345   8.100 -0.5969  0.7028 -0.0925
  641MOL0     N84530   4.895  10.117   7.842 -0.3509  0.3884 -0.5013
  641MOL0     N84531   4.987  10.072   7.768 -0.2149  0.6973  0.0122
  641MOL0     C84532   5.897  10.843   7.427 -0.3003  0.2345  0.3746
  641MOL0     C84533   6.028  10.859   7.488  0.8085  0.2258 -0.0044
  641MOL0     C84534   6.328  11.042   7.808 -0.3331 -0.7807  0.0806
  641MOL0     C84535   6.406  10.926   7.835  0.4063  1.1451  0.0949
  641MOL0     C84536   6.513  10.934   7.912 -0.6549 -0.1611  0.2940
  641MOL0     C84537   6.560  11.051   7.966 -0.7532 -0.1642 -0.3927
  641MOL0     O84538   6.669  11.068   8.044 -0.5442 -0.5793 -0.6723
  641MOL0     C84539   6.776  10.973   8.045  0.0266 -0.1485  0.2025
  641MOL0     C84540   6.903  11.012   8.118  0.0398 -0.4021 -0.8159
  641MOL0     C84541   7.015  10.906   8.118 -0.0712  0.2806 -0.3985
  641MOL0     C84542   7.139  10.953   8.187 -0.5840  0.8338 -0.7463
  641MOL0     C84543   7.247  10.853   8.195 -0.1315 -0.2111 -0.5654
  641MOL0     C84544   7.329  10.761   8.197  0.3262 -1.2762 -0.5166
  641MOL0     C84545   6.490  11.167   7.935 -0.2532  0.5504 -0.3746
  641MOL0     C84546   6.375  11.165   7.861  0.2917 -0.3699  0.0738
  641MOL0     H84547   5.942  11.002   7.780  1.6357 -1.8712  1.5203
  641MOL0     H84548   5.714  11.005   7.660 -2.4100 -3.1759 -2.2461
  641MOL0     H84549   5.451  10.862   7.422  0.0056  0.1425  0.4742
  641MOL0     H84550   5.522  10.975   7.528 -0.7758  0.0635  0.8698
  641MOL0     H84551   5.416  10.779   7.638  1.3824  2.1336  1.2522
  641MOL0     H84552   5.589  10.773   7.673  1.0778 -0.2374 -0.3874
  641MOL0     H84553   5.604  10.606   7.495 -0.5196  0.9850  0.5595
  641MOL0     H84554   5.436  10.641   7.454  0.8185 -1.3481 -0.9493
  641MOL0     H84555   5.539  10.490   7.706 -2.5162 -3.7073  0.0248
  641MOL0     H84556   5.378  10.546   7.697 -1.1479 -2.0116 -1.4593
  641MOL0     H84557   5.513  10.374   7.479  0.6810 -0.1561  1.3232
  641MOL0     H84558   5.343  10.420   7.484 -0.8266  2.1299  2.4174
  641MOL0     H84559   5.468  10.260   7.708 -1.0885  2.5202  1.4609
  641MOL0     H84560   5.408  10.178   7.555 -1.4735  1.5927 -2.1681
  641MOL0     H84561   5.260  10.310   7.775  0.8714 -3.1232  2.0190
  641MOL0     H84562   5.183  10.265   7.614 -1.8490  1.1331  1.9503
  641MOL0     H84563   5.307  10.049   7.778  0.2253 -1.4464 -0.3526
  641MOL0     H84564   5.201  10.057   7.635 -2.0590  1.4624  1.2640
  641MOL0     H84565   5.175  10.222   7.978  1.0579 -2.1731  1.5279
  641MOL0     H84566   4.806  10.313   8.033  2.0723  1.9620 -0.1160
  641MOL0     H84567   4.941  10.274   8.148 -0.6896 -1.8525  2.5928
  641MOL0     H84568   4.886  10.046   8.167  0.5213  0.8983  0.0307
  641MOL0     H84569   4.759  10.049   8.051  1.9962  0.0218 -0.8947
  641MOL0     H84570   4.650  10.049   8.261  1.8439 -0.2215  4.1008
  641MOL0     H84571   4.769  10.156   8.335 -2.2412  1.5907  0.5547
  641MOL0     H84572   4.678  10.346   8.203  2.0572 -2.5462 -1.7068
  641MOL0     H84573   4.572  10.264   8.330 -0.2017 -3.4330  0.7290
  641MOL0     H84574   4.409  10.085   8.280  0.5908  0.5845 -0.4389
  641MOL0     H84575   4.181  10.088   8.352 -0.0375 -0.3759 -1.7499
  641MOL0     H84576   3.768  10.055   8.192 -1.6338 -1.3733 -2.4342
  641MOL0     H84577   3.550  10.009   8.266  0.3820 -0.2982 -2.4839
  641MOL0     H84578   3.251  10.244   8.165 -0.4248 -0.8185 -0.0961
  641MOL0     H84579   3.257  10.352   8.312 -1.6641 -0.1746 -0.5456
  641MOL0     H84580   3.144  10.200   8.452 -0.1673 -1.1489 -0.2657
  641MOL0     H84581   3.107  10.095   8.320 -1.9060  0.0999  0.3383
  641MOL0     H84582   3.015  10.288   8.190 -2.1964 -0.2650  0.6518
  641MOL0     H84583   3.023  10.393   8.325 -3.2942  0.1952  3.5149
  641MOL0     H84584   2.895  10.128   8.385  0.1355 -0.2749  1.3038
  641MOL0     H84585   2.876  10.282   8.457  2.1940 -1.2600  1.0394
  641MOL0     H84586   2.754  10.165   8.208  4.2848  1.4385 -1.9369
  641MOL0     H84587   2.762  10.340   8.212 -1.8020  1.5306  1.6776
  641MOL0     H84588   2.629  10.354   8.419 -3.0027  2.0041 -2.8991
  641MOL0     H84589   2.653  10.193   8.460 -3.3820 -1.0317 -0.3215
  641MOL0     H84590   2.458  10.316   8.251  1.5569  1.5021  0.0291
  641MOL0     H84591   2.525  10.159   8.216  3.8257  1.7951 -0.2100
  641MOL0     H84592   2.442  10.088   8.458  0.5946 -0.6539 -0.7069
  641MOL0     H84593   2.318  10.118   8.338  2.0962 -1.6797 -1.9917
  641MOL0     H84594   3.468  10.431   8.311  0.7771 -0.1417  2.3111
  641MOL0     H84595   3.673  10.485   8.199  2.6711 -0.9449 -1.6814
  641MOL0     H84596   4.104  10.416   8.087 -2.3984 -0.4742  2.1848
  641MOL0     H84597   4.352  10.399   8.016  0.0057  0.5717  0.1243
  641MOL0     H84598   5.906  10.797   7.329  1.8597  3.1843 -0.9280
  641MOL0     H84599   6.114  10.813   7.441 -0.0117  0.2819 -1.6387
  641MOL0     H84600   6.374  10.830   7.797 -0.5987  1.1061  0.9855
  641MOL0     H84601   6.571  10.842   7.920 -2.2555 -1.1609  0.9745
  641MOL0     H84602   6.788  10.948   7.939 -0.1075 -1.2945  0.4406
  641MOL0     H84603   6.746  10.884   8.101  1.3852 -0.9106 -0.2477
  641MOL0     H84604   6.940  11.103   8.070 -0.9371 -1.2012 -3.2432
  641MOL0     H84605   6.873  11.039   8.220 -2.4019 -0.3003 -1.4907
  641MOL0     H84606   7.033  10.877   8.014 -1.9213 -2.1162 -0.1339
  641MOL0     H84607   6.967  10.818   8.160  0.4991 -1.0344 -2.3582
  641MOL0     H84608   7.174  11.038   8.127 -1.0862  1.0918 -0.6777
  641MOL0     H84609   7.115  10.984   8.289 -0.3379  0.9181 -0.7125
  641MOL0     H84610   7.401  10.682   8.194  1.5146 -0.3588  1.6481
  641MOL0     H84611   6.532  11.258   7.977 -0.5373  0.4178  0.2145
  641MOL0     H84612   6.312  11.252   7.860  0.6586 -0.1003  0.1112
  642MOL0     O84613   8.724   4.280   4.554 -0.4390 -0.0905  0.3218
  642MOL0     C84614   8.796   4.330   4.470 -0.1570  0.9272 -0.0898
  642MOL0     O84615   8.792   4.306   4.343  0.0703  0.1116  0.3561
  642MOL0     C84616   8.712   4.196   4.315  0.3741 -0.5415  0.4506
  642MOL0     C84617   8.777   4.077   4.324 -0.9412 -0.1835 -0.2551
  642MOL0     C84618   8.716   3.958   4.284 -0.9364  0.8708  0.1377
  642MOL0     C84619   8.577   3.958   4.250 -0.6539 -0.2340 -0.7305
  642MOL0     O84620   8.504   3.846   4.211 -0.8621  0.0998  0.4380
  642MOL0     C84621   8.586   3.735   4.176  0.4638 -0.3123  0.2679
  642MOL0     C84622   8.500   3.638   4.096 -0.2881  0.3760  0.7469
  642MOL0     C84623   8.407   3.568   4.183 -0.3345  0.0029 -1.1488
  642MOL0     C84624   8.278   3.525   4.110  0.2325 -0.1388  0.0153
  642MOL0     C84625   8.318   3.410   4.008 -0.0257  0.1647 -0.5278
  642MOL0     C84626   8.314   3.438   3.854  0.7403 -0.4412 -1.1898
  642MOL0     C84627   8.347   3.310   3.773 -0.3001 -0.2772 -0.4752
  642MOL0     C84628   8.335   3.311   3.621  0.0277 -0.7262  0.3252
  642MOL0     N84629   8.200   3.293   3.578  0.6800  0.1708  0.0456
  642MOL0     C84630   8.116   3.391   3.532  0.2902 -1.0622  0.2875
  642MOL0     C84631   8.003   3.335   3.485  0.5180 -0.6768 -0.2758
  642MOL0     C84632   7.900   3.411   3.407  0.3110  0.4535 -0.5025
  642MOL0     C84633   7.947   3.414   3.257 -0.2461  0.6693 -0.8845
  642MOL0     C84634   7.847   3.446   3.147 -0.2117  0.4376 -0.3954
  642MOL0     C84635   7.892   3.419   3.001 -0.3160 -0.2805  0.4997
  642MOL0     O84636   7.788   3.437   2.908  0.4554 -1.1541 -0.4764
  642MOL0     C84637   7.700   3.334   2.870 -0.4419  0.5222  0.1215
  642MOL0     C84638   7.614   3.363   2.760 -0.1751 -0.3085 -1.0715
  642MOL0     C84639   7.509   3.278   2.724  0.2173 -0.5355 -0.1924
  642MOL0     C84640   7.489   3.151   2.789 -1.0067 -0.0263 -0.0179
  642MOL0     C84641   7.379   3.063   2.753  0.8745 -0.2438 -0.4041
  642MOL0     O84642   7.343   2.970   2.847  0.0878 -0.4516  0.5271
  642MOL0     C84643   7.216   2.911   2.831  0.3376 -0.6218 -0.0986
  642MOL0     C84644   7.184   2.821   2.738  0.4097  0.0032  0.8079
  642MOL0     C84645   7.056   2.762   2.727 -0.4770  0.5295  0.0320
  642MOL0     C84646   6.962   2.794   2.831  0.3216 -0.2673  0.3506
  642MOL0     O84647   6.838   2.733   2.829 -0.7645 -0.8405 -0.1165
  642MOL0     C84648   6.796   2.652   2.726  0.5723 -0.2659 -0.1766
  642MOL0     C84649   6.641   2.622   2.745  0.3593 -0.4539 -0.6414
  642MOL0     C84650   6.578   2.540   2.630 -0.3313  0.6786  0.9906
  642MOL0     C84651   6.432   2.515   2.654  0.3997 -0.5169  0.1052
  642MOL0     C84652   6.363   2.457   2.535  0.7355  0.2764  0.5651
  642MOL0     C84653   6.207   2.462   2.554  0.4971 -0.1682  0.3396
  642MOL0     C84654   6.142   2.377   2.434  0.0063  0.8962 -0.0779
  642MOL0     C84655   5.997   2.354   2.456 -0.6862 -0.1966  0.7479
  642MOL0    Cl84656   5.922   2.263   2.322 -0.3085 -0.3289  0.3586
  642MOL0     C84657   6.992   2.898   2.920 -0.4229  0.3817 -0.5122
  642MOL0     C84658   7.121   2.957   2.924 -0.4966  0.5256  0.4547
  642MOL0     O84659   7.299   3.102   2.671 -0.6657 -0.3675 -0.1982
  642MOL0     C84660   7.578   3.127   2.897 -0.9991 -1.0082 -0.3258
  642MOL0     C84661   7.679   3.211   2.936  0.2321 -0.3627 -0.9277
  642MOL0     N84662   8.014   3.200   3.509  0.5412 -0.0639  0.5094
  642MOL0     N84663   8.135   3.172   3.568 -0.2094  0.2176  0.4849
  642MOL0     C84664   8.512   4.079   4.259 -0.0323 -0.0613 -0.7720
  642MOL0     C84665   8.573   4.203   4.286 -0.1735 -0.9751 -0.0727
  642MOL0     C84666   8.909   4.413   4.517 -0.1744  0.1052 -0.3087
  642MOL0     C84667   8.945   4.406   4.657  0.1706 -0.1809  0.2114
  642MOL0     C84668   9.060   4.484   4.700 -0.2248 -0.5006  0.0425
  642MOL0     C84669   9.142   4.551   4.608 -0.6901 -0.2410  0.2851
  642MOL0     O84670   9.253   4.617   4.664 -0.1891  0.0426 -0.1368
  642MOL0     C84671   9.336   4.694   4.574  0.4587 -0.8192  0.2002
  642MOL0     C84672   9.425   4.792   4.643  0.6009 -0.0219  0.5410
  642MOL0     C84673   9.536   4.845   4.547  0.5448 -0.8429 -0.4922
  642MOL0     C84674   9.673   4.810   4.604  0.5561  0.4850  0.1133
  642MOL0     C84675   9.774   4.876   4.522  0.1774 -0.2459  0.4731
  642MOL0     C84676   9.865   4.919   4.451  0.1511 -0.7790 -0.1790
  642MOL0     C84677   9.107   4.540   4.479 -0.0829 -0.2979 -0.0326
  642MOL0     C84678   8.992   4.484   4.428 -0.4858 -0.5936 -0.6686
  642MOL0     H84679   8.881   4.087   4.354 -1.2191 -1.4506  1.2721
  642MOL0     H84680   8.781   3.872   4.283 -0.5048  1.1575 -2.6593
  642MOL0     H84681   8.618   3.682   4.266 -1.8607 -2.2896  0.0120
  642MOL0     H84682   8.673   3.764   4.116 -0.3215  0.8622 -0.3601
  642MOL0     H84683   8.565   3.562   4.053 -1.5973  0.0373 -0.7280
  642MOL0     H84684   8.447   3.696   4.020 -0.6555 -0.8481  0.0419
  642MOL0     H84685   8.392   3.639   4.265  0.5318  1.2857 -2.0634
  642MOL0     H84686   8.460   3.491   4.240 -1.2348  0.9478  1.0848
  642MOL0     H84687   8.205   3.484   4.180 -0.5289 -0.6869 -1.0520
  642MOL0     H84688   8.239   3.618   4.067 -0.1520  0.8715  2.4197
  642MOL0     H84689   8.251   3.324   4.020 -0.4239  0.4498 -0.7248
  642MOL0     H84690   8.419   3.373   4.029  1.0162  2.5353 -1.0773
  642MOL0     H84691   8.390   3.516   3.840  1.2513 -0.8021 -0.4746
  642MOL0     H84692   8.219   3.479   3.818  0.4802 -1.5458 -1.7869
  642MOL0     H84693   8.453   3.286   3.788  0.2275  1.4159 -1.2383
  642MOL0     H84694   8.293   3.221   3.807 -1.5865 -0.6446 -3.1843
  642MOL0     H84695   8.399   3.232   3.582 -0.4425 -0.5179 -0.9249
  642MOL0     H84696   8.366   3.410   3.584  3.0312 -1.7740 -0.2056
  642MOL0     H84697   8.148   3.495   3.526 -1.4427 -0.5033  0.2446
  642MOL0     H84698   7.885   3.517   3.431 -2.9408  0.1306 -0.7020
  642MOL0     H84699   7.800   3.369   3.410 -0.2029  1.5049 -1.8204
  642MOL0     H84700   7.989   3.313   3.251  2.3879  1.4134  2.2491
  642MOL0     H84701   8.033   3.480   3.244  0.1800 -0.1947 -2.9194
  642MOL0     H84702   7.751   3.394   3.160  0.0954 -0.5779 -1.8483
  642MOL0     H84703   7.821   3.552   3.139  1.4347  0.7397 -2.9702
  642MOL0     H84704   7.937   3.319   3.006 -0.5166 -0.3073  2.2327
  642MOL0     H84705   7.974   3.491   2.989  0.9604 -1.7235  0.0843
  642MOL0     H84706   7.638   3.455   2.709  2.8677 -1.3273 -1.6760
  642MOL0     H84707   7.445   3.308   2.642 -0.6175 -0.7865  0.3593
  642MOL0     H84708   7.266   2.789   2.675 -1.3134 -1.7307 -0.7198
  642MOL0     H84709   7.034   2.685   2.654  3.3954 -0.2093 -0.5461
  642MOL0     H84710   6.864   2.567   2.736  1.7069  0.3618 -2.0658
  642MOL0     H84711   6.804   2.689   2.624 -1.0644  0.2247 -0.1614
  642MOL0     H84712   6.593   2.720   2.742 -1.6426 -1.3568  0.1163
  642MOL0     H84713   6.631   2.577   2.844  0.1005 -1.2316 -1.0114
  642MOL0     H84714   6.634   2.446   2.618  0.1048  1.1057 -0.5176
  642MOL0     H84715   6.582   2.593   2.535 -0.9563 -0.3194  0.3934
  642MOL0     H84716   6.439   2.453   2.745  0.2369 -2.3994 -1.1059
  642MOL0     H84717   6.389   2.613   2.678  0.2228 -0.6641  0.3935
  642MOL0     H84718   6.385   2.351   2.515 -2.5648 -0.6900  1.4328
  642MOL0     H84719   6.386   2.523   2.451 -1.6823  0.0966 -0.3304
  642MOL0     H84720   6.172   2.566   2.549  0.5974 -0.0957  1.0077
  642MOL0     H84721   6.173   2.410   2.644  0.7798  1.1126  1.2092
  642MOL0     H84722   6.166   2.423   2.338 -0.3803 -0.3676 -0.8094
  642MOL0     H84723   6.181   2.275   2.427  0.2606  1.0803 -1.7938
  642MOL0     H84724   5.946   2.449   2.476 -1.8324 -0.7205  0.3957
  642MOL0     H84725   5.976   2.301   2.550 -2.6915 -1.6523 -0.4240
  642MOL0     H84726   6.915   2.941   2.983 -2.3371 -1.2147 -1.6301
  642MOL0     H84727   7.129   3.043   2.991 -0.4725  1.1696 -0.3617
  642MOL0     H84728   7.561   3.042   2.962 -1.2257 -0.2996  0.5654
  642MOL0     H84729   7.737   3.179   3.021 -1.6377  1.0239  0.9628
  642MOL0     H84730   8.408   4.073   4.229 -0.3143  1.3450 -0.1382
  642MOL0     H84731   8.523   4.299   4.286  0.5748 -0.5774  0.2307
  642MOL0     H84732   8.895   4.344   4.731  1.7983 -0.8253  0.8306
  642MOL0     H84733   9.080   4.484   4.807 -0.0014  1.1407  0.0195
  642MOL0     H84734   9.266   4.749   4.510 -0.5824 -1.8708  0.4043
  642MOL0     H84735   9.393   4.618   4.520  0.4335 -0.8526  0.2204
  642MOL0     H84736   9.358   4.867   4.686 -2.7352 -2.9949  1.0291
  642MOL0     H84737   9.461   4.740   4.732  0.7231  0.9326  1.0583
  642MOL0     H84738   9.534   4.954   4.558 -0.9390 -0.4444 -3.6627
  642MOL0     H84739   9.516   4.822   4.442 -2.5698 -3.9193  0.6065
  642MOL0     H84740   9.666   4.860   4.701  2.7347  2.7811 -0.7640
  642MOL0     H84741   9.685   4.702   4.600 -2.7461  0.0361  0.1198
  642MOL0     H84742   9.961   4.958   4.425 -0.6025  2.2188  1.0763
  642MOL0     H84743   9.175   4.583   4.407 -2.5250  1.2211 -1.6034
  642MOL0     H84744   8.978   4.492   4.321 -0.7497  1.0041 -0.5452
  643MOL0     O84745   9.376   5.839   2.535 -0.0509 -0.0159  0.5257
  643MOL0     C84746   9.419   5.729   2.519 -0.7105 -0.3998 -0.3889
  643MOL0     O84747   9.344   5.612   2.474 -0.5465 -0.6990  0.5979
  643MOL0     C84748   9.218   5.631   2.433  0.1239 -0.0524  0.4020
  643MOL0     C84749   9.176   5.728   2.339 -0.1095 -0.1725 -0.1057
  643MOL0     C84750   9.045   5.731   2.303  0.2424  0.4457  0.1352
  643MOL0     C84751   8.949   5.633   2.349  0.8559 -0.3910 -0.3359
  643MOL0     O84752   8.821   5.647   2.295 -0.7007  0.1928  0.1041
  643MOL0     C84753   8.737   5.533   2.307  0.0957  0.3777  0.1648
  643MOL0     C84754   8.618   5.571   2.224  0.5611  0.2846 -0.0462
  643MOL0     C84755   8.496   5.481   2.249 -0.5230  0.0882  0.3494
  643MOL0     C84756   8.381   5.524   2.170  0.1957  0.3052 -0.4084
  643MOL0     C84757   8.273   5.421   2.166  0.2024  0.2168  0.8391
  643MOL0     C84758   8.205   5.385   2.295  0.8580  0.6325  0.0448
  643MOL0     C84759   8.129   5.512   2.343 -0.2963  0.0552 -0.8941
  643MOL0     C84760   7.976   5.504   2.313 -0.1082  0.5955  0.3541
  643MOL0     N84761   7.912   5.414   2.405  0.3756  0.1046  0.1699
  643MOL0     C84762   7.860   5.442   2.530 -0.5475  0.6684 -0.4977
  643MOL0     C84763   7.807   5.322   2.567 -0.3206 -0.1354 -0.2206
  643MOL0     C84764   7.739   5.294   2.691 -0.3549  0.9153 -0.0909
  643MOL0     C84765   7.587   5.288   2.675 -0.5223 -0.3906 -0.5050
  643MOL0     C84766   7.537   5.247   2.811  1.2947 -0.9075 -0.3150
  643MOL0     C84767   7.386   5.225   2.810  0.1221 -0.4020  1.0053
  643MOL0     O84768   7.341   5.248   2.947  0.2124  0.2362 -0.2038
  643MOL0     C84769   7.205   5.263   2.969  0.3486  0.0040 -0.2013
  643MOL0     C84770   7.164   5.313   3.095 -0.5900 -0.3699  0.3737
  643MOL0     C84771   7.028   5.332   3.119  0.4971  0.8432 -0.1135
  643MOL0     C84772   6.927   5.283   3.035 -1.1136  0.9570 -1.2023
  643MOL0     C84773   6.788   5.282   3.077 -0.3849 -0.0867 -0.1113
  643MOL0     O84774   6.690   5.275   2.981 -0.6014  0.3294 -0.2884
  643MOL0     C84775   6.555   5.249   3.010  0.6979  0.1168  0.1582
  643MOL0     C84776   6.480   5.161   2.923  0.1074  0.0448  0.0520
  643MOL0     C84777   6.343   5.136   2.947  0.1833 -0.8452  0.5762
  643MOL0     C84778   6.269   5.195   3.054 -0.1800  0.8080 -0.3631
  643MOL0     O84779   6.141   5.154   3.085 -0.1845 -0.5871  0.7652
  643MOL0     C84780   6.058   5.201   3.192 -0.1038 -0.1379  0.6241
  643MOL0     C84781   5.921   5.136   3.177 -0.1090  0.1163  0.4258
  643MOL0     C84782   5.841   5.194   3.291  0.1021  0.0306  0.8254
  643MOL0     C84783   5.692   5.150   3.295  0.4142  0.9011 -0.8113
  643MOL0     C84784   5.668   4.995   3.293 -0.4584  0.5770 -1.3807
  643MOL0     C84785   5.687   4.938   3.437  0.0177  0.4611  0.4416
  643MOL0     C84786   5.627   4.801   3.463  0.2824  1.1486 -0.6562
  643MOL0     C84787   5.476   4.795   3.469  0.1389  0.2005  0.8615
  643MOL0    Cl84788   5.409   4.913   3.579  0.4288 -0.3395 -0.2811
  643MOL0     C84789   6.348   5.284   3.139 -0.0742  0.2815  0.1582
  643MOL0     C84790   6.486   5.312   3.111 -0.2232  0.1978  0.2676
  643MOL0     O84791   6.768   5.276   3.201 -0.0790  0.0699 -0.7001
  643MOL0     C84792   6.968   5.230   2.914  0.0484  0.0601 -0.3798
  643MOL0     C84793   7.106   5.210   2.892 -0.3575  0.1443  0.2813
  643MOL0     N84794   7.824   5.228   2.465 -0.6112  0.7504  0.3128
  643MOL0     N84795   7.890   5.285   2.371  0.1018 -0.0593  0.4758
  643MOL0     C84796   8.996   5.538   2.448 -0.7108  0.0566  0.3514
  643MOL0     C84797   9.132   5.535   2.479  0.2577  0.0687 -0.5031
  643MOL0     C84798   9.563   5.707   2.553  0.5240  0.1110 -0.2347
  643MOL0     C84799   9.616   5.770   2.665 -0.5374  0.6365 -0.4087
  643MOL0     C84800   9.749   5.751   2.701  0.3133  0.0907 -0.3024
  643MOL0     C84801   9.837   5.683   2.616  1.2294  0.3590  0.2709
  643MOL0     O84802   9.968   5.670   2.655 -0.4625 -0.2099 -0.4117
  643MOL0     C84803  10.053   5.742   2.565  0.5832  0.1079  0.8748
  643MOL0     C84804  10.133   5.847   2.634  0.0991  0.7017  0.0179
  643MOL0     C84805  10.247   5.788   2.706  0.3440 -0.6756 -0.3422
  643MOL0     C84806  10.354   5.888   2.751  0.2061  0.4108 -0.2102
  643MOL0     C84807  10.460   5.820   2.832 -0.1799 -0.1044  0.1217
  643MOL0     C84808  10.552   5.776   2.898  0.0026 -0.2744  0.4752
  643MOL0     C84809   9.786   5.610   2.513 -0.4088  0.7058  0.1781
  643MOL0     C84810   9.649   5.623   2.479 -0.3152  0.3878  0.7522
  643MOL0     H84811   9.248   5.799   2.299 -0.1816  1.1659  1.9942
  643MOL0     H84812   9.017   5.802   2.225  1.0391 -0.5965 -1.1462
  643MOL0     H84813   8.717   5.509   2.412  0.3674  0.1307  0.1635
  643MOL0     H84814   8.788   5.445   2.267  1.3701 -0.1535  2.7532
  643MOL0     H84815   8.643   5.560   2.118 -3.9319 -1.2109 -1.1808
  643MOL0     H84816   8.586   5.674   2.240 -2.4267 -0.0332 -2.9317
  643MOL0     H84817   8.466   5.472   2.354 -0.2999 -0.9603  0.3414
  643MOL0     H84818   8.528   5.380   2.220 -1.3338  0.0132 -0.3447
  643MOL0     H84819   8.356   5.626   2.200  2.3452  0.7761 -0.0141
  643MOL0     H84820   8.414   5.528   2.066 -0.9985 -0.6854 -0.8450
  643MOL0     H84821   8.306   5.330   2.114 -0.5132  0.1020  0.5716
  643MOL0     H84822   8.192   5.450   2.098 -0.4622  2.9168  2.6223
  643MOL0     H84823   8.264   5.348   2.379  3.0377  1.8801 -0.8391
  643MOL0     H84824   8.140   5.302   2.266  0.3356 -0.0871  2.9688
  643MOL0     H84825   8.142   5.525   2.451  0.8839  1.6626 -1.1902
  643MOL0     H84826   8.163   5.605   2.297 -2.5733  0.9420 -0.9363
  643MOL0     H84827   7.967   5.474   2.209  1.1671 -0.1494  0.4300
  643MOL0     H84828   7.935   5.602   2.338 -0.6291  0.4441  0.0900
  643MOL0     H84829   7.863   5.537   2.583 -2.0790 -0.2077  1.2922
  643MOL0     H84830   7.758   5.362   2.774 -5.6591  1.2664  1.1763
  643MOL0     H84831   7.781   5.202   2.732  0.5665  0.8383 -1.1409
  643MOL0     H84832   7.569   5.206   2.606 -2.3186  0.5895 -1.2812
  643MOL0     H84833   7.556   5.388   2.642 -1.4841  0.7250  3.1944
  643MOL0     H84834   7.588   5.158   2.849  1.2128 -1.1702 -0.8171
  643MOL0     H84835   7.544   5.328   2.885 -1.5414 -1.1929  0.3788
  643MOL0     H84836   7.361   5.126   2.773  2.5230  0.1955 -2.7770
  643MOL0     H84837   7.336   5.299   2.747  1.9270  0.2349  0.2362
  643MOL0     H84838   7.241   5.362   3.153 -2.6924  2.4582  1.0082
  643MOL0     H84839   7.004   5.369   3.218  1.8928 -0.5267  0.7711
  643MOL0     H84840   6.533   5.123   2.836  1.4868  0.1525  0.8038
  643MOL0     H84841   6.290   5.082   2.870  1.9433 -2.3308  0.3503
  643MOL0     H84842   6.068   5.309   3.185  2.4697 -0.4112 -3.0390
  643MOL0     H84843   6.113   5.160   3.277 -0.6248 -1.6433  0.2712
  643MOL0     H84844   5.933   5.028   3.191  2.4597  0.2861  0.0407
  643MOL0     H84845   5.882   5.153   3.076  0.9017 -1.2602 -0.2380
  643MOL0     H84846   5.828   5.303   3.289 -1.8874 -0.1783 -1.1376
  643MOL0     H84847   5.892   5.176   3.386  0.4943  0.5273  0.7162
  643MOL0     H84848   5.637   5.186   3.383  0.0289 -0.5280 -0.4509
  643MOL0     H84849   5.648   5.197   3.206  0.3236 -0.9751 -1.7893
  643MOL0     H84850   5.735   4.938   3.228 -0.1715 -0.8702  0.1111
  643MOL0     H84851   5.566   4.971   3.262 -0.6382  0.0402 -0.4142
  643MOL0     H84852   5.644   5.008   3.509  0.1610  2.2662 -1.1533
  643MOL0     H84853   5.790   4.924   3.470 -0.2183 -2.6625  0.1704
  643MOL0     H84854   5.658   4.728   3.389 -1.1211 -0.7288  0.5183
  643MOL0     H84855   5.669   4.763   3.557 -1.4025 -0.4168 -0.4884
  643MOL0     H84856   5.445   4.692   3.491  1.1322 -0.8050 -2.0445
  643MOL0     H84857   5.431   4.826   3.374  2.3169  1.5288  0.1817
  643MOL0     H84858   6.299   5.329   3.225  1.0030 -2.1898  2.1721
  643MOL0     H84859   6.546   5.375   3.177 -0.8752 -1.0178  2.1306
  643MOL0     H84860   6.899   5.205   2.835  0.1108  2.3269 -1.2335
  643MOL0     H84861   7.142   5.178   2.795  0.8706 -1.6729  1.2810
  643MOL0     H84862   8.923   5.470   2.491 -1.1765 -1.1066 -2.0930
  643MOL0     H84863   9.166   5.460   2.549  0.1638 -0.1923 -0.7304
  643MOL0     H84864   9.559   5.838   2.727  0.4247  0.1749  1.0342
  643MOL0     H84865   9.810   5.793   2.781  1.8189 -0.7885 -0.9413
  643MOL0     H84866   9.991   5.791   2.489 -1.3463  0.3634  2.5148
  643MOL0     H84867  10.120   5.667   2.521  0.7296  1.2562 -0.9619
  643MOL0     H84868  10.176   5.916   2.561  1.0707  0.9232  0.7883
  643MOL0     H84869  10.082   5.917   2.701  0.8460 -0.9922  2.4950
  643MOL0     H84870  10.288   5.702   2.654 -1.1872 -0.2310 -2.4177
  643MOL0     H84871  10.198   5.743   2.793  1.1124 -1.0956 -0.1205
  643MOL0     H84872  10.404   5.928   2.661 -1.3328 -1.6310 -2.0872
  643MOL0     H84873  10.313   5.978   2.797  1.4401  1.1160 -0.4280
  643MOL0     H84874  10.629   5.745   2.966  0.3011  2.4551  1.5108
  643MOL0     H84875   9.857   5.547   2.461 -2.7284  0.1564 -2.5995
  643MOL0     H84876   9.611   5.560   2.400 -2.4163  1.3732  0.9063
  644MOL0     O84877   4.579   6.832   8.593 -0.1926 -0.6561 -0.4974
  644MOL0     C84878   4.625   6.829   8.481 -0.0194 -0.1559  0.2686
  644MOL0     O84879   4.598   6.912   8.376 -0.0716 -0.1132  0.0012
  644MOL0     C84880   4.483   6.995   8.368 -0.8774 -0.5006  0.3625
  644MOL0     C84881   4.469   7.062   8.244  0.7042  0.1119 -0.0369
  644MOL0     C84882   4.350   7.130   8.214  0.8177  0.8480  0.1147
  644MOL0     C84883   4.244   7.141   8.310 -0.2661 -1.1225 -0.5569
  644MOL0     O84884   4.124   7.186   8.259  0.4121  0.3574 -0.5536
  644MOL0     C84885   4.004   7.198   8.346 -0.1977  0.9477  0.3326
  644MOL0     C84886   3.948   7.055   8.390 -0.5542 -0.6740 -0.1521
  644MOL0     C84887   3.809   7.068   8.442 -0.7080  0.2890 -0.3969
  644MOL0     C84888   3.714   7.149   8.357 -0.6778  0.4401 -0.4748
  644MOL0     C84889   3.568   7.097   8.364 -0.7386 -0.4192 -0.0923
  644MOL0     C84890   3.466   7.197   8.299  0.0585  0.5905  0.2619
  644MOL0     C84891   3.331   7.128   8.286 -0.0521 -0.3152  0.2100
  644MOL0     C84892   3.226   7.229   8.242 -0.8336 -0.5415  0.8159
  644MOL0     N84893   3.186   7.318   8.350  1.5260  0.4674 -0.6921
  644MOL0     C84894   3.083   7.284   8.437 -0.2826 -0.1592  0.4194
  644MOL0     C84895   3.073   7.385   8.523  0.9127  0.4290 -0.4321
  644MOL0     C84896   2.958   7.418   8.617  0.4306  0.6187 -0.7333
  644MOL0     C84897   2.897   7.285   8.674 -0.0398 -0.1219 -0.5611
  644MOL0     C84898   2.776   7.312   8.764  0.5650  0.1810  0.0588
  644MOL0     C84899   2.701   7.176   8.790 -0.3037 -0.9140 -0.7032
  644MOL0     O84900   2.575   7.220   8.835 -0.0811 -0.9897 -0.2177
  644MOL0     C84901   2.498   7.123   8.880  0.9298  0.3662  0.5348
  644MOL0     C84902   2.362   7.164   8.877  0.1274  0.4909 -0.0567
  644MOL0     C84903   2.256   7.074   8.906  0.0549  0.3476 -0.0638
  644MOL0     C84904   2.286   6.944   8.945 -0.7484  0.0264 -0.2751
  644MOL0     C84905   2.179   6.850   8.973  0.0827  0.1537 -0.5523
  644MOL0     O84906   2.058   6.910   9.016  0.4015 -0.3825  0.2368
  644MOL0     C84907   1.936   6.846   9.033  0.4121  0.7393  0.1078
  644MOL0     C84908   1.895   6.740   8.952 -0.1008 -0.9333  1.1837
  644MOL0     C84909   1.758   6.704   8.946 -0.1836 -0.5853 -0.1432
  644MOL0     C84910   1.668   6.761   9.038  0.4735 -0.7820  0.7696
  644MOL0     O84911   1.540   6.732   9.027  0.3126 -0.0812 -0.6035
  644MOL0     C84912   1.471   6.670   9.152 -0.5566 -0.6206  0.7527
  644MOL0     C84913   1.332   6.636   9.107  1.2578 -0.9667 -0.1893
  644MOL0     C84914   1.337   6.515   9.016  0.6296  0.5337  0.4161
  644MOL0     C84915   1.188   6.482   8.981 -0.2385 -0.1731 -0.2779
  644MOL0     C84916   1.175   6.373   8.882  0.6310  0.4347 -0.1034
  644MOL0     C84917   1.053   6.281   8.914 -0.1980  0.4502  0.0228
  644MOL0     C84918   1.095   6.139   8.980  0.2435  0.8686  0.3289
  644MOL0     C84919   0.968   6.060   9.014 -0.4340  0.1517 -0.3875
  644MOL0    Cl84920   0.867   6.121   9.144  0.0863  0.1252 -0.1783
  644MOL0     C84921   1.709   6.853   9.125  0.4764 -0.5659 -0.3461
  644MOL0     C84922   1.838   6.904   9.115 -0.3560  0.1474 -0.6209
  644MOL0     O84923   2.201   6.732   8.951  0.6311  0.1078  0.1640
  644MOL0     C84924   2.418   6.914   8.956  0.8104 -0.3104 -0.4268
  644MOL0     C84925   2.523   6.992   8.916 -0.9296  0.2561 -0.4660
  644MOL0     N84926   3.176   7.473   8.501  0.8462  0.6100  0.1489
  644MOL0     N84927   3.239   7.426   8.395 -1.1724  0.0249 -0.2713
  644MOL0     C84928   4.270   7.097   8.433 -0.1777 -1.1221 -1.2407
  644MOL0     C84929   4.388   7.019   8.463 -0.6085 -0.2607 -0.2690
  644MOL0     C84930   4.719   6.721   8.428  0.4114  0.1774 -0.8041
  644MOL0     C84931   4.794   6.745   8.311  0.6972  0.3060 -0.0943
  644MOL0     C84932   4.898   6.664   8.268  0.2124 -0.7665 -0.0615
  644MOL0     C84933   4.926   6.548   8.343  0.1694  0.5079 -0.2438
  644MOL0     O84934   5.028   6.461   8.303  0.0949  0.0021  0.4677
  644MOL0     C84935   5.025   6.410   8.166 -0.0359  0.0052 -1.3409
  644MOL0     C84936   5.047   6.251   8.163 -0.6857 -0.0271 -0.1609
  644MOL0     C84937   5.153   6.197   8.069  0.8422  0.5687 -0.8287
  644MOL0     C84938   5.141   6.256   7.930  0.1831  0.8465 -0.3993
  644MOL0     C84939   5.224   6.199   7.826  0.4662  1.1509  0.5630
  644MOL0     C84940   5.288   6.145   7.739  0.3846  0.4377 -0.7172
  644MOL0     C84941   4.861   6.523   8.459  0.1122  0.0767 -0.5525
  644MOL0     C84942   4.761   6.611   8.506  0.6273 -0.3456  0.6369
  644MOL0     H84943   4.547   7.064   8.169 -1.4799  0.8987 -2.4097
  644MOL0     H84944   4.327   7.152   8.110  0.8733 -0.7710 -0.2654
  644MOL0     H84945   3.943   7.259   8.278  0.7212 -0.9649 -2.3791
  644MOL0     H84946   4.023   7.254   8.438 -0.8070 -0.9833  1.7043
  644MOL0     H84947   4.017   7.003   8.457 -0.7557  0.5458  1.0501
  644MOL0     H84948   3.947   7.001   8.295 -2.1225 -0.9777  0.0131
  644MOL0     H84949   3.802   7.106   8.545  1.4158 -1.0100  0.2962
  644MOL0     H84950   3.773   6.966   8.450  1.4618 -0.4022  3.3259
  644MOL0     H84951   3.721   7.257   8.372 -2.5406  0.4687  0.5163
  644MOL0     H84952   3.743   7.132   8.253 -2.7566 -1.2618 -0.8539
  644MOL0     H84953   3.539   7.055   8.461 -0.6259 -0.4429 -0.0689
  644MOL0     H84954   3.564   7.014   8.292  0.3194 -1.9130  1.4877
  644MOL0     H84955   3.484   7.230   8.196 -2.8989 -0.3600 -0.6793
  644MOL0     H84956   3.456   7.290   8.355  1.4605 -0.0743  1.6980
  644MOL0     H84957   3.339   7.055   8.206 -1.8301 -1.7594  1.2673
  644MOL0     H84958   3.302   7.073   8.376 -2.2467 -0.6018 -0.6037
  644MOL0     H84959   3.143   7.165   8.212  1.1451 -3.7216  1.6138
  644MOL0     H84960   3.269   7.288   8.160  1.8980 -2.3208  0.8209
  644MOL0     H84961   3.018   7.198   8.422  0.1851 -0.6938  1.3982
  644MOL0     H84962   2.875   7.478   8.578 -0.7509  0.2501  1.1094
  644MOL0     H84963   3.006   7.473   8.698  0.0723 -0.8471  0.5140
  644MOL0     H84964   2.972   7.220   8.720 -1.0806 -1.2394 -0.3989
  644MOL0     H84965   2.856   7.232   8.588  2.0682 -2.9827  0.0333
  644MOL0     H84966   2.803   7.357   8.860  1.5790  1.6876 -0.8972
  644MOL0     H84967   2.703   7.382   8.722  0.2205 -0.3449 -0.2267
  644MOL0     H84968   2.759   7.112   8.857 -0.1223 -0.0853 -0.0534
  644MOL0     H84969   2.688   7.123   8.695  2.1622  0.4594 -1.9320
  644MOL0     H84970   2.345   7.267   8.848  1.3317  0.5063 -0.7857
  644MOL0     H84971   2.156   7.112   8.895  0.7175  3.6278  3.3796
  644MOL0     H84972   1.962   6.702   8.875  1.3709  1.5984  1.0974
  644MOL0     H84973   1.717   6.639   8.869 -2.4607 -1.2714  1.5329
  644MOL0     H84974   1.459   6.744   9.232 -0.4205  2.9534 -2.2355
  644MOL0     H84975   1.524   6.581   9.187 -0.6386 -0.6729  0.7427
  644MOL0     H84976   1.295   6.725   9.056  1.7278 -0.9925 -0.5823
  644MOL0     H84977   1.264   6.611   9.189  0.9342 -1.5929 -0.6360
  644MOL0     H84978   1.375   6.423   9.062  0.6507  0.2354 -0.1861
  644MOL0     H84979   1.393   6.538   8.925 -1.3106 -2.6885 -1.8056
  644MOL0     H84980   1.126   6.474   9.071 -0.3429  0.2111 -0.3108
  644MOL0     H84981   1.154   6.575   8.934  1.2568  1.6511  2.0275
  644MOL0     H84982   1.269   6.317   8.887  0.0334 -0.4875  1.4579
  644MOL0     H84983   1.163   6.420   8.784  0.5938 -0.2279 -0.4220
  644MOL0     H84984   0.998   6.273   8.819  0.5629  0.1951 -0.4075
  644MOL0     H84985   0.988   6.336   8.982  0.2808 -0.8701  1.6014
  644MOL0     H84986   1.154   6.088   8.903 -0.3973  1.8823 -0.8811
  644MOL0     H84987   1.159   6.148   9.069  0.0389 -1.5094  0.7878
  644MOL0     H84988   1.000   5.962   9.051 -1.3689 -0.7268 -1.8182
  644MOL0     H84989   0.898   6.041   8.932 -1.4516  0.0220  0.4794
  644MOL0     H84990   1.636   6.896   9.194 -0.5021  0.2429 -1.8120
  644MOL0     H84991   1.865   6.991   9.175 -1.1853  1.1269 -1.6236
  644MOL0     H84992   2.429   6.813   8.992 -2.4069 -1.4322 -2.1713
  644MOL0     H84993   2.626   6.959   8.929 -0.7208 -0.1658 -2.7463
  644MOL0     H84994   4.199   7.114   8.514  2.0580  4.6240 -0.0034
  644MOL0     H84995   4.401   6.976   8.562  2.4944  0.1205 -0.4037
  644MOL0     H84996   4.792   6.842   8.262 -0.1256  0.3689  0.0418
  644MOL0     H84997   4.947   6.681   8.173  0.6890  1.0406  0.4600
  644MOL0     H84998   5.103   6.454   8.103  1.4972  0.0327  0.4684
  644MOL0     H84999   4.927   6.437   8.126 -0.1605  0.1578 -0.9400
  644MOL0     H85000   5.072   6.223   8.265  0.6275  1.0216 -0.1653
  644MOL0     H85001   4.957   6.202   8.124 -1.0655  1.4900 -1.3005
  644MOL0     H85002   5.140   6.089   8.059  3.2956 -0.0278  1.3207
  644MOL0     H85003   5.254   6.207   8.111  0.8322 -2.2622  0.0463
  644MOL0     H85004   5.041   6.243   7.888  0.5334 -1.4876 -0.6353
  644MOL0     H85005   5.176   6.360   7.934  0.5382  0.7099  0.0567
  644MOL0     H85006   5.345   6.106   7.657 -1.8564  0.0140 -2.1530
  644MOL0     H85007   4.881   6.432   8.514 -0.1785  0.5670  0.3780
  644MOL0     H85008   4.723   6.596   8.607  2.0009  1.3786  1.4862
  645MOL0     O85009   1.661   6.509   9.749 -0.4703 -0.4964  1.2413
  645MOL0     C85010   1.683   6.405   9.687  0.8550 -0.0597  0.8129
  645MOL0     O85011   1.588   6.330   9.614  0.0001  0.2959  0.5390
  645MOL0     C85012   1.452   6.367   9.606 -0.2292  0.4932 -0.5416
  645MOL0     C85013   1.385   6.440   9.705  0.5446  1.3157 -0.0259
  645MOL0     C85014   1.248   6.477   9.691  0.0774  0.1248 -0.7813
  645MOL0     C85015   1.178   6.440   9.582  0.1567  0.0335  0.2833
  645MOL0     O85016   1.049   6.491   9.574  0.2271  0.2351 -0.1612
  645MOL0     C85017   0.947   6.415   9.499 -0.5191 -0.5321 -0.8053
  645MOL0     C85018   0.917   6.267   9.555  0.0838 -0.1263  0.3273
  645MOL0     C85019   0.901   6.274   9.706  0.0481  0.9304  0.5221
  645MOL0     C85020   0.904   6.129   9.760 -0.4810 -0.4784  0.7008
  645MOL0     C85021   0.873   6.126   9.923 -0.1251  0.8080  0.7147
  645MOL0     C85022   0.992   6.151  10.022  0.8264 -0.5881  0.2260
  645MOL0     C85023   1.091   6.038  10.015  1.3268 -0.3531 -0.7758
  645MOL0     C85024   1.056   5.927  10.115 -0.5019  0.0551 -0.1035
  645MOL0     N85025   1.091   5.971  10.252 -0.3914 -0.3288  1.1611
  645MOL0     C85026   1.218   5.990  10.292 -0.4879 -0.1385 -0.3179
  645MOL0     C85027   1.207   6.060  10.412  1.2799  0.9733  0.3974
  645MOL0     C85028   1.323   6.100  10.506 -0.6500  0.5242  0.4589
  645MOL0     C85029   1.463   6.114  10.434 -0.3455  0.1943  0.0765
  645MOL0     C85030   1.565   6.159  10.542  0.3490 -0.5509 -0.3136
  645MOL0     C85031   1.709   6.111  10.508  0.4435  0.1068  0.6911
  645MOL0     O85032   1.791   6.137  10.622  0.2929 -0.5817 -0.0872
  645MOL0     C85033   1.928   6.130  10.607  0.2341 -0.2598 -0.3757
  645MOL0     C85034   2.000   6.043  10.513 -0.1494  1.1336 -0.1165
  645MOL0     C85035   2.140   6.036  10.513  0.1485  0.5733 -0.0453
  645MOL0     C85036   2.216   6.101  10.613 -0.4842 -0.7413 -0.8506
  645MOL0     C85037   2.359   6.076  10.631 -0.5638 -0.0677  0.4535
  645MOL0     O85038   2.427   6.137  10.729 -0.1065 -0.3702  0.1563
  645MOL0     C85039   2.559   6.108  10.750  0.0355  0.1688  1.0190
  645MOL0     C85040   2.656   6.167  10.675  0.4729 -0.0933  0.3166
  645MOL0     C85041   2.790   6.143  10.709  0.4351 -0.3106  0.1913
  645MOL0     C85042   2.822   6.060  10.820 -0.2153  0.1776 -0.5954
  645MOL0     O85043   2.950   6.030  10.856  0.4783 -0.2832  0.1757
  645MOL0     C85044   3.015   5.960  10.751  0.0497 -0.4923 -0.1509
  645MOL0     C85045   3.150   6.036  10.759 -1.0550  0.1846  0.0166
  645MOL0     C85046   3.252   5.971  10.663  0.1293  0.1733  0.5710
  645MOL0     C85047   3.370   6.059  10.636 -0.0862 -1.1325 -0.4375
  645MOL0     C85048   3.429   6.058  10.488  0.1303 -1.0201 -0.5407
  645MOL0     C85049   3.561   6.140  10.473  0.2778  0.2791 -0.2752
  645MOL0     C85050   3.588   6.148  10.323  0.8410 -0.9125 -0.1885
  645MOL0     C85051   3.713   6.213  10.281  0.0433  0.5863 -0.3615
  645MOL0    Cl85052   3.861   6.112  10.306 -0.5347  0.1867  0.3367
  645MOL0     C85053   2.718   6.017  10.902 -0.1097  0.5556  0.4123
  645MOL0     C85054   2.586   6.033  10.862 -0.2119 -0.0417 -1.1139
  645MOL0     O85055   2.411   5.994  10.550 -0.0933  0.1914 -0.5568
  645MOL0     C85056   2.141   6.164  10.716 -1.0061  0.4101 -0.0403
  645MOL0     C85057   1.999   6.177  10.718 -0.4419 -0.1879 -0.3452
  645MOL0     N85058   1.073   6.072  10.441 -0.2451 -0.6332  0.3967
  645MOL0     N85059   1.005   6.020  10.349  0.1974  0.8191 -0.2459
  645MOL0     C85060   1.233   6.364   9.482 -0.8671  0.3803  0.5652
  645MOL0     C85061   1.374   6.324   9.499  0.6866  0.1571  0.5580
  645MOL0     C85062   1.821   6.359   9.686 -0.5257  0.3252  0.3342
  645MOL0     C85063   1.853   6.232   9.660 -0.0765  0.2202  0.7157
  645MOL0     C85064   1.983   6.186   9.646 -0.2026  0.3637 -1.0758
  645MOL0     C85065   2.096   6.274   9.667 -0.5628  0.2278 -0.4638
  645MOL0     O85066   2.226   6.235   9.670 -0.2714  0.0582 -0.2067
  645MOL0     C85067   2.262   6.108   9.629  0.4445 -0.5778  0.2410
  645MOL0     C85068   2.409   6.112   9.585  1.3211 -0.4206  0.0878
  645MOL0     C85069   2.515   6.101   9.696 -0.0901  0.0782  0.1375
  645MOL0     C85070   2.665   6.110   9.661 -0.5553  0.0975 -0.2588
  645MOL0     C85071   2.712   6.005   9.568 -0.1648  0.5020  0.1040
  645MOL0     C85072   2.768   5.922   9.506  0.8067  0.7576 -0.1689
  645MOL0     C85073   2.062   6.403   9.704 -0.4553 -0.0454  0.3334
  645MOL0     C85074   1.927   6.445   9.706  0.6129  0.6486  0.0231
  645MOL0     H85075   1.431   6.451   9.802 -0.8934 -2.2397  1.2127
  645MOL0     H85076   1.191   6.529   9.767  0.2621  0.9757 -1.2116
  645MOL0     H85077   0.972   6.412   9.392  1.2692 -0.6519 -0.4266
  645MOL0     H85078   0.853   6.470   9.507 -1.7151 -2.3136 -1.9014
  645MOL0     H85079   0.997   6.199   9.525 -0.1640 -1.0736  1.7333
  645MOL0     H85080   0.828   6.231   9.502 -0.8631  4.4736 -1.7196
  645MOL0     H85081   0.804   6.321   9.725 -1.1281  0.0126 -2.4808
  645MOL0     H85082   0.989   6.314   9.755  0.6999 -0.2884  0.3890
  645MOL0     H85083   0.817   6.074   9.723 -2.4380  2.8382  0.0138
  645MOL0     H85084   0.999   6.089   9.725  0.4418  1.6137  0.6832
  645MOL0     H85085   0.825   6.033   9.956  1.0926 -1.1283 -2.5477
  645MOL0     H85086   0.799   6.206   9.934  0.9441  1.8833  0.2890
  645MOL0     H85087   0.956   6.157  10.125  0.3004 -3.4782  0.2937
  645MOL0     H85088   1.046   6.243   9.996 -1.6555  0.3685 -1.9774
  645MOL0     H85089   1.109   5.997   9.915  3.6300 -2.0310  0.2341
  645MOL0     H85090   1.191   6.072  10.042  0.6054  0.4525  1.0614
  645MOL0     H85091   1.110   5.836  10.087 -1.0965  0.3342 -2.3204
  645MOL0     H85092   0.950   5.901  10.122 -0.1111 -1.3990  0.7881
  645MOL0     H85093   1.305   5.953  10.238  0.8526 -0.4157  1.9110
  645MOL0     H85094   1.343   6.022  10.580  1.9148  1.8858  1.3280
  645MOL0     H85095   1.302   6.189  10.567  1.1722  0.2918  1.5017
  645MOL0     H85096   1.452   6.176  10.345  1.8415 -3.5521 -3.1523
  645MOL0     H85097   1.486   6.016  10.390  3.9994  0.9580  0.3004
  645MOL0     H85098   1.555   6.267  10.553  1.5617 -0.4428 -0.0721
  645MOL0     H85099   1.544   6.116  10.641  0.9862 -0.3317 -0.0782
  645MOL0     H85100   1.750   6.163  10.421  0.8461 -0.5720  0.4699
  645MOL0     H85101   1.718   6.003  10.494 -0.5235 -0.1056  1.5347
  645MOL0     H85102   1.938   5.983  10.448 -2.2788 -1.0943  3.5854
  645MOL0     H85103   2.187   5.965  10.446  0.3680 -0.5546  1.2594
  645MOL0     H85104   2.638   6.227  10.586  3.2234 -0.7762 -0.8059
  645MOL0     H85105   2.866   6.182  10.643 -0.8613  2.7226  0.3345
  645MOL0     H85106   2.965   5.959  10.654 -2.2414  1.0701  0.9308
  645MOL0     H85107   3.033   5.856  10.782 -0.2766  0.1313  2.3625
  645MOL0     H85108   3.195   6.032  10.858 -0.1709  0.0478 -0.3834
  645MOL0     H85109   3.128   6.141  10.737  1.2021  0.4402 -1.2877
  645MOL0     H85110   3.206   5.944  10.567  1.3259  1.4211 -0.3809
  645MOL0     H85111   3.286   5.877  10.706 -1.7570 -0.7637  0.1283
  645MOL0     H85112   3.339   6.159  10.665 -1.5195 -1.4474 -0.8145
  645MOL0     H85113   3.452   6.028  10.702 -1.8852 -1.3720  1.8199
  645MOL0     H85114   3.351   6.099  10.424  0.8211 -1.2735 -1.5646
  645MOL0     H85115   3.446   5.959  10.443 -0.1951 -1.9140  1.2120
  645MOL0     H85116   3.646   6.093  10.524  1.5603 -0.8633 -3.2456
  645MOL0     H85117   3.547   6.239  10.516 -1.0861  0.0354 -0.1168
  645MOL0     H85118   3.590   6.049  10.276  1.8625 -1.7266  1.4729
  645MOL0     H85119   3.505   6.207  10.283 -2.7613 -3.2681  3.0259
  645MOL0     H85120   3.732   6.300  10.345 -0.2676 -1.1617  2.2441
  645MOL0     H85121   3.704   6.243  10.176  1.3956 -0.4732 -0.8211
  645MOL0     H85122   2.752   5.963  10.990  3.2787  1.8761  0.0399
  645MOL0     H85123   2.508   5.991  10.925 -0.3272  0.2165 -1.0840
  645MOL0     H85124   2.181   6.199  10.810 -0.6859 -1.0947  0.4017
  645MOL0     H85125   1.943   6.223  10.799 -1.7895 -0.7202 -0.9467
  645MOL0     H85126   1.182   6.337   9.390 -0.2847 -4.0279  1.3140
  645MOL0     H85127   1.429   6.272   9.421 -0.8552 -0.2803 -0.2896
  645MOL0     H85128   1.776   6.162   9.629  0.5231  0.3882 -1.3021
  645MOL0     H85129   2.003   6.082   9.623 -0.4908  0.0952 -0.1266
  645MOL0     H85130   2.206   6.085   9.538 -0.2412 -3.4385  1.2674
  645MOL0     H85131   2.247   6.030   9.705 -0.8217 -0.4477  0.1462
  645MOL0     H85132   2.433   6.037   9.510  2.7147 -1.3253  1.3933
  645MOL0     H85133   2.431   6.203   9.528  0.0193  0.9666  1.6926
  645MOL0     H85134   2.499   6.008   9.751  0.6532 -1.1009 -1.5492
  645MOL0     H85135   2.488   6.176   9.770 -0.7218 -1.6756  1.7787
  645MOL0     H85136   2.687   6.205   9.610  0.1171 -0.0409 -0.2436
  645MOL0     H85137   2.717   6.102   9.757  0.6649  0.3345 -0.8754
  645MOL0     H85138   2.828   5.855   9.448 -0.8077 -1.1762  0.2829
  645MOL0     H85139   2.146   6.469   9.718  1.1164 -1.0482 -3.1660
  645MOL0     H85140   1.910   6.551   9.721 -2.9822 -0.1335  2.9792
  646MOL0     O85141   1.112   2.671  10.666  0.1092 -0.5092  0.6153
  646MOL0     C85142   1.068   2.564  10.715 -0.0022  0.5606  0.4595
  646MOL0     O85143   1.138   2.471  10.783 -0.5871 -0.4260 -0.8207
  646MOL0     C85144   1.268   2.484  10.828  1.1455 -0.4997 -0.1903
  646MOL0     C85145   1.362   2.564  10.763  0.9461 -0.3877  0.3717
  646MOL0     C85146   1.489   2.567  10.822 -0.5427  0.2954 -0.2326
  646MOL0     C85147   1.536   2.476  10.923  0.4935  0.5830  0.1457
  646MOL0     O85148   1.668   2.495  10.970 -0.4065 -0.3237 -0.1954
  646MOL0     C85149   1.748   2.381  11.000  0.1961 -0.6151  0.2081
  646MOL0     C85150   1.888   2.374  10.943  0.7085 -0.4306 -0.3404
  646MOL0     C85151   1.975   2.493  10.988 -0.3041  0.1723  0.4027
  646MOL0     C85152   1.951   2.616  10.909  0.3028 -0.1833 -0.2432
  646MOL0     C85153   2.055   2.722  10.947  0.3353 -0.3420 -0.5409
  646MOL0     C85154   2.070   2.764  11.097  1.3311 -0.2242 -0.1916
  646MOL0     C85155   2.176   2.861  11.123  0.5839  0.7714  0.2496
  646MOL0     C85156   2.173   2.995  11.050 -0.4587  0.5231 -0.4191
  646MOL0     N85157   2.052   3.071  11.082  0.3037  0.2270  0.2213
  646MOL0     C85158   1.924   3.039  11.043  0.4008  0.7433 -0.4524
  646MOL0     C85159   1.845   3.144  11.077  0.4487  0.2389 -0.4792
  646MOL0     C85160   1.701   3.157  11.043 -0.0984  1.1617  0.6136
  646MOL0     C85161   1.612   3.040  11.084 -0.0434 -0.3038 -0.6463
  646MOL0     C85162   1.586   3.042  11.237  0.4727 -0.6907 -1.3301
  646MOL0     C85163   1.703   3.013  11.330  0.9429 -0.5809 -0.2675
  646MOL0     O85164   1.668   2.978  11.466  0.2553 -0.6997  0.6842
  646MOL0     C85165   1.768   2.955  11.562  0.0419  0.4690  0.4628
  646MOL0     C85166   1.734   2.940  11.693 -0.9042 -0.6049 -0.1063
  646MOL0     C85167   1.821   2.913  11.795 -0.3775 -0.0755  0.7774
  646MOL0     C85168   1.958   2.890  11.773 -0.4427 -0.5083  0.5034
  646MOL0     C85169   2.052   2.859  11.883 -0.6214  0.0434  0.8487
  646MOL0     O85170   2.179   2.900  11.870 -0.0614  0.6326 -0.1325
  646MOL0     C85171   2.259   2.895  11.980 -0.3548  0.1856  0.0295
  646MOL0     C85172   2.384   2.831  11.968 -0.0556 -0.2747  0.0586
  646MOL0     C85173   2.481   2.827  12.072 -0.1317  0.0057  0.8306
  646MOL0     C85174   2.443   2.887  12.197 -0.8684 -0.4330  0.2542
  646MOL0     O85175   2.522   2.888  12.307 -0.8104  0.6633  0.4665
  646MOL0     C85176   2.659   2.861  12.298  0.2822 -0.3767  0.6574
  646MOL0     C85177   2.727   2.830  12.431  0.7191  0.0032 -0.3535
  646MOL0     C85178   2.878   2.798  12.426  0.3866  0.1531  0.3169
  646MOL0     C85179   2.960   2.927  12.404  0.1135 -0.5091 -0.0316
  646MOL0     C85180   3.112   2.912  12.406 -0.3351 -0.1369 -0.8194
  646MOL0     C85181   3.191   3.048  12.403 -0.5377  0.3221  0.8352
  646MOL0     C85182   3.341   3.029  12.425 -0.7416  0.2734 -0.3070
  646MOL0     C85183   3.417   2.986  12.294 -0.4977  0.2720 -0.6818
  646MOL0    Cl85184   3.573   2.911  12.355 -0.6348  0.2181  0.5810
  646MOL0     C85185   2.317   2.940  12.215 -0.5363 -0.4049 -0.1830
  646MOL0     C85186   2.227   2.950  12.111  0.2256 -0.3230  0.2912
  646MOL0     O85187   2.005   2.817  11.983  0.0862 -0.3003 -0.1183
  646MOL0     C85188   2.006   2.907  11.639 -0.1573 -0.4313  0.1996
  646MOL0     C85189   1.911   2.932  11.535  0.1112  0.2703  0.3165
  646MOL0     N85190   1.930   3.231  11.140  0.2512 -0.5026 -0.4101
  646MOL0     N85191   2.048   3.188  11.142  0.1792 -0.7362 -0.3175
  646MOL0     C85192   1.434   2.402  10.983 -0.3607  0.9176  0.3787
  646MOL0     C85193   1.300   2.409  10.938 -0.3210  0.3462  0.4566
  646MOL0     C85194   0.921   2.543  10.693 -0.2740 -0.2535 -0.3525
  646MOL0     C85195   0.864   2.601  10.580 -0.1049 -0.0264 -0.0384
  646MOL0     C85196   0.726   2.592  10.550 -0.1541 -0.2860 -0.1555
  646MOL0     C85197   0.639   2.511  10.628  0.8342 -0.5193 -0.6694
  646MOL0     O85198   0.504   2.497  10.581  0.2795 -0.7543  0.1328
  646MOL0     C85199   0.415   2.446  10.682 -0.8193 -0.4330  0.1169
  646MOL0     C85200   0.264   2.436  10.635 -0.5980 -0.7632  0.0278
  646MOL0     C85201   0.181   2.565  10.670  0.3072  0.1350  0.2981
  646MOL0     C85202   0.140   2.641  10.542  0.0715 -0.7525 -0.0064
  646MOL0     C85203   0.071   2.766  10.585 -0.2833  0.5672 -0.0101
  646MOL0     C85204   0.015   2.870  10.612 -0.5139  0.2341 -0.6860
  646MOL0     C85205   0.700   2.446  10.738 -0.1517 -0.0550 -0.3233
  646MOL0     C85206   0.837   2.467  10.778 -0.4190  0.0182  0.2276
  646MOL0     H85207   1.335   2.624  10.677 -0.2056  0.0143  0.9820
  646MOL0     H85208   1.567   2.632  10.784  1.1628 -1.3683  0.2546
  646MOL0     H85209   1.700   2.288  10.970 -0.3581 -0.7141  1.3404
  646MOL0     H85210   1.769   2.372  11.107  1.7942  0.1112 -0.0182
  646MOL0     H85211   1.866   2.373  10.836 -2.4511  0.7330  0.1629
  646MOL0     H85212   1.932   2.283  10.984  1.8594  0.5627  0.6980
  646MOL0     H85213   2.080   2.465  10.976  0.9442  2.8101  3.6681
  646MOL0     H85214   1.957   2.511  11.094  0.6386 -0.4976  0.6882
  646MOL0     H85215   1.956   2.605  10.800  0.9990  1.4246 -0.4068
  646MOL0     H85216   1.854   2.662  10.930  1.2669  1.4291  0.9099
  646MOL0     H85217   2.021   2.809  10.888 -0.9368  1.4398  2.5890
  646MOL0     H85218   2.153   2.687  10.913 -1.0787 -3.2774 -1.9690
  646MOL0     H85219   2.100   2.677  11.155  0.1719 -0.5031  0.0252
  646MOL0     H85220   1.970   2.785  11.138  0.5075 -0.9662 -1.7435
  646MOL0     H85221   2.198   2.870  11.230  3.9303  0.4723 -0.2868
  646MOL0     H85222   2.267   2.809  11.091  1.2537  0.0464  3.0391
  646MOL0     H85223   2.180   2.979  10.942  1.7452 -0.8256 -0.1478
  646MOL0     H85224   2.266   3.041  11.085 -0.9658  0.0166  1.8051
  646MOL0     H85225   1.893   2.964  10.972  0.3676  2.4982 -2.3692
  646MOL0     H85226   1.692   3.167  10.935 -1.2500  1.6330  0.7421
  646MOL0     H85227   1.654   3.242  11.093 -2.7761  0.8849 -1.2427
  646MOL0     H85228   1.652   2.945  11.047  0.5885 -0.6244  0.7995
  646MOL0     H85229   1.514   3.050  11.036 -1.4318  1.6403  2.3089
  646MOL0     H85230   1.535   3.129  11.281 -2.5781 -2.5453 -0.9603
  646MOL0     H85231   1.515   2.960  11.249  1.2545 -1.4664 -1.9118
  646MOL0     H85232   1.760   3.106  11.337 -1.9708  1.3423 -0.4408
  646MOL0     H85233   1.759   2.925  11.297  2.5486 -0.7572  2.5972
  646MOL0     H85234   1.628   2.941  11.716 -1.0441 -0.8064 -0.7150
  646MOL0     H85235   1.775   2.906  11.893 -2.4420  1.8231  0.0220
  646MOL0     H85236   2.407   2.773  11.879  1.1913 -2.9553  1.9594
  646MOL0     H85237   2.573   2.772  12.055 -0.6398 -0.2447 -1.5531
  646MOL0     H85238   2.707   2.954  12.265 -0.1565 -0.0935  0.8020
  646MOL0     H85239   2.677   2.780  12.227  1.0458  0.7646 -0.5030
  646MOL0     H85240   2.668   2.751  12.480 -0.0010  0.0017 -1.2070
  646MOL0     H85241   2.722   2.917  12.498 -1.2201 -2.9568  3.8418
  646MOL0     H85242   2.890   2.736  12.336 -1.1254  2.4639 -1.6113
  646MOL0     H85243   2.898   2.737  12.515  0.0159 -1.3230 -0.5633
  646MOL0     H85244   2.928   2.970  12.309  0.0905  0.6314  0.4774
  646MOL0     H85245   2.934   2.990  12.490  0.3154 -3.3551  2.2843
  646MOL0     H85246   3.144   2.847  12.323  0.6369  0.4306 -0.9030
  646MOL0     H85247   3.147   2.860  12.496 -3.0656 -0.5807  0.0762
  646MOL0     H85248   3.150   3.113  12.480 -2.2509 -0.6570  0.8099
  646MOL0     H85249   3.165   3.108  12.315 -1.4399 -1.8866 -0.4881
  646MOL0     H85250   3.390   3.121  12.457  0.2480 -1.2449  2.8791
  646MOL0     H85251   3.362   2.958  12.505 -1.4627  0.7107  0.2818
  646MOL0     H85252   3.435   3.075  12.234 -1.4723 -0.6561 -2.4290
  646MOL0     H85253   3.364   2.906  12.241  1.0310 -1.6018  0.4439
  646MOL0     H85254   2.290   2.986  12.309 -2.1945  0.1040 -0.8817
  646MOL0     H85255   2.132   3.003  12.117 -1.5147 -3.1751  0.0156
  646MOL0     H85256   2.110   2.893  11.611 -0.3835 -1.5206 -0.1496
  646MOL0     H85257   1.956   2.938  11.436 -0.4580  0.5677  0.0711
  646MOL0     H85258   1.458   2.341  11.070  3.2784 -0.9761 -1.7359
  646MOL0     H85259   1.218   2.352  10.980  0.2994 -1.6788 -0.9044
  646MOL0     H85260   0.916   2.665  10.509 -0.6409 -0.5741 -0.9538
  646MOL0     H85261   0.691   2.645  10.461  1.9374  0.8394 -0.3590
  646MOL0     H85262   0.418   2.495  10.780  2.3534 -0.4698  0.1403
  646MOL0     H85263   0.459   2.347  10.699  3.4557  1.2293  0.0227
  646MOL0     H85264   0.265   2.423  10.526 -2.7233 -1.3851  0.0408
  646MOL0     H85265   0.229   2.341  10.676 -0.6824 -1.6620 -1.9798
  646MOL0     H85266   0.232   2.634  10.738 -0.9315 -0.6779  2.1430
  646MOL0     H85267   0.086   2.531  10.711 -0.6533 -1.0773 -2.6658
  646MOL0     H85268   0.231   2.658  10.485  1.5276 -0.1018  2.3501
  646MOL0     H85269   0.073   2.585  10.476 -1.9154  0.3422  0.9675
  646MOL0     H85270  -0.021   2.964  10.647 -0.3001 -0.1520  0.6290
  646MOL0     H85271   0.647   2.364  10.786  0.3974  1.3406  2.9593
  646MOL0     H85272   0.880   2.416  10.863  1.2216  0.8282 -0.0880
  647MOL0     O85273  10.803  10.772   5.130 -0.3504  0.3114 -0.0150
  647MOL0     C85274  10.854  10.753   5.026 -0.4612 -0.1556  0.9158
  647MOL0     O85275  10.806  10.801   4.905 -0.5466  0.3282  0.0695
  647MOL0     C85276  10.672  10.851   4.900 -0.2388 -0.4841 -0.2399
  647MOL0     C85277  10.558  10.801   4.963 -0.4347  0.2827  0.8686
  647MOL0     C85278  10.436  10.865   4.943 -0.5240 -0.0662 -0.0645
  647MOL0     C85279  10.419  10.985   4.880  0.9406 -0.3967  0.1417
  647MOL0     O85280  10.288  11.043   4.863 -1.4737  0.3127  0.2925
  647MOL0     C85281  10.277  11.186   4.870 -0.2695  0.6110  0.0254
  647MOL0     C85282  10.120  11.214   4.895 -0.5810  0.1935 -0.0925
  647MOL0     C85283  10.069  11.112   5.003  0.3455  0.6158  0.4977
  647MOL0     C85284   9.919  11.149   5.044 -0.7888  0.1865  0.0110
  647MOL0     C85285   9.881  11.041   5.150  1.0632 -0.4924  0.0393
  647MOL0     C85286   9.736  11.063   5.186 -0.1801  0.1995 -0.4429
  647MOL0     C85287   9.695  10.944   5.283  0.5424  0.6791  0.4125
  647MOL0     C85288   9.551  10.953   5.327 -0.6609  0.0515 -0.7375
  647MOL0     N85289   9.463  10.863   5.249  0.0207  0.2357  0.7994
  647MOL0     C85290   9.480  10.732   5.246  0.7470  0.0370 -0.0243
  647MOL0     C85291   9.403  10.692   5.140 -1.5399  0.9532 -0.4893
  647MOL0     C85292   9.378  10.545   5.099  0.3047 -0.2160  0.2542
  647MOL0     C85293   9.237  10.517   5.066  0.4576  0.2062 -0.3948
  647MOL0     C85294   9.160  10.490   5.204 -1.1557  0.4782  0.3893
  647MOL0     C85295   9.029  10.420   5.197 -1.0445  0.1711 -0.8157
  647MOL0     O85296   8.943  10.513   5.127 -0.0983  0.2062  0.2289
  647MOL0     C85297   8.818  10.458   5.103 -0.4512 -0.9153 -0.4245
  647MOL0     C85298   8.718  10.448   5.202  0.5638 -1.2506 -0.3217
  647MOL0     C85299   8.580  10.413   5.163 -0.3142 -0.1013 -1.0110
  647MOL0     C85300   8.540  10.379   5.029  0.5418  0.2404 -0.0041
  647MOL0     C85301   8.400  10.330   4.994  0.2656 -0.5447 -0.2977
  647MOL0     O85302   8.301  10.346   5.086  0.2396  0.0210  0.1793
  647MOL0     C85303   8.176  10.311   5.065  0.3403  0.1502 -0.7105
  647MOL0     C85304   8.084  10.371   5.144  0.7699 -0.2553 -0.1015
  647MOL0     C85305   7.948  10.345   5.122 -1.0119 -0.6398 -0.8969
  647MOL0     C85306   7.906  10.247   5.035  0.7096  0.0716 -0.2689
  647MOL0     O85307   7.769  10.227   5.028 -0.3456  0.4895  0.6342
  647MOL0     C85308   7.711  10.149   4.923  0.7843  0.2153 -0.0125
  647MOL0     C85309   7.567  10.196   4.875 -0.3285  0.2871  0.7493
  647MOL0     C85310   7.468  10.184   4.988 -0.1503 -0.2432  0.1934
  647MOL0     C85311   7.327  10.151   4.925 -0.4304 -0.0492  0.7227
  647MOL0     C85312   7.223  10.128   5.033 -0.0790 -0.0497 -0.0751
  647MOL0     C85313   7.086  10.092   4.978  0.2745 -0.3270 -1.0795
  647MOL0     C85314   6.988   9.999   5.054 -0.9963  0.3619  0.0077
  647MOL0     C85315   6.855   9.984   4.978  0.1767  0.5434 -0.8532
  647MOL0    Cl85316   6.746   9.884   5.069  0.0796 -0.1030  0.1422
  647MOL0     C85317   8.000  10.182   4.961  0.9853  0.4837 -0.2832
  647MOL0     C85318   8.131  10.218   4.972 -0.1209 -0.3881  0.3824
  647MOL0     O85319   8.384  10.288   4.882 -0.5484  0.4124  0.2856
  647MOL0     C85320   8.645  10.381   4.940 -0.2623 -0.4961  0.1381
  647MOL0     C85321   8.776  10.418   4.975 -0.2596 -0.2347 -0.2823
  647MOL0     N85322   9.342  10.801   5.081  0.2506  0.1975  0.1079
  647MOL0     N85323   9.379  10.903   5.147 -0.2528  0.0890 -0.5082
  647MOL0     C85324  10.531  11.037   4.816  0.5823  0.0766  0.2107
  647MOL0     C85325  10.654  10.965   4.818 -0.0937 -0.7558 -0.7196
  647MOL0     C85326  10.985  10.680   5.023 -0.3960 -1.3263 -0.2234
  647MOL0     C85327  11.067  10.675   4.908  0.6977 -0.7325  0.0234
  647MOL0     C85328  11.203  10.631   4.914  0.3168  0.5680 -0.9594
  647MOL0     C85329  11.262  10.587   5.029  0.1444 -0.5116  0.5567
  647MOL0     O85330  11.393  10.543   5.038  0.6101 -0.0572  0.2148
  647MOL0     C85331  11.494  10.581   4.938 -0.6553 -0.3787  0.8661
  647MOL0     C85332  11.615  10.661   5.003  0.6938  1.0481 -0.7966
  647MOL0     C85333  11.584  10.814   4.998  0.7361  1.1116  0.2852
  647MOL0     C85334  11.692  10.893   5.072 -0.2844  0.4964 -0.6268
  647MOL0     C85335  11.830  10.874   5.012 -0.1603  0.2508 -0.1644
  647MOL0     C85336  11.942  10.855   4.971  0.1764  1.1137 -0.4990
  647MOL0     C85337  11.183  10.590   5.141  0.0965  0.2938  0.5582
  647MOL0     C85338  11.050  10.633   5.144 -0.3510 -0.6676 -0.2286
  647MOL0     H85339  10.562  10.709   5.020  4.5650  0.4317  1.1422
  647MOL0     H85340  10.342  10.837   4.989 -0.7587  0.6622 -0.0927
  647MOL0     H85341  10.308  11.240   4.780 -0.6151  3.2779  1.4054
  647MOL0     H85342  10.340  11.235   4.945  0.2405  2.5250 -1.5473
  647MOL0     H85343  10.074  11.201   4.796 -0.5918  0.8219 -0.1781
  647MOL0     H85344  10.104  11.320   4.917  0.1892  0.0193  1.3800
  647MOL0     H85345  10.134  11.110   5.091 -0.9561 -0.9021  1.4747
  647MOL0     H85346  10.064  11.015   4.952  2.5734 -0.1012  1.5281
  647MOL0     H85347   9.917  11.246   5.094  0.3532 -0.5875  1.6643
  647MOL0     H85348   9.852  11.150   4.958 -0.3752  0.6371 -0.3101
  647MOL0     H85349   9.942  11.050   5.241 -0.7071 -0.0509  1.2454
  647MOL0     H85350   9.900  10.943   5.105 -1.9252 -1.9252  1.5806
  647MOL0     H85351   9.672  11.047   5.099  0.9996 -0.1290 -1.2692
  647MOL0     H85352   9.734  11.163   5.229 -0.0842  0.5277 -1.1908
  647MOL0     H85353   9.713  10.845   5.240  3.3942  0.6313  1.5391
  647MOL0     H85354   9.756  10.955   5.373 -1.7457 -1.8786  2.4529
  647MOL0     H85355   9.520  11.058   5.323 -1.6981 -0.1214  1.1577
  647MOL0     H85356   9.539  10.907   5.426  1.1120 -1.5959 -1.2288
  647MOL0     H85357   9.544  10.684   5.320  0.5570  0.3982  0.3789
  647MOL0     H85358   9.413  10.478   5.177 -4.9518  0.0277  3.2916
  647MOL0     H85359   9.439  10.536   5.009  3.2224  1.4826  1.9203
  647MOL0     H85360   9.232  10.427   5.003  1.3945  0.4133 -0.7771
  647MOL0     H85361   9.178  10.593   5.014  0.9926  0.1944 -1.0263
  647MOL0     H85362   9.218  10.432   5.276 -1.9110 -0.8665 -0.0375
  647MOL0     H85363   9.139  10.590   5.242 -1.1601  0.3518  0.7228
  647MOL0     H85364   8.984  10.408   5.296  1.7416  4.7672  1.3819
  647MOL0     H85365   9.033  10.323   5.147 -0.4480 -2.1349  3.2162
  647MOL0     H85366   8.749  10.471   5.304 -0.8579 -1.4300  0.1667
  647MOL0     H85367   8.499  10.415   5.235  0.0888  0.6228 -0.5634
  647MOL0     H85368   8.111  10.453   5.209 -1.3182  0.7524 -0.4169
  647MOL0     H85369   7.884  10.420   5.168  0.3234  0.4957 -0.8372
  647MOL0     H85370   7.699  10.042   4.941 -1.5028  0.3288 -0.4723
  647MOL0     H85371   7.774  10.160   4.834  0.9587  3.6741  0.4014
  647MOL0     H85372   7.533  10.139   4.788  0.9493 -0.4492  0.6955
  647MOL0     H85373   7.574  10.304   4.859  2.0565  0.2452  1.0126
  647MOL0     H85374   7.477  10.272   5.052  2.6152 -1.5918  1.8662
  647MOL0     H85375   7.482  10.094   5.050 -0.4254 -0.0819  0.4915
  647MOL0     H85376   7.284  10.232   4.865 -0.8924  0.7970  2.1445
  647MOL0     H85377   7.332  10.063   4.860 -0.1025  2.1647 -2.4991
  647MOL0     H85378   7.225  10.216   5.098  0.1428 -0.4826  0.5117
  647MOL0     H85379   7.249  10.039   5.091 -1.6653  1.3040  2.9347
  647MOL0     H85380   7.100  10.047   4.879 -0.8294 -1.5837 -0.7050
  647MOL0     H85381   7.032  10.185   4.959 -2.9162 -1.2751  2.0013
  647MOL0     H85382   7.039   9.903   5.065 -0.2729  0.8476  0.9610
  647MOL0     H85383   6.973  10.039   5.154 -1.6646 -0.0488  0.0815
  647MOL0     H85384   6.869   9.945   4.876  0.8026  1.6541 -1.2194
  647MOL0     H85385   6.811  10.084   4.973 -0.9776  0.1027  0.2627
  647MOL0     H85386   7.979  10.101   4.892 -0.0948 -0.6293  1.2915
  647MOL0     H85387   8.202  10.169   4.906  2.1666  2.4061  0.5855
  647MOL0     H85388   8.628  10.335   4.844  0.3508 -0.5909  0.0661
  647MOL0     H85389   8.845  10.409   4.892 -1.6983 -0.0598 -1.5415
  647MOL0     H85390  10.504  11.126   4.760 -2.9417  1.1123  3.1200
  647MOL0     H85391  10.744  11.007   4.774 -0.9665  1.4392 -0.4967
  647MOL0     H85392  11.032  10.722   4.816  0.0085  1.2868  1.2343
  647MOL0     H85393  11.254  10.632   4.818  2.1390  1.4171 -0.0176
  647MOL0     H85394  11.449  10.640   4.858  0.3567  1.4083  1.5238
  647MOL0     H85395  11.535  10.489   4.895 -1.0578 -0.6965  1.1591
  647MOL0     H85396  11.633  10.621   5.103  1.9353 -1.8820 -2.0837
  647MOL0     H85397  11.705  10.635   4.947  1.0744  1.2595 -0.2877
  647MOL0     H85398  11.489  10.840   5.047  0.9927 -0.7797  1.9223
  647MOL0     H85399  11.570  10.847   4.895 -2.0905  1.7026  0.7735
  647MOL0     H85400  11.667  11.000   5.065 -1.0847  0.2645 -1.6763
  647MOL0     H85401  11.697  10.871   5.179  1.6054  5.1342  0.4881
  647MOL0     H85402  12.036  10.831   4.926  0.3376  1.9100 -0.6056
  647MOL0     H85403  11.228  10.542   5.228  0.5074 -0.8316 -0.2443
  647MOL0     H85404  10.997  10.641   5.239 -1.1605  0.1665 -0.7404
  648MOL0     O85405   9.805   1.951   8.532  0.6061 -0.5776 -0.1746
  648MOL0     C85406   9.865   1.843   8.542  0.7388 -0.0540  0.3931
  648MOL0     O85407   9.818   1.714   8.516  0.1330  0.8320  0.2475
  648MOL0     C85408   9.682   1.715   8.483 -0.4027  0.3836 -0.4206
  648MOL0     C85409   9.584   1.718   8.589  0.2880  0.4136  0.7617
  648MOL0     C85410   9.448   1.688   8.563  0.1073 -0.8780 -0.0672
  648MOL0     C85411   9.409   1.672   8.431  0.7627 -0.8225  0.2004
  648MOL0     O85412   9.268   1.661   8.411 -0.0284  0.5734 -0.1965
  648MOL0     C85413   9.226   1.688   8.279  0.5386  0.0905 -0.3042
  648MOL0     C85414   9.085   1.646   8.262 -0.3711 -0.3995 -0.0600
  648MOL0     C85415   9.038   1.690   8.124 -0.6363  0.1432 -1.0590
  648MOL0     C85416   8.911   1.629   8.078  0.5648  0.6480  0.1242
  648MOL0     C85417   8.865   1.683   7.940 -0.0858 -0.2663 -0.4440
  648MOL0     C85418   8.752   1.601   7.887 -0.0024 -0.2548  0.4403
  648MOL0     C85419   8.719   1.654   7.740  0.9875 -0.2071  0.0990
  648MOL0     C85420   8.574   1.706   7.724  0.7455 -0.6224 -0.7129
  648MOL0     N85421   8.474   1.606   7.773  0.2222 -0.8579 -0.4740
  648MOL0     C85422   8.344   1.629   7.830  0.0544 -0.1206  0.8971
  648MOL0     C85423   8.304   1.508   7.871  0.4724 -0.3775  0.4169
  648MOL0     C85424   8.175   1.475   7.939 -0.6517  0.0274  0.2967
  648MOL0     C85425   8.172   1.334   8.007  0.0830 -0.3435 -0.8220
  648MOL0     C85426   8.038   1.308   8.071  0.1640  0.1364 -0.1324
  648MOL0     C85427   8.044   1.210   8.201  0.9743  1.1113  0.1608
  648MOL0     O85428   7.922   1.223   8.275  0.8300  0.1947 -0.3414
  648MOL0     C85429   7.905   1.315   8.376  0.1671 -0.2249 -0.0317
  648MOL0     C85430   8.009   1.408   8.418  0.0035  0.3019 -0.1954
  648MOL0     C85431   7.986   1.504   8.516 -0.3330  0.3913  0.0812
  648MOL0     C85432   7.860   1.510   8.580 -0.6423 -0.6134 -1.0279
  648MOL0     C85433   7.851   1.608   8.690  0.4182 -0.1045  0.3987
  648MOL0     O85434   7.965   1.681   8.704  0.3499  0.1469  0.3283
  648MOL0     C85435   7.955   1.810   8.743 -0.2764  1.0366  0.3175
  648MOL0     C85436   7.964   1.858   8.877  0.2604 -0.3324  0.9018
  648MOL0     C85437   7.986   1.991   8.906  1.2329  0.1505  0.0315
  648MOL0     C85438   7.988   2.089   8.806 -0.4658 -0.4908  0.7960
  648MOL0     O85439   8.008   2.226   8.818  0.2116  0.5539  0.7239
  648MOL0     C85440   8.021   2.273   8.954 -0.2141  0.9435  0.0137
  648MOL0     C85441   8.019   2.431   8.955  0.5509 -0.2020 -0.0293
  648MOL0     C85442   8.104   2.503   8.853 -0.2279  0.2552 -0.7362
  648MOL0     C85443   8.243   2.543   8.902 -0.4636 -0.7691 -0.1433
  648MOL0     C85444   8.306   2.625   8.792 -0.2290 -0.2711  0.7801
  648MOL0     C85445   8.404   2.722   8.854 -0.2756  0.3502  0.2868
  648MOL0     C85446   8.503   2.800   8.759  0.5443 -0.1453 -0.2330
  648MOL0     C85447   8.568   2.723   8.651 -0.6713  0.3279 -0.5104
  648MOL0    Cl85448   8.679   2.595   8.722  0.1768 -0.1576 -0.6372
  648MOL0     C85449   7.982   2.048   8.671 -0.3797  0.3209 -1.1792
  648MOL0     C85450   7.962   1.910   8.642  0.3546  0.4898  0.2669
  648MOL0     O85451   7.740   1.644   8.732 -0.7134 -0.6066 -0.2341
  648MOL0     C85452   7.761   1.421   8.550 -0.1039  0.5380  0.3773
  648MOL0     C85453   7.781   1.318   8.446 -0.0548  0.6376 -0.3178
  648MOL0     N85454   8.404   1.415   7.841 -0.1087  0.7413  0.2883
  648MOL0     N85455   8.495   1.472   7.773  0.7113  0.1295  0.3972
  648MOL0     C85456   9.503   1.685   8.326 -0.6687  0.5236  0.2335
  648MOL0     C85457   9.639   1.700   8.361  0.3093  0.0272  0.7423
  648MOL0     C85458  10.004   1.840   8.567 -0.5704 -0.4359 -0.2848
  648MOL0     C85459  10.096   1.735   8.532 -0.5097  0.7326  0.0685
  648MOL0     C85460  10.230   1.734   8.567  0.0753 -1.3498  0.8157
  648MOL0     C85461  10.289   1.845   8.620  0.0208  0.3323 -0.9706
  648MOL0     O85462  10.413   1.845   8.675  0.1573 -0.3645 -0.0630
  648MOL0     C85463  10.510   1.795   8.587  0.1554  0.4325 -0.0925
  648MOL0     C85464  10.624   1.894   8.571  0.6789 -0.1529  0.3666
  648MOL0     C85465  10.576   2.040   8.556 -0.6054  0.2445 -0.6403
  648MOL0     C85466  10.684   2.150   8.554 -0.0089  0.3476  0.1170
  648MOL0     C85467  10.736   2.173   8.416 -0.7432  0.4270  0.4603
  648MOL0     C85468  10.790   2.191   8.312 -0.0983  0.4396  0.0510
  648MOL0     C85469  10.203   1.942   8.670 -0.5702 -0.1646  0.7927
  648MOL0     C85470  10.064   1.947   8.641  0.3712  0.3642 -0.2810
  648MOL0     H85471   9.607   1.734   8.693  2.3783  0.6703  0.3013
  648MOL0     H85472   9.382   1.681   8.649  2.3660  1.3067  2.0229
  648MOL0     H85473   9.286   1.628   8.211 -1.7495 -1.4168 -1.1024
  648MOL0     H85474   9.237   1.795   8.255  1.9080  0.1871  0.6397
  648MOL0     H85475   9.023   1.701   8.334  1.2231  0.6125  0.5954
  648MOL0     H85476   9.078   1.538   8.277 -0.6448 -0.3958 -0.1633
  648MOL0     H85477   9.119   1.665   8.055  0.7200  0.7986  0.2387
  648MOL0     H85478   9.037   1.799   8.127  1.3549  0.2012  0.5366
  648MOL0     H85479   8.938   1.524   8.065  1.2196  0.5293  2.0612
  648MOL0     H85480   8.830   1.637   8.150  0.7483 -1.9066  0.7081
  648MOL0     H85481   8.957   1.673   7.880 -0.1297  0.7064 -0.6860
  648MOL0     H85482   8.847   1.790   7.944 -0.6648 -0.4069  1.2916
  648MOL0     H85483   8.673   1.595   7.963 -0.6725 -2.1515 -0.3362
  648MOL0     H85484   8.793   1.500   7.882  1.5487  0.3602  0.1388
  648MOL0     H85485   8.798   1.718   7.699  1.4566 -1.3625 -0.8368
  648MOL0     H85486   8.727   1.579   7.661 -0.5959  1.7909 -2.1261
  648MOL0     H85487   8.550   1.753   7.629  1.8388  0.8893 -0.2942
  648MOL0     H85488   8.567   1.792   7.791  1.9771 -0.6507 -0.5154
  648MOL0     H85489   8.284   1.717   7.849  0.6689  0.2636  1.0695
  648MOL0     H85490   8.099   1.467   7.861  0.9669 -1.1996 -1.2309
  648MOL0     H85491   8.160   1.551   8.016  0.9842 -0.6507  1.3200
  648MOL0     H85492   8.250   1.324   8.083 -1.2433 -0.1755  0.6124
  648MOL0     H85493   8.182   1.250   7.937 -0.4657 -0.3850 -0.8539
  648MOL0     H85494   8.001   1.407   8.098  1.7845  0.6490  0.3377
  648MOL0     H85495   7.971   1.262   7.998  0.3129 -0.2795 -0.0154
  648MOL0     H85496   8.134   1.219   8.263  0.6085  0.5164  0.7912
  648MOL0     H85497   8.030   1.109   8.161  0.1863  0.9114  0.8891
  648MOL0     H85498   8.103   1.423   8.368 -0.1421 -0.0705 -0.5928
  648MOL0     H85499   8.069   1.570   8.538  0.6663 -0.2850 -1.4735
  648MOL0     H85500   7.964   1.780   8.953  0.4222 -2.2338 -0.9754
  648MOL0     H85501   7.996   2.019   9.010 -2.9636  1.2188  0.3282
  648MOL0     H85502   8.120   2.242   8.987 -0.0708  0.2355 -1.0462
  648MOL0     H85503   7.940   2.228   9.013 -0.8396 -0.0025 -1.5032
  648MOL0     H85504   8.044   2.463   9.056  2.4214 -2.3865  0.2963
  648MOL0     H85505   7.917   2.456   8.926 -0.1580 -3.0080 -0.2718
  648MOL0     H85506   8.056   2.600   8.836  0.7414  1.0770  0.9746
  648MOL0     H85507   8.113   2.443   8.761  1.2377  0.1467 -0.5410
  648MOL0     H85508   8.245   2.601   8.995  1.1250 -0.5453 -0.2886
  648MOL0     H85509   8.313   2.461   8.921  1.2605  0.3454 -1.4348
  648MOL0     H85510   8.228   2.674   8.732 -0.3882 -1.6404 -0.1701
  648MOL0     H85511   8.356   2.552   8.728 -1.2281 -0.6280  0.3932
  648MOL0     H85512   8.461   2.666   8.928 -0.1356  0.3330  0.1655
  648MOL0     H85513   8.338   2.789   8.910 -1.7803 -0.5809 -0.2945
  648MOL0     H85514   8.448   2.878   8.705 -0.4148 -0.5165  0.2032
  648MOL0     H85515   8.583   2.852   8.813  0.1378 -0.4858  0.7079
  648MOL0     H85516   8.625   2.785   8.580  1.4655  1.3218  1.9086
  648MOL0     H85517   8.481   2.689   8.594 -1.5349  2.1834 -0.3720
  648MOL0     H85518   7.992   2.124   8.595  2.3009 -0.5658 -1.8094
  648MOL0     H85519   7.945   1.883   8.539  0.2156 -1.8851  0.8597
  648MOL0     H85520   7.676   1.419   8.617  0.7078  1.1179  1.4684
  648MOL0     H85521   7.712   1.238   8.423 -0.1988  0.5640  0.3424
  648MOL0     H85522   9.493   1.661   8.221  1.6620 -2.2012  0.4938
  648MOL0     H85523   9.721   1.693   8.289  0.0343 -0.8938  0.4975
  648MOL0     H85524  10.059   1.644   8.488 -0.5030  0.1135  1.2938
  648MOL0     H85525  10.292   1.647   8.549  0.5398 -0.5668 -1.8061
  648MOL0     H85526  10.483   1.764   8.486  0.0770 -0.1435  0.0997
  648MOL0     H85527  10.546   1.702   8.631 -3.3745  0.4417  3.4392
  648MOL0     H85528  10.682   1.887   8.664 -0.1502  3.5619  1.3008
  648MOL0     H85529  10.695   1.859   8.496 -0.5860 -0.5461 -0.6921
  648MOL0     H85530  10.516   2.053   8.646 -1.0798  1.6503 -1.1246
  648MOL0     H85531  10.516   2.046   8.465  2.3411  2.3096 -2.6635
  648MOL0     H85532  10.638   2.239   8.597  0.1249  1.3299 -1.6842
  648MOL0     H85533  10.763   2.114   8.620 -1.9173 -1.3795  1.5813
  648MOL0     H85534  10.839   2.208   8.219  0.5636  0.3178  0.3693
  648MOL0     H85535  10.245   2.022   8.731  0.0464 -0.5553  0.8799
  648MOL0     H85536  10.003   2.034   8.663 -1.6083 -0.1554 -3.2026
  649MOL0     O85537   7.890   0.476   2.918  0.9018 -0.3439 -0.4382
  649MOL0     C85538   7.933   0.361   2.940  0.6538  0.4717 -0.6903
  649MOL0     O85539   7.866   0.252   3.002  0.0558 -0.4741 -0.3817
  649MOL0     C85540   7.736   0.273   3.047  0.0718 -0.0349 -0.0161
  649MOL0     C85541   7.638   0.172   3.047 -0.1577  0.3521 -0.2121
  649MOL0     C85542   7.503   0.195   3.086  0.6778  0.0632  1.1976
  649MOL0     C85543   7.463   0.318   3.152 -0.3780  0.3738 -0.3083
  649MOL0     O85544   7.336   0.343   3.197 -0.0892 -0.6222  0.4623
  649MOL0     C85545   7.244   0.237   3.173  0.4355 -0.5900  0.4801
  649MOL0     C85546   7.108   0.287   3.221 -0.0827  0.3250 -0.8466
  649MOL0     C85547   7.001   0.176   3.234  1.3858 -0.2773  0.3341
  649MOL0     C85548   6.865   0.243   3.260  0.4289 -0.1024 -0.5664
  649MOL0     C85549   6.753   0.140   3.233 -0.0895 -0.0537  0.0727
  649MOL0     C85550   6.628   0.188   3.288 -0.7000 -0.3748 -0.7540
  649MOL0     C85551   6.525   0.081   3.281 -1.4313  0.4701 -0.4800
  649MOL0     C85552   6.387   0.139   3.310 -0.4697  0.1130  0.4352
  649MOL0     N85553   6.288   0.027   3.324 -0.1797 -0.2402  0.2605
  649MOL0     C85554   6.156   0.041   3.319  0.2685  0.9812  0.5232
  649MOL0     C85555   6.111  -0.087   3.328  0.1145 -0.8720  0.2005
  649MOL0     C85556   5.968  -0.126   3.322 -0.1823 -0.4738  0.2146
  649MOL0     C85557   5.852  -0.045   3.377 -0.1355  0.1466 -0.2581
  649MOL0     C85558   5.719  -0.122   3.378 -0.4226 -0.0857 -0.1874
  649MOL0     C85559   5.607  -0.049   3.448 -0.0568 -0.3593  0.3970
  649MOL0     O85560   5.481  -0.104   3.432  0.3853 -0.5576  0.0058
  649MOL0     C85561   5.380  -0.036   3.500 -0.2081 -0.5891  0.0026
  649MOL0     C85562   5.252  -0.094   3.500  0.5452  0.3091  0.0086
  649MOL0     C85563   5.144  -0.031   3.568 -0.1998 -0.4003 -0.2276
  649MOL0     C85564   5.157   0.096   3.621 -0.5008  0.2709 -1.3171
  649MOL0     C85565   5.047   0.185   3.664 -0.5345  0.9093  0.2111
  649MOL0     O85566   4.918   0.128   3.668 -0.0259 -0.0423  0.8362
  649MOL0     C85567   4.820   0.206   3.729 -0.3283  0.0058 -0.5765
  649MOL0     C85568   4.688   0.152   3.713 -0.8277 -0.3036  0.3980
  649MOL0     C85569   4.574   0.211   3.756 -0.6326  0.1179 -0.1130
  649MOL0     C85570   4.590   0.331   3.820  0.4874 -0.4672  1.1486
  649MOL0     O85571   4.493   0.402   3.876  0.2578 -0.3400 -1.1196
  649MOL0     C85572   4.394   0.323   3.933  0.3816 -0.1615 -0.0081
  649MOL0     C85573   4.303   0.406   4.022  0.2110 -0.8298  0.4048
  649MOL0     C85574   4.205   0.322   4.092  0.0165  0.4491  0.1560
  649MOL0     C85575   4.089   0.401   4.160  0.0318  0.0417  0.0017
  649MOL0     C85576   3.973   0.306   4.177 -1.1249  0.5849  0.6285
  649MOL0     C85577   3.859   0.363   4.257  0.3987  0.2376  0.5411
  649MOL0     C85578   3.752   0.254   4.291  0.6749  0.2248  0.2149
  649MOL0     C85579   3.694   0.172   4.173  0.2731 -0.0641 -0.0799
  649MOL0    Cl85580   3.591   0.275   4.071 -0.1400  0.5947 -0.0511
  649MOL0     C85581   4.714   0.394   3.836 -0.3387  0.4386 -0.5104
  649MOL0     C85582   4.832   0.333   3.801 -0.0826 -0.5292 -0.0077
  649MOL0     O85583   5.078   0.306   3.677  1.0910  0.1883  0.3025
  649MOL0     C85584   5.286   0.150   3.636  0.6495 -0.5697 -0.0275
  649MOL0     C85585   5.396   0.088   3.570  0.0302 -0.3985 -0.8923
  649MOL0     N85586   6.214  -0.171   3.351  0.3582  0.1103 -1.6202
  649MOL0     N85587   6.319  -0.100   3.347 -0.7035 -0.2985 -0.1695
  649MOL0     C85588   7.566   0.417   3.167 -0.3084  0.3467  0.1754
  649MOL0     C85589   7.694   0.391   3.118 -0.7455  0.3339  0.7099
  649MOL0     C85590   8.074   0.340   2.910 -0.1422  0.1147  0.0597
  649MOL0     C85591   8.141   0.220   2.941 -0.2326 -0.3056 -0.0160
  649MOL0     C85592   8.281   0.214   2.924  0.2074  0.6780 -0.4648
  649MOL0     C85593   8.346   0.327   2.872 -0.4314  0.8527  1.0645
  649MOL0     O85594   8.483   0.310   2.860  0.3712  0.4873 -0.0733
  649MOL0     C85595   8.562   0.429   2.851 -0.4941  0.1673 -0.7755
  649MOL0     C85596   8.716   0.392   2.859 -0.0494 -0.6103  0.1149
  649MOL0     C85597   8.753   0.290   2.962 -0.1060  0.6751  0.3444
  649MOL0     C85598   8.784   0.369   3.093  0.5092 -0.7598 -0.0452
  649MOL0     C85599   8.825   0.271   3.199  0.1862  0.6252  0.1291
  649MOL0     C85600   8.861   0.198   3.285  0.8915  0.3225 -0.6632
  649MOL0     C85601   8.283   0.442   2.829  0.4559 -1.1667  0.4630
  649MOL0     C85602   8.147   0.451   2.849  0.8955 -0.3050 -0.4070
  649MOL0     H85603   7.670   0.077   3.005 -3.5248 -0.0661 -2.1609
  649MOL0     H85604   7.443   0.106   3.070  1.2388 -0.2337  0.6819
  649MOL0     H85605   7.268   0.158   3.244 -1.5291 -1.4373  0.2688
  649MOL0     H85606   7.241   0.204   3.068  0.5467  1.4977 -0.2204
  649MOL0     H85607   7.071   0.367   3.156  0.3977  1.3895  0.1580
  649MOL0     H85608   7.116   0.325   3.323 -0.4785  1.8239 -1.3519
  649MOL0     H85609   7.009   0.095   3.307  0.5422 -0.7121 -0.0452
  649MOL0     H85610   6.993   0.132   3.134  0.2206  3.0158 -1.1654
  649MOL0     H85611   6.867   0.270   3.366  0.4816  3.0268 -1.2442
  649MOL0     H85612   6.837   0.333   3.203 -2.0227  0.5504  1.4713
  649MOL0     H85613   6.781   0.056   3.297 -1.8713  1.8380  3.6070
  649MOL0     H85614   6.743   0.125   3.125  1.2522  0.4862 -0.1448
  649MOL0     H85615   6.592   0.279   3.238  1.1979  1.1631  0.5230
  649MOL0     H85616   6.649   0.214   3.392 -0.6510  1.0826 -1.1081
  649MOL0     H85617   6.522   0.041   3.179 -1.2605 -2.9298  0.7162
  649MOL0     H85618   6.551   0.001   3.351 -1.0965  0.3593 -0.7298
  649MOL0     H85619   6.356   0.199   3.224  1.0592  1.1394  0.5755
  649MOL0     H85620   6.385   0.195   3.404 -0.5251 -2.2498  1.9140
  649MOL0     H85621   6.105   0.137   3.322  1.9700  1.8840  2.3921
  649MOL0     H85622   5.956  -0.224   3.368 -2.8171  0.0971  0.9334
  649MOL0     H85623   5.945  -0.149   3.218 -2.3159 -0.5858  0.6627
  649MOL0     H85624   5.842   0.044   3.314 -0.4412  0.8422  0.7518
  649MOL0     H85625   5.884  -0.023   3.479 -1.4260  0.3727  0.1053
  649MOL0     H85626   5.691  -0.151   3.276  0.0888 -4.2847  0.6804
  649MOL0     H85627   5.740  -0.215   3.432  1.3895  0.5843  0.3467
  649MOL0     H85628   5.601   0.046   3.394 -3.3157 -1.4253 -1.4008
  649MOL0     H85629   5.634  -0.030   3.552  0.4619  0.3350  0.1420
  649MOL0     H85630   5.238  -0.192   3.456 -0.5433  1.7851 -3.2901
  649MOL0     H85631   5.043  -0.071   3.571 -1.0683  1.5934 -1.0183
  649MOL0     H85632   4.681   0.062   3.652 -2.5985  0.6436 -0.8977
  649MOL0     H85633   4.478   0.165   3.738  0.0856 -1.4413 -0.1252
  649MOL0     H85634   4.446   0.245   3.990  1.2417  0.6055  0.2649
  649MOL0     H85635   4.332   0.265   3.863 -0.4372 -2.1106  2.1937
  649MOL0     H85636   4.241   0.475   3.962  1.3041 -1.3790 -1.4482
  649MOL0     H85637   4.351   0.479   4.088 -0.7176  4.0934 -3.6645
  649MOL0     H85638   4.238   0.255   4.173 -1.0520  0.3851  0.5508
  649MOL0     H85639   4.161   0.259   4.015  3.3631  0.7141 -2.1748
  649MOL0     H85640   4.131   0.433   4.256  2.2834 -0.8730 -0.6329
  649MOL0     H85641   4.062   0.481   4.091 -1.0983 -2.9256 -3.2788
  649MOL0     H85642   4.008   0.220   4.236 -0.3798 -1.0592 -2.0603
  649MOL0     H85643   3.949   0.279   4.074  1.6077  0.7294 -0.1134
  649MOL0     H85644   3.812   0.449   4.209 -1.2128  0.4728  2.4222
  649MOL0     H85645   3.899   0.394   4.353 -1.3550  0.1053  1.3574
  649MOL0     H85646   3.784   0.186   4.370 -1.3931 -1.3258 -0.1805
  649MOL0     H85647   3.663   0.297   4.338  0.5593 -1.1040  1.2941
  649MOL0     H85648   3.631   0.091   4.211  0.8372 -0.3952  0.1699
  649MOL0     H85649   3.771   0.124   4.111 -1.8418 -2.8087 -0.7555
  649MOL0     H85650   4.727   0.479   3.902  1.8756 -0.2760  0.0463
  649MOL0     H85651   4.921   0.392   3.819  0.7320 -1.2909 -1.3223
  649MOL0     H85652   5.305   0.250   3.674  0.3923 -0.8150  0.7715
  649MOL0     H85653   5.487   0.147   3.580 -1.0875  1.2571 -0.1045
  649MOL0     H85654   7.553   0.508   3.224  0.2213  1.8852 -2.0193
  649MOL0     H85655   7.767   0.467   3.144 -0.0584 -1.0474  3.0508
  649MOL0     H85656   8.095   0.127   2.973  1.1265 -1.2905 -0.8116
  649MOL0     H85657   8.343   0.126   2.943  0.5649  0.9513 -0.3640
  649MOL0     H85658   8.526   0.484   2.938 -0.6810 -1.3675  0.1643
  649MOL0     H85659   8.542   0.497   2.768  0.1162  1.1215 -0.1568
  649MOL0     H85660   8.753   0.354   2.763 -1.5636 -2.3711  0.1749
  649MOL0     H85661   8.775   0.482   2.874  2.1224 -1.9519  0.0463
  649MOL0     H85662   8.846   0.241   2.934  0.7457  2.1969  0.3732
  649MOL0     H85663   8.677   0.212   2.970  1.1480 -0.5010  1.2344
  649MOL0     H85664   8.861   0.446   3.083 -2.1453  1.8947 -1.9450
  649MOL0     H85665   8.701   0.432   3.125  1.3065 -0.4986  1.5994
  649MOL0     H85666   8.884   0.131   3.366  0.4973 -0.9229 -1.5532
  649MOL0     H85667   8.333   0.522   2.776  2.2595 -2.7415 -0.3237
  649MOL0     H85668   8.086   0.532   2.811  1.4201 -0.0151 -0.6546
  650MOL0     O85669  10.265   4.644   1.683  0.3389 -0.3224  0.1291
  650MOL0     C85670  10.332   4.586   1.601 -1.0939 -0.1969  0.1312
  650MOL0     O85671  10.288   4.504   1.506 -0.4346  0.5016 -0.1590
  650MOL0     C85672  10.154   4.482   1.488  0.0384  0.3472  0.7650
  650MOL0     C85673  10.066   4.464   1.588  0.4606  1.1101 -0.6641
  650MOL0     C85674   9.936   4.419   1.553 -0.2059  0.7749 -0.3854
  650MOL0     C85675   9.899   4.399   1.416 -0.1960  0.0446 -0.8486
  650MOL0     O85676   9.778   4.355   1.383  0.1933 -0.2491 -0.2019
  650MOL0     C85677   9.671   4.362   1.481 -0.3356  0.1698 -0.9352
  650MOL0     C85678   9.539   4.317   1.418 -0.4749 -1.5580  0.1815
  650MOL0     C85679   9.447   4.259   1.524  0.8106 -0.4000  0.6690
  650MOL0     C85680   9.306   4.223   1.465  0.1836  0.3078  0.1052
  650MOL0     C85681   9.217   4.168   1.572 -0.0973  0.2052 -0.2647
  650MOL0     C85682   9.083   4.129   1.517  0.1184  0.3697 -0.0748
  650MOL0     C85683   9.005   4.050   1.630 -1.0152 -1.1339 -0.6120
  650MOL0     C85684   8.882   3.990   1.575  0.2849  0.4848  0.0098
  650MOL0     N85685   8.776   3.972   1.677 -0.4324 -0.1694  0.6649
  650MOL0     C85686   8.726   4.075   1.746 -0.0205 -0.3616 -0.4486
  650MOL0     C85687   8.615   4.023   1.807  0.7983 -0.5746  1.0846
  650MOL0     C85688   8.526   4.096   1.904 -0.2494  0.3465 -0.3203
  650MOL0     C85689   8.592   4.133   2.031 -0.2731 -0.6825  0.4752
  650MOL0     C85690   8.641   4.001   2.105 -0.3843 -0.4399  0.1970
  650MOL0     C85691   8.782   3.963   2.079 -0.1748  0.3070  1.0709
  650MOL0     O85692   8.859   4.076   2.108  0.1461 -0.2021  0.1461
  650MOL0     C85693   8.991   4.090   2.070  0.4476 -0.0132  0.6473
  650MOL0     C85694   9.050   4.217   2.088  0.6075  0.5885  0.2627
  650MOL0     C85695   9.182   4.236   2.040 -0.2423 -1.0422 -0.2749
  650MOL0     C85696   9.254   4.137   1.967  0.6385 -0.4586 -0.5860
  650MOL0     C85697   9.391   4.158   1.914  0.6575 -0.8878 -0.4983
  650MOL0     O85698   9.470   4.043   1.887  0.2594 -0.4619  0.1344
  650MOL0     C85699   9.590   4.057   1.818 -0.1952  0.2723 -0.0723
  650MOL0     C85700   9.614   3.988   1.698 -0.4358  0.3473 -0.2005
  650MOL0     C85701   9.742   4.002   1.645 -0.0431  0.5779 -0.2845
  650MOL0     C85702   9.839   4.088   1.697  0.9363 -0.3768  0.1293
  650MOL0     O85703   9.964   4.092   1.629 -0.4874  0.2231 -0.3446
  650MOL0     C85704  10.074   4.130   1.703 -0.6109  0.2983  0.0244
  650MOL0     C85705  10.203   4.106   1.616  0.5465  0.7562 -0.4682
  650MOL0     C85706  10.330   4.157   1.688 -0.8627  0.2889  0.3955
  650MOL0     C85707  10.442   4.175   1.582  0.6244  0.6751 -0.1079
  650MOL0     C85708  10.562   4.240   1.629 -0.6941  0.8399 -0.1315
  650MOL0     C85709  10.664   4.256   1.512 -0.2746 -0.1880  0.8753
  650MOL0     C85710  10.792   4.324   1.573  0.8810  0.0546 -0.0061
  650MOL0     C85711  10.909   4.321   1.482  0.3405 -0.8379  0.4714
  650MOL0    Cl85712  11.033   4.441   1.534  0.5932 -0.0322 -0.0914
  650MOL0     C85713   9.805   4.157   1.812 -0.4998  0.0670  0.2329
  650MOL0     C85714   9.684   4.147   1.869 -0.2803  0.7835 -0.6058
  650MOL0     O85715   9.423   4.270   1.897 -0.4487 -0.2416 -0.1166
  650MOL0     C85716   9.183   4.019   1.954 -0.0596 -0.3893  0.2313
  650MOL0     C85717   9.059   3.993   2.000  0.0723 -0.0626 -0.6956
  650MOL0     N85718   8.604   3.886   1.766 -0.0412 -0.7407 -0.0044
  650MOL0     N85719   8.695   3.861   1.686  0.3997 -1.3353  0.5545
  650MOL0     C85720   9.992   4.427   1.321 -0.4654  0.3090 -0.4343
  650MOL0     C85721  10.120   4.468   1.355 -0.3735  0.2129 -0.0387
  650MOL0     C85722  10.470   4.628   1.592 -1.3160 -0.8521 -0.0460
  650MOL0     C85723  10.546   4.601   1.475 -0.2620 -0.3811  0.0259
  650MOL0     C85724  10.678   4.641   1.459 -0.6355 -0.1036 -0.4306
  650MOL0     C85725  10.744   4.699   1.568  0.0611  0.1189  0.3991
  650MOL0     O85726  10.881   4.705   1.566 -0.2632 -0.3890 -0.0127
  650MOL0     C85727  10.948   4.770   1.670 -0.6919  0.2887 -0.1922
  650MOL0     C85728  11.095   4.791   1.628  0.6890 -1.1752  0.2293
  650MOL0     C85729  11.101   4.849   1.480  0.3539 -0.5651  0.2563
  650MOL0     C85730  11.240   4.900   1.444  0.2584 -0.2091  0.4160
  650MOL0     C85731  11.232   4.956   1.307  0.6960 -0.4355  0.2901
  650MOL0     C85732  11.236   5.010   1.201  0.4190 -0.5528  0.4799
  650MOL0     C85733  10.665   4.747   1.671  0.3503 -0.7151  0.4904
  650MOL0     C85734  10.530   4.710   1.685 -0.3518  0.3064 -0.3229
  650MOL0     H85735  10.086   4.478   1.694  0.0166  2.1777 -0.7016
  650MOL0     H85736   9.867   4.391   1.632 -1.3027  0.8324 -1.2809
  650MOL0     H85737   9.669   4.462   1.525 -0.2255 -0.0318 -0.4656
  650MOL0     H85738   9.691   4.293   1.563 -1.2385  2.2494  1.1414
  650MOL0     H85739   9.554   4.254   1.330  0.2172 -2.0420  0.6329
  650MOL0     H85740   9.501   4.410   1.374  2.6644 -0.6083 -0.8197
  650MOL0     H85741   9.420   4.330   1.603  0.9302 -2.0774  2.2789
  650MOL0     H85742   9.487   4.165   1.562 -0.8532 -0.2632  2.9613
  650MOL0     H85743   9.255   4.311   1.426 -2.8572 -0.5059  1.9818
  650MOL0     H85744   9.327   4.141   1.395  0.3248  0.3941  0.0460
  650MOL0     H85745   9.197   4.242   1.651 -3.7329 -0.9943  0.1297
  650MOL0     H85746   9.257   4.077   1.617  0.5839 -0.2959 -1.8504
  650MOL0     H85747   9.094   4.071   1.425  0.2251 -0.0814  0.2211
  650MOL0     H85748   9.026   4.220   1.496 -0.4099 -0.0630 -0.5470
  650MOL0     H85749   9.066   3.973   1.679  0.9314  0.6206 -0.1160
  650MOL0     H85750   8.991   4.122   1.710  2.1872 -1.4718  0.4110
  650MOL0     H85751   8.902   3.893   1.527 -0.2765 -0.2927  1.2920
  650MOL0     H85752   8.830   4.055   1.504 -0.6613 -0.2278  0.0302
  650MOL0     H85753   8.763   4.177   1.743 -0.9794  0.1000  1.5673
  650MOL0     H85754   8.443   4.027   1.925  1.2474 -1.1986  0.7752
  650MOL0     H85755   8.481   4.183   1.854 -2.5156 -0.3071  0.4369
  650MOL0     H85756   8.522   4.187   2.095  1.5902  0.9695  1.2079
  650MOL0     H85757   8.670   4.206   2.009 -1.9234  0.7163 -0.9660
  650MOL0     H85758   8.627   4.024   2.211 -1.6725  1.3696 -0.3299
  650MOL0     H85759   8.571   3.922   2.078 -1.5987  0.9986 -1.0527
  650MOL0     H85760   8.795   3.939   1.973 -3.2520  0.8688  0.4823
  650MOL0     H85761   8.812   3.875   2.136 -0.8703  0.3573  1.5248
  650MOL0     H85762   8.996   4.304   2.126 -1.3472  1.2263 -3.4731
  650MOL0     H85763   9.224   4.336   2.037  1.6362 -1.8162 -2.2418
  650MOL0     H85764   9.532   3.927   1.663 -0.2317  0.4705 -0.9097
  650MOL0     H85765   9.766   3.954   1.550  1.2544  0.6325 -0.0000
  650MOL0     H85766  10.076   4.075   1.798 -0.5457 -1.6425 -1.0657
  650MOL0     H85767  10.075   4.235   1.735  1.4585  0.8036 -1.4964
  650MOL0     H85768  10.196   4.139   1.512 -0.2527 -0.1239 -0.7084
  650MOL0     H85769  10.220   3.998   1.605 -0.2590  0.7152 -1.4537
  650MOL0     H85770  10.362   4.087   1.766  1.6854 -1.6115 -2.1380
  650MOL0     H85771  10.309   4.258   1.722 -1.3069  0.5651 -0.6375
  650MOL0     H85772  10.458   4.071   1.551 -0.0231  1.6223 -4.0998
  650MOL0     H85773  10.402   4.231   1.497 -0.5107  1.5370  0.9513
  650MOL0     H85774  10.606   4.170   1.700 -0.3566 -2.6916 -3.4751
  650MOL0     H85775  10.537   4.337   1.673 -3.5131 -0.7270  2.0557
  650MOL0     H85776  10.618   4.325   1.442 -0.8659  0.8897  2.2753
  650MOL0     H85777  10.685   4.170   1.447  1.6347  0.8799 -0.0156
  650MOL0     H85778  10.768   4.429   1.593  0.7924  0.1159 -0.4212
  650MOL0     H85779  10.816   4.278   1.669 -1.0056 -1.8715 -0.3959
  650MOL0     H85780  10.873   4.357   1.385  2.5337 -5.1755 -2.2932
  650MOL0     H85781  10.944   4.217   1.482 -0.4257 -1.1116 -0.8094
  650MOL0     H85782   9.874   4.225   1.862 -1.0675  0.9944 -0.2211
  650MOL0     H85783   9.671   4.201   1.962 -1.2047 -1.8676  0.8761
  650MOL0     H85784   9.233   3.939   1.900  3.6707 -0.5372  3.3960
  650MOL0     H85785   9.018   3.895   1.980  1.5286 -1.1544  1.2988
  650MOL0     H85786   9.969   4.402   1.218 -0.9646  2.9055 -1.0218
  650MOL0     H85787  10.201   4.468   1.282 -0.0324 -1.8521  0.2751
  650MOL0     H85788  10.503   4.552   1.388 -1.5551  0.2711  0.2897
  650MOL0     H85789  10.735   4.621   1.369  0.0111 -0.4849  0.0535
  650MOL0     H85790  10.943   4.700   1.755 -2.0703  1.1044  0.4284
  650MOL0     H85791  10.896   4.863   1.693 -2.3066 -0.7804  0.6831
  650MOL0     H85792  11.156   4.852   1.695  1.3103  0.1353 -1.4430
  650MOL0     H85793  11.138   4.690   1.630  1.8635 -0.6827  2.1173
  650MOL0     H85794  11.019   4.920   1.471 -0.1063 -1.1819 -0.5194
  650MOL0     H85795  11.080   4.775   1.402 -1.3642 -0.0978  0.2375
  650MOL0     H85796  11.276   4.976   1.514  1.4483  0.1762 -0.5650
  650MOL0     H85797  11.312   4.819   1.435 -0.0884 -0.5870  0.9988
  650MOL0     H85798  11.232   5.054   1.104  0.7529 -0.5364  0.4737
  650MOL0     H85799  10.707   4.793   1.760 -2.6278 -2.5178  3.0754
  650MOL0     H85800  10.474   4.758   1.765  1.8983  0.7603  1.0621
  651MOL0     O85801   6.179   9.880  10.637  0.1625 -0.0908  0.3042
  651MOL0     C85802   6.134   9.985  10.589  0.4190  0.3503 -0.0422
  651MOL0     O85803   6.210  10.093  10.580 -0.1871  0.0136 -0.0270
  651MOL0     C85804   6.335  10.112  10.636 -0.3033  0.5285 -0.2195
  651MOL0     C85805   6.447  10.166  10.562 -0.1713  0.1011  0.0069
  651MOL0     C85806   6.575  10.165  10.615 -0.3244 -0.0272 -0.4068
  651MOL0     C85807   6.603  10.111  10.735 -0.1925 -0.0092  0.2080
  651MOL0     O85808   6.727  10.112  10.778 -0.1907 -0.1680  0.4829
  651MOL0     C85809   6.816  10.225  10.754 -0.4960  0.6900  0.2229
  651MOL0     C85810   6.934  10.210  10.855  0.3231  0.1024  1.3383
  651MOL0     C85811   7.008  10.074  10.831 -0.0478 -0.3979  0.5066
  651MOL0     C85812   7.109  10.057  10.944 -0.4201 -0.0663  0.3079
  651MOL0     C85813   7.201   9.931  10.922 -0.0196 -0.5156 -0.4399
  651MOL0     C85814   7.307   9.928  11.033  0.2167  0.3050  0.2665
  651MOL0     C85815   7.418   9.827  11.005  0.3100 -0.3612 -0.1503
  651MOL0     C85816   7.374   9.681  10.988  0.6778  0.4879 -0.0699
  651MOL0     N85817   7.322   9.636  11.111  0.1701  0.4175 -0.4755
  651MOL0     C85818   7.363   9.663  11.242 -0.3301 -0.4058 -0.6211
  651MOL0     C85819   7.275   9.599  11.325  0.0046 -0.0846  0.5619
  651MOL0     C85820   7.284   9.598  11.471  0.0784 -0.1748 -0.6825
  651MOL0     C85821   7.146   9.584  11.540 -0.0280  0.3125  0.1247
  651MOL0     C85822   7.171   9.570  11.694  0.7442 -0.3955 -0.4493
  651MOL0     C85823   7.033   9.552  11.772  0.5399 -0.9788 -0.6186
  651MOL0     O85824   6.922   9.639  11.738  0.0530  0.1842 -0.6506
  651MOL0     C85825   6.802   9.636  11.805  0.2622 -0.3188  1.0538
  651MOL0     C85826   6.775   9.540  11.893 -0.1102  0.7171  0.9993
  651MOL0     C85827   6.663   9.550  11.974 -0.0378  0.1255  0.1860
  651MOL0     C85828   6.579   9.661  11.977  0.2701 -0.5401  1.0974
  651MOL0     C85829   6.453   9.668  12.061 -0.3692 -0.5321  0.7215
  651MOL0     O85830   6.428   9.552  12.137  0.6856  0.1822  0.3076
  651MOL0     C85831   6.315   9.538  12.222 -0.5238  0.0505  0.2219
  651MOL0     C85832   6.183   9.589  12.196 -0.7856 -1.3723 -0.7777
  651MOL0     C85833   6.088   9.561  12.293  0.4986 -0.4599 -0.2407
  651MOL0     C85834   6.113   9.477  12.403  0.3635 -0.0996  0.1165
  651MOL0     O85835   6.010   9.454  12.490  0.5023 -0.8219  0.1107
  651MOL0     C85836   6.003   9.326  12.564  0.2716 -0.3821  0.1705
  651MOL0     C85837   5.863   9.283  12.607  0.4708 -0.0231  0.1831
  651MOL0     C85838   5.770   9.402  12.656 -0.7804 -0.3564  0.4988
  651MOL0     C85839   5.625   9.360  12.654 -0.2160  0.2830  0.3386
  651MOL0     C85840   5.534   9.466  12.700  0.1695 -1.2134  0.2309
  651MOL0     C85841   5.411   9.413  12.758  0.8592 -0.2836 -0.2756
  651MOL0     C85842   5.306   9.533  12.791 -0.5066  0.4103  0.1836
  651MOL0     C85843   5.202   9.489  12.886  1.3811 -0.4097  0.3570
  651MOL0    Cl85844   5.074   9.613  12.926 -0.1322 -0.5751  0.5609
  651MOL0     C85845   6.235   9.418  12.411 -1.4374 -0.5636  0.2931
  651MOL0     C85846   6.345   9.450  12.332 -0.0919 -0.1704 -0.0208
  651MOL0     O85847   6.397   9.775  12.072  0.0944  0.0341  0.0545
  651MOL0     C85848   6.616   9.763  11.882 -0.9170  0.0319  0.0454
  651MOL0     C85849   6.730   9.744  11.797 -0.6584 -0.8787  0.1243
  651MOL0     N85850   7.191   9.530  11.237  0.1527  0.2742 -0.5888
  651MOL0     N85851   7.225   9.548  11.113  0.5360  0.5891 -0.0548
  651MOL0     C85852   6.502  10.061  10.821  0.6420 -0.8018  0.5621
  651MOL0     C85853   6.368  10.062  10.767  0.2392  0.5545 -0.8158
  651MOL0     C85854   5.994   9.988  10.544  0.4647 -0.5103 -0.8535
  651MOL0     C85855   5.907   9.874  10.550 -0.3088  0.1713 -0.5274
  651MOL0     C85856   5.774   9.878  10.516  0.0156 -0.1633  0.4829
  651MOL0     C85857   5.711   9.998  10.466  0.3813  1.3898  0.4804
  651MOL0     O85858   5.581   9.989  10.426  0.8827 -0.2259  0.1073
  651MOL0     C85859   5.519  10.117  10.382 -0.8211 -0.1027 -0.7474
  651MOL0     C85860   5.484  10.193  10.514  1.0471  0.2229 -0.9078
  651MOL0     C85861   5.371  10.118  10.592 -0.3945 -0.3633 -0.7042
  651MOL0     C85862   5.316  10.192  10.716  0.2212  0.6891 -0.1368
  651MOL0     C85863   5.206  10.272  10.683 -0.5970  0.3203  0.1235
  651MOL0     C85864   5.122  10.348  10.645  0.8094 -0.0617 -0.5663
  651MOL0     C85865   5.792  10.116  10.469  0.0846  0.1189  0.8068
  651MOL0     C85866   5.933  10.109  10.505  0.8487  0.3699 -0.2815
  651MOL0     H85867   6.427  10.199  10.461 -0.9552  1.3365  0.5491
  651MOL0     H85868   6.657  10.214  10.562  1.4618  1.0891  3.0798
  651MOL0     H85869   6.751  10.312  10.770 -3.0769 -0.9046 -0.9745
  651MOL0     H85870   6.858  10.226  10.653  2.6846 -0.3242  1.4203
  651MOL0     H85871   6.885  10.196  10.951 -0.0677 -1.7537  0.8969
  651MOL0     H85872   7.003  10.296  10.864  0.4093 -0.0551  2.2933
  651MOL0     H85873   7.062  10.077  10.736 -1.3441 -0.6093 -0.2638
  651MOL0     H85874   6.942   9.986  10.830 -0.1792 -0.5250  4.4860
  651MOL0     H85875   7.175  10.144  10.945 -0.7175  0.1981  2.7415
  651MOL0     H85876   7.060  10.062  11.042 -2.9367  1.1697 -0.9346
  651MOL0     H85877   7.245   9.940  10.822 -0.9760 -1.9873 -1.0313
  651MOL0     H85878   7.149   9.836  10.936  0.6830 -0.4717  3.8674
  651MOL0     H85879   7.251   9.896  11.121  0.2047 -1.2427 -0.2832
  651MOL0     H85880   7.338  10.032  11.046 -1.9404  1.4827 -2.8541
  651MOL0     H85881   7.471   9.864  10.917  1.8310 -0.2771  0.7817
  651MOL0     H85882   7.486   9.838  11.090 -1.8531  3.4712  1.3473
  651MOL0     H85883   7.466   9.631  10.955  0.0045 -0.2886 -0.8113
  651MOL0     H85884   7.298   9.668  10.910 -1.2027 -1.7916  1.9722
  651MOL0     H85885   7.447   9.725  11.274 -2.1608  0.0420  4.0602
  651MOL0     H85886   7.335   9.687  11.509  0.3213 -0.8492  0.6585
  651MOL0     H85887   7.345   9.512  11.501 -0.5896 -0.2084  0.6791
  651MOL0     H85888   7.090   9.499  11.502 -3.8694  2.4234  0.5529
  651MOL0     H85889   7.078   9.667  11.520  0.5179  0.1921 -2.6515
  651MOL0     H85890   7.237   9.485  11.710  0.5729 -0.2822  0.9915
  651MOL0     H85891   7.219   9.660  11.732 -0.8572  0.0138  0.7031
  651MOL0     H85892   7.051   9.554  11.880 -0.9238  0.7714 -0.3556
  651MOL0     H85893   6.991   9.453  11.749 -0.3274 -0.4407 -1.4340
  651MOL0     H85894   6.846   9.461  11.912  0.5636  0.9353 -0.4520
  651MOL0     H85895   6.646   9.477  12.053 -2.2181 -1.6013 -1.6952
  651MOL0     H85896   6.156   9.659  12.118 -0.5141  1.4523  1.4755
  651MOL0     H85897   5.998   9.619  12.273  0.8579  0.4331  0.6770
  651MOL0     H85898   6.070   9.337  12.650  1.5445 -0.1154 -0.8168
  651MOL0     H85899   6.058   9.253  12.503 -0.6634 -0.7792 -0.2200
  651MOL0     H85900   5.880   9.210  12.687  0.2705  1.3230  1.4980
  651MOL0     H85901   5.822   9.234  12.518  2.8609 -0.5277 -0.7088
  651MOL0     H85902   5.785   9.490  12.593 -0.6637  1.9980  3.6188
  651MOL0     H85903   5.799   9.438  12.755  0.8029 -0.6297  0.1621
  651MOL0     H85904   5.590   9.314  12.561 -0.8726  0.6415  0.4045
  651MOL0     H85905   5.615   9.274  12.721  0.3990  0.4297  0.6344
  651MOL0     H85906   5.512   9.533  12.617 -0.7354 -0.4633  1.0570
  651MOL0     H85907   5.579   9.525  12.780  0.3474  0.7618 -1.2806
  651MOL0     H85908   5.438   9.360  12.849  2.6849  0.1072 -0.5510
  651MOL0     H85909   5.368   9.347  12.682 -0.0045 -0.0071 -0.0416
  651MOL0     H85910   5.350   9.620  12.841 -3.6780  1.5740  1.2250
  651MOL0     H85911   5.255   9.563  12.699  0.5125 -0.7383 -0.8038
  651MOL0     H85912   5.255   9.484  12.982 -0.3047 -0.3629  1.3179
  651MOL0     H85913   5.153   9.394  12.865  2.0507 -0.9989  1.3760
  651MOL0     H85914   6.254   9.344  12.488  0.7891  1.9123  2.3222
  651MOL0     H85915   6.440   9.399  12.345 -0.8562 -2.1035 -1.4691
  651MOL0     H85916   6.555   9.851  11.864 -1.6030 -0.7327 -1.5113
  651MOL0     H85917   6.764   9.816  11.723  0.6321 -1.6117 -0.0354
  651MOL0     H85918   6.525  10.018  10.918 -0.1484 -1.7086  0.3649
  651MOL0     H85919   6.292  10.032  10.838  2.4027 -0.5836  1.1335
  651MOL0     H85920   5.953   9.785  10.593  0.6437  2.3337  3.4306
  651MOL0     H85921   5.713   9.789  10.523  0.7125 -1.1948 -4.0636
  651MOL0     H85922   5.432  10.084  10.323  0.1266 -0.3312 -2.0561
  651MOL0     H85923   5.582  10.183  10.321  0.2796  1.4036  1.8640
  651MOL0     H85924   5.574  10.198  10.576  1.5911 -0.6352 -1.6015
  651MOL0     H85925   5.453  10.294  10.485  3.4469  1.3439  0.1615
  651MOL0     H85926   5.414  10.030  10.640 -0.9860  0.2230  0.9769
  651MOL0     H85927   5.288  10.086  10.528 -0.0860 -2.0192 -0.3059
  651MOL0     H85928   5.280  10.126  10.795 -0.0025  0.3422 -0.5214
  651MOL0     H85929   5.391  10.254  10.766 -1.9272  1.3152  2.5371
  651MOL0     H85930   5.040  10.412  10.621 -1.0966 -2.5944 -1.2143
  651MOL0     H85931   5.754  10.210  10.429  1.3697 -0.2230 -1.4113
  651MOL0     H85932   5.984  10.205  10.510  2.9990 -0.7778  2.0300
  652MOL0     O85933   2.728   9.464   8.066 -0.3159  0.0359  0.1598
  652MOL0     C85934   2.794   9.365   8.097 -0.4750  0.1226  0.6761
  652MOL0     O85935   2.752   9.263   8.175 -0.1093  0.0404  0.2772
  652MOL0     C85936   2.628   9.277   8.229 -0.5402  0.1870 -0.0029
  652MOL0     C85937   2.606   9.349   8.352  0.0081 -0.5708  0.7040
  652MOL0     C85938   2.478   9.348   8.413  0.0689 -0.0500 -0.9812
  652MOL0     C85939   2.371   9.288   8.348 -0.4907 -0.2152 -0.5646
  652MOL0     O85940   2.243   9.287   8.386 -0.2948  0.5440  0.0787
  652MOL0     C85941   2.201   9.402   8.465 -0.1571  0.2752 -1.0784
  652MOL0     C85942   2.046   9.414   8.451 -0.4536  0.2902 -0.3356
  652MOL0     C85943   1.990   9.534   8.530  0.3659  0.1910  0.1351
  652MOL0     C85944   1.847   9.567   8.489 -1.1245  0.0448  0.6163
  652MOL0     C85945   1.785   9.670   8.578  0.1791 -0.4827 -0.0102
  652MOL0     C85946   1.635   9.662   8.603  0.4524  0.0410 -0.1286
  652MOL0     C85947   1.566   9.795   8.617  0.1823  0.5109  0.2153
  652MOL0     C85948   1.412   9.783   8.607 -0.1953 -0.6170 -0.1975
  652MOL0     N85949   1.349   9.912   8.630 -0.3674 -0.6738 -0.6963
  652MOL0     C85950   1.383  10.028   8.555  0.1233  0.3440  0.0706
  652MOL0     C85951   1.317  10.124   8.620 -0.4089 -0.3154 -0.1168
  652MOL0     C85952   1.343  10.267   8.597  0.1640  0.2605 -0.7699
  652MOL0     C85953   1.232  10.338   8.518 -0.3545 -0.5038 -0.0536
  652MOL0     C85954   1.214  10.290   8.375  0.3808  1.2198  0.4665
  652MOL0     C85955   1.112  10.398   8.316  1.0662 -0.3314  0.0493
  652MOL0     O85956   1.164  10.534   8.290  0.1189 -0.7108 -0.3242
  652MOL0     C85957   1.285  10.544   8.218  0.3666 -0.1388  0.4062
  652MOL0     C85958   1.375  10.618   8.276  0.1247 -0.0704  0.6197
  652MOL0     C85959   1.504  10.632   8.215  0.2474  0.0700 -0.1781
  652MOL0     C85960   1.541  10.569   8.097  1.1100  0.1794  0.1999
  652MOL0     C85961   1.671  10.562   8.038 -0.1939  0.3418  0.6434
  652MOL0     O85962   1.680  10.496   7.917 -0.4466  0.2788 -0.6051
  652MOL0     C85963   1.803  10.496   7.860 -0.6557  0.7257  0.7152
  652MOL0     C85964   1.904  10.398   7.891 -0.5549  0.0119  0.0466
  652MOL0     C85965   2.028  10.392   7.826  0.0452 -0.1851 -0.3160
  652MOL0     C85966   2.049  10.490   7.731 -0.2064 -0.1576 -0.3765
  652MOL0     O85967   2.171  10.513   7.667  0.2775 -0.0773  0.1059
  652MOL0     C85968   2.284  10.427   7.684  0.0461 -0.4637  0.2387
  652MOL0     C85969   2.421  10.478   7.653  1.0047 -0.1616  0.1163
  652MOL0     C85970   2.535  10.379   7.661  0.6992 -0.5163 -0.7133
  652MOL0     C85971   2.672  10.439   7.633 -0.6355  0.6831  0.3510
  652MOL0     C85972   2.705  10.507   7.505 -0.4266 -0.5681  0.3159
  652MOL0     C85973   2.677  10.414   7.390  0.6261 -0.7077 -0.2518
  652MOL0     C85974   2.697  10.481   7.250 -0.5071  0.3365 -0.6239
  652MOL0     C85975   2.587  10.580   7.215 -0.2299  0.0914 -0.0034
  652MOL0    Cl85976   2.428  10.499   7.200  0.2412 -0.1987 -0.2303
  652MOL0     C85977   1.947  10.575   7.683 -0.8740 -0.5079  0.1337
  652MOL0     C85978   1.822  10.573   7.751  0.3810  0.0872  0.3160
  652MOL0     O85979   1.761  10.630   8.090 -0.0504  1.2429 -0.2992
  652MOL0     C85980   1.433  10.493   8.037 -0.0856 -0.4799 -0.1698
  652MOL0     C85981   1.305  10.484   8.090  0.1302  0.1091 -0.0572
  652MOL0     N85982   1.242  10.070   8.720  0.5714  0.2172 -0.0636
  652MOL0     N85983   1.262   9.942   8.732 -0.6355  0.0612  0.2342
  652MOL0     C85984   2.394   9.223   8.225 -0.5656  0.0466 -0.5515
  652MOL0     C85985   2.522   9.211   8.169 -0.4219  0.3649  0.0895
  652MOL0     C85986   2.936   9.370   8.047  0.0749 -0.3433  0.3486
  652MOL0     C85987   2.956   9.426   7.921  0.1135 -0.0355  0.3179
  652MOL0     C85988   3.086   9.449   7.880  0.2286 -0.4329 -0.2476
  652MOL0     C85989   3.197   9.420   7.966  0.4410  0.4500  0.8419
  652MOL0     O85990   3.329   9.447   7.924  0.6389 -0.4100  0.6156
  652MOL0     C85991   3.424   9.474   8.026 -0.6435  0.5111  0.1471
  652MOL0     C85992   3.502   9.598   7.985  0.3954  0.0692  0.1043
  652MOL0     C85993   3.625   9.535   7.917  0.4166 -0.7077  0.1797
  652MOL0     C85994   3.708   9.639   7.858 -0.0754  0.1590 -0.4022
  652MOL0     C85995   3.819   9.582   7.787  0.9617  0.5131 -0.5985
  652MOL0     C85996   3.916   9.527   7.737 -0.3161 -0.8457 -0.4695
  652MOL0     C85997   3.171   9.349   8.083  0.3478 -0.0630 -0.3052
  652MOL0     C85998   3.042   9.329   8.129  0.3392 -0.0305 -0.8658
  652MOL0     H85999   2.690   9.394   8.403 -0.3539 -1.8707  2.5567
  652MOL0     H86000   2.459   9.383   8.514 -0.3812  2.7896 -1.9588
  652MOL0     H86001   2.236   9.495   8.421 -2.0872  1.5637 -0.0397
  652MOL0     H86002   2.240   9.397   8.567 -0.7799  1.8481 -0.7331
  652MOL0     H86003   1.983   9.327   8.473  0.8003 -0.1018  2.0119
  652MOL0     H86004   2.009   9.440   8.351 -1.3897  0.4050  0.0262
  652MOL0     H86005   2.051   9.625   8.532 -0.1084  0.5340  3.0265
  652MOL0     H86006   1.993   9.504   8.635 -0.2385  2.7655  0.9776
  652MOL0     H86007   1.850   9.612   8.390  2.3802 -1.6423 -0.2059
  652MOL0     H86008   1.787   9.476   8.481 -1.5593  0.1296  2.4396
  652MOL0     H86009   1.802   9.769   8.534 -2.6925 -0.2322 -0.7923
  652MOL0     H86010   1.837   9.665   8.674 -3.0099  0.8144  1.9381
  652MOL0     H86011   1.619   9.594   8.688 -0.6601 -0.6837 -0.8970
  652MOL0     H86012   1.579   9.614   8.523  1.9267 -0.8095 -0.6785
  652MOL0     H86013   1.596   9.840   8.712  1.8175 -1.2813  0.6204
  652MOL0     H86014   1.610   9.856   8.538  2.8147 -1.0344  0.3472
  652MOL0     H86015   1.380   9.709   8.681 -0.7486 -0.1994 -0.0198
  652MOL0     H86016   1.395   9.755   8.502 -1.3282  3.9642 -1.4643
  652MOL0     H86017   1.464  10.035   8.483  2.0542 -1.7257  1.8689
  652MOL0     H86018   1.441  10.282   8.550  0.3794 -0.8319 -0.6909
  652MOL0     H86019   1.337  10.316   8.694  0.6109 -0.4252 -0.3905
  652MOL0     H86020   1.254  10.445   8.506  0.8449 -0.7879 -0.5486
  652MOL0     H86021   1.132  10.338   8.562 -1.2110  0.2076 -1.8915
  652MOL0     H86022   1.310  10.289   8.322  0.2168  2.2413  0.1287
  652MOL0     H86023   1.178  10.186   8.375  2.5476  0.4068  2.0476
  652MOL0     H86024   1.026  10.398   8.384 -0.1821 -1.9521 -1.4410
  652MOL0     H86025   1.076  10.357   8.222 -0.2968 -2.5521  1.4532
  652MOL0     H86026   1.344  10.679   8.361 -3.4702  3.4252 -2.7815
  652MOL0     H86027   1.587  10.694   8.246  1.4236 -1.0128 -1.0522
  652MOL0     H86028   1.877  10.335   7.974 -1.3997 -0.4358 -0.5535
  652MOL0     H86029   2.097  10.314   7.855 -2.6728 -3.0088 -0.9446
  652MOL0     H86030   2.264  10.333   7.631  3.1336 -0.5137 -1.0079
  652MOL0     H86031   2.291  10.401   7.791  0.5054  1.5304  0.7276
  652MOL0     H86032   2.443  10.550   7.732  1.1550 -1.0104  0.8594
  652MOL0     H86033   2.415  10.538   7.561 -1.5402  3.0623  2.1280
  652MOL0     H86034   2.528  10.299   7.587  1.2445  0.7197 -2.1565
  652MOL0     H86035   2.518  10.333   7.759 -1.3950 -0.2989 -0.9356
  652MOL0     H86036   2.693  10.503   7.719 -0.8235 -0.0453  0.9441
  652MOL0     H86037   2.747  10.359   7.641 -1.1316  0.2889  1.2449
  652MOL0     H86038   2.812  10.523   7.518 -0.2826  1.5041 -2.4545
  652MOL0     H86039   2.656  10.602   7.481 -1.7921 -1.4967 -0.7024
  652MOL0     H86040   2.575  10.375   7.392  1.0900 -2.0957 -1.7154
  652MOL0     H86041   2.736  10.323   7.401  0.5584 -0.8754 -1.2030
  652MOL0     H86042   2.794  10.532   7.257 -0.0339 -0.6514  0.5898
  652MOL0     H86043   2.695  10.404   7.172 -0.6071 -0.0420 -0.2535
  652MOL0     H86044   2.617  10.629   7.122 -0.2416 -2.5160 -1.4657
  652MOL0     H86045   2.589  10.652   7.297  0.1486  0.1092 -0.0297
  652MOL0     H86046   1.969  10.640   7.599  0.4890 -2.3250 -1.0112
  652MOL0     H86047   1.753  10.645   7.709  1.4022  0.2733 -1.1045
  652MOL0     H86048   1.452  10.449   7.940  0.1233  1.3966 -1.0029
  652MOL0     H86049   1.233  10.421   8.040  0.0024 -0.4684  0.8207
  652MOL0     H86050   2.317   9.173   8.168  2.2684 -3.6029 -1.5230
  652MOL0     H86051   2.538   9.164   8.072 -5.0073  3.2338 -2.4400
  652MOL0     H86052   2.874   9.460   7.859  0.9702 -1.5152 -1.7120
  652MOL0     H86053   3.110   9.498   7.786 -0.4062 -0.9251 -0.6826
  652MOL0     H86054   3.483   9.382   8.033 -0.1946  0.5428 -2.1840
  652MOL0     H86055   3.387   9.491   8.127  1.1155  0.8822  0.7686
  652MOL0     H86056   3.445   9.666   7.921 -1.8079  0.9058  2.7296
  652MOL0     H86057   3.539   9.659   8.068 -0.8047  0.1147  0.6358
  652MOL0     H86058   3.578   9.469   7.842 -0.2963 -1.0331  0.9046
  652MOL0     H86059   3.679   9.472   7.989  3.3898  2.0583  0.5929
  652MOL0     H86060   3.657   9.711   7.793 -0.1514  1.2342  0.8102
  652MOL0     H86061   3.749   9.711   7.930 -2.4764  0.4174  0.8236
  652MOL0     H86062   4.000   9.482   7.689 -0.7769 -1.8174 -0.3707
  652MOL0     H86063   3.250   9.313   8.149  1.9112  1.6664 -1.1411
  652MOL0     H86064   3.028   9.292   8.230  0.8821 -0.1196 -0.8184
  653MOL0     O86065   0.498   6.602  10.507  0.2112  0.1797 -0.6082
  653MOL0     C86066   0.620   6.591  10.504 -0.3896  0.2016 -0.2117
  653MOL0     O86067   0.689   6.491  10.433 -0.2789  0.6295  0.0061
  653MOL0     C86068   0.632   6.391  10.357 -0.4820  0.3299 -0.4267
  653MOL0     C86069   0.701   6.273  10.342 -0.4997  1.3021 -0.0876
  653MOL0     C86070   0.655   6.171  10.264 -0.3692  0.5918  0.4487
  653MOL0     C86071   0.535   6.175  10.193  0.4756  0.0678 -0.8300
  653MOL0     O86072   0.466   6.080  10.122  0.5634 -0.4743 -0.2206
  653MOL0     C86073   0.516   5.946  10.112 -0.2018 -0.3488 -0.2672
  653MOL0     C86074   0.448   5.852  10.214 -0.2072  0.1660 -0.7542
  653MOL0     C86075   0.294   5.865  10.209 -0.2336  0.3854  0.2282
  653MOL0     C86076   0.223   5.801  10.327  0.5151 -1.0201  0.2736
  653MOL0     C86077   0.071   5.810  10.320  0.6172 -0.2644 -0.4818
  653MOL0     C86078   0.006   5.700  10.400 -0.1114 -0.0852  0.7680
  653MOL0     C86079   0.016   5.723  10.553  0.1186  0.0793  0.5389
  653MOL0     C86080  -0.039   5.595  10.625 -1.0443 -0.8233 -0.5906
  653MOL0     N86081  -0.186   5.607  10.636  0.5669  0.6607  0.3508
  653MOL0     C86082  -0.258   5.690  10.721  0.6693 -0.7421  0.6192
  653MOL0     C86083  -0.392   5.681  10.685 -0.0322 -0.3221 -0.2973
  653MOL0     C86084  -0.512   5.751  10.744  0.0055 -0.0867 -0.0426
  653MOL0     C86085  -0.643   5.673  10.732 -0.1605  0.3607  0.2882
  653MOL0     C86086  -0.750   5.713  10.834 -0.5733 -0.1314  0.3650
  653MOL0     C86087  -0.875   5.628  10.812  0.5613 -0.6061 -0.5628
  653MOL0     O86088  -0.973   5.688  10.899 -0.6308  0.4172 -0.2147
  653MOL0     C86089  -1.111   5.664  10.868  0.0903 -0.0301 -0.1534
  653MOL0     C86090  -1.212   5.746  10.922  0.1730 -0.1732  0.1215
  653MOL0     C86091  -1.344   5.734  10.898 -0.6976 -0.4164  0.4802
  653MOL0     C86092  -1.393   5.638  10.813  0.0551 -0.1431 -0.4644
  653MOL0     C86093  -1.536   5.623  10.784  0.2450  0.5574 -0.6051
  653MOL0     O86094  -1.620   5.725  10.821  0.1113  0.0822 -0.0341
  653MOL0     C86095  -1.756   5.715  10.801 -0.9222 -1.0182  0.0698
  653MOL0     C86096  -1.823   5.614  10.855 -0.0236  0.5140  0.4345
  653MOL0     C86097  -1.959   5.585  10.844  0.0920 -0.5144  0.2320
  653MOL0     C86098  -2.039   5.674  10.768  0.0977 -0.0387 -0.0242
  653MOL0     O86099  -2.176   5.663  10.760 -0.0384 -0.0128 -0.8001
  653MOL0     C86100  -2.256   5.742  10.861  0.2798  0.5746  0.6726
  653MOL0     C86101  -2.399   5.686  10.843  0.2894 -0.0413  0.1024
  653MOL0     C86102  -2.494   5.735  10.954 -0.3785 -0.2712 -0.7180
  653MOL0     C86103  -2.634   5.668  10.937 -0.6047 -0.1269 -0.5677
  653MOL0     C86104  -2.738   5.744  11.015  0.7609 -0.2284  0.4660
  653MOL0     C86105  -2.876   5.738  10.939 -0.0076  0.2954 -0.7955
  653MOL0     C86106  -2.984   5.777  11.045  0.2984  0.0690  0.2070
  653MOL0     C86107  -3.128   5.780  10.990 -0.6021  0.3671 -0.4134
  653MOL0    Cl86108  -3.252   5.854  11.096  0.2277 -0.1138 -0.0660
  653MOL0     C86109  -1.976   5.783  10.704  0.1588  0.0327 -0.4135
  653MOL0     C86110  -1.832   5.804  10.724  0.6379  0.2215  0.0839
  653MOL0     O86111  -1.566   5.516  10.730 -0.9324  0.4551  0.6336
  653MOL0     C86112  -1.298   5.540  10.770  1.0252 -0.1194 -0.4036
  653MOL0     C86113  -1.163   5.554  10.793 -0.3064 -0.4809  0.2948
  653MOL0     N86114  -0.399   5.590  10.584  1.0001 -0.3225 -0.0595
  653MOL0     N86115  -0.283   5.544  10.553  0.3724 -0.4419  0.2724
  653MOL0     C86116   0.465   6.297  10.199  0.3574  0.5906 -0.0511
  653MOL0     C86117   0.513   6.402  10.284 -0.4363  0.2094  0.0082
  653MOL0     C86118   0.701   6.658  10.611  0.6387 -0.2539  0.6677
  653MOL0     C86119   0.837   6.658  10.606 -0.2272 -0.5019 -1.2657
  653MOL0     C86120   0.909   6.718  10.714 -0.2537  0.0515 -0.8795
  653MOL0     C86121   0.846   6.787  10.812 -0.7015 -0.5102 -0.1110
  653MOL0     O86122   0.929   6.867  10.894  0.8570 -0.5580 -0.3512
  653MOL0     C86123   0.884   6.969  10.980  0.2058 -0.3219 -0.2731
  653MOL0     C86124   0.861   6.908  11.120  0.2612 -0.0129 -0.1068
  653MOL0     C86125   0.744   6.976  11.191  0.3947  0.2528 -0.3616
  653MOL0     C86126   0.770   7.125  11.209  0.0856  0.1317  0.9660
  653MOL0     C86127   0.684   7.165  11.329 -0.0320 -0.0851  0.0419
  653MOL0     C86128   0.604   7.202  11.410 -0.4783 -0.0180 -0.5115
  653MOL0     C86129   0.711   6.789  10.816 -0.0391 -0.1504 -0.2307
  653MOL0     C86130   0.634   6.724  10.717 -0.6990 -0.3148 -0.8610
  653MOL0     H86131   0.799   6.269  10.388  0.7438  0.8188 -2.5781
  653MOL0     H86132   0.719   6.085  10.247 -0.9258  0.4640 -1.1160
  653MOL0     H86133   0.625   5.935  10.118 -0.0649  1.4720  1.7719
  653MOL0     H86134   0.477   5.917  10.014 -1.5299  2.5082 -0.6927
  653MOL0     H86135   0.481   5.875  10.315 -1.1923  0.2556 -0.4446
  653MOL0     H86136   0.471   5.746  10.197  0.6677 -0.7848  4.7128
  653MOL0     H86137   0.268   5.814  10.116 -0.6965  0.6736  0.2012
  653MOL0     H86138   0.266   5.971  10.201 -0.9675  0.1002 -1.3577
  653MOL0     H86139   0.255   5.697  10.333 -0.1848 -1.2283  0.5146
  653MOL0     H86140   0.248   5.849  10.422  1.6987  1.0719 -1.0149
  653MOL0     H86141   0.026   5.807  10.220 -0.4880 -0.6198  0.0137
  653MOL0     H86142   0.038   5.906  10.361 -0.1106 -0.5487 -0.3909
  653MOL0     H86143   0.043   5.610  10.350 -0.3149  0.4084 -0.2965
  653MOL0     H86144  -0.099   5.713  10.371  0.2260  0.2833 -0.3128
  653MOL0     H86145   0.125   5.725  10.566  0.3140  0.4139 -0.9108
  653MOL0     H86146  -0.035   5.816  10.576 -1.7057 -0.9783  0.9417
  653MOL0     H86147   0.002   5.592  10.727 -1.5400 -1.6556 -0.4090
  653MOL0     H86148  -0.017   5.498  10.580 -2.5150 -0.3687 -2.4137
  653MOL0     H86149  -0.223   5.753  10.803 -1.2505  0.4306  0.5956
  653MOL0     H86150  -0.518   5.848  10.692  0.0540 -0.7216 -1.2828
  653MOL0     H86151  -0.494   5.783  10.847  0.0293  1.5831 -0.5233
  653MOL0     H86152  -0.622   5.566  10.738 -4.5773 -0.6634  1.4737
  653MOL0     H86153  -0.677   5.682  10.628 -0.5614  0.0104  0.3867
  653MOL0     H86154  -0.700   5.705  10.931  1.6873 -2.1617 -0.8905
  653MOL0     H86155  -0.769   5.820  10.816 -2.9896 -0.3162  1.3659
  653MOL0     H86156  -0.847   5.527  10.843  0.2362 -0.1939  1.2341
  653MOL0     H86157  -0.917   5.628  10.711  0.2970  2.0645 -0.5339
  653MOL0     H86158  -1.182   5.823  10.993  1.9696 -0.2251 -0.5181
  653MOL0     H86159  -1.406   5.810  10.944 -3.2898 -2.3915  0.4857
  653MOL0     H86160  -1.752   5.545  10.900  0.8988  0.4271 -1.0979
  653MOL0     H86161  -2.002   5.503  10.902  1.3321 -1.8632 -0.6975
  653MOL0     H86162  -2.263   5.848  10.836  4.6630  0.9999  0.4581
  653MOL0     H86163  -2.213   5.737  10.962  1.9269  1.0272  0.0319
  653MOL0     H86164  -2.393   5.577  10.848  1.3098  0.0419  1.1199
  653MOL0     H86165  -2.443   5.719  10.748 -1.8269 -1.3887  0.5428
  653MOL0     H86166  -2.502   5.842  10.935 -1.4798 -0.6131 -2.4443
  653MOL0     H86167  -2.456   5.720  11.056  0.0764 -2.6300 -1.1655
  653MOL0     H86168  -2.670   5.681  10.835 -0.4630  2.2551 -0.3735
  653MOL0     H86169  -2.648   5.561  10.954  1.5677 -0.3944 -0.1796
  653MOL0     H86170  -2.710   5.850  11.020 -1.6335  0.4338  1.5287
  653MOL0     H86171  -2.759   5.719  11.119 -1.7451  1.2064  0.4017
  653MOL0     H86172  -2.889   5.636  10.902 -1.3372  0.2575 -0.2827
  653MOL0     H86173  -2.885   5.806  10.854 -1.1401  0.2071 -0.7558
  653MOL0     H86174  -2.993   5.707  11.129  1.1693  0.7085  0.8468
  653MOL0     H86175  -2.976   5.881  11.078 -1.0138 -0.0567  0.9879
  653MOL0     H86176  -3.158   5.677  10.966 -0.4442  0.8718 -3.2211
  653MOL0     H86177  -3.136   5.836  10.896 -0.0218 -0.4520 -0.9772
  653MOL0     H86178  -2.025   5.850  10.634  1.3227  0.0417 -1.2365
  653MOL0     H86179  -1.771   5.875  10.670  0.7610 -1.3171 -1.9080
  653MOL0     H86180  -1.328   5.446  10.725  2.2692 -0.9080  0.3648
  653MOL0     H86181  -1.090   5.483  10.754  1.2081 -1.1442  3.9052
  653MOL0     H86182   0.369   6.296  10.148  0.3774 -1.6938 -0.1385
  653MOL0     H86183   0.449   6.488  10.295 -1.7224 -0.5732 -1.0086
  653MOL0     H86184   0.884   6.618  10.517  1.4903  2.1099 -1.6543
  653MOL0     H86185   1.017   6.714  10.704 -0.0082  2.1977  0.3382
  653MOL0     H86186   0.791   7.020  10.951  0.7081  1.6147  1.2955
  653MOL0     H86187   0.956   7.050  10.988 -0.9519  0.5809  1.6928
  653MOL0     H86188   0.835   6.802  11.112 -0.8787  0.0844  1.7000
  653MOL0     H86189   0.956   6.906  11.174  0.4762  1.6529 -0.3785
  653MOL0     H86190   0.738   6.936  11.292 -3.0212  3.4393  0.9163
  653MOL0     H86191   0.648   6.961  11.141  1.0016 -0.2364 -1.4245
  653MOL0     H86192   0.875   7.149  11.227  0.3971  0.9248 -1.5759
  653MOL0     H86193   0.751   7.197  11.129  2.0406  0.3287  0.6383
  653MOL0     H86194   0.527   7.228  11.479 -0.1047  0.4785 -0.2719
  653MOL0     H86195   0.665   6.849  10.894  0.9766  0.8169 -0.3538
  653MOL0     H86196   0.527   6.729  10.703 -0.9540 -1.9809  0.1830
  654MOL0     O86197   5.612   4.152  10.734 -0.1312  0.0886  0.2365
  654MOL0     C86198   5.681   4.244  10.684  0.0596 -0.2992  0.8371
  654MOL0     O86199   5.644   4.327  10.578 -0.1553  0.0301 -0.1560
  654MOL0     C86200   5.517   4.312  10.527 -0.4125 -0.0459  0.5749
  654MOL0     C86201   5.523   4.321  10.393 -0.1815  0.4072  0.9879
  654MOL0     C86202   5.407   4.317  10.307  0.5176 -0.7762 -0.9688
  654MOL0     C86203   5.286   4.292  10.373  0.1422 -0.1522  0.0638
  654MOL0     O86204   5.179   4.277  10.282 -0.4555 -0.3908 -0.3400
  654MOL0     C86205   5.061   4.196  10.324 -0.9375 -1.2143 -0.1306
  654MOL0     C86206   4.984   4.158  10.198  0.5263 -0.3720  0.6107
  654MOL0     C86207   4.863   4.063  10.222 -0.5411 -0.0960  0.1304
  654MOL0     C86208   4.758   4.100  10.330  0.0230 -0.1584  0.5626
  654MOL0     C86209   4.632   4.014  10.328 -0.0404 -0.1295  0.2296
  654MOL0     C86210   4.557   4.007  10.189 -0.2249  0.6273 -0.4047
  654MOL0     C86211   4.412   3.960  10.192  0.3707 -0.2257 -0.0509
  654MOL0     C86212   4.320   4.040  10.286  0.2959 -0.4785  0.3053
  654MOL0     N86213   4.177   3.993  10.289 -0.2047 -0.3752 -0.6121
  654MOL0     C86214   4.135   3.863  10.299 -0.6198  0.8049 -0.3656
  654MOL0     C86215   4.001   3.868  10.283 -0.0741  1.2008  0.5774
  654MOL0     C86216   3.910   3.752  10.306  0.7030  0.0986  0.0921
  654MOL0     C86217   3.757   3.765  10.279 -0.9806  0.3143  0.2412
  654MOL0     C86218   3.728   3.754  10.127  1.3102 -0.5862  0.2365
  654MOL0     C86219   3.733   3.608  10.083  0.0849 -0.0028  0.0844
  654MOL0     O86220   3.624   3.528  10.140  0.3569 -0.5194  0.1864
  654MOL0     C86221   3.494   3.559  10.106  0.0660  0.7868 -1.1791
  654MOL0     C86222   3.464   3.640   9.998 -0.0887 -0.9831  0.1032
  654MOL0     C86223   3.329   3.680   9.974 -1.1425  0.2475  0.0848
  654MOL0     C86224   3.220   3.633  10.053 -0.5267  0.9269 -0.6641
  654MOL0     C86225   3.080   3.671  10.026  0.8281  0.6461 -1.2221
  654MOL0     O86226   2.977   3.636  10.113 -0.3744  0.0626  0.4842
  654MOL0     C86227   2.844   3.646  10.083 -0.2702 -0.4946 -0.7755
  654MOL0     C86228   2.790   3.640   9.952 -0.0612  0.4898  0.0566
  654MOL0     C86229   2.653   3.654   9.934 -0.3098 -0.2892  0.1687
  654MOL0     C86230   2.564   3.679  10.040  0.2998 -0.2097 -0.4339
  654MOL0     O86231   2.430   3.693  10.023 -0.7345  0.1905 -0.1300
  654MOL0     C86232   2.370   3.696   9.893 -0.0333  0.3774  0.3287
  654MOL0     C86233   2.225   3.673   9.902  0.5058 -0.0351 -0.3090
  654MOL0     C86234   2.141   3.782   9.970  0.0228 -0.1991  0.2880
  654MOL0     C86235   2.155   3.915   9.890  0.2914  0.7410  0.0159
  654MOL0     C86236   2.043   4.003   9.885  0.7363 -0.0893 -0.4440
  654MOL0     C86237   1.965   4.019  10.015  0.0793 -0.3319 -1.0734
  654MOL0     C86238   1.849   4.124  10.011  0.6208 -0.6573 -0.2384
  654MOL0     C86239   1.733   4.080   9.924  0.4667 -0.2156  1.1987
  654MOL0    Cl86240   1.609   4.206   9.923 -0.3553 -0.3207  0.1352
  654MOL0     C86241   2.615   3.672  10.171  0.2562 -0.2485 -0.4726
  654MOL0     C86242   2.758   3.651  10.195 -0.6629 -0.5041  1.2987
  654MOL0     O86243   3.065   3.730   9.926  0.0285  0.5126 -0.0206
  654MOL0     C86244   3.255   3.548  10.161  0.8452 -0.3644 -0.0454
  654MOL0     C86245   3.386   3.509  10.185  1.8374 -0.0536  0.2674
  654MOL0     N86246   3.959   3.997  10.266 -0.1496  0.5514 -0.2868
  654MOL0     N86247   4.062   4.069  10.282  0.2359  0.1911 -0.1158
  654MOL0     C86248   5.278   4.284  10.513  0.4431  0.2542  0.1722
  654MOL0     C86249   5.395   4.294  10.589 -0.1969 -1.1111 -0.3655
  654MOL0     C86250   5.819   4.258  10.721  0.3352  0.0111 -0.3166
  654MOL0     C86251   5.889   4.377  10.685  0.3806  0.6426  0.5359
  654MOL0     C86252   6.020   4.398  10.715  0.0634  0.0983  0.5985
  654MOL0     C86253   6.102   4.299  10.770  0.6084 -0.5395  0.0681
  654MOL0     O86254   6.238   4.330  10.787 -0.1755  0.1692  0.3642
  654MOL0     C86255   6.318   4.261  10.890  0.6048 -1.0143  0.4228
  654MOL0     C86256   6.465   4.310  10.884 -0.3202  1.0320 -0.2640
  654MOL0     C86257   6.556   4.257  11.003 -0.2395 -0.2240 -0.7123
  654MOL0     C86258   6.701   4.308  10.997  0.8818  0.2448  0.6655
  654MOL0     C86259   6.704   4.450  10.984  0.0372  0.0390  0.6978
  654MOL0     C86260   6.698   4.569  11.013 -0.4839 -0.2138 -0.4326
  654MOL0     C86261   6.038   4.182  10.807 -0.2836  0.4228 -0.4336
  654MOL0     C86262   5.902   4.162  10.794  0.5173 -0.1600  0.0811
  654MOL0     H86263   5.620   4.329  10.345 -0.1867  0.6657  1.0181
  654MOL0     H86264   5.411   4.320  10.199  1.0396  1.1364 -0.9387
  654MOL0     H86265   5.002   4.251  10.398  0.6015  4.1286 -2.3392
  654MOL0     H86266   5.096   4.098  10.357  1.6254 -0.3352 -0.0153
  654MOL0     H86267   5.059   4.105  10.139 -0.3282  0.0397 -0.9039
  654MOL0     H86268   4.957   4.250  10.145  1.0351 -1.5295 -1.8305
  654MOL0     H86269   4.901   3.962  10.242 -1.8684 -0.7349 -0.4554
  654MOL0     H86270   4.814   4.047  10.126 -0.9558  2.3298 -0.1187
  654MOL0     H86271   4.812   4.095  10.425  2.7660  2.7659 -0.6345
  654MOL0     H86272   4.727   4.203  10.312 -0.6278 -0.7878 -2.4612
  654MOL0     H86273   4.567   4.061  10.402  1.8899  0.1900  1.8119
  654MOL0     H86274   4.645   3.909  10.357  0.3894  0.3158  1.6994
  654MOL0     H86275   4.614   3.930  10.135  0.3979  0.5450  0.3578
  654MOL0     H86276   4.579   4.089  10.119 -0.7151  0.1503 -1.1394
  654MOL0     H86277   4.370   3.970  10.091  0.1786 -2.2194 -0.2112
  654MOL0     H86278   4.398   3.855  10.219 -1.4816 -0.7293 -2.5603
  654MOL0     H86279   4.333   4.148  10.278  0.9138 -0.3128  2.6745
  654MOL0     H86280   4.357   4.015  10.386 -2.7450 -1.9482  1.1960
  654MOL0     H86281   4.188   3.770  10.315 -0.1208  1.4799  2.6190
  654MOL0     H86282   3.924   3.715  10.408 -0.0408 -1.2228 -0.2641
  654MOL0     H86283   3.950   3.669  10.247 -4.4753 -2.4949 -0.2717
  654MOL0     H86284   3.715   3.860  10.313  1.6926  1.5993  0.2065
  654MOL0     H86285   3.718   3.681  10.338  4.0874 -0.2119  3.4651
  654MOL0     H86286   3.633   3.805  10.112  1.2506 -1.2642 -2.1885
  654MOL0     H86287   3.798   3.818  10.073  0.3578 -0.1157 -0.4745
  654MOL0     H86288   3.826   3.561  10.115  0.6825 -0.7072 -2.4418
  654MOL0     H86289   3.731   3.591   9.975 -2.5943 -2.1883  0.3502
  654MOL0     H86290   3.531   3.679   9.922 -1.7940 -3.2062 -2.7336
  654MOL0     H86291   3.306   3.751   9.896  0.6304 -1.8562 -2.5547
  654MOL0     H86292   2.863   3.626   9.873 -0.5269  2.1152 -0.7005
  654MOL0     H86293   2.619   3.643   9.832  0.6540 -0.6476 -0.1203
  654MOL0     H86294   2.413   3.615   9.832 -2.0622 -0.4988 -0.0399
  654MOL0     H86295   2.382   3.792   9.843  0.8678  0.0281 -0.1522
  654MOL0     H86296   2.202   3.575   9.946 -1.2860 -0.4327 -1.9505
  654MOL0     H86297   2.192   3.667   9.798 -2.7792  3.2851  0.3096
  654MOL0     H86298   2.178   3.806  10.071  2.8220 -0.8630 -0.4984
  654MOL0     H86299   2.033   3.763   9.966  0.0320 -0.2969 -4.6235
  654MOL0     H86300   2.252   3.961   9.915  0.1590  0.4238  1.1738
  654MOL0     H86301   2.174   3.885   9.786  0.5926  0.7453  0.0665
  654MOL0     H86302   1.979   3.955   9.811  1.5617 -2.6979  0.4461
  654MOL0     H86303   2.075   4.101   9.847  0.9271 -0.1230 -0.3715
  654MOL0     H86304   2.041   4.053  10.087 -0.4425 -2.4504  0.5965
  654MOL0     H86305   1.928   3.929  10.064  1.0635 -1.5506 -2.4983
  654MOL0     H86306   1.813   4.144  10.113 -0.7064  0.0642 -0.8161
  654MOL0     H86307   1.882   4.217   9.964 -2.8563 -0.1926 -2.1496
  654MOL0     H86308   1.701   3.981   9.957  0.2285 -0.1120  1.2823
  654MOL0     H86309   1.764   4.062   9.821  0.4830 -0.5715  1.2650
  654MOL0     H86310   2.541   3.666  10.249  2.4337 -0.4066  1.7022
  654MOL0     H86311   2.799   3.650  10.295  1.4519  0.0547  0.4875
  654MOL0     H86312   3.187   3.506  10.234  3.9726 -2.5783  1.8449
  654MOL0     H86313   3.411   3.442  10.266 -0.2190  0.4715  1.4138
  654MOL0     H86314   5.182   4.265  10.559 -1.0773 -0.9123 -3.1802
  654MOL0     H86315   5.390   4.291  10.697 -0.8452 -3.1122 -0.4052
  654MOL0     H86316   5.853   4.459  10.623  2.3670  1.1395 -0.0463
  654MOL0     H86317   6.071   4.489  10.683 -3.4251  1.7836 -0.6219
  654MOL0     H86318   6.314   4.152  10.877 -1.0651 -1.1407  1.6232
  654MOL0     H86319   6.273   4.288  10.986 -1.6547  0.7161 -1.0250
  654MOL0     H86320   6.517   4.280  10.792  0.8726  0.3744  0.5840
  654MOL0     H86321   6.453   4.418  10.893  0.1643  1.1667 -1.1969
  654MOL0     H86322   6.548   4.148  11.002 -4.2532 -0.0921  0.8859
  654MOL0     H86323   6.522   4.280  11.104 -1.7241 -0.0497 -1.2275
  654MOL0     H86324   6.756   4.281  11.088  0.2794 -2.4542  0.3004
  654MOL0     H86325   6.751   4.254  10.916  0.1843 -0.6485  0.8132
  654MOL0     H86326   6.703   4.674  11.035  2.3595 -0.8031  2.5623
  654MOL0     H86327   6.103   4.106  10.849 -1.7715 -0.0963  1.0484
  654MOL0     H86328   5.850   4.074  10.831 -4.1264  1.3806 -2.0076
  655MOL0     O86329   9.607   9.935   0.074 -0.7987 -0.2372  0.5923
  655MOL0     C86330   9.688   9.848   0.105 -0.4397 -0.1362  0.0391
  655MOL0     O86331   9.654   9.716   0.127 -1.3062  0.3738 -0.1483
  655MOL0     C86332   9.532   9.675   0.108  1.0723  0.7376 -0.3078
  655MOL0     C86333   9.432   9.716   0.200  0.1991 -0.6674 -0.0333
  655MOL0     C86334   9.302   9.660   0.189 -0.4199  0.0228  0.3006
  655MOL0     C86335   9.271   9.560   0.091  0.5217  0.1026 -0.5403
  655MOL0     O86336   9.149   9.495   0.064 -0.1234 -0.8107  0.4436
  655MOL0     C86337   9.034   9.575   0.059  0.0485  0.6978 -0.5377
  655MOL0     C86338   8.918   9.487   0.087 -0.0442 -0.6534  0.1312
  655MOL0     C86339   8.795   9.564   0.061 -0.2571 -0.4007 -0.6737
  655MOL0     C86340   8.663   9.474   0.090 -0.3831 -0.3041  0.3404
  655MOL0     C86341   8.543   9.566   0.064  0.6493  0.4771 -0.0036
  655MOL0     C86342   8.424   9.469   0.046  0.6521  0.4764 -0.0219
  655MOL0     C86343   8.291   9.541   0.029  0.7533 -0.4533 -0.1317
  655MOL0     C86344   8.267   9.635  -0.097 -0.0115 -0.3698 -0.1244
  655MOL0     N86345   8.282   9.562  -0.230 -0.2905 -0.0546 -0.1577
  655MOL0     C86346   8.181   9.487  -0.293  0.1382 -0.3904  0.2679
  655MOL0     C86347   8.234   9.459  -0.410 -0.4453 -1.0607 -0.0559
  655MOL0     C86348   8.159   9.397  -0.518  0.3888 -0.3039  0.7539
  655MOL0     C86349   8.135   9.247  -0.508  0.0712 -0.6980  0.6111
  655MOL0     C86350   8.026   9.208  -0.396  0.2740  0.0832 -0.0654
  655MOL0     C86351   7.891   9.278  -0.414  0.1059  0.6308 -0.9318
  655MOL0     O86352   7.839   9.244  -0.547 -0.2234  0.0000 -0.3690
  655MOL0     C86353   7.724   9.301  -0.573  0.3232  0.3830  0.1857
  655MOL0     C86354   7.640   9.381  -0.483  0.4812  1.2563 -0.2940
  655MOL0     C86355   7.521   9.432  -0.533  0.0822 -0.6548  0.7146
  655MOL0     C86356   7.472   9.397  -0.663 -0.7966  0.6018 -0.4431
  655MOL0     C86357   7.337   9.427  -0.710 -0.6576 -1.3098  0.2453
  655MOL0     O86358   7.310   9.392  -0.835  0.0971 -0.1481 -0.5273
  655MOL0     C86359   7.189   9.420  -0.879  0.0303 -0.2785  0.1591
  655MOL0     C86360   7.187   9.517  -0.979  0.2496  0.5077 -0.0079
  655MOL0     C86361   7.067   9.556  -1.027  0.2746  0.5423 -0.0145
  655MOL0     C86362   6.947   9.490  -0.992 -0.7711  0.0035 -0.4413
  655MOL0     O86363   6.837   9.517  -1.063  0.2940  0.6016  0.0660
  655MOL0     C86364   6.720   9.544  -0.988  0.1102  0.2370  0.2048
  655MOL0     C86365   6.613   9.578  -1.089  0.0413  0.2493 -0.4286
  655MOL0     C86366   6.478   9.586  -1.024  0.9184 -0.8332 -0.5957
  655MOL0     C86367   6.375   9.635  -1.121  0.4495 -0.0943  0.1899
  655MOL0     C86368   6.226   9.631  -1.067  0.0439  0.0611 -1.0353
  655MOL0     C86369   6.131   9.683  -1.175  0.0485  0.5414  0.3185
  655MOL0     C86370   6.113   9.600  -1.301  0.2659 -0.3669  0.2832
  655MOL0     C86371   5.970   9.617  -1.353 -0.4996 -0.3853  0.0285
  655MOL0    Cl86372   5.960   9.566  -1.528  0.2104 -0.1691 -0.4646
  655MOL0     C86373   6.952   9.384  -0.901 -0.1257  0.3162  0.1361
  655MOL0     C86374   7.072   9.351  -0.840  0.3425  0.1650 -0.2111
  655MOL0     O86375   7.262   9.484  -0.628  0.5899  0.3711 -0.4217
  655MOL0     C86376   7.557   9.330  -0.755 -0.0201  0.4497  0.4687
  655MOL0     C86377   7.676   9.287  -0.704 -0.4799  1.3002  0.0740
  655MOL0     N86378   8.366   9.495  -0.412  0.4850  0.7367 -0.1738
  655MOL0     N86379   8.392   9.549  -0.299 -0.2224 -0.4276 -0.0138
  655MOL0     C86380   9.370   9.510   0.010  0.2776  0.1913 -0.3320
  655MOL0     C86381   9.499   9.566   0.019  0.0872 -0.1545 -1.1282
  655MOL0     C86382   9.839   9.878   0.109  0.8147  0.9770  0.1143
  655MOL0     C86383   9.892   9.996   0.066 -0.4964 -0.1140  0.0859
  655MOL0     C86384  10.030  10.020   0.062  0.2166 -0.7539 -0.1068
  655MOL0     C86385  10.126   9.922   0.106  0.4126 -0.1024 -0.1266
  655MOL0     O86386  10.258   9.946   0.105 -0.6237 -0.8009 -0.3912
  655MOL0     C86387  10.311  10.084   0.100  0.3649  0.5429  0.3478
  655MOL0     C86388  10.450  10.095   0.160  0.4824  0.0846  0.6137
  655MOL0     C86389  10.443  10.078   0.312 -0.0979 -0.1920  0.1126
  655MOL0     C86390  10.582  10.068   0.382  0.2856 -0.4723  0.9092
  655MOL0     C86391  10.560  10.047   0.525  0.2715  0.1791 -0.3897
  655MOL0     C86392  10.556  10.018   0.649  0.4527 -0.8212 -1.4104
  655MOL0     C86393  10.070   9.798   0.152  0.3896  0.1584  0.9718
  655MOL0     C86394   9.929   9.782   0.147  0.0137  0.0698 -0.1853
  655MOL0     H86395   9.458   9.787   0.279 -0.2682  0.3731 -0.7951
  655MOL0     H86396   9.216   9.706   0.237 -0.3675 -0.8570  1.2507
  655MOL0     H86397   9.039   9.618  -0.041 -0.0214  1.9866 -0.0073
  655MOL0     H86398   9.034   9.652   0.136 -0.2368  0.0315  0.1473
  655MOL0     H86399   8.910   9.455   0.191  1.1632 -1.6115 -0.0545
  655MOL0     H86400   8.929   9.405   0.016  0.5481 -1.9388  1.6469
  655MOL0     H86401   8.796   9.596  -0.044 -0.0351  0.9960 -0.2601
  655MOL0     H86402   8.786   9.655   0.122  1.7477  0.3680 -1.4433
  655MOL0     H86403   8.669   9.387   0.024  1.1160 -0.8850  1.1968
  655MOL0     H86404   8.668   9.431   0.190  2.2856 -0.7101  0.1120
  655MOL0     H86405   8.555   9.613  -0.035 -0.7625 -1.1449 -0.9930
  655MOL0     H86406   8.534   9.641   0.143  1.8246 -0.7572  1.3484
  655MOL0     H86407   8.411   9.403   0.132  1.6511 -1.1769 -1.0963
  655MOL0     H86408   8.436   9.415  -0.049 -1.9740  1.8949 -1.2738
  655MOL0     H86409   8.216   9.462   0.020 -0.1245  0.5914 -2.6454
  655MOL0     H86410   8.262   9.593   0.121 -1.3814 -4.4413  1.7039
  655MOL0     H86411   8.337   9.719  -0.100  2.0270 -2.0108 -1.6285
  655MOL0     H86412   8.163   9.671  -0.098  0.7199  1.9090 -0.2396
  655MOL0     H86413   8.078   9.476  -0.258 -0.3631  0.2222 -0.9624
  655MOL0     H86414   8.200   9.415  -0.618 -3.6246 -0.4605 -1.1533
  655MOL0     H86415   8.064   9.447  -0.539  0.7146 -0.3424 -1.0232
  655MOL0     H86416   8.228   9.192  -0.491  0.1246 -1.0879 -0.8269
  655MOL0     H86417   8.085   9.226  -0.603  0.8400  1.5769 -0.3602
  655MOL0     H86418   8.006   9.101  -0.400  0.5227  0.0625 -0.9943
  655MOL0     H86419   8.055   9.229  -0.293  0.4787 -1.1589  0.1399
  655MOL0     H86420   7.912   9.384  -0.397  0.1039  0.6055 -0.7745
  655MOL0     H86421   7.825   9.246  -0.333  1.6934 -0.0442  0.1604
  655MOL0     H86422   7.660   9.385  -0.376 -1.0601  0.0175  0.0869
  655MOL0     H86423   7.453   9.482  -0.465 -0.6308 -2.0216  1.0530
  655MOL0     H86424   7.283   9.559  -1.009  2.0291 -2.1998  1.4368
  655MOL0     H86425   7.071   9.636  -1.101 -2.1339  1.7397  1.0614
  655MOL0     H86426   6.745   9.629  -0.923  1.0414  0.5908 -0.5980
  655MOL0     H86427   6.691   9.464  -0.920 -2.1065  0.9625  0.2015
  655MOL0     H86428   6.609   9.511  -1.175  2.7375  0.6291 -0.9453
  655MOL0     H86429   6.648   9.667  -1.142  2.6052  0.0648  0.7739
  655MOL0     H86430   6.478   9.664  -0.947  0.0949 -0.8785 -0.5416
  655MOL0     H86431   6.448   9.493  -0.975 -0.2112  0.5816  1.5567
  655MOL0     H86432   6.397   9.738  -1.151  2.5613 -0.7793 -0.8300
  655MOL0     H86433   6.377   9.569  -1.209  1.0790  0.0560  0.0884
  655MOL0     H86434   6.214   9.705  -0.988 -1.3868 -0.4907 -0.7114
  655MOL0     H86435   6.203   9.533  -1.025  1.6393  0.5065  1.0040
  655MOL0     H86436   6.164   9.782  -1.207  0.4544  0.4575  0.4728
  655MOL0     H86437   6.035   9.689  -1.123  0.2955 -0.7190  0.9648
  655MOL0     H86438   6.190   9.628  -1.374  1.6364 -0.3374  1.6872
  655MOL0     H86439   6.123   9.491  -1.290 -1.7394 -0.6045  0.1359
  655MOL0     H86440   5.949   9.724  -1.342  0.5618  0.0075 -1.5273
  655MOL0     H86441   5.901   9.559  -1.291 -1.0625  2.2490  2.0544
  655MOL0     H86442   6.865   9.323  -0.877  0.0379  0.1219  0.2347
  655MOL0     H86443   7.087   9.257  -0.789 -2.1135 -0.5863 -0.7622
  655MOL0     H86444   7.538   9.311  -0.860 -1.0937  0.6515  0.6073
  655MOL0     H86445   7.742   9.236  -0.774 -1.5182 -1.4420  0.9569
  655MOL0     H86446   9.339   9.432  -0.058 -1.6714 -1.1241  1.9042
  655MOL0     H86447   9.588   9.532  -0.032  0.1980 -0.3012 -0.8395
  655MOL0     H86448   9.830  10.076   0.029 -1.2642 -1.0816 -0.7456
  655MOL0     H86449  10.079  10.101   0.009  4.1569 -1.7799  1.5845
  655MOL0     H86450  10.253  10.148   0.167  1.0982  0.0374  1.4870
  655MOL0     H86451  10.301  10.118  -0.003 -1.0390 -0.5752  0.0698
  655MOL0     H86452  10.510  10.015   0.115 -0.7877 -1.0787  0.9097
  655MOL0     H86453  10.484  10.195   0.133 -1.1522  0.4504 -0.2489
  655MOL0     H86454  10.386   9.990   0.344 -0.7934  0.0032 -0.5606
  655MOL0     H86455  10.387  10.165   0.347 -0.7015  0.2636 -1.8856
  655MOL0     H86456  10.631   9.982   0.335 -0.3782 -0.0706 -0.5863
  655MOL0     H86457  10.638  10.160   0.365 -0.7093  0.1613  0.9362
  655MOL0     H86458  10.574   9.979   0.746 -0.2212  1.0571 -0.4722
  655MOL0     H86459  10.128   9.716   0.193  0.5487 -0.4629 -0.4329
  655MOL0     H86460   9.883   9.693   0.187  2.7580 -1.6706 -0.6698
  656MOL0     O86461   9.492   0.032   9.386 -0.0750 -0.0339 -0.5783
  656MOL0     C86462   9.508  -0.090   9.364  0.5772 -0.2607  0.0507
  656MOL0     O86463   9.627  -0.157   9.326  0.1194  0.8050  0.5143
  656MOL0     C86464   9.743  -0.086   9.321  0.6835  0.1735  1.0054
  656MOL0     C86465   9.846  -0.142   9.243  0.5449  0.6631 -0.7570
  656MOL0     C86466   9.972  -0.087   9.226  0.0106  0.2397  0.5071
  656MOL0     C86467  10.008   0.039   9.278 -0.0976  0.1210  0.8136
  656MOL0     O86468  10.137   0.102   9.256 -0.2898  0.6246  0.7002
  656MOL0     C86469  10.246   0.037   9.189  0.0766  0.2298 -0.3613
  656MOL0     C86470  10.348   0.132   9.127 -0.1806  0.4365 -0.0974
  656MOL0     C86471  10.434   0.054   9.031 -0.1898 -1.0469 -0.1476
  656MOL0     C86472  10.552   0.143   8.985  0.3610 -0.6741  0.5104
  656MOL0     C86473  10.607   0.074   8.856 -1.2795  0.5604  0.4332
  656MOL0     C86474  10.736   0.148   8.804  0.2812  0.2097  0.7953
  656MOL0     C86475  10.790   0.080   8.671 -0.5668 -0.4472 -0.1394
  656MOL0     C86476  10.912   0.154   8.613  0.2853 -0.7774  0.8809
  656MOL0     N86477  10.876   0.269   8.531  0.5781 -0.4013  0.0072
  656MOL0     C86478  10.957   0.375   8.505  0.2685 -0.4717  0.3881
  656MOL0     C86479  10.894   0.449   8.411 -0.0348 -0.3797  0.2298
  656MOL0     C86480  10.936   0.572   8.332 -0.6650 -1.1011  0.7194
  656MOL0     C86481  10.822   0.674   8.330 -0.4493  0.2083  0.0295
  656MOL0     C86482  10.855   0.791   8.241  0.6270 -0.9140  0.6014
  656MOL0     C86483  10.789   0.926   8.283  0.1195  0.5552 -0.3973
  656MOL0     O86484  10.648   0.912   8.266  0.0059  0.6174  0.4847
  656MOL0     C86485  10.568   0.998   8.338 -0.1001  0.7266 -0.0439
  656MOL0     C86486  10.622   1.105   8.412  0.5662 -1.0940 -0.8297
  656MOL0     C86487  10.542   1.196   8.493  0.0072 -0.6583 -0.6346
  656MOL0     C86488  10.403   1.183   8.486  0.0507  0.4335 -0.0596
  656MOL0     C86489  10.320   1.283   8.553 -0.6006  0.3488  0.2388
  656MOL0     O86490  10.206   1.244   8.604 -0.9863 -0.0728 -0.1406
  656MOL0     C86491  10.113   1.335   8.657  0.8672  1.3039  1.1268
  656MOL0     C86492   9.980   1.280   8.646 -0.3175 -1.4573 -0.2190
  656MOL0     C86493   9.870   1.350   8.698  0.9866 -0.0706  0.2736
  656MOL0     C86494   9.887   1.462   8.777 -0.2018  0.0155  1.0168
  656MOL0     O86495   9.777   1.503   8.846  0.3331 -0.8474 -0.2877
  656MOL0     C86496   9.785   1.623   8.916  0.3261 -0.8706 -0.4555
  656MOL0     C86497   9.642   1.657   8.978 -0.3660 -1.1058  0.8950
  656MOL0     C86498   9.535   1.553   8.963  0.2605 -0.2016  0.1751
  656MOL0     C86499   9.404   1.597   9.018  0.3022  0.3517  0.8173
  656MOL0     C86500   9.397   1.616   9.168  0.4973 -0.8615 -0.2943
  656MOL0     C86501   9.266   1.674   9.227  0.7297 -0.4908 -0.7243
  656MOL0     C86502   9.175   1.562   9.265  0.6128  0.9413  0.7148
  656MOL0     C86503   9.045   1.613   9.321  0.0890  1.0910 -0.1539
  656MOL0    Cl86504   8.934   1.483   9.365  0.1617  0.0287 -0.5184
  656MOL0     C86505  10.010   1.516   8.786 -0.0597  0.1176 -0.0290
  656MOL0     C86506  10.126   1.459   8.728 -0.3078 -0.5577 -0.2012
  656MOL0     O86507  10.372   1.400   8.559  0.2008 -0.0102 -0.6475
  656MOL0     C86508  10.355   1.067   8.426 -0.9042  0.1668 -0.2054
  656MOL0     C86509  10.435   0.983   8.350  0.6045 -0.7885  0.7045
  656MOL0     N86510  10.767   0.396   8.393 -0.4251  0.1279 -0.5406
  656MOL0     N86511  10.757   0.283   8.453 -0.1643  0.1520  0.1710
  656MOL0     C86512   9.900   0.107   9.348 -0.4734 -0.4293  0.1456
  656MOL0     C86513   9.777   0.046   9.372  0.3606 -0.3687  0.8854
  656MOL0     C86514   9.388  -0.175   9.379 -0.0024  0.5819  0.0650
  656MOL0     C86515   9.388  -0.308   9.333 -0.6948  0.0241  0.4131
  656MOL0     C86516   9.267  -0.394   9.342 -0.8119 -0.2066  0.0481
  656MOL0     C86517   9.157  -0.346   9.416  0.6186  0.0958  0.0371
  656MOL0     O86518   9.046  -0.427   9.424 -0.2684  0.2378  0.5164
  656MOL0     C86519   8.937  -0.422   9.517 -0.3394  0.4263  0.5529
  656MOL0     C86520   8.926  -0.567   9.565  0.1891 -0.5789 -0.4983
  656MOL0     C86521   8.827  -0.584   9.673  0.7505 -0.0770  0.1509
  656MOL0     C86522   8.685  -0.530   9.648  0.2143  0.7312  0.2739
  656MOL0     C86523   8.667  -0.385   9.678 -0.2169  0.6616 -0.2197
  656MOL0     C86524   8.633  -0.268   9.684 -0.7365 -0.2895 -0.6781
  656MOL0     C86525   9.162  -0.217   9.471  0.1839  0.8805  0.2572
  656MOL0     C86526   9.275  -0.133   9.453 -0.0275  0.2532  0.5130
  656MOL0     H86527   9.824  -0.238   9.197  2.3375 -0.9554  1.4823
  656MOL0     H86528  10.045  -0.152   9.178 -0.0588  0.6682 -0.1935
  656MOL0     H86529  10.198  -0.024   9.111  0.1522  0.4271 -0.5634
  656MOL0     H86530  10.292  -0.035   9.258 -1.0520 -2.0103 -1.8055
  656MOL0     H86531  10.416   0.168   9.205  0.9214  2.4418 -1.8845
  656MOL0     H86532  10.291   0.214   9.082 -0.2602  1.9308  2.4742
  656MOL0     H86533  10.370   0.034   8.945  0.8626  0.2938 -1.2830
  656MOL0     H86534  10.472  -0.040   9.072  1.5643 -0.2647  0.1035
  656MOL0     H86535  10.522   0.243   8.953 -0.4325 -0.5925  1.4759
  656MOL0     H86536  10.631   0.143   9.061  1.4377 -1.5915 -0.5482
  656MOL0     H86537  10.537   0.045   8.776  0.3910 -0.3076 -0.7686
  656MOL0     H86538  10.635  -0.028   8.883 -1.7133 -0.0114 -1.1647
  656MOL0     H86539  10.817   0.142   8.878 -2.2873  0.6148  3.8782
  656MOL0     H86540  10.720   0.254   8.784  0.4722 -0.2220 -1.9712
  656MOL0     H86541  10.817  -0.026   8.677  0.4817 -0.3889 -2.4584
  656MOL0     H86542  10.704   0.076   8.604 -1.1944 -0.4993  0.6575
  656MOL0     H86543  10.956   0.089   8.537  0.5631  0.7956 -0.3458
  656MOL0     H86544  10.992   0.188   8.679 -0.7161  3.7362  0.1161
  656MOL0     H86545  11.048   0.405   8.557 -0.3683  1.9445  0.2369
  656MOL0     H86546  10.960   0.551   8.227  3.0726  0.5183  1.1007
  656MOL0     H86547  11.029   0.608   8.376 -0.1324 -1.1929 -0.2978
  656MOL0     H86548  10.808   0.714   8.431 -1.3922  0.1175 -0.0599
  656MOL0     H86549  10.729   0.629   8.295 -0.8396 -1.3662  2.7522
  656MOL0     H86550  10.960   0.823   8.247 -0.1225  1.6634  1.0249
  656MOL0     H86551  10.826   0.780   8.136  2.2957  1.4227 -0.1958
  656MOL0     H86552  10.825   1.013   8.227  0.8906  1.3384  1.2668
  656MOL0     H86553  10.815   0.940   8.388 -0.0027  0.6589 -0.3801
  656MOL0     H86554  10.727   1.133   8.405  0.4880 -0.6805 -0.3800
  656MOL0     H86555  10.580   1.274   8.558 -2.0542 -0.3865  0.3363
  656MOL0     H86556   9.977   1.186   8.592 -3.4835 -1.1348 -0.7978
  656MOL0     H86557   9.774   1.301   8.688  0.7140  0.3026  0.9743
  656MOL0     H86558   9.812   1.709   8.854  2.0884 -0.2974  1.0174
  656MOL0     H86559   9.859   1.619   8.996 -1.2402 -0.2256  1.0894
  656MOL0     H86560   9.608   1.755   8.942  2.1902  0.0129  1.3265
  656MOL0     H86561   9.660   1.665   9.085  0.9313  1.3829  0.5690
  656MOL0     H86562   9.575   1.460   9.005 -0.8325 -0.7602  0.0449
  656MOL0     H86563   9.514   1.527   8.859  0.3088  3.8580 -0.9967
  656MOL0     H86564   9.380   1.694   8.974  1.5787  0.3624  0.1082
  656MOL0     H86565   9.323   1.525   8.999  1.1481 -0.1107 -1.3116
  656MOL0     H86566   9.474   1.689   9.192  0.5991 -0.9419 -0.3756
  656MOL0     H86567   9.412   1.523   9.223  2.5022 -0.1461  0.4406
  656MOL0     H86568   9.214   1.745   9.163 -2.8849 -0.3288  2.1239
  656MOL0     H86569   9.281   1.727   9.321 -4.4071  0.9812 -0.4344
  656MOL0     H86570   9.143   1.496   9.183 -1.6328 -0.4171  2.5340
  656MOL0     H86571   9.228   1.494   9.332  0.8714  0.3389 -0.0796
  656MOL0     H86572   8.997   1.686   9.255 -1.3334  0.7946  0.5339
  656MOL0     H86573   9.074   1.672   9.409  0.6038  2.3548 -1.1274
  656MOL0     H86574  10.033   1.607   8.841 -0.3040 -0.9704  1.9744
  656MOL0     H86575  10.223   1.508   8.735 -1.9483  2.7453  1.7668
  656MOL0     H86576  10.249   1.049   8.434 -1.0970  0.0345 -2.4688
  656MOL0     H86577  10.405   0.888   8.307 -1.2452  0.5895 -1.2871
  656MOL0     H86578   9.906   0.208   9.387 -1.6164 -1.1549  2.4058
  656MOL0     H86579   9.701   0.106   9.420  0.2166 -0.1991  0.4549
  656MOL0     H86580   9.469  -0.340   9.268 -2.0270 -1.6988 -0.5217
  656MOL0     H86581   9.277  -0.494   9.301 -0.0950  0.2504 -0.9324
  656MOL0     H86582   8.855  -0.375   9.463  1.1313  1.3040 -1.0161
  656MOL0     H86583   8.963  -0.358   9.602 -0.6933  2.0131 -0.4894
  656MOL0     H86584   8.901  -0.629   9.479  0.6413  0.2091 -1.2089
  656MOL0     H86585   9.025  -0.593   9.605 -0.1270 -2.3306 -0.7576
  656MOL0     H86586   8.867  -0.547   9.768 -0.5399  0.5078  0.4938
  656MOL0     H86587   8.812  -0.692   9.682  0.4915  0.0269  1.2053
  656MOL0     H86588   8.655  -0.528   9.543  0.5241  3.4567  0.1828
  656MOL0     H86589   8.613  -0.591   9.704  2.2864 -3.7827 -1.4120
  656MOL0     H86590   8.615  -0.163   9.681 -0.3900 -0.1711  0.5848
  656MOL0     H86591   9.075  -0.175   9.520  0.3946  1.4349  0.1553
  656MOL0     H86592   9.266  -0.036   9.501 -0.6245 -0.5648  2.1597
  657MOL0     O86593   5.077   9.714   4.741 -0.0008 -0.3195 -0.2354
  657MOL0     C86594   5.091   9.627   4.661 -0.3029  0.2677 -0.1600
  657MOL0     O86595   5.006   9.519   4.648  0.0432 -0.0654 -0.1134
  657MOL0     C86596   4.894   9.497   4.718 -0.1421 -0.4196 -1.2074
  657MOL0     C86597   4.901   9.412   4.840  0.3749  0.5474  0.3039
  657MOL0     C86598   4.782   9.385   4.914 -0.6306  0.0933  0.7029
  657MOL0     C86599   4.663   9.445   4.876 -0.7588 -0.7719  0.0014
  657MOL0     O86600   4.549   9.435   4.950  0.6529  0.5219  0.1227
  657MOL0     C86601   4.545   9.333   5.046 -0.5615  0.3035  0.6420
  657MOL0     C86602   4.408   9.337   5.112  0.7112 -0.0196  0.0784
  657MOL0     C86603   4.292   9.340   5.012 -0.2160 -0.1295 -0.1576
  657MOL0     C86604   4.168   9.323   5.100  0.0637  0.1839 -0.9608
  657MOL0     C86605   4.039   9.335   5.009 -0.1543  0.4965  0.0537
  657MOL0     C86606   4.030   9.224   4.895  0.6059  0.8020 -0.7113
  657MOL0     C86607   3.947   9.108   4.944  0.2632  0.2640 -0.1104
  657MOL0     C86608   3.915   9.016   4.829  0.2295 -0.1453  0.4655
  657MOL0     N86609   3.831   9.081   4.732 -0.7657  0.8089 -0.7360
  657MOL0     C86610   3.693   9.084   4.740 -0.0040  1.0303 -0.5116
  657MOL0     C86611   3.649   9.143   4.621  0.1570 -0.0221 -0.4695
  657MOL0     C86612   3.505   9.131   4.587 -0.6284  0.6106  0.3326
  657MOL0     C86613   3.463   9.262   4.535 -0.1038 -0.6323 -0.2255
  657MOL0     C86614   3.308   9.264   4.510 -0.5518  0.0337  0.7897
  657MOL0     C86615   3.272   9.385   4.422  0.4028  0.4141  0.7404
  657MOL0     O86616   3.127   9.405   4.416 -0.6615  0.3315 -0.5506
  657MOL0     C86617   3.089   9.533   4.380 -0.3774  0.1521 -0.7100
  657MOL0     C86618   3.173   9.639   4.335  0.2223 -0.0913  0.7164
  657MOL0     C86619   3.113   9.761   4.292  0.1899  0.5088 -0.6600
  657MOL0     C86620   2.973   9.773   4.286  0.3520  1.2196  0.9089
  657MOL0     C86621   2.914   9.893   4.227  0.5081  0.7011  0.6178
  657MOL0     O86622   2.995   9.980   4.149 -0.5343 -0.5777 -0.4614
  657MOL0     C86623   2.942  10.094   4.094  0.7686 -0.3935  0.8837
  657MOL0     C86624   2.940  10.108   3.948 -0.4130  0.2873 -0.8227
  657MOL0     C86625   2.890  10.217   3.892 -0.2760 -0.2609  0.3454
  657MOL0     C86626   2.842  10.325   3.967 -0.2126  0.5092  0.4412
  657MOL0     O86627   2.821  10.448   3.907 -0.0242 -0.4493 -0.9869
  657MOL0     C86628   2.914  10.558   3.936  0.0862  0.4863  0.3749
  657MOL0     C86629   2.835  10.688   3.944 -0.2261  0.8159 -0.5050
  657MOL0     C86630   2.712  10.676   4.022 -0.3050  0.3179 -1.2576
  657MOL0     C86631   2.646  10.813   4.032  0.3944 -0.4236 -0.1788
  657MOL0     C86632   2.508  10.813   4.102  0.4154 -1.3635  0.0250
  657MOL0     C86633   2.432  10.939   4.066  0.0089 -0.9342 -0.5490
  657MOL0     C86634   2.297  10.973   4.135 -0.0995  0.3686  0.7326
  657MOL0     C86635   2.184  10.858   4.113 -0.1366 -0.7606  0.3701
  657MOL0    Cl86636   2.020  10.908   4.157 -0.0957 -0.0082  0.4121
  657MOL0     C86637   2.820  10.307   4.106 -0.2649 -0.1042 -1.3197
  657MOL0     C86638   2.874  10.189   4.175  0.5643 -0.1925 -1.0585
  657MOL0     O86639   2.794   9.911   4.235 -0.0113  0.5649 -0.8416
  657MOL0     C86640   2.895   9.668   4.340  0.4182 -0.1283 -0.9613
  657MOL0     C86641   2.957   9.551   4.384  0.0070  0.2849  0.4359
  657MOL0     N86642   3.762   9.182   4.552 -0.4301  0.3607  0.5594
  657MOL0     N86643   3.866   9.155   4.628  0.1449 -0.6347  0.1278
  657MOL0     C86644   4.662   9.517   4.759  0.1024 -0.4506  0.2870
  657MOL0     C86645   4.773   9.543   4.675  0.1835  0.4352  0.8249
  657MOL0     C86646   5.201   9.623   4.562  0.2399 -0.3986 -0.3457
  657MOL0     C86647   5.201   9.531   4.458  0.0536  0.5053  0.0036
  657MOL0     C86648   5.308   9.535   4.372  0.0235 -0.2843  0.0993
  657MOL0     C86649   5.408   9.634   4.376 -0.4652 -0.0574  0.4620
  657MOL0     O86650   5.508   9.617   4.282  0.0450 -0.0780  0.3767
  657MOL0     C86651   5.623   9.697   4.295  0.0051  0.1709 -0.9259
  657MOL0     C86652   5.726   9.627   4.210  0.3588 -0.1487  0.6023
  657MOL0     C86653   5.856   9.694   4.247 -0.1177  1.1852 -0.4928
  657MOL0     C86654   5.878   9.844   4.209  0.0309 -0.2134 -0.6966
  657MOL0     C86655   5.862   9.863   4.065  0.0197 -0.1013 -0.4926
  657MOL0     C86656   5.851   9.869   3.947 -0.1227 -0.1495  0.5660
  657MOL0     C86657   5.400   9.733   4.471 -0.4770 -1.0206  0.3838
  657MOL0     C86658   5.295   9.727   4.559  0.4887 -0.2654 -0.0197
  657MOL0     H86659   4.997   9.370   4.867 -1.7982 -4.4000  1.4427
  657MOL0     H86660   4.791   9.327   5.006 -0.2701 -0.5492  0.2687
  657MOL0     H86661   4.618   9.338   5.128 -0.3600 -1.5838  0.6345
  657MOL0     H86662   4.558   9.238   4.993  1.6471  0.7168  0.3581
  657MOL0     H86663   4.406   9.425   5.177  0.5357  0.3118 -0.3667
  657MOL0     H86664   4.395   9.251   5.177  1.3417 -0.6726 -0.6379
  657MOL0     H86665   4.306   9.266   4.933  2.6719 -0.5309  0.6135
  657MOL0     H86666   4.281   9.437   4.963 -0.9772  0.5685  1.3251
  657MOL0     H86667   4.174   9.227   5.152  1.6261 -0.1882 -1.7767
  657MOL0     H86668   4.170   9.399   5.179  2.9116 -0.9689  0.1959
  657MOL0     H86669   4.049   9.431   4.959  0.9332 -0.5217 -1.8044
  657MOL0     H86670   3.948   9.343   5.068 -0.7711  1.2142 -0.9716
  657MOL0     H86671   4.128   9.186   4.867 -0.1108  0.6734 -3.2749
  657MOL0     H86672   3.987   9.268   4.805 -0.3052  0.7890 -0.2923
  657MOL0     H86673   4.001   9.052   5.021  0.9542 -0.4618 -1.0872
  657MOL0     H86674   3.851   9.143   4.982 -0.1781 -0.9771 -0.0342
  657MOL0     H86675   3.862   8.933   4.879  0.5528  0.5197  1.9878
  657MOL0     H86676   4.011   8.983   4.788  0.7273  0.6233  0.9799
  657MOL0     H86677   3.636   9.035   4.817  1.2851  0.4543  0.1050
  657MOL0     H86678   3.449   9.091   4.673 -0.7645  0.2107  0.0635
  657MOL0     H86679   3.500   9.052   4.511 -0.7579 -0.1038  1.0590
  657MOL0     H86680   3.511   9.272   4.438 -1.5300  0.1468 -0.8718
  657MOL0     H86681   3.491   9.340   4.606 -0.1663 -1.8588  1.2101
  657MOL0     H86682   3.262   9.181   4.456  0.4125  0.9939 -1.6230
  657MOL0     H86683   3.252   9.265   4.605 -1.5810 -0.0006  0.1988
  657MOL0     H86684   3.308   9.381   4.319 -2.8657  2.9424 -0.6998
  657MOL0     H86685   3.328   9.469   4.464  2.5783 -0.8865  0.5574
  657MOL0     H86686   3.281   9.643   4.326  0.1095  1.6924 -0.2735
  657MOL0     H86687   3.189   9.834   4.266  1.8398 -0.9225 -0.0932
  657MOL0     H86688   2.992  10.036   3.887  0.3524 -0.8172  1.0607
  657MOL0     H86689   2.907  10.224   3.785  1.0562  0.2128  0.5677
  657MOL0     H86690   2.984  10.567   3.852 -1.2087 -1.2325 -0.9429
  657MOL0     H86691   2.962  10.545   4.033 -0.9082  0.5999  0.8921
  657MOL0     H86692   2.802  10.726   3.847  0.1491  2.4067 -0.0478
  657MOL0     H86693   2.898  10.761   3.997  1.0327 -1.0019  0.6029
  657MOL0     H86694   2.731  10.632   4.120  1.2063  1.5613 -0.9639
  657MOL0     H86695   2.644  10.606   3.972  1.4031  0.5063 -4.0802
  657MOL0     H86696   2.714  10.871   4.094 -0.3012 -0.8893  1.0447
  657MOL0     H86697   2.638  10.845   3.927  2.8454 -3.0643 -1.3109
  657MOL0     H86698   2.516  10.808   4.211 -2.6419 -1.3133  0.3556
  657MOL0     H86699   2.444  10.730   4.070 -0.0446 -0.4613 -1.5418
  657MOL0     H86700   2.407  10.945   3.960  1.3377 -0.2719 -0.8392
  657MOL0     H86701   2.498  11.023   4.090 -0.3670 -0.9241  0.5270
  657MOL0     H86702   2.319  10.998   4.239  2.6669 -2.9663  1.1485
  657MOL0     H86703   2.262  11.057   4.074 -1.4012 -1.9014 -1.8588
  657MOL0     H86704   2.213  10.762   4.155 -0.3755 -1.0410 -0.1004
  657MOL0     H86705   2.175  10.843   4.005 -0.5843  2.9624 -0.2712
  657MOL0     H86706   2.765  10.379   4.166 -0.8987 -2.0692  0.5802
  657MOL0     H86707   2.866  10.169   4.281  0.2935  0.0668 -1.0315
  657MOL0     H86708   2.789   9.691   4.345  0.1839 -1.3784  1.1698
  657MOL0     H86709   2.902   9.463   4.416 -0.1993  0.1667 -0.2228
  657MOL0     H86710   4.567   9.559   4.729 -0.9937 -2.8549  0.2455
  657MOL0     H86711   4.758   9.602   4.585 -0.3969 -0.2483  0.4662
  657MOL0     H86712   5.131   9.448   4.459  0.7789 -0.1355  1.8273
  657MOL0     H86713   5.334   9.448   4.312  3.5678 -1.8172  3.4287
  657MOL0     H86714   5.657   9.679   4.398  0.1061 -0.2041 -1.0241
  657MOL0     H86715   5.607   9.805   4.287  1.5340  0.6202  1.1520
  657MOL0     H86716   5.724   9.520   4.232  2.4664 -0.6265 -1.1911
  657MOL0     H86717   5.705   9.645   4.105  2.3919 -1.8885 -0.1781
  657MOL0     H86718   5.934   9.626   4.213 -0.0823  0.3792  1.0884
  657MOL0     H86719   5.869   9.697   4.356 -0.1154 -0.8141 -0.4076
  657MOL0     H86720   5.808   9.910   4.261 -0.4078 -1.9891  1.0684
  657MOL0     H86721   5.980   9.868   4.243 -0.5727  0.9083  0.4254
  657MOL0     H86722   5.847   9.865   3.840  2.6923 -0.9113  0.3942
  657MOL0     H86723   5.466   9.819   4.476 -1.9117  0.0692  1.4372
  657MOL0     H86724   5.300   9.797   4.642  4.1971  0.2114 -0.4527
  658MOL0     O86725  10.514   8.512   9.136  0.1043  0.6026  0.1892
  658MOL0     C86726  10.615   8.469   9.074  0.2971  0.5606 -0.5467
  658MOL0     O86727  10.629   8.336   9.017 -0.3766 -0.2375  0.9418
  658MOL0     C86728  10.535   8.242   9.035  0.0425  0.4458  0.1842
  658MOL0     C86729  10.515   8.173   9.159  0.9101 -0.4437 -0.1870
  658MOL0     C86730  10.416   8.072   9.178 -0.2290 -1.0391 -0.2805
  658MOL0     C86731  10.334   8.047   9.062  0.5966  0.8366  0.0260
  658MOL0     O86732  10.235   7.947   9.072 -0.1741  0.3187  0.2496
  658MOL0     C86733  10.238   7.855   8.959  0.2481  0.3232  0.4996
  658MOL0     C86734  10.178   7.717   8.992  0.6110 -0.8114 -0.5576
  658MOL0     C86735  10.027   7.734   9.017  0.2280 -0.7262  0.7142
  658MOL0     C86736   9.951   7.604   9.026 -0.0409 -0.0525 -0.4926
  658MOL0     C86737   9.797   7.613   9.000 -0.3387 -0.5246 -0.2470
  658MOL0     C86738   9.718   7.651   9.133  0.9274  0.0013  0.7371
  658MOL0     C86739   9.571   7.695   9.107 -0.5457  0.4942 -0.5806
  658MOL0     C86740   9.493   7.590   9.035 -0.2830  0.0817  0.1991
  658MOL0     N86741   9.459   7.484   9.132  0.8310 -0.3796  0.1944
  658MOL0     C86742   9.336   7.465   9.194 -0.1329  0.3092 -0.0748
  658MOL0     C86743   9.338   7.337   9.253 -0.9300 -0.2724 -0.1396
  658MOL0     C86744   9.234   7.259   9.321 -0.5198 -0.5972 -0.7911
  658MOL0     C86745   9.103   7.332   9.345 -0.7766 -0.1514  0.3837
  658MOL0     C86746   9.004   7.254   9.427  0.6861  0.4960 -0.6851
  658MOL0     C86747   8.898   7.346   9.489 -0.2308  0.0899 -0.2246
  658MOL0     O86748   8.799   7.255   9.536  0.0711  0.5637  0.0262
  658MOL0     C86749   8.671   7.292   9.577  0.4224  0.3656  0.4155
  658MOL0     C86750   8.628   7.420   9.579 -0.3724 -0.2814 -1.2324
  658MOL0     C86751   8.497   7.461   9.607 -0.1737 -0.1802  1.1051
  658MOL0     C86752   8.401   7.355   9.621  0.1205  0.3606 -0.2026
  658MOL0     C86753   8.258   7.386   9.644  0.9744  0.4702  0.0038
  658MOL0     O86754   8.204   7.327   9.757  0.1102 -0.1939 -0.3383
  658MOL0     C86755   8.076   7.347   9.800  0.4644 -0.2831  0.4395
  658MOL0     C86756   8.033   7.472   9.848  0.1319  0.1626 -0.5300
  658MOL0     C86757   7.901   7.491   9.885 -0.2685 -0.6793 -0.6348
  658MOL0     C86758   7.813   7.386   9.888 -0.1398 -0.4477 -0.6811
  658MOL0     O86759   7.687   7.414   9.933  0.4084  0.1778 -0.1610
  658MOL0     C86760   7.580   7.316   9.957 -0.9935  0.2820  0.3029
  658MOL0     C86761   7.470   7.391  10.029  0.9041 -0.0723 -1.1509
  658MOL0     C86762   7.371   7.470   9.941  0.1866  1.2044 -0.0474
  658MOL0     C86763   7.278   7.541  10.038 -0.7663  0.4707 -0.6249
  658MOL0     C86764   7.162   7.618   9.968 -0.6865  0.2796 -0.2996
  658MOL0     C86765   7.067   7.525   9.901 -1.2992 -0.1545  0.6503
  658MOL0     C86766   6.920   7.582   9.889 -0.5203  0.3377 -0.2593
  658MOL0     C86767   6.905   7.671   9.764  0.3930 -0.7851 -0.1791
  658MOL0    Cl86768   6.908   7.568   9.612  0.1603  0.0441  0.2999
  658MOL0     C86769   7.862   7.260   9.848  0.0591 -1.1578  0.3758
  658MOL0     C86770   7.991   7.241   9.803  0.3269  0.1727 -0.1628
  658MOL0     O86771   8.195   7.466   9.569 -0.3160  0.4325  0.5759
  658MOL0     C86772   8.445   7.218   9.623  0.2053 -0.1704  0.6330
  658MOL0     C86773   8.581   7.191   9.602 -0.3537  0.7584  0.4691
  658MOL0     N86774   9.473   7.292   9.237  0.6137 -0.1451  0.3487
  658MOL0     N86775   9.540   7.381   9.173 -0.2255  0.1469  0.0626
  658MOL0     C86776  10.358   8.109   8.942  0.1891  0.7203 -0.2927
  658MOL0     C86777  10.451   8.209   8.931  0.3574 -0.5982  0.7053
  658MOL0     C86778  10.710   8.568   9.027 -0.3950 -0.0252  0.4322
  658MOL0     C86779  10.665   8.705   9.020  0.0455  0.6217 -0.1236
  658MOL0     C86780  10.751   8.808   8.989 -0.1956 -0.2118 -0.2278
  658MOL0     C86781  10.887   8.777   8.951 -0.2741  0.2343 -0.3704
  658MOL0     O86782  10.976   8.870   8.905  0.0956 -0.2996 -0.2301
  658MOL0     C86783  10.929   9.005   8.865 -0.2695  0.3386  0.7139
  658MOL0     C86784  10.872   9.002   8.719  0.1218  0.0881 -0.1414
  658MOL0     C86785  10.992   8.971   8.626 -0.8335  0.0293 -0.0726
  658MOL0     C86786  11.119   9.054   8.640 -0.0903  0.6489  0.1235
  658MOL0     C86787  11.079   9.194   8.669 -0.2819 -1.1683  0.2854
  658MOL0     C86788  11.075   9.312   8.714  0.0979  0.1306  0.4976
  658MOL0     C86789  10.929   8.642   8.959  0.0171  0.1176  0.3403
  658MOL0     C86790  10.847   8.531   8.994  0.3103 -0.1741  0.3714
  658MOL0     H86791  10.578   8.194   9.246 -0.1926 -0.1286  0.5508
  658MOL0     H86792  10.404   8.041   9.281 -1.4097 -0.1468 -0.1262
  658MOL0     H86793  10.341   7.836   8.927  0.5676 -0.7798  2.0908
  658MOL0     H86794  10.188   7.892   8.868  1.7566  0.3807 -0.3299
  658MOL0     H86795  10.235   7.677   9.077 -1.5056  0.6253  1.6771
  658MOL0     H86796  10.189   7.638   8.917 -0.8583 -2.4318  0.8462
  658MOL0     H86797   9.985   7.784   8.929 -1.0622 -1.3818  0.9339
  658MOL0     H86798  10.002   7.795   9.104  0.8464  0.1883  0.2671
  658MOL0     H86799   9.999   7.531   8.960  3.7829  1.2342  0.6612
  658MOL0     H86800   9.967   7.556   9.123 -0.7058 -0.9989 -0.8265
  658MOL0     H86801   9.761   7.526   8.944  0.8558  0.0777 -2.0160
  658MOL0     H86802   9.780   7.697   8.933  0.8353  1.0539  1.3334
  658MOL0     H86803   9.763   7.737   9.183 -0.6628 -0.0651  2.3869
  658MOL0     H86804   9.728   7.556   9.187  1.9651  0.2193  0.9519
  658MOL0     H86805   9.514   7.717   9.197 -0.1303  1.9068 -0.6412
  658MOL0     H86806   9.573   7.787   9.047  0.0999  1.7693  1.2870
  658MOL0     H86807   9.535   7.543   8.945 -0.2638 -2.7228  1.5697
  658MOL0     H86808   9.398   7.629   8.996  0.1466 -0.5490 -1.5992
  658MOL0     H86809   9.250   7.532   9.198  0.6294  1.2659  0.6903
  658MOL0     H86810   9.277   7.242   9.420  1.6444  1.7561 -1.2167
  658MOL0     H86811   9.211   7.170   9.262 -1.0569 -1.5436  0.7952
  658MOL0     H86812   9.062   7.372   9.252 -1.2578  1.6511  1.3083
  658MOL0     H86813   9.128   7.424   9.399 -0.4746  0.0183 -0.0415
  658MOL0     H86814   8.955   7.178   9.366  1.1671 -1.0655  0.8116
  658MOL0     H86815   9.044   7.206   9.517 -1.9249 -1.8181 -0.6407
  658MOL0     H86816   8.859   7.422   9.420  0.7714  0.3440 -0.5307
  658MOL0     H86817   8.940   7.396   9.577 -1.3170 -0.3829  0.5825
  658MOL0     H86818   8.705   7.494   9.556  2.3125 -3.1146 -1.9475
  658MOL0     H86819   8.475   7.567   9.615 -0.5698 -0.0800 -0.7968
  658MOL0     H86820   8.099   7.558   9.851  1.3900 -0.7889  0.4022
  658MOL0     H86821   7.878   7.587   9.931  2.8884  0.8973 -2.0013
  658MOL0     H86822   7.618   7.247  10.033 -0.7313  0.5209  0.3892
  658MOL0     H86823   7.547   7.259   9.869 -0.7908  0.3877  0.1558
  658MOL0     H86824   7.523   7.455  10.100  1.7487 -0.6927 -1.1931
  658MOL0     H86825   7.412   7.319  10.087  2.9723  0.7997  2.3159
  658MOL0     H86826   7.314   7.406   9.872  2.3267  1.4538 -2.1958
  658MOL0     H86827   7.437   7.528   9.876  0.1441  1.7257  0.3738
  658MOL0     H86828   7.229   7.468  10.103 -0.8462  0.0016 -1.1970
  658MOL0     H86829   7.341   7.609  10.095  0.8892 -0.5101 -1.2215
  658MOL0     H86830   7.200   7.686   9.891 -0.7583  1.7424  0.8961
  658MOL0     H86831   7.112   7.683  10.041 -1.6789 -0.7630 -0.0259
  658MOL0     H86832   7.058   7.432   9.958 -3.0285 -0.7055 -0.4453
  658MOL0     H86833   7.103   7.494   9.802 -1.7398  0.2628  0.3556
  658MOL0     H86834   6.853   7.495   9.883  1.1314 -1.1405  1.3892
  658MOL0     H86835   6.887   7.631   9.981 -4.0811 -2.5193  0.1960
  658MOL0     H86836   6.991   7.739   9.770  0.8343 -1.3844  0.3952
  658MOL0     H86837   6.816   7.734   9.758 -0.6888 -2.1946  0.6666
  658MOL0     H86838   7.795   7.175   9.847 -0.5707 -0.6683 -0.5746
  658MOL0     H86839   8.032   7.142   9.783  0.2500 -0.1412  1.1492
  658MOL0     H86840   8.373   7.139   9.640 -0.4996  0.4905  0.7663
  658MOL0     H86841   8.622   7.090   9.606  2.3521  1.7698  0.1801
  658MOL0     H86842  10.297   8.075   8.858  1.1637 -2.2362  0.0842
  658MOL0     H86843  10.466   8.258   8.835  0.4170  1.3563  1.6736
  658MOL0     H86844  10.559   8.731   9.023  0.5245  3.2292  4.5835
  658MOL0     H86845  10.702   8.905   8.989 -1.6901 -0.9122  0.9777
  658MOL0     H86846  11.017   9.069   8.876  2.7758 -2.5005 -3.6547
  658MOL0     H86847  10.850   9.036   8.934 -0.9946  0.5621 -0.2028
  658MOL0     H86848  10.795   8.925   8.716  0.2654 -0.3492  3.3556
  658MOL0     H86849  10.808   9.088   8.700 -2.1396 -0.6834  3.1367
  658MOL0     H86850  10.950   8.979   8.525 -1.4727 -2.3169 -0.0527
  658MOL0     H86851  11.026   8.869   8.642  2.7401  1.1013 -0.0453
  658MOL0     H86852  11.186   9.016   8.717  0.5488  2.2400  0.3688
  658MOL0     H86853  11.179   9.057   8.548 -1.6572  2.5522 -0.9030
  658MOL0     H86854  11.070   9.407   8.763 -1.2952 -0.4288  1.4936
  658MOL0     H86855  11.029   8.611   8.933  0.4670  2.1108 -0.4858
  658MOL0     H86856  10.873   8.426   9.004 -1.5195 -0.5089  2.5278
  659MOL0     O86857   4.077   1.071   3.774  0.4514  0.6810 -0.2590
  659MOL0     C86858   4.166   1.050   3.851 -0.0360  0.7509 -0.0727
  659MOL0     O86859   4.156   0.983   3.967  0.4704  1.0902  0.6819
  659MOL0     C86860   4.046   0.909   3.993  0.3390 -0.9909  0.5903
  659MOL0     C86861   3.928   0.979   4.026  0.0970  0.6657 -0.2767
  659MOL0     C86862   3.808   0.913   4.022  0.5016  0.1940  0.0281
  659MOL0     C86863   3.800   0.774   4.007 -0.2754  0.3339  0.1104
  659MOL0     O86864   3.675   0.706   4.006 -0.4996  0.2410 -0.1026
  659MOL0     C86865   3.575   0.761   4.098  0.5585  0.0166 -0.6106
  659MOL0     C86866   3.431   0.710   4.049 -1.7274  0.8106 -0.2002
  659MOL0     C86867   3.318   0.790   4.116  0.0268 -1.3065 -0.2974
  659MOL0     C86868   3.174   0.764   4.061  0.0687  0.1857  0.3273
  659MOL0     C86869   3.063   0.835   4.139  0.1007  0.7363  0.3216
  659MOL0     C86870   3.055   0.795   4.288  0.4318  0.4187  0.3483
  659MOL0     C86871   2.924   0.843   4.352  0.6906 -0.3086  0.3073
  659MOL0     C86872   2.803   0.751   4.331  0.0972  0.7877  0.4627
  659MOL0     N86873   2.787   0.645   4.434 -0.2775  0.3347 -0.7252
  659MOL0     C86874   2.746   0.661   4.563 -0.6466 -0.3696  0.0374
  659MOL0     C86875   2.734   0.533   4.609  0.8138  0.6356 -0.0789
  659MOL0     C86876   2.677   0.497   4.746 -0.1130  0.4436 -0.0446
  659MOL0     C86877   2.528   0.458   4.747 -0.6997  0.1795  0.2454
  659MOL0     C86878   2.440   0.549   4.668  0.1786 -0.3771 -0.3854
  659MOL0     C86879   2.297   0.499   4.651 -0.2467  0.8004  0.1219
  659MOL0     O86880   2.214   0.516   4.770  0.2840  0.4249 -0.6960
  659MOL0     C86881   2.088   0.443   4.767 -0.0772 -0.2424  0.6500
  659MOL0     C86882   2.034   0.396   4.641 -0.4332  0.0494 -0.5464
  659MOL0     C86883   1.925   0.311   4.636  0.6022 -0.2190 -0.4078
  659MOL0     C86884   1.857   0.274   4.757 -1.3502  0.5324  0.5518
  659MOL0     C86885   1.743   0.182   4.748 -0.0036 -0.0849  0.2626
  659MOL0     O86886   1.659   0.181   4.846  0.8615  0.0596 -0.3898
  659MOL0     C86887   1.548   0.096   4.841 -0.1339  0.4233  0.2389
  659MOL0     C86888   1.551  -0.036   4.808 -0.1636 -1.0854 -0.8603
  659MOL0     C86889   1.436  -0.116   4.831  0.3113  1.0459  0.7019
  659MOL0     C86890   1.319  -0.063   4.873  0.6434 -0.0289 -0.4015
  659MOL0     O86891   1.202  -0.135   4.891 -0.0568  0.3832 -0.0905
  659MOL0     C86892   1.181  -0.183   5.025  0.0328  0.2922 -0.5113
  659MOL0     C86893   1.052  -0.129   5.079 -0.2000  0.1170 -0.7899
  659MOL0     C86894   1.009  -0.195   5.209 -0.2655  0.1401 -0.4423
  659MOL0     C86895   0.875  -0.151   5.271  0.2829  0.5966  0.9082
  659MOL0     C86896   0.870   0.008   5.298  0.1916 -0.2307 -0.2417
  659MOL0     C86897   0.728   0.064   5.331 -0.7898  0.2608 -1.1253
  659MOL0     C86898   0.664   0.088   5.189 -0.4899  0.3926  0.6957
  659MOL0     C86899   0.530   0.162   5.213 -0.8713 -0.5386  0.7396
  659MOL0    Cl86900   0.406   0.047   5.263  0.2326 -0.2943 -0.6655
  659MOL0     C86901   1.328   0.070   4.926 -0.0444  0.1078 -0.7726
  659MOL0     C86902   1.438   0.147   4.902 -0.0261  0.1640 -0.2206
  659MOL0     O86903   1.757   0.101   4.656 -0.1395 -0.1740 -0.2475
  659MOL0     C86904   1.914   0.308   4.877 -0.5895  0.5935  0.2967
  659MOL0     C86905   2.027   0.399   4.878  0.6283 -0.3977 -0.2488
  659MOL0     N86906   2.755   0.439   4.505 -0.2948 -0.0796  0.6317
  659MOL0     N86907   2.775   0.514   4.397 -0.5554  0.1251  0.1023
  659MOL0     C86908   3.919   0.707   3.983 -0.1343 -0.1646  0.2250
  659MOL0     C86909   4.044   0.773   3.978 -0.4647 -0.6213  0.4091
  659MOL0     C86910   4.300   1.112   3.835 -0.0879 -0.7660  1.1275
  659MOL0     C86911   4.322   1.204   3.732 -0.7264 -0.6597  0.6196
  659MOL0     C86912   4.449   1.243   3.693 -0.2942  0.0150  0.3403
  659MOL0     C86913   4.562   1.202   3.772  0.1313  1.4347  0.0558
  659MOL0     O86914   4.687   1.236   3.736  0.2666  0.4757  0.8859
  659MOL0     C86915   4.802   1.198   3.817 -0.0813  0.5607 -0.5507
  659MOL0     C86916   4.929   1.227   3.742  1.1030 -0.3198 -0.1379
  659MOL0     C86917   4.936   1.135   3.625  0.0820  0.6142  0.3102
  659MOL0     C86918   5.029   1.196   3.526 -0.4328 -0.4425  0.3110
  659MOL0     C86919   5.161   1.223   3.580  0.0792  0.7719 -0.7011
  659MOL0     C86920   5.276   1.239   3.621 -0.3854 -0.2689 -0.2640
  659MOL0     C86921   4.540   1.112   3.875  0.3576 -0.3299 -0.1237
  659MOL0     C86922   4.414   1.072   3.907  0.5344 -0.3192 -1.4733
  659MOL0     H86923   3.936   1.087   4.034  0.3578  0.9438 -3.1100
  659MOL0     H86924   3.719   0.974   4.029  0.4681  0.2156 -0.5847
  659MOL0     H86925   3.568   0.870   4.106 -0.9801 -0.1941  2.4384
  659MOL0     H86926   3.582   0.714   4.196 -1.9144  0.4970 -0.1406
  659MOL0     H86927   3.416   0.603   4.062 -0.1970  0.9127  3.9578
  659MOL0     H86928   3.427   0.738   3.943 -1.5667  0.5327 -0.2824
  659MOL0     H86929   3.325   0.899   4.119 -2.2774 -1.1245  1.6033
  659MOL0     H86930   3.317   0.769   4.224 -0.8345  0.5552  0.0941
  659MOL0     H86931   3.168   0.790   3.955  2.8860 -2.0210 -0.4956
  659MOL0     H86932   3.139   0.660   4.066  3.9972 -1.4058 -1.5047
  659MOL0     H86933   2.968   0.802   4.095  0.4349  0.4105 -0.1838
  659MOL0     H86934   3.074   0.942   4.121  1.4375  0.5628 -0.0608
  659MOL0     H86935   3.131   0.847   4.346 -0.5402  1.6594  0.5588
  659MOL0     H86936   3.060   0.687   4.306 -0.0293  0.4219  0.5210
  659MOL0     H86937   2.946   0.867   4.456  0.2266 -0.4500  0.4394
  659MOL0     H86938   2.886   0.939   4.314 -0.6869 -1.1795 -0.6014
  659MOL0     H86939   2.806   0.707   4.231 -0.8999 -0.1112  0.8061
  659MOL0     H86940   2.717   0.819   4.326  0.1544  0.7794 -1.6577
  659MOL0     H86941   2.729   0.751   4.621 -0.2236 -0.5480  0.4445
  659MOL0     H86942   2.698   0.568   4.826 -0.6222 -1.6889  2.1015
  659MOL0     H86943   2.738   0.413   4.780 -0.3228 -0.3825 -1.6104
  659MOL0     H86944   2.489   0.465   4.849 -1.1494  0.3983  0.0591
  659MOL0     H86945   2.535   0.356   4.708  1.4426 -0.1011  1.1521
  659MOL0     H86946   2.440   0.646   4.718  0.5451 -0.3724 -0.3886
  659MOL0     H86947   2.493   0.552   4.573  2.0129  1.9274  0.6061
  659MOL0     H86948   2.296   0.395   4.619  1.2176  0.4871  1.0194
  659MOL0     H86949   2.244   0.563   4.580 -1.1851  0.7118  0.7164
  659MOL0     H86950   2.067   0.421   4.540  0.5085 -0.0137 -0.2655
  659MOL0     H86951   1.896   0.265   4.542 -0.0656 -1.2798  0.2976
  659MOL0     H86952   1.639  -0.083   4.766  1.0130 -1.2054  1.5566
  659MOL0     H86953   1.443  -0.221   4.807 -0.8157  0.8450  1.1713
  659MOL0     H86954   1.264  -0.153   5.090 -1.2374  1.2520  0.7462
  659MOL0     H86955   1.178  -0.292   5.030  2.1105  0.1593 -1.2915
  659MOL0     H86956   0.976  -0.140   5.001 -0.5881 -0.0260 -0.3911
  659MOL0     H86957   1.074  -0.026   5.110  0.1473 -0.0779 -0.3788
  659MOL0     H86958   1.088  -0.175   5.282 -2.7088  2.7635  1.7427
  659MOL0     H86959   1.002  -0.304   5.205 -1.5614  0.1719  0.4090
  659MOL0     H86960   0.791  -0.180   5.207  0.4375  0.0520  0.9485
  659MOL0     H86961   0.858  -0.198   5.368 -0.9863  1.4463  1.1275
  659MOL0     H86962   0.901   0.068   5.212 -4.3249  0.0205 -1.9442
  659MOL0     H86963   0.936   0.026   5.384 -0.1023 -0.2127 -0.0184
  659MOL0     H86964   0.740   0.156   5.389 -0.2429 -0.0908 -0.6766
  659MOL0     H86965   0.666  -0.001   5.394  0.6787 -0.3171 -0.2450
  659MOL0     H86966   0.726   0.152   5.127 -1.8916  0.6160 -0.5282
  659MOL0     H86967   0.640  -0.008   5.142 -4.4793  1.5898 -0.1025
  659MOL0     H86968   0.492   0.208   5.121 -0.5003 -1.2362  0.2318
  659MOL0     H86969   0.537   0.239   5.291 -0.7145 -1.7133  1.9177
  659MOL0     H86970   1.246   0.121   4.976 -0.1541 -0.9689  0.1826
  659MOL0     H86971   1.445   0.252   4.929 -1.4216  0.1616  0.2141
  659MOL0     H86972   1.884   0.272   4.975  1.8592  0.4672  1.0871
  659MOL0     H86973   2.071   0.422   4.975  0.1970  0.5434 -0.2586
  659MOL0     H86974   3.910   0.600   3.969  0.6068 -0.2201  0.0913
  659MOL0     H86975   4.136   0.730   3.940  0.8939  2.7587 -0.4671
  659MOL0     H86976   4.238   1.241   3.674 -0.3440  0.0683  0.5179
  659MOL0     H86977   4.449   1.313   3.611 -0.7247 -0.4297 -0.0475
  659MOL0     H86978   4.805   1.093   3.849 -0.2621  0.9120  0.6664
  659MOL0     H86979   4.807   1.268   3.901  0.0394 -0.5053  0.3665
  659MOL0     H86980   4.923   1.328   3.703  0.4931 -0.9279 -1.6864
  659MOL0     H86981   5.013   1.212   3.811  2.6566 -0.1884 -1.9275
  659MOL0     H86982   4.841   1.123   3.574 -0.6649  0.8882  1.5871
  659MOL0     H86983   4.971   1.035   3.654 -1.4906 -0.4192 -1.2090
  659MOL0     H86984   5.027   1.139   3.433  0.4704  1.7782 -1.1580
  659MOL0     H86985   4.991   1.293   3.492 -1.1790 -0.5184  0.8975
  659MOL0     H86986   5.376   1.252   3.658 -0.5063 -1.1260  0.4184
  659MOL0     H86987   4.611   1.067   3.943  1.0572 -0.4438 -0.9208
  659MOL0     H86988   4.404   0.990   3.977 -0.6767  0.9000 -0.1597
  660MOL0     O86989   6.999   4.119   7.614  0.0093  0.4968  0.2605
  660MOL0     C86990   6.955   4.072   7.506  0.3635  0.3946 -0.0381
  660MOL0     O86991   6.828   4.032   7.480  0.8300 -0.0858 -0.1433
  660MOL0     C86992   6.717   4.064   7.562  0.6085  1.0142  0.7975
  660MOL0     C86993   6.660   3.975   7.659 -0.2014 -0.1046 -0.5370
  660MOL0     C86994   6.543   4.000   7.731 -0.4956  0.5806  0.6077
  660MOL0     C86995   6.487   4.119   7.730 -0.1347 -0.2873 -0.5949
  660MOL0     O86996   6.374   4.138   7.811 -0.4422 -0.5904 -0.0632
  660MOL0     C86997   6.305   4.266   7.791  0.2546  0.0724  0.4885
  660MOL0     C86998   6.185   4.277   7.884  0.1720  0.3046 -0.1677
  660MOL0     C86999   6.111   4.136   7.893  0.0678 -0.3433 -0.8945
  660MOL0     C87000   5.969   4.156   7.938  1.0479 -0.3165 -0.2592
  660MOL0     C87001   5.904   4.033   7.992 -0.2600  1.0927  0.5341
  660MOL0     C87002   5.748   4.040   8.008 -0.2623 -0.3307  1.0819
  660MOL0     C87003   5.692   3.914   8.078 -0.2547  0.5236 -0.2263
  660MOL0     C87004   5.541   3.927   8.120  0.0712 -0.2945  0.5065
  660MOL0     N87005   5.499   3.863   8.239 -0.0395  0.0426  0.2838
  660MOL0     C87006   5.543   3.742   8.291 -0.2040  0.1277 -0.2357
  660MOL0     C87007   5.461   3.718   8.394 -1.0177  1.2876  0.2579
  660MOL0     C87008   5.464   3.585   8.465  0.0465 -0.3116 -0.7401
  660MOL0     C87009   5.478   3.613   8.621 -0.2545 -0.2563  0.3046
  660MOL0     C87010   5.611   3.679   8.658 -0.5262  0.2111 -0.4359
  660MOL0     C87011   5.653   3.665   8.800 -1.3311 -0.0844 -0.0829
  660MOL0     O87012   5.576   3.743   8.882  0.2568 -1.3464 -0.1377
  660MOL0     C87013   5.597   3.880   8.885  0.3303 -0.3727 -0.7407
  660MOL0     C87014   5.512   3.961   8.967 -0.1901 -0.3901 -0.0088
  660MOL0     C87015   5.520   4.104   8.977  0.5261  0.7362 -0.2856
  660MOL0     C87016   5.620   4.178   8.907  0.4592 -0.6113  0.1539
  660MOL0     C87017   5.630   4.327   8.911 -0.8917  0.0413 -0.2073
  660MOL0     O87018   5.561   4.392   9.013  0.3489 -0.4455  0.1792
  660MOL0     C87019   5.567   4.534   9.011 -0.7301  0.8231 -0.1230
  660MOL0     C87020   5.634   4.600   9.115 -0.3848  0.2196 -0.2208
  660MOL0     C87021   5.628   4.738   9.120  0.5106 -0.3130  0.0099
  660MOL0     C87022   5.564   4.815   9.019 -0.7149  0.2197  1.4230
  660MOL0     O87023   5.550   4.947   9.017  0.0472 -0.3064 -0.3633
  660MOL0     C87024   5.627   5.029   9.105 -0.2175 -0.2941 -0.3870
  660MOL0     C87025   5.566   5.172   9.117 -0.5544  0.4927 -0.0119
  660MOL0     C87026   5.588   5.237   8.976  0.1399  1.0770 -0.7253
  660MOL0     C87027   5.489   5.350   8.945  0.2479  0.2550 -0.1884
  660MOL0     C87028   5.468   5.388   8.799 -0.1370  0.1622 -0.6258
  660MOL0     C87029   5.367   5.504   8.801  0.1909 -0.2952  0.4201
  660MOL0     C87030   5.291   5.512   8.664  0.6292  0.2115  0.4508
  660MOL0     C87031   5.222   5.643   8.654 -0.3921 -0.0632 -0.5488
  660MOL0    Cl87032   5.335   5.779   8.649 -0.2186 -0.1032  0.2101
  660MOL0     C87033   5.510   4.752   8.908  0.5967 -0.3591  0.3659
  660MOL0     C87034   5.511   4.609   8.908  0.1319 -0.8389 -0.6397
  660MOL0     O87035   5.708   4.387   8.831 -0.6043  0.0859 -0.1511
  660MOL0     C87036   5.714   4.101   8.832 -0.1849  0.8352 -0.1576
  660MOL0     C87037   5.691   3.956   8.815 -1.0000  0.7493 -0.4543
  660MOL0     N87038   5.378   3.817   8.419 -0.4526 -0.7553  0.2714
  660MOL0     N87039   5.391   3.907   8.323 -0.2421 -0.5800  0.5312
  660MOL0     C87040   6.539   4.210   7.633 -0.7065  0.1234  0.1183
  660MOL0     C87041   6.648   4.188   7.539  0.5270 -0.5774 -0.5830
  660MOL0     C87042   7.056   4.042   7.408  0.5713  0.3648 -1.1055
  660MOL0     C87043   7.190   4.018   7.435 -0.1580  0.2627 -0.4104
  660MOL0     C87044   7.285   3.989   7.340  0.2060  0.3866  0.2656
  660MOL0     C87045   7.250   3.986   7.203  0.7138  0.1741  0.5910
  660MOL0     O87046   7.334   3.973   7.090 -0.2987 -0.3629 -0.1214
  660MOL0     C87047   7.470   3.969   7.110 -0.1292  0.3437  1.2971
  660MOL0     C87048   7.529   3.934   6.973  0.2839 -0.3310  0.0780
  660MOL0     C87049   7.668   3.998   6.961 -1.0128  0.2970  0.1387
  660MOL0     C87050   7.733   3.955   6.828 -0.4146  0.4845 -0.0055
  660MOL0     C87051   7.796   3.827   6.839 -0.5169  0.4770  0.6637
  660MOL0     C87052   7.866   3.728   6.855  0.0885  0.2183  0.6864
  660MOL0     C87053   7.116   3.998   7.174 -0.3101 -0.0142 -0.1764
  660MOL0     C87054   7.023   4.027   7.277 -0.0450 -0.7090 -0.5368
  660MOL0     H87055   6.717   3.886   7.680  2.2997  0.6900 -3.2637
  660MOL0     H87056   6.517   3.922   7.801 -0.8002  0.8482  0.8001
  660MOL0     H87057   6.256   4.273   7.694 -0.3964  0.5601  0.8472
  660MOL0     H87058   6.373   4.349   7.813  2.2903 -1.8826  2.0860
  660MOL0     H87059   6.120   4.346   7.830 -0.8636 -1.5372 -1.3588
  660MOL0     H87060   6.211   4.325   7.979 -1.1188 -0.1487  0.4359
  660MOL0     H87061   6.175   4.081   7.962 -0.8573 -1.1583 -0.6520
  660MOL0     H87062   6.106   4.078   7.800 -0.1474 -0.4260 -0.8325
  660MOL0     H87063   5.975   4.225   8.023  2.1668 -2.1231  1.1984
  660MOL0     H87064   5.914   4.207   7.858 -1.2960 -3.6641 -0.9956
  660MOL0     H87065   5.951   4.020   8.090  1.0406  1.6124  0.0015
  660MOL0     H87066   5.933   3.948   7.929 -0.9118  0.4356  1.1016
  660MOL0     H87067   5.706   4.040   7.907 -1.7501  2.5673  1.6063
  660MOL0     H87068   5.707   4.129   8.055  1.8643  0.0630  2.2978
  660MOL0     H87069   5.701   3.825   8.014 -0.6761 -0.5990  1.2242
  660MOL0     H87070   5.757   3.901   8.164 -1.0079 -0.3456  0.2312
  660MOL0     H87071   5.491   3.888   8.032  1.1402  1.5153 -0.9919
  660MOL0     H87072   5.512   4.032   8.130 -0.8246 -0.6127  1.3338
  660MOL0     H87073   5.620   3.671   8.263  0.6856 -1.0364  4.3230
  660MOL0     H87074   5.536   3.515   8.421 -0.3391 -0.9309 -0.3957
  660MOL0     H87075   5.368   3.537   8.445  0.6412 -1.6747 -0.4905
  660MOL0     H87076   5.473   3.515   8.670 -1.2746 -1.0570 -1.3085
  660MOL0     H87077   5.398   3.679   8.656 -2.0150 -0.4114 -3.0232
  660MOL0     H87078   5.692   3.623   8.611 -1.5026 -2.9007  1.2854
  660MOL0     H87079   5.608   3.780   8.616  1.9535  0.7657  0.6098
  660MOL0     H87080   5.761   3.680   8.807 -1.1310 -0.9429 -1.1649
  660MOL0     H87081   5.637   3.562   8.834  1.5908 -0.5444  0.1586
  660MOL0     H87082   5.451   3.899   9.032  0.1211 -0.6849  0.0065
  660MOL0     H87083   5.452   4.165   9.035  0.7177  1.5227 -0.8760
  660MOL0     H87084   5.659   4.544   9.204  0.7175  0.0672 -0.6103
  660MOL0     H87085   5.673   4.787   9.207  0.1927 -0.5677  0.3202
  660MOL0     H87086   5.734   5.026   9.083  0.3107 -1.0587  1.9853
  660MOL0     H87087   5.623   4.986   9.205 -1.6799  0.9642  0.1418
  660MOL0     H87088   5.600   5.233   9.202 -0.3637  3.0425 -1.8145
  660MOL0     H87089   5.456   5.167   9.120 -0.6517  2.2099  0.1534
  660MOL0     H87090   5.581   5.162   8.896  2.0506  0.2237 -0.1561
  660MOL0     H87091   5.691   5.271   8.961  1.1021 -1.7316 -1.1932
  660MOL0     H87092   5.396   5.313   8.988  0.9624 -0.7934  0.4941
  660MOL0     H87093   5.523   5.437   9.001 -0.9606 -0.3867  1.6040
  660MOL0     H87094   5.440   5.306   8.733 -1.2666 -0.6726  0.8338
  660MOL0     H87095   5.563   5.422   8.757  1.2841 -0.8358  1.6334
  660MOL0     H87096   5.427   5.594   8.817  1.6383 -0.7134 -2.1348
  660MOL0     H87097   5.294   5.487   8.881 -0.9425 -0.1846 -0.5545
  660MOL0     H87098   5.368   5.497   8.587 -0.4241  2.7420 -1.2140
  660MOL0     H87099   5.223   5.427   8.657 -0.1937  0.8488  0.6703
  660MOL0     H87100   5.164   5.648   8.746  0.8978  2.4839  0.2025
  660MOL0     H87101   5.162   5.644   8.562  1.2252 -0.9089 -1.6550
  660MOL0     H87102   5.461   4.812   8.832 -1.9326 -2.5116  0.1400
  660MOL0     H87103   5.464   4.572   8.818 -0.8860 -0.5030 -0.2649
  660MOL0     H87104   5.797   4.154   8.786  1.2516 -0.3669  0.9690
  660MOL0     H87105   5.754   3.899   8.748 -4.1125 -0.8602 -2.1867
  660MOL0     H87106   6.494   4.309   7.625 -1.8734 -0.4109 -0.2788
  660MOL0     H87107   6.668   4.253   7.454 -2.8332 -1.9205 -2.6203
  660MOL0     H87108   7.227   4.034   7.536  3.8904 -2.0160 -1.3243
  660MOL0     H87109   7.391   3.981   7.361  0.3804 -1.4090 -1.0055
  660MOL0     H87110   7.502   3.897   7.186  0.5752 -0.3396  0.3783
  660MOL0     H87111   7.499   4.071   7.135  0.2264  1.3241 -2.5032
  660MOL0     H87112   7.533   3.825   6.973 -1.0382 -0.3896  0.8769
  660MOL0     H87113   7.454   3.969   6.901 -0.8550 -0.5708  1.1224
  660MOL0     H87114   7.728   3.967   7.048  2.7182  1.0033 -1.9709
  660MOL0     H87115   7.670   4.107   6.953  0.3585  0.2631 -0.1807
  660MOL0     H87116   7.662   3.959   6.745  1.3796  1.7215 -1.5865
  660MOL0     H87117   7.811   4.029   6.809  0.1920  0.1731  1.2094
  660MOL0     H87118   7.935   3.647   6.871 -0.0151 -0.6157 -2.5048
  660MOL0     H87119   7.076   3.999   7.073 -0.6507 -0.9408 -0.0653
  660MOL0     H87120   6.922   4.053   7.248 -0.3538 -2.8162 -1.5059
  661MOL0     O87121   5.417   6.338   2.919 -0.1083 -0.5823 -0.1021
  661MOL0     C87122   5.433   6.232   2.869  0.3953  0.7433  0.2111
  661MOL0     O87123   5.345   6.125   2.868 -0.2334 -0.1343  0.1109
  661MOL0     C87124   5.242   6.132   2.954 -0.6537  0.6336  0.0160
  661MOL0     C87125   5.113   6.132   2.914  1.3302  0.0329 -0.3966
  661MOL0     C87126   5.003   6.133   3.002  0.4011 -0.2111 -0.2680
  661MOL0     C87127   5.022   6.138   3.148  0.0319  0.0775  0.3296
  661MOL0     O87128   4.913   6.163   3.224 -0.0458 -0.6738 -0.7774
  661MOL0     C87129   4.920   6.213   3.359 -0.2484 -0.1730 -0.5742
  661MOL0     C87130   4.809   6.311   3.409 -0.1070 -0.1399 -0.4160
  661MOL0     C87131   4.814   6.446   3.339  0.5522 -0.5185 -0.0466
  661MOL0     C87132   4.711   6.530   3.409 -1.0089 -0.6182 -0.2326
  661MOL0     C87133   4.571   6.504   3.365 -0.3699 -0.3060  0.4818
  661MOL0     C87134   4.477   6.596   3.442  0.5290 -0.0238  0.0739
  661MOL0     C87135   4.334   6.607   3.381 -0.2967 -0.5437  0.6137
  661MOL0     C87136   4.239   6.714   3.446  0.2581  0.1528  0.3501
  661MOL0     N87137   4.218   6.680   3.590  0.5584  1.1243  0.6077
  661MOL0     C87138   4.198   6.770   3.691 -0.3449  0.1290  0.1312
  661MOL0     C87139   4.149   6.706   3.795  0.9047 -0.3695  0.6845
  661MOL0     C87140   4.099   6.781   3.917  0.2788  0.3038  0.2242
  661MOL0     C87141   3.971   6.736   3.979 -0.6504 -0.6978 -0.1524
  661MOL0     C87142   3.919   6.838   4.083 -0.4818 -1.0554  0.2288
  661MOL0     C87143   3.776   6.802   4.132 -0.3949 -0.0765  0.4762
  661MOL0     O87144   3.682   6.813   4.020  0.4089  0.4316 -0.1705
  661MOL0     C87145   3.544   6.798   4.038 -0.3089 -0.4130 -0.0393
  661MOL0     C87146   3.487   6.779   4.157 -0.2200  0.6790  0.9727
  661MOL0     C87147   3.350   6.759   4.160  0.5436  0.0252  0.8355
  661MOL0     C87148   3.266   6.779   4.045 -0.2885 -0.3520  0.2337
  661MOL0     C87149   3.118   6.763   4.066  0.0212 -0.3727  0.3273
  661MOL0     O87150   3.072   6.773   4.193 -0.1500  0.0802 -0.0574
  661MOL0     C87151   2.942   6.800   4.210  0.7847  0.4411 -0.4217
  661MOL0     C87152   2.875   6.713   4.291 -0.0757  0.2162  0.6256
  661MOL0     C87153   2.744   6.744   4.306 -0.0368 -0.7257 -0.4079
  661MOL0     C87154   2.680   6.867   4.262  0.1455  0.3662  0.7380
  661MOL0     O87155   2.551   6.883   4.296  0.8692 -0.0352  0.1737
  661MOL0     C87156   2.469   6.967   4.211 -0.1899  0.5579 -0.5347
  661MOL0     C87157   2.324   6.949   4.262  0.0029  0.3058 -0.4082
  661MOL0     C87158   2.228   7.042   4.180 -0.0487 -0.2166 -0.7358
  661MOL0     C87159   2.096   7.066   4.255  0.5838  0.0686 -0.5032
  661MOL0     C87160   2.015   7.135   4.151 -0.2825  0.3530 -0.4775
  661MOL0     C87161   1.868   7.150   4.203 -0.5898  0.4428 -0.1627
  661MOL0     C87162   1.777   7.026   4.220  0.3037  0.4975  0.3899
  661MOL0     C87163   1.643   7.074   4.275  0.0224 -1.4003  0.5188
  661MOL0    Cl87164   1.525   6.956   4.330  0.1485 -0.4336 -0.4092
  661MOL0     C87165   2.753   6.951   4.187 -0.1294 -0.4467  0.3280
  661MOL0     C87166   2.886   6.916   4.159  0.3183  0.2463  0.3678
  661MOL0     O87167   3.056   6.764   3.958 -0.2355 -0.0863 -0.4445
  661MOL0     C87168   3.331   6.800   3.921  0.0872  0.3257  0.1055
  661MOL0     C87169   3.471   6.810   3.925  0.4335 -0.9560  0.2064
  661MOL0     N87170   4.133   6.574   3.760 -0.0565  0.1570 -0.3408
  661MOL0     N87171   4.176   6.558   3.634  0.7220 -0.2188  0.3952
  661MOL0     C87172   5.157   6.148   3.187  0.3644  0.9627 -0.0726
  661MOL0     C87173   5.264   6.137   3.094  0.1545  0.5886 -0.1826
  661MOL0     C87174   5.554   6.214   2.785 -0.3273  0.0387  1.1328
  661MOL0     C87175   5.670   6.289   2.804 -0.1571 -0.2424  0.2478
  661MOL0     C87176   5.782   6.265   2.719  0.5072 -1.1416 -0.2649
  661MOL0     C87177   5.781   6.171   2.619 -0.3886 -0.8518 -0.7265
  661MOL0     O87178   5.892   6.164   2.532  0.2162 -0.2476 -0.4480
  661MOL0     C87179   5.855   6.153   2.400 -0.4496  0.2974  0.2916
  661MOL0     C87180   5.934   6.246   2.316 -0.3395 -0.2802 -0.4547
  661MOL0     C87181   6.067   6.196   2.275  0.1295 -0.6665  0.3235
  661MOL0     C87182   6.127   6.296   2.177  0.5528 -0.6913 -0.2244
  661MOL0     C87183   6.251   6.266   2.118  0.0896  0.4161 -0.6812
  661MOL0     C87184   6.353   6.216   2.064  0.7580 -0.4576  0.1760
  661MOL0     C87185   5.666   6.096   2.608 -0.3596  0.8175 -0.2563
  661MOL0     C87186   5.556   6.118   2.685 -0.5254 -0.0760  0.0862
  661MOL0     H87187   5.112   6.139   2.806  3.5900  1.6812 -0.3765
  661MOL0     H87188   4.905   6.127   2.957  0.6634 -0.4636 -0.8115
  661MOL0     H87189   5.014   6.269   3.367 -1.2036  1.7286 -1.9440
  661MOL0     H87190   4.919   6.128   3.428 -1.6158 -0.3456 -0.7816
  661MOL0     H87191   4.808   6.303   3.518  3.1784 -0.2704 -0.2929
  661MOL0     H87192   4.720   6.255   3.376  1.0025 -1.8259 -0.6862
  661MOL0     H87193   4.777   6.443   3.236 -1.8359  1.0790  0.6804
  661MOL0     H87194   4.914   6.489   3.351  0.5135 -0.6660  0.9192
  661MOL0     H87195   4.720   6.520   3.517  1.1351  4.0100  0.3088
  661MOL0     H87196   4.735   6.636   3.393  0.6407 -0.8040  0.7536
  661MOL0     H87197   4.547   6.398   3.376  2.9426 -1.4277 -1.6196
  661MOL0     H87198   4.563   6.529   3.258  2.9812 -1.0421 -0.0253
  661MOL0     H87199   4.525   6.694   3.439 -2.5603  1.5849 -0.5182
  661MOL0     H87200   4.480   6.569   3.548 -1.5560  1.7105  0.6328
  661MOL0     H87201   4.355   6.641   3.279  2.1625 -0.0846  1.2101
  661MOL0     H87202   4.277   6.514   3.380 -1.5980  0.1403 -2.7509
  661MOL0     H87203   4.141   6.713   3.396 -0.4004  1.9839  1.4650
  661MOL0     H87204   4.279   6.815   3.428 -0.9135  0.6452  0.3921
  661MOL0     H87205   4.222   6.875   3.683  0.3015 -0.0888 -0.8729
  661MOL0     H87206   4.076   6.883   3.886 -1.1262 -0.2816 -0.8207
  661MOL0     H87207   4.176   6.780   3.994 -0.6115 -1.3634  1.1525
  661MOL0     H87208   3.986   6.642   4.034  0.8961 -0.0065  0.6630
  661MOL0     H87209   3.898   6.712   3.901 -1.3160  0.6617  0.0290
  661MOL0     H87210   3.993   6.864   4.159  0.5512 -0.7213 -0.8597
  661MOL0     H87211   3.906   6.932   4.028  0.4873 -0.7282  0.5522
  661MOL0     H87212   3.752   6.874   4.210  1.7051  1.6767 -0.3817
  661MOL0     H87213   3.776   6.703   4.179  0.2767  0.1290  0.9282
  661MOL0     H87214   3.549   6.767   4.246 -0.1934 -1.1450  0.7514
  661MOL0     H87215   3.323   6.751   4.265  0.9215 -1.0600  0.8584
  661MOL0     H87216   2.925   6.626   4.332  0.4441 -0.4567 -1.3641
  661MOL0     H87217   2.679   6.679   4.364 -0.2899  1.5296  2.0281
  661MOL0     H87218   2.475   6.918   4.113 -0.1884 -1.4865  0.4348
  661MOL0     H87219   2.492   7.074   4.206 -0.7244  0.6900 -0.2458
  661MOL0     H87220   2.327   6.977   4.368  2.5300  1.7740 -0.7840
  661MOL0     H87221   2.299   6.844   4.248 -0.7132  0.3890  0.1567
  661MOL0     H87222   2.200   6.992   4.087 -1.9933  0.2047 -0.4138
  661MOL0     H87223   2.275   7.139   4.163  0.5593  0.1575  2.3618
  661MOL0     H87224   2.060   6.969   4.290  1.8237 -0.7361 -1.3447
  661MOL0     H87225   2.112   7.134   4.339 -1.0927 -1.3476  1.0417
  661MOL0     H87226   2.021   7.077   4.058 -0.0197  2.0113 -1.5283
  661MOL0     H87227   2.062   7.232   4.130  2.0863  0.1136  2.9735
  661MOL0     H87228   1.815   7.216   4.134  1.3847 -0.1178 -2.3294
  661MOL0     H87229   1.883   7.194   4.303  1.9233  0.2071 -0.3779
  661MOL0     H87230   1.764   6.979   4.122 -0.3192 -1.1450  1.2046
  661MOL0     H87231   1.807   6.954   4.297 -0.9026 -2.0052 -1.3304
  661MOL0     H87232   1.603   7.135   4.194 -0.4422 -2.3729 -0.0122
  661MOL0     H87233   1.656   7.137   4.363 -0.4812 -0.9682  0.2906
  661MOL0     H87234   2.706   7.038   4.143  1.0485  0.2168  0.3377
  661MOL0     H87235   2.956   6.984   4.111  0.3504  1.1296  1.6228
  661MOL0     H87236   3.277   6.820   3.830 -0.3559  1.5845  0.6180
  661MOL0     H87237   3.523   6.847   3.837 -2.7791 -2.2675 -2.4254
  661MOL0     H87238   5.180   6.142   3.293  3.9618  1.3947 -0.6926
  661MOL0     H87239   5.367   6.125   3.126  0.0771  1.6018  0.4960
  661MOL0     H87240   5.669   6.359   2.887  1.5319 -2.0484  1.9037
  661MOL0     H87241   5.872   6.324   2.733 -0.3591 -0.1333  1.2762
  661MOL0     H87242   5.748   6.172   2.388 -0.8696 -1.5217  0.8187
  661MOL0     H87243   5.858   6.047   2.376 -2.5772  0.4186 -0.7263
  661MOL0     H87244   5.876   6.271   2.226  1.6986  1.5058 -1.3833
  661MOL0     H87245   5.950   6.342   2.366  0.0670  0.6593 -2.3037
  661MOL0     H87246   6.063   6.104   2.216  0.7285 -0.1513 -0.5513
  661MOL0     H87247   6.135   6.181   2.359 -0.9606 -3.3642  0.8184
  661MOL0     H87248   6.069   6.320   2.087 -0.3439  1.2306  0.7977
  661MOL0     H87249   6.142   6.391   2.229  1.5840  0.0407 -1.7809
  661MOL0     H87250   6.430   6.176   2.001 -2.0771 -0.1006 -3.9061
  661MOL0     H87251   5.651   6.013   2.540  0.1941 -1.7083  2.4918
  661MOL0     H87252   5.474   6.048   2.673  0.1747 -1.2307  1.6478
  662MOL0     O87253  10.260   4.420   8.630  0.0916  0.3273  0.1322
  662MOL0     C87254  10.271   4.541   8.613  0.3822 -0.2854  0.2393
  662MOL0     O87255  10.164   4.625   8.574  0.6941 -0.3228  0.2839
  662MOL0     C87256  10.038   4.565   8.569  0.1864 -0.6940  0.0793
  662MOL0     C87257   9.975   4.528   8.452 -0.2146  0.5087 -0.0877
  662MOL0     C87258   9.844   4.483   8.446 -0.7557  1.5899 -0.0078
  662MOL0     C87259   9.765   4.477   8.556 -0.2448 -0.6753  0.2383
  662MOL0     O87260   9.632   4.432   8.555 -0.5385  0.2586  0.2912
  662MOL0     C87261   9.563   4.414   8.673  1.0582  0.1856  0.3290
  662MOL0     C87262   9.419   4.366   8.655  0.4818 -0.2691  0.9019
  662MOL0     C87263   9.331   4.486   8.602  0.0886  0.0446 -0.3095
  662MOL0     C87264   9.184   4.432   8.578 -0.3899 -0.3424 -0.3208
  662MOL0     C87265   9.082   4.548   8.542  0.0867  0.2379  0.2547
  662MOL0     C87266   9.062   4.647   8.660 -0.1732  0.1717 -0.5089
  662MOL0     C87267   8.943   4.741   8.616  0.1100 -0.0946  0.1074
  662MOL0     C87268   8.899   4.837   8.729  0.3407 -0.3944 -0.7800
  662MOL0     N87269   8.758   4.821   8.764  0.2678  0.1612 -0.0650
  662MOL0     C87270   8.719   4.798   8.896  0.0217  0.3499  0.1177
  662MOL0     C87271   8.585   4.773   8.891  0.1218  0.5335  0.3709
  662MOL0     C87272   8.487   4.752   9.006 -0.2534  0.3512  0.1880
  662MOL0     C87273   8.447   4.610   8.994  0.4779 -0.4354  0.1045
  662MOL0     C87274   8.359   4.558   9.114 -0.2911 -0.0361  0.0487
  662MOL0     C87275   8.278   4.437   9.071 -0.0704  0.3242  0.3514
  662MOL0     O87276   8.198   4.447   8.951 -0.2594 -0.3077  0.8347
  662MOL0     C87277   8.073   4.509   8.949  0.0928  0.1435  0.4646
  662MOL0     C87278   8.008   4.556   9.062  0.1621  0.3271  0.8152
  662MOL0     C87279   7.876   4.608   9.053  0.0031  0.0454  0.1327
  662MOL0     C87280   7.811   4.618   8.929  0.1494 -0.6031 -0.0107
  662MOL0     C87281   7.673   4.678   8.911 -0.0339  0.0826  0.1853
  662MOL0     O87282   7.613   4.637   8.799  0.1841 -0.6511 -0.6457
  662MOL0     C87283   7.497   4.707   8.768 -0.2512  0.5629  0.6361
  662MOL0     C87284   7.506   4.792   8.657  0.3915  0.8510 -0.2684
  662MOL0     C87285   7.390   4.855   8.611  0.5392  0.1266 -0.3482
  662MOL0     C87286   7.264   4.826   8.671 -1.0537  0.1612  0.4781
  662MOL0     O87287   7.149   4.888   8.634  0.8107 -0.1361 -0.1770
  662MOL0     C87288   7.147   5.011   8.561  0.6840  0.0394  0.0983
  662MOL0     C87289   7.005   5.065   8.542  0.5122  0.3260 -0.8044
  662MOL0     C87290   6.901   4.968   8.498  1.1519  0.6020  0.4035
  662MOL0     C87291   6.760   5.023   8.545  0.0937 -0.5561 -0.0036
  662MOL0     C87292   6.645   4.959   8.462  0.0474  0.5465 -0.1807
  662MOL0     C87293   6.508   5.008   8.504 -0.1510  0.5434 -0.2316
  662MOL0     C87294   6.475   4.962   8.656  0.3158  0.3249  0.6223
  662MOL0     C87295   6.356   4.868   8.654  0.8644 -0.4673  0.0118
  662MOL0    Cl87296   6.329   4.810   8.830 -0.1790  0.2937 -0.1293
  662MOL0     C87297   7.259   4.746   8.785  0.0811 -0.0743 -0.7710
  662MOL0     C87298   7.373   4.673   8.831  0.2146 -0.0223 -0.2193
  662MOL0     O87299   7.627   4.756   8.993  0.3357  0.0008 -0.7357
  662MOL0     C87300   7.885   4.572   8.816  0.0532  0.4654  0.0526
  662MOL0     C87301   8.010   4.506   8.826  0.0959 -0.8033 -0.7618
  662MOL0     N87302   8.548   4.770   8.759 -0.0731 -1.1252 -0.1986
  662MOL0     N87303   8.648   4.810   8.680  0.7157  0.0868 -0.3824
  662MOL0     C87304   9.826   4.522   8.676 -0.2610  0.8262  0.3262
  662MOL0     C87305   9.959   4.570   8.684  0.5256  0.1905 -0.2244
  662MOL0     C87306  10.400   4.603   8.630  0.0638 -0.0790 -0.8087
  662MOL0     C87307  10.424   4.739   8.596  0.3948 -0.9967  0.3234
  662MOL0     C87308  10.550   4.802   8.616  0.7319 -0.7273  0.4520
  662MOL0     C87309  10.658   4.724   8.660  0.8281 -0.1579  0.4899
  662MOL0     O87310  10.793   4.774   8.660 -0.1075 -0.0297  0.0869
  662MOL0     C87311  10.884   4.730   8.763  0.1242  0.0444 -0.5300
  662MOL0     C87312  10.930   4.843   8.850 -0.9604  0.1797 -0.0438
  662MOL0     C87313  10.974   4.964   8.775 -0.1921  0.6391 -0.1165
  662MOL0     C87314  11.034   5.071   8.864 -1.2787 -0.6749  0.1051
  662MOL0     C87315  11.114   5.161   8.781  0.6615 -0.2295  0.4414
  662MOL0     C87316  11.177   5.245   8.726 -0.2459 -0.6290 -0.3502
  662MOL0     C87317  10.631   4.587   8.695 -0.0554 -0.2584  0.4864
  662MOL0     C87318  10.508   4.527   8.681 -0.3681 -1.1788  0.1173
  662MOL0     H87319  10.036   4.543   8.363  1.3460 -0.9895  0.6557
  662MOL0     H87320   9.805   4.439   8.355  4.3558 -2.6925 -0.6299
  662MOL0     H87321   9.557   4.508   8.727 -0.0520  0.4450 -0.2233
  662MOL0     H87322   9.614   4.334   8.728 -1.3513 -0.6136  1.5365
  662MOL0     H87323   9.381   4.346   8.755 -0.5378 -0.8419  0.4090
  662MOL0     H87324   9.411   4.271   8.601 -0.1976  0.6641 -0.6961
  662MOL0     H87325   9.373   4.530   8.511 -2.1142  4.9498  0.7657
  662MOL0     H87326   9.351   4.567   8.672  1.2512 -0.1211 -0.4306
  662MOL0     H87327   9.195   4.355   8.501 -3.8427 -1.1481 -0.1617
  662MOL0     H87328   9.143   4.381   8.666 -2.8085  2.2991  0.2028
  662MOL0     H87329   8.994   4.504   8.494  1.2731 -1.3333 -0.5785
  662MOL0     H87330   9.126   4.609   8.463  2.4460 -2.6003 -0.8151
  662MOL0     H87331   9.152   4.709   8.669 -1.7494  2.5828 -0.4130
  662MOL0     H87332   9.039   4.596   8.755  3.2414 -1.9653 -0.6676
  662MOL0     H87333   8.949   4.793   8.520 -2.0677 -1.1554 -0.6826
  662MOL0     H87334   8.860   4.670   8.610 -2.0964  2.4307 -1.4772
  662MOL0     H87335   8.901   4.939   8.687 -0.5167 -0.9003 -2.1333
  662MOL0     H87336   8.967   4.826   8.813 -0.3974  1.7066  0.1644
  662MOL0     H87337   8.778   4.796   8.987 -0.8851 -2.6351  0.7272
  662MOL0     H87338   8.403   4.820   8.993  2.3837  4.0870  1.1301
  662MOL0     H87339   8.531   4.781   9.102  0.5535  2.6516 -0.7944
  662MOL0     H87340   8.543   4.556   8.999  1.1659  0.7805  0.5096
  662MOL0     H87341   8.397   4.587   8.900 -0.7997  0.2906  0.5926
  662MOL0     H87342   8.419   4.517   9.196  0.5774  2.0432  0.5156
  662MOL0     H87343   8.298   4.636   9.161 -0.5346 -0.6397  0.7538
  662MOL0     H87344   8.214   4.385   9.144  1.0156 -2.8036 -0.7630
  662MOL0     H87345   8.351   4.357   9.057  0.6161  1.1098 -0.7080
  662MOL0     H87346   8.060   4.549   9.156  0.7417 -0.2075  0.4629
  662MOL0     H87347   7.828   4.627   9.148 -4.3674 -2.8767 -1.2046
  662MOL0     H87348   7.600   4.821   8.611  1.3634  0.5922  1.4530
  662MOL0     H87349   7.396   4.927   8.531 -0.2579 -1.7358 -2.1689
  662MOL0     H87350   7.192   4.989   8.463  2.4625  0.0591  0.8822
  662MOL0     H87351   7.209   5.084   8.614  0.0770 -0.2344  1.2176
  662MOL0     H87352   7.004   5.143   8.465 -4.2389 -1.7968 -3.3226
  662MOL0     H87353   6.978   5.109   8.639  1.6449  0.7466 -0.6669
  662MOL0     H87354   6.928   4.872   8.543  0.4766 -0.3155 -1.0937
  662MOL0     H87355   6.899   4.959   8.389 -0.3404 -1.2411  0.5329
  662MOL0     H87356   6.762   5.006   8.653  1.4595 -1.8424 -0.2009
  662MOL0     H87357   6.760   5.131   8.532 -1.6405 -0.5473 -0.2030
  662MOL0     H87358   6.644   4.850   8.471 -1.4936  0.5303 -0.3621
  662MOL0     H87359   6.658   4.973   8.355  2.1532  0.2159 -0.0219
  662MOL0     H87360   6.427   4.969   8.443 -1.1423 -1.3683  2.1346
  662MOL0     H87361   6.504   5.117   8.498 -0.0880  0.8219  2.8050
  662MOL0     H87362   6.560   4.905   8.695  2.0978  0.4330 -2.7051
  662MOL0     H87363   6.444   5.042   8.723 -1.3231 -3.0123  4.2223
  662MOL0     H87364   6.374   4.789   8.581 -0.7468  1.2106 -2.3705
  662MOL0     H87365   6.269   4.921   8.613  1.7338  2.0820  1.2127
  662MOL0     H87366   7.163   4.742   8.835 -0.4453  0.3093 -1.7376
  662MOL0     H87367   7.366   4.606   8.915 -0.2511  0.3037  0.0054
  662MOL0     H87368   7.839   4.580   8.718 -0.5745 -0.6778  0.2441
  662MOL0     H87369   8.077   4.471   8.748 -0.9535  1.6492 -2.8911
  662MOL0     H87370   9.779   4.517   8.774 -0.5994 -2.0834  0.1055
  662MOL0     H87371  10.001   4.610   8.776 -0.4195  2.8625 -0.8813
  662MOL0     H87372  10.335   4.798   8.577  1.0071 -0.2937 -0.4036
  662MOL0     H87373  10.563   4.909   8.601 -1.7066  0.0919  3.2168
  662MOL0     H87374  10.974   4.682   8.723  2.9179  1.8120  3.0540
  662MOL0     H87375  10.846   4.648   8.825  0.4616 -1.1898 -1.9016
  662MOL0     H87376  10.842   4.867   8.911 -2.2160  0.2728 -1.8294
  662MOL0     H87377  11.012   4.806   8.913  0.4142 -0.6104 -2.1676
  662MOL0     H87378  10.884   5.014   8.739 -0.7086  1.6466  2.4125
  662MOL0     H87379  11.045   4.937   8.696  0.5607  1.6574  0.2004
  662MOL0     H87380  10.963   5.132   8.920 -0.1675 -1.0026  1.9566
  662MOL0     H87381  11.098   5.018   8.936 -3.1034 -3.7288 -0.3487
  662MOL0     H87382  11.235   5.329   8.693 -1.1866 -0.0947 -0.6756
  662MOL0     H87383  10.716   4.526   8.724 -0.4898 -0.0092  2.3934
  662MOL0     H87384  10.501   4.419   8.689  2.1221 -1.6004 -2.1079
  663MOL0     O87385   3.132   1.500   1.031  0.2061 -0.6232  0.2654
  663MOL0     C87386   3.172   1.611   0.998 -0.0715 -0.4678 -0.1530
  663MOL0     O87387   3.094   1.724   0.998  0.1916 -0.4028  0.1562
  663MOL0     C87388   2.956   1.721   1.008 -0.3203 -0.9180  0.6269
  663MOL0     C87389   2.890   1.777   0.902 -0.0487 -1.0616 -0.8079
  663MOL0     C87390   2.748   1.782   0.908 -0.7747 -0.5722  0.2215
  663MOL0     C87391   2.669   1.732   1.016 -0.7960 -0.3803  0.2996
  663MOL0     O87392   2.535   1.750   1.034  0.1548  0.0416 -0.2153
  663MOL0     C87393   2.458   1.727   0.914 -0.0088  0.2581  0.1402
  663MOL0     C87394   2.313   1.754   0.942 -0.0833  0.2683 -0.1172
  663MOL0     C87395   2.298   1.906   0.968  0.0588 -0.0062  0.0309
  663MOL0     C87396   2.154   1.945   0.994 -0.4876 -0.8806 -0.4412
  663MOL0     C87397   2.143   2.099   1.006  0.2964  0.0074  0.4222
  663MOL0     C87398   1.995   2.125   1.051  0.6956  0.3519 -0.0197
  663MOL0     C87399   1.938   2.262   1.034 -1.3436 -0.2340 -0.0974
  663MOL0     C87400   2.027   2.377   1.091  0.5675  0.0629 -0.2427
  663MOL0     N87401   1.942   2.498   1.121 -0.8525  0.5539 -0.1461
  663MOL0     C87402   1.929   2.604   1.043 -0.4158  0.2475  0.1414
  663MOL0     C87403   1.816   2.664   1.090  0.5392  0.7637 -0.6895
  663MOL0     C87404   1.751   2.788   1.044  0.2246  0.5362  0.5194
  663MOL0     C87405   1.596   2.777   1.063  0.3662 -0.2216  0.4776
  663MOL0     C87406   1.522   2.902   1.000  0.1967 -0.2024  0.2329
  663MOL0     C87407   1.530   3.028   1.092  0.3329  0.5649 -0.0625
  663MOL0     O87408   1.467   3.011   1.218  0.0417  0.4447 -0.4056
  663MOL0     C87409   1.331   3.013   1.240  0.4090  0.5400 -0.0807
  663MOL0     C87410   1.236   3.013   1.137 -0.6048 -0.1234  0.1948
  663MOL0     C87411   1.102   2.998   1.169  0.5208  0.2794 -0.1314
  663MOL0     C87412   1.048   2.991   1.296 -0.2471  0.2161 -0.0745
  663MOL0     C87413   0.904   2.986   1.323 -0.2595 -0.1624  0.0786
  663MOL0     O87414   0.815   2.974   1.214 -0.3992 -0.0417 -0.6671
  663MOL0     C87415   0.683   2.969   1.247  0.2407  1.1304  0.1545
  663MOL0     C87416   0.636   2.842   1.293 -1.0327  0.0101 -0.3661
  663MOL0     C87417   0.496   2.823   1.308  0.1894 -0.5471 -0.2617
  663MOL0     C87418   0.410   2.931   1.290 -0.4177 -0.7515 -0.1698
  663MOL0     O87419   0.275   2.912   1.321  0.1026  0.5086 -0.8971
  663MOL0     C87420   0.198   3.030   1.359  0.4630 -0.5030 -0.4076
  663MOL0     C87421   0.057   2.979   1.395  0.1352  0.0171 -0.1844
  663MOL0     C87422  -0.009   2.899   1.276 -0.3614 -0.5676 -0.0438
  663MOL0     C87423  -0.136   2.842   1.327  0.7510  1.2574 -0.2262
  663MOL0     C87424  -0.212   2.756   1.217  0.3798  0.0113  0.1878
  663MOL0     C87425  -0.335   2.694   1.292 -0.4979  1.0705 -0.6734
  663MOL0     C87426  -0.416   2.589   1.212  0.5463 -0.2222 -0.0146
  663MOL0     C87427  -0.532   2.662   1.137  0.5430  0.1460  0.0225
  663MOL0    Cl87428  -0.653   2.534   1.088 -0.1233 -0.1224  0.0043
  663MOL0     C87429   0.457   3.055   1.244  0.2502  0.0637 -0.0057
  663MOL0     C87430   0.590   3.072   1.220  0.3175 -0.2286  0.2010
  663MOL0     O87431   0.870   2.988   1.444 -0.1764  0.1858 -0.1351
  663MOL0     C87432   1.146   3.012   1.397 -0.5099 -0.1121 -0.3667
  663MOL0     C87433   1.284   3.013   1.370 -0.0390 -0.1671 -0.2554
  663MOL0     N87434   1.771   2.592   1.203  0.1477  0.0510 -0.3744
  663MOL0     N87435   1.844   2.492   1.215  0.2561  0.0209  0.8381
  663MOL0     C87436   2.741   1.688   1.128 -0.0032 -0.0306 -1.0141
  663MOL0     C87437   2.879   1.668   1.113  0.1373  0.6114 -0.0728
  663MOL0     C87438   3.316   1.622   0.954 -0.3760 -0.4871 -0.0264
  663MOL0     C87439   3.378   1.745   0.919  0.6126 -0.3045  0.0074
  663MOL0     C87440   3.509   1.760   0.882 -0.4062  0.7141  0.7108
  663MOL0     C87441   3.584   1.640   0.853  0.9111  0.0456 -0.6264
  663MOL0     O87442   3.714   1.631   0.830 -0.4387  0.1891  0.1212
  663MOL0     C87443   3.788   1.752   0.815 -0.9402  1.5310  0.2648
  663MOL0     C87444   3.939   1.727   0.790 -0.8326  0.4476  0.5922
  663MOL0     C87445   4.007   1.657   0.909 -0.3184  1.4472 -0.4535
  663MOL0     C87446   4.152   1.612   0.886  0.5183 -0.4588  0.3574
  663MOL0     C87447   4.179   1.564   0.757  0.0758  0.1994 -0.1308
  663MOL0     C87448   4.190   1.539   0.642  0.0461 -0.0971  0.3826
  663MOL0     C87449   3.529   1.515   0.883  0.2991 -0.1178  0.8082
  663MOL0     C87450   3.398   1.509   0.925 -1.0454  0.5702 -0.3083
  663MOL0     H87451   2.952   1.822   0.826  0.3790 -0.2049  0.0351
  663MOL0     H87452   2.695   1.822   0.822 -0.8481  0.1926  0.6157
  663MOL0     H87453   2.469   1.622   0.883 -0.7229  0.1627  0.1823
  663MOL0     H87454   2.474   1.796   0.831 -0.7242  0.5160  0.2087
  663MOL0     H87455   2.273   1.692   1.023  1.3167  1.5291  1.6159
  663MOL0     H87456   2.250   1.733   0.855 -0.7603 -0.7485  0.5915
  663MOL0     H87457   2.339   1.963   0.884  2.8040 -1.7297  0.0518
  663MOL0     H87458   2.365   1.945   1.046 -0.7764  1.5799 -0.0206
  663MOL0     H87459   2.093   1.922   0.906  1.1880  2.8798 -2.8531
  663MOL0     H87460   2.123   1.898   1.087 -0.8781 -1.3786 -0.8210
  663MOL0     H87461   2.148   2.133   0.902 -1.8927 -0.9142 -0.0433
  663MOL0     H87462   2.220   2.147   1.067  1.8058 -3.2140  1.2503
  663MOL0     H87463   2.000   2.102   1.157  1.1194 -1.3804 -0.3905
  663MOL0     H87464   1.936   2.050   0.996  0.6830 -0.5626  1.2005
  663MOL0     H87465   1.925   2.282   0.928 -0.6313  1.4389  0.0984
  663MOL0     H87466   1.845   2.248   1.091 -0.4863 -0.0851  1.3795
  663MOL0     H87467   2.108   2.398   1.021  0.6306 -2.0530 -0.8725
  663MOL0     H87468   2.082   2.352   1.182 -0.6823  1.7372  1.0540
  663MOL0     H87469   1.993   2.645   0.965  0.7649  1.2316  1.5733
  663MOL0     H87470   1.781   2.806   0.941 -0.4421 -0.0998  0.1980
  663MOL0     H87471   1.781   2.870   1.110 -3.4580  1.8007  0.8995
  663MOL0     H87472   1.572   2.746   1.165  3.6775  0.4078  1.5420
  663MOL0     H87473   1.571   2.688   1.005  3.2628 -0.0772 -1.1492
  663MOL0     H87474   1.572   2.935   0.909  0.2442  5.2519  1.8539
  663MOL0     H87475   1.419   2.866   0.989  0.4577 -1.3980  1.3736
  663MOL0     H87476   1.496   3.123   1.050 -0.2788  1.1591  1.6972
  663MOL0     H87477   1.631   3.060   1.120 -0.2731  4.5903 -1.8040
  663MOL0     H87478   1.264   3.000   1.033 -3.2462 -0.2715 -0.5797
  663MOL0     H87479   1.039   2.970   1.085 -2.6305 -1.4755  2.5848
  663MOL0     H87480   0.714   2.774   1.326  0.5808  1.2443 -1.4952
  663MOL0     H87481   0.458   2.728   1.344  1.4710 -0.7459  0.6519
  663MOL0     H87482   0.184   3.103   1.279  2.2683  2.0178  1.3993
  663MOL0     H87483   0.252   3.087   1.436 -1.2072  1.5790 -0.6883
  663MOL0     H87484  -0.007   3.062   1.427 -0.3317 -1.1969  2.2698
  663MOL0     H87485   0.069   2.919   1.486 -0.8663  3.0693  2.1371
  663MOL0     H87486   0.060   2.819   1.248  0.6290  0.4702 -0.6634
  663MOL0     H87487  -0.022   2.964   1.189 -2.2561 -0.4374  0.2839
  663MOL0     H87488  -0.111   2.788   1.419  3.0281  2.4109 -0.0926
  663MOL0     H87489  -0.210   2.919   1.350 -1.4146 -0.0556 -2.1939
  663MOL0     H87490  -0.147   2.676   1.181 -0.0544 -0.1854 -0.1806
  663MOL0     H87491  -0.246   2.822   1.136  0.6796  0.3164  0.3067
  663MOL0     H87492  -0.405   2.777   1.309 -0.0108  1.1211  1.4166
  663MOL0     H87493  -0.306   2.663   1.393  0.2752  2.2139 -0.5271
  663MOL0     H87494  -0.348   2.529   1.151  1.2777 -0.0125  0.5796
  663MOL0     H87495  -0.466   2.523   1.283  1.5963 -1.2453 -0.1940
  663MOL0     H87496  -0.492   2.704   1.043  1.1529 -3.1795 -1.3390
  663MOL0     H87497  -0.579   2.735   1.203  0.0628 -0.9727  0.9347
  663MOL0     H87498   0.388   3.135   1.220  0.4285  0.1352 -0.2844
  663MOL0     H87499   0.629   3.167   1.185 -1.7401  0.0903 -1.4285
  663MOL0     H87500   1.114   3.013   1.501  1.5797 -3.3361  0.4479
  663MOL0     H87501   1.349   3.016   1.457  0.4403 -2.7890 -0.4365
  663MOL0     H87502   2.696   1.648   1.219  1.8413 -4.4844 -1.7933
  663MOL0     H87503   2.937   1.618   1.191 -0.2227 -1.6598 -1.1751
  663MOL0     H87504   3.326   1.838   0.937  0.2862 -0.3104 -0.8702
  663MOL0     H87505   3.547   1.859   0.859  0.5871  0.2225  0.1558
  663MOL0     H87506   3.779   1.807   0.910  3.1229  2.2405  0.4409
  663MOL0     H87507   3.743   1.815   0.738 -0.1646  3.7562  1.5289
  663MOL0     H87508   3.953   1.669   0.698  0.7703  2.0905 -0.2391
  663MOL0     H87509   3.992   1.817   0.760 -0.5284  0.9784  2.5479
  663MOL0     H87510   3.953   1.563   0.923  2.0024  0.1869  0.5977
  663MOL0     H87511   4.009   1.718   1.000  0.2045 -0.2725  0.7416
  663MOL0     H87512   4.212   1.701   0.908 -1.8807  1.0689  1.1193
  663MOL0     H87513   4.173   1.537   0.963  3.1501  0.3251  0.5150
  663MOL0     H87514   4.180   1.505   0.541  1.4614  1.7940 -0.4629
  663MOL0     H87515   3.583   1.421   0.878 -1.2059 -0.9247 -2.0351
  663MOL0     H87516   3.366   1.411   0.959  1.4853 -0.8650 -1.7183
  664MOL0     O87517   1.190   6.802   9.349 -0.5181  0.1464  0.2277
  664MOL0     C87518   1.152   6.870   9.440  0.1940  0.3891  0.0538
  664MOL0     O87519   1.233   6.936   9.528  0.2669 -0.1481 -0.8898
  664MOL0     C87520   1.365   6.934   9.515  0.2351 -0.0338 -0.2316
  664MOL0     C87521   1.434   7.056   9.493 -0.0934  0.1723  0.1378
  664MOL0     C87522   1.575   7.056   9.475  0.0623  0.5455  0.3695
  664MOL0     C87523   1.641   6.936   9.476 -0.7832  0.3229 -0.2399
  664MOL0     O87524   1.780   6.928   9.456  0.2318  0.1881 -0.0999
  664MOL0     C87525   1.854   7.047   9.471 -0.0788 -0.3858  0.2282
  664MOL0     C87526   2.002   7.010   9.486  0.7257  0.3056  0.3056
  664MOL0     C87527   2.031   6.932   9.611  0.2646  0.6718 -1.2803
  664MOL0     C87528   2.154   6.846   9.597 -0.9771 -0.1586  0.0685
  664MOL0     C87529   2.283   6.915   9.636 -0.2901  0.5887  0.6760
  664MOL0     C87530   2.407   6.839   9.602 -0.0134  0.4579  0.1847
  664MOL0     C87531   2.534   6.917   9.618  0.2268 -0.2911  0.7400
  664MOL0     C87532   2.652   6.823   9.631 -0.4996 -0.2654 -0.1258
  664MOL0     N87533   2.772   6.890   9.610  0.0048  0.4466 -0.5222
  664MOL0     C87534   2.794   7.025   9.631  0.2087  0.0441 -0.6528
  664MOL0     C87535   2.929   7.043   9.604  0.1277  0.1362 -0.3208
  664MOL0     C87536   3.009   7.151   9.672 -0.0994  0.2931 -0.1193
  664MOL0     C87537   3.004   7.293   9.608  0.1189  0.0251  0.1663
  664MOL0     C87538   3.027   7.271   9.457  0.1106  0.3930  0.7758
  664MOL0     C87539   3.072   7.394   9.385 -0.1729 -0.1454  0.0475
  664MOL0     O87540   3.214   7.425   9.404  0.1364  0.3190 -0.1849
  664MOL0     C87541   3.310   7.372   9.315  0.0567  0.0561  0.2674
  664MOL0     C87542   3.302   7.261   9.227 -0.2093  0.1075 -0.2495
  664MOL0     C87543   3.411   7.209   9.154  0.8705 -0.7688 -0.0087
  664MOL0     C87544   3.531   7.283   9.152 -0.3261  0.2504 -0.6967
  664MOL0     C87545   3.639   7.236   9.064 -0.0918 -0.6177 -0.2619
  664MOL0     O87546   3.634   7.101   9.028 -0.2911  0.4133 -0.0402
  664MOL0     C87547   3.750   7.054   8.972  0.0461 -0.2165  0.0306
  664MOL0     C87548   3.863   7.043   9.047  0.0030  0.6105  0.6326
  664MOL0     C87549   3.983   6.998   8.992 -0.7749  0.1442  0.7296
  664MOL0     C87550   3.984   6.956   8.854 -0.1140  0.1112 -0.3354
  664MOL0     O87551   4.091   6.896   8.801  0.6788 -0.3580 -0.5435
  664MOL0     C87552   4.069   6.774   8.736 -0.4279  1.0778 -0.2452
  664MOL0     C87553   4.218   6.740   8.692  0.4811  0.0211 -0.2825
  664MOL0     C87554   4.265   6.601   8.744  0.8310 -0.2007 -0.6945
  664MOL0     C87555   4.408   6.575   8.706  0.1337 -0.4011 -0.1707
  664MOL0     C87556   4.465   6.446   8.768 -0.2845  1.1921 -0.7455
  664MOL0     C87557   4.401   6.324   8.705  0.1414  0.4874  0.0127
  664MOL0     C87558   4.462   6.185   8.759  0.1791  0.3328 -1.1653
  664MOL0     C87559   4.409   6.077   8.670 -0.5431  0.1839  0.3471
  664MOL0    Cl87560   4.460   5.923   8.743  0.1136  0.1315 -0.4136
  664MOL0     C87561   3.862   6.961   8.781  0.2723 -0.7325  0.7522
  664MOL0     C87562   3.751   7.009   8.840 -0.6017 -0.2793 -0.4702
  664MOL0     O87563   3.735   7.313   9.044 -0.0683  0.0041  0.5204
  664MOL0     C87564   3.539   7.387   9.240  0.7336  0.4820 -0.0560
  664MOL0     C87565   3.429   7.436   9.309  0.1408 -1.3372 -0.0686
  664MOL0     N87566   2.978   6.924   9.551 -0.0511  0.7883  0.0738
  664MOL0     N87567   2.887   6.832   9.563 -0.4313 -1.0621 -0.2382
  664MOL0     C87568   1.578   6.815   9.493 -0.8294  0.2633  0.0438
  664MOL0     C87569   1.439   6.810   9.518 -0.0226  0.1914  0.1548
  664MOL0     C87570   1.013   6.895   9.451 -0.7142  0.2678  0.6042
  664MOL0     C87571   0.967   7.012   9.516  0.6307 -0.6148 -0.1296
  664MOL0     C87572   0.826   7.030   9.543 -0.7146 -0.5794  0.0027
  664MOL0     C87573   0.728   6.939   9.501 -0.3350  0.4152 -0.3976
  664MOL0     O87574   0.603   6.972   9.534  0.3659 -0.6475 -0.5078
  664MOL0     C87575   0.489   6.904   9.477 -0.2130  0.4579 -0.8514
  664MOL0     C87576   0.388   7.010   9.454 -0.3067  0.4629 -0.2101
  664MOL0     C87577   0.277   6.948   9.369 -0.0138  0.5076  0.0454
  664MOL0     C87578   0.152   7.024   9.389  0.0774  0.7136  0.0135
  664MOL0     C87579   0.110   7.034   9.529  0.5800 -0.5226  0.1575
  664MOL0     C87580   0.065   7.050   9.641  0.0191 -0.5181  0.4330
  664MOL0     C87581   0.769   6.826   9.424  0.9531  0.1825 -0.5670
  664MOL0     C87582   0.906   6.800   9.399 -0.5429  0.1453 -0.4990
  664MOL0     H87583   1.376   7.147   9.501  0.5332  0.5562  0.4051
  664MOL0     H87584   1.622   7.153   9.463 -2.9915  2.3455  2.0071
  664MOL0     H87585   1.821   7.107   9.555 -0.5985  1.1631 -1.0303
  664MOL0     H87586   1.848   7.114   9.385 -1.7099 -0.9236 -0.1143
  664MOL0     H87587   2.064   7.100   9.479  1.0422  0.0129 -0.8700
  664MOL0     H87588   2.018   6.944   9.401 -0.5527  0.9208 -0.4327
  664MOL0     H87589   1.948   6.862   9.626  0.9976  0.2026  1.0604
  664MOL0     H87590   2.039   6.993   9.702 -0.5288 -2.9510  1.4832
  664MOL0     H87591   2.142   6.759   9.661  4.1208 -0.8415  0.4962
  664MOL0     H87592   2.161   6.805   9.496 -1.0199  0.9792 -0.4103
  664MOL0     H87593   2.277   6.941   9.742 -0.2134 -3.5369  1.8608
  664MOL0     H87594   2.291   7.006   9.575 -0.8313 -0.3845 -0.9044
  664MOL0     H87595   2.406   6.797   9.501 -0.4557 -0.8367  0.7041
  664MOL0     H87596   2.419   6.757   9.674  1.9051  0.1519 -0.4126
  664MOL0     H87597   2.539   6.975   9.525 -0.5214  0.9748  1.4589
  664MOL0     H87598   2.521   6.979   9.707  0.8628  1.3228 -0.2486
  664MOL0     H87599   2.652   6.737   9.563  3.2125  0.3963 -1.2139
  664MOL0     H87600   2.644   6.772   9.728 -1.6004 -0.1220 -0.1279
  664MOL0     H87601   2.743   7.091   9.700  2.0299 -0.1023  0.9236
  664MOL0     H87602   3.113   7.120   9.662 -0.1234  0.6419 -1.6775
  664MOL0     H87603   2.984   7.169   9.777  0.7158 -0.3271  0.1954
  664MOL0     H87604   3.078   7.365   9.645 -1.5599  2.5479 -1.0561
  664MOL0     H87605   2.908   7.335   9.640  0.9706  1.4859  0.9564
  664MOL0     H87606   3.110   7.201   9.447  0.7465  1.3587 -1.3992
  664MOL0     H87607   2.934   7.231   9.416 -0.2600  1.8300  0.1225
  664MOL0     H87608   3.027   7.487   9.419  1.7939  1.3487 -1.2184
  664MOL0     H87609   3.051   7.367   9.281  2.4428  1.7389 -1.0855
  664MOL0     H87610   3.214   7.200   9.208 -0.1995  0.2459 -0.7314
  664MOL0     H87611   3.385   7.116   9.104 -0.0386 -1.3546  1.4960
  664MOL0     H87612   3.850   7.058   9.153 -3.0378  0.5768  0.3567
  664MOL0     H87613   4.074   6.983   9.049 -1.5314  0.0516  1.9385
  664MOL0     H87614   4.006   6.782   8.647 -0.2903  1.3741 -0.3159
  664MOL0     H87615   4.022   6.695   8.795  1.1295 -0.0063 -0.3834
  664MOL0     H87616   4.290   6.811   8.734  1.4111 -0.5148 -0.9314
  664MOL0     H87617   4.222   6.750   8.583 -2.0163 -0.1610 -0.4493
  664MOL0     H87618   4.206   6.512   8.720  1.8571 -1.7898  2.2138
  664MOL0     H87619   4.254   6.607   8.852  0.4924 -1.3938 -0.6459
  664MOL0     H87620   4.421   6.564   8.598  2.3030  0.6990 -0.0781
  664MOL0     H87621   4.466   6.662   8.737 -1.5685  0.3171  1.1650
  664MOL0     H87622   4.450   6.441   8.877 -1.0731 -3.5868 -0.8577
  664MOL0     H87623   4.573   6.437   8.750  0.0837  4.0590 -0.3359
  664MOL0     H87624   4.415   6.326   8.597 -1.3296  0.8483 -0.1926
  664MOL0     H87625   4.293   6.330   8.720  0.3139  5.3440  1.0620
  664MOL0     H87626   4.571   6.177   8.751  0.1822 -2.8691  0.5329
  664MOL0     H87627   4.435   6.177   8.865  0.7130  0.0231 -1.0473
  664MOL0     H87628   4.464   6.089   8.577  2.6758 -0.4647  2.0036
  664MOL0     H87629   4.303   6.091   8.647 -0.4819  1.2746  0.6851
  664MOL0     H87630   3.861   6.917   8.681  0.7008  0.8629  0.0121
  664MOL0     H87631   3.659   7.025   8.783 -0.3543  1.6433 -0.3876
  664MOL0     H87632   3.637   7.433   9.248  0.5555  0.8695 -0.0570
  664MOL0     H87633   3.439   7.529   9.365 -0.4396 -2.6047  2.2628
  664MOL0     H87634   1.633   6.722   9.494 -3.2775 -1.2765  0.6533
  664MOL0     H87635   1.396   6.713   9.540  1.9409 -0.1029  3.2145
  664MOL0     H87636   1.034   7.086   9.557  1.8673 -0.7173 -1.8565
  664MOL0     H87637   0.780   7.116   9.592 -2.0947  0.1688 -2.4297
  664MOL0     H87638   0.473   6.813   9.536  1.3356 -0.7944 -2.2453
  664MOL0     H87639   0.508   6.865   9.376 -0.5836 -0.4180 -0.5934
  664MOL0     H87640   0.350   7.061   9.544  2.1105  1.8252  0.1150
  664MOL0     H87641   0.436   7.080   9.386 -1.5181  0.1722 -1.4130
  664MOL0     H87642   0.257   6.844   9.397 -1.0041  0.6560 -0.0750
  664MOL0     H87643   0.316   6.941   9.267  1.8977 -0.7532  0.7986
  664MOL0     H87644   0.151   7.123   9.342  1.0432  1.2397  1.0573
  664MOL0     H87645   0.066   6.975   9.342 -0.1135  1.0496  0.0043
  664MOL0     H87646   0.022   7.054   9.739  3.3816  0.1193  1.9998
  664MOL0     H87647   0.694   6.754   9.393  1.6657 -0.9278  0.1975
  664MOL0     H87648   0.927   6.704   9.354 -1.4993  1.4274 -3.9534
  665MOL0     O87649   4.387   1.109   7.736 -0.0073  0.1819  0.1969
  665MOL0     C87650   4.391   0.998   7.784  0.1975 -0.5241 -0.5873
  665MOL0     O87651   4.277   0.929   7.808 -0.4547  0.2812  0.2885
  665MOL0     C87652   4.153   0.995   7.796 -0.3016  0.8572 -0.1356
  665MOL0     C87653   4.102   1.051   7.680 -0.5752 -0.8701  0.4155
  665MOL0     C87654   3.979   1.115   7.683  0.6988  0.5001  0.3690
  665MOL0     C87655   3.897   1.106   7.795 -0.0402  0.7040 -0.1728
  665MOL0     O87656   3.772   1.162   7.800  0.2530 -0.0944 -0.2889
  665MOL0     C87657   3.694   1.179   7.684  0.0879  0.6289  0.8731
  665MOL0     C87658   3.545   1.190   7.724  0.2986 -0.0725  0.5601
  665MOL0     C87659   3.502   1.072   7.814  0.6106 -0.3920 -0.2381
  665MOL0     C87660   3.353   1.090   7.858 -0.1037 -0.9789 -0.3276
  665MOL0     C87661   3.282   0.976   7.929 -0.6168  0.4100 -0.0845
  665MOL0     C87662   3.154   0.999   8.001  0.5193  0.3815  0.2087
  665MOL0     C87663   3.015   0.995   7.932 -0.0063 -0.3273 -0.4462
  665MOL0     C87664   3.009   1.117   7.821  0.9571 -0.6938  0.5989
  665MOL0     N87665   2.864   1.131   7.794 -0.5829  0.4127 -0.1180
  665MOL0     C87666   2.801   1.044   7.711 -0.0367  0.0204 -0.0657
  665MOL0     C87667   2.671   1.070   7.715 -0.9411  0.6319 -0.5157
  665MOL0     C87668   2.567   0.986   7.646  0.5297  0.4953  0.3828
  665MOL0     C87669   2.425   1.008   7.707  0.3055  0.7435  1.2088
  665MOL0     C87670   2.339   0.890   7.666 -0.2033 -0.7214  0.6674
  665MOL0     C87671   2.198   0.903   7.706  0.0212 -0.9063  0.6615
  665MOL0     O87672   2.184   0.857   7.839 -0.1972  0.0164 -0.1498
  665MOL0     C87673   2.053   0.852   7.890  0.0825  0.4998 -0.1315
  665MOL0     C87674   2.051   0.805   8.021  0.5166  0.3602  0.1728
  665MOL0     C87675   1.936   0.787   8.088  0.7107  0.2451  0.0166
  665MOL0     C87676   1.810   0.822   8.033 -0.4130 -0.3226 -0.7540
  665MOL0     C87677   1.676   0.815   8.099  0.1760  0.4384 -0.4470
  665MOL0     O87678   1.568   0.859   8.027  0.1339 -0.2469  0.2719
  665MOL0     C87679   1.444   0.847   8.083 -0.1668  0.0873 -0.2075
  665MOL0     C87680   1.370   0.960   8.102 -0.3484  0.5543 -0.0130
  665MOL0     C87681   1.247   0.948   8.166 -1.2696  0.3284  0.5315
  665MOL0     C87682   1.201   0.827   8.213  0.7445 -0.8045 -0.4470
  665MOL0     O87683   1.078   0.814   8.267 -1.2959 -0.2742 -0.1881
  665MOL0     C87684   0.970   0.871   8.187 -0.5588  0.8352 -0.1543
  665MOL0     C87685   0.843   0.823   8.257 -0.4156 -0.2267  0.1863
  665MOL0     C87686   0.714   0.867   8.175  1.2601 -0.1158  0.6163
  665MOL0     C87687   0.587   0.844   8.254 -1.1038 -0.5265  0.8031
  665MOL0     C87688   0.460   0.883   8.178  0.5017 -0.1847  1.0378
  665MOL0     C87689   0.326   0.854   8.255 -0.0012  0.9402 -0.7312
  665MOL0     C87690   0.300   0.703   8.273  0.1713 -0.7292 -1.1637
  665MOL0     C87691   0.210   0.680   8.394  0.2848 -0.2913 -0.6163
  665MOL0    Cl87692   0.053   0.746   8.360 -0.1668  0.3101  0.4418
  665MOL0     C87693   1.283   0.716   8.207  0.1643 -0.3860  1.1438
  665MOL0     C87694   1.402   0.726   8.135 -0.6446  0.3812  0.3088
  665MOL0     O87695   1.671   0.789   8.215  0.0410 -0.3744 -0.0629
  665MOL0     C87696   1.818   0.861   7.896 -0.1972 -0.3046  0.6597
  665MOL0     C87697   1.935   0.871   7.821 -0.4033  0.1623  0.3483
  665MOL0     N87698   2.654   1.171   7.806 -0.5136  0.6649 -0.1269
  665MOL0     N87699   2.768   1.210   7.856  0.1716  0.5537  0.1263
  665MOL0     C87700   3.943   1.049   7.911 -1.3755 -0.6173  0.6458
  665MOL0     C87701   4.077   0.994   7.908 -0.4126 -0.2877  0.0966
  665MOL0     C87702   4.513   0.946   7.836 -0.8517  0.2340 -0.2161
  665MOL0     C87703   4.627   1.035   7.843 -0.6971  0.6735  0.0784
  665MOL0     C87704   4.748   0.984   7.895 -0.3691 -0.1471 -0.1031
  665MOL0     C87705   4.760   0.850   7.935  0.2208  0.0146 -0.1088
  665MOL0     O87706   4.876   0.793   7.991  0.2694 -0.5543  0.5007
  665MOL0     C87707   4.989   0.872   8.006  0.5405 -0.5890 -0.3342
  665MOL0     C87708   5.063   0.823   8.134 -0.0695  0.0045 -0.4616
  665MOL0     C87709   5.107   0.671   8.130  0.3557  0.2834  0.6795
  665MOL0     C87710   5.008   0.565   8.187 -0.4123  0.5333  0.9011
  665MOL0     C87711   4.947   0.588   8.317 -0.8455 -0.0489 -0.1659
  665MOL0     C87712   4.896   0.585   8.428 -1.0643 -0.9495 -0.0277
  665MOL0     C87713   4.644   0.773   7.939 -0.4249  0.0945  0.8384
  665MOL0     C87714   4.525   0.814   7.885 -0.3421  0.5986 -0.1753
  665MOL0     H87715   4.151   1.045   7.583 -1.0837  0.6860  0.0361
  665MOL0     H87716   3.934   1.154   7.592 -2.0101 -1.5404  0.7021
  665MOL0     H87717   3.703   1.095   7.614 -2.6238  2.7810 -2.3755
  665MOL0     H87718   3.709   1.272   7.628 -2.5472 -0.2258 -1.4916
  665MOL0     H87719   3.474   1.184   7.641 -0.5822 -2.1816  1.3816
  665MOL0     H87720   3.528   1.282   7.781 -0.4175  0.8180 -1.0248
  665MOL0     H87721   3.563   1.076   7.904 -0.9000 -1.7948  0.9078
  665MOL0     H87722   3.516   0.979   7.758 -0.7427  0.3974 -2.0216
  665MOL0     H87723   3.344   1.168   7.934  1.4802  0.0281 -1.1279
  665MOL0     H87724   3.293   1.131   7.777 -0.4492 -0.0291  0.3877
  665MOL0     H87725   3.351   0.944   8.008 -0.5853 -3.0677 -1.3515
  665MOL0     H87726   3.264   0.894   7.859  0.4031 -0.5822  0.7726
  665MOL0     H87727   3.168   1.090   8.060  2.9900 -0.1873  0.5780
  665MOL0     H87728   3.148   0.922   8.078  0.6698 -0.9186 -1.0372
  665MOL0     H87729   2.998   0.893   7.895  4.2769 -1.6262  0.6104
  665MOL0     H87730   2.942   1.020   8.010 -2.1676 -0.1445 -2.4222
  665MOL0     H87731   3.079   1.079   7.746 -2.1863 -3.6085 -1.1238
  665MOL0     H87732   3.045   1.211   7.864  0.0947  0.3564 -0.8918
  665MOL0     H87733   2.845   0.967   7.648 -2.7362 -1.8786  0.1706
  665MOL0     H87734   2.593   0.882   7.667  2.3567  0.7104 -0.6215
  665MOL0     H87735   2.561   1.015   7.541 -2.4785  0.5512  0.4906
  665MOL0     H87736   2.396   1.108   7.674  3.8309  1.8366  1.0243
  665MOL0     H87737   2.445   1.004   7.815  1.4400 -2.3083  0.9923
  665MOL0     H87738   2.346   0.878   7.557  0.4054  1.0871  0.4734
  665MOL0     H87739   2.378   0.797   7.709 -1.8226 -1.6802  0.1298
  665MOL0     H87740   2.141   0.831   7.648 -1.0044 -1.1515  1.9239
  665MOL0     H87741   2.168   1.005   7.680  0.4126 -0.1843  2.8171
  665MOL0     H87742   2.147   0.784   8.067  0.0607  1.9278  1.9808
  665MOL0     H87743   1.927   0.756   8.191 -0.0360 -1.0894 -0.4308
  665MOL0     H87744   1.401   1.058   8.069 -1.2485  0.2477 -1.9340
  665MOL0     H87745   1.192   1.041   8.179 -1.7661  0.2170 -0.6450
  665MOL0     H87746   0.972   0.830   8.086 -0.3530 -4.2230  1.6185
  665MOL0     H87747   0.971   0.980   8.183 -2.4196  0.8753 -0.7378
  665MOL0     H87748   0.839   0.875   8.353 -1.2836  0.7308 -0.3332
  665MOL0     H87749   0.842   0.718   8.285 -3.3677 -0.7341 -1.3187
  665MOL0     H87750   0.697   0.813   8.081 -0.4890 -0.5357  1.1335
  665MOL0     H87751   0.708   0.974   8.152  0.6973 -0.4212 -0.8296
  665MOL0     H87752   0.583   0.740   8.289 -1.7129 -0.4544  0.9546
  665MOL0     H87753   0.592   0.919   8.333 -2.4367  0.3779  0.0706
  665MOL0     H87754   0.453   0.838   8.078 -2.5698  0.6425  0.7658
  665MOL0     H87755   0.462   0.993   8.177 -0.4767 -0.1538  0.2079
  665MOL0     H87756   0.237   0.888   8.201 -0.2621  0.0879 -0.8547
  665MOL0     H87757   0.330   0.896   8.356 -2.4729  0.4991 -0.3970
  665MOL0     H87758   0.250   0.659   8.186 -0.3910 -1.5259 -0.4548
  665MOL0     H87759   0.395   0.654   8.294  0.5202 -0.2532 -1.5821
  665MOL0     H87760   0.249   0.718   8.489 -0.9768 -0.0997 -0.1432
  665MOL0     H87761   0.197   0.573   8.410  2.5135 -0.6682 -1.0755
  665MOL0     H87762   1.253   0.619   8.244 -2.8379 -0.4355 -1.0348
  665MOL0     H87763   1.462   0.637   8.121 -1.8166 -0.3972  0.0075
  665MOL0     H87764   1.729   0.890   7.841  0.0439 -1.8644 -0.6503
  665MOL0     H87765   1.940   0.897   7.716 -1.2380 -0.2603  0.1995
  665MOL0     H87766   3.886   1.046   8.004 -0.1799  0.5071  1.4678
  665MOL0     H87767   4.117   0.961   8.003  0.5013 -0.2449 -0.2658
  665MOL0     H87768   4.625   1.138   7.810 -0.8498  0.5582 -0.2759
  665MOL0     H87769   4.836   1.046   7.891 -0.0938 -0.5837 -2.5440
  665MOL0     H87770   4.956   0.973   8.033 -1.5716 -2.0760  3.5367
  665MOL0     H87771   5.059   0.881   7.923  1.4701  0.1431  0.5014
  665MOL0     H87772   5.151   0.887   8.145  0.1884 -0.6235  1.4535
  665MOL0     H87773   5.006   0.832   8.227  1.3677 -3.0067  0.8512
  665MOL0     H87774   5.195   0.656   8.193 -0.3509 -0.4930  1.5139
  665MOL0     H87775   5.120   0.643   8.025  2.2720 -2.0689  1.4634
  665MOL0     H87776   4.919   0.550   8.125 -1.3249  0.7350  2.1162
  665MOL0     H87777   5.051   0.465   8.195  0.6313  0.8690 -0.2036
  665MOL0     H87778   4.843   0.568   8.520 -1.2417  2.6901  0.7017
  665MOL0     H87779   4.646   0.667   7.960  1.6001 -0.0836 -0.0581
  665MOL0     H87780   4.448   0.740   7.902  0.0056  0.5563  1.3105
  666MOL0     O87781  10.093   7.900   2.413  0.0410 -0.5048 -0.8989
  666MOL0     C87782  10.139   7.952   2.313  0.0409 -0.6761  0.1131
  666MOL0     O87783  10.074   8.052   2.242  0.1940 -0.2822  0.0997
  666MOL0     C87784   9.939   8.080   2.278  0.0801 -0.2089 -0.1909
  666MOL0     C87785   9.898   8.190   2.365 -0.1694  0.4232  0.5341
  666MOL0     C87786   9.763   8.205   2.407  0.3764 -0.2229 -0.0647
  666MOL0     C87787   9.664   8.124   2.361  0.1307  0.2601 -0.0845
  666MOL0     O87788   9.534   8.154   2.393 -0.3822  0.8917  0.1882
  666MOL0     C87789   9.428   8.053   2.371 -0.8742  0.7516  0.6845
  666MOL0     C87790   9.313   8.149   2.369  0.1448 -0.1135 -0.3956
  666MOL0     C87791   9.189   8.101   2.312 -0.0407  0.1165 -0.0556
  666MOL0     C87792   9.074   8.195   2.347  0.1693  0.1381  0.1274
  666MOL0     C87793   8.943   8.119   2.326 -0.3059  0.2079  1.0493
  666MOL0     C87794   8.825   8.214   2.342  0.0195  0.5762  1.4033
  666MOL0     C87795   8.699   8.132   2.372 -0.0833 -0.3447 -0.2268
  666MOL0     C87796   8.574   8.206   2.405 -0.2514 -0.3717  0.0838
  666MOL0     N87797   8.469   8.125   2.451  0.0124  0.1335 -0.2417
  666MOL0     C87798   8.396   8.151   2.562 -0.2110  0.0299  0.3225
  666MOL0     C87799   8.291   8.068   2.554  0.1931 -0.0509 -0.0718
  666MOL0     C87800   8.185   8.049   2.661 -0.3598  0.1415 -0.7036
  666MOL0     C87801   8.047   8.102   2.628  0.6235 -0.1300  0.3991
  666MOL0     C87802   7.979   7.983   2.555  0.9978 -0.3984  1.0791
  666MOL0     C87803   7.833   8.007   2.518 -0.8707 -0.3002 -0.3134
  666MOL0     O87804   7.754   8.041   2.633 -0.4428  0.2818 -0.2658
  666MOL0     C87805   7.618   8.076   2.620 -0.5833 -1.5810 -0.0739
  666MOL0     C87806   7.549   8.084   2.499 -1.4040  0.0695  0.4050
  666MOL0     C87807   7.418   8.140   2.489  0.1559  0.3420  0.6549
  666MOL0     C87808   7.353   8.189   2.605  0.1408  0.2176  0.2117
  666MOL0     C87809   7.221   8.256   2.601 -0.1335  0.0425  0.2843
  666MOL0     O87810   7.176   8.335   2.705  0.3053 -0.3440 -0.0255
  666MOL0     C87811   7.048   8.392   2.693  0.6297  0.3133  0.0402
  666MOL0     C87812   6.927   8.307   2.701 -0.1546  0.7871  0.2427
  666MOL0     C87813   6.799   8.366   2.688  0.5071  0.6915  0.1282
  666MOL0     C87814   6.789   8.502   2.668 -0.1324 -0.0327 -0.1377
  666MOL0     O87815   6.658   8.542   2.640  0.1009  0.1505  0.0354
  666MOL0     C87816   6.639   8.678   2.578 -0.1472  0.1785  0.1886
  666MOL0     C87817   6.501   8.703   2.517  0.3008  0.7074 -0.8161
  666MOL0     C87818   6.400   8.729   2.624 -0.8894  0.3705  0.3320
  666MOL0     C87819   6.260   8.744   2.560  0.1728  0.4689  0.0413
  666MOL0     C87820   6.143   8.742   2.665  0.2121 -0.0285 -0.3470
  666MOL0     C87821   6.114   8.604   2.735 -0.1765 -0.5590  0.8564
  666MOL0     C87822   5.992   8.629   2.821  0.3822 -0.0072 -0.9125
  666MOL0     C87823   5.962   8.512   2.911  0.5807 -0.1719  0.6054
  666MOL0    Cl87824   5.909   8.367   2.810  0.5895 -0.2081 -0.1229
  666MOL0     C87825   6.902   8.586   2.673  0.0073  0.1369 -0.2070
  666MOL0     C87826   7.029   8.530   2.689 -0.2197 -1.0421  0.4276
  666MOL0     O87827   7.174   8.256   2.489  0.4657 -0.4017 -0.1863
  666MOL0     C87828   7.424   8.175   2.728 -0.2290 -0.0401 -0.0689
  666MOL0     C87829   7.552   8.121   2.732  0.0849  0.1418 -0.7161
  666MOL0     N87830   8.304   7.992   2.436 -0.2065 -0.3677 -0.2482
  666MOL0     N87831   8.413   8.028   2.376 -0.4534 -0.2594  0.4745
  666MOL0     C87832   9.702   8.017   2.280  0.2143 -0.4464  0.3607
  666MOL0     C87833   9.838   7.991   2.247  0.6611 -0.0720  0.2073
  666MOL0     C87834  10.262   7.894   2.254 -0.1806  0.1414 -0.0631
  666MOL0     C87835  10.340   7.811   2.337 -0.6763  2.0041  0.8101
  666MOL0     C87836  10.435   7.729   2.279  0.1539  0.8028  0.4094
  666MOL0     C87837  10.480   7.749   2.142 -0.2189 -0.1340 -0.0461
  666MOL0     O87838  10.571   7.682   2.067  0.4593  0.0916 -0.0023
  666MOL0     C87839  10.695   7.662   2.137 -0.1594  0.0639  0.2648
  666MOL0     C87840  10.804   7.768   2.102 -0.4209 -0.5149 -0.7253
  666MOL0     C87841  10.868   7.732   1.970  0.0523  0.1068 -0.2624
  666MOL0     C87842  10.992   7.813   1.944 -0.4309 -0.9769 -0.5008
  666MOL0     C87843  10.979   7.958   1.950 -0.5595 -0.1104  0.0662
  666MOL0     C87844  10.975   8.082   1.944  0.2594  0.5597 -0.2047
  666MOL0     C87845  10.414   7.837   2.067  0.6033 -0.9101  0.2790
  666MOL0     C87846  10.299   7.906   2.123 -0.3729  0.5118  0.1941
  666MOL0     H87847   9.969   8.264   2.403 -1.4597  1.9863  0.0415
  666MOL0     H87848   9.751   8.280   2.484  0.4578 -0.5680  0.2884
  666MOL0     H87849   9.428   7.992   2.461 -0.0182  2.4502  1.8962
  666MOL0     H87850   9.440   7.994   2.280  1.0920 -0.1228  1.4439
  666MOL0     H87851   9.351   8.231   2.306  2.8753  0.0308  1.3023
  666MOL0     H87852   9.290   8.187   2.469 -0.9844  2.0566 -1.4119
  666MOL0     H87853   9.167   8.008   2.365 -2.1604  0.5504 -0.0960
  666MOL0     H87854   9.187   8.084   2.204 -2.5707 -0.3049 -0.0004
  666MOL0     H87855   9.083   8.223   2.452  2.1828  0.9508 -0.2045
  666MOL0     H87856   9.079   8.281   2.278  0.8164 -0.9621 -1.2546
  666MOL0     H87857   8.940   8.038   2.400 -0.4884 -1.1578 -0.3961
  666MOL0     H87858   8.951   8.068   2.229  4.4159  1.9619  0.2080
  666MOL0     H87859   8.803   8.260   2.245 -0.7528  0.1610  1.3794
  666MOL0     H87860   8.850   8.290   2.418  2.6134 -0.9715  2.2375
  666MOL0     H87861   8.678   8.064   2.289  0.2019  0.4887 -1.0000
  666MOL0     H87862   8.721   8.076   2.464  2.2971 -0.2443 -0.6621
  666MOL0     H87863   8.545   8.279   2.329 -0.5640 -0.2431  0.3230
  666MOL0     H87864   8.608   8.275   2.483  2.2994 -2.0367  0.5698
  666MOL0     H87865   8.414   8.233   2.632 -2.2158  2.6908 -2.0273
  666MOL0     H87866   8.217   8.097   2.753  0.1192 -0.5726 -0.4861
  666MOL0     H87867   8.181   7.941   2.682 -3.8949 -0.0192 -1.6112
  666MOL0     H87868   8.065   8.185   2.560  1.7692 -2.4259 -2.3380
  666MOL0     H87869   7.991   8.129   2.718 -1.6979  1.8900 -1.5326
  666MOL0     H87870   8.036   7.951   2.467 -0.6824  0.1386 -0.2324
  666MOL0     H87871   7.971   7.890   2.613  1.7310 -1.3591 -0.3031
  666MOL0     H87872   7.804   7.913   2.472  4.1248 -3.6664  2.4536
  666MOL0     H87873   7.835   8.090   2.447 -3.5984  1.2400  1.2146
  666MOL0     H87874   7.594   8.048   2.407  0.9219 -0.3153  1.6163
  666MOL0     H87875   7.364   8.147   2.395 -0.5863  2.5073  1.1789
  666MOL0     H87876   6.942   8.200   2.705 -3.7556 -0.0410 -2.6793
  666MOL0     H87877   6.719   8.292   2.689  2.4757 -1.5453  0.4990
  666MOL0     H87878   6.703   8.682   2.489 -0.3815  2.8954  0.0680
  666MOL0     H87879   6.669   8.765   2.637  1.4512  0.9673 -1.6694
  666MOL0     H87880   6.464   8.616   2.461  2.0571 -0.7541  0.1651
  666MOL0     H87881   6.504   8.795   2.457  1.1084  0.6980 -0.7990
  666MOL0     H87882   6.411   8.813   2.693 -2.5010  0.5987  0.3402
  666MOL0     H87883   6.397   8.636   2.681  1.0083 -0.6062 -1.0310
  666MOL0     H87884   6.254   8.845   2.521 -2.2827  0.7961  1.0651
  666MOL0     H87885   6.242   8.668   2.483  1.4937  1.0036 -0.8115
  666MOL0     H87886   6.064   8.778   2.597  1.9207  1.9901 -1.3988
  666MOL0     H87887   6.151   8.811   2.750 -1.5386 -1.8878  1.4140
  666MOL0     H87888   6.207   8.583   2.790 -1.0679 -2.1976  1.8102
  666MOL0     H87889   6.095   8.532   2.655 -0.5934  0.3958  0.0767
  666MOL0     H87890   6.009   8.715   2.887  4.2205 -0.9666 -0.4599
  666MOL0     H87891   5.901   8.654   2.764 -1.3349 -0.7025  1.3719
  666MOL0     H87892   5.877   8.549   2.969 -1.9689  1.4137 -3.6662
  666MOL0     H87893   6.044   8.497   2.981 -0.0308 -1.9143  1.0013
  666MOL0     H87894   6.893   8.695   2.670 -2.1681  0.0084 -0.1953
  666MOL0     H87895   7.116   8.594   2.695 -0.2406 -1.1100  1.7572
  666MOL0     H87896   7.376   8.208   2.820 -1.1757  0.6664 -0.7854
  666MOL0     H87897   7.608   8.132   2.824 -0.3983 -1.6667 -0.1529
  666MOL0     H87898   9.631   7.947   2.237 -0.8031  1.4883 -1.2728
  666MOL0     H87899   9.856   7.907   2.181 -0.4254  1.1448 -1.6970
  666MOL0     H87900  10.307   7.797   2.439 -0.4111  3.7935  1.1685
  666MOL0     H87901  10.471   7.651   2.346 -0.7219 -1.4185 -1.5377
  666MOL0     H87902  10.742   7.567   2.109  1.4949  0.0014  2.9134
  666MOL0     H87903  10.683   7.663   2.246  1.7314  2.1978  0.5419
  666MOL0     H87904  10.766   7.870   2.090  2.8549  0.9725  0.3211
  666MOL0     H87905  10.874   7.770   2.186 -0.7084  0.7324 -0.4946
  666MOL0     H87906  10.804   7.747   1.883 -1.9756  1.5419  1.3704
  666MOL0     H87907  10.896   7.627   1.962 -0.9340 -0.1603 -0.4116
  666MOL0     H87908  11.069   7.793   2.019 -0.1603 -1.0297 -0.7928
  666MOL0     H87909  11.036   7.774   1.852  0.0067  1.8394 -1.5851
  666MOL0     H87910  10.965   8.189   1.941 -1.0953  0.5837  2.6012
  666MOL0     H87911  10.426   7.860   1.962  0.8879 -0.8165  0.3325
  666MOL0     H87912  10.258   7.985   2.060 -1.0691  1.3609  1.6728
  667MOL0     O87913   8.081   3.629   6.603 -0.6127 -0.0635  0.4335
  667MOL0     C87914   8.140   3.623   6.494 -0.4167 -0.2912 -0.6188
  667MOL0     O87915   8.088   3.655   6.366 -0.5840 -0.0985 -0.6760
  667MOL0     C87916   7.956   3.672   6.353 -0.0690  0.4268 -0.0235
  667MOL0     C87917   7.881   3.617   6.248 -0.1051 -0.0717 -0.0547
  667MOL0     C87918   7.745   3.648   6.231 -0.3179  0.4884 -0.8456
  667MOL0     C87919   7.685   3.747   6.312  0.2690  0.0959  0.5101
  667MOL0     O87920   7.556   3.785   6.301 -0.5716 -0.6896 -0.8640
  667MOL0     C87921   7.490   3.790   6.166 -0.7067 -0.1814  0.8868
  667MOL0     C87922   7.347   3.812   6.174 -0.4135  0.1639 -0.6827
  667MOL0     C87923   7.281   3.692   6.244  0.3359 -0.6468  0.3615
  667MOL0     C87924   7.273   3.702   6.392 -0.7244  0.0537  0.6083
  667MOL0     C87925   7.170   3.598   6.444  0.0621  0.4286 -0.2063
  667MOL0     C87926   7.185   3.455   6.395  0.0378  0.5764  0.4822
  667MOL0     C87927   7.120   3.359   6.492  0.7979  0.6766  0.3164
  667MOL0     C87928   7.132   3.209   6.443  0.0684 -0.9481  0.0188
  667MOL0     N87929   7.062   3.104   6.529 -0.0726  0.2932  0.4086
  667MOL0     C87930   6.995   3.121   6.649 -0.9197 -0.3078  0.1748
  667MOL0     C87931   6.935   3.001   6.674 -0.3853  0.3459 -0.7968
  667MOL0     C87932   6.855   2.967   6.802 -0.1704  0.0939  1.0769
  667MOL0     C87933   6.712   3.015   6.797  0.5816  0.0786  0.5104
  667MOL0     C87934   6.641   2.972   6.926  0.1605 -0.8692  0.0483
  667MOL0     C87935   6.500   3.045   6.929 -0.5749 -0.4282  0.1718
  667MOL0     O87936   6.436   2.989   7.042  0.1479 -0.4042 -0.4262
  667MOL0     C87937   6.301   3.005   7.051 -0.1833  0.1178 -0.5489
  667MOL0     C87938   6.239   2.934   7.154 -0.1097 -0.6110  0.1120
  667MOL0     C87939   6.108   2.943   7.184 -0.2632 -0.1961  0.0731
  667MOL0     C87940   6.021   3.017   7.096 -0.2408  0.3364 -0.0809
  667MOL0     C87941   5.875   3.010   7.126  0.5355 -0.5750  0.8560
  667MOL0     O87942   5.844   2.940   7.238  0.5802 -0.1072 -0.2514
  667MOL0     C87943   5.714   2.939   7.274  0.4596  0.2710  0.8761
  667MOL0     C87944   5.677   3.050   7.356 -0.4384 -0.1596  0.2355
  667MOL0     C87945   5.551   3.060   7.402  0.1937 -0.3774 -0.4363
  667MOL0     C87946   5.461   2.951   7.375 -0.7065 -0.1408 -0.0305
  667MOL0     O87947   5.325   2.945   7.400 -0.0524  0.2357 -0.8501
  667MOL0     C87948   5.276   3.049   7.482 -0.4703 -0.1548  0.6910
  667MOL0     C87949   5.132   3.019   7.528 -0.1068 -0.0452  0.5089
  667MOL0     C87950   5.042   3.009   7.410  1.1182 -0.1933  0.0615
  667MOL0     C87951   4.897   2.995   7.457 -1.0734  0.4327 -0.7477
  667MOL0     C87952   4.792   2.962   7.344 -0.3299  0.3587 -0.9113
  667MOL0     C87953   4.828   2.842   7.261  0.1822 -0.1868 -0.2222
  667MOL0     C87954   4.701   2.800   7.187  0.3230 -0.6749 -0.3710
  667MOL0     C87955   4.718   2.675   7.103 -0.2417 -0.3249 -0.7829
  667MOL0    Cl87956   4.792   2.706   6.945 -0.3201  0.0301 -0.0087
  667MOL0     C87957   5.504   2.840   7.300  1.0781  0.4479 -0.1384
  667MOL0     C87958   5.634   2.829   7.253 -0.7056 -0.6287  0.0714
  667MOL0     O87959   5.799   3.064   7.042 -0.1522 -0.6413  0.0074
  667MOL0     C87960   6.076   3.081   6.986  0.4743  0.9308 -0.4075
  667MOL0     C87961   6.217   3.081   6.971 -0.4761 -0.3680  0.5446
  667MOL0     N87962   6.957   2.919   6.567 -0.2091  0.2996  0.6450
  667MOL0     N87963   7.026   2.985   6.484 -0.0644  0.3160  0.0209
  667MOL0     C87964   7.767   3.814   6.405  0.0724  0.4117 -0.7223
  667MOL0     C87965   7.898   3.778   6.425  0.0692  0.4051  0.2057
  667MOL0     C87966   8.278   3.572   6.509  0.5962 -0.7388 -0.9936
  667MOL0     C87967   8.366   3.570   6.404 -0.8153 -0.3524  0.2711
  667MOL0     C87968   8.498   3.523   6.420  0.0005 -0.3915  0.0832
  667MOL0     C87969   8.537   3.462   6.541 -0.4263 -0.1650  0.3688
  667MOL0     O87970   8.665   3.421   6.557 -0.8389 -0.2373 -0.5344
  667MOL0     C87971   8.768   3.510   6.607  0.2043 -0.1605  0.5278
  667MOL0     C87972   8.895   3.420   6.603 -0.3364  0.7119  0.3243
  667MOL0     C87973   9.029   3.493   6.613 -0.5573  0.1662  0.7003
  667MOL0     C87974   9.151   3.403   6.579  0.2503 -0.6487  0.7806
  667MOL0     C87975   9.285   3.466   6.590 -0.3612  0.2454  0.4052
  667MOL0     C87976   9.400   3.506   6.596  0.9867  0.1041  0.5955
  667MOL0     C87977   8.440   3.448   6.636 -0.4131 -0.7167 -0.0328
  667MOL0     C87978   8.313   3.500   6.624  0.4546 -0.3974 -0.3100
  667MOL0     H87979   7.933   3.551   6.179 -0.0423  1.9621 -2.0639
  667MOL0     H87980   7.678   3.607   6.156 -0.6046 -1.9228  0.6025
  667MOL0     H87981   7.511   3.700   6.109  1.6100 -1.5404  3.6304
  667MOL0     H87982   7.543   3.873   6.117  0.0227 -0.3064  1.4451
  667MOL0     H87983   7.302   3.810   6.074 -0.2903 -1.8843 -0.7464
  667MOL0     H87984   7.329   3.910   6.220 -2.1559  0.3288 -1.6316
  667MOL0     H87985   7.330   3.602   6.206 -0.4681 -0.0057 -2.4898
  667MOL0     H87986   7.179   3.691   6.205  0.6425 -0.5396 -0.4721
  667MOL0     H87987   7.373   3.688   6.433 -0.1628  0.1214 -0.6957
  667MOL0     H87988   7.242   3.805   6.412 -0.3674  0.4978 -0.9922
  667MOL0     H87989   7.067   3.623   6.419 -0.9048 -1.7198  1.3332
  667MOL0     H87990   7.177   3.592   6.553 -0.0956  1.9382 -0.0994
  667MOL0     H87991   7.291   3.430   6.384 -0.4077 -1.3183  0.1368
  667MOL0     H87992   7.148   3.448   6.293  1.3504  3.7837 -0.3655
  667MOL0     H87993   7.167   3.361   6.591  0.5678 -5.6048  0.9822
  667MOL0     H87994   7.016   3.386   6.511  0.7611  1.2494 -0.6476
  667MOL0     H87995   7.238   3.182   6.437  0.7131  0.9580  1.7561
  667MOL0     H87996   7.084   3.217   6.345 -0.0274 -0.2407  0.1164
  667MOL0     H87997   7.000   3.206   6.717  1.5622 -0.5743  0.4297
  667MOL0     H87998   6.907   2.998   6.893  0.2071 -0.2159  0.9692
  667MOL0     H87999   6.844   2.859   6.818  0.1811  0.3283  3.3036
  667MOL0     H88000   6.665   2.965   6.712 -0.0526  1.5506 -0.0477
  667MOL0     H88001   6.705   3.123   6.783 -2.9186 -0.2253 -1.2113
  667MOL0     H88002   6.629   2.864   6.933  0.5143 -1.0559 -1.7151
  667MOL0     H88003   6.706   3.009   7.005 -0.1098 -0.5780  0.1412
  667MOL0     H88004   6.439   3.022   6.842 -2.3604 -1.7375  1.7043
  667MOL0     H88005   6.512   3.154   6.935  0.4393 -0.5442  0.4840
  667MOL0     H88006   6.290   2.865   7.221  0.3908  0.5324  0.9323
  667MOL0     H88007   6.075   2.880   7.266  0.7982 -0.0931  0.5888
  667MOL0     H88008   5.753   3.123   7.383 -0.6242  0.2050 -0.2148
  667MOL0     H88009   5.523   3.151   7.453 -0.1776  0.7752 -2.5866
  667MOL0     H88010   5.279   3.135   7.415  1.5283 -0.5999  0.1526
  667MOL0     H88011   5.332   3.064   7.575  1.5968  2.4787 -0.8353
  667MOL0     H88012   5.103   3.107   7.586  2.6926  0.6376  0.9885
  667MOL0     H88013   5.131   2.931   7.592 -2.7888 -2.9900 -3.1019
  667MOL0     H88014   5.065   2.921   7.349 -1.3453 -1.7936  1.2893
  667MOL0     H88015   5.057   3.100   7.352  1.4246 -0.3759 -0.1475
  667MOL0     H88016   4.904   2.914   7.529  0.5912 -0.7431 -2.1402
  667MOL0     H88017   4.866   3.083   7.514 -1.0706  0.3835 -0.6704
  667MOL0     H88018   4.783   3.051   7.281 -0.4143  1.4585  0.5886
  667MOL0     H88019   4.695   2.952   7.393  0.3940 -2.5577  0.0924
  667MOL0     H88020   4.868   2.753   7.309  1.1143 -0.0080 -0.6522
  667MOL0     H88021   4.899   2.874   7.184 -0.7101 -0.0383 -1.0096
  667MOL0     H88022   4.636   2.764   7.268  1.6098  0.5325  1.2689
  667MOL0     H88023   4.654   2.878   7.127 -1.2121 -0.0597  1.5431
  667MOL0     H88024   4.621   2.626   7.094  0.5206 -1.8171 -1.1020
  667MOL0     H88025   4.787   2.608   7.156  0.3471 -0.5255 -1.7772
  667MOL0     H88026   5.436   2.756   7.293 -0.0297  1.4171 -2.1933
  667MOL0     H88027   5.675   2.744   7.200  3.5590  0.7081  0.7887
  667MOL0     H88028   6.016   3.132   6.912 -1.1580  0.7987  0.7700
  667MOL0     H88029   6.254   3.135   6.885  0.0815  1.3760  1.8317
  667MOL0     H88030   7.726   3.880   6.480 -0.4887 -0.9676  0.2316
  667MOL0     H88031   7.956   3.820   6.507 -1.5469 -0.9595  2.1317
  667MOL0     H88032   8.333   3.605   6.307 -0.3446 -1.6247 -0.3850
  667MOL0     H88033   8.558   3.518   6.330 -1.1288 -4.8307 -0.6785
  667MOL0     H88034   8.748   3.557   6.704  2.6879  0.6053  0.7217
  667MOL0     H88035   8.779   3.590   6.534 -0.7994 -1.1652 -0.7757
  667MOL0     H88036   8.885   3.349   6.686  1.7668  2.1367  1.9206
  667MOL0     H88037   8.900   3.368   6.508 -1.3353  1.0873  0.0552
  667MOL0     H88038   9.041   3.530   6.715 -0.5788 -0.3183  0.8833
  667MOL0     H88039   9.026   3.574   6.540 -1.4433  0.1049  0.6600
  667MOL0     H88040   9.148   3.324   6.655 -0.6771 -0.3231  1.1065
  667MOL0     H88041   9.135   3.360   6.479  1.3733 -0.6760  0.5981
  667MOL0     H88042   9.502   3.539   6.593  1.4679 -1.4014 -1.2501
  667MOL0     H88043   8.477   3.410   6.731 -0.9831  1.4378  1.1194
  667MOL0     H88044   8.245   3.485   6.707 -0.1882  0.7545 -0.6106
  668MOL0     O88045   7.874   0.949   5.842 -0.1268  0.0137 -0.4534
  668MOL0     C88046   7.931   0.840   5.851 -0.2763  0.0776  0.6941
  668MOL0     O88047   7.877   0.716   5.815 -0.3279 -0.6415  0.5951
  668MOL0     C88048   7.747   0.720   5.774 -0.3448 -0.3644  0.3818
  668MOL0     C88049   7.723   0.756   5.640  0.5907 -0.3488  0.4473
  668MOL0     C88050   7.591   0.724   5.587 -0.4924 -0.0783 -0.1317
  668MOL0     C88051   7.486   0.668   5.663 -0.9175 -0.2294  0.4917
  668MOL0     O88052   7.366   0.644   5.604  0.3448  0.1651  0.7574
  668MOL0     C88053   7.246   0.615   5.686  0.1988 -1.1654  0.1730
  668MOL0     C88054   7.135   0.608   5.582  1.0686  0.3112  0.6098
  668MOL0     C88055   7.003   0.568   5.658  0.2040  0.1843  0.4361
  668MOL0     C88056   6.884   0.561   5.573  0.5980 -0.0658  0.7860
  668MOL0     C88057   6.748   0.543   5.649  0.1875  0.0300 -0.2516
  668MOL0     C88058   6.630   0.507   5.551  0.2913 -0.7872 -0.3201
  668MOL0     C88059   6.498   0.490   5.627  0.1793  0.7890  1.0048
  668MOL0     C88060   6.399   0.442   5.521  0.0971 -0.1568 -0.1892
  668MOL0     N88061   6.263   0.423   5.570 -0.1185  0.2690  1.1475
  668MOL0     C88062   6.198   0.491   5.679  0.2056  0.0442  0.0707
  668MOL0     C88063   6.076   0.424   5.688 -0.6901 -0.6098 -0.3341
  668MOL0     C88064   5.967   0.462   5.783  0.1474  0.4571 -0.4914
  668MOL0     C88065   5.830   0.451   5.723 -0.0394  0.3431  0.0219
  668MOL0     C88066   5.726   0.527   5.794 -0.5424  0.1260  0.5728
  668MOL0     C88067   5.580   0.514   5.737  0.3854 -0.1576  0.6165
  668MOL0     O88068   5.518   0.641   5.768  0.2117  0.6702  0.3463
  668MOL0     C88069   5.382   0.645   5.787  0.9290  0.3910  0.1580
  668MOL0     C88070   5.322   0.769   5.818 -0.0853 -0.3153 -0.6050
  668MOL0     C88071   5.176   0.778   5.836 -1.0647 -0.0353  0.5743
  668MOL0     C88072   5.089   0.666   5.832 -0.1591  0.2217 -0.1067
  668MOL0     C88073   4.947   0.677   5.833  0.7710  0.1029 -0.6550
  668MOL0     O88074   4.904   0.806   5.873 -0.0178  0.2700  0.3599
  668MOL0     C88075   4.766   0.836   5.860  0.4212 -0.3148 -0.7131
  668MOL0     C88076   4.713   0.955   5.919  0.8797  0.5904 -0.2556
  668MOL0     C88077   4.582   0.996   5.901 -0.1179  0.3264  0.0832
  668MOL0     C88078   4.491   0.929   5.819  0.8490 -1.0569 -0.0339
  668MOL0     O88079   4.361   0.985   5.805 -0.2011 -0.0034 -0.5413
  668MOL0     C88080   4.273   0.902   5.741  0.4278 -0.1921 -0.0692
  668MOL0     C88081   4.134   0.956   5.755  1.0870 -0.5807  0.9770
  668MOL0     C88082   4.035   0.857   5.686 -0.3215 -0.1071  0.4003
  668MOL0     C88083   3.884   0.887   5.690 -0.2656 -0.6135 -0.1489
  668MOL0     C88084   3.812   0.831   5.569  0.7579  0.0349 -0.2779
  668MOL0     C88085   3.658   0.832   5.577 -0.3399 -1.8816  0.1043
  668MOL0     C88086   3.594   0.978   5.584  0.1262 -0.3384  0.4015
  668MOL0     C88087   3.440   0.977   5.589  0.0331  0.5827 -0.0959
  668MOL0    Cl88088   3.378   0.953   5.756 -0.0013 -0.6372 -0.1423
  668MOL0     C88089   4.542   0.820   5.751  0.0969  0.2880 -0.5406
  668MOL0     C88090   4.678   0.778   5.770  0.7657 -0.7060  0.5898
  668MOL0     O88091   4.882   0.572   5.834  0.9547  0.6599 -0.3583
  668MOL0     C88092   5.153   0.546   5.795  0.9269  0.1018 -0.0381
  668MOL0     C88093   5.293   0.533   5.770 -0.2343 -0.5125  0.5624
  668MOL0     N88094   6.064   0.337   5.584 -0.6612  0.4550 -0.0182
  668MOL0     N88095   6.163   0.349   5.506  0.1142 -0.0482 -0.9598
  668MOL0     C88096   7.518   0.635   5.794  0.8912 -0.1046 -0.1475
  668MOL0     C88097   7.647   0.657   5.846  0.0691  0.2108 -0.2305
  668MOL0     C88098   8.071   0.839   5.907 -0.4540 -0.0528  0.0946
  668MOL0     C88099   8.159   0.722   5.904 -0.0588  0.4394  0.4444
  668MOL0     C88100   8.293   0.742   5.954  0.7055  0.4884 -0.2076
  668MOL0     C88101   8.342   0.868   6.020 -0.2508  1.1122 -0.0135
  668MOL0     O88102   8.466   0.891   6.077 -0.5799 -0.1581 -0.4963
  668MOL0     C88103   8.575   0.795   6.092  0.6030  0.0521  0.0332
  668MOL0     C88104   8.633   0.784   5.949 -0.1326  0.1830  0.1612
  668MOL0     C88105   8.769   0.720   5.948  0.1698  0.0709 -0.3311
  668MOL0     C88106   8.761   0.577   5.994  0.3325 -1.1134  1.5594
  668MOL0     C88107   8.894   0.524   5.982  0.9735 -0.3134  0.0301
  668MOL0     C88108   9.014   0.496   5.986 -0.2491 -0.1306  0.6674
  668MOL0     C88109   8.249   0.960   6.030  0.9597 -0.1401 -0.2138
  668MOL0     C88110   8.120   0.962   5.980 -0.1127 -0.2875  0.2393
  668MOL0     H88111   7.808   0.783   5.578  1.8225 -4.2777  0.1386
  668MOL0     H88112   7.571   0.746   5.483  0.6456  2.4584  0.1009
  668MOL0     H88113   7.229   0.706   5.745 -0.4122 -2.9770  2.9578
  668MOL0     H88114   7.248   0.522   5.743  1.2678 -1.5144 -0.4022
  668MOL0     H88115   7.160   0.527   5.513 -1.7471  2.0284 -2.7303
  668MOL0     H88116   7.116   0.697   5.521 -1.1406  1.0455  2.2539
  668MOL0     H88117   6.982   0.648   5.730  0.9135  0.1552  0.6845
  668MOL0     H88118   7.021   0.472   5.708  0.9712  0.4468  0.6855
  668MOL0     H88119   6.870   0.651   5.513  0.2748 -0.5733  0.0715
  668MOL0     H88120   6.892   0.482   5.498  1.5478  1.3911 -0.7047
  668MOL0     H88121   6.723   0.630   5.710 -1.1590 -0.3724 -0.1880
  668MOL0     H88122   6.774   0.466   5.722 -0.0945 -0.3782 -0.5810
  668MOL0     H88123   6.659   0.419   5.494  3.3104 -0.1145  0.0221
  668MOL0     H88124   6.608   0.590   5.483  1.2570 -0.0735  0.2102
  668MOL0     H88125   6.508   0.423   5.712  1.3917 -1.7153 -0.9635
  668MOL0     H88126   6.475   0.591   5.662 -0.2126  1.3015 -0.6466
  668MOL0     H88127   6.448   0.356   5.474  1.7146  1.0121 -0.7094
  668MOL0     H88128   6.401   0.522   5.447 -0.5179  1.3649  1.3737
  668MOL0     H88129   6.226   0.569   5.748 -0.8419  0.4720  0.0401
  668MOL0     H88130   5.988   0.559   5.830  0.5528  0.0439  0.1921
  668MOL0     H88131   5.981   0.388   5.862  0.3647  2.6493  1.6632
  668MOL0     H88132   5.795   0.348   5.731  0.6883  0.2371  2.7039
  668MOL0     H88133   5.848   0.475   5.618  2.0657 -0.4936  0.1493
  668MOL0     H88134   5.724   0.509   5.902 -0.8047  0.5275  0.6392
  668MOL0     H88135   5.751   0.634   5.795  1.5765 -0.3038 -0.3731
  668MOL0     H88136   5.520   0.435   5.783 -2.5137  0.0851 -2.3291
  668MOL0     H88137   5.589   0.501   5.629  1.7836  0.8428  0.5936
  668MOL0     H88138   5.388   0.855   5.820 -2.4967  1.6520  0.6691
  668MOL0     H88139   5.134   0.875   5.861 -1.5385  0.6911 -2.5914
  668MOL0     H88140   4.781   1.012   5.983  0.3223  0.7019  0.2415
  668MOL0     H88141   4.556   1.090   5.949 -2.3688  0.5799 -1.4598
  668MOL0     H88142   4.279   0.800   5.781 -1.1704 -0.1081  0.4871
  668MOL0     H88143   4.295   0.893   5.634 -1.3911  0.8578 -0.5663
  668MOL0     H88144   4.126   1.048   5.696  0.8892 -1.3852 -0.2857
  668MOL0     H88145   4.105   0.988   5.856  0.2764  2.1101 -0.0345
  668MOL0     H88146   4.060   0.759   5.727 -2.3422 -0.4380  0.9364
  668MOL0     H88147   4.067   0.853   5.581  1.9778 -2.1769  1.1014
  668MOL0     H88148   3.836   0.856   5.783  0.4963  1.9689  1.2157
  668MOL0     H88149   3.869   0.995   5.683  1.0839 -0.1231  2.9725
  668MOL0     H88150   3.845   0.727   5.560 -0.2695 -0.5661  1.9935
  668MOL0     H88151   3.834   0.883   5.476 -2.3467 -1.7182 -2.1709
  668MOL0     H88152   3.619   0.779   5.664  2.0440 -1.9932  1.2081
  668MOL0     H88153   3.619   0.788   5.485  0.0841 -0.8443 -0.6010
  668MOL0     H88154   3.637   1.043   5.660  0.8642  0.4842 -0.6776
  668MOL0     H88155   3.626   1.018   5.487  2.6719 -5.3861 -1.2278
  668MOL0     H88156   3.406   0.890   5.530 -1.4704  1.7918 -1.1089
  668MOL0     H88157   3.406   1.074   5.551 -0.5576  0.5732  0.3937
  668MOL0     H88158   4.483   0.771   5.673 -0.2221 -0.9339  0.4449
  668MOL0     H88159   4.713   0.695   5.710  0.9636 -0.4761  0.3856
  668MOL0     H88160   5.087   0.459   5.792  2.1261 -0.8751  0.6245
  668MOL0     H88161   5.322   0.433   5.740 -0.0590 -1.0475  2.3821
  668MOL0     H88162   7.449   0.566   5.841 -0.8714  0.9367 -1.1215
  668MOL0     H88163   7.675   0.626   5.947  2.4273 -0.3254 -0.9944
  668MOL0     H88164   8.128   0.631   5.853  4.1181  0.4779 -2.7137
  668MOL0     H88165   8.357   0.655   5.942  0.2887 -0.1372  1.7719
  668MOL0     H88166   8.542   0.696   6.127 -0.4947 -1.4089 -4.3606
  668MOL0     H88167   8.656   0.836   6.153  0.9700  0.0382 -0.4421
  668MOL0     H88168   8.558   0.736   5.885  0.5834 -1.5784  0.5953
  668MOL0     H88169   8.653   0.885   5.913  2.6165 -0.2379  0.2934
  668MOL0     H88170   8.834   0.787   6.005 -0.0887  0.9088 -1.0100
  668MOL0     H88171   8.800   0.729   5.844  2.1888  0.2704  0.2616
  668MOL0     H88172   8.738   0.572   6.100 -1.5550 -1.7832  1.1471
  668MOL0     H88173   8.692   0.526   5.926 -0.8825  0.2664  1.7056
  668MOL0     H88174   9.120   0.479   5.988 -0.1495  0.4271  2.5664
  668MOL0     H88175   8.280   1.051   6.080 -0.6437 -0.2792  1.1038
  668MOL0     H88176   8.060   1.050   5.999  0.3540  0.0280  0.2789
  669MOL0     O88177   6.340   7.275   4.486 -1.1800  0.3732 -0.3189
  669MOL0     C88178   6.412   7.188   4.540 -0.5635 -0.0100 -0.6313
  669MOL0     O88179   6.369   7.101   4.636 -0.3811 -0.4256 -0.6046
  669MOL0     C88180   6.244   7.098   4.687  0.6337 -0.9381 -0.2554
  669MOL0     C88181   6.235   7.063   4.819 -0.2135  0.7256 -0.3853
  669MOL0     C88182   6.111   7.050   4.887 -1.2564  0.6350  0.2215
  669MOL0     C88183   5.994   7.089   4.819 -1.0539  0.2524 -0.1712
  669MOL0     O88184   5.869   7.095   4.866  0.0222 -0.3695 -0.2738
  669MOL0     C88185   5.840   7.085   5.003 -0.0626  0.2567  0.6822
  669MOL0     C88186   5.696   7.054   5.015 -0.4778  0.6943  0.1185
  669MOL0     C88187   5.647   6.926   4.950  0.7596 -0.3881 -0.7605
  669MOL0     C88188   5.566   6.945   4.818  0.2790  0.6481  0.5311
  669MOL0     C88189   5.417   6.962   4.846 -0.5993 -0.5048  0.4316
  669MOL0     C88190   5.348   6.976   4.714 -0.7724 -0.1484  0.0148
  669MOL0     C88191   5.199   6.985   4.732  1.3438  0.6806  0.0944
  669MOL0     C88192   5.127   7.014   4.602  0.4897 -0.5607 -0.5019
  669MOL0     N88193   5.079   6.891   4.532 -0.2823 -0.5901 -0.2868
  669MOL0     C88194   4.998   6.791   4.585 -0.5560  0.0852 -1.1318
  669MOL0     C88195   4.984   6.703   4.488 -0.1427 -0.6058  0.6437
  669MOL0     C88196   4.905   6.577   4.481  0.1782 -0.5474  0.0061
  669MOL0     C88197   4.764   6.577   4.536 -0.0699 -0.1277 -0.2060
  669MOL0     C88198   4.685   6.455   4.492 -0.3994 -0.3730 -0.4995
  669MOL0     C88199   4.555   6.436   4.566 -0.1463 -0.0026 -0.1015
  669MOL0     O88200   4.574   6.417   4.702  0.5359 -0.0469 -0.1961
  669MOL0     C88201   4.461   6.465   4.770 -0.1224  0.5182  0.5033
  669MOL0     C88202   4.479   6.512   4.903 -0.1052  0.3713  0.8829
  669MOL0     C88203   4.370   6.545   4.982 -0.7757 -0.2444 -0.4734
  669MOL0     C88204   4.241   6.564   4.937  0.0066 -0.3912 -0.3048
  669MOL0     C88205   4.133   6.614   5.028  0.5117 -0.5775  0.3211
  669MOL0     O88206   4.004   6.601   4.986 -0.1212  0.2349 -0.2334
  669MOL0     C88207   3.895   6.619   5.063 -0.5397 -0.1349 -0.0240
  669MOL0     C88208   3.888   6.631   5.205 -0.0978  0.4981 -0.0646
  669MOL0     C88209   3.756   6.661   5.265 -0.2842  0.1125  0.5586
  669MOL0     C88210   3.645   6.682   5.193 -0.1757 -0.1151  0.7095
  669MOL0     O88211   3.524   6.722   5.236 -0.1265  0.3384 -0.4916
  669MOL0     C88212   3.511   6.853   5.292  0.3509  0.3794 -0.7425
  669MOL0     C88213   3.378   6.921   5.234 -0.7074 -0.0840 -0.2463
  669MOL0     C88214   3.258   6.833   5.253 -0.1581  0.4366 -0.1475
  669MOL0     C88215   3.133   6.909   5.244 -0.0419  0.4672 -0.3969
  669MOL0     C88216   3.016   6.820   5.197 -0.1351  0.0630  0.3901
  669MOL0     C88217   2.889   6.905   5.191 -0.2159  0.1808  0.0483
  669MOL0     C88218   2.759   6.819   5.190  0.2302  1.0334 -0.2149
  669MOL0     C88219   2.633   6.905   5.206  0.1303  0.6001 -0.3195
  669MOL0    Cl88220   2.492   6.788   5.189  0.0277 -0.1491  0.1169
  669MOL0     C88221   3.660   6.677   5.051  0.5433  0.5317 -1.7506
  669MOL0     C88222   3.780   6.631   4.992 -0.6045  0.6497  0.3748
  669MOL0     O88223   4.166   6.681   5.129 -0.0348 -0.1636 -0.0340
  669MOL0     C88224   4.219   6.516   4.810  0.5206 -0.2459 -0.4092
  669MOL0     C88225   4.325   6.471   4.728 -0.3621 -0.0890  0.7882
  669MOL0     N88226   5.060   6.743   4.378 -0.9352 -0.6211  0.2002
  669MOL0     N88227   5.111   6.863   4.406  0.6521 -0.0884 -0.6879
  669MOL0     C88228   6.000   7.111   4.685  0.3287 -1.1410  0.1533
  669MOL0     C88229   6.122   7.124   4.620 -0.2598 -0.0328  0.2679
  669MOL0     C88230   6.552   7.179   4.496  0.4909 -0.4174 -0.5726
  669MOL0     C88231   6.645   7.092   4.556  0.7142 -0.1137  0.3568
  669MOL0     C88232   6.784   7.102   4.532  0.4410  0.1117  0.0359
  669MOL0     C88233   6.827   7.195   4.438 -0.3975 -0.5534  0.0554
  669MOL0     O88234   6.960   7.220   4.410 -0.4037  0.3799 -0.0081
  669MOL0     C88235   7.069   7.126   4.452  0.3872 -0.3902 -0.2926
  669MOL0     C88236   7.206   7.153   4.399 -0.0027  0.3587 -0.2733
  669MOL0     C88237   7.230   7.307   4.415 -0.5651 -0.1196 -0.3315
  669MOL0     C88238   7.356   7.349   4.343  0.0706  0.1045  0.4640
  669MOL0     C88239   7.483   7.324   4.417 -0.5801  0.3516 -0.2736
  669MOL0     C88240   7.587   7.334   4.485  1.3478  0.5726  0.0260
  669MOL0     C88241   6.737   7.256   4.353 -0.5716 -0.8694  0.1908
  669MOL0     C88242   6.602   7.250   4.380  0.3099  0.1644 -0.6509
  669MOL0     H88243   6.326   7.040   4.874 -0.7488  1.0068  0.6357
  669MOL0     H88244   6.109   7.034   4.994  1.3873 -2.9944 -0.0881
  669MOL0     H88245   5.857   7.175   5.062 -1.4522  1.2737 -0.3899
  669MOL0     H88246   5.886   6.991   5.036 -1.2980 -2.0282 -3.3325
  669MOL0     H88247   5.640   7.144   4.987  1.4948  1.2753 -2.3564
  669MOL0     H88248   5.673   7.052   5.122 -1.1347  0.9816 -0.0189
  669MOL0     H88249   5.573   6.889   5.022  1.1921 -0.7955 -0.5167
  669MOL0     H88250   5.732   6.860   4.931 -0.7061 -2.0150 -2.0079
  669MOL0     H88251   5.592   7.027   4.751 -0.3669 -0.3853 -1.0576
  669MOL0     H88252   5.580   6.852   4.762  2.1149  1.5097 -0.5286
  669MOL0     H88253   5.400   7.049   4.910 -2.3079  1.2441 -2.2333
  669MOL0     H88254   5.385   6.872   4.900 -0.8496 -0.0271  1.0885
  669MOL0     H88255   5.369   6.884   4.658  1.9236 -0.3215  1.1311
  669MOL0     H88256   5.397   7.064   4.671 -0.8922  1.1820  2.4504
  669MOL0     H88257   5.158   6.891   4.772 -3.6197  1.6278 -2.0185
  669MOL0     H88258   5.172   7.064   4.802  1.9773  0.9698  0.0187
  669MOL0     H88259   5.202   7.072   4.548 -0.1030 -0.2036 -0.9507
  669MOL0     H88260   5.037   7.073   4.621 -2.2163 -4.3298 -0.6059
  669MOL0     H88261   4.959   6.786   4.686 -2.2985  0.2104 -1.7648
  669MOL0     H88262   4.957   6.500   4.539 -0.8623 -2.1975 -1.1816
  669MOL0     H88263   4.908   6.548   4.376 -0.3448 -0.8284  0.0686
  669MOL0     H88264   4.715   6.665   4.494  2.5487  1.6953  0.2964
  669MOL0     H88265   4.751   6.597   4.643  0.9420  2.2382 -0.4603
  669MOL0     H88266   4.649   6.481   4.392  3.3837  1.2545 -1.6354
  669MOL0     H88267   4.746   6.364   4.486 -0.7175 -0.7490  1.3907
  669MOL0     H88268   4.524   6.344   4.515  0.6340 -0.8568  0.8907
  669MOL0     H88269   4.482   6.510   4.535  0.6571  0.4085 -1.0527
  669MOL0     H88270   4.583   6.503   4.935  0.4962 -0.1548 -1.0785
  669MOL0     H88271   4.396   6.574   5.083  1.9336 -0.5269 -1.0100
  669MOL0     H88272   3.974   6.612   5.269 -0.4297 -1.4036 -0.1422
  669MOL0     H88273   3.756   6.684   5.371  4.2446  0.9237  0.5924
  669MOL0     H88274   3.598   6.914   5.266  3.1822 -3.1122 -0.2879
  669MOL0     H88275   3.501   6.851   5.401 -1.4686  1.6475 -0.8409
  669MOL0     H88276   3.387   6.937   5.126 -2.3772  2.1304 -0.1178
  669MOL0     H88277   3.364   7.020   5.277 -1.9307  0.2538 -1.3454
  669MOL0     H88278   3.267   6.781   5.349  2.2084  0.6240 -0.2036
  669MOL0     H88279   3.258   6.755   5.176 -0.7543  0.3625 -0.0770
  669MOL0     H88280   3.111   6.956   5.340 -3.0532 -0.9273 -0.2860
  669MOL0     H88281   3.152   6.985   5.168 -0.2607  0.5491 -0.3707
  669MOL0     H88282   3.007   6.742   5.273  4.5794 -1.5347 -0.3532
  669MOL0     H88283   3.033   6.772   5.101  1.4785  0.4030  0.4863
  669MOL0     H88284   2.899   6.958   5.096 -0.3488  0.9723  0.4698
  669MOL0     H88285   2.888   6.974   5.276  0.6785  1.1689 -0.7095
  669MOL0     H88286   2.750   6.757   5.101 -2.1767  0.3030  0.4545
  669MOL0     H88287   2.762   6.746   5.271  1.6635 -0.0449 -1.1923
  669MOL0     H88288   2.637   6.981   5.127 -1.6205  1.4535  0.3576
  669MOL0     H88289   2.641   6.955   5.304 -0.8113  1.3657 -0.6247
  669MOL0     H88290   3.576   6.699   4.986  0.5956 -0.5617 -2.2010
  669MOL0     H88291   3.782   6.595   4.889  0.7822 -1.4086  1.0491
  669MOL0     H88292   4.116   6.518   4.775  0.8606 -0.6991 -1.4498
  669MOL0     H88293   4.304   6.432   4.629 -1.4417  0.3210  0.8472
  669MOL0     H88294   5.911   7.111   4.623 -0.8611  1.8968  1.6569
  669MOL0     H88295   6.131   7.131   4.512  0.8538 -1.8794  0.2114
  669MOL0     H88296   6.613   7.025   4.635 -1.7333  0.5340 -0.0170
  669MOL0     H88297   6.854   7.050   4.596 -1.8610 -0.0332  2.6687
  669MOL0     H88298   7.050   7.022   4.423 -0.3224  0.2116 -2.0866
  669MOL0     H88299   7.063   7.137   4.561  0.8921 -0.0584 -0.3009
  669MOL0     H88300   7.277   7.093   4.455 -2.2632 -1.1804  1.1112
  669MOL0     H88301   7.208   7.114   4.297  1.4381  0.6902 -0.3966
  669MOL0     H88302   7.224   7.334   4.521  2.4475  3.0092 -0.7694
  669MOL0     H88303   7.154   7.367   4.363 -1.1019 -0.2319  0.3148
  669MOL0     H88304   7.363   7.291   4.250  0.8077 -0.4947  0.8739
  669MOL0     H88305   7.363   7.452   4.308  1.3316 -0.7895 -2.2611
  669MOL0     H88306   7.676   7.348   4.544  1.2507  0.4503  0.2023
  669MOL0     H88307   6.773   7.330   4.282  2.3539  0.4290  2.7861
  669MOL0     H88308   6.520   7.297   4.326 -0.2394  2.1927  1.7498
  670MOL0     O88309   7.731  10.362   5.813 -0.1153  0.0278 -0.4578
  670MOL0     C88310   7.652  10.438   5.870  0.3667  0.7663 -0.1166
  670MOL0     O88311   7.688  10.541   5.961 -0.2324  0.2739 -0.1845
  670MOL0     C88312   7.828  10.542   5.984  0.1777  0.0435 -0.1019
  670MOL0     C88313   7.890  10.648   5.919  0.2177  0.0140 -1.3481
  670MOL0     C88314   8.027  10.675   5.912  0.1900 -0.4603  0.4231
  670MOL0     C88315   8.107  10.600   6.002  0.6602  1.0760 -0.3873
  670MOL0     O88316   8.240  10.617   6.023 -0.6214 -0.4741 -0.2878
  670MOL0     C88317   8.297  10.747   6.031  0.0920  0.1723 -0.2731
  670MOL0     C88318   8.446  10.751   6.073 -0.1965 -0.9509  0.3870
  670MOL0     C88319   8.516  10.893   6.059 -0.0981 -0.3853  0.8121
  670MOL0     C88320   8.515  10.983   6.185  0.3290  0.5490  0.3895
  670MOL0     C88321   8.621  11.098   6.161  0.2163  0.3639  0.0335
  670MOL0     C88322   8.593  11.214   6.253 -0.3457  0.3935  0.0045
  670MOL0     C88323   8.721  11.305   6.274  0.7820  0.4747  0.1158
  670MOL0     C88324   8.735  11.410   6.167  0.4560 -0.2794  0.5245
  670MOL0     N88325   8.610  11.465   6.113 -0.1839 -0.2683  0.0014
  670MOL0     C88326   8.533  11.550   6.184 -0.4499 -0.4808  0.9372
  670MOL0     C88327   8.421  11.559   6.119  0.5419 -0.3251 -0.0645
  670MOL0     C88328   8.308  11.655   6.144 -0.4448  1.3328  0.0296
  670MOL0     C88329   8.221  11.607   6.257  0.2252 -0.0148 -0.2537
  670MOL0     C88330   8.098  11.685   6.298 -0.3136  0.5955 -0.4614
  670MOL0     C88331   7.966  11.617   6.271  0.1350  0.3591 -0.0446
  670MOL0     O88332   7.967  11.592   6.126 -0.2837  0.1994  0.1834
  670MOL0     C88333   7.851  11.572   6.058 -0.4699 -0.1607  0.3147
  670MOL0     C88334   7.721  11.588   6.108  0.2851  0.4850 -0.4015
  670MOL0     C88335   7.612  11.558   6.027  0.4266  0.3454  0.1789
  670MOL0     C88336   7.634  11.517   5.894 -0.1520  0.1204 -1.8643
  670MOL0     C88337   7.513  11.466   5.811 -1.0541  0.0471 -1.0857
  670MOL0     O88338   7.385  11.470   5.865  0.3165  0.4695  0.4370
  670MOL0     C88339   7.274  11.420   5.796  0.2559 -0.4892  0.0297
  670MOL0     C88340   7.176  11.357   5.877 -0.1994 -0.0965 -0.6035
  670MOL0     C88341   7.058  11.314   5.820 -0.4809 -0.1088  0.0581
  670MOL0     C88342   7.030  11.334   5.686  0.5226  0.9104 -0.1303
  670MOL0     O88343   6.910  11.300   5.636 -0.3742  0.0417  0.1346
  670MOL0     C88344   6.809  11.388   5.676 -0.2262  0.2078  0.1510
  670MOL0     C88345   6.676  11.319   5.669 -0.5521  0.2943  0.1701
  670MOL0     C88346   6.634  11.293   5.521 -0.0474 -0.4994 -0.6445
  670MOL0     C88347   6.488  11.237   5.526 -0.7529 -0.0494  0.3920
  670MOL0     C88348   6.441  11.224   5.378 -0.4351  0.0273  0.5626
  670MOL0     C88349   6.293  11.191   5.363  1.2620 -0.5555 -0.1104
  670MOL0     C88350   6.234  11.252   5.238 -0.1484 -0.0622  0.1162
  670MOL0     C88351   6.095  11.197   5.196  0.3064 -0.7438 -0.6541
  670MOL0    Cl88352   6.085  11.026   5.161 -0.5511 -0.2134 -0.1786
  670MOL0     C88353   7.130  11.390   5.602 -0.0386  0.5803  0.0081
  670MOL0     C88354   7.247  11.434   5.659 -0.5717 -0.6790 -0.4606
  670MOL0     O88355   7.540  11.426   5.699 -0.6255 -0.3586  0.4698
  670MOL0     C88356   7.760  11.502   5.843  0.5440 -0.5917  0.6722
  670MOL0     C88357   7.867  11.535   5.924 -0.0140  0.0906  0.1563
  670MOL0     N88358   8.436  11.477   6.005  0.5830  0.0391 -0.4200
  670MOL0     N88359   8.550  11.432   5.997 -0.1359 -0.5177 -0.3948
  670MOL0     C88360   8.047  10.492   6.071 -0.1595 -0.1874  0.6501
  670MOL0     C88361   7.911  10.457   6.064 -0.3487  0.0039 -0.1140
  670MOL0     C88362   7.504  10.408   5.843 -0.5394 -0.4460  0.1988
  670MOL0     C88363   7.401  10.468   5.920 -0.3604 -0.2738 -0.1681
  670MOL0     C88364   7.262  10.443   5.903 -0.3335  0.8237 -0.3060
  670MOL0     C88365   7.232  10.358   5.801  0.1066 -0.1608  0.0412
  670MOL0     O88366   7.106  10.317   5.783 -0.7093 -0.2471 -0.4090
  670MOL0     C88367   7.027  10.410   5.712 -0.3903  0.5799 -0.2318
  670MOL0     C88368   6.895  10.348   5.689 -0.5386 -0.0561  0.4221
  670MOL0     C88369   6.774  10.436   5.643 -0.3153 -0.2619 -0.3127
  670MOL0     C88370   6.648  10.359   5.589  0.5158  0.0965  0.0349
  670MOL0     C88371   6.577  10.291   5.700  0.3930  0.2973 -0.8808
  670MOL0     C88372   6.518  10.216   5.779 -0.3307 -0.6678  0.4546
  670MOL0     C88373   7.327  10.300   5.722 -0.5975 -0.2660  0.1266
  670MOL0     C88374   7.462  10.322   5.746 -0.2908 -0.2418 -0.3721
  670MOL0     H88375   7.841  10.724   5.859  0.8368  2.0617  0.6343
  670MOL0     H88376   8.062  10.755   5.848  0.8180 -0.7087  0.4482
  670MOL0     H88377   8.232  10.809   6.094  2.9155  3.3708 -0.2315
  670MOL0     H88378   8.279  10.806   5.941  2.4107  1.8137  0.2629
  670MOL0     H88379   8.488  10.680   6.001 -3.1030 -0.4828 -1.9662
  670MOL0     H88380   8.464  10.700   6.168  3.2071  1.7838  1.4198
  670MOL0     H88381   8.477  10.950   5.973  1.2065 -0.6262  0.0334
  670MOL0     H88382   8.622  10.879   6.040 -0.1092  0.7493 -0.2480
  670MOL0     H88383   8.415  11.026   6.192  0.4281  1.5591 -2.7071
  670MOL0     H88384   8.540  10.927   6.275 -0.3865  1.2815  1.0522
  670MOL0     H88385   8.627  11.139   6.060  1.0715 -3.3317 -1.6005
  670MOL0     H88386   8.721  11.056   6.179 -0.3107 -1.3701 -0.8360
  670MOL0     H88387   8.567  11.174   6.352  0.1578  0.4966  0.1827
  670MOL0     H88388   8.503  11.269   6.222  0.3733  2.4029  1.2801
  670MOL0     H88389   8.714  11.355   6.371  1.3417 -0.4548  0.6480
  670MOL0     H88390   8.808  11.239   6.269 -0.4801 -1.3439  1.1062
  670MOL0     H88391   8.795  11.357   6.092 -1.7454  0.4080 -1.8642
  670MOL0     H88392   8.793  11.495   6.203  0.0886 -0.1642  0.8478
  670MOL0     H88393   8.560  11.609   6.271  2.2809  0.1730 -0.2224
  670MOL0     H88394   8.243  11.665   6.057 -2.4515  2.5847  1.5787
  670MOL0     H88395   8.354  11.751   6.166  3.2992 -0.2909  0.1606
  670MOL0     H88396   8.280  11.599   6.349 -0.2528  0.4835  0.1090
  670MOL0     H88397   8.186  11.505   6.239 -0.5916  0.3394 -0.7372
  670MOL0     H88398   8.105  11.688   6.407  0.0963 -1.3075 -0.3939
  670MOL0     H88399   8.104  11.780   6.245  0.8354  0.4424 -0.6462
  670MOL0     H88400   7.893  11.694   6.295  0.3690  1.2938 -2.1153
  670MOL0     H88401   7.950  11.536   6.343 -1.6815  1.4681  0.8693
  670MOL0     H88402   7.694  11.615   6.210 -2.4095 -0.7076 -0.6996
  670MOL0     H88403   7.516  11.557   6.076  0.8351  1.2456  1.0349
  670MOL0     H88404   7.175  11.352   5.985  2.1210  1.1093 -0.4580
  670MOL0     H88405   6.984  11.263   5.881  1.3680 -2.0547  0.7761
  670MOL0     H88406   6.816  11.476   5.612 -1.3830 -0.5203 -1.0399
  670MOL0     H88407   6.834  11.438   5.770  2.4871  0.4745 -0.6451
  670MOL0     H88408   6.600  11.386   5.710 -1.7951 -0.5209 -0.7114
  670MOL0     H88409   6.678  11.225   5.723  0.5451  1.8298  2.9769
  670MOL0     H88410   6.702  11.230   5.463 -0.5822  1.7080 -3.8868
  670MOL0     H88411   6.637  11.389   5.469  1.1554 -0.1760 -0.0034
  670MOL0     H88412   6.492  11.138   5.573 -3.0960  0.4524  1.8305
  670MOL0     H88413   6.419  11.299   5.585  1.5642  2.6929  0.4502
  670MOL0     H88414   6.497  11.153   5.316  0.6168  2.0465 -0.9293
  670MOL0     H88415   6.459  11.321   5.330 -2.6049 -0.4432 -1.4140
  670MOL0     H88416   6.238  11.226   5.450 -0.2135 -0.7729 -0.9168
  670MOL0     H88417   6.276  11.083   5.354  0.5704 -0.3673 -1.3803
  670MOL0     H88418   6.225  11.359   5.257 -3.0875 -0.3316  0.8537
  670MOL0     H88419   6.310  11.244   5.160  0.8332  1.0134  0.9343
  670MOL0     H88420   6.049  11.259   5.119  0.7766  2.0964  1.1611
  670MOL0     H88421   6.043  11.206   5.292  4.0167  2.8912  1.3647
  670MOL0     H88422   7.107  11.403   5.496  0.0500 -2.7701 -0.5366
  670MOL0     H88423   7.322  11.481   5.595  0.6900 -0.3540  1.2038
  670MOL0     H88424   7.786  11.468   5.744  1.3944  0.1453  0.6337
  670MOL0     H88425   7.968  11.517   5.888  0.2086 -1.5644  1.4631
  670MOL0     H88426   8.109  10.435   6.139  0.1331 -0.8285 -0.1420
  670MOL0     H88427   7.870  10.373   6.118 -0.1422  0.3912  0.6532
  670MOL0     H88428   7.429  10.541   5.996  2.4394  0.0366 -1.3766
  670MOL0     H88429   7.180  10.483   5.961 -1.8229 -4.1164  1.4995
  670MOL0     H88430   7.076  10.429   5.616 -0.3507 -1.9323 -0.7906
  670MOL0     H88431   7.000  10.503   5.763 -1.3180 -0.5268  1.3785
  670MOL0     H88432   6.905  10.279   5.604 -1.5341  0.4418 -0.1138
  670MOL0     H88433   6.867  10.300   5.783 -0.9635  1.0405  0.8625
  670MOL0     H88434   6.804  10.512   5.570 -1.6445 -0.2866 -0.9119
  670MOL0     H88435   6.748  10.495   5.732  0.7711 -3.3609  2.2543
  670MOL0     H88436   6.585  10.434   5.541 -1.6288 -0.7779  1.3363
  670MOL0     H88437   6.691  10.288   5.518  1.4087  0.9495 -0.2877
  670MOL0     H88438   6.449  10.163   5.842 -1.5191  0.0898 -0.1782
  670MOL0     H88439   7.296  10.226   5.648  0.3061  2.2250 -2.9422
  670MOL0     H88440   7.531  10.261   5.688 -2.0954 -3.9211  1.0401
  671MOL0     O88441   2.567   1.812   6.684  0.3562  0.0008  0.6292
  671MOL0     C88442   2.475   1.737   6.669 -0.2084 -0.4135  0.0321
  671MOL0     O88443   2.483   1.601   6.691 -0.6464 -0.0469  0.5031
  671MOL0     C88444   2.591   1.546   6.753  0.5018  0.0499 -0.2845
  671MOL0     C88445   2.613   1.589   6.886  0.3287  0.1415 -0.4380
  671MOL0     C88446   2.716   1.528   6.957  0.3118 -0.4654 -0.2172
  671MOL0     C88447   2.790   1.425   6.902 -0.0948 -0.3749  0.4602
  671MOL0     O88448   2.868   1.351   6.987 -0.7400  0.2840 -0.4765
  671MOL0     C88449   3.002   1.319   6.928  0.4434 -0.8604 -0.4182
  671MOL0     C88450   3.085   1.298   7.053  0.8516 -0.7149 -0.2429
  671MOL0     C88451   3.136   1.422   7.120 -0.8686 -0.6090 -0.3321
  671MOL0     C88452   3.222   1.387   7.234 -0.0893 -0.4811  1.1317
  671MOL0     C88453   3.260   1.511   7.321 -0.8630  0.1936  0.7382
  671MOL0     C88454   3.341   1.465   7.441  0.3471 -0.7592 -0.1204
  671MOL0     C88455   3.374   1.599   7.517  0.2498 -0.3039 -0.2963
  671MOL0     C88456   3.409   1.584   7.666 -0.4006  0.3167 -0.9959
  671MOL0     N88457   3.299   1.544   7.761 -0.5307  0.3526 -0.2108
  671MOL0     C88458   3.176   1.604   7.767 -0.3614  0.6972  0.1564
  671MOL0     C88459   3.111   1.531   7.865  1.1096 -0.1323 -0.0343
  671MOL0     C88460   2.972   1.572   7.916 -0.2629  0.5481  0.1590
  671MOL0     C88461   2.874   1.520   7.810  0.7948  0.3792  0.0254
  671MOL0     C88462   2.734   1.574   7.840  0.4467  0.4552 -0.7486
  671MOL0     C88463   2.634   1.527   7.734  0.7683 -0.3508 -0.8604
  671MOL0     O88464   2.513   1.600   7.744 -0.0159 -0.4238 -0.1433
  671MOL0     C88465   2.393   1.543   7.767 -0.1015 -0.0598  0.0014
  671MOL0     C88466   2.363   1.404   7.749 -1.3166 -0.6614 -0.2915
  671MOL0     C88467   2.238   1.351   7.781 -0.3674  0.3001  0.5561
  671MOL0     C88468   2.139   1.435   7.827  0.9978 -1.1761  0.2778
  671MOL0     C88469   2.009   1.381   7.868 -0.5339  1.0243 -0.1837
  671MOL0     O88470   1.917   1.469   7.919 -0.2795  0.5024  0.9002
  671MOL0     C88471   1.797   1.433   7.963  0.4561  0.1257 -0.0161
  671MOL0     C88472   1.697   1.535   7.965  0.9954  0.2316  0.1261
  671MOL0     C88473   1.567   1.506   8.015  0.8093 -1.0384  0.1867
  671MOL0     C88474   1.527   1.386   8.056 -0.0730 -0.0057  0.3011
  671MOL0     O88475   1.402   1.349   8.100  0.5070 -0.1773  0.2376
  671MOL0     C88476   1.294   1.410   8.030 -0.2528 -0.1281 -0.7017
  671MOL0     C88477   1.161   1.326   8.028 -0.4170 -0.3411  0.7726
  671MOL0     C88478   1.064   1.385   8.136  0.1971 -0.4240 -0.1040
  671MOL0     C88479   0.932   1.330   8.087 -0.1795  0.5034  0.0229
  671MOL0     C88480   0.821   1.375   8.180 -0.6650 -0.3084 -0.0089
  671MOL0     C88481   0.699   1.282   8.164  0.2039 -0.2461  0.2165
  671MOL0     C88482   0.574   1.337   8.229 -1.0385 -0.4442  0.5344
  671MOL0     C88483   0.451   1.291   8.159  0.3227  0.0303  0.1015
  671MOL0    Cl88484   0.310   1.373   8.236  0.1325  0.2823 -0.1954
  671MOL0     C88485   1.620   1.279   8.060 -0.1735 -0.5901  0.5689
  671MOL0     C88486   1.753   1.307   8.015  0.0344  0.0487  0.3513
  671MOL0     O88487   1.994   1.263   7.854  0.0012 -0.1773 -0.0167
  671MOL0     C88488   2.170   1.569   7.854 -0.2475 -0.1500  0.6509
  671MOL0     C88489   2.289   1.617   7.812 -0.3470 -0.0940  1.4717
  671MOL0     N88490   3.186   1.427   7.907  0.3971  0.3113 -0.6449
  671MOL0     N88491   3.302   1.446   7.858 -0.0994 -0.1546  0.3293
  671MOL0     C88492   2.773   1.395   6.765  1.1395  0.2004 -0.6358
  671MOL0     C88493   2.669   1.456   6.689 -0.6373  0.0027 -0.8584
  671MOL0     C88494   2.342   1.780   6.628 -0.3784  0.4173 -0.2381
  671MOL0     C88495   2.228   1.715   6.676 -0.8121 -0.1945 -0.1639
  671MOL0     C88496   2.097   1.760   6.641  0.7380  0.0762  0.5771
  671MOL0     C88497   2.080   1.873   6.559  0.4541  1.5040 -0.6550
  671MOL0     O88498   1.951   1.895   6.530  0.3881 -0.2279 -0.3725
  671MOL0     C88499   1.930   2.022   6.468 -0.0900 -0.0003 -0.4858
  671MOL0     C88500   1.782   2.039   6.451  0.0303  0.4546  0.1239
  671MOL0     C88501   1.746   2.181   6.407  0.3658 -0.8971 -0.7704
  671MOL0     C88502   1.595   2.173   6.379 -0.1310 -0.3751 -0.5097
  671MOL0     C88503   1.542   2.306   6.356 -0.1478 -1.1932 -0.6047
  671MOL0     C88504   1.494   2.413   6.336  0.3168 -0.7057 -0.2535
  671MOL0     C88505   2.194   1.939   6.501 -0.7442 -0.3953  0.1602
  671MOL0     C88506   2.322   1.892   6.542 -0.4049 -1.1570 -0.8577
  671MOL0     H88507   2.556   1.672   6.925  0.4955  0.5816 -1.1200
  671MOL0     H88508   2.743   1.557   7.058 -1.6989 -1.0188  0.5415
  671MOL0     H88509   3.026   1.402   6.862 -1.4947 -1.4870 -2.0059
  671MOL0     H88510   2.994   1.223   6.876 -1.7151 -0.9602 -0.0014
  671MOL0     H88511   3.168   1.239   7.012  0.5927 -1.2489 -0.0088
  671MOL0     H88512   3.038   1.226   7.121 -0.2812 -0.1313 -0.3906
  671MOL0     H88513   3.052   1.478   7.163 -0.4846 -0.1286 -0.1839
  671MOL0     H88514   3.187   1.485   7.046  0.2286 -0.2634  0.6875
  671MOL0     H88515   3.176   1.306   7.290  1.4437 -1.2655  1.3266
  671MOL0     H88516   3.314   1.340   7.196 -0.7163 -0.2554 -0.7718
  671MOL0     H88517   3.170   1.567   7.349 -0.0358  1.7660  0.3695
  671MOL0     H88518   3.325   1.565   7.252  0.9255 -1.9054  0.6699
  671MOL0     H88519   3.436   1.418   7.414  1.1628  1.0309 -0.5091
  671MOL0     H88520   3.281   1.391   7.495 -1.1424  0.4296 -0.0746
  671MOL0     H88521   3.456   1.650   7.466  0.0188  1.4041  0.9373
  671MOL0     H88522   3.290   1.670   7.512  2.2203  2.3418  1.3401
  671MOL0     H88523   3.459   1.672   7.709 -1.8507  0.2663  0.8921
  671MOL0     H88524   3.475   1.498   7.677 -1.9627 -1.2787 -3.2329
  671MOL0     H88525   3.150   1.699   7.723 -0.1592  0.9756  0.6349
  671MOL0     H88526   2.968   1.681   7.915  0.7660  0.5886 -0.3189
  671MOL0     H88527   2.955   1.529   8.015  0.7855 -1.0184 -0.3035
  671MOL0     H88528   2.888   1.412   7.816  0.2642  0.3056 -0.0560
  671MOL0     H88529   2.905   1.559   7.712  0.2699  2.6375  0.6972
  671MOL0     H88530   2.698   1.538   7.937 -2.6992 -2.0479 -2.6155
  671MOL0     H88531   2.747   1.682   7.843 -0.8810  0.7377 -2.8899
  671MOL0     H88532   2.617   1.419   7.736  0.7444 -0.3367 -0.0933
  671MOL0     H88533   2.663   1.549   7.631 -0.5823 -0.0351 -1.1971
  671MOL0     H88534   2.434   1.341   7.697 -1.5868 -1.5362  0.3853
  671MOL0     H88535   2.222   1.245   7.768 -1.4372  0.1027  2.9450
  671MOL0     H88536   1.726   1.629   7.919  2.6797  0.3533  1.3265
  671MOL0     H88537   1.492   1.584   8.019 -0.0035 -1.7093 -1.2604
  671MOL0     H88538   1.315   1.441   7.927 -0.5769  0.8094 -0.4968
  671MOL0     H88539   1.275   1.502   8.086 -1.3454  0.2231 -1.6001
  671MOL0     H88540   1.167   1.219   8.050 -1.7860 -0.4542  0.6328
  671MOL0     H88541   1.108   1.338   7.933 -1.3135 -2.9045  0.8606
  671MOL0     H88542   1.064   1.489   8.167  2.9976 -0.1333 -0.7345
  671MOL0     H88543   1.092   1.340   8.232  0.2728  1.0619  0.5955
  671MOL0     H88544   0.902   1.372   7.990 -0.0412 -0.2175 -0.3412
  671MOL0     H88545   0.937   1.221   8.081 -2.8366  0.2902  0.5735
  671MOL0     H88546   0.804   1.481   8.155 -0.1879 -0.2411 -0.0608
  671MOL0     H88547   0.847   1.367   8.286  1.5102  1.2840 -0.3314
  671MOL0     H88548   0.735   1.187   8.206 -0.2108 -0.9159 -0.9041
  671MOL0     H88549   0.682   1.268   8.057  1.1650 -0.4687  0.0849
  671MOL0     H88550   0.583   1.307   8.334  1.1556 -0.5415  0.3614
  671MOL0     H88551   0.575   1.446   8.229 -3.8033 -0.2817 -1.8722
  671MOL0     H88552   0.442   1.182   8.165  1.5841 -0.0230  1.2268
  671MOL0     H88553   0.452   1.325   8.055  0.1883  0.8392  0.3588
  671MOL0     H88554   1.590   1.180   8.092 -0.0360 -0.2806  1.6889
  671MOL0     H88555   1.823   1.224   8.017 -0.0260  0.0051  0.7565
  671MOL0     H88556   2.103   1.641   7.898 -0.4301 -1.0830  1.9529
  671MOL0     H88557   2.302   1.725   7.807 -0.0024 -0.1441 -3.2773
  671MOL0     H88558   2.832   1.323   6.709 -1.3101 -1.4492 -1.2530
  671MOL0     H88559   2.653   1.424   6.586  0.3223  0.7297 -1.2536
  671MOL0     H88560   2.247   1.628   6.738 -1.4293 -0.0794  0.2009
  671MOL0     H88561   2.006   1.711   6.672 -0.2194  1.8691  0.7851
  671MOL0     H88562   1.972   2.036   6.367  0.8185  0.4269 -0.0631
  671MOL0     H88563   1.963   2.097   6.540 -0.1016 -1.4876  1.1361
  671MOL0     H88564   1.748   1.968   6.376  1.1101  0.0788 -0.0146
  671MOL0     H88565   1.721   2.017   6.540 -0.8992 -1.0348 -0.8455
  671MOL0     H88566   1.808   2.222   6.327 -1.7158  0.2324 -1.8890
  671MOL0     H88567   1.760   2.235   6.502 -0.0964 -1.4085 -0.4014
  671MOL0     H88568   1.573   2.111   6.292  0.1767  0.5239 -1.2494
  671MOL0     H88569   1.542   2.137   6.468 -1.0164 -1.2628 -1.3650
  671MOL0     H88570   1.450   2.507   6.309  3.1098  1.0996  1.0430
  671MOL0     H88571   2.185   2.022   6.432  0.6149 -0.6483 -0.3435
  671MOL0     H88572   2.411   1.938   6.501  0.2699 -3.1520 -1.7581
  672MOL0     O88573   0.809   3.607   0.044 -0.8797  0.1253  0.5776
  672MOL0     C88574   0.890   3.622   0.137  0.1366 -0.5584 -0.5944
  672MOL0     O88575   0.861   3.667   0.263  0.1027  0.7461  0.1972
  672MOL0     C88576   0.759   3.758   0.280  0.4478  1.0212  0.5112
  672MOL0     C88577   0.621   3.712   0.284 -0.2335 -0.5860  0.5810
  672MOL0     C88578   0.523   3.804   0.303  0.3203 -0.0320  0.6278
  672MOL0     C88579   0.560   3.938   0.342  0.8594  0.8054 -0.0173
  672MOL0     O88580   0.470   4.032   0.387  0.4767  1.1003  0.5893
  672MOL0     C88581   0.336   4.023   0.334  0.1338 -0.2521 -0.1927
  672MOL0     C88582   0.257   3.967   0.457  0.2038  0.2511  0.0038
  672MOL0     C88583   0.104   3.967   0.430 -0.2815 -0.1905  0.1552
  672MOL0     C88584   0.047   4.108   0.436  0.0980 -0.1826  1.1953
  672MOL0     C88585  -0.102   4.112   0.450  0.2990 -0.6716 -0.4591
  672MOL0     C88586  -0.179   4.064   0.333 -0.3013  0.0046  0.0003
  672MOL0     C88587  -0.330   4.089   0.341  0.2166 -0.3549  0.2023
  672MOL0     C88588  -0.396   4.048   0.203 -0.0687 -0.1802 -0.1046
  672MOL0     N88589  -0.405   4.154   0.098 -0.1167 -0.3781 -0.2967
  672MOL0     C88590  -0.520   4.231   0.065 -0.2047  0.0021  0.4317
  672MOL0     C88591  -0.481   4.318  -0.029  0.5803 -0.4114  0.1577
  672MOL0     C88592  -0.568   4.413  -0.115 -0.0789 -0.8695  0.3833
  672MOL0     C88593  -0.635   4.334  -0.241  0.0061 -0.2869 -0.7328
  672MOL0     C88594  -0.754   4.233  -0.207 -0.0126 -0.0403 -0.6699
  672MOL0     C88595  -0.890   4.288  -0.166 -0.4237  0.3144  0.0251
  672MOL0     O88596  -0.982   4.179  -0.124 -0.1015 -0.4790  0.6178
  672MOL0     C88597  -1.119   4.203  -0.118 -0.2871 -0.3100 -0.8361
  672MOL0     C88598  -1.182   4.332  -0.092 -0.2338 -0.0262  0.5229
  672MOL0     C88599  -1.320   4.335  -0.090 -0.3849  0.3145 -0.2304
  672MOL0     C88600  -1.405   4.220  -0.112  0.5044  0.4105 -0.3383
  672MOL0     C88601  -1.550   4.219  -0.109 -0.4079 -0.1238  0.0005
  672MOL0     O88602  -1.618   4.123  -0.185 -0.3657  0.2478  0.3828
  672MOL0     C88603  -1.752   4.144  -0.201  0.8870 -0.3149 -0.0148
  672MOL0     C88604  -1.798   4.217  -0.310 -0.5406  0.2068  0.3686
  672MOL0     C88605  -1.932   4.235  -0.338  0.1412 -0.5098 -0.1346
  672MOL0     C88606  -2.028   4.176  -0.258  0.5673 -1.0142 -0.1768
  672MOL0     O88607  -2.161   4.203  -0.285  0.2492  0.8623  0.2527
  672MOL0     C88608  -2.265   4.148  -0.205 -0.7006  0.1268 -0.1434
  672MOL0     C88609  -2.410   4.152  -0.272 -0.6800  0.3297  0.2563
  672MOL0     C88610  -2.519   4.077  -0.197 -0.6921 -0.3197 -0.0775
  672MOL0     C88611  -2.654   4.092  -0.268 -0.8743  0.8800  0.7345
  672MOL0     C88612  -2.769   4.006  -0.198  0.8478 -0.0420 -0.9114
  672MOL0     C88613  -2.913   4.050  -0.235 -0.5328 -0.0526 -0.7126
  672MOL0     C88614  -3.014   4.021  -0.124  0.2897  0.3427  1.3657
  672MOL0     C88615  -3.152   4.077  -0.162  0.5230 -0.3128 -0.6191
  672MOL0    Cl88616  -3.267   3.990  -0.055 -0.0121 -0.3893  0.3831
  672MOL0     C88617  -1.989   4.109  -0.144 -0.4591  0.5006 -0.3220
  672MOL0     C88618  -1.849   4.092  -0.110  0.7787 -0.3021 -0.2082
  672MOL0     O88619  -1.602   4.292  -0.029  0.2448  0.1773  0.1755
  672MOL0     C88620  -1.333   4.095  -0.125  0.8099 -0.4244 -0.4128
  672MOL0     C88621  -1.197   4.094  -0.126 -0.4418  0.6874 -0.1531
  672MOL0     N88622  -0.341   4.310  -0.038 -0.6938  0.0289 -0.2726
  672MOL0     N88623  -0.297   4.218   0.038 -0.4464  0.5152 -0.5773
  672MOL0     C88624   0.694   3.982   0.343 -0.1800 -0.1506 -0.1712
  672MOL0     C88625   0.795   3.890   0.307  0.2563 -0.2023 -0.5294
  672MOL0     C88626   1.036   3.578   0.122  0.2089 -0.8769  0.0473
  672MOL0     C88627   1.123   3.568   0.231  0.9969 -0.1937  0.1579
  672MOL0     C88628   1.255   3.523   0.222  0.4281  0.7599  0.4443
  672MOL0     C88629   1.316   3.500   0.094 -0.0975 -0.3988  0.1638
  672MOL0     O88630   1.452   3.479   0.079  0.1749  0.5631  0.4275
  672MOL0     C88631   1.544   3.508   0.183  0.0596  0.4293  0.7588
  672MOL0     C88632   1.692   3.512   0.145 -0.5113 -0.3194 -1.3046
  672MOL0     C88633   1.746   3.647   0.087  0.1189  0.1618  0.5469
  672MOL0     C88634   1.672   3.695  -0.040 -0.0681  0.1618  0.1480
  672MOL0     C88635   1.688   3.591  -0.150 -0.4668 -0.6395 -1.0990
  672MOL0     C88636   1.707   3.504  -0.232  0.1934 -0.5403 -0.4848
  672MOL0     C88637   1.240   3.523  -0.018 -0.6378 -0.0073  0.2554
  672MOL0     C88638   1.100   3.560  -0.004  0.4389  0.1441  0.1074
  672MOL0     H88639   0.590   3.608   0.281  0.6656 -0.8418 -0.3954
  672MOL0     H88640   0.422   3.764   0.302  0.2916  0.0126  1.1187
  672MOL0     H88641   0.318   3.955   0.250  1.6263 -2.6926  1.3079
  672MOL0     H88642   0.284   4.117   0.313 -0.3530  0.0511  2.0723
  672MOL0     H88643   0.277   4.023   0.549 -0.5028  0.9006 -0.2322
  672MOL0     H88644   0.290   3.864   0.478 -3.2583 -1.0866 -0.3895
  672MOL0     H88645   0.054   3.903   0.503 -1.0270  0.5788  0.3285
  672MOL0     H88646   0.097   3.933   0.327 -0.0385 -0.2003  0.1417
  672MOL0     H88647   0.088   4.162   0.522 -3.3010  4.3465  0.3420
  672MOL0     H88648   0.070   4.163   0.344 -2.6629 -0.6036  0.1630
  672MOL0     H88649  -0.141   4.211   0.474 -1.3168 -1.3885  0.0315
  672MOL0     H88650  -0.140   4.047   0.530 -0.5380  1.6279  1.1336
  672MOL0     H88651  -0.160   3.956   0.331 -0.9418 -0.1218  0.2878
  672MOL0     H88652  -0.138   4.123   0.250  1.1583 -2.0894 -0.8621
  672MOL0     H88653  -0.375   4.028   0.420 -2.3694  1.0412 -0.0833
  672MOL0     H88654  -0.360   4.189   0.375 -0.2962 -0.8953  1.4007
  672MOL0     H88655  -0.494   4.006   0.228 -1.1163  1.7250 -0.8418
  672MOL0     H88656  -0.341   3.964   0.159 -0.9389 -0.3548 -0.8849
  672MOL0     H88657  -0.620   4.210   0.100 -1.3585  0.6996 -2.1860
  672MOL0     H88658  -0.505   4.497  -0.145  0.6086 -1.0853  1.1875
  672MOL0     H88659  -0.647   4.447  -0.047 -2.1997 -1.6991 -1.5245
  672MOL0     H88660  -0.548   4.285  -0.286 -0.5218 -1.6672 -0.3069
  672MOL0     H88661  -0.678   4.414  -0.302 -0.2356 -0.1869 -0.4356
  672MOL0     H88662  -0.768   4.182  -0.304 -0.1304 -0.1727 -0.5842
  672MOL0     H88663  -0.716   4.159  -0.136  1.0164 -1.0260 -2.1744
  672MOL0     H88664  -0.939   4.343  -0.247  0.4886 -0.8375 -1.3642
  672MOL0     H88665  -0.880   4.361  -0.085  1.3791 -0.8411  0.9019
  672MOL0     H88666  -1.115   4.418  -0.089 -0.3842  0.4357 -3.4336
  672MOL0     H88667  -1.358   4.435  -0.070  3.8959  1.7316  1.9088
  672MOL0     H88668  -1.729   4.271  -0.374 -3.2628  0.7799 -2.3673
  672MOL0     H88669  -1.965   4.290  -0.426  2.5466  2.3723  0.6224
  672MOL0     H88670  -2.272   4.213  -0.117  0.5631 -0.4186  0.3788
  672MOL0     H88671  -2.245   4.046  -0.174 -1.1433  0.5070  1.4780
  672MOL0     H88672  -2.408   4.093  -0.365  0.2608  1.0368 -0.1956
  672MOL0     H88673  -2.431   4.256  -0.299  2.9272  0.2800 -3.9323
  672MOL0     H88674  -2.526   4.122  -0.098  0.0114 -1.5975  0.5870
  672MOL0     H88675  -2.477   3.976  -0.193  1.2035  0.3595 -1.3558
  672MOL0     H88676  -2.674   4.200  -0.275 -2.4266  0.7056  1.9581
  672MOL0     H88677  -2.643   4.043  -0.365  1.0670 -1.3252  1.9613
  672MOL0     H88678  -2.755   3.993  -0.090 -0.7911 -2.2933 -0.8945
  672MOL0     H88679  -2.770   3.901  -0.231 -4.8101 -0.3871 -0.6563
  672MOL0     H88680  -2.947   3.987  -0.318 -1.6478 -1.1564  0.5380
  672MOL0     H88681  -2.918   4.155  -0.263  1.0810  1.2831  3.3291
  672MOL0     H88682  -3.011   3.912  -0.111  1.7857  0.2707  0.6848
  672MOL0     H88683  -2.983   4.076  -0.035  0.5664  0.8010  0.9909
  672MOL0     H88684  -3.187   4.067  -0.266  2.1487 -1.3586 -1.1024
  672MOL0     H88685  -3.161   4.182  -0.133 -0.4461  0.0568 -2.1085
  672MOL0     H88686  -2.062   4.055  -0.084  0.1886  0.5572  0.5468
  672MOL0     H88687  -1.815   4.029  -0.029  4.2460  0.1623 -1.1356
  672MOL0     H88688  -1.386   4.002  -0.144 -1.5746  1.1377 -2.0205
  672MOL0     H88689  -1.150   3.999  -0.148  2.4267  2.0012 -0.2051
  672MOL0     H88690   0.724   4.083   0.367 -1.5370 -0.1171  1.6046
  672MOL0     H88691   0.898   3.922   0.306  1.3492 -3.4017 -1.0785
  672MOL0     H88692   1.083   3.581   0.331  0.7644 -2.2253  0.3829
  672MOL0     H88693   1.313   3.526   0.314  0.4546 -0.9900  0.5180
  672MOL0     H88694   1.536   3.419   0.247  0.4309  0.4748  0.8728
  672MOL0     H88695   1.514   3.600   0.233 -0.4247  1.3048 -1.0665
  672MOL0     H88696   1.742   3.507   0.242  1.9709 -0.9384 -2.5183
  672MOL0     H88697   1.724   3.419   0.096  0.2422 -1.0168  0.4109
  672MOL0     H88698   1.855   3.639   0.076  0.0100  0.4300 -0.7593
  672MOL0     H88699   1.722   3.729   0.156 -1.8937 -0.0605  0.1734
  672MOL0     H88700   1.565   3.710  -0.024 -0.3912  0.5576 -2.0710
  672MOL0     H88701   1.718   3.789  -0.072  1.0328  0.9305  3.5712
  672MOL0     H88702   1.727   3.427  -0.303  0.9290 -1.2887  0.5052
  672MOL0     H88703   1.286   3.508  -0.115  0.6367  2.8585  0.3133
  672MOL0     H88704   1.042   3.595  -0.089  1.7880 -0.2243 -0.9900
  673MOL0     O88705   5.806   1.398   2.334  0.1464  0.5330  0.3602
  673MOL0     C88706   5.822   1.498   2.397  1.4404 -0.2274  0.5649
  673MOL0     O88707   5.730   1.545   2.492 -0.1880  0.4271  0.8655
  673MOL0     C88708   5.622   1.469   2.527 -0.4689  0.3072 -0.2669
  673MOL0     C88709   5.636   1.362   2.622 -0.1179 -0.4407 -0.6341
  673MOL0     C88710   5.538   1.262   2.638  0.4788 -0.6617  0.4665
  673MOL0     C88711   5.421   1.275   2.554  0.1281 -0.3745 -0.4239
  673MOL0     O88712   5.327   1.177   2.575 -0.2533  0.4773 -0.0103
  673MOL0     C88713   5.207   1.171   2.493  0.1538  0.5228 -1.0269
  673MOL0     C88714   5.095   1.227   2.580  0.6480 -0.2815  0.3686
  673MOL0     C88715   4.970   1.246   2.488 -0.0819 -0.2430 -0.5772
  673MOL0     C88716   4.854   1.322   2.565 -0.5403 -0.6149 -0.2781
  673MOL0     C88717   4.764   1.216   2.632 -0.9940  0.6766  0.0997
  673MOL0     C88718   4.643   1.275   2.681  0.1162  0.2385 -0.6489
  673MOL0     C88719   4.558   1.175   2.752 -0.2184  0.6505  0.0566
  673MOL0     C88720   4.426   1.221   2.809 -0.3637  0.1927  0.0421
  673MOL0     N88721   4.377   1.119   2.912 -0.6725 -0.7024 -0.6391
  673MOL0     C88722   4.425   1.111   3.039 -0.8566 -0.2379 -0.1119
  673MOL0     C88723   4.339   1.022   3.098  0.1680  0.2159 -0.1033
  673MOL0     C88724   4.373   0.967   3.232 -0.8319  0.0583  0.0980
  673MOL0     C88725   4.274   1.015   3.336  0.6958 -0.2032 -0.0783
  673MOL0     C88726   4.203   0.900   3.409  0.1115 -0.1990 -0.3461
  673MOL0     C88727   4.083   0.860   3.316  0.1934  0.5890  0.8806
  673MOL0     O88728   3.999   0.747   3.365 -0.1481 -0.3254 -0.0053
  673MOL0     C88729   3.906   0.794   3.456 -0.4011 -0.5478  1.1773
  673MOL0     C88730   3.775   0.765   3.424 -0.6377 -0.6829 -0.1860
  673MOL0     C88731   3.665   0.790   3.503  0.3890  0.2130  0.0393
  673MOL0     C88732   3.680   0.858   3.620 -0.5019 -0.2213 -0.6525
  673MOL0     C88733   3.567   0.909   3.705  0.6307 -0.0952  0.3140
  673MOL0     O88734   3.439   0.875   3.649  0.7394 -0.9668 -0.2343
  673MOL0     C88735   3.317   0.925   3.690  0.3067  0.2235 -0.5595
  673MOL0     C88736   3.202   0.853   3.648 -0.0244 -0.1742  0.0440
  673MOL0     C88737   3.077   0.892   3.691 -0.3663  0.1478 -0.6691
  673MOL0     C88738   3.067   0.990   3.782 -0.2656 -0.5484 -1.0322
  673MOL0     O88739   2.947   1.025   3.844 -0.4084 -0.0077  0.0188
  673MOL0     C88740   2.818   0.969   3.810  0.5422 -0.2190 -0.2275
  673MOL0     C88741   2.701   1.038   3.896 -0.4320 -0.2499  0.5275
  673MOL0     C88742   2.706   0.990   4.039 -0.5381  0.2611  0.0290
  673MOL0     C88743   2.600   1.059   4.129 -0.2431  0.0718 -0.1111
  673MOL0     C88744   2.446   1.017   4.109 -0.6122  0.0957 -0.6754
  673MOL0     C88745   2.404   0.876   4.132 -0.1887  0.7411 -0.1180
  673MOL0     C88746   2.396   0.847   4.278 -0.5661 -0.2158 -0.8357
  673MOL0     C88747   2.364   0.711   4.331  0.0032 -0.6799 -0.0031
  673MOL0    Cl88748   2.487   0.597   4.263  0.2052 -0.2792  0.1081
  673MOL0     C88749   3.177   1.064   3.821  0.0795  0.0480 -0.0430
  673MOL0     C88750   3.305   1.031   3.791 -0.0280  0.6129 -0.7855
  673MOL0     O88751   3.588   0.974   3.808  0.1664 -0.5330 -0.2820
  673MOL0     C88752   3.821   0.897   3.654 -1.2077  0.2802  0.0711
  673MOL0     C88753   3.928   0.847   3.581  0.9318 -0.1766  0.1745
  673MOL0     N88754   4.224   1.003   3.021  0.0578 -0.1575 -0.5323
  673MOL0     N88755   4.246   1.073   2.908  0.3301 -0.1419 -0.3569
  673MOL0     C88756   5.406   1.387   2.469  0.0512  1.0030  0.3163
  673MOL0     C88757   5.511   1.483   2.450  0.2362  0.9682  0.4274
  673MOL0     C88758   5.929   1.593   2.348 -0.9485  1.0075 -0.1712
  673MOL0     C88759   6.039   1.552   2.263  0.0632  0.2447  0.6375
  673MOL0     C88760   6.140   1.639   2.235 -1.0001 -0.4704  0.0661
  673MOL0     C88761   6.141   1.776   2.273 -0.0083  0.4396 -0.1446
  673MOL0     O88762   6.245   1.863   2.232 -0.1912  0.9086  0.5701
  673MOL0     C88763   6.218   2.005   2.241  0.0908  0.2056 -0.8546
  673MOL0     C88764   6.337   2.082   2.191  0.0711  0.2922  0.1369
  673MOL0     C88765   6.444   2.083   2.310  0.0862  0.2439  0.4160
  673MOL0     C88766   6.579   2.106   2.249  0.0153 -0.5135 -0.3537
  673MOL0     C88767   6.588   2.244   2.213  0.0326 -0.1568  0.3241
  673MOL0     C88768   6.596   2.363   2.193 -0.2402  0.2257 -0.6744
  673MOL0     C88769   6.028   1.818   2.348  0.1277  0.7851  0.7119
  673MOL0     C88770   5.935   1.721   2.391 -0.3973  0.2038 -0.1282
  673MOL0     H88771   5.736   1.357   2.663 -0.7282  0.0904  1.0099
  673MOL0     H88772   5.562   1.181   2.705 -1.0971  0.1878  2.1471
  673MOL0     H88773   5.200   1.065   2.467 -1.0156 -0.0003  1.1895
  673MOL0     H88774   5.211   1.230   2.401 -5.0383  0.8042 -1.3495
  673MOL0     H88775   5.130   1.319   2.629 -1.6343  0.6162  0.4256
  673MOL0     H88776   5.072   1.156   2.660 -0.1052 -1.3496 -0.7590
  673MOL0     H88777   4.920   1.152   2.465 -0.1593 -0.3490  0.0045
  673MOL0     H88778   5.005   1.293   2.396  1.4078 -0.0098  0.0674
  673MOL0     H88779   4.892   1.382   2.648 -0.1523 -0.4260 -0.5896
  673MOL0     H88780   4.804   1.380   2.487 -1.0774 -0.2768  0.3068
  673MOL0     H88781   4.815   1.174   2.719 -0.0604 -1.8122 -1.5192
  673MOL0     H88782   4.740   1.127   2.573 -1.8873  0.5565  0.6310
  673MOL0     H88783   4.585   1.317   2.598 -2.4254 -3.2340 -0.8410
  673MOL0     H88784   4.665   1.360   2.746  2.8173 -1.0122  0.2301
  673MOL0     H88785   4.539   1.088   2.688 -2.3990 -0.8949  2.5526
  673MOL0     H88786   4.620   1.129   2.829 -0.4630 -1.5273 -0.9820
  673MOL0     H88787   4.358   1.233   2.725  1.0038 -3.2263 -1.7655
  673MOL0     H88788   4.441   1.322   2.849 -1.6357  0.8116 -1.0143
  673MOL0     H88789   4.518   1.142   3.084 -0.5568 -1.6791  0.3340
  673MOL0     H88790   4.474   0.998   3.262 -0.8787  0.0741  0.2394
  673MOL0     H88791   4.376   0.859   3.218  1.2845 -0.4127  3.1917
  673MOL0     H88792   4.202   1.086   3.293 -1.5178 -2.0579  0.3676
  673MOL0     H88793   4.328   1.059   3.421 -1.1224 -0.0809  1.0808
  673MOL0     H88794   4.268   0.814   3.430 -0.7593 -1.3888 -2.2422
  673MOL0     H88795   4.170   0.953   3.498  1.9807  1.5117 -0.5870
  673MOL0     H88796   4.114   0.825   3.218  1.2996  1.2494  0.9843
  673MOL0     H88797   4.035   0.957   3.302 -2.4083 -0.6072  0.8329
  673MOL0     H88798   3.762   0.722   3.325  2.6139 -1.3337 -0.4388
  673MOL0     H88799   3.565   0.766   3.467  0.2065 -0.7135  1.1197
  673MOL0     H88800   3.215   0.764   3.587  2.8674 -0.2687  0.6502
  673MOL0     H88801   2.996   0.829   3.657  1.6702 -2.6835 -0.6635
  673MOL0     H88802   2.817   0.860   3.821 -1.0571 -0.1922  0.1584
  673MOL0     H88803   2.798   0.982   3.703 -0.2169 -1.5084 -0.2582
  673MOL0     H88804   2.610   1.016   3.839  2.5538 -1.6105 -4.2513
  673MOL0     H88805   2.724   1.145   3.895  2.1536 -0.7035  1.9995
  673MOL0     H88806   2.804   1.012   4.082 -0.3470 -1.1511  0.3475
  673MOL0     H88807   2.708   0.881   4.043  3.1103  0.2490  0.8263
  673MOL0     H88808   2.623   1.032   4.232  0.1979  0.9337  0.0290
  673MOL0     H88809   2.607   1.165   4.101  1.8580 -0.5302 -2.2130
  673MOL0     H88810   2.439   1.048   4.004  0.7873  3.9970  0.1953
  673MOL0     H88811   2.377   1.083   4.162 -0.2715  0.4412 -0.6573
  673MOL0     H88812   2.482   0.815   4.086  0.0936  0.9837  0.0360
  673MOL0     H88813   2.310   0.850   4.081 -1.6411  0.0736  2.6863
  673MOL0     H88814   2.496   0.867   4.318 -0.5393 -0.0604 -0.9826
  673MOL0     H88815   2.319   0.907   4.326 -1.3311 -1.7321 -0.0689
  673MOL0     H88816   2.263   0.687   4.294 -0.2054  1.7998 -1.2565
  673MOL0     H88817   2.357   0.710   4.440  2.4624 -2.3064  0.1962
  673MOL0     H88818   3.176   1.151   3.885  0.4711  1.6968 -2.1608
  673MOL0     H88819   3.389   1.093   3.822 -0.6840  1.9066 -1.4683
  673MOL0     H88820   3.845   0.949   3.747  3.0584  0.8679 -1.1464
  673MOL0     H88821   4.028   0.861   3.622  0.3421  0.4382  1.4697
  673MOL0     H88822   5.320   1.406   2.406 -0.1597  0.4800  0.4449
  673MOL0     H88823   5.484   1.556   2.374 -0.7941  1.0186  0.8229
  673MOL0     H88824   6.046   1.456   2.212  2.1379  0.6334  0.0719
  673MOL0     H88825   6.229   1.608   2.181 -1.1169 -0.3293 -0.2126
  673MOL0     H88826   6.185   2.028   2.343 -2.1312 -1.1133 -1.2156
  673MOL0     H88827   6.131   2.030   2.180 -1.4602  0.8755  1.4708
  673MOL0     H88828   6.369   2.038   2.096  3.2006  0.4282  1.0149
  673MOL0     H88829   6.314   2.188   2.174  2.7030  0.8116 -0.7118
  673MOL0     H88830   6.446   1.980   2.348 -1.7522 -0.4406 -1.1494
  673MOL0     H88831   6.416   2.152   2.390 -0.4230  1.0146 -0.4098
  673MOL0     H88832   6.652   2.080   2.326  1.5006  0.5422 -1.3560
  673MOL0     H88833   6.609   2.039   2.168  4.0930  0.8834 -0.2572
  673MOL0     H88834   6.596   2.470   2.182  1.2924  0.2187 -0.9096
  673MOL0     H88835   6.013   1.921   2.380  0.4040  1.1249 -0.2282
  673MOL0     H88836   5.854   1.756   2.455 -1.1395 -1.1452 -0.2896
  674MOL0     O88837   8.933   6.807   0.899  0.1392 -0.4046 -0.5486
  674MOL0     C88838   8.955   6.734   0.801  0.0718 -0.2441 -0.4818
  674MOL0     O88839   8.870   6.667   0.726  0.2674  0.5692  0.4058
  674MOL0     C88840   8.738   6.697   0.744 -0.1762  0.1044  0.1291
  674MOL0     C88841   8.691   6.816   0.696 -0.6027  0.0669 -0.0523
  674MOL0     C88842   8.558   6.855   0.716 -1.1942  0.4225  0.0948
  674MOL0     C88843   8.465   6.764   0.766 -0.2953  0.0826  0.4003
  674MOL0     O88844   8.330   6.788   0.767 -0.2271  0.1739 -0.6845
  674MOL0     C88845   8.288   6.917   0.802 -0.5471  0.1622  0.3605
  674MOL0     C88846   8.146   6.907   0.859 -0.3337 -0.2192  0.2537
  674MOL0     C88847   8.126   7.029   0.939  0.1353  0.5297 -0.7552
  674MOL0     C88848   7.984   7.062   0.979 -0.0564 -0.5223 -0.5407
  674MOL0     C88849   7.981   7.164   1.104 -0.1899  0.3746 -0.3623
  674MOL0     C88850   7.827   7.165   1.142 -0.2262 -0.4558 -0.9030
  674MOL0     C88851   7.786   7.268   1.251 -0.4786  0.6506 -0.7463
  674MOL0     C88852   7.804   7.414   1.215 -0.6866 -0.2842 -0.5673
  674MOL0     N88853   7.686   7.468   1.145 -0.0407 -0.0420 -0.0267
  674MOL0     C88854   7.558   7.482   1.205  0.7117 -0.4109  0.4932
  674MOL0     C88855   7.481   7.531   1.107  0.1464  0.2987 -0.2462
  674MOL0     C88856   7.337   7.575   1.128 -0.7214  0.2628  0.4653
  674MOL0     C88857   7.231   7.482   1.068  0.2876 -0.7381  0.0330
  674MOL0     C88858   7.096   7.532   1.120  0.3739  0.5621  0.1973
  674MOL0     C88859   6.967   7.478   1.048 -0.2928 -0.2695 -0.1363
  674MOL0     O88860   6.857   7.569   1.084 -0.5975 -0.0020  0.5925
  674MOL0     C88861   6.732   7.546   1.036  0.6633 -0.3790  0.2997
  674MOL0     C88862   6.632   7.627   1.094 -0.2026  0.6559  0.0930
  674MOL0     C88863   6.498   7.620   1.048 -0.4593 -0.1635 -0.1641
  674MOL0     C88864   6.474   7.541   0.934  0.3615  1.1732 -0.4696
  674MOL0     C88865   6.340   7.532   0.874 -0.5604 -0.4576  0.4222
  674MOL0     O88866   6.245   7.612   0.929 -0.9651  0.4101 -0.5450
  674MOL0     C88867   6.119   7.585   0.881  0.0818  0.3208 -0.1682
  674MOL0     C88868   6.042   7.480   0.938  0.5360  0.4468  0.3405
  674MOL0     C88869   5.912   7.459   0.889  0.8522 -0.2232 -0.0933
  674MOL0     C88870   5.857   7.531   0.793 -0.0701 -0.0926  0.6614
  674MOL0     O88871   5.731   7.512   0.739 -0.3825  0.0606  0.6375
  674MOL0     C88872   5.650   7.408   0.799 -0.3675  0.0991  0.6237
  674MOL0     C88873   5.678   7.266   0.736  0.3474  0.6430  0.1785
  674MOL0     C88874   5.566   7.164   0.774  0.2478  0.2413  0.5802
  674MOL0     C88875   5.614   7.015   0.785 -1.0797 -0.6022  1.1649
  674MOL0     C88876   5.719   6.988   0.896 -0.2674 -0.4775  0.3731
  674MOL0     C88877   5.751   6.842   0.906 -0.3084 -0.5654  0.3112
  674MOL0     C88878   5.649   6.745   0.952  0.5665 -0.1418 -0.3985
  674MOL0     C88879   5.677   6.597   0.923  0.2566 -0.0419 -0.2006
  674MOL0    Cl88880   5.788   6.526   1.044 -0.2259 -0.3234 -0.1142
  674MOL0     C88881   5.929   7.638   0.744  0.1714 -1.2531 -0.4983
  674MOL0     C88882   6.060   7.662   0.786 -2.0136 -0.8461 -0.4228
  674MOL0     O88883   6.332   7.466   0.763  0.7840  0.1304  0.0586
  674MOL0     C88884   6.580   7.462   0.880  0.1601  0.1995  0.2218
  674MOL0     C88885   6.707   7.469   0.920 -0.3717  1.1110 -0.5316
  674MOL0     N88886   7.551   7.538   0.985  0.2706  0.4382 -0.0374
  674MOL0     N88887   7.673   7.525   1.016  0.5700  1.1826 -0.8828
  674MOL0     C88888   8.506   6.632   0.808 -0.1898 -0.7251 -0.2128
  674MOL0     C88889   8.644   6.593   0.792  0.0223 -0.2135  0.0618
  674MOL0     C88890   9.094   6.716   0.763 -0.5404 -0.6829  0.3150
  674MOL0     C88891   9.197   6.761   0.851  0.8546 -0.4994  0.7109
  674MOL0     C88892   9.333   6.747   0.808 -0.0128  0.1880  0.3284
  674MOL0     C88893   9.366   6.698   0.678 -0.5577 -1.0047 -0.0190
  674MOL0     O88894   9.504   6.683   0.653  0.2074  0.1135 -0.5598
  674MOL0     C88895   9.534   6.614   0.528  0.5683 -0.0070 -0.3572
  674MOL0     C88896   9.680   6.565   0.542  0.9461 -0.2093  0.7112
  674MOL0     C88897   9.726   6.494   0.410  0.3654 -0.2054 -0.1780
  674MOL0     C88898   9.866   6.438   0.442  0.3072 -0.1622  0.3075
  674MOL0     C88899   9.973   6.538   0.456 -0.0559  0.2511  0.2641
  674MOL0     C88900  10.071   6.611   0.465 -0.4323  0.2307  0.3232
  674MOL0     C88901   9.261   6.655   0.596 -0.3376 -0.4459  0.7164
  674MOL0     C88902   9.133   6.665   0.636  0.6856 -0.7626 -0.6078
  674MOL0     H88903   8.767   6.881   0.653  2.7539 -0.7949  3.8705
  674MOL0     H88904   8.527   6.949   0.673 -0.8686  0.5464  0.1280
  674MOL0     H88905   8.298   6.973   0.708  4.1303 -3.9689 -2.0368
  674MOL0     H88906   8.350   6.961   0.880  1.0583  0.3496 -0.9755
  674MOL0     H88907   8.132   6.819   0.924  0.0561  0.3603  1.1430
  674MOL0     H88908   8.075   6.897   0.776 -0.3858 -0.5058  0.3297
  674MOL0     H88909   8.171   7.119   0.897 -0.4844  1.9526  1.4648
  674MOL0     H88910   8.182   7.007   1.031  2.0789 -1.0515 -2.2219
  674MOL0     H88911   7.936   7.113   0.896 -1.5769 -0.7471  0.1547
  674MOL0     H88912   7.930   6.969   1.002 -1.1570  0.4874  1.2076
  674MOL0     H88913   8.027   7.254   1.062  2.8847 -0.8715  0.0740
  674MOL0     H88914   8.047   7.129   1.184  0.6646  2.9565  0.1424
  674MOL0     H88915   7.803   7.063   1.173  1.9128 -0.7267  0.0893
  674MOL0     H88916   7.770   7.180   1.050  0.2688 -1.4175 -1.3787
  674MOL0     H88917   7.684   7.243   1.280 -0.5020  1.1471 -0.3931
  674MOL0     H88918   7.844   7.256   1.343 -2.4732  1.8501  0.7658
  674MOL0     H88919   7.889   7.432   1.148 -0.8196  1.0381 -0.4056
  674MOL0     H88920   7.820   7.473   1.305 -0.9615 -0.7940 -0.1818
  674MOL0     H88921   7.525   7.472   1.308  0.8060  1.4020  0.7253
  674MOL0     H88922   7.324   7.675   1.084 -1.5302  0.2815  0.7367
  674MOL0     H88923   7.305   7.581   1.232 -2.3939 -1.6079  0.1239
  674MOL0     H88924   7.236   7.375   1.090  0.0462 -0.9834 -1.0370
  674MOL0     H88925   7.248   7.497   0.961 -0.2082  0.2973  0.0897
  674MOL0     H88926   7.084   7.525   1.229 -0.0166 -1.0749  0.0859
  674MOL0     H88927   7.091   7.638   1.094 -0.1055  0.9209  1.6244
  674MOL0     H88928   6.944   7.377   1.084 -1.0970  0.2916  0.9706
  674MOL0     H88929   6.974   7.477   0.939  0.2940  0.0179 -0.1082
  674MOL0     H88930   6.652   7.703   1.169 -3.1671  2.4090 -0.7313
  674MOL0     H88931   6.425   7.685   1.096  1.2980  0.7631  1.4213
  674MOL0     H88932   6.081   7.408   1.009  1.0454  1.6655  1.3473
  674MOL0     H88933   5.865   7.375   0.938 -0.6648  2.0964  2.7302
  674MOL0     H88934   5.549   7.422   0.761 -0.5846 -1.9789  0.3166
  674MOL0     H88935   5.656   7.399   0.908  0.9552 -0.4747  0.5333
  674MOL0     H88936   5.771   7.229   0.781 -0.4092 -2.1060 -0.3178
  674MOL0     H88937   5.686   7.270   0.627 -1.3656 -0.1105 -0.0123
  674MOL0     H88938   5.499   7.181   0.689  0.4451  0.0545  0.3829
  674MOL0     H88939   5.517   7.204   0.863 -2.0096 -1.4913  0.2158
  674MOL0     H88940   5.522   6.958   0.802 -1.1052 -0.6271  0.9496
  674MOL0     H88941   5.657   6.977   0.692 -0.7369  2.1922  0.0770
  674MOL0     H88942   5.690   7.022   0.995 -2.2645 -1.3999  0.1658
  674MOL0     H88943   5.814   7.038   0.877  0.3606 -1.5138  0.6968
  674MOL0     H88944   5.833   6.842   0.978 -0.9787 -1.8506  1.1108
  674MOL0     H88945   5.780   6.803   0.808  0.6734  1.5464 -0.3046
  674MOL0     H88946   5.622   6.754   1.058  2.0407 -2.0216  0.1895
  674MOL0     H88947   5.553   6.752   0.900 -0.4722 -0.4378  1.3799
  674MOL0     H88948   5.717   6.581   0.823  1.4996  0.0637  0.2656
  674MOL0     H88949   5.586   6.537   0.922 -0.9366  1.6856  0.1838
  674MOL0     H88950   5.884   7.695   0.663  2.8140 -0.8352 -1.7881
  674MOL0     H88951   6.129   7.735   0.744 -0.6129  0.2850  3.3325
  674MOL0     H88952   6.568   7.390   0.800 -1.7217  0.1189  0.5402
  674MOL0     H88953   6.780   7.396   0.887 -1.6524 -2.0976  2.9550
  674MOL0     H88954   8.428   6.565   0.839 -0.9383 -0.7904 -2.0893
  674MOL0     H88955   8.694   6.499   0.815  1.9958  1.0947  1.4998
  674MOL0     H88956   9.171   6.812   0.943 -1.5121 -1.0241  0.4044
  674MOL0     H88957   9.402   6.778   0.886  1.9587  0.9838 -1.6187
  674MOL0     H88958   9.513   6.676   0.441  1.8367  0.0096 -0.6687
  674MOL0     H88959   9.469   6.525   0.527  0.1345  0.3066 -0.5180
  674MOL0     H88960   9.746   6.649   0.566  1.3337 -1.0217  2.6836
  674MOL0     H88961   9.674   6.490   0.621 -2.7988 -0.2989  0.5088
  674MOL0     H88962   9.725   6.570   0.331  0.3559  1.7512  1.6151
  674MOL0     H88963   9.664   6.409   0.381 -0.1702  0.6353 -1.6065
  674MOL0     H88964   9.856   6.378   0.534  3.9664 -0.9657  0.3296
  674MOL0     H88965   9.893   6.374   0.358 -3.3280  1.3248 -2.2384
  674MOL0     H88966  10.159   6.668   0.487  0.1562 -0.4130 -0.3081
  674MOL0     H88967   9.288   6.615   0.499  2.1122  1.3832  0.5489
  674MOL0     H88968   9.057   6.635   0.565 -0.6514  0.7759  0.0924
  675MOL0     O88969   4.362   1.663   2.381 -0.7294  0.3216  0.3661
  675MOL0     C88970   4.313   1.774   2.382 -0.3765 -0.1429 -0.7015
  675MOL0     O88971   4.365   1.896   2.337  0.3257  0.3430 -0.4324
  675MOL0     C88972   4.482   1.897   2.265  0.6310  0.0734  0.9995
  675MOL0     C88973   4.544   1.785   2.198  0.0885 -0.2327 -0.4399
  675MOL0     C88974   4.655   1.804   2.127 -0.3247 -0.2256  0.9834
  675MOL0     C88975   4.728   1.927   2.125 -0.1874 -0.4087 -0.2133
  675MOL0     O88976   4.842   1.927   2.051  0.0782 -0.3683  0.0184
  675MOL0     C88977   4.941   2.021   2.099 -0.2755 -0.0256 -0.1019
  675MOL0     C88978   5.083   1.999   2.035 -0.2263 -0.2089 -0.7192
  675MOL0     C88979   5.191   2.030   2.145 -0.4198  0.1369  0.9464
  675MOL0     C88980   5.322   2.040   2.070  0.3009  0.1676 -0.4777
  675MOL0     C88981   5.444   2.033   2.166  0.6092  0.6142  0.6686
  675MOL0     C88982   5.444   2.132   2.282 -0.2245  0.1173 -0.1978
  675MOL0     C88983   5.584   2.143   2.349 -0.0431 -0.0428  0.2212
  675MOL0     C88984   5.631   2.018   2.414  1.1595  0.7839  0.5331
  675MOL0     N88985   5.522   1.953   2.498  0.9211 -0.6525  0.2012
  675MOL0     C88986   5.450   1.845   2.463 -0.3412 -0.2369  0.4721
  675MOL0     C88987   5.326   1.856   2.511  0.7940  0.3431 -0.4432
  675MOL0     C88988   5.205   1.773   2.479 -0.5848 -0.1350 -0.1130
  675MOL0     C88989   5.075   1.852   2.471  0.1947  0.3182 -0.5428
  675MOL0     C88990   4.961   1.778   2.403  0.5847 -0.6648 -0.8187
  675MOL0     C88991   4.920   1.654   2.476 -0.1785 -0.1976  0.3409
  675MOL0     O88992   4.889   1.683   2.613  0.1852 -0.3541 -0.3500
  675MOL0     C88993   4.759   1.676   2.667 -0.3531 -0.5364 -0.0922
  675MOL0     C88994   4.643   1.620   2.606  0.2683 -0.8898  0.5231
  675MOL0     C88995   4.524   1.601   2.684 -0.2413  0.5642 -0.2065
  675MOL0     C88996   4.519   1.644   2.819 -0.5748 -0.0675 -0.3119
  675MOL0     C88997   4.394   1.625   2.884  0.6363 -0.1325 -0.3134
  675MOL0     O88998   4.314   1.531   2.832  0.2310 -0.0935 -0.5579
  675MOL0     C88999   4.187   1.518   2.885  0.5620  0.1534  0.3793
  675MOL0     C89000   4.149   1.394   2.931  1.0194  0.3139  0.5861
  675MOL0     C89001   4.018   1.384   2.985  0.2929 -0.5791  0.2492
  675MOL0     C89002   3.924   1.485   2.987  0.9014 -0.6341 -0.5733
  675MOL0     O89003   3.798   1.445   3.041 -0.1201 -0.8111  0.8379
  675MOL0     C89004   3.706   1.551   3.074 -0.3298 -0.0141 -0.1358
  675MOL0     C89005   3.583   1.478   3.123 -0.0918  0.0544 -0.1159
  675MOL0     C89006   3.465   1.578   3.144 -0.5960 -0.4571  0.0637
  675MOL0     C89007   3.342   1.521   3.210  0.1378  0.0370 -0.4539
  675MOL0     C89008   3.225   1.624   3.211  1.1240 -0.4484  0.4911
  675MOL0     C89009   3.125   1.580   3.321  0.5287 -0.3373 -0.7675
  675MOL0     C89010   3.006   1.677   3.331  0.0646 -0.4382  1.1774
  675MOL0     C89011   2.899   1.602   3.409 -0.7757 -0.0816  0.1603
  675MOL0    Cl89012   2.764   1.723   3.435  0.3589  0.3942  0.2360
  675MOL0     C89013   3.963   1.607   2.920  0.7314  0.7366 -0.9442
  675MOL0     C89014   4.098   1.616   2.873 -0.0844 -0.3838  0.9004
  675MOL0     O89015   4.361   1.693   2.976 -0.9731 -0.3434 -0.3593
  675MOL0     C89016   4.638   1.702   2.873  0.1045  0.3953  0.4624
  675MOL0     C89017   4.758   1.719   2.804  0.7622  0.6073  0.2265
  675MOL0     N89018   5.322   1.966   2.595 -0.0142  0.0708  0.3930
  675MOL0     N89019   5.440   2.022   2.585 -0.5002 -0.7633 -0.5950
  675MOL0     C89020   4.671   2.039   2.180 -0.8149 -0.5043  0.7148
  675MOL0     C89021   4.545   2.025   2.244 -0.2568  0.1866 -0.5450
  675MOL0     C89022   4.183   1.782   2.460  0.0354 -1.1459  0.1401
  675MOL0     C89023   4.128   1.660   2.502  0.2474  0.4213 -0.2343
  675MOL0     C89024   3.999   1.662   2.561 -0.3130 -0.7272 -0.0406
  675MOL0     C89025   3.917   1.776   2.556  0.1549  0.4202 -0.0916
  675MOL0     O89026   3.792   1.782   2.597  0.2662  0.9170  0.4297
  675MOL0     C89027   3.713   1.655   2.601 -0.5323 -0.2284  0.3571
  675MOL0     C89028   3.559   1.696   2.591 -0.7525  0.6336  0.8987
  675MOL0     C89029   3.526   1.790   2.709 -0.5591  0.0830  0.0985
  675MOL0     C89030   3.386   1.835   2.709  0.2620  0.2081 -0.1009
  675MOL0     C89031   3.296   1.729   2.746  0.6753 -0.2348 -0.7232
  675MOL0     C89032   3.214   1.638   2.760 -0.4875 -0.0431  0.0043
  675MOL0     C89033   3.967   1.893   2.511  0.4406 -0.5118 -0.0883
  675MOL0     C89034   4.102   1.899   2.470 -1.1373  0.0621  1.2611
  675MOL0     H89035   4.492   1.691   2.185 -1.5806  0.6727 -0.6976
  675MOL0     H89036   4.700   1.728   2.063  0.7777  3.4517 -3.1383
  675MOL0     H89037   4.953   2.015   2.208  1.1985  2.9689 -0.0015
  675MOL0     H89038   4.923   2.125   2.068 -0.5539 -0.9991 -3.6442
  675MOL0     H89039   5.088   2.076   1.958  0.2746  3.1234  2.3824
  675MOL0     H89040   5.084   1.897   1.995 -0.8801 -0.8703  0.8657
  675MOL0     H89041   5.206   1.942   2.209 -0.6466 -0.9801 -0.5004
  675MOL0     H89042   5.177   2.125   2.198 -0.0919  2.6516 -3.1068
  675MOL0     H89043   5.332   1.946   2.014 -0.0625 -1.0608  1.4396
  675MOL0     H89044   5.338   2.128   2.007  2.4072  0.8025  0.8416
  675MOL0     H89045   5.532   2.059   2.107  1.1429 -0.3095  1.0520
  675MOL0     H89046   5.457   1.929   2.196  1.7471  0.5930  0.1359
  675MOL0     H89047   5.367   2.096   2.351  0.5113 -2.6785 -0.7109
  675MOL0     H89048   5.420   2.230   2.240  1.3581  0.4284 -0.4291
  675MOL0     H89049   5.651   2.177   2.270  0.8924  0.8725  1.3642
  675MOL0     H89050   5.575   2.222   2.425  0.2941  0.8347 -0.6305
  675MOL0     H89051   5.716   2.050   2.476  2.0396  3.5254 -1.8854
  675MOL0     H89052   5.671   1.947   2.341  0.5537  1.3545 -0.3714
  675MOL0     H89053   5.490   1.761   2.407  1.0780  0.5483  0.2472
  675MOL0     H89054   5.201   1.695   2.556 -0.0820  0.6661  0.7500
  675MOL0     H89055   5.223   1.717   2.387  3.0420  0.7109 -0.0806
  675MOL0     H89056   5.087   1.946   2.416  2.2293  0.5569  0.2114
  675MOL0     H89057   5.058   1.877   2.576  2.7023  1.8271 -0.4256
  675MOL0     H89058   4.873   1.842   2.408  1.2352  0.2842 -1.1598
  675MOL0     H89059   4.983   1.762   2.297  0.4562 -2.1595 -0.6335
  675MOL0     H89060   5.004   1.584   2.463  0.0285  0.2589 -0.9276
  675MOL0     H89061   4.838   1.616   2.415 -1.8263  0.2055  2.2231
  675MOL0     H89062   4.636   1.598   2.501 -1.0799  1.6785 -0.0017
  675MOL0     H89063   4.447   1.541   2.635  0.0628  0.6495 -0.8060
  675MOL0     H89064   4.220   1.313   2.940  3.5037  2.2229 -0.7988
  675MOL0     H89065   3.990   1.286   3.023 -0.2810 -0.2531  0.6860
  675MOL0     H89066   3.672   1.616   2.992  1.5887 -0.0241 -1.0098
  675MOL0     H89067   3.753   1.615   3.149  1.2509 -2.8607  1.4340
  675MOL0     H89068   3.599   1.427   3.219 -2.7499  1.0538  0.9596
  675MOL0     H89069   3.559   1.404   3.045 -1.2791 -0.4843  0.7240
  675MOL0     H89070   3.447   1.638   3.054  0.0671 -1.0801 -0.5012
  675MOL0     H89071   3.496   1.667   3.199 -3.3317  1.3003 -1.0024
  675MOL0     H89072   3.305   1.424   3.177 -2.4630  0.8736 -0.2468
  675MOL0     H89073   3.367   1.505   3.315 -0.8784  0.1366 -0.1848
  675MOL0     H89074   3.179   1.642   3.113  0.1751  3.1981  1.4316
  675MOL0     H89075   3.272   1.717   3.245  1.3064 -0.4982  0.3731
  675MOL0     H89076   3.183   1.587   3.414 -0.9559 -0.0413  0.1675
  675MOL0     H89077   3.094   1.480   3.290  1.7012 -0.0272 -3.1976
  675MOL0     H89078   3.038   1.769   3.379 -0.1618  0.3950 -0.2118
  675MOL0     H89079   2.959   1.694   3.233  0.3429  0.0013  1.1222
  675MOL0     H89080   2.937   1.565   3.504 -0.8723 -0.6577 -0.0218
  675MOL0     H89081   2.861   1.516   3.353  1.3993  0.3493 -2.1521
  675MOL0     H89082   3.897   1.692   2.907  0.0024  0.1712 -1.0279
  675MOL0     H89083   4.121   1.704   2.815 -0.8934 -0.7635 -0.0444
  675MOL0     H89084   4.625   1.750   2.970 -1.0191  0.4758  0.2900
  675MOL0     H89085   4.837   1.773   2.854 -0.1555  0.4158  1.9464
  675MOL0     H89086   4.701   2.139   2.150  0.1323 -0.5203  1.5208
  675MOL0     H89087   4.501   2.114   2.287 -2.4741 -1.2123  0.2741
  675MOL0     H89088   4.184   1.568   2.487  0.5109  0.3151  1.2517
  675MOL0     H89089   3.952   1.576   2.610  0.6658 -0.7297  0.9511
  675MOL0     H89090   3.742   1.616   2.699  1.2268  2.1389  0.8643
  675MOL0     H89091   3.731   1.582   2.521 -0.9531  0.1429 -0.0849
  675MOL0     H89092   3.549   1.760   2.502 -3.1356 -1.4390 -0.4601
  675MOL0     H89093   3.500   1.605   2.578  0.2523 -0.1125  1.4271
  675MOL0     H89094   3.588   1.879   2.696 -1.6477  0.7343 -0.8360
  675MOL0     H89095   3.562   1.747   2.802  1.7028  0.2125 -0.6585
  675MOL0     H89096   3.377   1.928   2.766  0.3278  0.9039 -1.2076
  675MOL0     H89097   3.355   1.874   2.612  2.9268  2.2010 -0.2554
  675MOL0     H89098   3.138   1.562   2.770 -0.4007 -0.1111  0.1420
  675MOL0     H89099   3.906   1.982   2.521  0.6323 -0.0577 -2.4608
  675MOL0     H89100   4.136   1.981   2.407  0.6364  0.0087  2.0971
  676MOL0     O89101   8.557   5.399   0.906 -0.1792  0.0412 -0.1340
  676MOL0     C89102   8.627   5.296   0.882 -0.8404 -0.6124 -0.0405
  676MOL0     O89103   8.592   5.171   0.838  0.2187 -0.2235 -0.5451
  676MOL0     C89104   8.456   5.136   0.819 -0.0952 -0.2272 -0.3289
  676MOL0     C89105   8.340   5.218   0.782 -0.1420  0.4488  0.3392
  676MOL0     C89106   8.213   5.165   0.769 -0.1821  1.0726 -0.2835
  676MOL0     C89107   8.205   5.020   0.776 -0.0194 -0.7145 -0.6511
  676MOL0     O89108   8.082   4.969   0.746  0.4770  0.0352  0.4368
  676MOL0     C89109   8.073   4.831   0.701  0.4327 -0.8505  0.3796
  676MOL0     C89110   7.923   4.802   0.685 -0.4413 -0.7830 -0.1265
  676MOL0     C89111   7.898   4.657   0.626 -0.5772  0.1093  0.6721
  676MOL0     C89112   7.775   4.590   0.692 -0.6971  0.2267 -0.9797
  676MOL0     C89113   7.724   4.463   0.639  0.6565 -0.0819  0.6751
  676MOL0     C89114   7.594   4.437   0.713  0.6388 -0.0619  0.3289
  676MOL0     C89115   7.541   4.310   0.643  0.3218 -0.0300  0.2575
  676MOL0     C89116   7.476   4.324   0.506  0.6849  0.2210 -0.1669
  676MOL0     N89117   7.388   4.210   0.475 -0.2674  0.8669  0.2424
  676MOL0     C89118   7.417   4.076   0.472 -0.9280 -1.0798 -0.8310
  676MOL0     C89119   7.304   4.011   0.447 -0.2237 -0.1944 -1.0921
  676MOL0     C89120   7.284   3.864   0.427 -0.5003  0.5216 -0.3155
  676MOL0     C89121   7.137   3.824   0.409  0.4676  0.4765 -0.3129
  676MOL0     C89122   7.119   3.682   0.362  0.5797  0.8018 -0.1440
  676MOL0     C89123   6.964   3.654   0.332  0.0704  0.0660  1.1371
  676MOL0     O89124   6.911   3.715   0.214 -0.1933 -0.6729 -0.2370
  676MOL0     C89125   6.786   3.770   0.223  0.0055  0.5416 -0.9002
  676MOL0     C89126   6.673   3.719   0.306 -0.6296  0.2488  0.7198
  676MOL0     C89127   6.542   3.779   0.292 -0.6003 -0.7974 -0.1424
  676MOL0     C89128   6.518   3.884   0.197 -1.1469  0.6534  0.9445
  676MOL0     C89129   6.377   3.920   0.169 -0.8524  0.5154 -0.0425
  676MOL0     O89130   6.359   4.026   0.089 -0.0756 -0.7780  0.5599
  676MOL0     C89131   6.241   4.084   0.078  0.6477 -0.0386 -0.2968
  676MOL0     C89132   6.176   4.140   0.194  0.8210 -0.3275 -0.4079
  676MOL0     C89133   6.045   4.193   0.188 -0.3296  0.0885 -0.2624
  676MOL0     C89134   5.967   4.181   0.065 -0.1261 -0.1785  0.0295
  676MOL0     O89135   5.839   4.213   0.047  0.4889 -0.3169  0.0493
  676MOL0     C89136   5.795   4.335   0.093  0.4442 -0.4267  0.6472
  676MOL0     C89137   5.781   4.444  -0.017  0.0925 -0.4691  0.4055
  676MOL0     C89138   5.686   4.410  -0.135  0.0622 -0.2186  0.2752
  676MOL0     C89139   5.669   4.544  -0.211  0.2073  1.1440 -0.1668
  676MOL0     C89140   5.563   4.542  -0.321 -0.2817  0.8205 -0.2136
  676MOL0     C89141   5.427   4.495  -0.264  0.2500 -0.4279  0.0771
  676MOL0     C89142   5.312   4.590  -0.295  1.3395 -0.6565  0.0826
  676MOL0     C89143   5.171   4.558  -0.232 -0.1052  0.2048 -0.3131
  676MOL0    Cl89144   5.111   4.411  -0.300 -0.3713 -0.1050 -0.0605
  676MOL0     C89145   6.024   4.121  -0.040  0.0017 -0.4486  0.0625
  676MOL0     C89146   6.164   4.086  -0.039  0.2647  0.2092 -0.8413
  676MOL0     O89147   6.289   3.848   0.201 -0.4679 -0.1964 -0.7334
  676MOL0     C89148   6.632   3.933   0.122 -0.1742  0.7326  0.4605
  676MOL0     C89149   6.760   3.876   0.129 -0.2333  0.0145 -0.2906
  676MOL0     N89150   7.198   4.104   0.448 -0.0031 -0.9480 -0.3411
  676MOL0     N89151   7.255   4.218   0.452 -0.1548 -0.9585 -0.3641
  676MOL0     C89152   8.319   4.944   0.814 -0.3603 -0.1269  0.3699
  676MOL0     C89153   8.438   5.001   0.848  0.8169  0.0855  1.3956
  676MOL0     C89154   8.778   5.325   0.900  0.9854 -0.7212 -0.3875
  676MOL0     C89155   8.822   5.445   0.953  0.0148  0.0688  0.3563
  676MOL0     C89156   8.955   5.484   0.985 -0.1240 -0.1651  0.9213
  676MOL0     C89157   9.050   5.381   0.953 -0.9750 -1.1704 -0.2523
  676MOL0     O89158   9.188   5.402   0.947 -0.0047 -0.1209  0.6088
  676MOL0     C89159   9.239   5.516   1.010  0.5754 -0.3662 -0.5552
  676MOL0     C89160   9.389   5.549   0.983 -0.3310  0.2334  0.4556
  676MOL0     C89161   9.473   5.419   1.017  0.4271 -1.0527  0.1579
  676MOL0     C89162   9.624   5.440   1.032  0.2431  0.1995  0.2226
  676MOL0     C89163   9.681   5.507   0.914 -0.2462 -0.0958  0.1903
  676MOL0     C89164   9.719   5.557   0.812  0.7927 -0.7300  0.6019
  676MOL0     C89165   9.004   5.261   0.889  0.1225 -0.0771 -0.0538
  676MOL0     C89166   8.868   5.226   0.870 -0.5446 -0.3330 -0.2964
  676MOL0     H89167   8.350   5.325   0.770  0.6698  0.3510  0.0555
  676MOL0     H89168   8.131   5.232   0.745 -1.2070  0.2764  0.8941
  676MOL0     H89169   8.105   4.771   0.788  0.1721 -0.4686  0.7426
  676MOL0     H89170   8.124   4.808   0.607 -1.0786  0.9333 -0.9466
  676MOL0     H89171   7.869   4.875   0.625 -0.9363 -0.8692  0.2100
  676MOL0     H89172   7.879   4.810   0.784 -0.3825  1.1440 -0.2286
  676MOL0     H89173   7.987   4.595   0.644 -1.1573 -0.0196  3.8190
  676MOL0     H89174   7.867   4.658   0.522  0.0437 -1.5715  0.4308
  676MOL0     H89175   7.805   4.565   0.794  1.4776 -0.7119 -1.7966
  676MOL0     H89176   7.689   4.657   0.698 -1.3003 -0.6566  1.1037
  676MOL0     H89177   7.802   4.387   0.638 -1.5559 -2.6061 -2.9662
  676MOL0     H89178   7.698   4.480   0.535 -0.8424  0.5969  1.1360
  676MOL0     H89179   7.518   4.514   0.699 -3.5105 -3.3940  2.3826
  676MOL0     H89180   7.610   4.427   0.820 -0.3519  0.2397  0.5113
  676MOL0     H89181   7.624   4.240   0.630 -0.0731 -0.0620 -2.6242
  676MOL0     H89182   7.471   4.253   0.705  0.7862 -1.9500 -0.9357
  676MOL0     H89183   7.548   4.326   0.424  2.4513 -1.8787  1.2476
  676MOL0     H89184   7.416   4.416   0.508 -2.3936 -1.6287  2.3801
  676MOL0     H89185   7.518   4.039   0.488  0.0401  1.8809  0.8164
  676MOL0     H89186   7.325   3.815   0.515  1.7951 -0.1877 -1.6976
  676MOL0     H89187   7.334   3.844   0.332 -3.3801  2.2660 -2.3695
  676MOL0     H89188   7.095   3.882   0.327 -2.1821 -1.7692 -0.6966
  676MOL0     H89189   7.079   3.830   0.501 -0.7999  2.0061 -1.1643
  676MOL0     H89190   7.167   3.661   0.265 -0.2588  0.2772 -0.4522
  676MOL0     H89191   7.150   3.623   0.448 -0.2666  0.5000 -0.0381
  676MOL0     H89192   6.902   3.689   0.415 -0.8493  0.9414  0.0977
  676MOL0     H89193   6.948   3.546   0.324  2.0852 -0.3047  1.4026
  676MOL0     H89194   6.689   3.629   0.363 -2.2894 -1.0707 -0.8000
  676MOL0     H89195   6.470   3.731   0.357  0.5014  0.0092  1.7626
  676MOL0     H89196   6.230   4.163   0.286 -2.9836  1.1563  1.6832
  676MOL0     H89197   5.996   4.241   0.272 -0.3880  2.6648 -1.6748
  676MOL0     H89198   5.863   4.376   0.169 -0.1113 -1.0874  1.5233
  676MOL0     H89199   5.707   4.322   0.156 -0.8912  1.9282 -0.5846
  676MOL0     H89200   5.880   4.462  -0.058 -0.0998 -0.2123  0.0387
  676MOL0     H89201   5.740   4.532   0.034  1.3935  0.7143 -0.5299
  676MOL0     H89202   5.595   4.374  -0.087  0.8002 -1.2517  0.9386
  676MOL0     H89203   5.725   4.339  -0.208 -2.2944 -1.5605  0.2284
  676MOL0     H89204   5.643   4.625  -0.142 -0.2127 -0.8221  2.1361
  676MOL0     H89205   5.767   4.562  -0.256 -0.1996  1.5692 -0.9005
  676MOL0     H89206   5.597   4.479  -0.403  1.4423 -0.8944  1.7197
  676MOL0     H89207   5.547   4.643  -0.362 -0.5812  0.2075 -1.6702
  676MOL0     H89208   5.431   4.485  -0.155  1.4090 -0.0243  0.0836
  676MOL0     H89209   5.394   4.397  -0.298 -1.0256  0.5076 -1.5470
  676MOL0     H89210   5.331   4.688  -0.250 -1.4112 -0.7210  1.6043
  676MOL0     H89211   5.302   4.583  -0.404 -1.3437 -0.2589  0.2337
  676MOL0     H89212   5.096   4.632  -0.263 -2.5151 -2.2107 -0.7026
  676MOL0     H89213   5.168   4.578  -0.125 -1.1299  1.7338 -0.5945
  676MOL0     H89214   5.973   4.124  -0.136  1.4417 -2.0757 -0.8122
  676MOL0     H89215   6.227   4.063  -0.125  2.1487  0.7524  0.3312
  676MOL0     H89216   6.627   4.019   0.057  1.0838  2.7069  2.8137
  676MOL0     H89217   6.848   3.910   0.074 -0.1673 -0.2033 -0.3197
  676MOL0     H89218   8.305   4.839   0.839 -0.4965 -0.7059 -1.8792
  676MOL0     H89219   8.513   4.939   0.897 -1.9254 -3.6126  1.3103
  676MOL0     H89220   8.752   5.526   0.969  1.4872  1.0077  2.4855
  676MOL0     H89221   8.974   5.589   1.005  0.6610 -0.3913  1.4195
  676MOL0     H89222   9.227   5.504   1.119  1.1480 -0.7936 -0.5320
  676MOL0     H89223   9.187   5.604   0.972  0.8576 -1.2884 -3.2866
  676MOL0     H89224   9.396   5.572   0.877 -1.2377 -0.9750  0.1139
  676MOL0     H89225   9.420   5.634   1.045  0.5665  2.3496 -2.6643
  676MOL0     H89226   9.454   5.337   0.947  2.1318 -1.8868  0.6091
  676MOL0     H89227   9.442   5.380   1.115  0.7117 -0.5939  0.4377
  676MOL0     H89228   9.643   5.504   1.119 -0.7984 -1.0098  1.3866
  676MOL0     H89229   9.678   5.347   1.051  0.5497 -0.1568 -2.1318
  676MOL0     H89230   9.744   5.596   0.715 -2.5307 -2.1778 -0.9978
  676MOL0     H89231   9.083   5.190   0.866  1.2231  0.4990  1.7489
  676MOL0     H89232   8.838   5.127   0.834 -1.2238  1.0169 -3.9251
  677MOL0     O89233   4.234   6.145   2.484 -0.3373  0.5466  0.2024
  677MOL0     C89234   4.280   6.257   2.512  0.0797 -0.4676 -0.2400
  677MOL0     O89235   4.228   6.340   2.602  0.0378 -0.1310  0.3340
  677MOL0     C89236   4.111   6.302   2.661  0.6814 -0.0427  0.2960
  677MOL0     C89237   3.996   6.376   2.648  0.7750 -0.3609  0.7880
  677MOL0     C89238   3.881   6.361   2.727  0.5919  0.3340  0.4211
  677MOL0     C89239   3.878   6.252   2.815 -0.3028 -0.0495 -0.5742
  677MOL0     O89240   3.774   6.204   2.888  1.2792  0.0925 -0.1171
  677MOL0     C89241   3.642   6.257   2.845 -0.3341  1.0560 -0.4840
  677MOL0     C89242   3.535   6.170   2.915 -0.8224 -0.7727 -0.0340
  677MOL0     C89243   3.402   6.219   2.877  0.0333 -0.1943  1.0199
  677MOL0     C89244   3.299   6.132   2.954 -0.6505 -0.2215  0.3594
  677MOL0     C89245   3.163   6.126   2.885 -0.1741  0.5432  0.3317
  677MOL0     C89246   3.087   6.247   2.924  0.1880 -0.2646  0.7015
  677MOL0     C89247   2.946   6.231   2.879  0.1663  0.7858  0.3051
  677MOL0     C89248   2.853   6.142   2.978 -0.1341  0.2030  0.3630
  677MOL0     N89249   2.733   6.100   2.901  0.2796  0.3611  0.0657
  677MOL0     C89250   2.621   6.172   2.891  0.4540 -0.8179  1.3290
  677MOL0     C89251   2.539   6.083   2.822  0.4955 -0.2921  0.9953
  677MOL0     C89252   2.393   6.110   2.787 -0.7252 -0.1073 -0.2583
  677MOL0     C89253   2.299   6.005   2.828 -0.8791  0.2111 -0.1617
  677MOL0     C89254   2.157   6.045   2.883  0.3708  0.4202 -0.6601
  677MOL0     C89255   2.064   6.078   2.759 -0.4542 -0.4123  0.3700
  677MOL0     O89256   2.040   5.969   2.670  0.3838 -0.6346  0.7174
  677MOL0     C89257   1.941   5.876   2.716  0.4565 -0.0648  0.1279
  677MOL0     C89258   1.967   5.744   2.693 -0.3113  0.3951  0.4039
  677MOL0     C89259   1.891   5.643   2.755  0.3731 -0.5704  0.0637
  677MOL0     C89260   1.789   5.686   2.850  0.7428  0.0331  0.2488
  677MOL0     C89261   1.692   5.585   2.897  0.0917  0.6328 -0.3105
  677MOL0     O89262   1.663   5.481   2.809 -0.7518  0.4640  0.1062
  677MOL0     C89263   1.547   5.416   2.811  0.2552 -0.4836  1.0060
  677MOL0     C89264   1.529   5.282   2.783  0.8105  0.8947  0.7426
  677MOL0     C89265   1.413   5.213   2.797  0.0942  0.1886  0.0563
  677MOL0     C89266   1.294   5.283   2.816 -0.2145 -0.4892 -0.1283
  677MOL0     O89267   1.170   5.223   2.822  0.5546  0.2733  0.1583
  677MOL0     C89268   1.054   5.296   2.859 -0.6419 -0.4432 -0.4625
  677MOL0     C89269   0.944   5.193   2.906 -0.3483  0.3927  0.4543
  677MOL0     C89270   0.897   5.109   2.791 -0.2407  0.3340 -0.7889
  677MOL0     C89271   0.768   5.031   2.828  0.0220  0.6410  0.0726
  677MOL0     C89272   0.694   4.954   2.711 -0.0948  0.5015  0.6490
  677MOL0     C89273   0.575   4.878   2.780 -0.4271 -0.1403  0.1065
  677MOL0     C89274   0.511   4.776   2.684  0.0344  0.5613 -0.2558
  677MOL0     C89275   0.394   4.704   2.746  1.0813 -0.0763 -0.0738
  677MOL0    Cl89276   0.251   4.814   2.722 -0.1559  0.9744  0.5408
  677MOL0     C89277   1.296   5.424   2.808 -0.7387  0.2361  0.3021
  677MOL0     C89278   1.421   5.492   2.804 -0.9615 -0.2440  0.3375
  677MOL0     O89279   1.625   5.614   2.999 -0.0706  0.3905  0.6694
  677MOL0     C89280   1.766   5.823   2.876  0.0377 -0.3223  0.8016
  677MOL0     C89281   1.848   5.916   2.814  0.7574 -0.8321 -0.1064
  677MOL0     N89282   2.601   5.968   2.781 -0.7906  0.8117 -0.4557
  677MOL0     N89283   2.721   5.978   2.839 -0.1716 -0.4048  0.8266
  677MOL0     C89284   3.996   6.174   2.830 -0.1200  0.4179  0.5032
  677MOL0     C89285   4.109   6.199   2.753  0.1864 -1.1000 -0.5888
  677MOL0     C89286   4.410   6.295   2.467 -0.9406 -0.2440  0.3711
  677MOL0     C89287   4.501   6.208   2.416  0.6381  0.3985  0.9554
  677MOL0     C89288   4.626   6.253   2.366  0.1241  0.9384  0.0879
  677MOL0     C89289   4.669   6.382   2.372 -0.1028 -0.0497 -0.4178
  677MOL0     O89290   4.791   6.416   2.321 -0.1798  0.2267 -0.3344
  677MOL0     C89291   4.876   6.470   2.426 -0.0891  0.2186  0.3205
  677MOL0     C89292   5.008   6.403   2.432 -0.4848  0.9849  0.3468
  677MOL0     C89293   5.076   6.379   2.302  0.8355  0.1887 -0.0243
  677MOL0     C89294   5.213   6.308   2.295  0.2247  0.2394  0.0861
  677MOL0     C89295   5.206   6.168   2.329 -0.6696 -0.7017  0.2245
  677MOL0     C89296   5.213   6.061   2.370  0.3423  0.0185  0.2313
  677MOL0     C89297   4.575   6.480   2.418  0.4805  0.7348 -0.1981
  677MOL0     C89298   4.444   6.434   2.458  0.6161 -0.0088 -0.4500
  677MOL0     H89299   3.983   6.452   2.572  0.4578  0.3017  1.4944
  677MOL0     H89300   3.800   6.432   2.716  2.3391  2.4637  0.4814
  677MOL0     H89301   3.636   6.241   2.737  0.1153 -2.6732 -0.0977
  677MOL0     H89302   3.628   6.364   2.862 -0.6570  0.8604  0.5483
  677MOL0     H89303   3.536   6.191   3.022  2.1272  1.5415 -0.3607
  677MOL0     H89304   3.548   6.062   2.908  0.2812 -0.7321  0.9045
  677MOL0     H89305   3.389   6.213   2.769  2.7072  0.7607  0.5803
  677MOL0     H89306   3.386   6.323   2.909 -0.0828 -0.6802  2.6567
  677MOL0     H89307   3.336   6.029   2.963  0.3401  0.0666 -0.2721
  677MOL0     H89308   3.295   6.167   3.058  0.5141  2.0680 -0.3222
  677MOL0     H89309   3.107   6.040   2.923 -0.5029  1.2483  1.5012
  677MOL0     H89310   3.173   6.121   2.777 -1.2654  2.1998  0.1261
  677MOL0     H89311   3.131   6.337   2.880 -1.9255  1.4403  1.8737
  677MOL0     H89312   3.090   6.259   3.032  2.0812  0.1315  0.6405
  677MOL0     H89313   2.898   6.329   2.883  2.9176  2.1650  1.8754
  677MOL0     H89314   2.940   6.193   2.776  0.8036 -1.8849  1.1693
  677MOL0     H89315   2.823   6.189   3.071  1.8732  1.7845  0.2914
  677MOL0     H89316   2.906   6.048   2.995 -0.7402 -0.3873 -0.8503
  677MOL0     H89317   2.608   6.275   2.924 -2.4324 -1.3376  2.0292
  677MOL0     H89318   2.381   6.151   2.686  2.2603 -1.2801 -1.2117
  677MOL0     H89319   2.362   6.196   2.848 -1.7799  0.4282 -1.4999
  677MOL0     H89320   2.347   5.948   2.908 -1.7414 -1.8981 -1.0570
  677MOL0     H89321   2.280   5.928   2.753  0.4761 -1.0365  0.7137
  677MOL0     H89322   2.106   5.981   2.956  1.6923  1.5039  1.3153
  677MOL0     H89323   2.160   6.142   2.934  2.4870  0.6051 -1.0539
  677MOL0     H89324   2.120   6.152   2.701 -0.8292  0.6390  1.3107
  677MOL0     H89325   1.974   6.134   2.787 -0.1246  0.0135  0.5914
  677MOL0     H89326   2.058   5.715   2.642 -0.2914 -0.8838  1.1056
  677MOL0     H89327   1.903   5.543   2.716  0.5199  0.6770 -3.3823
  677MOL0     H89328   1.618   5.222   2.766  0.2418 -0.2933  1.7621
  677MOL0     H89329   1.406   5.106   2.782 -0.8305  0.4705 -1.8282
  677MOL0     H89330   1.024   5.355   2.773  0.1501  1.0643  0.2508
  677MOL0     H89331   1.080   5.358   2.945 -1.6676  1.1595 -1.2597
  677MOL0     H89332   0.862   5.247   2.954  0.2670  4.4995 -2.5494
  677MOL0     H89333   0.998   5.132   2.979  1.6674  0.1818 -1.1179
  677MOL0     H89334   0.977   5.038   2.767 -0.6822 -0.5746  0.3622
  677MOL0     H89335   0.886   5.179   2.707  0.4478  1.9377  0.4046
  677MOL0     H89336   0.805   4.950   2.892  1.3269  1.2300  0.0872
  677MOL0     H89337   0.697   5.085   2.892 -0.6355 -1.7652  1.5017
  677MOL0     H89338   0.762   4.885   2.661 -1.1861 -0.6835  0.7445
  677MOL0     H89339   0.671   5.029   2.634 -0.3793  1.6969  1.8570
  677MOL0     H89340   0.503   4.952   2.814  0.8535  1.1362  0.1386
  677MOL0     H89341   0.607   4.819   2.866  0.1895  1.9417  1.3594
  677MOL0     H89342   0.484   4.836   2.596  0.0453  4.1205  1.9974
  677MOL0     H89343   0.571   4.688   2.657 -0.6913  0.3769 -1.3423
  677MOL0     H89344   0.409   4.696   2.854  1.1563 -1.2278 -0.1670
  677MOL0     H89345   0.375   4.608   2.698 -0.0199  0.7484 -1.3602
  677MOL0     H89346   1.202   5.479   2.810 -2.0874 -1.8787 -1.1139
  677MOL0     H89347   1.432   5.598   2.824  1.8107 -0.4132  0.1510
  677MOL0     H89348   1.700   5.862   2.953  2.2223  2.4073  1.4579
  677MOL0     H89349   1.820   6.018   2.837  0.5426 -1.5756  3.4018
  677MOL0     H89350   3.995   6.087   2.894  0.1791 -1.8179 -2.3361
  677MOL0     H89351   4.197   6.136   2.766  2.1261  1.6931  0.7894
  677MOL0     H89352   4.482   6.101   2.417 -0.8574  0.6350  0.6277
  677MOL0     H89353   4.692   6.183   2.313  0.7160  0.9455  0.7978
  677MOL0     H89354   4.830   6.474   2.525  0.0380  2.9524  0.3317
  677MOL0     H89355   4.902   6.573   2.401  1.2533  0.3378  2.0466
  677MOL0     H89356   5.074   6.462   2.496 -1.2288  0.9737  1.1399
  677MOL0     H89357   4.999   6.305   2.481 -1.6910 -0.4209 -2.4366
  677MOL0     H89358   5.086   6.477   2.255  1.5016  0.4604  0.6557
  677MOL0     H89359   5.012   6.323   2.234  2.3017 -0.9996 -0.4977
  677MOL0     H89360   5.244   6.312   2.190 -1.5808  0.4706 -0.4687
  677MOL0     H89361   5.283   6.366   2.355 -0.8826  1.1766  0.5077
  677MOL0     H89362   5.215   5.960   2.405  2.2887  0.0039  0.1813
  677MOL0     H89363   4.608   6.583   2.407  1.1765  0.3396 -2.2134
  677MOL0     H89364   4.366   6.500   2.493 -1.0249 -0.2167 -3.4215
  678MOL0     O89365   3.202   9.839   3.356  0.3670 -0.1479 -0.2296
  678MOL0     C89366   3.303   9.861   3.420  0.4768  0.7609  1.1022
  678MOL0     O89367   3.320   9.951   3.516  0.0451  0.3177 -0.4679
  678MOL0     C89368   3.250  10.071   3.515 -0.3116 -0.6011 -0.6909
  678MOL0     C89369   3.195  10.129   3.397  0.8765  0.1790  0.3902
  678MOL0     C89370   3.100  10.227   3.399 -0.0700 -0.3705  0.3869
  678MOL0     C89371   3.076  10.286   3.521  0.9183 -0.1015  0.3822
  678MOL0     O89372   2.988  10.387   3.538  0.3033 -0.3377  0.5541
  678MOL0     C89373   2.857  10.373   3.471  0.1154  0.0840 -0.2591
  678MOL0     C89374   2.766  10.485   3.499  0.2182  0.0630 -0.0083
  678MOL0     C89375   2.794  10.627   3.446  0.0332 -0.1282 -0.0120
  678MOL0     C89376   2.722  10.749   3.518 -0.3605  0.4837  0.1681
  678MOL0     C89377   2.569  10.722   3.534 -0.2138 -0.4857 -0.3727
  678MOL0     C89378   2.502  10.846   3.608  0.3452 -0.1158  0.4602
  678MOL0     C89379   2.520  10.982   3.552 -0.0526 -0.4656 -0.2495
  678MOL0     C89380   2.441  11.094   3.626 -0.4743  0.0136  0.1428
  678MOL0     N89381   2.302  11.068   3.620 -0.4778  0.3635 -0.0497
  678MOL0     C89382   2.221  11.124   3.527  0.3956 -1.0151 -0.7914
  678MOL0     C89383   2.095  11.091   3.569  0.2080 -0.5272  0.7958
  678MOL0     C89384   1.967  11.125   3.509  0.6078  0.8263 -0.1316
  678MOL0     C89385   1.940  11.269   3.532  0.5768 -0.1735  0.3940
  678MOL0     C89386   1.800  11.313   3.483  0.0967 -1.2416  0.3750
  678MOL0     C89387   1.776  11.465   3.510 -0.0979  0.4179 -0.5265
  678MOL0     O89388   1.685  11.529   3.429 -0.0748  0.4027 -0.1711
  678MOL0     C89389   1.549  11.534   3.461 -0.8655 -0.7234  0.2158
  678MOL0     C89390   1.487  11.486   3.579 -0.6009 -0.1265  0.1254
  678MOL0     C89391   1.356  11.524   3.608 -0.8637  0.1197 -0.3578
  678MOL0     C89392   1.276  11.594   3.520  0.3246  0.6042  0.2120
  678MOL0     C89393   1.138  11.625   3.553  0.8198  0.9093 -0.8338
  678MOL0     O89394   1.099  11.613   3.686  0.2788  0.3890  0.0615
  678MOL0     C89395   0.967  11.648   3.718  0.3936 -0.1696 -0.9156
  678MOL0     C89396   0.910  11.773   3.694  0.2096 -0.5974  0.2128
  678MOL0     C89397   0.781  11.807   3.746 -0.2281 -1.3691 -0.2587
  678MOL0     C89398   0.702  11.714   3.814 -1.0503 -0.9081  0.2199
  678MOL0     O89399   0.579  11.756   3.854 -0.3578  0.1482 -0.4398
  678MOL0     C89400   0.478  11.660   3.825  0.4017 -0.3745 -0.0912
  678MOL0     C89401   0.358  11.745   3.777 -0.6756 -0.2508 -0.3393
  678MOL0     C89402   0.253  11.648   3.727  0.2326  0.3713  1.0703
  678MOL0     C89403   0.122  11.711   3.684 -0.3061 -0.2463  0.9967
  678MOL0     C89404   0.028  11.589   3.655  1.3744 -0.0023 -0.8269
  678MOL0     C89405  -0.105  11.643   3.595  0.6733 -0.2080 -0.2178
  678MOL0     C89406  -0.207  11.685   3.709 -0.2731  0.0473 -0.1473
  678MOL0     C89407  -0.350  11.705   3.642  0.5592 -0.4038 -0.0608
  678MOL0    Cl89408  -0.337  11.849   3.530 -0.0181  0.1495 -0.3916
  678MOL0     C89409   0.762  11.594   3.841 -0.3571  0.3455 -0.1746
  678MOL0     C89410   0.896  11.563   3.800  0.3298 -0.3981 -0.2490
  678MOL0     O89411   1.066  11.665   3.463 -0.3937 -0.3610  0.0121
  678MOL0     C89412   1.334  11.638   3.400  0.1111 -0.3188 -0.8202
  678MOL0     C89413   1.469  11.603   3.369  0.3584  0.2629 -0.2989
  678MOL0     N89414   2.112  11.019   3.688 -0.4152 -0.5530  0.5771
  678MOL0     N89415   2.236  11.009   3.726  0.1249  0.2566  0.6890
  678MOL0     C89416   3.140  10.247   3.648  0.8996  0.8201  0.4616
  678MOL0     C89417   3.223  10.143   3.636 -0.6601 -0.2635  0.6946
  678MOL0     C89418   3.405   9.765   3.399 -0.2027 -0.2120  0.0453
  678MOL0     C89419   3.508   9.738   3.490  0.2001  0.2977 -0.0307
  678MOL0     C89420   3.601   9.640   3.465  0.3498  0.0664  0.1188
  678MOL0     C89421   3.615   9.575   3.342  0.1883  0.5263  0.0922
  678MOL0     O89422   3.714   9.485   3.316 -0.3048 -0.3569  1.0053
  678MOL0     C89423   3.729   9.454   3.178  0.1005  0.4836  0.5928
  678MOL0     C89424   3.861   9.366   3.162 -0.3558  0.4130  0.1737
  678MOL0     C89425   3.883   9.314   3.015 -0.1347  0.8430  0.5076
  678MOL0     C89426   4.000   9.221   2.993  0.4565  0.6940  0.0546
  678MOL0     C89427   4.128   9.283   3.029 -0.3537  0.0828  0.3165
  678MOL0     C89428   4.232   9.326   3.066 -0.4038  0.4210  0.8023
  678MOL0     C89429   3.515   9.604   3.242 -0.2400  0.5997  0.3765
  678MOL0     C89430   3.419   9.700   3.270  0.5127  0.3665  0.5492
  678MOL0     H89431   3.218  10.089   3.299 -0.5298 -3.8987  1.5484
  678MOL0     H89432   3.048  10.269   3.314  1.0109 -0.0969 -0.1523
  678MOL0     H89433   2.814  10.280   3.508  0.9302 -1.3135 -2.5779
  678MOL0     H89434   2.876  10.364   3.363  0.4737 -2.4944 -0.0461
  678MOL0     H89435   2.733  10.483   3.603 -0.2980  0.9757 -0.1408
  678MOL0     H89436   2.675  10.449   3.450  0.0648 -2.8318  2.1594
  678MOL0     H89437   2.778  10.623   3.338  0.6970  1.0881 -0.1790
  678MOL0     H89438   2.902  10.645   3.450  0.2883 -1.5370 -0.1135
  678MOL0     H89439   2.772  10.773   3.612  0.7502 -0.0207 -0.2710
  678MOL0     H89440   2.731  10.835   3.450  1.2275  1.0276  1.0115
  678MOL0     H89441   2.553  10.636   3.599 -1.0219  0.3578  0.5782
  678MOL0     H89442   2.525  10.701   3.436  0.3854 -2.8413 -0.1913
  678MOL0     H89443   2.536  10.840   3.712 -1.0979 -1.8441  0.8793
  678MOL0     H89444   2.395  10.827   3.600 -0.3192  3.4084 -0.8101
  678MOL0     H89445   2.623  11.018   3.565 -1.0979  2.3773  0.8459
  678MOL0     H89446   2.491  10.975   3.447  0.8820 -1.0026 -0.4893
  678MOL0     H89447   2.461  11.190   3.578 -0.8168 -0.5789 -1.2501
  678MOL0     H89448   2.472  11.096   3.731 -0.8766 -2.1197  0.3606
  678MOL0     H89449   2.252  11.185   3.443  1.4872 -0.0995  0.2354
  678MOL0     H89450   1.898  11.072   3.575  0.8055  0.7063 -0.0214
  678MOL0     H89451   1.963  11.095   3.404 -1.3568  1.8958 -0.4049
  678MOL0     H89452   2.022  11.327   3.489 -0.4720 -0.2943 -1.9775
  678MOL0     H89453   1.937  11.271   3.641 -3.3690 -4.2493  0.6566
  678MOL0     H89454   1.790  11.289   3.376  0.4017 -1.6540  0.4383
  678MOL0     H89455   1.730  11.255   3.543  1.1273 -2.8991  0.0359
  678MOL0     H89456   1.868  11.524   3.507 -0.6547  1.3094 -0.2544
  678MOL0     H89457   1.730  11.476   3.609 -1.4975 -0.4616 -1.0575
  678MOL0     H89458   1.525  11.414   3.651 -2.4020 -2.2796 -0.9176
  678MOL0     H89459   1.325  11.497   3.709  1.0086  0.9726  0.5032
  678MOL0     H89460   0.979  11.844   3.650  3.5698 -2.5863  1.8355
  678MOL0     H89461   0.739  11.905   3.730 -0.4467 -1.4484 -0.1708
  678MOL0     H89462   0.444  11.616   3.920  0.3093  1.1644  0.6340
  678MOL0     H89463   0.503  11.575   3.762  1.8164 -0.5352  0.6357
  678MOL0     H89464   0.384  11.801   3.686 -0.4506 -1.6195 -1.1382
  678MOL0     H89465   0.334  11.820   3.853  0.2497  0.5124 -0.7674
  678MOL0     H89466   0.228  11.570   3.800  0.5669  0.8309  1.6807
  678MOL0     H89467   0.299  11.591   3.645  0.0147  0.7609  0.6745
  678MOL0     H89468   0.088  11.768   3.770  0.2381  0.6928  0.6039
  678MOL0     H89469   0.138  11.782   3.602 -1.3490  0.2610  1.2123
  678MOL0     H89470   0.011  11.535   3.749  1.3520  0.0810 -0.7832
  678MOL0     H89471   0.074  11.520   3.583 -0.5452 -1.2515 -0.9321
  678MOL0     H89472  -0.151  11.567   3.531 -0.0930  0.2102 -0.1786
  678MOL0     H89473  -0.078  11.730   3.534  1.8327  1.0670  1.9897
  678MOL0     H89474  -0.224  11.613   3.790 -0.7440 -0.2437 -0.4987
  678MOL0     H89475  -0.170  11.779   3.753 -0.2365  0.5652 -1.2591
  678MOL0     H89476  -0.428  11.729   3.715  1.1088  3.4520 -0.5080
  678MOL0     H89477  -0.382  11.610   3.600 -2.2347 -1.0981  3.2304
  678MOL0     H89478   0.700  11.521   3.893 -1.9540  2.7978  1.6005
  678MOL0     H89479   0.938  11.466   3.823  0.3494 -1.3463 -3.6994
  678MOL0     H89480   1.290  11.696   3.319 -1.1839  2.9890  1.9863
  678MOL0     H89481   1.509  11.631   3.272 -1.3687 -3.3883 -2.2675
  678MOL0     H89482   3.132  10.303   3.740 -1.9180  0.9970  0.1997
  678MOL0     H89483   3.264  10.108   3.731 -0.4927  1.2595  1.2127
  678MOL0     H89484   3.504   9.771   3.594  1.5806 -0.9982  0.4829
  678MOL0     H89485   3.673   9.608   3.540  2.6441 -2.1541 -2.7429
  678MOL0     H89486   3.738   9.540   3.110  2.1240 -1.3408 -1.6289
  678MOL0     H89487   3.643   9.405   3.132 -0.1611  1.1694  0.3271
  678MOL0     H89488   3.944   9.431   3.194 -0.4363  0.4471  0.3158
  678MOL0     H89489   3.853   9.278   3.226 -0.2847  0.7232  0.6130
  678MOL0     H89490   3.886   9.394   2.940 -1.4800 -0.7100 -1.2870
  678MOL0     H89491   3.789   9.260   3.003  0.9126 -1.2352  1.2075
  678MOL0     H89492   3.993   9.124   3.044 -1.7910  0.7973  0.0598
  678MOL0     H89493   4.006   9.200   2.886  1.1437 -0.3589  0.2798
  678MOL0     H89494   4.319   9.381   3.097  0.3723  1.5245 -2.8606
  678MOL0     H89495   3.512   9.572   3.138 -0.3458 -0.0274  0.5720
  678MOL0     H89496   3.342   9.727   3.200  1.5212  0.8249 -0.4134
  679MOL0     O89497   8.516   8.869  10.850  0.1093  0.3169  0.3778
  679MOL0     C89498   8.507   8.990  10.871  0.5100 -0.2444 -0.5330
  679MOL0     O89499   8.389   9.056  10.901  0.2940  0.1017 -0.0045
  679MOL0     C89500   8.273   8.969  10.900 -0.2727 -0.4589 -0.5506
  679MOL0     C89501   8.219   8.930  11.023  0.3629 -0.1835  0.0979
  679MOL0     C89502   8.117   8.840  11.030  0.2253 -0.4087 -0.3263
  679MOL0     C89503   8.066   8.792  10.909  0.4498  0.2711  0.3942
  679MOL0     O89504   7.957   8.701  10.908  0.0496  0.2843 -0.1988
  679MOL0     C89505   7.837   8.729  10.971 -0.7759  0.5012  0.2600
  679MOL0     C89506   7.766   8.838  10.873  0.5088  0.6719  0.0608
  679MOL0     C89507   7.624   8.869  10.927 -0.5925  0.6318 -0.2665
  679MOL0     C89508   7.567   8.965  10.828 -0.4463 -0.9474 -0.0844
  679MOL0     C89509   7.501   8.885  10.712  0.6046  0.4319 -0.0912
  679MOL0     C89510   7.490   8.978  10.596  0.1697 -0.1404  0.5033
  679MOL0     C89511   7.411   8.915  10.481 -0.2752  0.1636 -0.4504
  679MOL0     C89512   7.386   9.014  10.367 -0.4881 -0.7678 -0.2319
  679MOL0     N89513   7.283   8.970  10.275  0.2895  0.2541 -1.0252
  679MOL0     C89514   7.301   8.893  10.164  0.4687 -0.5314  0.3118
  679MOL0     C89515   7.180   8.894  10.105  0.9664 -0.1399 -0.1918
  679MOL0     C89516   7.146   8.823   9.972  0.0319  0.4205 -0.5731
  679MOL0     C89517   6.988   8.839   9.945  0.1065 -0.1219  0.2536
  679MOL0     C89518   6.922   8.749   9.841 -0.0515 -0.3634 -0.0701
  679MOL0     C89519   6.781   8.790   9.825  0.8076  0.0404 -0.6097
  679MOL0     O89520   6.699   8.686   9.780 -0.9442 -0.0895 -0.1918
  679MOL0     C89521   6.565   8.703   9.766  0.2413 -0.7220 -0.3540
  679MOL0     C89522   6.504   8.824   9.722 -0.2980 -0.8616  0.2810
  679MOL0     C89523   6.365   8.847   9.716  0.9825  0.1645  0.8289
  679MOL0     C89524   6.277   8.745   9.736 -0.1266  0.3484  0.4961
  679MOL0     C89525   6.136   8.768   9.721  0.1499  0.3125  0.3647
  679MOL0     O89526   6.056   8.666   9.761  0.4453  0.1974 -0.0857
  679MOL0     C89527   5.926   8.689   9.752 -0.0383  0.3984 -1.0006
  679MOL0     C89528   5.877   8.771   9.849  0.9542 -0.1472 -0.8402
  679MOL0     C89529   5.747   8.812   9.847 -0.1142  0.5397  0.1716
  679MOL0     C89530   5.667   8.790   9.730 -0.7949  0.3843 -0.7652
  679MOL0     O89531   5.536   8.833   9.747  0.2134 -0.0187  0.7307
  679MOL0     C89532   5.436   8.776   9.659 -0.4503  0.8333  0.4920
  679MOL0     C89533   5.310   8.868   9.675  0.7713  0.7954  0.1296
  679MOL0     C89534   5.192   8.837   9.570  0.3415 -0.4271  0.1856
  679MOL0     C89535   5.237   8.848   9.434  0.3171 -0.1866  0.4372
  679MOL0     C89536   5.112   8.827   9.342  0.3244  0.2880 -0.1527
  679MOL0     C89537   5.146   8.847   9.198  0.0431  0.4776  0.4890
  679MOL0     C89538   5.024   8.779   9.119 -1.0040  0.7631  0.2161
  679MOL0     C89539   4.900   8.872   9.130  0.4363 -0.4653 -0.5188
  679MOL0    Cl89540   4.771   8.813   9.015 -0.5596  0.5019  0.0815
  679MOL0     C89541   5.721   8.716   9.621  0.0938 -0.1706 -1.1976
  679MOL0     C89542   5.850   8.651   9.639 -0.4214 -0.1915 -0.0728
  679MOL0     O89543   6.099   8.872   9.670  0.0932 -0.0317 -0.4359
  679MOL0     C89544   6.332   8.621   9.755  0.2770  0.2541  0.2702
  679MOL0     C89545   6.469   8.595   9.778 -0.0143  0.2615  0.2367
  679MOL0     N89546   7.091   8.964  10.184  0.8424 -0.3995  0.4461
  679MOL0     N89547   7.151   9.013  10.289 -0.2837  0.8032 -0.3407
  679MOL0     C89548   8.126   8.826  10.785  0.1271 -0.8871 -0.8422
  679MOL0     C89549   8.228   8.916  10.781  0.2790 -0.2595  0.1611
  679MOL0     C89550   8.626   9.071  10.865 -0.1106  0.2008  0.4832
  679MOL0     C89551   8.752   9.017  10.849  0.1231  0.3658  0.4930
  679MOL0     C89552   8.867   9.099  10.840  0.2638  0.8632 -0.9438
  679MOL0     C89553   8.857   9.233  10.822 -0.8686  0.5754 -0.5593
  679MOL0     O89554   8.964   9.320  10.820  0.2073 -0.1722 -0.1640
  679MOL0     C89555   9.098   9.271  10.789 -0.1075  0.1961 -0.0418
  679MOL0     C89556   9.193   9.390  10.761 -0.0871 -0.6977  0.0234
  679MOL0     C89557   9.189   9.493  10.879 -0.3205  0.0940  0.1801
  679MOL0     C89558   9.245   9.630  10.827  0.4083 -0.2516  0.1402
  679MOL0     C89559   9.275   9.735  10.936  0.3662 -0.2604 -0.4050
  679MOL0     C89560   9.313   9.812  11.026 -0.3626  0.1782  0.1651
  679MOL0     C89561   8.734   9.287  10.846 -0.7892  0.2126  0.4131
  679MOL0     C89562   8.619   9.213  10.867 -0.0669 -0.1868 -1.0510
  679MOL0     H89563   8.266   8.962  11.115  1.3187 -0.4945 -0.2690
  679MOL0     H89564   8.078   8.804  11.125  0.8062 -0.9489 -0.2855
  679MOL0     H89565   7.834   8.782  11.067 -0.9096 -0.3698  0.7444
  679MOL0     H89566   7.783   8.634  10.975  1.6560 -1.0170 -0.8868
  679MOL0     H89567   7.758   8.809  10.768 -2.8468 -0.1648  0.4458
  679MOL0     H89568   7.820   8.932  10.886 -0.5652  0.9640  3.4498
  679MOL0     H89569   7.627   8.906  11.030 -0.0405 -0.9820  0.3243
  679MOL0     H89570   7.570   8.775  10.936  1.4028 -0.4690  0.9480
  679MOL0     H89571   7.489   9.015  10.885 -0.2127  0.6972 -1.1531
  679MOL0     H89572   7.633   9.039  10.782 -1.1828 -1.2345 -1.6586
  679MOL0     H89573   7.405   8.850  10.750  0.5414  0.5829 -0.1117
  679MOL0     H89574   7.565   8.799  10.690 -1.4855 -1.3276  0.4235
  679MOL0     H89575   7.590   8.997  10.554 -0.1581  4.0036  1.2027
  679MOL0     H89576   7.434   9.065  10.629 -1.1827 -0.9664  0.4568
  679MOL0     H89577   7.465   8.830  10.438  0.4082  0.1516  0.4050
  679MOL0     H89578   7.317   8.878  10.524  0.0531  1.3418  1.3939
  679MOL0     H89579   7.475   9.023  10.304 -0.6410 -0.9277 -0.4715
  679MOL0     H89580   7.357   9.114  10.400  0.1860 -0.9198  0.8787
  679MOL0     H89581   7.385   8.831  10.132 -0.7576 -1.3093 -1.6269
  679MOL0     H89582   7.162   8.715   9.964 -1.2939  0.2394 -1.0047
  679MOL0     H89583   7.201   8.868   9.889 -0.0888 -0.9707 -1.4514
  679MOL0     H89584   6.970   8.945   9.921  0.5560 -0.6749 -3.1208
  679MOL0     H89585   6.930   8.811  10.033 -0.0605 -2.2316 -0.4684
  679MOL0     H89586   6.974   8.749   9.744  0.6657  1.4563  0.2550
  679MOL0     H89587   6.918   8.647   9.878 -1.8579 -0.2634  0.0962
  679MOL0     H89588   6.775   8.874   9.754  0.2421  0.9686  0.4917
  679MOL0     H89589   6.738   8.821   9.922  0.8313 -0.5798 -0.4004
  679MOL0     H89590   6.572   8.907   9.709 -0.0542 -0.8309  1.5874
  679MOL0     H89591   6.326   8.946   9.693 -1.7514 -1.1209 -0.5071
  679MOL0     H89592   5.923   8.785   9.946 -3.6025 -1.8999  1.8663
  679MOL0     H89593   5.708   8.870   9.930  2.2820  3.9977 -0.8635
  679MOL0     H89594   5.418   8.671   9.686  2.3311 -1.1688 -4.3111
  679MOL0     H89595   5.466   8.774   9.554  1.1924  0.4308  0.9488
  679MOL0     H89596   5.352   8.968   9.661 -0.7231  1.5383  0.7659
  679MOL0     H89597   5.275   8.861   9.778 -0.3191  1.8287 -0.1463
  679MOL0     H89598   5.108   8.907   9.571  1.0284  0.5317 -2.1939
  679MOL0     H89599   5.146   8.741   9.596 -1.9415  0.3674 -0.6981
  679MOL0     H89600   5.286   8.944   9.413  0.8489  0.1359  2.7734
  679MOL0     H89601   5.303   8.764   9.409 -0.9171 -0.6582 -1.4118
  679MOL0     H89602   5.034   8.894   9.380  0.8131  0.3093  0.8464
  679MOL0     H89603   5.089   8.721   9.357 -1.1329  0.7738  1.2835
  679MOL0     H89604   5.238   8.799   9.161 -0.3734 -0.0424  0.1147
  679MOL0     H89605   5.147   8.952   9.167 -0.3908 -0.0196 -1.3288
  679MOL0     H89606   5.051   8.765   9.014  2.5683 -1.0457  1.2116
  679MOL0     H89607   5.006   8.680   9.161 -1.2351  0.2474 -1.0546
  679MOL0     H89608   4.930   8.973   9.099  1.2961 -0.6535 -0.3221
  679MOL0     H89609   4.864   8.863   9.233  0.3204 -0.6954 -0.5799
  679MOL0     H89610   5.677   8.695   9.524  0.9185  0.5637 -1.7404
  679MOL0     H89611   5.897   8.599   9.557 -0.2588  2.3855 -1.7139
  679MOL0     H89612   6.268   8.536   9.779  2.2629 -0.6003  2.9743
  679MOL0     H89613   6.503   8.492   9.786  0.1393  0.2489 -0.5182
  679MOL0     H89614   8.077   8.787  10.696 -2.0761  2.7407 -1.4308
  679MOL0     H89615   8.265   8.956  10.688  2.0668 -0.7969  0.6098
  679MOL0     H89616   8.766   8.909  10.857  0.5683  0.3103 -0.8164
  679MOL0     H89617   8.964   9.050  10.841  2.1499  4.2958  0.6796
  679MOL0     H89618   9.096   9.209  10.699  0.4086 -1.9503  1.3525
  679MOL0     H89619   9.137   9.213  10.873 -2.2136 -1.6804 -0.2790
  679MOL0     H89620   9.293   9.349  10.742  1.3130  1.6204  1.8297
  679MOL0     H89621   9.148   9.438  10.674  2.8444  0.0233 -1.2157
  679MOL0     H89622   9.254   9.453  10.957  0.7048  2.5278  0.6575
  679MOL0     H89623   9.086   9.509  10.911 -0.5887 -1.0311 -0.0952
  679MOL0     H89624   9.338   9.617  10.772  1.7417  3.4928  1.2125
  679MOL0     H89625   9.167   9.659  10.756 -0.2572 -1.7871  0.1916
  679MOL0     H89626   9.348   9.882  11.099 -1.0837 -0.8355  1.5118
  679MOL0     H89627   8.722   9.395  10.844  0.5367  0.3836 -1.8214
  679MOL0     H89628   8.528   9.272  10.875  1.7434  2.5949  1.1424
  680MOL0     O89629   7.319   7.983   1.035  0.1542 -0.3769 -0.4947
  680MOL0     C89630   7.331   7.935   1.149  0.9630  0.1600  0.0570
  680MOL0     O89631   7.227   7.922   1.241 -0.8634 -0.3780  0.1363
  680MOL0     C89632   7.102   7.963   1.216  0.2031  0.2533 -0.4246
  680MOL0     C89633   7.033   7.924   1.094  0.3270  0.9249  0.5897
  680MOL0     C89634   6.896   7.934   1.082  0.6707 -0.5372  0.6921
  680MOL0     C89635   6.823   8.000   1.181  0.0868  0.1403 -0.0276
  680MOL0     O89636   6.687   8.021   1.177 -0.0964  0.6910  0.5224
  680MOL0     C89637   6.635   8.027   1.046  0.6956 -0.4368  0.4587
  680MOL0     C89638   6.481   8.072   1.062  0.3458 -0.2995 -0.4235
  680MOL0     C89639   6.393   8.071   0.934  0.2003 -0.7219  0.1264
  680MOL0     C89640   6.367   7.921   0.885 -0.5819 -0.0147 -0.8474
  680MOL0     C89641   6.324   7.917   0.743  0.5448 -0.4374  0.2058
  680MOL0     C89642   6.197   7.984   0.703 -0.0462 -0.2786  0.5929
  680MOL0     C89643   6.202   8.116   0.633 -0.1845  0.1951  0.0111
  680MOL0     C89644   6.064   8.173   0.649 -0.3169 -1.1603 -0.7178
  680MOL0     N89645   6.026   8.287   0.568 -0.0290  0.2165  0.9884
  680MOL0     C89646   6.074   8.418   0.560  0.0031  0.1189  0.5797
  680MOL0     C89647   5.978   8.494   0.490 -0.2551 -0.0467 -0.0166
  680MOL0     C89648   5.982   8.637   0.442  0.3879  0.1221  0.4117
  680MOL0     C89649   5.898   8.726   0.534  0.2005 -0.3501  0.7739
  680MOL0     C89650   5.847   8.839   0.449 -0.1401  0.1691 -0.0266
  680MOL0     C89651   5.766   8.943   0.531 -0.4292 -0.2535 -0.1216
  680MOL0     O89652   5.626   8.907   0.564  0.1405  0.5062 -0.0069
  680MOL0     C89653   5.547   8.988   0.639  0.6552  0.3187 -0.4795
  680MOL0     C89654   5.572   9.114   0.690 -0.5203 -0.9264 -1.0307
  680MOL0     C89655   5.498   9.176   0.793  0.3612  0.3299  1.6449
  680MOL0     C89656   5.373   9.126   0.820  0.5890  0.7001  0.2506
  680MOL0     C89657   5.294   9.184   0.929  0.0296 -0.4130  0.0953
  680MOL0     O89658   5.317   9.312   0.974  0.0108  1.1537 -0.2307
  680MOL0     C89659   5.243   9.357   1.084  0.3662  0.6241 -0.0416
  680MOL0     C89660   5.166   9.474   1.069  0.2398  0.4186 -0.5214
  680MOL0     C89661   5.078   9.516   1.171 -0.4776 -0.4662 -0.5125
  680MOL0     C89662   5.061   9.445   1.287 -0.2926  0.9964 -1.3008
  680MOL0     O89663   4.982   9.492   1.390  0.3075 -0.4652  0.0765
  680MOL0     C89664   4.850   9.545   1.352 -0.6908  0.2367  0.2123
  680MOL0     C89665   4.844   9.696   1.357 -0.1169 -0.6951 -0.0967
  680MOL0     C89666   4.804   9.739   1.495 -0.8873  0.2514 -0.2236
  680MOL0     C89667   4.873   9.870   1.537 -0.3195  1.0607  1.4903
  680MOL0     C89668   4.820   9.951   1.659 -0.4453  0.6872 -0.3829
  680MOL0     C89669   4.856   9.865   1.783  0.6491 -1.0033 -0.3813
  680MOL0     C89670   4.821   9.929   1.924 -0.3814  0.2302 -0.7476
  680MOL0     C89671   4.677   9.943   1.944  0.5203  0.1999  0.2712
  680MOL0    Cl89672   4.637  10.015   2.096 -0.2622 -0.3162  0.2457
  680MOL0     C89673   5.142   9.330   1.304  0.3214 -0.6656  0.0351
  680MOL0     C89674   5.237   9.292   1.206 -0.2628  0.4619  1.1133
  680MOL0     O89675   5.212   9.111   0.975  0.1608  0.0778  0.0289
  680MOL0     C89676   5.342   9.001   0.762  0.0375 -0.2345 -0.6555
  680MOL0     C89677   5.425   8.936   0.676  1.0595 -0.2165 -0.4205
  680MOL0     N89678   5.882   8.402   0.461  0.7694 -0.2989 -0.1983
  680MOL0     N89679   5.903   8.292   0.509  0.3658 -0.2398  0.1050
  680MOL0     C89680   6.894   8.044   1.297  0.5408 -0.1306  0.4000
  680MOL0     C89681   7.035   8.020   1.313  0.3523 -0.3440 -0.3691
  680MOL0     C89682   7.467   7.879   1.180  0.2933 -0.0303  0.7868
  680MOL0     C89683   7.562   7.886   1.070 -0.2712  0.1674  0.8631
  680MOL0     C89684   7.693   7.841   1.084  0.5748  0.3672  0.3138
  680MOL0     C89685   7.739   7.801   1.217 -0.1690 -0.2721  0.6237
  680MOL0     O89686   7.868   7.764   1.252 -0.4180  0.1112  0.1230
  680MOL0     C89687   7.975   7.773   1.162  0.0963 -0.5429  0.0062
  680MOL0     C89688   8.106   7.719   1.221 -0.2674  0.3675 -0.6534
  680MOL0     C89689   8.105   7.557   1.241 -0.1459 -0.6429 -0.4385
  680MOL0     C89690   8.241   7.506   1.297  0.0658 -0.7924  0.4083
  680MOL0     C89691   8.353   7.546   1.209 -0.0641  0.7907  1.2012
  680MOL0     C89692   8.463   7.571   1.158  0.4461  0.0655  0.0081
  680MOL0     C89693   7.643   7.791   1.318 -0.8425  0.0984 -0.2128
  680MOL0     C89694   7.513   7.836   1.301 -0.1996  0.0225 -0.2324
  680MOL0     H89695   7.089   7.890   1.007 -0.0813  0.0830  0.6481
  680MOL0     H89696   6.839   7.891   1.001 -2.7138 -1.2951  3.2425
  680MOL0     H89697   6.645   7.930   0.997 -0.9399  0.2406 -1.3756
  680MOL0     H89698   6.681   8.104   0.983 -0.2706  0.0645  0.3452
  680MOL0     H89699   6.480   8.172   1.107 -2.1251 -0.4900  0.0520
  680MOL0     H89700   6.427   8.011   1.135  1.1590  0.1445  0.5819
  680MOL0     H89701   6.445   8.121   0.852  2.7680 -3.9701 -0.4366
  680MOL0     H89702   6.297   8.124   0.944  0.9939  0.6073  0.9600
  680MOL0     H89703   6.462   7.867   0.893 -1.2124 -0.9672  0.6517
  680MOL0     H89704   6.293   7.871   0.947  2.3796 -3.5499  0.2418
  680MOL0     H89705   6.320   7.810   0.718  0.5416 -0.0641 -1.4456
  680MOL0     H89706   6.403   7.956   0.678  1.4978 -2.2060  0.2307
  680MOL0     H89707   6.125   7.982   0.785 -1.4722 -1.4606 -0.6275
  680MOL0     H89708   6.153   7.919   0.627  0.1241  0.1575  0.1177
  680MOL0     H89709   6.281   8.182   0.672 -1.7024  3.6265 -2.1986
  680MOL0     H89710   6.233   8.098   0.529 -2.2400  2.3850 -1.0886
  680MOL0     H89711   6.047   8.189   0.756  1.7834  1.4972 -0.6708
  680MOL0     H89712   5.992   8.096   0.622 -0.1012 -2.8495  2.8084
  680MOL0     H89713   6.169   8.459   0.595 -0.9430  2.3565  0.7326
  680MOL0     H89714   5.925   8.633   0.348  0.1819  1.7817  0.4290
  680MOL0     H89715   6.081   8.681   0.428  0.2195 -0.2658 -2.7707
  680MOL0     H89716   5.956   8.776   0.613  0.3567  2.3189 -0.9095
  680MOL0     H89717   5.801   8.681   0.558  0.3462 -1.1282 -0.0710
  680MOL0     H89718   5.934   8.882   0.399  2.2843 -1.5127  2.4787
  680MOL0     H89719   5.786   8.811   0.363 -0.2859 -0.6933  0.3477
  680MOL0     H89720   5.768   9.030   0.464 -2.4245 -0.0366  0.0389
  680MOL0     H89721   5.819   8.962   0.624  3.8914 -1.8978 -1.9897
  680MOL0     H89722   5.673   9.148   0.668 -0.4820  0.3824  0.9176
  680MOL0     H89723   5.544   9.260   0.845  1.1539  1.6045 -0.9405
  680MOL0     H89724   5.184   9.528   0.976 -1.5236  4.8429  1.4035
  680MOL0     H89725   5.033   9.613   1.152 -0.1837 -0.1897  0.1791
  680MOL0     H89726   4.772   9.507   1.419  0.0597 -1.3884  0.2147
  680MOL0     H89727   4.827   9.518   1.248 -0.2794  0.6285  0.0160
  680MOL0     H89728   4.780   9.724   1.273  1.6756 -1.7993 -1.9077
  680MOL0     H89729   4.944   9.733   1.332 -1.2659  2.4481 -0.4795
  680MOL0     H89730   4.829   9.656   1.562 -3.8605  0.1888  0.9698
  680MOL0     H89731   4.697   9.744   1.515 -0.6293  0.7684  1.2323
  680MOL0     H89732   4.974   9.830   1.547 -0.8696 -0.6447  0.7029
  680MOL0     H89733   4.873   9.937   1.451  0.5187 -2.6968 -1.7690
  680MOL0     H89734   4.712   9.967   1.660 -0.6306 -0.4429  0.4299
  680MOL0     H89735   4.868  10.049   1.669 -0.9658  0.9139 -0.0618
  680MOL0     H89736   4.964   9.849   1.786  0.9288  0.8428  1.4375
  680MOL0     H89737   4.809   9.767   1.767 -0.2634 -0.4450 -1.3039
  680MOL0     H89738   4.871   9.873   2.003 -1.2769  0.3588 -0.0687
  680MOL0     H89739   4.861  10.031   1.924  2.1516 -0.6465 -2.9444
  680MOL0     H89740   4.628   9.846   1.935  0.7445  0.2630 -2.5662
  680MOL0     H89741   4.623  10.016   1.882 -0.0536 -0.4045  0.0520
  680MOL0     H89742   5.141   9.283   1.402 -1.2596 -0.6599  0.0396
  680MOL0     H89743   5.289   9.197   1.220 -0.7564 -0.0278 -0.2462
  680MOL0     H89744   5.256   8.940   0.788  1.2393 -0.9013  2.0639
  680MOL0     H89745   5.391   8.841   0.636  0.1206  0.3752 -1.0602
  680MOL0     H89746   6.847   8.078   1.389 -0.0221  0.1795  0.0021
  680MOL0     H89747   7.079   8.020   1.412 -1.9140 -2.4006  0.7415
  680MOL0     H89748   7.545   7.929   0.971 -0.6651  0.0766  0.8879
  680MOL0     H89749   7.754   7.871   1.000 -2.9311  1.2223 -2.1886
  680MOL0     H89750   7.986   7.878   1.134 -4.1144 -0.4521 -2.1224
  680MOL0     H89751   7.963   7.715   1.070  2.9004 -0.1517 -0.6732
  680MOL0     H89752   8.196   7.758   1.173 -0.7911  0.0922 -1.8903
  680MOL0     H89753   8.111   7.765   1.320  1.9039 -2.6458  0.8081
  680MOL0     H89754   8.089   7.515   1.141 -3.0037  0.4517 -0.5358
  680MOL0     H89755   8.039   7.530   1.323  3.2812 -3.2575  1.6880
  680MOL0     H89756   8.265   7.565   1.387 -1.1238  0.8659 -0.3133
  680MOL0     H89757   8.237   7.404   1.337  2.2082 -0.7785  0.7818
  680MOL0     H89758   8.559   7.595   1.117  1.1441 -0.9398  0.9927
  680MOL0     H89759   7.677   7.772   1.420 -2.1557  0.2799  0.2706
  680MOL0     H89760   7.449   7.853   1.387  0.8659 -0.4924  0.6967
  681MOL0     O89761   9.646   3.744   6.321 -0.1123 -0.3924  0.1486
  681MOL0     C89762   9.638   3.862   6.276  1.5945  0.5275 -1.0371
  681MOL0     O89763   9.522   3.932   6.245  0.7714  0.0418 -0.1151
  681MOL0     C89764   9.396   3.870   6.234  1.0786  0.0217 -0.2902
  681MOL0     C89765   9.371   3.742   6.183  0.2934 -0.7947  0.2916
  681MOL0     C89766   9.236   3.699   6.159  0.3628 -0.0068 -0.8093
  681MOL0     C89767   9.128   3.778   6.203  0.8734  0.3039 -0.0751
  681MOL0     O89768   8.994   3.749   6.199  0.3029 -0.0969 -0.1940
  681MOL0     C89769   8.960   3.611   6.152  0.0143 -0.0337 -0.7377
  681MOL0     C89770   8.804   3.602   6.139  0.7859 -0.1083  0.0056
  681MOL0     C89771   8.757   3.711   6.044  0.2458 -0.1264 -0.1095
  681MOL0     C89772   8.607   3.708   6.031  0.2332 -0.1566 -0.9489
  681MOL0     C89773   8.548   3.801   5.920  0.3443 -0.4730  0.2399
  681MOL0     C89774   8.392   3.827   5.943  0.0196 -0.1377  0.1143
  681MOL0     C89775   8.322   3.891   5.816 -0.3829 -0.3645  0.3193
  681MOL0     C89776   8.179   3.914   5.830  0.0173  0.0227  0.5835
  681MOL0     N89777   8.099   3.788   5.845 -0.4972 -0.7029 -0.2111
  681MOL0     C89778   8.024   3.733   5.746  0.8974 -0.1579  0.0406
  681MOL0     C89779   7.953   3.638   5.811 -0.1894 -0.4980 -0.5447
  681MOL0     C89780   7.853   3.549   5.752 -0.2945 -0.5067  0.1095
  681MOL0     C89781   7.712   3.608   5.780  0.2601 -0.5395 -0.0058
  681MOL0     C89782   7.691   3.732   5.695 -0.0838  0.0374  0.1002
  681MOL0     C89783   7.553   3.789   5.726 -0.2604 -0.3010 -0.3458
  681MOL0     O89784   7.469   3.680   5.680 -0.0121 -0.3422  0.5610
  681MOL0     C89785   7.347   3.688   5.740  0.1870  0.0918 -0.5516
  681MOL0     C89786   7.319   3.606   5.851  0.0868  0.2354 -0.3521
  681MOL0     C89787   7.192   3.603   5.905  0.4694 -0.9175 -0.4634
  681MOL0     C89788   7.090   3.682   5.859 -0.2534 -0.0779 -0.2314
  681MOL0     C89789   6.948   3.669   5.908  0.5102 -0.0340  0.1196
  681MOL0     O89790   6.922   3.599   6.026  0.1727  0.2695  0.6414
  681MOL0     C89791   6.794   3.571   6.064  0.4006 -0.0460  0.0546
  681MOL0     C89792   6.763   3.561   6.204 -0.4012  0.1101 -0.7426
  681MOL0     C89793   6.635   3.523   6.241  0.1936 -0.7503 -0.6821
  681MOL0     C89794   6.535   3.478   6.153 -0.9050 -0.4309 -0.1483
  681MOL0     O89795   6.425   3.415   6.210  0.0144  0.1464 -0.1991
  681MOL0     C89796   6.302   3.444   6.148  0.4039 -0.3872  0.3494
  681MOL0     C89797   6.192   3.404   6.241 -0.4497 -0.2104  0.2364
  681MOL0     C89798   6.060   3.439   6.174  0.0416 -0.1316 -0.5055
  681MOL0     C89799   5.938   3.411   6.254 -0.1711 -0.0874 -1.0603
  681MOL0     C89800   5.799   3.401   6.179 -0.1843  0.2139  0.6467
  681MOL0     C89801   5.765   3.542   6.127 -0.0823 -0.7083 -0.2725
  681MOL0     C89802   5.628   3.555   6.067 -0.3038  0.2004  0.2644
  681MOL0     C89803   5.595   3.681   5.994 -0.4648 -0.1166 -1.3698
  681MOL0    Cl89804   5.548   3.794   6.128 -0.1034  0.1494 -0.4369
  681MOL0     C89805   6.571   3.475   6.018  0.3828 -0.4189 -0.6782
  681MOL0     C89806   6.697   3.523   5.976  0.7894 -0.5093  0.2250
  681MOL0     O89807   6.859   3.723   5.837  0.1807  1.0951 -0.0599
  681MOL0     C89808   7.127   3.763   5.748  0.1908 -0.6484 -0.4842
  681MOL0     C89809   7.251   3.779   5.703  0.0466  0.0752  0.0200
  681MOL0     N89810   7.989   3.642   5.945 -0.4586  0.1277  0.3521
  681MOL0     N89811   8.080   3.731   5.963  0.4689  0.1825  0.2498
  681MOL0     C89812   9.155   3.899   6.260  0.2602  0.3368 -0.3694
  681MOL0     C89813   9.285   3.940   6.272 -0.0603  0.5282 -0.5876
  681MOL0     C89814   9.769   3.937   6.276  0.3587  0.3616  0.0447
  681MOL0     C89815   9.878   3.867   6.341  0.0964 -1.3173  0.1804
  681MOL0     C89816  10.009   3.917   6.328  0.7197  0.3601  0.9039
  681MOL0     C89817  10.026   4.050   6.274 -0.0354 -0.0075  0.3158
  681MOL0     O89818  10.155   4.095   6.271 -0.3171 -0.3020 -0.7200
  681MOL0     C89819  10.187   4.223   6.222  0.1756  0.0885 -0.6575
  681MOL0     C89820  10.327   4.260   6.266 -0.0062 -0.4267  0.4773
  681MOL0     C89821  10.440   4.176   6.208 -0.4252 -0.1246  0.3946
  681MOL0     C89822  10.504   4.097   6.330 -0.1395  0.5542  0.0520
  681MOL0     C89823  10.618   4.011   6.299 -0.2124  0.0831 -0.0297
  681MOL0     C89824  10.718   3.937   6.283  0.2855  1.0801 -0.4838
  681MOL0     C89825   9.914   4.121   6.224 -0.3496  0.4633  0.4582
  681MOL0     C89826   9.787   4.068   6.232 -0.2984 -0.4895  0.9303
  681MOL0     H89827   9.462   3.685   6.169  0.6502 -0.3844  0.9118
  681MOL0     H89828   9.223   3.602   6.112 -2.0166  0.8962 -2.2223
  681MOL0     H89829   8.990   3.534   6.223 -2.5806  0.2484  0.8134
  681MOL0     H89830   9.010   3.598   6.055 -1.9148  0.3734 -1.8424
  681MOL0     H89831   8.764   3.619   6.239  1.0555 -0.0147  0.0958
  681MOL0     H89832   8.781   3.504   6.095  2.5713 -0.4889 -0.1375
  681MOL0     H89833   8.792   3.680   5.945  0.4521 -0.7708  0.1620
  681MOL0     H89834   8.795   3.810   6.073  0.5446 -0.4528  0.6420
  681MOL0     H89835   8.566   3.607   6.022  0.1758 -0.1197 -1.1103
  681MOL0     H89836   8.574   3.751   6.126 -0.9810 -1.4971 -0.7343
  681MOL0     H89837   8.563   3.752   5.824  1.8947  1.5201 -0.5912
  681MOL0     H89838   8.604   3.895   5.928 -2.6910  1.5602 -0.4860
  681MOL0     H89839   8.373   3.889   6.031 -0.0196  0.4192 -0.2773
  681MOL0     H89840   8.342   3.732   5.964  1.3535 -0.3944  2.3831
  681MOL0     H89841   8.362   3.991   5.797  1.7123 -0.7267  2.3118
  681MOL0     H89842   8.345   3.830   5.728 -0.5207 -1.2226  0.8666
  681MOL0     H89843   8.144   3.975   5.746  0.6652  2.1852  1.8086
  681MOL0     H89844   8.161   3.982   5.914  0.7333  3.4017 -1.7762
  681MOL0     H89845   8.015   3.771   5.644  3.2565  1.6437  0.4048
  681MOL0     H89846   7.857   3.449   5.797  0.4701  0.4999  2.4439
  681MOL0     H89847   7.869   3.534   5.645 -1.8843 -1.5738 -0.0151
  681MOL0     H89848   7.702   3.625   5.888 -0.1913  1.6949 -0.3525
  681MOL0     H89849   7.639   3.534   5.745 -0.5494  0.5798 -0.7573
  681MOL0     H89850   7.770   3.806   5.713  0.1624 -0.6911  2.2382
  681MOL0     H89851   7.699   3.701   5.590  1.6832  1.5366 -0.2700
  681MOL0     H89852   7.548   3.881   5.667  1.0116 -0.6916 -1.1098
  681MOL0     H89853   7.538   3.808   5.833  2.0211 -0.7717  0.1237
  681MOL0     H89854   7.396   3.539   5.887 -1.4888 -2.1115 -1.1656
  681MOL0     H89855   7.167   3.539   5.989 -1.2829 -0.2464 -0.4292
  681MOL0     H89856   6.841   3.572   6.279 -1.4122  1.3380  0.1494
  681MOL0     H89857   6.606   3.529   6.345 -1.4624  1.3891 -1.1930
  681MOL0     H89858   6.286   3.392   6.054 -0.4950 -2.4506  1.5717
  681MOL0     H89859   6.300   3.551   6.124 -1.0463 -0.8938 -2.0727
  681MOL0     H89860   6.217   3.445   6.339  0.9744 -0.7248  0.1026
  681MOL0     H89861   6.200   3.296   6.259  0.3842 -0.4337 -1.2827
  681MOL0     H89862   6.056   3.384   6.079  4.1735 -1.1566 -0.2776
  681MOL0     H89863   6.061   3.547   6.156  0.9805  0.0616  0.5980
  681MOL0     H89864   5.952   3.310   6.294 -0.9083  0.0078 -0.5555
  681MOL0     H89865   5.931   3.475   6.342  0.6499  0.9620 -1.7264
  681MOL0     H89866   5.717   3.357   6.236 -0.2824  0.1876  0.4857
  681MOL0     H89867   5.812   3.335   6.092 -1.7144  1.3614 -0.5216
  681MOL0     H89868   5.841   3.588   6.063  0.1868 -1.9072 -0.8320
  681MOL0     H89869   5.743   3.613   6.207  0.9020 -1.8007  1.0080
  681MOL0     H89870   5.611   3.481   5.989 -0.5881  0.3531  0.1772
  681MOL0     H89871   5.548   3.536   6.138 -0.1772  1.7300  0.8618
  681MOL0     H89872   5.507   3.664   5.930 -1.1490  1.2927 -0.8599
  681MOL0     H89873   5.671   3.723   5.926  2.1898  1.9640  2.5097
  681MOL0     H89874   6.502   3.434   5.945 -4.3168  2.0149  1.8445
  681MOL0     H89875   6.722   3.517   5.871  2.6710  0.2407  0.5892
  681MOL0     H89876   7.048   3.830   5.717  1.2225  0.9275  0.1330
  681MOL0     H89877   7.272   3.856   5.629 -0.1589 -0.2843 -0.4173
  681MOL0     H89878   9.082   3.976   6.285  1.8880  1.6821  0.4608
  681MOL0     H89879   9.309   4.032   6.325  1.0418  0.4416 -0.9112
  681MOL0     H89880   9.872   3.770   6.389  1.7511 -1.2366  0.6042
  681MOL0     H89881  10.084   3.854   6.374  2.6171  1.5447 -0.4249
  681MOL0     H89882  10.125   4.309   6.250 -1.3107 -1.4635  1.1209
  681MOL0     H89883  10.195   4.229   6.113 -3.1768  0.1151 -1.0270
  681MOL0     H89884  10.337   4.367   6.247 -3.3938  0.0775  0.9598
  681MOL0     H89885  10.331   4.253   6.375 -0.4861  0.0096  0.5261
  681MOL0     H89886  10.523   4.242   6.181 -0.0004  0.4228  2.8374
  681MOL0     H89887  10.406   4.108   6.129  0.8787 -1.3612  0.8623
  681MOL0     H89888  10.546   4.171   6.399  2.2266 -0.2422 -0.4372
  681MOL0     H89889  10.439   4.025   6.379 -2.5539  2.0482 -0.7615
  681MOL0     H89890  10.792   3.861   6.266 -0.1876  0.2794  0.8707
  681MOL0     H89891   9.916   4.224   6.188  1.9774  0.4431  0.3630
  681MOL0     H89892   9.703   4.128   6.198  0.8300  0.2580 -0.6228
  682MOL0     O89893   5.842   7.763   5.238  0.0211 -0.2454  0.6332
  682MOL0     C89894   5.920   7.675   5.264 -0.4811  0.5153  0.7845
  682MOL0     O89895   5.881   7.559   5.319 -0.1359  0.1296 -0.4071
  682MOL0     C89896   5.745   7.550   5.350  0.0147  0.3382 -0.3898
  682MOL0     C89897   5.693   7.542   5.481 -0.4659  0.3216 -0.8150
  682MOL0     C89898   5.561   7.524   5.510 -0.7896 -0.4945 -0.6260
  682MOL0     C89899   5.469   7.505   5.415  0.3668 -1.2421  0.1484
  682MOL0     O89900   5.334   7.500   5.445 -0.2338 -0.0161 -0.6290
  682MOL0     C89901   5.244   7.450   5.342 -0.0066 -0.4115 -0.6220
  682MOL0     C89902   5.114   7.398   5.390  0.7076  0.2581  0.7403
  682MOL0     C89903   5.014   7.503   5.453  0.1803 -0.9934 -0.5124
  682MOL0     C89904   4.895   7.426   5.489  0.5072 -0.7339 -0.8187
  682MOL0     C89905   4.778   7.500   5.536  1.0332 -0.9663  0.1227
  682MOL0     C89906   4.712   7.583   5.425 -0.3141  0.0380 -0.4368
  682MOL0     C89907   4.584   7.658   5.477  0.2794 -0.0560  0.8159
  682MOL0     C89908   4.612   7.774   5.566  0.9770 -0.6862 -0.4263
  682MOL0     N89909   4.487   7.826   5.622 -0.1356  0.5362 -0.0949
  682MOL0     C89910   4.404   7.762   5.715 -0.2630  0.2947  1.0329
  682MOL0     C89911   4.290   7.843   5.721 -0.1576 -0.3615  0.3507
  682MOL0     C89912   4.177   7.806   5.805 -0.2333  0.4774  0.7944
  682MOL0     C89913   4.033   7.816   5.750  0.2095 -0.5388 -0.1600
  682MOL0     C89914   3.929   7.754   5.847 -0.0568 -0.1026 -0.1480
  682MOL0     C89915   3.793   7.768   5.791  0.0809 -0.1295  0.5752
  682MOL0     O89916   3.701   7.721   5.891 -0.0223  0.7147  0.3279
  682MOL0     C89917   3.568   7.738   5.878 -0.1882  0.1537  0.4085
  682MOL0     C89918   3.486   7.718   5.986 -0.6702  0.3437 -0.0214
  682MOL0     C89919   3.348   7.746   5.985  0.4852 -0.0463 -0.0808
  682MOL0     C89920   3.290   7.796   5.871 -0.5273 -0.0922  0.4378
  682MOL0     C89921   3.148   7.841   5.860  0.1237  0.0042  0.6081
  682MOL0     O89922   3.097   7.871   5.732  0.3109  0.0154  0.7419
  682MOL0     C89923   2.959   7.885   5.723  0.1116 -0.1105 -0.6349
  682MOL0     C89924   2.880   7.780   5.672  0.4634  0.2792  0.6080
  682MOL0     C89925   2.741   7.791   5.659 -0.3640 -0.4063  0.0140
  682MOL0     C89926   2.687   7.915   5.696  0.1489  0.3963 -1.0292
  682MOL0     O89927   2.551   7.911   5.700  0.4947 -0.2252 -0.1407
  682MOL0     C89928   2.479   8.001   5.616  0.0761 -0.8010  0.4955
  682MOL0     C89929   2.330   7.999   5.648  0.5411 -0.1239 -0.4111
  682MOL0     C89930   2.247   8.124   5.608 -0.1822  0.1958  0.0633
  682MOL0     C89931   2.110   8.131   5.671 -0.6057 -0.0414  0.2846
  682MOL0     C89932   2.027   8.004   5.677 -0.4638 -0.1092 -0.0747
  682MOL0     C89933   1.983   7.960   5.529  0.6482 -0.2112 -0.1726
  682MOL0     C89934   1.892   8.057   5.453 -0.3385  0.0583  0.0376
  682MOL0     C89935   1.758   8.066   5.537  0.5747  0.6698  0.3063
  682MOL0    Cl89936   1.641   8.139   5.416  0.1389 -0.1891 -0.1198
  682MOL0     C89937   2.764   8.032   5.728  0.4987 -0.5693 -1.0011
  682MOL0     C89938   2.899   8.009   5.753 -0.4575 -0.2409  0.8309
  682MOL0     O89939   3.086   7.850   5.963 -0.1145 -0.2196 -0.6930
  682MOL0     C89940   3.373   7.818   5.760  1.0102 -0.3157  0.4110
  682MOL0     C89941   3.511   7.793   5.763 -0.6634 -0.4763  0.5986
  682MOL0     N89942   4.312   7.954   5.644  0.1294  0.1355 -0.6734
  682MOL0     N89943   4.427   7.940   5.588 -0.7955  0.1563  0.1712
  682MOL0     C89944   5.524   7.496   5.281 -0.1301  0.2485  0.0451
  682MOL0     C89945   5.657   7.519   5.250  0.1432  0.0061 -0.9570
  682MOL0     C89946   6.067   7.700   5.241  1.0547  0.3471  0.6954
  682MOL0     C89947   6.164   7.601   5.286 -0.1133 -0.0554  0.0141
  682MOL0     C89948   6.297   7.619   5.250 -0.8025  0.3077 -0.0294
  682MOL0     C89949   6.344   7.727   5.165 -0.4264 -0.3113 -0.4416
  682MOL0     O89950   6.480   7.734   5.137  0.5932  1.0165  0.6896
  682MOL0     C89951   6.510   7.819   5.024 -0.2791 -0.3075 -0.2723
  682MOL0     C89952   6.663   7.837   5.001  0.2177  0.1342 -0.8341
  682MOL0     C89953   6.725   7.706   4.966  0.7092  0.0067  0.2553
  682MOL0     C89954   6.849   7.733   4.884  0.0558  0.5062 -0.5778
  682MOL0     C89955   6.947   7.818   4.941 -0.8178  0.0639 -0.3916
  682MOL0     C89956   7.032   7.903   4.973  0.4508  0.2385 -0.3995
  682MOL0     C89957   6.243   7.819   5.126  0.3712 -0.2410  0.5618
  682MOL0     C89958   6.110   7.810   5.164  0.5942  0.0696 -0.0232
  682MOL0     H89959   5.745   7.549   5.576 -2.5919  2.1752  0.3207
  682MOL0     H89960   5.531   7.537   5.613 -1.9756  1.6976 -1.1906
  682MOL0     H89961   5.292   7.365   5.294 -1.8534 -2.6911  1.3474
  682MOL0     H89962   5.224   7.527   5.266  1.0482  0.0746 -0.4385
  682MOL0     H89963   5.134   7.321   5.464 -0.0842 -1.6229 -0.9137
  682MOL0     H89964   5.065   7.340   5.311 -1.0433  0.1104  1.8859
  682MOL0     H89965   4.982   7.582   5.385 -2.7947 -0.8168  0.9576
  682MOL0     H89966   5.061   7.548   5.542  2.4096  0.2941 -2.2230
  682MOL0     H89967   4.863   7.371   5.401 -1.4134 -1.7382  0.4372
  682MOL0     H89968   4.916   7.362   5.575  0.3008  2.0332  1.4723
  682MOL0     H89969   4.804   7.565   5.620  2.4481 -2.0934  0.5955
  682MOL0     H89970   4.714   7.424   5.581 -2.0845  1.2025 -0.3378
  682MOL0     H89971   4.693   7.520   5.337  0.5846  1.1816 -1.4803
  682MOL0     H89972   4.788   7.656   5.394  1.6226 -2.1829 -1.3097
  682MOL0     H89973   4.516   7.690   5.398 -0.3926 -1.0939  0.9525
  682MOL0     H89974   4.523   7.583   5.528 -0.7450  1.0542  1.2736
  682MOL0     H89975   4.668   7.850   5.511 -2.3478  1.2796 -1.3754
  682MOL0     H89976   4.683   7.751   5.646  1.0891  2.1351  0.4123
  682MOL0     H89977   4.424   7.665   5.761  3.0465  1.2543  1.8691
  682MOL0     H89978   4.178   7.874   5.890 -0.6596 -0.2767  1.4171
  682MOL0     H89979   4.189   7.701   5.835  1.1433  0.2511 -0.4249
  682MOL0     H89980   4.020   7.776   5.649 -1.7214  0.1696 -0.2472
  682MOL0     H89981   4.014   7.922   5.733  2.0185 -0.0341  0.6986
  682MOL0     H89982   3.955   7.650   5.868  1.9389  0.2246 -0.7194
  682MOL0     H89983   3.927   7.809   5.942  1.8014 -1.2151  0.6113
  682MOL0     H89984   3.777   7.734   5.688 -0.1271  1.6505 -0.0186
  682MOL0     H89985   3.778   7.876   5.783 -0.5888 -0.3612 -2.5009
  682MOL0     H89986   3.537   7.680   6.073 -1.8226 -1.4111 -0.0778
  682MOL0     H89987   3.284   7.721   6.069 -1.7904  2.9287 -0.7492
  682MOL0     H89988   2.924   7.686   5.642  1.7014  1.7971 -2.9111
  682MOL0     H89989   2.672   7.712   5.631 -1.5751  1.3189 -2.1559
  682MOL0     H89990   2.492   7.975   5.510 -1.7142  0.2729 -0.0278
  682MOL0     H89991   2.511   8.102   5.640 -2.2921  0.3059 -0.6915
  682MOL0     H89992   2.314   7.987   5.756 -2.2045  5.0360  0.1050
  682MOL0     H89993   2.288   7.911   5.599 -1.4507 -0.7757  2.2167
  682MOL0     H89994   2.248   8.136   5.500  1.5901  0.5997  0.0879
  682MOL0     H89995   2.307   8.210   5.642  0.5038 -0.4276  0.4577
  682MOL0     H89996   2.126   8.171   5.771 -0.8385  0.1935  0.2319
  682MOL0     H89997   2.052   8.212   5.625  3.1920  2.4219 -0.5879
  682MOL0     H89998   1.951   8.021   5.754 -0.9325 -0.1349 -0.5224
  682MOL0     H89999   2.096   7.926   5.710 -0.9111 -0.8647 -0.9050
  682MOL0     H90000   1.938   7.861   5.533 -0.4124  0.2490 -0.4843
  682MOL0     H90001   2.076   7.945   5.472  0.3902  0.7445 -0.8794
  682MOL0     H90002   1.941   8.154   5.444  0.2104 -0.0975  1.1297
  682MOL0     H90003   1.872   8.011   5.357  1.1901  0.5244 -0.5320
  682MOL0     H90004   1.748   8.110   5.636 -0.8022  0.7969  0.1335
  682MOL0     H90005   1.734   7.961   5.557  1.8691  0.3738  0.3751
  682MOL0     H90006   2.715   8.127   5.742 -0.6145 -1.4845  2.2612
  682MOL0     H90007   2.958   8.090   5.796  0.2313  0.1520 -0.7589
  682MOL0     H90008   3.326   7.855   5.669 -2.5700 -1.1204  1.7388
  682MOL0     H90009   3.559   7.817   5.668 -0.6753  0.8755  0.9237
  682MOL0     H90010   5.454   7.484   5.199 -0.9277  0.9849  0.5965
  682MOL0     H90011   5.688   7.509   5.147 -1.2169 -0.9885 -1.2973
  682MOL0     H90012   6.129   7.515   5.342 -0.5156 -0.5933 -1.0185
  682MOL0     H90013   6.373   7.547   5.279  1.0072  1.8508 -0.6761
  682MOL0     H90014   6.484   7.921   5.051  2.4025  0.2410  0.5285
  682MOL0     H90015   6.456   7.778   4.938 -0.1470 -0.4776 -0.2756
  682MOL0     H90016   6.669   7.912   4.922  2.8483 -0.7989 -1.6127
  682MOL0     H90017   6.708   7.871   5.094 -0.5630  1.3288 -0.8781
  682MOL0     H90018   6.656   7.643   4.909  2.1579 -2.9329  1.5297
  682MOL0     H90019   6.752   7.651   5.056  2.2844 -1.6936 -1.1841
  682MOL0     H90020   6.884   7.634   4.855 -2.6066 -0.0245 -2.3526
  682MOL0     H90021   6.809   7.777   4.791  0.6557 -0.2176 -1.1856
  682MOL0     H90022   7.111   7.974   4.989  0.0825  0.4806  0.4251
  682MOL0     H90023   6.272   7.911   5.077  2.7829 -2.8004 -3.3578
  682MOL0     H90024   6.037   7.880   5.124  1.0722  0.8880  0.5117
  683MOL0     O90025   9.859   4.592   7.975 -0.4811  0.4978 -0.7125
  683MOL0     C90026   9.903   4.641   8.081 -0.3797  0.1033 -0.3252
  683MOL0     O90027   9.826   4.710   8.167 -0.0373 -0.0189 -0.7031
  683MOL0     C90028   9.697   4.720   8.150  0.1807  0.3862  0.4067
  683MOL0     C90029   9.646   4.825   8.068  0.1727  0.2359 -0.3154
  683MOL0     C90030   9.510   4.858   8.067 -0.3465  0.3607 -0.2243
  683MOL0     C90031   9.416   4.768   8.145 -0.7080  0.1324  0.2458
  683MOL0     O90032   9.281   4.803   8.141 -0.3808  0.1797  0.5376
  683MOL0     C90033   9.219   4.774   8.009 -0.6291  0.0800 -0.1895
  683MOL0     C90034   9.074   4.736   8.026  0.4426 -0.4200  0.4899
  683MOL0     C90035   8.982   4.848   8.075 -0.4999  0.6296  0.2283
  683MOL0     C90036   8.841   4.786   8.082  0.1724 -0.1670 -0.2833
  683MOL0     C90037   8.737   4.897   8.103 -0.2164  0.0079  0.5154
  683MOL0     C90038   8.620   4.848   8.193 -1.2692  0.2385  0.0049
  683MOL0     C90039   8.535   4.738   8.130  0.4370 -0.6061 -0.0832
  683MOL0     C90040   8.431   4.681   8.216  1.1844 -0.4706 -0.8320
  683MOL0     N90041   8.310   4.770   8.218  0.4560  0.6825 -0.0030
  683MOL0     C90042   8.294   4.886   8.293 -0.1428  0.2890  0.1354
  683MOL0     C90043   8.178   4.934   8.256 -0.4884 -0.1562 -0.2485
  683MOL0     C90044   8.109   5.047   8.326 -0.1914  0.7589  1.0669
  683MOL0     C90045   7.968   5.057   8.265 -0.4689  0.9053  0.4335
  683MOL0     C90046   7.887   5.136   8.365 -0.2007  1.0392 -1.0917
  683MOL0     C90047   7.741   5.144   8.317  0.2153 -0.7252  0.2637
  683MOL0     O90048   7.681   5.248   8.396  0.2560  0.2641 -0.8746
  683MOL0     C90049   7.550   5.272   8.393 -0.7730 -0.7130 -0.2217
  683MOL0     C90050   7.504   5.367   8.491 -0.1296  0.6925  0.6999
  683MOL0     C90051   7.374   5.416   8.492 -0.1612  0.5941 -0.0157
  683MOL0     C90052   7.283   5.374   8.397 -0.7026 -0.5283 -0.9596
  683MOL0     C90053   7.138   5.422   8.404  0.0341  0.4346 -0.6207
  683MOL0     O90054   7.108   5.501   8.519  0.1565  0.5702 -0.0322
  683MOL0     C90055   6.979   5.518   8.537  0.6128  0.3821 -1.5373
  683MOL0     C90056   6.901   5.427   8.605 -0.7888  0.4013  0.2619
  683MOL0     C90057   6.764   5.452   8.624  0.2875 -0.3965  0.4096
  683MOL0     C90058   6.701   5.565   8.573 -0.5415  1.6342 -0.0649
  683MOL0     O90059   6.562   5.575   8.585  0.2607  0.1195  0.8185
  683MOL0     C90060   6.483   5.673   8.505 -0.4651 -0.0824  0.2900
  683MOL0     C90061   6.342   5.696   8.557 -0.5181 -0.1993  0.4726
  683MOL0     C90062   6.242   5.603   8.498 -0.7218  0.0747 -0.8786
  683MOL0     C90063   6.286   5.458   8.521 -0.1089  0.3918 -0.8340
  683MOL0     C90064   6.170   5.360   8.489  0.0144  0.2087 -0.4137
  683MOL0     C90065   6.062   5.350   8.597 -0.2081  0.3091  0.0946
  683MOL0     C90066   5.946   5.255   8.549  0.0634  0.5252 -0.1522
  683MOL0     C90067   5.824   5.240   8.646 -0.2728 -0.7417  0.0789
  683MOL0    Cl90068   5.880   5.180   8.801  0.1101  0.3370  0.0687
  683MOL0     C90069   6.786   5.674   8.537  0.6609  0.7602  0.2799
  683MOL0     C90070   6.915   5.637   8.503  0.2562 -0.2127 -0.1758
  683MOL0     O90071   7.058   5.389   8.316  0.0672  0.6585 -0.4956
  683MOL0     C90072   7.320   5.268   8.309 -0.3601  0.3665  0.4795
  683MOL0     C90073   7.452   5.228   8.301 -0.9932 -0.0797 -0.5208
  683MOL0     N90074   8.118   4.848   8.160 -0.3279 -0.1815  0.5239
  683MOL0     N90075   8.203   4.753   8.143 -0.3136 -0.1111  1.3356
  683MOL0     C90076   9.476   4.669   8.228  1.0485  0.4151 -0.5407
  683MOL0     C90077   9.610   4.647   8.230 -0.5590 -0.1547 -0.8007
  683MOL0     C90078  10.047   4.635   8.106  0.2328 -0.5691 -0.4203
  683MOL0     C90079  10.122   4.529   8.053  0.0089  0.0544 -0.5901
  683MOL0     C90080  10.259   4.516   8.082 -0.8836  0.1968  1.5440
  683MOL0     C90081  10.323   4.613   8.165 -0.3636 -0.4877  0.0026
  683MOL0     O90082  10.455   4.616   8.198 -0.1855 -0.2984  0.2282
  683MOL0     C90083  10.551   4.523   8.137  0.0618  0.1488 -0.3583
  683MOL0     C90084  10.698   4.527   8.189  0.3252 -0.4311 -0.3362
  683MOL0     C90085  10.713   4.517   8.339  0.4565  0.3920 -0.5576
  683MOL0     C90086  10.859   4.576   8.379 -0.4244 -0.8310 -0.8978
  683MOL0     C90087  10.968   4.500   8.311 -0.4334 -0.0336 -0.1629
  683MOL0     C90088  11.055   4.433   8.254 -0.0108 -0.1376 -0.6544
  683MOL0     C90089  10.248   4.725   8.216  0.0535 -0.3250  0.0168
  683MOL0     C90090  10.110   4.735   8.180 -0.2191 -0.0201  0.9178
  683MOL0     H90091   9.708   4.893   8.010  0.0656  0.5835 -0.0210
  683MOL0     H90092   9.468   4.940   8.010 -0.8690  0.0882 -0.2277
  683MOL0     H90093   9.274   4.700   7.950 -0.3245 -0.2269  0.4674
  683MOL0     H90094   9.228   4.860   7.943  1.2807  0.0236 -0.0443
  683MOL0     H90095   9.058   4.653   8.096 -0.0886  0.1635  1.0726
  683MOL0     H90096   9.025   4.693   7.937 -0.3451  0.5933  0.4190
  683MOL0     H90097   8.967   4.931   8.005 -2.1340 -0.1926 -0.4657
  683MOL0     H90098   9.009   4.867   8.179  1.1601 -0.6164  0.0715
  683MOL0     H90099   8.811   4.723   7.998 -0.4708  0.2085 -0.3443
  683MOL0     H90100   8.839   4.718   8.168  1.2343 -0.9760 -0.8797
  683MOL0     H90101   8.695   4.938   8.011  2.1101 -0.5909 -0.9013
  683MOL0     H90102   8.794   4.980   8.146  3.7107 -2.1690  0.0025
  683MOL0     H90103   8.560   4.933   8.225 -0.5700  0.1223  1.7623
  683MOL0     H90104   8.673   4.810   8.281  1.6739 -2.6110 -2.7145
  683MOL0     H90105   8.486   4.761   8.035 -2.1764 -1.3755  0.9914
  683MOL0     H90106   8.604   4.658   8.102 -0.7318 -1.0634 -1.8200
  683MOL0     H90107   8.460   4.674   8.321  1.5794 -0.2419 -0.9266
  683MOL0     H90108   8.390   4.584   8.184 -0.5056 -0.7320  1.8497
  683MOL0     H90109   8.362   4.921   8.369 -1.3280  2.2597  0.3423
  683MOL0     H90110   8.162   5.141   8.310  1.0617 -0.1216 -0.2325
  683MOL0     H90111   8.107   5.020   8.432 -4.0593  0.7737  1.1307
  683MOL0     H90112   7.924   4.957   8.262 -0.9883  1.1132  0.8783
  683MOL0     H90113   7.965   5.092   8.162 -0.5925 -1.6285 -0.4946
  683MOL0     H90114   7.893   5.094   8.466  0.2946 -0.9348 -1.8889
  683MOL0     H90115   7.910   5.242   8.353 -0.3647  1.4569  1.6816
  683MOL0     H90116   7.687   5.050   8.331 -1.4022  0.1596  0.1975
  683MOL0     H90117   7.730   5.183   8.216 -1.6232 -0.2099  0.6165
  683MOL0     H90118   7.581   5.408   8.556  2.1055  0.5993 -1.7231
  683MOL0     H90119   7.345   5.493   8.563 -0.5956 -0.3150  0.8329
  683MOL0     H90120   6.949   5.336   8.641 -0.2225  0.8064  0.5633
  683MOL0     H90121   6.698   5.371   8.654 -2.1326  0.2700 -2.6320
  683MOL0     H90122   6.478   5.629   8.405 -2.6135  1.1200 -0.1817
  683MOL0     H90123   6.531   5.772   8.510 -2.4356  0.9490 -0.2607
  683MOL0     H90124   6.323   5.800   8.526  3.2151 -0.0882 -1.9655
  683MOL0     H90125   6.344   5.685   8.665 -0.3605 -1.7204  0.3327
  683MOL0     H90126   6.228   5.606   8.390 -1.4331  0.4800 -0.7760
  683MOL0     H90127   6.146   5.619   8.547  0.4631 -0.6909  1.9034
  683MOL0     H90128   6.359   5.431   8.444  1.1058  1.2948 -0.0282
  683MOL0     H90129   6.325   5.435   8.620 -1.6838  2.3978  0.3463
  683MOL0     H90130   6.211   5.261   8.469 -1.2167 -0.9575  2.3304
  683MOL0     H90131   6.128   5.391   8.393  2.3958 -0.8588 -1.9132
  683MOL0     H90132   6.017   5.449   8.613  1.8184  1.7756 -2.3288
  683MOL0     H90133   6.097   5.316   8.694 -1.1946 -1.2962 -0.0760
  683MOL0     H90134   5.913   5.280   8.448 -2.7144 -0.3835  0.4275
  683MOL0     H90135   5.979   5.151   8.546 -1.3606  0.0384  0.1043
  683MOL0     H90136   5.759   5.167   8.597 -0.8198 -0.8882  1.0186
  683MOL0     H90137   5.766   5.330   8.669 -0.4678 -0.7879 -0.2237
  683MOL0     H90138   6.741   5.769   8.510 -1.5616 -0.2501  0.1832
  683MOL0     H90139   6.976   5.712   8.453  2.3713 -0.6852  1.5230
  683MOL0     H90140   7.250   5.222   8.240  2.2154  0.0839 -2.1001
  683MOL0     H90141   7.487   5.155   8.228  2.8579  0.9495  0.0603
  683MOL0     H90142   9.409   4.610   8.290 -1.9702  0.0402 -3.8371
  683MOL0     H90143   9.664   4.587   8.303  2.0008 -0.6303 -2.9285
  683MOL0     H90144  10.074   4.458   7.988 -1.0949  1.3763 -1.2616
  683MOL0     H90145  10.313   4.428   8.051 -1.1853  0.0917  1.3094
  683MOL0     H90146  10.558   4.536   8.029  0.0787  2.9045 -0.1153
  683MOL0     H90147  10.507   4.425   8.156  2.0882 -0.6362  0.5445
  683MOL0     H90148  10.757   4.448   8.140  1.7427  1.2163 -1.4170
  683MOL0     H90149  10.739   4.625   8.161 -0.0472 -0.3520 -0.6014
  683MOL0     H90150  10.697   4.414   8.370  1.5471  0.5719  0.7127
  683MOL0     H90151  10.637   4.575   8.393 -0.2779  0.4987 -1.6785
  683MOL0     H90152  10.860   4.680   8.344  0.7290  0.5609  2.8438
  683MOL0     H90153  10.861   4.563   8.487 -3.3591 -4.4411 -1.0880
  683MOL0     H90154  11.127   4.367   8.210  1.6138  0.6042  0.8110
  683MOL0     H90155  10.293   4.807   8.270  0.0502  1.2585 -2.2425
  683MOL0     H90156  10.057   4.825   8.210  1.1102  1.0571  0.1794
  684MOL0     O90157   2.128   9.188   9.359 -0.3733  0.3444  0.2266
  684MOL0     C90158   2.186   9.079   9.364 -0.1282  1.0595  0.0868
  684MOL0     O90159   2.133   8.967   9.401  0.6667 -0.7073 -0.0560
  684MOL0     C90160   1.999   8.975   9.438 -1.5238  0.9226  0.8733
  684MOL0     C90161   1.903   8.976   9.343 -0.4113 -0.0724  0.5701
  684MOL0     C90162   1.767   8.971   9.381 -0.3693  0.0131  0.1664
  684MOL0     C90163   1.735   8.967   9.518  0.1383  0.6780 -0.4373
  684MOL0     O90164   1.601   8.983   9.545 -0.1997  0.1878  0.1330
  684MOL0     C90165   1.550   8.971   9.675  0.8186  0.0377  0.8724
  684MOL0     C90166   1.403   9.010   9.688 -0.2628 -0.3093  0.0718
  684MOL0     C90167   1.311   8.877   9.711  0.8663 -0.5748  0.3630
  684MOL0     C90168   1.159   8.889   9.719 -0.2488 -0.7485  0.6131
  684MOL0     C90169   1.090   8.766   9.776  0.0013  0.3051  0.2768
  684MOL0     C90170   0.937   8.795   9.786  0.2869 -0.5011 -0.5021
  684MOL0     C90171   0.867   8.675   9.862 -0.0288  0.3001 -0.3773
  684MOL0     C90172   0.805   8.720   9.997 -0.3669 -0.6670  0.5474
  684MOL0     N90173   0.901   8.784  10.089 -0.7034 -0.4290 -0.0628
  684MOL0     C90174   1.010   8.729  10.151 -0.2536  0.0929 -0.7238
  684MOL0     C90175   1.060   8.831  10.228  0.1592  0.3550 -0.8490
  684MOL0     C90176   1.171   8.806  10.326 -0.6928  0.8198  0.8885
  684MOL0     C90177   1.299   8.767  10.248 -0.2200 -0.4458  0.3355
  684MOL0     C90178   1.327   8.618  10.243  0.1607 -0.0458 -0.1512
  684MOL0     C90179   1.465   8.585  10.185 -0.0774 -0.5402  0.7230
  684MOL0     O90180   1.522   8.690  10.101 -0.2919  0.2950 -0.1197
  684MOL0     C90181   1.657   8.681  10.072 -0.0827 -0.2645 -0.3810
  684MOL0     C90182   1.731   8.566  10.064  0.8221 -0.0677  0.1309
  684MOL0     C90183   1.862   8.567  10.016 -0.3403  0.0012 -0.2562
  684MOL0     C90184   1.925   8.683   9.969 -0.5248  0.7077 -0.0238
  684MOL0     C90185   2.061   8.678   9.903 -0.5312 -0.3805  0.7422
  684MOL0     O90186   2.117   8.800   9.866  0.5690  0.0326  0.4017
  684MOL0     C90187   2.242   8.794   9.807 -0.6689 -0.4673 -0.6047
  684MOL0     C90188   2.280   8.718   9.692 -0.8973 -1.3611  0.1260
  684MOL0     C90189   2.409   8.708   9.641  0.3783 -0.6920  0.5554
  684MOL0     C90190   2.512   8.790   9.697 -0.1735  0.6292 -0.5193
  684MOL0     O90191   2.639   8.791   9.637  0.1207  0.1283  0.4750
  684MOL0     C90192   2.745   8.847   9.711  1.0947 -0.2648  0.0316
  684MOL0     C90193   2.870   8.771   9.659 -0.7064 -0.0514  0.3123
  684MOL0     C90194   2.998   8.783   9.737 -1.0935  0.5777 -0.3622
  684MOL0     C90195   3.109   8.702   9.672 -0.8239  0.9143  0.4197
  684MOL0     C90196   3.231   8.670   9.758 -0.0596 -0.2820  0.3236
  684MOL0     C90197   3.349   8.621   9.676 -0.0307  0.3169 -1.1614
  684MOL0     C90198   3.460   8.559   9.761  0.0326  0.2303  0.2891
  684MOL0     C90199   3.583   8.547   9.672 -0.2258  0.7793 -0.8094
  684MOL0    Cl90200   3.655   8.712   9.640 -0.0147 -0.0250  0.3304
  684MOL0     C90201   2.469   8.878   9.806  0.5141  0.1809  0.6263
  684MOL0     C90202   2.335   8.882   9.857 -0.4544  0.0861 -0.5804
  684MOL0     O90203   2.114   8.572   9.891  0.2542  0.2078 -0.5554
  684MOL0     C90204   1.845   8.803   9.968 -0.9015  0.4147  0.1657
  684MOL0     C90205   1.715   8.799  10.023 -0.2516 -0.9935  1.3522
  684MOL0     N90206   0.989   8.951  10.211  0.3452 -0.2086 -0.5995
  684MOL0     N90207   0.901   8.922  10.125  0.2241  0.0187 -0.1688
  684MOL0     C90208   1.838   8.966   9.618  0.8741  0.2703 -0.5673
  684MOL0     C90209   1.967   8.957   9.572 -0.7864  0.4672 -0.1860
  684MOL0     C90210   2.336   9.077   9.346  0.3313 -0.4580 -0.4765
  684MOL0     C90211   2.414   8.975   9.406 -0.0754 -0.1443 -0.1222
  684MOL0     C90212   2.549   8.976   9.382 -0.3831 -0.3181  0.1126
  684MOL0     C90213   2.605   9.075   9.295 -0.1216  0.2591  0.2620
  684MOL0     O90214   2.728   9.078   9.241  0.1407 -0.4997  0.1709
  684MOL0     C90215   2.819   8.986   9.297  0.7722  1.2370 -0.6339
  684MOL0     C90216   2.959   9.048   9.262  0.8836 -0.7886 -0.2698
  684MOL0     C90217   3.068   8.984   9.335 -0.1976 -0.1777  0.5609
  684MOL0     C90218   3.196   9.059   9.326  0.3907  0.2222  1.3134
  684MOL0     C90219   3.195   9.178   9.411  0.3138 -0.7162  0.1486
  684MOL0     C90220   3.202   9.285   9.473  0.3628 -0.5148  0.1618
  684MOL0     C90221   2.529   9.171   9.251  0.3508  0.0358  0.1174
  684MOL0     C90222   2.394   9.177   9.265 -0.1336  0.4509  0.4452
  684MOL0     H90223   1.934   8.984   9.240 -2.4398  0.6799 -0.0410
  684MOL0     H90224   1.694   8.973   9.301  0.0790  1.6425 -0.2611
  684MOL0     H90225   1.603   9.047   9.732 -0.6347  1.1635  0.7620
  684MOL0     H90226   1.574   8.873   9.718 -0.6573 -0.7486  0.0130
  684MOL0     H90227   1.372   9.071   9.603 -2.6533 -0.4099  0.8057
  684MOL0     H90228   1.393   9.082   9.770 -2.0454 -1.0900  0.5888
  684MOL0     H90229   1.348   8.842   9.807 -1.5313 -0.4976  1.3900
  684MOL0     H90230   1.332   8.797   9.639  2.2225 -0.6018  0.7647
  684MOL0     H90231   1.135   8.975   9.782  0.1166  2.7067 -3.4967
  684MOL0     H90232   1.126   8.908   9.616  0.6107 -1.4930  0.1828
  684MOL0     H90233   1.132   8.735   9.872  1.7201  0.2491 -0.4729
  684MOL0     H90234   1.101   8.684   9.704 -2.6188 -0.2463  0.3722
  684MOL0     H90235   0.890   8.812   9.689 -1.0502  0.9505  0.3425
  684MOL0     H90236   0.935   8.892   9.837  0.4032 -0.5064 -0.4849
  684MOL0     H90237   0.794   8.622   9.801  0.2608 -1.3839  0.6733
  684MOL0     H90238   0.950   8.607   9.883  1.9930  1.9128 -2.6262
  684MOL0     H90239   0.763   8.628  10.038  1.0295 -1.8281 -0.5168
  684MOL0     H90240   0.719   8.782   9.969  0.6422  0.1674 -0.8340
  684MOL0     H90241   1.046   8.626  10.146  2.8160  0.8530  1.9386
  684MOL0     H90242   1.147   8.733  10.404  1.3666  0.6240  1.4177
  684MOL0     H90243   1.188   8.903  10.373  0.3907 -0.5082  3.4581
  684MOL0     H90244   1.378   8.822  10.299  0.4696  1.1176 -2.2151
  684MOL0     H90245   1.308   8.809  10.147  0.9858  0.1403  0.6739
  684MOL0     H90246   1.314   8.566  10.338 -3.0394  1.3255  0.2888
  684MOL0     H90247   1.249   8.575  10.181  1.2561 -2.6673  0.1644
  684MOL0     H90248   1.464   8.502  10.115  0.4720 -0.0365  0.1001
  684MOL0     H90249   1.538   8.556  10.261  0.4641 -0.7226  0.1377
  684MOL0     H90250   1.679   8.473  10.083  2.6652 -0.8612  1.6321
  684MOL0     H90251   1.923   8.477  10.023  1.0693  0.9533  0.1027
  684MOL0     H90252   2.193   8.666   9.653 -2.7142  1.4479  0.1315
  684MOL0     H90253   2.424   8.630   9.568  0.2185 -0.9496  0.7954
  684MOL0     H90254   2.732   8.834   9.819 -1.5509 -2.7457 -0.4532
  684MOL0     H90255   2.755   8.949   9.674  1.8438  0.0174  0.9779
  684MOL0     H90256   2.881   8.810   9.558  0.6502 -0.4826  0.2761
  684MOL0     H90257   2.851   8.664   9.646  2.3083 -1.0169  2.5798
  684MOL0     H90258   2.982   8.748   9.839  0.4161  1.7166  0.3088
  684MOL0     H90259   3.030   8.888   9.740 -0.1603  0.2714  1.3724
  684MOL0     H90260   3.076   8.602   9.642  1.5046  0.1625  0.1363
  684MOL0     H90261   3.131   8.750   9.576  0.9357 -0.2718  0.1815
  684MOL0     H90262   3.192   8.595   9.827 -1.7938  0.4991  0.2413
  684MOL0     H90263   3.260   8.760   9.812  4.2104 -1.1059 -0.1595
  684MOL0     H90264   3.386   8.684   9.595  2.4519 -0.5698 -0.7944
  684MOL0     H90265   3.317   8.535   9.617  0.7797  1.0630 -2.7641
  684MOL0     H90266   3.485   8.632   9.839 -0.8888  2.0236 -0.9938
  684MOL0     H90267   3.425   8.466   9.807 -1.0990  0.3919 -0.2097
  684MOL0     H90268   3.553   8.484   9.588 -2.0672 -0.0545  0.3972
  684MOL0     H90269   3.650   8.477   9.723  0.7268 -1.5436 -4.8059
  684MOL0     H90270   2.539   8.946   9.854 -0.3263  0.4141  1.5365
  684MOL0     H90271   2.317   8.948   9.941  2.8408  2.9534 -1.8781
  684MOL0     H90272   1.887   8.898   9.936 -0.5297  0.2810  0.2454
  684MOL0     H90273   1.661   8.893  10.031 -1.9069 -1.6473 -0.8603
  684MOL0     H90274   1.811   8.959   9.723 -0.0733 -1.0569 -0.8682
  684MOL0     H90275   2.046   8.951   9.647 -2.5797  1.6145  1.9112
  684MOL0     H90276   2.376   8.908   9.482 -1.9557  0.7857 -0.1790
  684MOL0     H90277   2.616   8.901   9.423  0.4342  0.7990  0.9003
  684MOL0     H90278   2.803   8.888   9.251 -1.1724  0.8003  0.8404
  684MOL0     H90279   2.806   8.985   9.406 -0.1192  1.8878 -0.7191
  684MOL0     H90280   2.975   9.052   9.154 -2.0871 -0.2400 -0.7832
  684MOL0     H90281   2.945   9.151   9.294 -0.4836 -1.1082  0.2454
  684MOL0     H90282   3.088   8.885   9.295  0.3158  1.0335 -2.4387
  684MOL0     H90283   3.050   8.981   9.443  0.0533 -0.6136  0.5889
  684MOL0     H90284   3.283   8.999   9.356 -0.2734 -2.6719 -1.9361
  684MOL0     H90285   3.215   9.093   9.224  2.1396  0.5445  1.7042
  684MOL0     H90286   3.206   9.384   9.516  0.3075 -0.0578 -0.8496
  684MOL0     H90287   2.568   9.254   9.192  0.9842 -0.8132 -0.6896
  684MOL0     H90288   2.334   9.256   9.219 -0.4098 -0.5168 -0.9214
  685MOL0     O90289   0.453   1.410   1.551 -0.1032  0.3522 -0.5963
  685MOL0     C90290   0.558   1.426   1.490  0.6302 -0.1182 -0.0050
  685MOL0     O90291   0.564   1.446   1.359 -0.5201  0.5359  0.2908
  685MOL0     C90292   0.462   1.421   1.275 -0.3662  0.2063  0.5865
  685MOL0     C90293   0.386   1.523   1.237  0.2048  0.4378  0.0828
  685MOL0     C90294   0.294   1.516   1.131  0.3109  0.4243  0.3622
  685MOL0     C90295   0.285   1.399   1.061 -0.4285 -0.2448 -0.1014
  685MOL0     O90296   0.206   1.383   0.948  0.0828  0.1048  0.5219
  685MOL0     C90297   0.156   1.504   0.885  0.7849 -0.0874  0.0331
  685MOL0     C90298   0.053   1.479   0.776  0.4539  0.3773 -0.5960
  685MOL0     C90299  -0.087   1.441   0.832 -0.2484  0.3831 -0.0296
  685MOL0     C90300  -0.189   1.436   0.716 -0.9320 -0.5360 -0.4798
  685MOL0     C90301  -0.329   1.404   0.775 -0.0693 -0.0544 -0.5053
  685MOL0     C90302  -0.434   1.408   0.668  0.4958  0.5534  0.0966
  685MOL0     C90303  -0.574   1.361   0.724 -0.9147  0.1490 -0.2202
  685MOL0     C90304  -0.689   1.396   0.624 -0.3907 -0.1226  0.1599
  685MOL0     N90305  -0.815   1.381   0.688  0.4756  0.0371  0.4596
  685MOL0     C90306  -0.861   1.455   0.793 -0.4499  0.0551  0.0820
  685MOL0     C90307  -0.970   1.385   0.825 -0.2398 -1.0085  0.5546
  685MOL0     C90308  -1.056   1.404   0.944  0.6282  0.2663 -0.5245
  685MOL0     C90309  -0.988   1.325   1.069  0.8702 -0.0153 -0.6893
  685MOL0     C90310  -0.923   1.413   1.172  0.6459 -0.0260 -0.0631
  685MOL0     C90311  -0.807   1.495   1.125 -0.4526 -0.6179 -0.2228
  685MOL0     O90312  -0.704   1.418   1.070 -0.2014 -0.3315 -0.5199
  685MOL0     C90313  -0.575   1.441   1.106  0.2607 -0.1273 -0.0997
  685MOL0     C90314  -0.514   1.548   1.044 -0.2609  0.5628 -0.1363
  685MOL0     C90315  -0.392   1.589   1.088 -0.7872  0.5980  0.7032
  685MOL0     C90316  -0.324   1.527   1.193  0.3713 -0.4105  0.6425
  685MOL0     C90317  -0.201   1.565   1.262  0.3508 -0.6832  0.6352
  685MOL0     O90318  -0.120   1.468   1.322  0.2112 -1.0492  0.3058
  685MOL0     C90319  -0.035   1.511   1.419 -0.4568 -0.3173 -0.0423
  685MOL0     C90320  -0.054   1.469   1.557  0.2870 -0.6280  0.1640
  685MOL0     C90321   0.027   1.499   1.664 -0.1352  0.3659  0.2921
  685MOL0     C90322   0.136   1.580   1.639 -0.8668 -0.1211 -0.4905
  685MOL0     O90323   0.211   1.632   1.741  0.9623 -0.3867 -0.1369
  685MOL0     C90324   0.345   1.600   1.757 -0.1966 -0.3237 -0.6253
  685MOL0     C90325   0.370   1.659   1.894 -0.1289 -0.1766  0.2157
  685MOL0     C90326   0.515   1.618   1.942  0.0154  1.0991  0.6203
  685MOL0     C90327   0.545   1.716   2.046 -0.1354 -0.0716 -0.1642
  685MOL0     C90328   0.673   1.679   2.122  0.5269  0.3706 -0.7845
  685MOL0     C90329   0.729   1.781   2.215 -0.0397 -0.1922 -0.2292
  685MOL0     C90330   0.864   1.737   2.263  0.0889 -0.9953 -0.4846
  685MOL0     C90331   0.903   1.811   2.395 -0.1016  0.0277 -0.4510
  685MOL0    Cl90332   0.884   1.984   2.388  0.1925 -0.1189 -0.1908
  685MOL0     C90333   0.156   1.632   1.509  0.2912 -0.0377 -1.1160
  685MOL0     C90334   0.069   1.612   1.403  0.0367 -0.0465 -0.4855
  685MOL0     O90335  -0.181   1.689   1.256 -0.2062 -0.1560  0.2540
  685MOL0     C90336  -0.388   1.410   1.243 -0.8175 -0.1040 -0.7502
  685MOL0     C90337  -0.517   1.367   1.204  0.4288  0.7512 -0.0207
  685MOL0     N90338  -0.990   1.279   0.736  0.0656  0.5450 -0.0860
  685MOL0     N90339  -0.897   1.283   0.651  0.5487 -0.2369  0.0586
  685MOL0     C90340   0.356   1.287   1.108 -0.3611  0.2239  0.4203
  685MOL0     C90341   0.448   1.295   1.218  0.6400  0.3917 -0.4314
  685MOL0     C90342   0.692   1.415   1.558 -0.6289  0.4861 -0.8000
  685MOL0     C90343   0.686   1.402   1.696  0.1051 -0.1331  0.4283
  685MOL0     C90344   0.805   1.399   1.768 -0.3498 -0.2297 -0.0615
  685MOL0     C90345   0.931   1.423   1.700 -0.6726  0.0076 -0.3774
  685MOL0     O90346   1.058   1.422   1.761  0.1074  0.1313  0.1036
  685MOL0     C90347   1.060   1.412   1.902  1.1716 -0.4664 -0.0083
  685MOL0     C90348   1.193   1.436   1.974 -0.1679  1.0770  0.3244
  685MOL0     C90349   1.178   1.394   2.121  0.4510 -1.3472 -0.2394
  685MOL0     C90350   1.145   1.520   2.202  0.3053 -0.2692 -1.1820
  685MOL0     C90351   1.115   1.488   2.350 -0.5719 -0.4022 -0.1960
  685MOL0     C90352   1.085   1.470   2.465  0.9926  0.4743  0.8693
  685MOL0     C90353   0.933   1.428   1.557  0.5530  0.3306  0.0714
  685MOL0     C90354   0.814   1.423   1.480  1.3036  0.2832 -1.4920
  685MOL0     H90355   0.398   1.613   1.296  0.4104 -0.6809  1.8140
  685MOL0     H90356   0.238   1.606   1.106 -0.9254  0.0855  1.7320
  685MOL0     H90357   0.240   1.568   0.858 -0.4905  1.0623 -1.3297
  685MOL0     H90358   0.097   1.561   0.958  0.0478 -0.4073 -0.3038
  685MOL0     H90359   0.081   1.407   0.699  0.8029 -0.3196  0.1732
  685MOL0     H90360   0.041   1.579   0.731  0.1544  0.8780  0.5680
  685MOL0     H90361  -0.121   1.516   0.903 -1.6662  0.1409 -0.4285
  685MOL0     H90362  -0.085   1.345   0.884 -1.0412  0.8154  0.8103
  685MOL0     H90363  -0.190   1.531   0.660 -1.8851 -0.5686 -0.5322
  685MOL0     H90364  -0.164   1.357   0.645 -0.5630 -1.4798  0.6818
  685MOL0     H90365  -0.343   1.471   0.861 -0.3697 -0.2124 -0.4274
  685MOL0     H90366  -0.318   1.303   0.815 -0.6134 -0.2767 -0.9009
  685MOL0     H90367  -0.396   1.345   0.587 -0.5954 -1.3275  0.9939
  685MOL0     H90368  -0.445   1.507   0.622 -1.9628 -0.7010 -2.2710
  685MOL0     H90369  -0.574   1.253   0.745  0.2129  0.2544  0.4037
  685MOL0     H90370  -0.588   1.419   0.816 -0.0104 -3.2499  2.2757
  685MOL0     H90371  -0.681   1.323   0.543  0.2301  0.6465 -0.4956
  685MOL0     H90372  -0.672   1.497   0.585  0.1598  0.1107  0.9932
  685MOL0     H90373  -0.815   1.535   0.850 -1.2749 -0.2564  1.2008
  685MOL0     H90374  -1.151   1.354   0.926  1.0141 -1.9674  2.7622
  685MOL0     H90375  -1.071   1.509   0.970  1.1016  0.0469  0.7068
  685MOL0     H90376  -0.925   1.245   1.029 -0.5065 -0.0729 -2.9146
  685MOL0     H90377  -1.066   1.270   1.122  2.9671 -1.9101  0.5693
  685MOL0     H90378  -0.996   1.479   1.221  0.6138 -1.1615  1.5255
  685MOL0     H90379  -0.893   1.346   1.254  2.4120 -0.9852 -1.4343
  685MOL0     H90380  -0.772   1.552   1.212 -0.7591  1.0853 -1.1532
  685MOL0     H90381  -0.844   1.569   1.053  0.8633 -0.6093 -0.9366
  685MOL0     H90382  -0.576   1.586   0.963 -2.0703  0.4131  1.1239
  685MOL0     H90383  -0.356   1.674   1.032  1.3266  0.2091  1.3807
  685MOL0     H90384  -0.143   1.412   1.583  0.3782 -1.6953 -1.6944
  685MOL0     H90385   0.009   1.462   1.765  1.9051  1.6186  1.1849
  685MOL0     H90386   0.413   1.637   1.679 -0.0962  0.1049 -0.3401
  685MOL0     H90387   0.358   1.492   1.761  0.5842 -0.2040  0.6929
  685MOL0     H90388   0.297   1.616   1.963  1.0539 -1.6080  0.6238
  685MOL0     H90389   0.371   1.767   1.874  3.8851 -0.4135 -1.8536
  685MOL0     H90390   0.590   1.628   1.864  1.6255 -2.5942  1.4365
  685MOL0     H90391   0.516   1.512   1.969 -2.6055  1.0544  0.8264
  685MOL0     H90392   0.553   1.817   2.005  2.6243  1.0561  2.7385
  685MOL0     H90393   0.463   1.730   2.118 -0.9586  0.1512 -1.1247
  685MOL0     H90394   0.750   1.663   2.046  0.4489  3.8588 -1.8020
  685MOL0     H90395   0.658   1.589   2.182  0.3671 -2.1549 -4.3610
  685MOL0     H90396   0.657   1.800   2.295 -1.2056  3.0831 -1.9054
  685MOL0     H90397   0.741   1.878   2.166  1.7372 -0.6192 -0.7093
  685MOL0     H90398   0.873   1.631   2.291  2.9765 -0.7523 -0.2527
  685MOL0     H90399   0.935   1.762   2.184  0.5192  1.0447  0.4739
  685MOL0     H90400   1.007   1.787   2.419 -0.3602  0.1581  0.8408
  685MOL0     H90401   0.857   1.770   2.485 -0.2463 -1.7371 -1.2770
  685MOL0     H90402   0.237   1.701   1.491 -0.7356  1.4743 -0.1464
  685MOL0     H90403   0.080   1.659   1.305 -2.7085  1.9871  0.0401
  685MOL0     H90404  -0.351   1.350   1.325 -2.5530 -0.0453  0.1366
  685MOL0     H90405  -0.571   1.286   1.251  0.1194  0.5876 -0.6510
  685MOL0     H90406   0.331   1.193   1.061 -1.5825  0.2955  0.8979
  685MOL0     H90407   0.499   1.203   1.246  1.2630 -0.4893 -3.9520
  685MOL0     H90408   0.592   1.397   1.749  0.5165 -1.8196  1.0608
  685MOL0     H90409   0.795   1.388   1.876 -0.6033  0.6022  0.0064
  685MOL0     H90410   1.022   1.312   1.923 -1.4105  0.1143 -1.5066
  685MOL0     H90411   0.980   1.477   1.938  1.0809 -0.9239  0.6397
  685MOL0     H90412   1.274   1.382   1.923  0.0744  3.0282 -1.5083
  685MOL0     H90413   1.226   1.540   1.977  4.7017 -0.1893 -0.8837
  685MOL0     H90414   1.267   1.341   2.156  0.3785 -0.5157  1.2940
  685MOL0     H90415   1.091   1.329   2.128 -1.8358  1.4235 -1.1171
  685MOL0     H90416   1.216   1.601   2.219  1.9743 -2.1515  1.5354
  685MOL0     H90417   1.054   1.564   2.158 -1.0402 -1.5874  0.1632
  685MOL0     H90418   1.038   1.453   2.560 -0.3460 -1.1136 -0.0185
  685MOL0     H90419   1.027   1.422   1.502  0.1058  2.1328 -0.9798
  685MOL0     H90420   0.808   1.437   1.372 -0.6853  1.0459 -1.3164
  686MOL0     O90421  10.452   6.991   4.310  0.3067 -0.1498  0.4171
  686MOL0     C90422  10.382   7.076   4.374 -0.5752 -0.8464  0.0953
  686MOL0     O90423  10.424   7.198   4.425  0.0404  0.7482  0.1506
  686MOL0     C90424  10.546   7.254   4.399  0.9501  0.0693  0.5094
  686MOL0     C90425  10.658   7.198   4.338  0.0885 -0.7203 -0.0777
  686MOL0     C90426  10.784   7.265   4.334 -0.7094 -0.6554  0.0588
  686MOL0     C90427  10.800   7.394   4.389 -0.4173  0.3889 -0.0000
  686MOL0     O90428  10.916   7.468   4.382 -0.3078  0.3523 -0.5017
  686MOL0     C90429  11.040   7.402   4.334  0.2552 -0.3383  0.4836
  686MOL0     C90430  11.162   7.488   4.349 -0.8254 -0.6280  0.2080
  686MOL0     C90431  11.286   7.401   4.330 -0.3386 -0.6949 -0.5905
  686MOL0     C90432  11.317   7.346   4.190 -0.1124 -0.4362 -0.2447
  686MOL0     C90433  11.450   7.404   4.130 -0.3385  0.4573  0.4062
  686MOL0     C90434  11.468   7.341   3.996  0.0966  0.0175  0.4870
  686MOL0     C90435  11.468   7.187   3.995  0.5115  0.0964  0.8656
  686MOL0     C90436  11.575   7.138   3.893 -0.0864 -0.4533 -0.5744
  686MOL0     N90437  11.570   6.986   3.876 -0.4514  0.6091  0.0344
  686MOL0     C90438  11.499   6.904   3.793  0.3536 -0.3846 -0.5315
  686MOL0     C90439  11.538   6.780   3.827 -0.0366 -0.0036 -0.3754
  686MOL0     C90440  11.488   6.645   3.775 -0.7545  0.2154 -0.2277
  686MOL0     C90441  11.357   6.588   3.842 -0.6139  0.0274  0.4895
  686MOL0     C90442  11.383   6.555   3.997  0.4148 -0.8602  0.6594
  686MOL0     C90443  11.480   6.438   4.024 -0.1758 -0.1694  0.1602
  686MOL0     O90444  11.467   6.410   4.164 -0.3408 -0.9965  0.0647
  686MOL0     C90445  11.356   6.337   4.192 -0.4776  0.0301 -0.7070
  686MOL0     C90446  11.327   6.204   4.145  0.3146 -0.1263  0.5658
  686MOL0     C90447  11.215   6.135   4.198 -0.2589 -0.1617  0.0589
  686MOL0     C90448  11.119   6.203   4.288  0.0221 -0.5417  0.9544
  686MOL0     C90449  10.992   6.132   4.325  0.0213 -0.5328  0.1005
  686MOL0     O90450  10.883   6.213   4.326 -0.1275  0.6273  0.6722
  686MOL0     C90451  10.758   6.156   4.337 -0.3049  0.4129  0.9884
  686MOL0     C90452  10.712   6.046   4.267  0.5932 -0.0907  0.7240
  686MOL0     C90453  10.592   5.988   4.291 -0.4276  0.2790  0.5617
  686MOL0     C90454  10.496   6.058   4.366 -0.5382  0.8071  0.1575
  686MOL0     O90455  10.364   6.020   4.362  0.6936  0.2534 -0.0441
  686MOL0     C90456  10.271   6.123   4.314  0.1493  0.8628 -0.2046
  686MOL0     C90457  10.124   6.077   4.351  0.6409  0.1596  0.4537
  686MOL0     C90458  10.082   5.940   4.284 -0.5884  0.5948 -0.1205
  686MOL0     C90459   9.931   5.917   4.300  0.3270  0.2070  0.1161
  686MOL0     C90460   9.894   5.787   4.215 -0.2499 -0.3336  0.2435
  686MOL0     C90461   9.765   5.726   4.244  0.2984  0.1596  0.2236
  686MOL0     C90462   9.655   5.811   4.192  0.1505 -0.2979  0.8421
  686MOL0     C90463   9.515   5.754   4.224 -0.7344  0.2414 -0.6658
  686MOL0    Cl90464   9.391   5.860   4.165 -0.0606 -0.0357  0.1111
  686MOL0     C90465  10.541   6.162   4.440  0.4147 -0.2197 -0.1370
  686MOL0     C90466  10.669   6.216   4.424  0.4171  0.6262  0.0982
  686MOL0     O90467  11.000   6.011   4.344  0.4861 -0.4908 -0.1615
  686MOL0     C90468  11.147   6.333   4.326 -0.1644  0.4538  0.4349
  686MOL0     C90469  11.270   6.391   4.290  0.9834  0.4173  0.6557
  686MOL0     N90470  11.624   6.791   3.935  0.7416  0.0100 -0.3305
  686MOL0     N90471  11.654   6.912   3.957 -0.2206  0.3204  0.0390
  686MOL0     C90472  10.684   7.449   4.450 -0.3534 -0.7317  0.3059
  686MOL0     C90473  10.561   7.386   4.449  0.0573  0.5122 -0.4107
  686MOL0     C90474  10.250   7.020   4.409  0.2217 -0.3345  0.2313
  686MOL0     C90475  10.196   6.908   4.350  0.9490 -0.6375  0.2464
  686MOL0     C90476  10.083   6.846   4.398 -0.0503 -0.9583 -0.1408
  686MOL0     C90477  10.008   6.897   4.497  0.4122  0.7545  0.7428
  686MOL0     O90478   9.882   6.842   4.543 -0.4849 -0.0705  0.4819
  686MOL0     C90479   9.874   6.696   4.545  0.0203  0.1584 -0.5937
  686MOL0     C90480   9.742   6.652   4.597  0.9180  0.0648 -0.2630
  686MOL0     C90481   9.729   6.673   4.744 -0.6040 -0.6755  0.3473
  686MOL0     C90482   9.596   6.630   4.805 -0.2723 -0.4022  0.2937
  686MOL0     C90483   9.588   6.489   4.798  0.0946  0.8700 -0.4893
  686MOL0     C90484   9.610   6.368   4.801  0.5345 -0.4414 -0.3522
  686MOL0     C90485  10.052   7.017   4.552 -0.2846  0.8458  0.3830
  686MOL0     C90486  10.166   7.084   4.509 -0.2343  0.8087 -1.0351
  686MOL0     H90487  10.658   7.100   4.292  0.3698  0.4208 -2.6506
  686MOL0     H90488  10.863   7.218   4.276 -0.0790 -1.1466  1.2728
  686MOL0     H90489  11.038   7.376   4.228  1.1950 -1.3939  0.7070
  686MOL0     H90490  11.054   7.307   4.386 -0.2815 -1.5126 -1.3967
  686MOL0     H90491  11.161   7.535   4.448 -0.7028 -0.9744  0.3730
  686MOL0     H90492  11.164   7.573   4.280  0.2457  0.9531  2.0871
  686MOL0     H90493  11.272   7.321   4.404 -0.7248  1.2898  1.6006
  686MOL0     H90494  11.369   7.468   4.355 -0.1420 -1.3474  0.5922
  686MOL0     H90495  11.326   7.237   4.188 -0.2494 -0.4662  0.4448
  686MOL0     H90496  11.228   7.370   4.130 -1.1484  0.8949  1.7193
  686MOL0     H90497  11.539   7.378   4.188 -0.6329 -1.7977 -0.0561
  686MOL0     H90498  11.448   7.513   4.118 -1.2073  0.3257 -0.9335
  686MOL0     H90499  11.563   7.374   3.954 -0.7209  0.5033 -1.0671
  686MOL0     H90500  11.396   7.381   3.924 -0.5481 -1.9987 -0.0670
  686MOL0     H90501  11.494   7.137   4.089  0.5840  0.7558  1.2024
  686MOL0     H90502  11.369   7.154   3.965  2.1197 -2.5483 -2.0441
  686MOL0     H90503  11.671   7.163   3.939  1.1470 -3.3752 -1.2775
  686MOL0     H90504  11.571   7.190   3.798  0.1842  0.2790 -0.1912
  686MOL0     H90505  11.440   6.922   3.704 -1.6641 -3.2966  0.0916
  686MOL0     H90506  11.574   6.577   3.779 -0.3369  0.7092 -0.6176
  686MOL0     H90507  11.463   6.655   3.669  0.4681  0.4872 -0.5094
  686MOL0     H90508  11.325   6.498   3.789  1.0814 -0.3926  0.1040
  686MOL0     H90509  11.284   6.667   3.821  0.1892  0.1901 -2.0136
  686MOL0     H90510  11.425   6.648   4.035 -0.1683 -0.2677 -0.1008
  686MOL0     H90511  11.286   6.544   4.046 -0.1265  2.5423  0.5652
  686MOL0     H90512  11.582   6.472   4.007 -0.0110 -0.1711  1.0762
  686MOL0     H90513  11.460   6.343   3.974 -1.7838 -0.7170  1.7188
  686MOL0     H90514  11.384   6.175   4.057 -1.5905  0.4189 -0.9117
  686MOL0     H90515  11.191   6.035   4.164 -0.9212 -0.6213  1.8080
  686MOL0     H90516  10.783   6.008   4.193 -0.1929  0.8951 -0.5828
  686MOL0     H90517  10.562   5.898   4.237  0.0701  0.3383  0.1803
  686MOL0     H90518  10.283   6.135   4.206  0.9552 -2.5599 -0.6087
  686MOL0     H90519  10.296   6.220   4.357  3.4207  0.2974 -0.6338
  686MOL0     H90520  10.050   6.152   4.320 -0.1271 -1.2663 -1.3190
  686MOL0     H90521  10.118   6.056   4.458 -2.1402 -1.3310  0.1023
  686MOL0     H90522  10.130   5.857   4.335 -0.2078 -0.1133 -1.5715
  686MOL0     H90523  10.109   5.941   4.178  4.6052  2.2475  0.9324
  686MOL0     H90524   9.899   5.921   4.405 -0.3417  1.4102 -0.1160
  686MOL0     H90525   9.876   6.004   4.264  0.5925  0.0328 -0.7259
  686MOL0     H90526   9.965   5.706   4.232  1.7773  1.1566 -0.7110
  686MOL0     H90527   9.897   5.819   4.111 -0.1141  3.4598  1.2478
  686MOL0     H90528   9.753   5.715   4.352 -1.4710  0.0264  0.0384
  686MOL0     H90529   9.762   5.628   4.197  3.3080  1.1826 -2.4697
  686MOL0     H90530   9.653   5.915   4.226  0.2151 -0.7691  2.3265
  686MOL0     H90531   9.664   5.815   4.083 -0.3995  4.6754  0.7277
  686MOL0     H90532   9.511   5.736   4.331  1.2521  2.2619 -0.1701
  686MOL0     H90533   9.508   5.664   4.162  3.3739  1.2698 -3.0451
  686MOL0     H90534  10.479   6.228   4.500  0.6817  0.4817 -0.6186
  686MOL0     H90535  10.693   6.301   4.487 -0.6781 -0.9005  2.6934
  686MOL0     H90536  11.084   6.403   4.379  1.1944  2.4536 -0.4791
  686MOL0     H90537  11.277   6.493   4.326  0.5828  0.8593 -0.4548
  686MOL0     H90538  10.694   7.546   4.497  0.1015 -0.0952 -1.0585
  686MOL0     H90539  10.472   7.424   4.498  1.1543 -0.4379  2.6014
  686MOL0     H90540  10.245   6.857   4.268 -1.1002 -2.6660  0.1791
  686MOL0     H90541  10.062   6.745   4.365 -0.2039 -0.9773  0.0153
  686MOL0     H90542   9.961   6.664   4.604  0.9571  1.9208 -0.9500
  686MOL0     H90543   9.897   6.663   4.443  4.1179  2.4939 -0.6666
  686MOL0     H90544   9.660   6.715   4.562 -1.5908 -2.2910  1.0065
  686MOL0     H90545   9.737   6.544   4.580  0.7081 -0.0274  0.3373
  686MOL0     H90546   9.738   6.781   4.760 -1.9748  0.0071 -2.6612
  686MOL0     H90547   9.815   6.626   4.794  0.7440  3.6402  2.5998
  686MOL0     H90548   9.585   6.668   4.907 -1.6656  0.1120 -0.0232
  686MOL0     H90549   9.514   6.680   4.752 -0.7256  1.0943  2.2801
  686MOL0     H90550   9.634   6.264   4.812 -0.9679 -0.6394  1.6380
  686MOL0     H90551  10.000   7.057   4.639  1.1599 -0.6474  1.9884
  686MOL0     H90552  10.201   7.171   4.563  0.9097 -0.3315  0.1353
  687MOL0     O90553   2.653   1.409  10.247 -0.6886  0.1050 -0.0696
  687MOL0     C90554   2.577   1.497  10.284  0.1972  0.3588 -0.5624
  687MOL0     O90555   2.606   1.631  10.287 -0.1232  0.1152 -0.0266
  687MOL0     C90556   2.728   1.661  10.238  0.0451 -0.6476  0.3121
  687MOL0     C90557   2.731   1.708  10.110 -1.0677  0.0744  0.4261
  687MOL0     C90558   2.850   1.757  10.063 -0.3503 -0.5018  0.4466
  687MOL0     C90559   2.964   1.768  10.144 -0.2416  0.3950  0.2502
  687MOL0     O90560   3.065   1.827  10.078 -0.1834 -0.6968  0.1612
  687MOL0     C90561   3.186   1.854  10.139  0.1455 -0.1013  0.8815
  687MOL0     C90562   3.280   1.744  10.087  1.4905 -0.6083 -0.0290
  687MOL0     C90563   3.411   1.745  10.158 -0.2596 -0.2605 -0.1856
  687MOL0     C90564   3.413   1.614  10.241  0.3850 -0.3298 -0.5688
  687MOL0     C90565   3.564   1.596  10.280 -0.1129  0.0226  0.0695
  687MOL0     C90566   3.587   1.493  10.392  0.0968 -0.6152 -0.7381
  687MOL0     C90567   3.740   1.457  10.412  0.0783  0.4275 -0.5227
  687MOL0     C90568   3.762   1.360  10.526 -0.4559  0.0301  0.2375
  687MOL0     N90569   3.691   1.240  10.483  0.1132  0.0384 -0.1985
  687MOL0     C90570   3.599   1.166  10.566  0.2556 -0.0615  0.6426
  687MOL0     C90571   3.586   1.054  10.495  0.0729 -0.2674  0.4460
  687MOL0     C90572   3.496   0.943  10.535 -0.8375  0.0742  0.3856
  687MOL0     C90573   3.358   0.946  10.476  0.3878  0.5879 -0.6055
  687MOL0     C90574   3.274   1.073  10.509 -0.3053  0.6383 -0.3538
  687MOL0     C90575   3.129   1.057  10.472  0.5081  0.0439  0.7826
  687MOL0     O90576   3.061   0.984  10.575  0.0636  0.0096  0.1626
  687MOL0     C90577   2.926   0.965  10.563 -0.7863 -0.2232  0.2250
  687MOL0     C90578   2.861   0.901  10.666 -0.5015 -1.2925 -0.3102
  687MOL0     C90579   2.726   0.875  10.660 -0.2268  0.7875 -0.2067
  687MOL0     C90580   2.643   0.923  10.556  0.4360 -0.0310  0.1183
  687MOL0     C90581   2.499   0.896  10.560 -0.2836 -0.2750 -0.1521
  687MOL0     O90582   2.451   0.793  10.644 -0.7247  0.8855  0.3181
  687MOL0     C90583   2.332   0.725  10.618 -0.2372 -0.1014  0.7059
  687MOL0     C90584   2.269   0.671  10.733  0.3132 -0.0892  0.0112
  687MOL0     C90585   2.151   0.595  10.723 -0.2405  0.2672  0.7103
  687MOL0     C90586   2.082   0.581  10.598 -0.1356  0.2085 -0.5153
  687MOL0     O90587   1.963   0.515  10.599 -0.3219  0.5164 -0.0016
  687MOL0     C90588   1.846   0.579  10.543 -0.7573  0.3564  0.7702
  687MOL0     C90589   1.712   0.496  10.551 -0.6308 -0.2468  0.1762
  687MOL0     C90590   1.727   0.362  10.485  0.1911 -0.4734 -0.2939
  687MOL0     C90591   1.613   0.259  10.511  0.1670 -0.5449 -0.3601
  687MOL0     C90592   1.492   0.309  10.433  0.0420 -0.0293 -0.0168
  687MOL0     C90593   1.365   0.217  10.449 -0.0592  0.9311  0.9861
  687MOL0     C90594   1.247   0.295  10.386  0.2284  0.1907  0.3673
  687MOL0     C90595   1.120   0.219  10.370  0.1134  0.8352 -0.8332
  687MOL0    Cl90596   0.990   0.330  10.330  0.1018  0.2350  0.0165
  687MOL0     C90597   2.140   0.642  10.484 -0.2288 -0.2831  0.3698
  687MOL0     C90598   2.264   0.701  10.490 -0.0786  0.2812  0.5870
  687MOL0     O90599   2.433   0.956  10.480 -0.4177 -0.2061  0.8412
  687MOL0     C90600   2.706   0.999  10.456 -0.7291  0.5098  0.9462
  687MOL0     C90601   2.845   1.016  10.460 -0.1672 -0.0390 -0.5336
  687MOL0     N90602   3.652   1.056  10.377  0.7852  0.6453 -0.6820
  687MOL0     N90603   3.716   1.165  10.374 -0.1392 -0.8251 -0.2009
  687MOL0     C90604   2.975   1.708  10.274 -0.0230  0.0367 -0.5966
  687MOL0     C90605   2.851   1.658  10.315 -0.2439  0.8359 -0.6181
  687MOL0     C90606   2.441   1.455  10.324  0.7547  0.7704 -0.4031
  687MOL0     C90607   2.334   1.547  10.332  0.6905 -0.1362  0.4222
  687MOL0     C90608   2.205   1.508  10.365 -0.3734  0.8575 -0.2977
  687MOL0     C90609   2.183   1.371  10.407  0.4619 -0.1804 -0.4620
  687MOL0     O90610   2.056   1.327  10.433  0.0236  0.1018 -0.4450
  687MOL0     C90611   1.955   1.425  10.468 -0.5527 -0.1687  0.6228
  687MOL0     C90612   1.840   1.352  10.532  0.0806 -0.3660 -0.5334
  687MOL0     C90613   1.777   1.243  10.447  0.8399 -0.3968  0.0516
  687MOL0     C90614   1.622   1.261  10.446  0.4062 -0.7036  0.6306
  687MOL0     C90615   1.554   1.239  10.577 -1.0125 -0.9048 -1.4407
  687MOL0     C90616   1.505   1.208  10.684  0.2438  0.0192  0.9051
  687MOL0     C90617   2.286   1.280  10.404  0.4386 -0.2764  0.0856
  687MOL0     C90618   2.412   1.316  10.360 -0.1364  0.2971 -0.7923
  687MOL0     H90619   2.646   1.700  10.042  0.1241 -4.8408 -0.9156
  687MOL0     H90620   2.848   1.792   9.961  3.7119  0.3298  0.4596
  687MOL0     H90621   3.184   1.856  10.249 -0.8681  0.4644  0.8651
  687MOL0     H90622   3.224   1.953  10.113 -2.6921  1.2765  1.6080
  687MOL0     H90623   3.296   1.751   9.979  0.6208  0.1659 -0.1110
  687MOL0     H90624   3.228   1.648  10.095 -1.9040  0.9675 -1.5239
  687MOL0     H90625   3.431   1.835  10.216  1.4957 -0.1549 -0.8839
  687MOL0     H90626   3.497   1.742  10.091  1.5942  1.7156  1.9407
  687MOL0     H90627   3.360   1.633  10.335 -1.1021 -1.2977 -1.1886
  687MOL0     H90628   3.380   1.522  10.191 -0.5759 -0.6363  0.5635
  687MOL0     H90629   3.609   1.695  10.295 -1.0111  0.2286  1.6620
  687MOL0     H90630   3.601   1.551  10.188 -0.8497  1.2284 -0.8515
  687MOL0     H90631   3.535   1.400  10.369 -1.2916  0.1053 -0.6398
  687MOL0     H90632   3.546   1.536  10.484 -0.8901  1.8597 -2.2333
  687MOL0     H90633   3.784   1.416  10.321  0.5819  0.4032 -0.2739
  687MOL0     H90634   3.792   1.551  10.435  1.4872 -0.9394  2.4441
  687MOL0     H90635   3.720   1.398  10.620 -2.1214  1.3039 -0.9527
  687MOL0     H90636   3.869   1.341  10.535 -0.2787  1.2808  0.9404
  687MOL0     H90637   3.544   1.210  10.648  1.8800  3.4283  0.0438
  687MOL0     H90638   3.495   0.936  10.644 -1.3562 -2.3740  0.2733
  687MOL0     H90639   3.539   0.849  10.500 -3.1831  0.0509 -2.8649
  687MOL0     H90640   3.310   0.857  10.518 -1.4410  1.5087 -0.6211
  687MOL0     H90641   3.367   0.927  10.369  1.3652 -1.3410 -0.2332
  687MOL0     H90642   3.288   1.097  10.615  3.4196  1.1274 -0.8289
  687MOL0     H90643   3.316   1.151  10.445  1.0376  0.0038 -0.2853
  687MOL0     H90644   3.113   1.004  10.378 -0.8647 -1.0957  1.6177
  687MOL0     H90645   3.089   1.158  10.460 -0.9785 -0.6654 -0.5168
  687MOL0     H90646   2.920   0.866  10.750  1.2599  1.0945 -0.4788
  687MOL0     H90647   2.674   0.824  10.741  2.1191 -1.3473  0.0969
  687MOL0     H90648   2.307   0.676  10.834 -1.7732  0.0151  0.8420
  687MOL0     H90649   2.104   0.563  10.816  0.2571  2.3129  1.7247
  687MOL0     H90650   1.871   0.614  10.442 -0.4612 -1.4566  0.1923
  687MOL0     H90651   1.837   0.674  10.598 -0.9512 -1.7276  4.6739
  687MOL0     H90652   1.623   0.544  10.508 -1.0746  1.1604  2.5281
  687MOL0     H90653   1.682   0.478  10.654 -4.1239 -3.2588 -1.1240
  687MOL0     H90654   1.817   0.312  10.521  0.5456  1.6315  2.0332
  687MOL0     H90655   1.746   0.369  10.378  1.6202 -2.0388 -0.1776
  687MOL0     H90656   1.644   0.161  10.474  0.7236  0.3895 -2.4914
  687MOL0     H90657   1.596   0.257  10.619  0.7576 -1.4111 -0.2822
  687MOL0     H90658   1.528   0.323  10.330 -0.6016 -2.8072 -0.6958
  687MOL0     H90659   1.470   0.416  10.441  0.4207  0.1094 -0.7371
  687MOL0     H90660   1.342   0.205  10.555 -2.3239  0.9876  0.5355
  687MOL0     H90661   1.392   0.126  10.395  3.3163  1.4957  1.4436
  687MOL0     H90662   1.232   0.372  10.463 -0.5742 -3.3510  4.1196
  687MOL0     H90663   1.285   0.328  10.289  2.8838  0.0904  1.2909
  687MOL0     H90664   1.097   0.167  10.464  1.6510 -2.2284 -2.0332
  687MOL0     H90665   1.128   0.147  10.289 -0.2968  1.6036 -1.5741
  687MOL0     H90666   2.089   0.637  10.389  1.5791  1.8187 -0.8041
  687MOL0     H90667   2.316   0.734  10.401  3.5380 -1.8886  1.6553
  687MOL0     H90668   2.649   1.059  10.386  1.5675  1.3783 -0.2756
  687MOL0     H90669   2.876   1.081  10.379 -1.4142  1.8549  0.4242
  687MOL0     H90670   3.062   1.708  10.339 -0.8496 -1.0026  0.5649
  687MOL0     H90671   2.852   1.634  10.421  2.3818 -0.5363 -0.8774
  687MOL0     H90672   2.352   1.652  10.309 -0.7972 -0.2573 -1.5872
  687MOL0     H90673   2.118   1.572  10.353 -1.7872 -1.3640 -3.3267
  687MOL0     H90674   1.907   1.473  10.382 -3.0354 -2.6054  0.5214
  687MOL0     H90675   1.992   1.498  10.540  1.7902 -0.2985 -0.3364
  687MOL0     H90676   1.879   1.298  10.619  0.3692 -2.5431 -1.9585
  687MOL0     H90677   1.766   1.426  10.566  2.6549  2.3425 -0.3944
  687MOL0     H90678   1.804   1.143  10.481 -0.0886 -0.7883 -0.3258
  687MOL0     H90679   1.821   1.248  10.347 -0.7811  0.0922 -0.6796
  687MOL0     H90680   1.603   1.364  10.412  2.3942  0.4918  2.7994
  687MOL0     H90681   1.578   1.202  10.366  0.1354 -2.6330  2.1287
  687MOL0     H90682   1.451   1.197  10.776 -0.1532  1.2522  0.8478
  687MOL0     H90683   2.260   1.177  10.426 -0.2080  0.4473  3.1512
  687MOL0     H90684   2.491   1.242  10.371  0.1440  0.7807  0.6868
  688MOL0     O90685   3.754  10.130   2.248 -0.3873  0.0665  0.0157
  688MOL0     C90686   3.762  10.134   2.126 -0.2533 -0.3689 -1.0064
  688MOL0     O90687   3.662  10.100   2.044 -0.1008  0.1684 -0.2696
  688MOL0     C90688   3.525  10.093   2.080  0.0765 -0.3903 -0.5932
  688MOL0     C90689   3.460  10.162   2.187  0.1603  0.7269 -0.2557
  688MOL0     C90690   3.326  10.148   2.224  0.6051  0.3471  0.3119
  688MOL0     C90691   3.246  10.057   2.148 -0.0090 -0.8626  0.8997
  688MOL0     O90692   3.111  10.039   2.162 -0.5568 -0.4319 -0.0808
  688MOL0     C90693   3.036  10.120   2.255  0.5228  0.0228 -0.0614
  688MOL0     C90694   2.897  10.060   2.275 -0.3414 -0.6575  0.0602
  688MOL0     C90695   2.826  10.152   2.372 -0.4700  1.0071  0.3393
  688MOL0     C90696   2.676  10.105   2.395 -0.4358 -0.0991 -0.7966
  688MOL0     C90697   2.622  10.211   2.493 -0.8279 -0.7005  0.1995
  688MOL0     C90698   2.495  10.153   2.562  0.3738 -0.0584  0.3010
  688MOL0     C90699   2.441  10.237   2.675 -0.1995  0.7752 -0.0088
  688MOL0     C90700   2.311  10.182   2.719  0.3904  0.0818 -0.1168
  688MOL0     N90701   2.226  10.278   2.776 -0.5240 -0.3924 -0.4654
  688MOL0     C90702   2.104  10.317   2.721  1.0858  1.4554  0.3179
  688MOL0     C90703   2.059  10.407   2.800  0.3638  0.6466 -0.1173
  688MOL0     C90704   1.934  10.489   2.773  0.0212  0.6707 -0.5375
  688MOL0     C90705   1.804  10.411   2.766 -0.4231 -0.0317 -1.2556
  688MOL0     C90706   1.766  10.355   2.902 -0.4561 -0.5910  0.5383
  688MOL0     C90707   1.631  10.292   2.877  0.0869  1.0249 -0.0077
  688MOL0     O90708   1.578  10.267   3.009  0.1973 -0.2770  0.0057
  688MOL0     C90709   1.470  10.350   3.056 -1.0785  0.0244  0.1226
  688MOL0     C90710   1.370  10.295   3.131 -0.3149 -0.3580  0.0540
  688MOL0     C90711   1.276  10.370   3.204  0.0899 -1.2084 -0.7865
  688MOL0     C90712   1.283  10.512   3.207  0.5362  0.5768  0.5625
  688MOL0     C90713   1.171  10.582   3.271  1.0322  0.3051 -0.3941
  688MOL0     O90714   1.077  10.499   3.345  0.1076  0.2203  0.6697
  688MOL0     C90715   0.955  10.553   3.352 -0.0203  0.0746  0.3601
  688MOL0     C90716   0.918  10.656   3.439 -0.5125 -0.0310 -0.4289
  688MOL0     C90717   0.790  10.704   3.449  0.4760 -0.6400 -0.0689
  688MOL0     C90718   0.688  10.657   3.367 -0.1782 -0.0064  0.2391
  688MOL0     O90719   0.565  10.728   3.371 -0.4571  0.0357  0.3740
  688MOL0     C90720   0.513  10.758   3.239  0.0064 -0.6074  0.8245
  688MOL0     C90721   0.414  10.877   3.243  0.5019  0.1594  0.0438
  688MOL0     C90722   0.278  10.849   3.312  0.3761 -0.0466  0.6653
  688MOL0     C90723   0.207  10.710   3.296  0.4631  0.3443  0.0210
  688MOL0     C90724   0.047  10.728   3.312  0.5922  0.0254  0.0367
  688MOL0     C90725  -0.024  10.793   3.190  0.1890  0.2684  0.3909
  688MOL0     C90726  -0.175  10.770   3.195  0.2321 -0.1544 -0.4667
  688MOL0     C90727  -0.247  10.844   3.084  0.3554 -0.4607 -0.2453
  688MOL0    Cl90728  -0.427  10.807   3.082  0.0244  0.3461 -0.2502
  688MOL0     C90729   0.719  10.552   3.278  0.6018 -0.1157 -0.8999
  688MOL0     C90730   0.852  10.513   3.267  0.2205 -0.2624  0.1960
  688MOL0     O90731   1.158  10.704   3.258  0.4799 -0.0376 -0.1047
  688MOL0     C90732   1.396  10.575   3.140 -0.2305  0.2341  1.2617
  688MOL0     C90733   1.478  10.493   3.070  0.7857  0.9741  0.3390
  688MOL0     N90734   2.154  10.428   2.902 -0.2594 -0.4070  0.2525
  688MOL0     N90735   2.253  10.353   2.889 -0.3569 -0.4235 -0.7188
  688MOL0     C90736   3.307   9.986   2.038  0.2404  1.4306  0.2871
  688MOL0     C90737   3.445  10.004   2.008  0.3372 -0.5356  0.7774
  688MOL0     C90738   3.888  10.181   2.077 -0.0836  0.3762  0.1560
  688MOL0     C90739   3.972  10.256   2.158 -0.2010 -0.2897 -0.0635
  688MOL0     C90740   4.093  10.307   2.110  0.1227  0.9296 -0.0262
  688MOL0     C90741   4.133  10.296   1.976  0.6974 -0.3548 -0.9509
  688MOL0     O90742   4.241  10.370   1.939  0.2807 -0.3155  0.4812
  688MOL0     C90743   4.366  10.320   1.970  0.3316 -0.0123  0.5582
  688MOL0     C90744   4.474  10.424   1.950 -0.1355 -0.3728 -0.4139
  688MOL0     C90745   4.618  10.366   1.950  0.3814 -0.1211  0.4534
  688MOL0     C90746   4.698  10.396   1.821  0.5529  0.7556 -0.5837
  688MOL0     C90747   4.824  10.325   1.815 -1.2567 -0.1459 -0.0677
  688MOL0     C90748   4.944  10.286   1.821  0.0441  0.1611 -0.9637
  688MOL0     C90749   4.046  10.223   1.886  0.2468  0.0343 -0.2466
  688MOL0     C90750   3.922  10.172   1.938 -0.5219  0.2850 -0.5711
  688MOL0     H90751   3.533  10.224   2.237  0.6014  0.2175 -0.2638
  688MOL0     H90752   3.279  10.194   2.310  0.7675  1.5417 -0.2106
  688MOL0     H90753   3.035  10.225   2.224  1.7745  1.2053  3.4288
  688MOL0     H90754   3.085  10.117   2.353 -2.8549 -0.9347  1.7689
  688MOL0     H90755   2.902   9.957   2.311 -0.2678 -0.2427  1.2890
  688MOL0     H90756   2.839  10.068   2.183 -0.1517 -1.6633 -0.1580
  688MOL0     H90757   2.814  10.254   2.334  0.5242  0.4385 -1.6565
  688MOL0     H90758   2.883  10.149   2.465 -0.0473  1.5853  0.1007
  688MOL0     H90759   2.617  10.115   2.304  1.2040  2.9675 -1.6619
  688MOL0     H90760   2.665  10.008   2.443  3.8831 -0.9890 -1.1930
  688MOL0     H90761   2.602  10.303   2.437 -1.2165  0.3027  1.8958
  688MOL0     H90762   2.694  10.243   2.568 -2.1710  1.1750  0.7703
  688MOL0     H90763   2.513  10.051   2.598 -2.0251 -0.1608  1.3465
  688MOL0     H90764   2.422  10.148   2.480  0.8401 -2.1148 -0.0470
  688MOL0     H90765   2.506  10.241   2.763  0.1142  0.1790 -0.2062
  688MOL0     H90766   2.427  10.342   2.648 -0.5966  0.1499 -2.5039
  688MOL0     H90767   2.327  10.101   2.791 -1.1047  0.1212  0.2867
  688MOL0     H90768   2.252  10.138   2.638 -1.5437  1.7079  0.3386
  688MOL0     H90769   2.050  10.272   2.639 -0.6320 -0.2589  2.2739
  688MOL0     H90770   1.943  10.554   2.685  0.8153  0.7681 -0.3982
  688MOL0     H90771   1.923  10.562   2.854 -1.4842  0.4339 -0.4977
  688MOL0     H90772   1.821  10.322   2.705  0.8278  0.1474 -1.1927
  688MOL0     H90773   1.730  10.483   2.728 -1.4802 -1.3635 -1.8099
  688MOL0     H90774   1.842  10.283   2.930 -0.1464  0.7365  3.5243
  688MOL0     H90775   1.765  10.443   2.968  0.3737  0.8124 -1.2297
  688MOL0     H90776   1.645  10.200   2.820  1.7395  2.3192 -1.8505
  688MOL0     H90777   1.572  10.363   2.819 -0.7870  1.1304  0.9677
  688MOL0     H90778   1.381  10.188   3.141 -1.9672 -0.6136 -0.5006
  688MOL0     H90779   1.194  10.326   3.260  0.6373  0.4281  1.4351
  688MOL0     H90780   0.993  10.705   3.501  1.7652 -1.2014 -2.1114
  688MOL0     H90781   0.767  10.789   3.512 -0.0854 -1.2212  0.5252
  688MOL0     H90782   0.463  10.664   3.217  1.5362 -1.7704  2.1276
  688MOL0     H90783   0.594  10.781   3.168 -2.3616  2.3749 -1.1914
  688MOL0     H90784   0.390  10.916   3.143 -0.2776  1.7676  0.8099
  688MOL0     H90785   0.468  10.956   3.296  1.6032  0.4806 -1.4890
  688MOL0     H90786   0.217  10.922   3.258  4.2405  1.3434 -2.2075
  688MOL0     H90787   0.289  10.876   3.418  2.9094 -0.3937  0.5515
  688MOL0     H90788   0.216  10.671   3.194 -1.3367 -1.3438  0.4442
  688MOL0     H90789   0.252  10.635   3.362 -0.1858 -0.7207 -0.7065
  688MOL0     H90790   0.030  10.780   3.406  1.2618  1.2824 -0.5142
  688MOL0     H90791   0.001  10.629   3.323  0.5290 -0.2366 -2.0208
  688MOL0     H90792   0.006  10.746   3.095 -0.2641  2.2090 -0.7630
  688MOL0     H90793  -0.017  10.902   3.188 -0.4906  0.3074 -1.2502
  688MOL0     H90794  -0.195  10.665   3.175 -0.4618  0.3876 -3.0175
  688MOL0     H90795  -0.205  10.809   3.293 -1.9179 -0.7317 -0.8357
  688MOL0     H90796  -0.205  10.803   2.992  1.1289  1.3512 -0.7455
  688MOL0     H90797  -0.231  10.952   3.084 -0.4931 -0.2952 -1.8414
  688MOL0     H90798   0.636  10.513   3.219  0.3696  3.1934 -3.0914
  688MOL0     H90799   0.881  10.436   3.195 -1.5582 -1.5962  0.8262
  688MOL0     H90800   1.405  10.683   3.138  2.0077  0.1657 -3.0526
  688MOL0     H90801   1.554  10.545   3.014  0.0717  0.7809 -0.8420
  688MOL0     H90802   3.242   9.917   1.986  1.0101 -1.1447  2.5119
  688MOL0     H90803   3.500   9.939   1.941  1.0178  1.2813 -0.4960
  688MOL0     H90804   3.954  10.284   2.262 -0.3371  1.6386 -0.5644
  688MOL0     H90805   4.165  10.356   2.176  0.5783  0.2589 -0.0119
  688MOL0     H90806   4.378  10.245   1.890  0.9950  2.9923 -2.3958
  688MOL0     H90807   4.369  10.272   2.068  0.7045  3.2333  2.2618
  688MOL0     H90808   4.452  10.472   1.854 -2.4717 -0.2082  0.1462
  688MOL0     H90809   4.462  10.496   2.031 -0.0599 -0.2505 -0.5090
  688MOL0     H90810   4.621  10.258   1.971  1.3670 -0.7670 -2.5854
  688MOL0     H90811   4.677  10.425   2.020  2.2960 -0.2771 -0.9612
  688MOL0     H90812   4.636  10.369   1.735 -2.6321  0.1788  1.6872
  688MOL0     H90813   4.716  10.504   1.818  0.6088  0.7347 -3.5488
  688MOL0     H90814   5.049  10.268   1.831  0.0295  0.9824  1.1381
  688MOL0     H90815   4.079  10.219   1.783  4.2365  1.7757  0.7523
  688MOL0     H90816   3.848  10.129   1.872 -0.0809 -2.5669  0.6669
  689MOL0     O90817  10.316   6.892   3.428  0.1563 -0.7199 -0.3222
  689MOL0     C90818  10.368   6.783   3.456 -0.1474  0.2245 -0.1330
  689MOL0     O90819  10.299   6.665   3.496  0.2338  0.2256 -0.2163
  689MOL0     C90820  10.159   6.660   3.510 -0.6946  0.6332 -0.5849
  689MOL0     C90821  10.113   6.529   3.527  0.1935 -0.6045  0.2255
  689MOL0     C90822   9.980   6.493   3.540  0.2326  0.3384 -0.5333
  689MOL0     C90823   9.892   6.594   3.555 -0.1318 -0.3495 -0.6013
  689MOL0     O90824   9.760   6.557   3.586 -0.2985 -0.2125 -0.5990
  689MOL0     C90825   9.659   6.654   3.639 -0.0172 -0.7293  0.3729
  689MOL0     C90826   9.522   6.587   3.655  0.8204  0.6530 -0.1784
  689MOL0     C90827   9.412   6.681   3.718 -0.6412  0.0789  0.0200
  689MOL0     C90828   9.280   6.610   3.734  0.5543 -0.7040 -0.0494
  689MOL0     C90829   9.218   6.548   3.607  0.4012 -0.1088  0.0349
  689MOL0     C90830   9.065   6.535   3.599 -0.2055  0.8856 -0.4781
  689MOL0     C90831   8.998   6.673   3.604 -0.8558 -0.4259  0.3094
  689MOL0     C90832   8.863   6.669   3.523 -0.3861  0.5142 -0.4292
  689MOL0     N90833   8.764   6.760   3.558 -0.1536  0.7931 -1.2114
  689MOL0     C90834   8.656   6.723   3.629  0.2953  0.1970  0.3422
  689MOL0     C90835   8.595   6.831   3.673  0.4721  0.7758  0.2612
  689MOL0     C90836   8.473   6.819   3.760 -0.5384 -0.9621  0.0352
  689MOL0     C90837   8.341   6.828   3.678  0.3149 -0.0915 -0.2127
  689MOL0     C90838   8.229   6.834   3.769  0.3641  0.0822 -0.4189
  689MOL0     C90839   8.100   6.865   3.695 -0.1214  0.2210 -0.4144
  689MOL0     O90840   8.001   6.873   3.787 -0.0131 -0.1985  0.2150
  689MOL0     C90841   7.866   6.883   3.742 -0.4599  0.4611 -0.0435
  689MOL0     C90842   7.826   6.871   3.611 -0.1936  0.4844  0.2718
  689MOL0     C90843   7.693   6.881   3.581  0.3655  0.5599 -0.3600
  689MOL0     C90844   7.595   6.903   3.681  0.4603 -0.4263  0.7796
  689MOL0     C90845   7.451   6.900   3.644  0.5040  0.2410 -0.7763
  689MOL0     O90846   7.415   6.880   3.511  0.3023 -0.0811  0.1596
  689MOL0     C90847   7.294   6.937   3.478  0.6850  0.0080  0.1352
  689MOL0     C90848   7.191   6.842   3.471 -0.1970 -0.5021 -0.1294
  689MOL0     C90849   7.066   6.878   3.435  0.2400  0.3953 -0.4743
  689MOL0     C90850   7.036   7.017   3.425  0.0952  0.2427  0.9350
  689MOL0     O90851   6.906   7.049   3.398 -0.9328  0.0280 -0.4732
  689MOL0     C90852   6.821   6.963   3.319  0.1336 -0.3898 -0.2453
  689MOL0     C90853   6.687   7.029   3.298  0.1042 -0.3593  0.5794
  689MOL0     C90854   6.591   7.035   3.418 -0.1690 -0.3985 -1.0273
  689MOL0     C90855   6.548   6.892   3.460 -0.5230 -1.1095 -0.6751
  689MOL0     C90856   6.440   6.907   3.575  0.1387  0.3265  0.4550
  689MOL0     C90857   6.397   6.770   3.642  0.5869 -0.2623 -0.4732
  689MOL0     C90858   6.308   6.798   3.769  0.3427  0.4853 -0.1555
  689MOL0     C90859   6.257   6.666   3.823 -0.4550 -0.2511  0.2605
  689MOL0    Cl90860   6.178   6.693   3.978 -0.4789  0.2379  0.8718
  689MOL0     C90861   7.126   7.115   3.452 -0.3268 -1.2054  1.1906
  689MOL0     C90862   7.263   7.075   3.476 -0.1812 -0.5267 -0.6425
  689MOL0     O90863   7.370   6.906   3.733  0.7803  0.3648 -0.2423
  689MOL0     C90864   7.637   6.932   3.807 -0.0341  0.6628 -0.0047
  689MOL0     C90865   7.773   6.924   3.840 -0.7166 -0.3765 -0.6335
  689MOL0     N90866   8.667   6.940   3.633  1.0123 -0.0587 -0.4487
  689MOL0     N90867   8.771   6.895   3.577 -0.4261 -0.0865  0.1959
  689MOL0     C90868   9.925   6.731   3.539 -0.1202 -0.1536  0.2612
  689MOL0     C90869  10.059   6.763   3.510  1.0025  0.3342 -0.2626
  689MOL0     C90870  10.512   6.787   3.477 -0.7004 -0.2989  0.3417
  689MOL0     C90871  10.583   6.904   3.466  0.5924 -0.1203 -0.4791
  689MOL0     C90872  10.722   6.904   3.487 -0.7995  0.3541  0.2214
  689MOL0     C90873  10.788   6.787   3.536 -0.0666  0.9443  0.0802
  689MOL0     O90874  10.916   6.784   3.578 -0.8172  0.8313 -0.4522
  689MOL0     C90875  11.006   6.901   3.567 -0.0707 -0.5669 -0.1953
  689MOL0     C90876  11.055   6.930   3.420  0.7476 -0.2020  0.2211
  689MOL0     C90877  11.151   6.821   3.390 -0.0436  0.3706  1.1205
  689MOL0     C90878  11.278   6.816   3.483  0.6509 -0.3315 -0.1840
  689MOL0     C90879  11.364   6.724   3.419  0.0361  0.1069  0.7442
  689MOL0     C90880  11.447   6.643   3.377 -0.3925 -1.4532 -0.8611
  689MOL0     C90881  10.709   6.672   3.548 -0.3618  0.0498  0.8998
  689MOL0     C90882  10.582   6.670   3.507  0.6052  0.5104  0.2199
  689MOL0     H90883  10.193   6.456   3.520  3.2515  2.5758 -0.4737
  689MOL0     H90884   9.956   6.389   3.554  0.5942  0.3093 -0.0912
  689MOL0     H90885   9.652   6.743   3.576 -1.5246 -0.2951  1.1156
  689MOL0     H90886   9.687   6.688   3.739  0.3801  2.6722 -0.7520
  689MOL0     H90887   9.547   6.498   3.714  3.7403  1.5065  0.0259
  689MOL0     H90888   9.476   6.548   3.564 -0.0000 -0.4570  0.6822
  689MOL0     H90889   9.400   6.761   3.644 -2.1756  0.2830  0.4454
  689MOL0     H90890   9.431   6.726   3.815  1.3084  0.9212 -0.6986
  689MOL0     H90891   9.298   6.537   3.814  3.1630 -1.1350 -0.9095
  689MOL0     H90892   9.207   6.682   3.772 -1.8577 -3.3388  0.6480
  689MOL0     H90893   9.251   6.445   3.593 -0.2448 -0.4207  0.7237
  689MOL0     H90894   9.257   6.614   3.529  0.5107  1.4765  1.3846
  689MOL0     H90895   9.028   6.470   3.679 -1.9144 -0.1336 -2.0162
  689MOL0     H90896   9.047   6.486   3.504  4.1218  1.1399 -1.6230
  689MOL0     H90897   8.978   6.702   3.708  1.4903  0.4566  0.5665
  689MOL0     H90898   9.059   6.752   3.559 -0.7080 -1.1536 -0.7805
  689MOL0     H90899   8.814   6.571   3.532  0.5355 -0.2937 -3.2308
  689MOL0     H90900   8.892   6.683   3.419 -0.5221  1.4779 -0.3473
  689MOL0     H90901   8.637   6.623   3.668  1.5771 -0.0583  0.3546
  689MOL0     H90902   8.489   6.910   3.819  2.4936 -1.3291 -0.0856
  689MOL0     H90903   8.467   6.732   3.826 -0.4147 -2.0809 -1.3884
  689MOL0     H90904   8.330   6.747   3.605 -2.8116  0.2676 -0.2819
  689MOL0     H90905   8.350   6.915   3.613 -3.5076  1.5152  1.1601
  689MOL0     H90906   8.216   6.742   3.826 -0.7481  1.7726  2.2075
  689MOL0     H90907   8.242   6.914   3.842  4.0871 -0.3559 -0.3820
  689MOL0     H90908   8.085   6.785   3.622 -3.4328 -0.2876  0.6570
  689MOL0     H90909   8.119   6.957   3.638 -0.7032 -1.2149 -3.0504
  689MOL0     H90910   7.881   6.835   3.525 -0.9729  1.2127 -0.5543
  689MOL0     H90911   7.669   6.868   3.476 -1.4563 -0.5635  0.1443
  689MOL0     H90912   7.230   6.742   3.490 -1.4964 -0.6875  1.8845
  689MOL0     H90913   6.990   6.801   3.442  1.6676 -1.0778 -0.4796
  689MOL0     H90914   6.809   6.874   3.383  1.8015 -1.8693 -1.8762
  689MOL0     H90915   6.859   6.921   3.225 -1.2619 -1.2855 -0.4370
  689MOL0     H90916   6.626   6.979   3.222  0.7818 -1.2603  0.6130
  689MOL0     H90917   6.713   7.130   3.263 -0.0190 -1.2093 -2.2645
  689MOL0     H90918   6.508   7.101   3.391  1.3192  1.2711 -1.7491
  689MOL0     H90919   6.623   7.076   3.514 -1.3283 -0.7791 -0.4561
  689MOL0     H90920   6.514   6.830   3.377 -0.3383 -0.3385 -1.3443
  689MOL0     H90921   6.633   6.843   3.509  0.0139  0.2368 -0.1936
  689MOL0     H90922   6.353   6.952   3.528  0.0304 -2.2410 -2.0689
  689MOL0     H90923   6.478   6.979   3.648 -0.8370  0.9001  0.4094
  689MOL0     H90924   6.490   6.715   3.664  2.8354  3.0800 -0.9380
  689MOL0     H90925   6.343   6.708   3.570 -1.5278 -1.8232  2.2483
  689MOL0     H90926   6.364   6.853   3.845  0.7073  1.3009 -0.9884
  689MOL0     H90927   6.217   6.853   3.748 -0.6924 -0.1946  2.2025
  689MOL0     H90928   6.341   6.597   3.835 -1.3239 -1.2637  0.6462
  689MOL0     H90929   6.196   6.617   3.746 -2.0988  1.1646  0.6122
  689MOL0     H90930   7.095   7.219   3.448 -0.1249 -1.1721  0.3535
  689MOL0     H90931   7.333   7.156   3.484 -0.9012  0.1674 -1.2175
  689MOL0     H90932   7.569   6.965   3.885 -1.5634  0.7382 -1.3303
  689MOL0     H90933   7.811   6.936   3.940  0.3621 -0.4509 -1.0228
  689MOL0     H90934   9.850   6.809   3.534  1.5220  1.4635 -0.0893
  689MOL0     H90935  10.077   6.870   3.509 -1.6049  0.8671  0.3967
  689MOL0     H90936  10.528   6.997   3.452 -0.1706 -0.5573 -0.4361
  689MOL0     H90937  10.778   6.996   3.475  1.1904 -1.0258 -1.8964
  689MOL0     H90938  11.093   6.883   3.630  1.4669  2.3914 -1.2654
  689MOL0     H90939  10.966   6.989   3.618 -2.7543 -1.2145 -1.0132
  689MOL0     H90940  10.970   6.925   3.351  1.4967 -0.9353 -0.6780
  689MOL0     H90941  11.102   7.028   3.412 -0.0253  0.0048 -3.7419
  689MOL0     H90942  11.178   6.848   3.288 -0.3851 -1.7783  0.3995
  689MOL0     H90943  11.103   6.723   3.381 -0.2742  0.7122 -2.7493
  689MOL0     H90944  11.318   6.917   3.497 -0.7649  0.5099 -1.7974
  689MOL0     H90945  11.249   6.785   3.584  0.4184  1.2303  0.2503
  689MOL0     H90946  11.529   6.582   3.346 -1.0106 -1.7278 -2.0463
  689MOL0     H90947  10.754   6.577   3.576  2.2943  1.5901  2.3265
  689MOL0     H90948  10.527   6.576   3.511 -4.2421  2.9167 -1.2446
  690MOL0     O90949  10.232   2.353  10.258  0.2448  0.5287  0.6402
  690MOL0     C90950  10.232   2.244  10.314 -0.0835 -0.1719 -0.5644
  690MOL0     O90951  10.120   2.158  10.319  0.1370 -0.0722 -0.4327
  690MOL0     C90952   9.989   2.202  10.295 -0.0193  0.8208  0.2943
  690MOL0     C90953   9.945   2.327  10.331  0.1846  0.4921  0.6731
  690MOL0     C90954   9.816   2.366  10.318  0.2211  0.3411  0.4547
  690MOL0     C90955   9.720   2.284  10.265  0.6042  0.6762 -0.3185
  690MOL0     O90956   9.587   2.316  10.243  0.2443 -0.4183 -0.3389
  690MOL0     C90957   9.556   2.460  10.246 -0.7195  1.6027  0.1442
  690MOL0     C90958   9.407   2.482  10.218 -0.7722 -0.1221  0.1791
  690MOL0     C90959   9.301   2.435  10.314  0.2848 -0.4052  0.5374
  690MOL0     C90960   9.295   2.287  10.338 -0.1982 -0.2204 -0.4066
  690MOL0     C90961   9.160   2.227  10.352 -0.8191  0.2468  0.4668
  690MOL0     C90962   9.087   2.304  10.464 -0.0992 -0.7472  0.4256
  690MOL0     C90963   8.959   2.223  10.480  0.1914 -0.3699 -0.3066
  690MOL0     C90964   8.879   2.280  10.601  0.7649 -0.6616 -0.6984
  690MOL0     N90965   8.754   2.213  10.628  0.7306  0.2635  0.3683
  690MOL0     C90966   8.660   2.278  10.698 -0.2587 -0.4074  0.6827
  690MOL0     C90967   8.549   2.199  10.677  0.0248 -1.2832  0.3337
  690MOL0     C90968   8.411   2.222  10.737 -0.1592 -1.1275  1.0949
  690MOL0     C90969   8.316   2.267  10.623 -0.6210  1.5042 -0.1134
  690MOL0     C90970   8.310   2.415  10.598 -0.1073  0.1016 -0.6477
  690MOL0     C90971   8.166   2.446  10.549  0.0046 -0.1157  0.3745
  690MOL0     O90972   8.170   2.582  10.497  0.1074 -0.0729 -0.3995
  690MOL0     C90973   8.050   2.639  10.464  0.2302  0.1153  0.5026
  690MOL0     C90974   8.048   2.775  10.428  0.2886 -0.5868 -0.4946
  690MOL0     C90975   7.929   2.832  10.378 -0.2629  0.8242 -0.4750
  690MOL0     C90976   7.806   2.771  10.400 -0.1730  0.0156 -1.3146
  690MOL0     C90977   7.680   2.824  10.359  0.3745 -0.4329 -0.8125
  690MOL0     O90978   7.575   2.798  10.443  0.2038  1.2025  0.0698
  690MOL0     C90979   7.458   2.872  10.444  0.0817 -1.2996  0.4113
  690MOL0     C90980   7.339   2.802  10.472 -0.1225 -0.7644  0.0627
  690MOL0     C90981   7.218   2.867  10.486 -0.0586 -0.5267 -0.0602
  690MOL0     C90982   7.215   3.006  10.489  0.1256  0.0223  0.0355
  690MOL0     O90983   7.103   3.082  10.505 -0.3191  0.2642 -0.3545
  690MOL0     C90984   6.984   3.025  10.453  0.4511 -0.1312 -0.6352
  690MOL0     C90985   6.876   3.124  10.462 -0.9521 -0.4767 -0.4310
  690MOL0     C90986   6.842   3.164  10.605  0.0798  0.1930 -0.1223
  690MOL0     C90987   6.785   3.307  10.618  0.2911  0.1986 -0.4163
  690MOL0     C90988   6.716   3.318  10.747  0.4677  0.5230 -0.6215
  690MOL0     C90989   6.607   3.428  10.742 -0.0469 -0.6183 -0.5728
  690MOL0     C90990   6.477   3.374  10.672 -0.0803  0.1204 -0.1930
  690MOL0     C90991   6.352   3.462  10.681  0.0364 -0.1438  0.2152
  690MOL0    Cl90992   6.403   3.618  10.607 -0.0857 -0.1582 -0.4502
  690MOL0     C90993   7.331   3.081  10.475  0.5205 -1.0585  0.2811
  690MOL0     C90994   7.456   3.015  10.450  0.6309  1.4626  1.3817
  690MOL0     O90995   7.680   2.892  10.261  0.4252  0.3511  0.6510
  690MOL0     C90996   7.809   2.633  10.438  0.9570 -0.3234  0.0779
  690MOL0     C90997   7.929   2.564  10.475  0.4909 -0.9667  0.5509
  690MOL0     N90998   8.582   2.095  10.594 -0.9420  0.3067  0.2944
  690MOL0     N90999   8.709   2.109  10.568  0.3614  0.4088  0.3281
  690MOL0     C91000   9.755   2.149  10.234  0.2919 -0.1801  0.2817
  690MOL0     C91001   9.893   2.110  10.237 -0.5160  0.4254  1.2089
  690MOL0     C91002  10.372   2.187  10.354  1.1353  0.2258  0.5820
  690MOL0     C91003  10.380   2.067  10.421 -0.0088 -0.2014 -0.0076
  690MOL0     C91004  10.504   2.023  10.459  0.9770  0.2640 -0.0969
  690MOL0     C91005  10.622   2.093  10.440  0.1207 -0.4769  0.5265
  690MOL0     O91006  10.742   2.031  10.465  1.2216  0.3968 -0.2982
  690MOL0     C91007  10.859   2.098  10.425 -0.6127  0.4759  0.0837
  690MOL0     C91008  10.957   1.985  10.457 -1.1456  0.3794  0.5325
  690MOL0     C91009  11.108   2.021  10.441 -0.8647 -0.5146  0.4164
  690MOL0     C91010  11.166   2.109  10.555 -0.5796 -1.1773  0.4952
  690MOL0     C91011  11.121   2.240  10.571  0.5613 -0.8863 -0.2901
  690MOL0     C91012  11.058   2.345  10.601 -0.3431 -0.0182  0.9315
  690MOL0     C91013  10.620   2.219  10.374  0.7483 -1.1227 -0.3901
  690MOL0     C91014  10.487   2.267  10.343 -0.2788 -0.3034  1.0243
  690MOL0     H91015  10.018   2.394  10.375  0.5982  0.2875  0.3037
  690MOL0     H91016   9.802   2.468  10.351 -1.3594  1.1676 -2.3777
  690MOL0     H91017   9.617   2.517  10.176  1.1469  0.4430  0.7700
  690MOL0     H91018   9.572   2.498  10.347 -1.5050  0.0285  0.8913
  690MOL0     H91019   9.384   2.443  10.119 -0.1921 -0.6278  0.2385
  690MOL0     H91020   9.390   2.590  10.213  0.7383  0.1438  0.3496
  690MOL0     H91021   9.203   2.466  10.276  0.1768  0.7405  1.6494
  690MOL0     H91022   9.323   2.488  10.408 -2.1397  2.5768 -0.4086
  690MOL0     H91023   9.336   2.227  10.256 -0.2550  0.3992 -0.8909
  690MOL0     H91024   9.356   2.263  10.426  0.8045 -1.2851 -1.3421
  690MOL0     H91025   9.177   2.125  10.387  1.3175 -0.4152 -2.1705
  690MOL0     H91026   9.113   2.225  10.253  0.6766  1.1444 -0.2951
  690MOL0     H91027   9.066   2.408  10.439 -1.2393 -1.5220 -2.1321
  690MOL0     H91028   9.146   2.314  10.556 -0.0569  3.1854  0.1476
  690MOL0     H91029   8.890   2.215  10.396  0.5895 -0.4353 -0.6301
  690MOL0     H91030   8.983   2.120  10.504  0.0062 -0.5998 -1.0786
  690MOL0     H91031   8.852   2.385  10.589 -0.1112 -1.0376 -2.2758
  690MOL0     H91032   8.942   2.268  10.690 -0.5305  0.4290  0.4255
  690MOL0     H91033   8.665   2.371  10.755  0.2506  0.7414 -1.1663
  690MOL0     H91034   8.408   2.302  10.811 -2.6252  0.1821 -0.2983
  690MOL0     H91035   8.369   2.136  10.790 -0.9354 -1.1621  0.4354
  690MOL0     H91036   8.223   2.223  10.659 -0.0873 -0.4595 -0.9732
  690MOL0     H91037   8.341   2.220  10.527  0.0688  0.1953  0.6682
  690MOL0     H91038   8.321   2.478  10.687 -2.4963 -2.6041  1.7828
  690MOL0     H91039   8.384   2.442  10.522  0.9896 -1.3318 -0.1510
  690MOL0     H91040   8.090   2.419  10.624  1.4586 -1.1090  1.5487
  690MOL0     H91041   8.141   2.392  10.457  1.3158  2.4680 -1.6281
  690MOL0     H91042   8.140   2.833  10.418 -1.1495  1.7443 -1.1281
  690MOL0     H91043   7.935   2.932  10.335 -2.2859  1.2171  0.0473
  690MOL0     H91044   7.345   2.694  10.469 -1.6325 -0.9326  1.3794
  690MOL0     H91045   7.126   2.809  10.486 -0.2248 -0.2621  0.6173
  690MOL0     H91046   6.956   2.931  10.502  2.8189 -1.2395 -1.2809
  690MOL0     H91047   6.985   3.002  10.346 -1.8039 -2.2160 -0.3180
  690MOL0     H91048   6.789   3.079  10.413 -1.8370  1.3431 -0.6267
  690MOL0     H91049   6.909   3.212  10.406 -1.0120 -1.4033 -1.9988
  690MOL0     H91050   6.929   3.168  10.672  0.0866 -1.0659 -0.0303
  690MOL0     H91051   6.783   3.078  10.636  1.0476 -1.1528 -1.8420
  690MOL0     H91052   6.874   3.369  10.607  0.6440  0.6536  3.5829
  690MOL0     H91053   6.718   3.324  10.533  0.1359  0.1780 -0.3014
  690MOL0     H91054   6.781   3.344  10.832 -0.0003 -0.3217  0.0039
  690MOL0     H91055   6.668   3.225  10.777 -1.0504  1.1628 -0.9957
  690MOL0     H91056   6.639   3.520  10.692 -2.1912  0.0133 -0.8604
  690MOL0     H91057   6.592   3.446  10.849  0.7659 -2.4209 -0.1163
  690MOL0     H91058   6.505   3.362  10.567 -0.4771 -3.4657  0.0066
  690MOL0     H91059   6.453   3.274  10.708 -0.9157 -0.2361 -1.6772
  690MOL0     H91060   6.328   3.476  10.786 -1.5555 -0.6201 -0.0687
  690MOL0     H91061   6.267   3.411  10.635 -0.3056 -0.5806  1.3130
  690MOL0     H91062   7.321   3.189  10.479 -0.1747 -1.1389  3.5321
  690MOL0     H91063   7.549   3.068  10.432  0.8985  0.7553  0.6040
  690MOL0     H91064   7.717   2.581  10.463 -0.5163  0.7196 -2.7936
  690MOL0     H91065   7.920   2.456  10.489 -2.1574 -0.8511  0.3659
  690MOL0     H91066   9.697   2.071  10.185  0.5805  0.4883 -1.1977
  690MOL0     H91067   9.918   2.017  10.188 -0.6608  1.2091 -0.4311
  690MOL0     H91068  10.288   2.012  10.441  0.3243 -0.4063  1.0402
  690MOL0     H91069  10.507   1.924  10.503  1.2472 -0.0428 -0.7918
  690MOL0     H91070  10.884   2.186  10.483 -0.2850  0.7460 -0.4573
  690MOL0     H91071  10.869   2.111  10.316  1.6974  0.8809  0.2960
  690MOL0     H91072  10.945   1.954  10.561 -1.1904 -0.0230  0.4108
  690MOL0     H91073  10.942   1.899  10.391 -2.4305  2.4373 -2.0508
  690MOL0     H91074  11.119   2.076  10.347  2.7047 -0.9998  0.4069
  690MOL0     H91075  11.175   1.934  10.443  0.9274  0.8162  0.9184
  690MOL0     H91076  11.145   2.050  10.645 -0.1875  0.4137  1.6672
  690MOL0     H91077  11.275   2.111  10.545 -0.6083  1.2242  0.1491
  690MOL0     H91078  10.991   2.429  10.602  1.3181  1.3687 -0.0814
  690MOL0     H91079  10.704   2.286  10.366 -1.8411  3.2209  3.6204
  690MOL0     H91080  10.480   2.371  10.314 -0.1255 -0.4166  0.5620
  691MOL0     O91081  10.587   0.714   2.493  0.1283 -0.3093 -0.3063
  691MOL0     C91082  10.574   0.841   2.494 -1.1768 -0.0573  0.7973
  691MOL0     O91083  10.474   0.908   2.442  0.2522  0.0164  0.5520
  691MOL0     C91084  10.370   0.841   2.382 -0.2135 -0.7329  0.4648
  691MOL0     C91085  10.380   0.765   2.267 -0.3099 -0.2481 -0.0708
  691MOL0     C91086  10.251   0.703   2.230 -0.1411  0.5044  0.8796
  691MOL0     C91087  10.135   0.718   2.295 -0.2716 -0.7022  0.8446
  691MOL0     O91088  10.021   0.661   2.245 -0.8808  0.7797 -0.3074
  691MOL0     C91089   9.903   0.641   2.325 -0.0939  0.0839 -0.5324
  691MOL0     C91090   9.796   0.547   2.264 -0.1215 -0.0412 -0.2287
  691MOL0     C91091   9.665   0.561   2.326  0.8493  0.2656  0.3091
  691MOL0     C91092   9.555   0.471   2.256  0.0161 -0.3759  0.4538
  691MOL0     C91093   9.423   0.458   2.321  0.7688 -0.3847 -0.2706
  691MOL0     C91094   9.311   0.373   2.247  0.1995 -0.4591  0.4606
  691MOL0     C91095   9.187   0.348   2.340  0.4356 -1.1555  0.4541
  691MOL0     C91096   9.211   0.219   2.416  0.7302  0.4518  0.5549
  691MOL0     N91097   9.116   0.182   2.519  0.8140 -0.3865  0.6971
  691MOL0     C91098   9.000   0.106   2.495  0.3258 -0.2639 -0.3308
  691MOL0     C91099   8.953   0.092   2.626 -0.4977  0.1127  0.0990
  691MOL0     C91100   8.847   0.001   2.672 -0.5514  0.0772 -0.7280
  691MOL0     C91101   8.705   0.053   2.630 -0.2079 -0.3627  0.3048
  691MOL0     C91102   8.602  -0.040   2.699 -1.2422 -0.2127 -0.2848
  691MOL0     C91103   8.462  -0.017   2.661  0.6274 -0.1759  0.0989
  691MOL0     O91104   8.384  -0.090   2.756  0.5393  0.2467  0.0299
  691MOL0     C91105   8.254  -0.083   2.737  0.8704 -0.1603 -0.0298
  691MOL0     C91106   8.169  -0.164   2.817  0.5802 -0.1976 -0.3468
  691MOL0     C91107   8.032  -0.147   2.831  1.0165  0.3350  0.3827
  691MOL0     C91108   7.958  -0.052   2.750 -1.7368  0.3087 -0.5301
  691MOL0     C91109   7.816  -0.019   2.757 -0.7745  0.1941 -0.1080
  691MOL0     O91110   7.776   0.089   2.680  0.3507 -0.3687 -0.3595
  691MOL0     C91111   7.645   0.121   2.682 -0.1193 -0.1146 -0.4567
  691MOL0     C91112   7.612   0.257   2.722  0.1131  0.1622 -0.4207
  691MOL0     C91113   7.476   0.295   2.719 -0.1540 -0.0336  0.5435
  691MOL0     C91114   7.369   0.210   2.704  0.5448  0.2908 -0.3303
  691MOL0     O91115   7.240   0.258   2.722 -0.4832  0.4261  0.4705
  691MOL0     C91116   7.138   0.161   2.753 -0.9329  0.1349 -0.4431
  691MOL0     C91117   7.012   0.237   2.810 -0.6167  0.1440  0.4651
  691MOL0     C91118   6.889   0.143   2.798  0.1004 -0.2185  1.0571
  691MOL0     C91119   6.761   0.229   2.804 -0.1768  0.1859 -0.3480
  691MOL0     C91120   6.626   0.152   2.823 -0.0908  0.0238  0.2968
  691MOL0     C91121   6.499   0.250   2.825  0.0808 -0.1485 -0.8727
  691MOL0     C91122   6.389   0.179   2.902  0.6068  0.3720 -0.0337
  691MOL0     C91123   6.274   0.268   2.945  0.4283 -0.3850  1.0740
  691MOL0    Cl91124   6.127   0.191   3.023  0.3156 -0.3193  0.1566
  691MOL0     C91125   7.402   0.077   2.667 -0.3099 -0.4408 -0.1746
  691MOL0     C91126   7.536   0.042   2.648  0.4867 -0.2781  0.0841
  691MOL0     O91127   7.756  -0.093   2.832  0.8013  0.2537  0.5326
  691MOL0     C91128   8.040   0.024   2.665 -0.1975  0.3642  0.0743
  691MOL0     C91129   8.180   0.009   2.661 -0.5344  0.7403 -0.1421
  691MOL0     N91130   9.029   0.172   2.712  0.2824  0.3606 -0.2632
  691MOL0     N91131   9.130   0.227   2.642  1.1504  0.7810  0.1687
  691MOL0     C91132  10.129   0.805   2.413  0.5582 -0.2809  0.6257
  691MOL0     C91133  10.245   0.870   2.444  0.2795 -1.0964  0.5679
  691MOL0     C91134  10.674   0.926   2.555  0.3516  0.6474  0.6702
  691MOL0     C91135  10.656   1.060   2.591 -0.5951 -0.0753 -0.0789
  691MOL0     C91136  10.761   1.139   2.640 -0.2686 -0.1096  0.3833
  691MOL0     C91137  10.887   1.080   2.677  0.8024 -0.1440  0.0484
  691MOL0     O91138  10.979   1.135   2.766 -0.1397 -0.5550 -0.1349
  691MOL0     C91139  10.975   1.278   2.797  0.3840 -0.1821  0.3997
  691MOL0     C91140  11.048   1.367   2.690 -0.0731 -0.8968 -0.1104
  691MOL0     C91141  11.028   1.520   2.718  0.6206  0.1844 -0.2641
  691MOL0     C91142  11.049   1.604   2.582  0.0237 -0.0140  0.3053
  691MOL0     C91143  10.938   1.589   2.476 -0.6664  0.1744 -0.8260
  691MOL0     C91144  10.857   1.571   2.394  0.5653  0.2829  0.1398
  691MOL0     C91145  10.902   0.940   2.641 -0.1286 -0.1719 -0.6156
  691MOL0     C91146  10.798   0.869   2.580  0.5438  0.9333  0.8987
  691MOL0     H91147  10.471   0.732   2.218  0.8967  2.5092  0.1069
  691MOL0     H91148  10.258   0.635   2.145  1.7360 -0.9558  2.1048
  691MOL0     H91149   9.858   0.739   2.343  0.9894  0.7857 -1.4825
  691MOL0     H91150   9.929   0.596   2.421  1.5772 -0.1498 -1.0613
  691MOL0     H91151   9.828   0.443   2.259  1.7404  0.5526 -2.7885
  691MOL0     H91152   9.778   0.580   2.161  1.4825  0.3386 -0.4136
  691MOL0     H91153   9.633   0.664   2.311 -0.7430 -0.4013 -1.1199
  691MOL0     H91154   9.681   0.537   2.432 -0.1716  2.4191  1.0165
  691MOL0     H91155   9.557   0.511   2.154  3.8929  0.5669  0.7386
  691MOL0     H91156   9.593   0.369   2.269 -1.7267 -0.9477  1.3551
  691MOL0     H91157   9.375   0.554   2.341 -2.2613 -1.8565 -0.0078
  691MOL0     H91158   9.434   0.415   2.422  3.3874  0.3733 -0.1449
  691MOL0     H91159   9.349   0.282   2.200 -3.4929 -3.0137  1.9004
  691MOL0     H91160   9.263   0.429   2.166 -2.5232 -1.3186  1.3712
  691MOL0     H91161   9.177   0.434   2.408  1.2685 -0.2278 -0.5683
  691MOL0     H91162   9.095   0.346   2.282  0.8290  0.0108 -0.2316
  691MOL0     H91163   9.301   0.243   2.473  1.6607  1.4962 -1.2582
  691MOL0     H91164   9.231   0.135   2.348  1.0713 -0.4617  1.7555
  691MOL0     H91165   8.970   0.051   2.406 -1.9132  0.5198 -0.1352
  691MOL0     H91166   8.857  -0.007   2.781  2.7475  0.1488 -0.9214
  691MOL0     H91167   8.858  -0.099   2.629 -1.7834 -0.2330 -0.3578
  691MOL0     H91168   8.701   0.039   2.522  2.1252 -1.3622  0.2865
  691MOL0     H91169   8.691   0.158   2.653 -1.8744 -1.0634  2.9265
  691MOL0     H91170   8.618  -0.146   2.678 -2.8623 -0.5896  0.2275
  691MOL0     H91171   8.611  -0.014   2.805  0.2260  2.3417 -0.9445
  691MOL0     H91172   8.434  -0.054   2.562 -0.2334 -1.3428  0.7529
  691MOL0     H91173   8.438   0.089   2.677  0.8339 -0.3657  1.8347
  691MOL0     H91174   8.222  -0.243   2.870  1.2167  0.9243  0.7458
  691MOL0     H91175   7.968  -0.209   2.893 -1.3972  1.2697 -1.0408
  691MOL0     H91176   7.692   0.321   2.758  1.6941 -0.7526 -2.1513
  691MOL0     H91177   7.467   0.401   2.737  0.7317  1.1486 -4.4005
  691MOL0     H91178   7.183   0.093   2.826  0.3803 -0.5819 -1.8714
  691MOL0     H91179   7.118   0.097   2.667 -0.4592 -3.6488  2.0041
  691MOL0     H91180   6.985   0.327   2.754 -1.8629 -0.0494  0.7289
  691MOL0     H91181   7.018   0.265   2.916 -2.2598 -2.1458  1.2450
  691MOL0     H91182   6.889   0.066   2.877  0.7603 -1.2125  0.1181
  691MOL0     H91183   6.888   0.083   2.707 -1.2894  0.8236  0.3572
  691MOL0     H91184   6.761   0.296   2.890 -2.6097 -1.8494  1.3818
  691MOL0     H91185   6.763   0.297   2.719  0.0059  2.9943  1.7738
  691MOL0     H91186   6.627   0.094   2.916 -2.7966 -3.7953 -1.7315
  691MOL0     H91187   6.625   0.073   2.747 -0.7182 -1.9273  2.2320
  691MOL0     H91188   6.471   0.253   2.720  0.6353 -1.3173 -1.0728
  691MOL0     H91189   6.525   0.346   2.871 -0.9523 -0.1753 -0.1865
  691MOL0     H91190   6.347   0.105   2.833  0.6727  0.7920 -0.5331
  691MOL0     H91191   6.432   0.134   2.992 -0.1254 -2.5382 -1.0166
  691MOL0     H91192   6.233   0.316   2.855 -0.2382  0.5549  1.8568
  691MOL0     H91193   6.314   0.336   3.021 -0.4089  0.8775  0.4338
  691MOL0     H91194   7.325   0.007   2.637 -0.4799 -0.1166 -0.4894
  691MOL0     H91195   7.547  -0.060   2.615  3.5567  0.1391 -0.5037
  691MOL0     H91196   7.993   0.106   2.612  0.9832 -0.0481 -1.7040
  691MOL0     H91197   8.242   0.078   2.606  0.5944 -0.2455 -0.1581
  691MOL0     H91198  10.038   0.815   2.472  0.3856  3.1159 -0.0284
  691MOL0     H91199  10.237   0.933   2.532  1.5709  0.1655 -0.1843
  691MOL0     H91200  10.560   1.102   2.562 -0.1365  1.5339  0.6227
  691MOL0     H91201  10.733   1.241   2.664  0.3165 -0.0753  0.9239
  691MOL0     H91202  11.025   1.289   2.894  0.2318 -3.1253  0.8887
  691MOL0     H91203  10.870   1.311   2.803 -0.9477 -2.8135 -3.8718
  691MOL0     H91204  11.157   1.353   2.688  0.2744  1.3750  0.0462
  691MOL0     H91205  11.008   1.352   2.590  0.2249 -2.4428 -0.0088
  691MOL0     H91206  11.108   1.549   2.787  0.7899 -1.8681  0.4770
  691MOL0     H91207  10.933   1.543   2.767  1.3312  4.0116 -0.3967
  691MOL0     H91208  11.048   1.710   2.607 -1.1808  0.0759 -0.0528
  691MOL0     H91209  11.149   1.585   2.541 -0.5528  0.0646 -1.2015
  691MOL0     H91210  10.792   1.553   2.311 -1.2709 -0.9944  1.7720
  691MOL0     H91211  10.988   0.887   2.682 -0.2351  0.6960  0.7930
  691MOL0     H91212  10.817   0.763   2.564  0.8637  0.9428  1.2123
  692MOL0     O91213   3.035   2.677   2.308  0.0341  0.5315  0.3434
  692MOL0     C91214   3.091   2.765   2.249 -0.4484 -0.7000 -0.1519
  692MOL0     O91215   3.033   2.855   2.161 -0.4433 -0.4622  0.2186
  692MOL0     C91216   2.900   2.847   2.143  0.6016  0.0790 -0.4181
  692MOL0     C91217   2.835   2.765   2.052  0.4036  0.1830  1.5729
  692MOL0     C91218   2.689   2.769   2.035 -1.3871 -0.2714 -0.0610
  692MOL0     C91219   2.616   2.868   2.108 -0.1575 -0.9175  0.3835
  692MOL0     O91220   2.486   2.900   2.077 -0.3732 -0.5886 -0.0956
  692MOL0     C91221   2.405   2.803   2.012  0.4844  1.0117  0.3268
  692MOL0     C91222   2.255   2.841   2.006  0.3763 -0.7946  0.2505
  692MOL0     C91223   2.227   2.977   1.946  0.1454 -0.2035  0.5809
  692MOL0     C91224   2.077   3.004   1.936 -0.0100 -0.4141 -0.2923
  692MOL0     C91225   2.041   3.148   1.883 -0.5966 -0.4010  0.1100
  692MOL0     C91226   1.891   3.165   1.862 -0.2826 -0.3243 -0.6755
  692MOL0     C91227   1.845   3.307   1.857  0.2939 -0.7448 -0.9389
  692MOL0     C91228   1.694   3.347   1.890  0.4274 -0.4935  0.2118
  692MOL0     N91229   1.600   3.262   1.817 -0.3999 -0.0036 -0.1919
  692MOL0     C91230   1.494   3.199   1.873 -0.0701  0.0465 -0.0738
  692MOL0     C91231   1.440   3.125   1.770  0.5641  0.0133  0.5160
  692MOL0     C91232   1.324   3.027   1.774 -0.3432  0.5105 -0.1383
  692MOL0     C91233   1.230   3.053   1.893  0.2777 -0.9783  0.1586
  692MOL0     C91234   1.151   3.177   1.882 -0.0421 -0.1335 -0.0311
  692MOL0     C91235   1.053   3.179   1.761 -0.0747  0.0623 -0.2641
  692MOL0     O91236   0.961   3.286   1.784 -0.2269  0.3625  0.2554
  692MOL0     C91237   0.853   3.258   1.860  0.1260  0.4479  0.4385
  692MOL0     C91238   0.827   3.124   1.920  0.2587 -0.5349  0.2966
  692MOL0     C91239   0.706   3.110   1.992  0.5767 -0.1829  0.4216
  692MOL0     C91240   0.607   3.210   2.001 -0.9713  0.2172  0.4402
  692MOL0     C91241   0.480   3.194   2.069  0.5391  0.1122  0.1278
  692MOL0     O91242   0.379   3.273   2.020 -0.0975  0.0556 -0.3776
  692MOL0     C91243   0.246   3.268   2.063  0.3489 -0.5389 -0.1359
  692MOL0     C91244   0.174   3.394   2.067 -0.4830  0.2304  0.4633
  692MOL0     C91245   0.044   3.403   2.121  0.1275  0.2519  0.6043
  692MOL0     C91246  -0.016   3.292   2.173  0.3267  0.0757 -0.4934
  692MOL0     O91247  -0.146   3.306   2.220  0.2575  0.6351 -0.1125
  692MOL0     C91248  -0.242   3.297   2.108  0.8294 -0.1065  0.2433
  692MOL0     C91249  -0.388   3.307   2.154 -0.9443 -0.2486  0.2558
  692MOL0     C91250  -0.490   3.203   2.098  0.1071 -0.9437  0.4636
  692MOL0     C91251  -0.607   3.198   2.204  0.2545  0.2449 -0.3560
  692MOL0     C91252  -0.715   3.111   2.143 -1.0375  0.7486 -0.6782
  692MOL0     C91253  -0.812   3.067   2.237  0.6563 -0.5484  0.4152
  692MOL0     C91254  -0.943   3.021   2.161 -0.2641  0.0592  0.2915
  692MOL0     C91255  -0.936   2.881   2.099  0.3822  0.3441 -0.2830
  692MOL0    Cl91256  -0.838   2.861   1.959 -0.4654  0.1030  0.1935
  692MOL0     C91257   0.051   3.166   2.169 -0.4635  0.3799 -0.1809
  692MOL0     C91258   0.182   3.156   2.122  0.4538 -0.5157 -1.1333
  692MOL0     O91259   0.475   3.111   2.161  0.3284  0.2773 -0.5952
  692MOL0     C91260   0.639   3.329   1.938  0.3070 -0.0703  0.8663
  692MOL0     C91261   0.754   3.358   1.866  0.4516  0.0202  0.3430
  692MOL0     N91262   1.517   3.144   1.654  0.1527 -0.8249 -0.3172
  692MOL0     N91263   1.610   3.237   1.681 -0.4559  0.1403  0.0041
  692MOL0     C91264   2.690   2.951   2.197 -0.3889 -0.2226 -0.7255
  692MOL0     C91265   2.828   2.940   2.220 -0.4745  0.1364 -0.7022
  692MOL0     C91266   3.235   2.778   2.261 -0.9314 -0.9234 -0.1167
  692MOL0     C91267   3.302   2.905   2.235 -0.2019  1.0556  0.8572
  692MOL0     C91268   3.440   2.908   2.237  0.4778 -0.1691  0.3766
  692MOL0     C91269   3.521   2.794   2.271 -0.3380 -0.1970 -0.2546
  692MOL0     O91270   3.660   2.802   2.285  0.6033  0.3077 -0.1752
  692MOL0     C91271   3.721   2.908   2.211  0.4445 -0.7353  0.4533
  692MOL0     C91272   3.866   2.887   2.258  0.2174  1.5399 -0.0147
  692MOL0     C91273   3.955   3.008   2.229 -0.4419 -0.0747  0.5135
  692MOL0     C91274   4.099   2.972   2.252 -0.2729 -0.5454 -0.1318
  692MOL0     C91275   4.136   2.965   2.396 -0.1574  0.2884 -0.1405
  692MOL0     C91276   4.150   2.959   2.522 -0.6700  0.7933 -0.2512
  692MOL0     C91277   3.451   2.674   2.309  0.1739  0.9075 -0.2319
  692MOL0     C91278   3.312   2.666   2.311  0.3393  0.2609  0.0548
  692MOL0     H91279   2.891   2.696   1.990  0.2707  2.4193 -1.2441
  692MOL0     H91280   2.651   2.711   1.952 -0.1768 -0.4227 -0.5286
  692MOL0     H91281   2.395   2.714   2.074 -2.3404  1.1085  0.1271
  692MOL0     H91282   2.449   2.775   1.916  0.5897  1.1836  0.3243
  692MOL0     H91283   2.216   2.827   2.108  0.0079  1.4973  0.4725
  692MOL0     H91284   2.213   2.765   1.940  1.4010 -1.3731  0.2414
  692MOL0     H91285   2.279   2.984   1.850  1.3802  2.4781  1.3369
  692MOL0     H91286   2.271   3.054   2.011 -0.7578  1.2619 -0.4730
  692MOL0     H91287   2.036   2.914   1.891  0.3417 -2.2615  2.7869
  692MOL0     H91288   2.031   2.997   2.035 -0.1345  0.2256 -0.2968
  692MOL0     H91289   2.084   3.142   1.782  0.9277 -3.8662  0.8167
  692MOL0     H91290   2.089   3.228   1.940 -0.5640  1.1852 -2.0183
  692MOL0     H91291   1.839   3.100   1.932 -1.7749  0.1394 -1.2912
  692MOL0     H91292   1.873   3.123   1.762  1.8796 -0.7803 -0.9017
  692MOL0     H91293   1.900   3.371   1.926  0.1812  1.1215 -2.4904
  692MOL0     H91294   1.864   3.348   1.757 -0.0463  3.4735  0.5096
  692MOL0     H91295   1.685   3.455   1.875  0.7156 -0.6298 -1.1306
  692MOL0     H91296   1.686   3.327   1.997 -1.7530 -1.3311 -0.0500
  692MOL0     H91297   1.464   3.210   1.977 -1.8766 -0.7777 -0.4674
  692MOL0     H91298   1.365   2.928   1.794  0.4964  0.7218 -0.7297
  692MOL0     H91299   1.269   3.018   1.680 -2.0829  2.0913  0.6597
  692MOL0     H91300   1.292   3.066   1.983  2.1336  3.8617 -1.4797
  692MOL0     H91301   1.158   2.972   1.910 -1.1687 -0.4868 -3.0034
  692MOL0     H91302   1.088   3.173   1.971 -0.0742 -1.0997 -0.0923
  692MOL0     H91303   1.211   3.268   1.890  1.4605 -1.3091  3.6022
  692MOL0     H91304   1.014   3.079   1.738  1.0798 -0.1350 -1.4631
  692MOL0     H91305   1.114   3.209   1.676 -0.1191  3.4572  0.7685
  692MOL0     H91306   0.898   3.043   1.913  1.4900  0.3736  1.6426
  692MOL0     H91307   0.686   3.015   2.041 -0.2279 -0.6253 -0.7220
  692MOL0     H91308   0.220   3.483   2.026 -1.2502  0.1249 -0.6870
  692MOL0     H91309  -0.006   3.499   2.112  1.9936  1.1337 -1.3556
  692MOL0     H91310  -0.230   3.202   2.055  0.1304 -0.0996  0.0662
  692MOL0     H91311  -0.209   3.367   2.031  2.5690 -0.6714  0.4496
  692MOL0     H91312  -0.413   3.413   2.146 -1.5768 -0.2723  1.5198
  692MOL0     H91313  -0.379   3.308   2.263 -0.8310  3.2191  0.3439
  692MOL0     H91314  -0.451   3.101   2.086 -1.3888 -1.5607  0.5845
  692MOL0     H91315  -0.527   3.241   2.003 -1.1639  0.2307  1.3808
  692MOL0     H91316  -0.568   3.152   2.296  1.3448 -1.3853 -1.5560
  692MOL0     H91317  -0.645   3.299   2.220  0.9296  0.1161  2.7132
  692MOL0     H91318  -0.664   3.025   2.099  0.5593  2.5845 -2.6612
  692MOL0     H91319  -0.763   3.163   2.060 -0.0503  3.2578  0.2285
  692MOL0     H91320  -0.837   3.156   2.296 -1.0122 -0.3521 -0.5147
  692MOL0     H91321  -0.775   2.982   2.296  1.9398  0.3836  0.9898
  692MOL0     H91322  -1.029   3.021   2.229 -0.5886  2.0804 -0.0318
  692MOL0     H91323  -0.963   3.106   2.094 -0.4597  0.8257  1.3015
  692MOL0     H91324  -1.034   2.833   2.087  1.3338 -1.8255  0.2001
  692MOL0     H91325  -0.887   2.815   2.171  0.6293  2.9188  2.0790
  692MOL0     H91326  -0.004   3.083   2.214 -0.9584  1.7556  1.9024
  692MOL0     H91327   0.225   3.057   2.127  0.2062 -0.6128 -0.9249
  692MOL0     H91328   0.553   3.395   1.935  1.1074  0.9927  1.0569
  692MOL0     H91329   0.752   3.439   1.793  1.3026 -1.3280 -1.2626
  692MOL0     H91330   2.633   3.025   2.254  0.1662 -3.4619  4.7935
  692MOL0     H91331   2.881   3.013   2.280 -0.9947 -0.3287  0.3553
  692MOL0     H91332   3.238   2.982   2.193 -2.3934 -0.8604  0.4372
  692MOL0     H91333   3.490   3.003   2.221 -1.4011  0.9180  0.7239
  692MOL0     H91334   3.683   3.009   2.229 -3.1276 -2.2663  2.6061
  692MOL0     H91335   3.717   2.885   2.104  0.6391  1.8687 -0.1709
  692MOL0     H91336   3.855   2.886   2.367 -0.0231 -1.7379  0.0331
  692MOL0     H91337   3.912   2.795   2.219 -0.4936  0.6637  1.1219
  692MOL0     H91338   3.929   3.083   2.304 -1.5588 -0.1170  0.1814
  692MOL0     H91339   3.943   3.045   2.127  2.7762  1.8631  0.6980
  692MOL0     H91340   4.124   2.877   2.205  1.0064  1.7157 -4.5574
  692MOL0     H91341   4.173   3.036   2.203  2.1755 -1.7967  1.6945
  692MOL0     H91342   4.154   2.964   2.629 -0.5764  0.4004 -0.2352
  692MOL0     H91343   3.517   2.594   2.341 -0.5087  0.1973 -0.5814
  692MOL0     H91344   3.274   2.566   2.330  0.0948  0.1542 -0.9285
  693MOL0     O91345   1.085   8.628  10.883 -0.6285 -0.5264 -1.2943
  693MOL0     C91346   1.138   8.713  10.810  0.6934 -0.9101 -0.9166
  693MOL0     O91347   1.072   8.781  10.710  0.3182 -0.1960  0.3096
  693MOL0     C91348   0.941   8.785  10.691 -0.1988 -0.3080 -0.0917
  693MOL0     C91349   0.840   8.713  10.760  0.5267 -0.3195 -0.4790
  693MOL0     C91350   0.703   8.728  10.731  0.4487  0.0041  0.0462
  693MOL0     C91351   0.662   8.813  10.630 -0.4094 -0.5838 -0.8100
  693MOL0     O91352   0.538   8.821  10.597  0.3375  0.4774 -0.2466
  693MOL0     C91353   0.433   8.809  10.701 -0.2731 -0.0075 -0.1458
  693MOL0     C91354   0.311   8.770  10.632 -0.9677 -0.5477 -0.4151
  693MOL0     C91355   0.188   8.799  10.715  0.1891 -1.2212  0.3961
  693MOL0     C91356   0.161   8.698  10.829 -0.1101  0.0377  0.2463
  693MOL0     C91357   0.012   8.680  10.855 -1.2468 -0.0537 -0.6647
  693MOL0     C91358  -0.060   8.798  10.913 -0.1353  0.5298 -0.1648
  693MOL0     C91359  -0.182   8.754  10.990 -0.8845 -1.2144 -0.3656
  693MOL0     C91360  -0.276   8.871  11.038  0.0104  0.3337 -0.0281
  693MOL0     N91361  -0.403   8.821  11.098 -0.4025  0.5580  0.6087
  693MOL0     C91362  -0.509   8.761  11.023  0.1347 -0.2628  0.2781
  693MOL0     C91363  -0.599   8.729  11.117  0.3919  0.7947  0.1626
  693MOL0     C91364  -0.728   8.656  11.090 -0.1840 -1.0565 -0.4177
  693MOL0     C91365  -0.818   8.630  11.219  0.2740  0.7499 -0.3462
  693MOL0     C91366  -0.947   8.554  11.194  0.3850 -0.1101  0.7473
  693MOL0     C91367  -1.022   8.525  11.328  0.9546 -0.3599 -0.7607
  693MOL0     O91368  -1.145   8.452  11.302  0.9690  0.5368 -0.3696
  693MOL0     C91369  -1.262   8.507  11.340 -0.0717  0.3189 -0.5848
  693MOL0     C91370  -1.358   8.421  11.405 -1.0964 -0.4035 -0.6103
  693MOL0     C91371  -1.486   8.472  11.427 -0.4852 -0.0476  0.4030
  693MOL0     C91372  -1.520   8.603  11.398  0.4522 -0.1099 -0.4551
  693MOL0     C91373  -1.654   8.654  11.421  0.8039  0.2075 -0.5477
  693MOL0     O91374  -1.709   8.603  11.536 -0.0955  0.9994 -0.0820
  693MOL0     C91375  -1.840   8.633  11.569 -0.4059 -0.6809  0.3727
  693MOL0     C91376  -1.944   8.651  11.473  0.6835 -0.3117  0.7280
  693MOL0     C91377  -2.080   8.688  11.514 -0.1798 -0.5906 -0.0950
  693MOL0     C91378  -2.117   8.681  11.647 -0.8625 -0.4740 -0.2266
  693MOL0     O91379  -2.243   8.691  11.701  0.1849 -0.1824 -0.7750
  693MOL0     C91380  -2.349   8.731  11.611 -0.2943 -0.7312  0.6654
  693MOL0     C91381  -2.484   8.730  11.687 -0.3118  0.2328 -0.5336
  693MOL0     C91382  -2.612   8.741  11.593 -0.4389 -0.1212 -0.3676
  693MOL0     C91383  -2.734   8.705  11.680 -0.2420  0.5085  0.4938
  693MOL0     C91384  -2.879   8.727  11.618 -0.6326  0.1252 -0.3318
  693MOL0     C91385  -2.934   8.601  11.542 -0.2361 -0.4394  0.1997
  693MOL0     C91386  -3.053   8.644  11.453 -0.8099  1.0244 -1.1934
  693MOL0     C91387  -3.120   8.518  11.389 -0.2719 -1.3455  0.3959
  693MOL0    Cl91388  -3.299   8.541  11.353 -0.4237  0.1418 -0.1641
  693MOL0     C91389  -2.021   8.643  11.738 -0.3162  0.0653  0.6140
  693MOL0     C91390  -1.881   8.628  11.705  0.2991 -0.5487 -0.0462
  693MOL0     O91391  -1.702   8.726  11.340  0.2290 -0.1900 -0.7349
  693MOL0     C91392  -1.425   8.682  11.332  0.1621 -0.3583 -0.9658
  693MOL0     C91393  -1.304   8.632  11.293  0.0317  0.0880 -1.2842
  693MOL0     N91394  -0.553   8.772  11.236 -0.4724 -0.2105 -0.6978
  693MOL0     N91395  -0.442   8.831  11.231 -0.1094  0.5644 -0.1539
  693MOL0     C91396   0.757   8.887  10.555 -0.9148 -0.4475 -0.6158
  693MOL0     C91397   0.901   8.870  10.584  0.9360  0.1401 -0.2039
  693MOL0     C91398   1.282   8.728  10.821 -0.4052  0.6180  0.2267
  693MOL0     C91399   1.358   8.665  10.919  0.4803 -0.4066  0.1391
  693MOL0     C91400   1.496   8.689  10.933  0.2010 -0.2223 -1.1427
  693MOL0     C91401   1.558   8.784  10.854  0.2490  0.3443  0.2686
  693MOL0     O91402   1.685   8.818  10.860 -0.3820  0.1401  0.5198
  693MOL0     C91403   1.757   8.744  10.960 -0.3323  0.6301  0.3588
  693MOL0     C91404   1.905   8.772  10.964 -0.4899 -1.1291  0.8542
  693MOL0     C91405   1.967   8.760  10.827 -0.5313  0.6880  0.8493
  693MOL0     C91406   2.114   8.805  10.818  0.1961 -0.3985 -0.5993
  693MOL0     C91407   2.158   8.820  10.680  0.2364  0.1354  0.7946
  693MOL0     C91408   2.195   8.822  10.561 -0.6475 -0.0772 -0.1448
  693MOL0     C91409   1.482   8.846  10.758  0.1096 -0.1282  0.4059
  693MOL0     C91410   1.349   8.813  10.738  0.1260 -0.0436 -0.0542
  693MOL0     H91411   0.850   8.628  10.827 -1.8107  1.0416  1.7572
  693MOL0     H91412   0.637   8.667  10.792  2.0233 -0.7914  1.0208
  693MOL0     H91413   0.424   8.904  10.755  0.6108 -1.4535  2.6796
  693MOL0     H91414   0.451   8.732  10.776  0.4320 -0.2442 -0.5484
  693MOL0     H91415   0.313   8.663  10.613  0.6452 -0.5657 -0.2227
  693MOL0     H91416   0.307   8.828  10.539 -0.7616 -1.8294 -1.2410
  693MOL0     H91417   0.103   8.783  10.648 -0.0298  0.0084  0.3594
  693MOL0     H91418   0.191   8.904  10.746 -2.7729  0.9250 -5.1696
  693MOL0     H91419   0.197   8.602  10.791  1.7136 -0.1809  2.3337
  693MOL0     H91420   0.217   8.723  10.920 -0.1796 -0.8459  0.5431
  693MOL0     H91421   0.014   8.610  10.940  1.4522  1.8609  1.0044
  693MOL0     H91422  -0.042   8.645  10.766 -0.4417  1.4205 -1.7726
  693MOL0     H91423  -0.087   8.873  10.839  3.0647  0.8749 -1.1220
  693MOL0     H91424   0.010   8.842  10.984  0.9968  1.9085 -2.0545
  693MOL0     H91425  -0.245   8.689  10.929 -1.4863 -1.4144  0.4414
  693MOL0     H91426  -0.144   8.703  11.079 -1.2258  1.5625  1.5041
  693MOL0     H91427  -0.292   8.940  10.955  1.9837  0.7689 -0.0995
  693MOL0     H91428  -0.236   8.942  11.111  0.4095  1.3344 -1.1766
  693MOL0     H91429  -0.509   8.732  10.919  1.5405 -0.1809  0.2301
  693MOL0     H91430  -0.698   8.557  11.053  0.7464 -0.5338 -1.0899
  693MOL0     H91431  -0.788   8.700  11.009  1.3010 -0.9259 -1.4879
  693MOL0     H91432  -0.842   8.731  11.253 -1.3675  1.0936 -2.3657
  693MOL0     H91433  -0.755   8.578  11.292  0.4827  1.0533 -0.3106
  693MOL0     H91434  -1.011   8.622  11.137 -0.8000 -2.0674 -0.3595
  693MOL0     H91435  -0.927   8.462  11.139  0.1895 -0.7975  1.7961
  693MOL0     H91436  -1.049   8.619  11.377 -1.5948 -1.5457  0.3252
  693MOL0     H91437  -0.959   8.475  11.402  1.0328  1.1613  0.2521
  693MOL0     H91438  -1.327   8.325  11.444 -1.1944  0.6445  2.2127
  693MOL0     H91439  -1.559   8.413  11.480 -0.3379 -0.9366 -0.3497
  693MOL0     H91440  -1.923   8.652  11.367  0.6545 -0.6648  0.7172
  693MOL0     H91441  -2.152   8.707  11.435  1.2841 -0.5788 -1.4646
  693MOL0     H91442  -2.360   8.656  11.533  0.0624 -1.4912  1.3306
  693MOL0     H91443  -2.334   8.833  11.573 -0.9026 -1.3811 -1.4355
  693MOL0     H91444  -2.487   8.815  11.756  1.7051 -1.9155  2.4461
  693MOL0     H91445  -2.480   8.635  11.742  0.3114 -0.9239 -2.4884
  693MOL0     H91446  -2.602   8.671  11.509 -2.4730 -0.6235 -0.2483
  693MOL0     H91447  -2.619   8.841  11.550 -0.4614  0.2138  0.4066
  693MOL0     H91448  -2.726   8.601  11.714  1.5924 -1.2604 -4.4383
  693MOL0     H91449  -2.726   8.764  11.772 -2.5119  0.3874  0.8221
  693MOL0     H91450  -2.877   8.819  11.558  3.4251 -0.1596 -0.9250
  693MOL0     H91451  -2.934   8.754  11.709  3.1842 -0.3488  2.3505
  693MOL0     H91452  -2.971   8.527  11.614 -1.9663  1.1799  1.0342
  693MOL0     H91453  -2.856   8.561  11.476 -0.7817 -1.5670  0.2006
  693MOL0     H91454  -3.130   8.700  11.507  0.4153  1.5400  0.0657
  693MOL0     H91455  -3.027   8.716  11.375 -3.2672  1.1027 -2.0143
  693MOL0     H91456  -3.120   8.428  11.451 -1.2948 -1.6401 -0.0042
  693MOL0     H91457  -3.066   8.503  11.295  1.7707  3.2831  0.5682
  693MOL0     H91458  -2.040   8.653  11.844 -2.9657 -0.9850  0.3102
  693MOL0     H91459  -1.813   8.611  11.787  0.7956  0.9008 -0.1411
  693MOL0     H91460  -1.445   8.783  11.297  0.9672  0.4489  0.7580
  693MOL0     H91461  -1.237   8.705  11.247  0.8703 -0.1093 -0.4111
  693MOL0     H91462   0.732   8.951  10.471 -0.1132 -0.9503 -1.2601
  693MOL0     H91463   0.975   8.932  10.535 -0.7594  1.7496 -0.8667
  693MOL0     H91464   1.299   8.613  10.993 -3.4688  0.3086 -2.2494
  693MOL0     H91465   1.535   8.626  11.012 -0.5417 -0.8644 -1.2699
  693MOL0     H91466   1.752   8.637  10.938 -0.6783  0.0431  2.9239
  693MOL0     H91467   1.726   8.760  11.064  0.7752  0.0939  0.7861
  693MOL0     H91468   1.930   8.872  11.000  0.0643 -0.2217 -1.8199
  693MOL0     H91469   1.947   8.697  11.032  1.7873 -2.4772 -1.8384
  693MOL0     H91470   1.910   8.804  10.745 -0.3086 -2.2352 -1.0046
  693MOL0     H91471   1.958   8.653  10.804  1.2133  0.7537 -0.3143
  693MOL0     H91472   2.136   8.903  10.862  4.2552 -0.9773 -0.8879
  693MOL0     H91473   2.175   8.731  10.871 -0.7282 -1.7166 -1.3370
  693MOL0     H91474   2.223   8.815  10.457 -0.4649  1.4373 -0.2114
  693MOL0     H91475   1.519   8.924  10.691 -1.6062 -0.2008 -0.6962
  693MOL0     H91476   1.303   8.877  10.664  3.9662  1.4634 -1.3375
  694MOL0     O91477   7.220  10.785   6.543 -0.2492  0.2272  0.4926
  694MOL0     C91478   7.260  10.670   6.510  0.5654  0.4811 -0.1042
  694MOL0     O91479   7.172  10.564   6.503 -0.3099 -0.2301 -0.5344
  694MOL0     C91480   7.028  10.585   6.511  0.2438  0.2791  0.3173
  694MOL0     C91481   6.947  10.476   6.506  0.1574  0.0422 -0.0858
  694MOL0     C91482   6.805  10.479   6.503  0.9689 -0.9046  0.1582
  694MOL0     C91483   6.733  10.602   6.504  0.2451  0.2564 -0.4942
  694MOL0     O91484   6.597  10.619   6.485 -0.4914  0.3088 -0.2282
  694MOL0     C91485   6.517  10.500   6.465 -0.4058 -0.1091  0.1845
  694MOL0     C91486   6.368  10.527   6.491 -0.1288 -0.0597 -0.1282
  694MOL0     C91487   6.323  10.653   6.428 -0.7453 -0.4802 -0.0099
  694MOL0     C91488   6.169  10.658   6.418  0.4829 -0.7455  0.2266
  694MOL0     C91489   6.114  10.727   6.300 -0.4337  0.0867  0.2951
  694MOL0     C91490   5.958  10.715   6.307  0.8074  0.0131 -0.2279
  694MOL0     C91491   5.892  10.759   6.444 -0.3405  0.5007  0.2481
  694MOL0     C91492   5.742  10.781   6.421 -0.3778  1.1680 -0.0727
  694MOL0     N91493   5.671  10.855   6.527  0.0715  0.5470 -0.7255
  694MOL0     C91494   5.578  10.796   6.614 -0.7108  0.8908 -0.1072
  694MOL0     C91495   5.554  10.885   6.709  0.2887  0.2462 -0.3043
  694MOL0     C91496   5.440  10.874   6.810 -0.5269 -0.3605 -0.3508
  694MOL0     C91497   5.314  10.936   6.758 -0.0839 -0.4743 -0.2514
  694MOL0     C91498   5.254  10.864   6.624 -0.2038 -0.9064 -0.0145
  694MOL0     C91499   5.132  10.936   6.573  0.3987 -0.1774  0.1027
  694MOL0     O91500   5.028  10.922   6.668  0.6920  0.3422  0.6210
  694MOL0     C91501   4.909  10.989   6.638  0.0500  0.8328 -0.2913
  694MOL0     C91502   4.876  11.061   6.515 -0.3287  0.0429 -0.3146
  694MOL0     C91503   4.765  11.144   6.511  0.3279 -0.2464  0.5427
  694MOL0     C91504   4.671  11.152   6.614 -0.7450 -0.7508  0.3562
  694MOL0     C91505   4.540  11.218   6.602  0.1171  0.1429 -0.4663
  694MOL0     O91506   4.519  11.274   6.481  0.7379  0.2342 -0.1626
  694MOL0     C91507   4.391  11.293   6.445 -0.2048 -0.2761 -0.1070
  694MOL0     C91508   4.362  11.418   6.386  0.2255  0.4818  0.7380
  694MOL0     C91509   4.232  11.444   6.334 -0.2371 -0.8410  0.0854
  694MOL0     C91510   4.134  11.351   6.334 -0.3632  0.6239  0.2187
  694MOL0     O91511   4.003  11.379   6.294 -0.1174  0.2005  0.0774
  694MOL0     C91512   3.956  11.511   6.268 -0.1572  0.5403 -0.1221
  694MOL0     C91513   3.820  11.512   6.203  0.3338  0.0202  0.1243
  694MOL0     C91514   3.701  11.469   6.284 -0.9115  0.0621  0.1554
  694MOL0     C91515   3.571  11.513   6.223  0.2727  0.2777  0.0418
  694MOL0     C91516   3.539  11.658   6.227  0.8180 -1.1661  0.5213
  694MOL0     C91517   3.388  11.683   6.175 -0.3872 -0.6709 -0.4875
  694MOL0     C91518   3.365  11.646   6.029 -0.3494 -0.8276 -0.3547
  694MOL0     C91519   3.221  11.671   5.991 -0.5286  0.0371  0.6784
  694MOL0    Cl91520   3.182  11.593   5.825  0.1466 -0.2982 -0.0919
  694MOL0     C91521   4.159  11.231   6.401 -0.0724 -1.0201  0.4793
  694MOL0     C91522   4.287  11.199   6.452 -0.5025  0.6032  0.1143
  694MOL0     O91523   4.458  11.192   6.690  0.4761 -0.1888  0.0013
  694MOL0     C91524   4.698  11.081   6.734 -0.0839  0.3440  0.8390
  694MOL0     C91525   4.815  11.004   6.740  0.4244 -0.1663 -0.3740
  694MOL0     N91526   5.627  10.996   6.689  0.4753  1.5225  0.5072
  694MOL0     N91527   5.693  10.978   6.581  0.4464 -0.3768  0.0089
  694MOL0     C91528   6.815  10.716   6.509  0.2318 -0.4431  0.0076
  694MOL0     C91529   6.958  10.709   6.514 -0.1680 -0.0076 -0.0841
  694MOL0     C91530   7.394  10.638   6.476 -0.6940  0.9978  0.2440
  694MOL0     C91531   7.441  10.500   6.466  0.5599 -0.6418  0.2643
  694MOL0     C91532   7.569  10.470   6.441  0.4725  0.3076  0.4985
  694MOL0     C91533   7.663  10.574   6.407 -0.0757 -0.2186  0.0038
  694MOL0     O91534   7.792  10.562   6.357  0.4515 -0.2937 -0.1764
  694MOL0     C91535   7.866  10.449   6.393  0.1412 -0.2791  0.1105
  694MOL0     C91536   7.894  10.458   6.546 -0.1722  0.0613  0.3998
  694MOL0     C91537   8.018  10.530   6.581 -0.6416 -0.1447  0.4793
  694MOL0     C91538   8.081  10.504   6.718 -1.0733 -0.6096  0.7512
  694MOL0     C91539   7.987  10.549   6.827 -0.7516 -0.0765  0.7359
  694MOL0     C91540   7.902  10.580   6.908 -0.1922 -0.7514 -0.4149
  694MOL0     C91541   7.619  10.704   6.428 -0.0547  0.1965 -0.7841
  694MOL0     C91542   7.490  10.734   6.464  0.7193 -0.4765 -0.4820
  694MOL0     H91543   7.000  10.381   6.511  0.6044  0.1979 -1.4427
  694MOL0     H91544   6.750  10.386   6.509 -0.3207 -0.0934  1.6375
  694MOL0     H91545   6.549  10.425   6.538  1.5962 -2.3522 -2.7569
  694MOL0     H91546   6.529  10.451   6.368 -0.6087  0.5556 -0.1850
  694MOL0     H91547   6.345  10.540   6.597 -1.2300  2.6399 -0.6080
  694MOL0     H91548   6.307  10.447   6.449 -0.4079  1.9563 -4.0332
  694MOL0     H91549   6.364  10.665   6.327 -0.5770 -0.7470  0.0274
  694MOL0     H91550   6.362  10.734   6.491  0.6356 -0.5730 -0.7096
  694MOL0     H91551   6.123  10.560   6.404 -1.0279 -0.2361  1.3949
  694MOL0     H91552   6.138  10.708   6.510 -0.4985  2.9707 -1.9280
  694MOL0     H91553   6.130  10.683   6.201 -3.0291 -0.8857  0.2260
  694MOL0     H91554   6.160  10.826   6.306  1.4076 -0.7575  5.7162
  694MOL0     H91555   5.936  10.608   6.294  0.3604  0.0885 -0.0939
  694MOL0     H91556   5.919  10.763   6.217  0.3863 -3.4640 -2.0851
  694MOL0     H91557   5.913  10.696   6.531 -0.6291  0.9517  0.6457
  694MOL0     H91558   5.941  10.853   6.471  1.6699 -0.8264  1.3999
  694MOL0     H91559   5.691  10.685   6.410  3.3591 -0.7740 -3.0062
  694MOL0     H91560   5.719  10.827   6.324  0.1922 -0.8282 -1.1952
  694MOL0     H91561   5.516  10.708   6.602  0.4068  0.2125 -1.0663
  694MOL0     H91562   5.476  10.922   6.901 -0.0206  0.8298 -1.1507
  694MOL0     H91563   5.421  10.769   6.835  0.6877 -0.0857  2.0077
  694MOL0     H91564   5.342  11.039   6.737 -0.0648 -0.6091 -0.9074
  694MOL0     H91565   5.237  10.940   6.835  0.6862 -0.9513  0.5625
  694MOL0     H91566   5.329  10.871   6.545 -1.5966 -2.7897 -1.5857
  694MOL0     H91567   5.226  10.761   6.645  2.2523 -1.5500  0.4320
  694MOL0     H91568   5.100  10.890   6.479  0.6134 -1.1724  0.5085
  694MOL0     H91569   5.159  11.041   6.554  0.4186 -0.3340 -0.7810
  694MOL0     H91570   4.938  11.051   6.426 -1.2433 -0.7560 -0.8846
  694MOL0     H91571   4.736  11.183   6.414  0.2346 -2.4166 -0.3576
  694MOL0     H91572   4.443  11.487   6.371  0.0308  0.2598 -1.7444
  694MOL0     H91573   4.221  11.537   6.279  0.5226 -0.4981  0.4963
  694MOL0     H91574   4.021  11.571   6.204  0.7725  2.9634  2.8481
  694MOL0     H91575   3.937  11.568   6.360 -2.4409  0.4176 -0.4465
  694MOL0     H91576   3.813  11.451   6.113 -1.8663  1.1946 -0.5588
  694MOL0     H91577   3.808  11.613   6.163  2.6942 -0.4854 -2.1767
  694MOL0     H91578   3.710  11.511   6.384  0.0397 -0.7286  0.4269
  694MOL0     H91579   3.714  11.360   6.287  0.3105  0.1858 -0.0826
  694MOL0     H91580   3.579  11.487   6.117 -0.1411  1.1921 -0.2231
  694MOL0     H91581   3.487  11.465   6.275 -2.2142  3.3918 -0.7979
  694MOL0     H91582   3.612  11.710   6.165  0.0137  1.4896  1.6612
  694MOL0     H91583   3.545  11.696   6.329  1.2676  3.8687 -1.1335
  694MOL0     H91584   3.388  11.790   6.198 -0.8181 -1.2655  2.7221
  694MOL0     H91585   3.320  11.633   6.244 -1.0534  0.8527  0.0154
  694MOL0     H91586   3.434  11.702   5.965  0.8054 -0.0955  1.4566
  694MOL0     H91587   3.392  11.542   6.008  0.1804 -0.8048  0.2091
  694MOL0     H91588   3.216  11.780   5.995 -3.0791 -0.0659  2.8884
  694MOL0     H91589   3.153  11.635   6.068 -2.7323  2.1809 -0.1670
  694MOL0     H91590   4.076  11.162   6.413 -1.5899  0.6411  0.0001
  694MOL0     H91591   4.302  11.098   6.489 -4.0467  0.3326  1.1650
  694MOL0     H91592   4.647  11.073   6.829 -0.1975 -0.5326  0.7163
  694MOL0     H91593   4.843  10.947   6.827  1.9987 -3.0008 -2.5497
  694MOL0     H91594   6.769  10.813   6.524  1.8788  0.6352 -1.5050
  694MOL0     H91595   7.009  10.803   6.529  1.2495 -0.8841  0.8638
  694MOL0     H91596   7.377  10.414   6.473 -2.1740  1.1064 -1.3328
  694MOL0     H91597   7.600  10.367   6.427 -2.3181 -0.3616 -1.5908
  694MOL0     H91598   7.964  10.436   6.346  0.4465 -0.0730  0.6827
  694MOL0     H91599   7.810  10.356   6.380 -2.2187  0.9117  1.1862
  694MOL0     H91600   7.813  10.503   6.604  1.3507  2.5044  0.8033
  694MOL0     H91601   7.901  10.355   6.580  0.3950  0.2498  0.8680
  694MOL0     H91602   7.996  10.635   6.562 -1.4977 -0.1685  1.2160
  694MOL0     H91603   8.089  10.493   6.507 -0.8589 -0.7659  0.5681
  694MOL0     H91604   8.115  10.400   6.724 -0.0136 -0.2288  1.8421
  694MOL0     H91605   8.177  10.556   6.726  0.1628 -2.7057  0.5378
  694MOL0     H91606   7.826  10.601   6.980 -0.7891  1.7451 -1.6744
  694MOL0     H91607   7.693  10.782   6.409 -0.6505  0.4563 -2.1218
  694MOL0     H91608   7.453  10.834   6.481 -2.5671 -1.6986  0.3506
  695MOL0     O91609   5.430   3.465   8.968 -0.2286 -0.3716  0.0496
  695MOL0     C91610   5.412   3.341   8.963  0.6767 -0.1239  0.6336
  695MOL0     O91611   5.500   3.239   8.913  0.2688 -0.7193 -0.3831
  695MOL0     C91612   5.627   3.271   8.866  0.3331  0.6290 -0.4481
  695MOL0     C91613   5.722   3.343   8.945 -0.5228 -1.2039 -0.2100
  695MOL0     C91614   5.851   3.363   8.894 -0.3743  0.5616 -0.1912
  695MOL0     C91615   5.879   3.329   8.762 -0.0326 -0.0714  0.3353
  695MOL0     O91616   6.011   3.358   8.714 -0.8554 -0.1120  0.3217
  695MOL0     C91617   6.025   3.361   8.575 -0.1694  0.3319  0.8217
  695MOL0     C91618   6.184   3.397   8.568  0.3455  0.0753 -0.0086
  695MOL0     C91619   6.204   3.459   8.433  0.6484  0.0684 -0.3869
  695MOL0     C91620   6.349   3.506   8.418  0.1320  1.1073  0.0063
  695MOL0     C91621   6.362   3.531   8.267  0.3068 -0.3749  0.6440
  695MOL0     C91622   6.493   3.610   8.240 -0.8650  0.0050 -0.0022
  695MOL0     C91623   6.622   3.520   8.247 -0.5021  0.2476  0.5707
  695MOL0     C91624   6.742   3.622   8.234 -0.3409  0.8051 -1.6252
  695MOL0     N91625   6.872   3.544   8.225  0.3294  0.7041  0.1074
  695MOL0     C91626   6.973   3.555   8.310  0.2433 -0.4325 -0.2295
  695MOL0     C91627   7.075   3.484   8.262 -0.1209  0.2775 -0.4939
  695MOL0     C91628   7.208   3.469   8.321  0.2794 -0.4932 -0.4025
  695MOL0     C91629   7.310   3.474   8.217 -0.0454  0.2310  0.5452
  695MOL0     C91630   7.451   3.462   8.274  0.8729  0.0553 -0.1609
  695MOL0     C91631   7.555   3.478   8.167 -0.7429  0.1124  0.1929
  695MOL0     O91632   7.556   3.607   8.100  0.2446  0.0875  0.3619
  695MOL0     C91633   7.653   3.639   8.007  0.7399  0.3630  0.7130
  695MOL0     C91634   7.746   3.549   7.947 -0.2787  0.2102  0.0041
  695MOL0     C91635   7.844   3.591   7.855  0.1298  0.3172  0.5027
  695MOL0     C91636   7.858   3.729   7.821  0.2895  0.2154  0.6132
  695MOL0     C91637   7.962   3.772   7.733 -0.8956  0.1463 -0.6847
  695MOL0     O91638   8.051   3.673   7.688 -0.3986 -0.7813 -0.3364
  695MOL0     C91639   8.156   3.678   7.597 -0.0517 -0.0941  0.1113
  695MOL0     C91640   8.217   3.801   7.571 -0.0204  0.4848  0.2830
  695MOL0     C91641   8.303   3.803   7.467  0.3741  0.1252  0.5655
  695MOL0     C91642   8.351   3.689   7.401 -0.3654 -0.0762 -0.7111
  695MOL0     O91643   8.452   3.693   7.306 -0.5435  0.8572  0.3947
  695MOL0     C91644   8.524   3.812   7.274  0.3939 -1.0218  0.2145
  695MOL0     C91645   8.626   3.784   7.167 -0.5149  0.2813  0.7291
  695MOL0     C91646   8.715   3.902   7.135  0.5457  0.4821  0.9912
  695MOL0     C91647   8.664   4.032   7.065 -0.2747 -0.6730  0.0218
  695MOL0     C91648   8.735   4.164   7.093  0.7575 -0.4368  0.8014
  695MOL0     C91649   8.668   4.277   7.013  0.2733  0.7239  0.2473
  695MOL0     C91650   8.723   4.414   7.064  0.8535 -0.7268 -0.4022
  695MOL0     C91651   8.653   4.523   6.978  0.4864  0.3304  0.2780
  695MOL0    Cl91652   8.681   4.682   7.063  0.1279 -0.3641  0.3891
  695MOL0     C91653   8.301   3.568   7.440 -0.5941  0.1373  0.0714
  695MOL0     C91654   8.199   3.560   7.528  0.5058 -0.2452 -0.2899
  695MOL0     O91655   7.953   3.890   7.693 -0.5794 -0.5539  0.0501
  695MOL0     C91656   7.766   3.821   7.882  0.1535  0.4870 -0.3484
  695MOL0     C91657   7.666   3.769   7.966  0.2164  0.5795 -0.4232
  695MOL0     N91658   7.046   3.436   8.137 -0.2113 -0.5074  0.2315
  695MOL0     N91659   6.921   3.479   8.117  0.6141  0.6492 -0.5125
  695MOL0     C91660   5.786   3.244   8.689 -0.0394 -0.7380 -1.0481
  695MOL0     C91661   5.664   3.221   8.745  0.2372  0.9217 -0.7837
  695MOL0     C91662   5.290   3.293   9.019  0.8125 -0.6001  0.3603
  695MOL0     C91663   5.187   3.385   9.061  0.5095  0.3183 -0.3905
  695MOL0     C91664   5.074   3.342   9.133 -0.9377  0.0584  0.0675
  695MOL0     C91665   5.055   3.204   9.158 -0.3503  0.2381 -0.2742
  695MOL0     O91666   4.947   3.143   9.221 -0.3011  0.0002  0.0851
  695MOL0     C91667   4.826   3.213   9.260 -0.4783  0.5085 -0.0114
  695MOL0     C91668   4.757   3.294   9.145 -0.3158  0.3268 -0.1728
  695MOL0     C91669   4.672   3.411   9.206  0.4001  0.2795  0.5122
  695MOL0     C91670   4.746   3.514   9.293  0.8513  0.5030 -0.2416
  695MOL0     C91671   4.660   3.595   9.386  0.8265 -0.3912  0.9052
  695MOL0     C91672   4.613   3.673   9.457 -0.3922  0.0481  0.0113
  695MOL0     C91673   5.156   3.118   9.109 -0.0829 -0.1700 -0.7525
  695MOL0     C91674   5.271   3.157   9.047  0.2804  0.1096 -0.7431
  695MOL0     H91675   5.708   3.373   9.048  2.1059 -3.9762  1.1120
  695MOL0     H91676   5.916   3.418   8.962 -1.7968 -0.4039  2.0716
  695MOL0     H91677   5.966   3.435   8.518  0.9637 -0.8130 -2.0292
  695MOL0     H91678   6.017   3.258   8.540 -0.9214  0.1628  1.4639
  695MOL0     H91679   6.243   3.305   8.570 -0.7563 -0.6329  1.0677
  695MOL0     H91680   6.213   3.471   8.643 -2.0517  0.4986  0.5926
  695MOL0     H91681   6.149   3.553   8.423 -0.4389 -0.3227  1.5162
  695MOL0     H91682   6.175   3.390   8.352 -4.3323  2.5948 -1.1634
  695MOL0     H91683   6.373   3.595   8.479 -3.0033  0.8257  1.8666
  695MOL0     H91684   6.417   3.426   8.450  0.5560  1.2068 -0.6365
  695MOL0     H91685   6.276   3.589   8.234 -0.4801 -1.8948 -0.0705
  695MOL0     H91686   6.352   3.439   8.208 -2.0786 -1.7240  2.9213
  695MOL0     H91687   6.501   3.685   8.319  4.6796  0.1838 -0.3427
  695MOL0     H91688   6.481   3.647   8.138  1.6985 -1.8436 -1.0703
  695MOL0     H91689   6.638   3.462   8.338 -0.4502  0.0128  0.4128
  695MOL0     H91690   6.613   3.443   8.170 -1.9664 -0.0081  0.9666
  695MOL0     H91691   6.738   3.691   8.319 -0.7514 -0.5100 -0.5426
  695MOL0     H91692   6.731   3.674   8.138  0.1593  1.2813 -1.4280
  695MOL0     H91693   6.969   3.587   8.414 -1.2136 -1.0276 -0.0741
  695MOL0     H91694   7.204   3.371   8.369  1.4169  0.5045  1.8841
  695MOL0     H91695   7.220   3.551   8.392 -1.5165 -0.5459 -0.0006
  695MOL0     H91696   7.302   3.573   8.170 -1.5386 -0.1869 -0.1758
  695MOL0     H91697   7.302   3.386   8.153 -1.3113  0.1263  0.8131
  695MOL0     H91698   7.466   3.530   8.358 -0.6962  0.8542 -0.4835
  695MOL0     H91699   7.458   3.365   8.324  0.7430  0.2297  0.2012
  695MOL0     H91700   7.547   3.397   8.095 -3.5223 -0.3565  0.9177
  695MOL0     H91701   7.657   3.480   8.207 -0.0438  2.9091 -1.4665
  695MOL0     H91702   7.765   3.444   7.967  4.2961  0.4750 -1.7291
  695MOL0     H91703   7.913   3.518   7.815 -0.2026  0.1024  0.3201
  695MOL0     H91704   8.198   3.890   7.629  5.0520  0.7209  2.0518
  695MOL0     H91705   8.359   3.895   7.452  3.9246 -2.1413 -1.7099
  695MOL0     H91706   8.570   3.854   7.364  1.5213 -0.4260 -0.6080
  695MOL0     H91707   8.440   3.871   7.235  2.0993  2.4874  1.3569
  695MOL0     H91708   8.565   3.755   7.081 -0.4960  0.4695  0.6525
  695MOL0     H91709   8.699   3.706   7.191  2.4156  2.5626 -0.1634
  695MOL0     H91710   8.789   3.868   7.061  0.6234  2.2404  0.2068
  695MOL0     H91711   8.781   3.925   7.218  1.3640  0.6793  0.3042
  695MOL0     H91712   8.669   4.016   6.956  3.4541  2.1337 -0.4182
  695MOL0     H91713   8.558   4.054   7.073 -0.4268 -1.3307 -0.1271
  695MOL0     H91714   8.841   4.152   7.069  0.9238  0.5828  0.9746
  695MOL0     H91715   8.724   4.199   7.196 -0.0451 -0.1539  0.6325
  695MOL0     H91716   8.560   4.282   7.032  0.2912  0.9297  0.3002
  695MOL0     H91717   8.696   4.262   6.908 -2.4381  1.0930 -0.6193
  695MOL0     H91718   8.705   4.426   7.171  0.6104  0.1681 -0.5344
  695MOL0     H91719   8.832   4.420   7.058  0.8135  0.9546  0.0543
  695MOL0     H91720   8.546   4.504   6.963  0.6549  0.7406 -1.6326
  695MOL0     H91721   8.690   4.537   6.877 -0.7241 -0.0398 -0.2415
  695MOL0     H91722   8.343   3.485   7.383 -0.7004  0.7812 -0.9851
  695MOL0     H91723   8.153   3.466   7.559 -0.7630  0.2302 -0.6983
  695MOL0     H91724   7.746   3.919   7.841 -0.6140  0.4282 -0.1272
  695MOL0     H91725   7.603   3.837   8.023 -0.4855 -3.2394  3.8815
  695MOL0     H91726   5.809   3.196   8.595 -2.7290 -1.2098 -1.5408
  695MOL0     H91727   5.599   3.148   8.698  3.7524 -3.6004  0.6533
  695MOL0     H91728   5.204   3.491   9.045 -0.5310  0.7531  1.1378
  695MOL0     H91729   5.011   3.421   9.174 -0.7161  0.0801  0.3702
  695MOL0     H91730   4.844   3.274   9.348  2.3411 -2.6839  1.8764
  695MOL0     H91731   4.760   3.130   9.287  0.7047 -0.2596  0.6325
  695MOL0     H91732   4.828   3.328   9.069 -0.4604  2.6197  0.6398
  695MOL0     H91733   4.700   3.223   9.084  2.6909 -0.8739 -1.8450
  695MOL0     H91734   4.591   3.363   9.262  1.5902 -1.8778  0.5239
  695MOL0     H91735   4.624   3.465   9.124  1.9200 -0.6656 -1.0676
  695MOL0     H91736   4.830   3.469   9.347 -0.5927 -1.2983  0.6406
  695MOL0     H91737   4.783   3.597   9.231  0.7571  1.7285  1.2903
  695MOL0     H91738   4.579   3.747   9.525  1.2218  1.3302 -0.5013
  695MOL0     H91739   5.143   3.010   9.112  0.7757 -0.4294 -3.3848
  695MOL0     H91740   5.337   3.075   9.022 -2.0234 -2.4180  0.9900
  696MOL0     O91741   2.690   0.506   8.849  0.2827  0.1983  0.1240
  696MOL0     C91742   2.725   0.625   8.845 -0.5099 -0.2794  0.1272
  696MOL0     O91743   2.642   0.729   8.835  0.0986  0.1878  0.4761
  696MOL0     C91744   2.513   0.713   8.806  0.6803  0.5593  0.0922
  696MOL0     C91745   2.419   0.747   8.908 -1.1728  0.5163  0.9944
  696MOL0     C91746   2.290   0.743   8.873  0.6001  0.3341 -0.3127
  696MOL0     C91747   2.242   0.703   8.747  0.5415  0.3378 -0.2229
  696MOL0     O91748   2.110   0.710   8.717 -0.1433 -0.1048 -0.4833
  696MOL0     C91749   2.059   0.761   8.591 -0.2944 -0.1464 -0.1666
  696MOL0     C91750   1.922   0.698   8.555 -0.6527 -0.1012 -0.9060
  696MOL0     C91751   1.808   0.737   8.647 -0.0521  0.4209 -0.7570
  696MOL0     C91752   1.682   0.700   8.574 -0.5403 -0.0691 -0.1236
  696MOL0     C91753   1.564   0.713   8.670  0.0084  0.0572 -0.3061
  696MOL0     C91754   1.428   0.691   8.594  0.0417  0.2900  0.5376
  696MOL0     C91755   1.305   0.719   8.686 -0.3157  0.0414  1.3600
  696MOL0     C91756   1.271   0.598   8.764 -0.5004  0.6999  0.6909
  696MOL0     N91757   1.138   0.596   8.827  0.5886 -0.8415 -0.1392
  696MOL0     C91758   1.088   0.483   8.874 -0.0570  0.2968  0.1206
  696MOL0     C91759   0.967   0.515   8.917  0.1687 -0.1696 -0.4649
  696MOL0     C91760   0.876   0.414   8.973 -0.1483  0.5147 -0.4102
  696MOL0     C91761   0.795   0.351   8.863  0.3055 -0.3503  0.0731
  696MOL0     C91762   0.699   0.232   8.899  0.7556 -0.6748 -0.3325
  696MOL0     C91763   0.618   0.261   9.030  0.4010  0.1471 -0.1538
  696MOL0     O91764   0.560   0.391   9.011 -0.8784 -0.4313 -0.0420
  696MOL0     C91765   0.438   0.399   8.946  0.4063  0.0807 -0.1916
  696MOL0     C91766   0.430   0.435   8.806  0.8670 -0.7120 -0.3730
  696MOL0     C91767   0.306   0.446   8.745  0.3054 -0.3580  0.2279
  696MOL0     C91768   0.186   0.457   8.818  0.4716  0.0228  0.1406
  696MOL0     C91769   0.053   0.497   8.756  0.4624  0.0533 -0.4181
  696MOL0     O91770  -0.054   0.489   8.841  0.8666 -0.4590  0.5517
  696MOL0     C91771  -0.174   0.556   8.812  0.3403 -0.7189  0.3547
  696MOL0     C91772  -0.186   0.677   8.745  0.1560  0.1848 -0.0123
  696MOL0     C91773  -0.315   0.727   8.713 -0.4982  0.1137 -0.4769
  696MOL0     C91774  -0.437   0.656   8.746  0.8478 -0.7509  0.3654
  696MOL0     O91775  -0.552   0.704   8.703  0.0652 -0.1632 -0.0340
  696MOL0     C91776  -0.625   0.613   8.614 -0.3862  0.1564 -0.0650
  696MOL0     C91777  -0.767   0.668   8.592 -0.1767  0.7523  0.2113
  696MOL0     C91778  -0.853   0.582   8.489 -0.0207 -0.2481 -0.3716
  696MOL0     C91779  -1.002   0.608   8.454  0.3775  0.3206 -0.1265
  696MOL0     C91780  -1.030   0.733   8.386  0.0099 -0.4633  0.2025
  696MOL0     C91781  -1.180   0.759   8.342 -0.3098  0.0391  0.3781
  696MOL0     C91782  -1.179   0.900   8.282 -0.1701 -0.4136  0.3637
  696MOL0     C91783  -1.287   0.918   8.172  0.3952 -0.0276  0.4200
  696MOL0    Cl91784  -1.446   0.940   8.239 -0.1669  0.0679 -0.1151
  696MOL0     C91785  -0.420   0.542   8.819 -0.0119 -0.0817 -0.5271
  696MOL0     C91786  -0.298   0.499   8.848 -0.1960  0.2672 -0.4894
  696MOL0     O91787   0.051   0.535   8.645  0.0951  0.1883 -0.7854
  696MOL0     C91788   0.191   0.441   8.955 -1.2236 -0.0848 -0.0049
  696MOL0     C91789   0.314   0.418   9.021  0.3342 -0.3903  0.5384
  696MOL0     N91790   0.947   0.661   8.906 -0.3066  0.6080 -0.1398
  696MOL0     N91791   1.056   0.707   8.858  0.0470  0.0872  0.1277
  696MOL0     C91792   2.338   0.679   8.644 -0.6245  1.2761  0.2524
  696MOL0     C91793   2.470   0.675   8.680  1.0425  0.2431  0.6800
  696MOL0     C91794   2.873   0.644   8.876 -0.3465  0.7586  0.1414
  696MOL0     C91795   2.930   0.776   8.886 -0.0764 -0.0762 -0.9084
  696MOL0     C91796   3.070   0.798   8.898 -0.1090  0.0468 -0.2076
  696MOL0     C91797   3.159   0.683   8.892 -0.3886  0.0753 -0.8454
  696MOL0     O91798   3.297   0.700   8.912  0.7176  0.2159  0.8041
  696MOL0     C91799   3.387   0.585   8.939  0.0483 -0.7944  0.1244
  696MOL0     C91800   3.537   0.631   8.959 -0.8917 -0.7246 -0.8047
  696MOL0     C91801   3.630   0.522   8.923  0.0116  1.0616 -0.3948
  696MOL0     C91802   3.776   0.581   8.913 -0.0581 -0.5941  0.1466
  696MOL0     C91803   3.879   0.473   8.893  0.4071  0.2020 -1.1932
  696MOL0     C91804   3.952   0.379   8.902  0.5516 -0.0650 -0.3317
  696MOL0     C91805   3.099   0.558   8.886 -0.3420  0.4756 -0.0188
  696MOL0     C91806   2.959   0.533   8.891  0.1546  0.2167  0.2943
  696MOL0     H91807   2.449   0.793   9.001  2.0951  1.8298 -0.5637
  696MOL0     H91808   2.206   0.779   8.931 -0.7670 -0.4295 -1.7419
  696MOL0     H91809   2.124   0.760   8.503  2.1449  1.3078  1.4995
  696MOL0     H91810   2.033   0.867   8.604  0.8454  0.6157 -3.2763
  696MOL0     H91811   1.926   0.589   8.556 -3.1753 -0.2740 -1.5479
  696MOL0     H91812   1.901   0.734   8.453  0.6302  2.0802 -0.4495
  696MOL0     H91813   1.817   0.844   8.667  0.6620  0.2230  0.0656
  696MOL0     H91814   1.811   0.685   8.743 -0.0431  1.0386 -0.4184
  696MOL0     H91815   1.674   0.767   8.488  1.6534  0.3614 -0.0399
  696MOL0     H91816   1.689   0.594   8.549  1.3542 -0.0581  0.1878
  696MOL0     H91817   1.571   0.807   8.726  0.2641 -1.6472  2.7469
  696MOL0     H91818   1.565   0.640   8.751 -0.1446 -0.4275 -0.7380
  696MOL0     H91819   1.423   0.596   8.542  2.3909  1.9228 -3.0188
  696MOL0     H91820   1.428   0.765   8.514  2.7307  0.6073  0.7313
  696MOL0     H91821   1.331   0.797   8.758 -0.1321  0.4301  0.8817
  696MOL0     H91822   1.226   0.756   8.621  1.3739  0.7179 -0.4129
  696MOL0     H91823   1.348   0.599   8.842  1.8455 -0.5015 -1.4764
  696MOL0     H91824   1.296   0.511   8.703  2.7122  1.8684  0.1692
  696MOL0     H91825   1.148   0.394   8.862  2.0230  1.7772 -1.0332
  696MOL0     H91826   0.813   0.473   9.040  0.7128  0.1356  0.7551
  696MOL0     H91827   0.920   0.332   9.029 -1.8652 -0.3019 -0.1904
  696MOL0     H91828   0.863   0.321   8.782  0.1839  1.1896 -0.6255
  696MOL0     H91829   0.726   0.424   8.820  1.2104  0.6045  0.2268
  696MOL0     H91830   0.622   0.225   8.821  0.2037  2.2009 -0.1510
  696MOL0     H91831   0.755   0.140   8.918 -0.2602 -0.8716  2.0730
  696MOL0     H91832   0.679   0.267   9.120  0.6958 -1.5300 -0.2259
  696MOL0     H91833   0.546   0.180   9.042 -0.4695  0.8004 -0.7933
  696MOL0     H91834   0.523   0.430   8.750  1.8101  0.0398  1.0780
  696MOL0     H91835   0.315   0.460   8.638  1.6074 -0.3255  0.3254
  696MOL0     H91836  -0.097   0.728   8.710  0.2729  0.3335  0.4979
  696MOL0     H91837  -0.318   0.815   8.650 -1.1034  0.9393  0.6820
  696MOL0     H91838  -0.631   0.510   8.650 -1.6014 -0.1898 -1.1614
  696MOL0     H91839  -0.570   0.618   8.519  2.2368 -1.8516  1.2173
  696MOL0     H91840  -0.752   0.770   8.558  2.6262 -0.7175 -3.6897
  696MOL0     H91841  -0.828   0.665   8.683 -1.0213 -1.2823 -0.3584
  696MOL0     H91842  -0.857   0.480   8.528  0.3467 -0.1715 -0.1291
  696MOL0     H91843  -0.789   0.581   8.401  0.3858  0.9731 -0.1183
  696MOL0     H91844  -1.032   0.518   8.399  1.0055  0.4696 -0.7250
  696MOL0     H91845  -1.059   0.616   8.547 -1.9836 -1.3825 -1.3161
  696MOL0     H91846  -0.977   0.735   8.290 -1.8959  0.8298 -0.8847
  696MOL0     H91847  -0.996   0.814   8.451  1.2936 -0.5697 -0.3074
  696MOL0     H91848  -1.256   0.755   8.420 -0.4451  0.3401  0.2653
  696MOL0     H91849  -1.202   0.683   8.266  0.7270 -0.5283  0.6188
  696MOL0     H91850  -1.175   0.980   8.357  1.0958 -0.4150  0.3231
  696MOL0     H91851  -1.087   0.910   8.223  0.4634  0.5714  1.4534
  696MOL0     H91852  -1.300   0.845   8.092 -1.1853 -0.3826  0.9678
  696MOL0     H91853  -1.253   1.012   8.126 -1.0908 -0.1543 -1.0476
  696MOL0     H91854  -0.506   0.484   8.851 -1.9578  1.5239 -2.4802
  696MOL0     H91855  -0.294   0.414   8.914 -0.8474  0.6964  0.1120
  696MOL0     H91856   0.106   0.441   9.023  0.8166  2.9510  2.9225
  696MOL0     H91857   0.317   0.402   9.128 -0.2362 -0.4500  0.5475
  696MOL0     H91858   2.307   0.638   8.549  1.5916  0.2660 -0.1061
  696MOL0     H91859   2.534   0.643   8.598  1.5585  0.1754  1.1056
  696MOL0     H91860   2.852   0.851   8.883 -0.7629 -0.8055 -2.7504
  696MOL0     H91861   3.118   0.895   8.886  0.1588  0.0137  0.5592
  696MOL0     H91862   3.384   0.514   8.856  0.0703  1.1369 -1.6054
  696MOL0     H91863   3.363   0.544   9.038 -0.0968  0.4379  0.6137
  696MOL0     H91864   3.554   0.725   8.907  0.8464  0.5517  1.8746
  696MOL0     H91865   3.558   0.654   9.063 -3.8985 -0.3718 -0.1809
  696MOL0     H91866   3.612   0.465   8.831  0.9997 -1.0625  0.6679
  696MOL0     H91867   3.617   0.459   9.012 -1.4265 -1.7729 -2.4400
  696MOL0     H91868   3.775   0.649   8.827 -0.3048  2.1727  2.2230
  696MOL0     H91869   3.794   0.639   9.003 -1.7662  0.6173 -0.2459
  696MOL0     H91870   4.021   0.299   8.913 -0.7084 -1.0656  0.6606
  696MOL0     H91871   3.170   0.476   8.888  0.5158  1.1976 -0.1790
  696MOL0     H91872   2.916   0.434   8.897  0.0670  0.2902  1.0067
  697MOL0     O91873   3.255   5.697   0.750 -0.0678  0.9118  0.2881
  697MOL0     C91874   3.194   5.609   0.810 -0.1220 -0.1530 -0.2646
  697MOL0     O91875   3.252   5.495   0.862  0.7254  0.5506 -0.2850
  697MOL0     C91876   3.391   5.496   0.885 -0.1635  0.2691 -0.3709
  697MOL0     C91877   3.490   5.505   0.787  0.3677 -0.5568  0.5255
  697MOL0     C91878   3.627   5.492   0.804 -0.0332 -0.1466  0.3137
  697MOL0     C91879   3.674   5.461   0.936  1.0513 -0.5511 -0.1167
  697MOL0     O91880   3.805   5.445   0.967 -0.0816  0.4585 -0.4330
  697MOL0     C91881   3.863   5.311   0.943 -1.5843  0.3073 -0.0009
  697MOL0     C91882   4.017   5.324   0.946  0.2343 -0.2377  0.0991
  697MOL0     C91883   4.067   5.355   1.084  0.1253 -0.0973 -0.5425
  697MOL0     C91884   4.217   5.329   1.067  0.1933  0.1820 -0.5002
  697MOL0     C91885   4.296   5.375   1.200  0.5237  0.3670  0.4589
  697MOL0     C91886   4.441   5.334   1.192  0.2966 -0.5662 -0.5349
  697MOL0     C91887   4.517   5.379   1.321  0.1821  0.2910 -0.0893
  697MOL0     C91888   4.659   5.337   1.347  0.1105 -0.0983 -0.2945
  697MOL0     N91889   4.752   5.428   1.288 -0.4901  0.0797 -0.0654
  697MOL0     C91890   4.750   5.445   1.153 -0.1751 -0.2036 -0.1332
  697MOL0     C91891   4.835   5.542   1.123 -0.9189  0.1090 -0.6539
  697MOL0     C91892   4.845   5.598   0.984  0.8406  0.1088  0.7712
  697MOL0     C91893   4.720   5.677   0.938  0.2957 -0.1484  0.2011
  697MOL0     C91894   4.730   5.818   1.005  0.0850 -0.5417 -0.4766
  697MOL0     C91895   4.600   5.902   0.984 -0.1353 -0.3198  1.1705
  697MOL0     O91896   4.599   5.945   0.844  0.0273 -0.2161 -0.2762
  697MOL0     C91897   4.514   6.054   0.829 -0.9617  0.0942  0.1011
  697MOL0     C91898   4.540   6.126   0.711  0.4340  0.8153  0.2732
  697MOL0     C91899   4.470   6.241   0.661  0.4753  0.4932  0.0584
  697MOL0     C91900   4.359   6.278   0.741  0.2700 -0.5792  0.5773
  697MOL0     C91901   4.272   6.392   0.693  0.1616 -0.6345  0.7808
  697MOL0     O91902   4.155   6.422   0.763  0.4503 -0.2648 -0.4425
  697MOL0     C91903   4.093   6.538   0.722  0.7657  1.0575  0.2301
  697MOL0     C91904   4.076   6.641   0.804 -0.4003 -0.1497 -1.1551
  697MOL0     C91905   4.013   6.757   0.774  0.6314 -0.5116 -0.7937
  697MOL0     C91906   3.934   6.758   0.658  0.4638 -0.0004 -0.2025
  697MOL0     O91907   3.830   6.850   0.658  0.1481 -0.1369 -0.3762
  697MOL0     C91908   3.763   6.874   0.537  0.2534 -1.0374  0.2084
  697MOL0     C91909   3.677   7.001   0.549 -0.5964  0.9078 -0.1071
  697MOL0     C91910   3.565   6.986   0.647 -0.1142  0.2387 -0.4743
  697MOL0     C91911   3.510   7.128   0.691 -0.2156 -0.9564 -0.0560
  697MOL0     C91912   3.491   7.221   0.577 -0.0330 -0.4348 -0.5125
  697MOL0     C91913   3.396   7.339   0.610 -1.1270  0.1354  0.7075
  697MOL0     C91914   3.250   7.291   0.625  0.4253  0.9191 -0.8034
  697MOL0     C91915   3.168   7.421   0.638  0.2526 -0.0564 -0.6305
  697MOL0    Cl91916   2.992   7.390   0.681 -0.1616  0.1182  0.1841
  697MOL0     C91917   3.954   6.656   0.564 -0.2298  0.9864  0.4335
  697MOL0     C91918   4.040   6.549   0.592 -0.1617 -0.0356 -0.5706
  697MOL0     O91919   4.311   6.460   0.593 -0.8975  0.1894 -0.9203
  697MOL0     C91920   4.329   6.213   0.864 -0.1913 -0.0439 -0.1738
  697MOL0     C91921   4.409   6.099   0.910 -0.0183 -0.1506  0.4018
  697MOL0     N91922   4.885   5.591   1.242  0.3295  0.3348 -0.4735
  697MOL0     N91923   4.847   5.509   1.336 -0.2359 -0.2282  0.1360
  697MOL0     C91924   3.577   5.446   1.035 -0.2520  0.0865 -0.4123
  697MOL0     C91925   3.440   5.471   1.017 -0.1305 -0.1035 -0.4681
  697MOL0     C91926   3.055   5.620   0.825  0.6864  0.1527 -0.6139
  697MOL0     C91927   2.976   5.701   0.744 -0.9082 -0.0592  0.0486
  697MOL0     C91928   2.844   5.715   0.754 -0.7672  0.1515 -0.6982
  697MOL0     C91929   2.773   5.645   0.860  0.7460  0.8644  1.3290
  697MOL0     O91930   2.631   5.639   0.870 -0.0340  0.2104 -0.4030
  697MOL0     C91931   2.539   5.701   0.771 -0.4156  0.7676 -0.8428
  697MOL0     C91932   2.542   5.607   0.659 -1.0894  0.0582  0.3894
  697MOL0     C91933   2.450   5.657   0.557  0.3514 -0.0185  0.1385
  697MOL0     C91934   2.293   5.614   0.573  0.1293 -0.1772 -0.3326
  697MOL0     C91935   2.218   5.712   0.651 -0.7359  0.0853 -0.5271
  697MOL0     C91936   2.154   5.799   0.720 -0.1511  0.3023  0.1998
  697MOL0     C91937   2.845   5.556   0.928 -0.0693  0.6709 -0.4375
  697MOL0     C91938   2.985   5.544   0.919  0.4780 -0.2002 -0.5951
  697MOL0     H91939   3.457   5.499   0.683  2.0416 -1.4330  0.0240
  697MOL0     H91940   3.711   5.499   0.736 -1.6445  1.2000 -1.6537
  697MOL0     H91941   3.831   5.258   0.853  0.6812  0.4586 -0.9666
  697MOL0     H91942   3.826   5.246   1.023  0.0538 -0.3995  0.2227
  697MOL0     H91943   4.053   5.396   0.872 -0.3337 -2.8872 -2.9917
  697MOL0     H91944   4.056   5.227   0.913 -0.0960  0.2541 -1.8785
  697MOL0     H91945   4.003   5.305   1.157 -0.4701 -0.7990 -1.5230
  697MOL0     H91946   4.043   5.461   1.092  0.6401  0.2243 -2.6645
  697MOL0     H91947   4.242   5.224   1.053  0.8668  0.6817 -3.9463
  697MOL0     H91948   4.266   5.378   0.982  1.0248 -2.2431 -1.4967
  697MOL0     H91949   4.255   5.322   1.287 -0.4014  1.4934  0.7317
  697MOL0     H91950   4.281   5.481   1.220 -1.2603  0.5798 -1.5554
  697MOL0     H91951   4.487   5.388   1.109  0.2012  0.5335  0.1090
  697MOL0     H91952   4.444   5.226   1.174 -1.2176 -0.9932  1.4373
  697MOL0     H91953   4.490   5.482   1.346 -0.0679 -0.0171  0.9211
  697MOL0     H91954   4.461   5.332   1.402  0.9235 -0.2225  0.1331
  697MOL0     H91955   4.663   5.234   1.309 -2.9297  0.4074 -2.2800
  697MOL0     H91956   4.677   5.346   1.455  2.3495  0.7036 -0.6889
  697MOL0     H91957   4.690   5.390   1.081  4.3556 -2.4737 -2.6423
  697MOL0     H91958   4.849   5.514   0.914  1.5147 -0.2798  1.2616
  697MOL0     H91959   4.932   5.661   0.965  2.9820 -2.4233  1.5678
  697MOL0     H91960   4.629   5.625   0.968  0.5163 -1.4538 -1.2643
  697MOL0     H91961   4.718   5.677   0.829  0.4996  0.1634  0.1937
  697MOL0     H91962   4.746   5.794   1.110 -2.7945 -1.2206 -0.1195
  697MOL0     H91963   4.817   5.875   0.971 -0.0116  0.4821  0.8929
  697MOL0     H91964   4.594   5.982   1.058 -0.5492 -1.1461  2.0564
  697MOL0     H91965   4.508   5.844   0.998  1.1066 -2.4456  0.9588
  697MOL0     H91966   4.617   6.083   0.648  0.3133 -1.5890  1.6422
  697MOL0     H91967   4.493   6.290   0.567 -1.9344  1.2215 -0.2231
  697MOL0     H91968   4.107   6.612   0.904  0.0348  2.8840 -0.3260
  697MOL0     H91969   4.000   6.833   0.851  1.2561 -2.0115  0.8657
  697MOL0     H91970   3.692   6.794   0.517 -1.9348  0.5164  1.2929
  697MOL0     H91971   3.838   6.876   0.458  2.2079  1.8598  1.9398
  697MOL0     H91972   3.631   7.020   0.452  1.0417 -0.4710 -1.2151
  697MOL0     H91973   3.750   7.075   0.585  1.7217 -1.7333  1.0141
  697MOL0     H91974   3.601   6.935   0.737 -1.5447  0.1807  0.0858
  697MOL0     H91975   3.486   6.932   0.596  0.6799  1.6980 -3.4496
  697MOL0     H91976   3.409   7.115   0.729 -1.0318  1.3241 -1.2631
  697MOL0     H91977   3.575   7.173   0.767 -0.2517 -0.4687 -0.3084
  697MOL0     H91978   3.447   7.170   0.492 -0.9633  1.4962 -1.2431
  697MOL0     H91979   3.593   7.249   0.550  0.1417 -1.3254 -0.7922
  697MOL0     H91980   3.392   7.400   0.519 -1.1633 -1.6587 -0.5544
  697MOL0     H91981   3.430   7.404   0.690 -0.6824 -1.2552  1.6899
  697MOL0     H91982   3.212   7.231   0.543  0.8881 -0.4884 -0.0249
  697MOL0     H91983   3.237   7.241   0.721  2.5956 -0.0925 -0.9812
  697MOL0     H91984   3.182   7.474   0.543  0.8738 -0.6299 -0.8747
  697MOL0     H91985   3.215   7.483   0.714  1.6000  0.9516 -2.1999
  697MOL0     H91986   3.910   6.669   0.466  1.8255 -0.3502 -0.7578
  697MOL0     H91987   4.057   6.475   0.514 -0.4488 -0.2367 -0.4436
  697MOL0     H91988   4.256   6.250   0.935  0.1884 -2.5929  1.7035
  697MOL0     H91989   4.371   6.041   0.994  2.1135 -3.5674 -0.7800
  697MOL0     H91990   3.601   5.420   1.137 -4.5308 -2.6831  0.1472
  697MOL0     H91991   3.386   5.457   1.111  0.9611  0.2796  0.2364
  697MOL0     H91992   3.024   5.746   0.658 -0.7068 -3.1197 -1.5621
  697MOL0     H91993   2.786   5.789   0.700  0.5918  0.0656 -2.3425
  697MOL0     H91994   2.569   5.802   0.741 -3.9606  1.6558 -1.8165
  697MOL0     H91995   2.442   5.715   0.818  0.8969  0.2820  2.3117
  697MOL0     H91996   2.646   5.597   0.627 -1.3954 -1.2929 -0.2637
  697MOL0     H91997   2.512   5.505   0.684  1.0851 -0.5074  0.9148
  697MOL0     H91998   2.489   5.625   0.460 -1.1520  1.9348 -1.2028
  697MOL0     H91999   2.454   5.767   0.554 -0.1655 -0.0088 -1.9498
  697MOL0     H92000   2.238   5.598   0.480 -2.6688  0.6445  1.0585
  697MOL0     H92001   2.283   5.518   0.623 -1.5283  0.3805  0.4750
  697MOL0     H92002   2.123   5.882   0.781 -1.9950 -0.4671  0.3652
  697MOL0     H92003   2.801   5.492   1.004  2.7284 -2.2700 -1.0656
  697MOL0     H92004   3.032   5.469   0.982 -0.5366  1.1257  1.8646
  698MOL0     O92005   0.768   3.238   2.376  0.4121 -0.0347 -0.1209
  698MOL0     C92006   0.876   3.215   2.428 -0.4082  0.6838 -0.3910
  698MOL0     O92007   0.898   3.135   2.538 -0.7387  0.6837  0.6046
  698MOL0     C92008   0.786   3.089   2.612 -0.7220 -0.0156 -0.9614
  698MOL0     C92009   0.807   2.975   2.693 -0.1561  1.1269  0.6813
  698MOL0     C92010   0.709   2.918   2.769  0.1573 -0.2118 -0.4505
  698MOL0     C92011   0.584   2.976   2.771  0.2779 -0.2713 -0.4375
  698MOL0     O92012   0.486   2.905   2.837  0.6906 -0.0051 -0.4875
  698MOL0     C92013   0.351   2.922   2.791  0.3241 -0.0544 -0.0746
  698MOL0     C92014   0.261   2.812   2.857  0.1967 -0.1264  0.7081
  698MOL0     C92015   0.111   2.817   2.802 -0.7112 -0.0606  0.7384
  698MOL0     C92016   0.026   2.734   2.899 -0.6164 -0.0507  0.4397
  698MOL0     C92017  -0.118   2.731   2.853 -1.3315  0.1696 -0.2107
  698MOL0     C92018  -0.206   2.705   2.976  0.0905  0.3167 -0.2199
  698MOL0     C92019  -0.363   2.733   2.950 -0.8884 -0.3767  0.6597
  698MOL0     C92020  -0.427   2.640   2.846 -0.4412  0.6504  0.2680
  698MOL0     N92021  -0.555   2.581   2.876  0.5270 -0.0605  0.5450
  698MOL0     C92022  -0.636   2.615   2.981  0.3342  0.7284  0.8630
  698MOL0     C92023  -0.737   2.527   2.979  0.0831  0.4196  0.3658
  698MOL0     C92024  -0.846   2.510   3.069 -0.2591  0.5541 -0.4985
  698MOL0     C92025  -0.956   2.612   3.072 -0.0470  0.2060  0.6990
  698MOL0     C92026  -0.977   2.694   3.204 -0.0062 -0.2775 -0.2832
  698MOL0     C92027  -0.855   2.784   3.244  0.3594 -0.2841  0.0754
  698MOL0     O92028  -0.821   2.869   3.127 -0.3195 -0.3960 -0.3696
  698MOL0     C92029  -0.709   2.943   3.144  0.3655  0.3779  0.2741
  698MOL0     C92030  -0.671   3.013   3.030  0.5445 -0.6963 -0.2386
  698MOL0     C92031  -0.551   3.081   3.014 -0.5665  0.3678 -1.2420
  698MOL0     C92032  -0.459   3.081   3.125  0.2300 -1.0827  0.4398
  698MOL0     C92033  -0.320   3.129   3.108  0.2792  0.4583 -0.7255
  698MOL0     O92034  -0.286   3.203   3.001 -0.1573  0.4788  0.0923
  698MOL0     C92035  -0.159   3.260   2.988  0.1067  1.2018 -0.3109
  698MOL0     C92036  -0.051   3.174   2.974 -0.5789 -0.2688  0.8272
  698MOL0     C92037   0.079   3.221   2.966  0.1379  0.5261 -0.1831
  698MOL0     C92038   0.107   3.359   2.960  0.6729 -0.5170 -0.5854
  698MOL0     O92039   0.234   3.395   2.932  1.1748 -0.3776  0.0974
  698MOL0     C92040   0.262   3.533   2.959 -0.5282 -0.5078 -0.6573
  698MOL0     C92041   0.411   3.558   2.966  0.3492  0.5387  0.0747
  698MOL0     C92042   0.484   3.511   2.833  0.8283  1.1390 -0.1014
  698MOL0     C92043   0.615   3.587   2.803  0.1986  0.3719  0.5273
  698MOL0     C92044   0.685   3.511   2.692  0.7272 -0.5173  0.1816
  698MOL0     C92045   0.799   3.599   2.647 -0.4581 -0.4378  0.1389
  698MOL0     C92046   0.855   3.527   2.534  0.2137 -0.4165 -0.2688
  698MOL0     C92047   0.966   3.622   2.461 -0.0063  0.0224 -0.6036
  698MOL0    Cl92048   1.102   3.634   2.570  0.6937 -0.4381 -0.4210
  698MOL0     C92049  -0.009   3.448   2.980 -0.0215  0.5291 -0.2182
  698MOL0     C92050  -0.143   3.397   2.992 -0.0098 -0.1387  0.0518
  698MOL0     O92051  -0.237   3.090   3.190  0.4579  0.1291 -0.2592
  698MOL0     C92052  -0.502   3.034   3.248 -1.0004 -0.1711  0.7081
  698MOL0     C92053  -0.621   2.961   3.257 -0.0215 -0.6091  0.3536
  698MOL0     N92054  -0.723   2.448   2.870 -0.3788  0.6736 -0.4732
  698MOL0     N92055  -0.615   2.476   2.811 -0.0335 -0.5258 -0.0637
  698MOL0     C92056   0.565   3.097   2.709 -0.5099  0.1212 -0.1430
  698MOL0     C92057   0.662   3.159   2.634  0.2104  0.4388 -0.0398
  698MOL0     C92058   0.995   3.259   2.351  0.0803 -0.2983 -0.1785
  698MOL0     C92059   1.129   3.241   2.397  0.6759  0.0516 -0.0843
  698MOL0     C92060   1.242   3.294   2.330  0.4347 -0.6426 -0.2005
  698MOL0     C92061   1.225   3.369   2.215  0.7249  0.2832 -0.2845
  698MOL0     O92062   1.331   3.404   2.140  0.1050 -0.0444 -0.1836
  698MOL0     C92063   1.320   3.546   2.098  1.0883 -0.0838 -0.3943
  698MOL0     C92064   1.450   3.608   2.047 -1.0383 -0.1011 -0.2551
  698MOL0     C92065   1.546   3.640   2.156  0.4627 -0.5149 -0.3974
  698MOL0     C92066   1.552   3.790   2.198  0.1934 -0.0591 -0.3101
  698MOL0     C92067   1.436   3.816   2.288  0.2683  0.5530 -0.0272
  698MOL0     C92068   1.338   3.847   2.355 -0.4123 -0.1971 -0.3877
  698MOL0     C92069   1.089   3.390   2.164 -0.2997 -0.0039  0.2105
  698MOL0     C92070   0.982   3.326   2.230  0.3637 -0.6750 -0.1812
  698MOL0     H92071   0.903   2.924   2.687 -0.7336  0.1268 -0.6044
  698MOL0     H92072   0.727   2.820   2.813  1.4402  0.7195  1.1697
  698MOL0     H92073   0.334   2.907   2.683 -0.6457  2.1895 -0.2811
  698MOL0     H92074   0.322   3.024   2.815  0.8592  0.3773 -1.1799
  698MOL0     H92075   0.258   2.820   2.966  1.0241  1.1259  0.6647
  698MOL0     H92076   0.303   2.720   2.816 -0.8155  0.8392 -2.9097
  698MOL0     H92077   0.120   2.777   2.701 -0.7123  1.0902  0.2615
  698MOL0     H92078   0.071   2.919   2.808  0.1437  0.3150  0.2463
  698MOL0     H92079   0.058   2.630   2.901 -2.6643 -0.7710 -0.8646
  698MOL0     H92080   0.032   2.777   2.999  2.6327 -1.2687  0.8811
  698MOL0     H92081  -0.127   2.655   2.775 -0.1309  0.9852 -1.1686
  698MOL0     H92082  -0.148   2.826   2.809 -3.6747 -0.8637 -1.0151
  698MOL0     H92083  -0.176   2.768   3.060  1.3359 -1.9515  1.1303
  698MOL0     H92084  -0.195   2.598   2.993  0.1551  0.3449 -0.0877
  698MOL0     H92085  -0.419   2.726   3.043 -2.8688  1.8916 -0.2538
  698MOL0     H92086  -0.368   2.837   2.919  0.0549 -0.2278  0.9557
  698MOL0     H92087  -0.358   2.554   2.846 -0.6676  0.4669 -0.0192
  698MOL0     H92088  -0.428   2.678   2.744 -1.6696  0.5647  0.2385
  698MOL0     H92089  -0.620   2.676   3.069  0.6287  2.2973 -0.2481
  698MOL0     H92090  -0.813   2.503   3.173 -1.6401 -1.4463 -0.1249
  698MOL0     H92091  -0.895   2.413   3.054  0.5962 -0.0006  0.1860
  698MOL0     H92092  -1.052   2.563   3.052  1.9053 -3.1468 -1.5097
  698MOL0     H92093  -0.940   2.670   2.981 -3.6808  1.2423  0.5672
  698MOL0     H92094  -1.071   2.749   3.209  0.2794  0.1455  0.5720
  698MOL0     H92095  -0.990   2.621   3.284 -0.9257 -0.6491 -0.7601
  698MOL0     H92096  -0.774   2.721   3.281 -0.4814 -1.4240  0.0174
  698MOL0     H92097  -0.876   2.848   3.330 -0.5672 -0.6258  0.1121
  698MOL0     H92098  -0.742   3.010   2.948 -1.1209  0.0036  1.1348
  698MOL0     H92099  -0.517   3.123   2.920 -1.3759  1.5330 -1.0406
  698MOL0     H92100  -0.065   3.066   2.975  2.2432 -0.8412 -2.4514
  698MOL0     H92101   0.160   3.149   2.957 -0.0434  0.1623  0.8586
  698MOL0     H92102   0.228   3.558   3.060 -3.1293  0.6542 -1.7478
  698MOL0     H92103   0.210   3.599   2.889 -1.0071  0.8576  0.9266
  698MOL0     H92104   0.457   3.505   3.050 -2.3053  2.8356  3.2109
  698MOL0     H92105   0.430   3.663   2.991 -0.2735  0.5973  0.3038
  698MOL0     H92106   0.418   3.525   2.746  1.5516  1.8037 -0.5665
  698MOL0     H92107   0.502   3.404   2.841 -1.6127  0.6715 -0.2796
  698MOL0     H92108   0.598   3.695   2.793 -2.9128 -0.0012  0.6268
  698MOL0     H92109   0.675   3.573   2.893  0.6768 -0.5907  0.0685
  698MOL0     H92110   0.615   3.497   2.608 -0.2752  0.3404  0.8409
  698MOL0     H92111   0.703   3.409   2.726 -0.2444  0.1146  2.8131
  698MOL0     H92112   0.875   3.596   2.726  0.6933  2.7888 -0.6764
  698MOL0     H92113   0.766   3.696   2.610 -1.2137 -0.2587  1.2370
  698MOL0     H92114   0.885   3.426   2.564  0.1630 -1.6020 -3.7325
  698MOL0     H92115   0.774   3.507   2.463  0.8740  0.3926 -1.2849
  698MOL0     H92116   0.923   3.722   2.462 -0.5883 -0.2034  1.1057
  698MOL0     H92117   0.997   3.596   2.360  2.1641  0.4722 -0.1042
  698MOL0     H92118   0.004   3.556   2.978 -0.3453  0.6390  1.5541
  698MOL0     H92119  -0.233   3.458   2.994  0.5881  0.8193 -0.8780
  698MOL0     H92120  -0.435   3.030   3.333 -1.8738 -2.4299  1.3644
  698MOL0     H92121  -0.651   2.911   3.348 -2.6999  1.3401  0.6708
  698MOL0     H92122   0.464   3.136   2.722  0.0895  1.7072 -0.0471
  698MOL0     H92123   0.631   3.254   2.591 -2.3059  1.3145  3.2669
  698MOL0     H92124   1.155   3.188   2.489  0.2443  0.0835  0.0591
  698MOL0     H92125   1.333   3.271   2.384 -1.3912 -0.1014  3.3537
  698MOL0     H92126   1.285   3.607   2.183 -1.0466 -0.9399 -0.6027
  698MOL0     H92127   1.249   3.550   2.015 -2.4170 -0.5518  2.3479
  698MOL0     H92128   1.509   3.540   1.985  1.4001  1.4903  0.1646
  698MOL0     H92129   1.426   3.698   1.989 -1.2903 -0.3693 -0.5678
  698MOL0     H92130   1.647   3.614   2.126  0.8915  0.9774 -0.3187
  698MOL0     H92131   1.523   3.576   2.242  1.0416 -1.0095 -0.6109
  698MOL0     H92132   1.646   3.810   2.250 -1.6947  1.6880  2.7769
  698MOL0     H92133   1.555   3.851   2.107  2.1486  0.5106  0.0892
  698MOL0     H92134   1.252   3.888   2.406 -1.1094 -0.5407 -1.2663
  698MOL0     H92135   1.074   3.429   2.064 -3.7155 -0.5707  0.4010
  698MOL0     H92136   0.883   3.355   2.196  1.3488 -0.4307 -3.1653
  699MOL0     O92137   6.075   9.027   0.221  0.4318 -0.2959  0.4254
  699MOL0     C92138   6.044   8.981   0.106 -0.4505  0.6025  1.1827
  699MOL0     O92139   5.929   8.996   0.042 -0.2857 -0.4959 -0.2941
  699MOL0     C92140   5.843   9.081   0.103  0.0174  0.5880 -0.7313
  699MOL0     C92141   5.724   9.032   0.161  0.3439 -0.0016 -0.3082
  699MOL0     C92142   5.639   9.124   0.221  0.9010  0.5899 -0.2687
  699MOL0     C92143   5.667   9.262   0.220 -0.2073 -0.3341 -0.1237
  699MOL0     O92144   5.594   9.358   0.287  0.2705  0.5930 -0.6442
  699MOL0     C92145   5.497   9.315   0.385  0.3796 -0.5460 -0.2939
  699MOL0     C92146   5.403   9.431   0.424 -0.1880  1.0643 -0.2746
  699MOL0     C92147   5.323   9.383   0.553 -0.2244 -0.5546  0.4959
  699MOL0     C92148   5.202   9.482   0.561  0.0435 -0.3411 -0.3915
  699MOL0     C92149   5.103   9.457   0.681 -0.9248  0.2751  0.7197
  699MOL0     C92150   5.003   9.569   0.687  0.8018 -0.8483  0.0954
  699MOL0     C92151   4.909   9.564   0.811  0.1460  0.6606 -0.0634
  699MOL0     C92152   4.789   9.663   0.782 -0.2932  0.6934  0.2566
  699MOL0     N92153   4.688   9.639   0.885 -0.1069  0.2655  0.4789
  699MOL0     C92154   4.575   9.559   0.869 -0.3002  0.6078  0.2668
  699MOL0     C92155   4.522   9.552   0.997  0.1568 -0.3623 -0.0549
  699MOL0     C92156   4.395   9.475   1.038 -0.1183  0.3772  0.2885
  699MOL0     C92157   4.277   9.568   1.064 -0.1611  0.4074 -0.2966
  699MOL0     C92158   4.269   9.613   1.215 -0.1312 -0.4392  0.0315
  699MOL0     C92159   4.138   9.674   1.250 -0.1260 -0.2101 -0.2502
  699MOL0     O92160   4.036   9.582   1.278 -0.2077  0.7978  1.2543
  699MOL0     C92161   3.909   9.623   1.303 -0.3927 -0.0048  0.2680
  699MOL0     C92162   3.871   9.762   1.295 -0.5630 -0.3060 -0.8850
  699MOL0     C92163   3.747   9.813   1.341  0.5846  0.3060 -1.1519
  699MOL0     C92164   3.644   9.722   1.367  0.9947  0.0152  0.2395
  699MOL0     C92165   3.512   9.769   1.400  0.2909 -0.5271  0.0719
  699MOL0     O92166   3.494   9.902   1.428  0.1268 -0.4582  0.3493
  699MOL0     C92167   3.366   9.934   1.466 -0.3195 -0.1215  0.1952
  699MOL0     C92168   3.283  10.011   1.378 -0.2885 -0.2601  0.0259
  699MOL0     C92169   3.159  10.054   1.425 -0.1512  0.5405  0.6056
  699MOL0     C92170   3.109  10.016   1.544 -0.6393  0.0457 -0.2519
  699MOL0     O92171   2.983  10.061   1.579 -0.2918  0.5860 -0.6337
  699MOL0     C92172   2.977  10.143   1.700 -1.3750 -0.0959 -0.0594
  699MOL0     C92173   2.834  10.187   1.738 -0.4219 -0.1070 -0.1171
  699MOL0     C92174   2.810  10.258   1.877  0.1881 -0.7243  0.2298
  699MOL0     C92175   2.660  10.300   1.892 -0.6337 -0.1290 -0.9571
  699MOL0     C92176   2.661  10.402   2.006  0.2717 -0.4634  0.0126
  699MOL0     C92177   2.518  10.446   2.054 -0.7965 -0.5383  0.2159
  699MOL0     C92178   2.465  10.364   2.160 -0.3598 -0.0273 -0.0341
  699MOL0     C92179   2.315  10.387   2.177  0.2335  1.0908  0.0762
  699MOL0    Cl92180   2.276  10.564   2.199  0.2880 -0.4871 -0.0482
  699MOL0     C92181   3.189   9.934   1.631  0.5910 -0.3529  0.4659
  699MOL0     C92182   3.319   9.907   1.594 -0.2784  0.4640  0.4616
  699MOL0     O92183   3.423   9.684   1.414 -0.1796 -0.1996  0.8863
  699MOL0     C92184   3.679   9.584   1.349  0.5268  0.1521  0.0617
  699MOL0     C92185   3.807   9.532   1.340 -1.2783  0.2152  0.7821
  699MOL0     N92186   4.586   9.651   1.072  0.3473 -0.0030 -0.4614
  699MOL0     N92187   4.680   9.703   1.001  0.3298  0.2725  0.6610
  699MOL0     C92188   5.787   9.308   0.158  0.1040  0.7081  0.4368
  699MOL0     C92189   5.876   9.215   0.096  0.4414  0.2134 -0.4547
  699MOL0     C92190   6.140   8.881   0.042 -0.0950 -1.4755  0.2774
  699MOL0     C92191   6.259   8.848   0.110  0.7492 -0.4258 -0.0678
  699MOL0     C92192   6.340   8.751   0.059 -0.4568 -0.1801  0.4124
  699MOL0     C92193   6.305   8.685  -0.063  0.6136 -0.4108  0.5104
  699MOL0     O92194   6.391   8.607  -0.144 -0.4352 -0.2053  0.0837
  699MOL0     C92195   6.526   8.588  -0.094  0.4874 -0.0536  0.9552
  699MOL0     C92196   6.598   8.505  -0.187 -0.1270 -0.0177  0.5228
  699MOL0     C92197   6.729   8.447  -0.130 -0.1686 -0.3621  0.0218
  699MOL0     C92198   6.804   8.371  -0.239 -0.1384  0.2054  0.7853
  699MOL0     C92199   6.915   8.296  -0.177  0.0264 -0.1091 -0.5725
  699MOL0     C92200   7.009   8.230  -0.147  1.0485 -0.3002  0.0744
  699MOL0     C92201   6.190   8.723  -0.134 -0.3398 -0.3233  0.8091
  699MOL0     C92202   6.107   8.815  -0.071 -0.0065 -0.0882  0.2100
  699MOL0     H92203   5.700   8.926   0.165  1.6457 -0.3477 -1.0897
  699MOL0     H92204   5.536   9.091   0.231  1.1837 -2.8996 -5.1474
  699MOL0     H92205   5.550   9.282   0.475  1.6881  3.9171  0.8145
  699MOL0     H92206   5.427   9.237   0.355 -1.9230  1.0940  0.4586
  699MOL0     H92207   5.329   9.441   0.345  1.6692  0.2710 -2.2183
  699MOL0     H92208   5.455   9.526   0.441 -0.2460  0.9019  0.9072
  699MOL0     H92209   5.385   9.385   0.643 -2.3517  1.4491  2.0296
  699MOL0     H92210   5.277   9.285   0.538  2.6735 -2.0100  0.4495
  699MOL0     H92211   5.242   9.584   0.567 -2.2160  0.7286 -1.9844
  699MOL0     H92212   5.145   9.481   0.467 -0.4674  0.5112 -0.1007
  699MOL0     H92213   5.169   9.456   0.768  0.0678 -2.9072  0.0386
  699MOL0     H92214   5.055   9.359   0.685 -1.8434  0.6442 -0.4386
  699MOL0     H92215   4.956   9.571   0.589  0.9179 -0.3711  0.0465
  699MOL0     H92216   5.054   9.666   0.698  0.3883 -0.7576  1.3735
  699MOL0     H92217   4.877   9.460   0.815  2.8581 -0.2224  0.3440
  699MOL0     H92218   4.954   9.584   0.908 -1.8513  0.5979  0.9241
  699MOL0     H92219   4.748   9.665   0.681 -2.0765 -3.0475  0.7229
  699MOL0     H92220   4.834   9.759   0.808 -0.8047  0.2614  3.1961
  699MOL0     H92221   4.539   9.508   0.780  0.6801 -1.2718  0.8674
  699MOL0     H92222   4.408   9.417   1.130  0.9379  1.3325  0.7646
  699MOL0     H92223   4.365   9.409   0.956  0.7522  0.8019 -0.3818
  699MOL0     H92224   4.188   9.511   1.038 -0.2766  0.9625 -1.1378
  699MOL0     H92225   4.278   9.661   1.007  0.6921  0.2100 -0.6173
  699MOL0     H92226   4.286   9.524   1.275  3.3489  0.9227  1.2977
  699MOL0     H92227   4.351   9.680   1.243  0.7670 -1.3889 -0.2714
  699MOL0     H92228   4.099   9.730   1.164 -0.2529 -0.2931 -0.2477
  699MOL0     H92229   4.154   9.743   1.333 -2.3623  1.6964 -1.2681
  699MOL0     H92230   3.946   9.839   1.278 -0.3199 -0.5222 -0.7794
  699MOL0     H92231   3.724   9.919   1.343 -2.7337 -0.2913 -2.5346
  699MOL0     H92232   3.323  10.053   1.286 -0.8661  1.9602  0.7226
  699MOL0     H92233   3.101  10.123   1.365  1.0183 -0.6810 -2.1011
  699MOL0     H92234   3.035  10.234   1.680  3.3304 -2.1376  2.5408
  699MOL0     H92235   3.015  10.099   1.792 -1.6237  0.6303  0.4004
  699MOL0     H92236   2.767  10.101   1.742  0.3615 -0.6872  2.8734
  699MOL0     H92237   2.794  10.258   1.664  0.6389  0.4795 -0.1383
  699MOL0     H92238   2.874  10.346   1.887  0.5859 -0.9844  0.0119
  699MOL0     H92239   2.845  10.190   1.955  1.7304 -1.0030 -0.6527
  699MOL0     H92240   2.622  10.346   1.801 -2.2173  2.1161  0.7410
  699MOL0     H92241   2.599  10.212   1.911 -4.2370  2.4993  0.7881
  699MOL0     H92242   2.702  10.491   1.958 -0.3430  0.2877  0.8551
  699MOL0     H92243   2.721  10.375   2.092 -1.1362  1.5771  1.7480
  699MOL0     H92244   2.448  10.448   1.970 -0.8384  2.5548  0.2037
  699MOL0     H92245   2.530  10.551   2.084  0.5912 -0.6967  0.2954
  699MOL0     H92246   2.479  10.257   2.141 -0.6826  0.1475 -1.3377
  699MOL0     H92247   2.513  10.386   2.256 -4.2984  0.6826  1.9576
  699MOL0     H92248   2.270  10.335   2.262  0.7128  0.1997 -0.2047
  699MOL0     H92249   2.266  10.360   2.083  1.4997 -1.1679 -0.0118
  699MOL0     H92250   3.153   9.906   1.729  0.8796 -1.0733  0.3684
  699MOL0     H92251   3.378   9.848   1.663 -1.0686 -1.9656 -0.8308
  699MOL0     H92252   3.598   9.514   1.366  0.3374 -0.5049 -2.9413
  699MOL0     H92253   3.831   9.428   1.361 -1.1779  0.6480  3.0845
  699MOL0     H92254   5.807   9.414   0.166  1.5831  0.3075  3.4720
  699MOL0     H92255   5.969   9.253   0.056  1.0424 -1.9789 -1.2247
  699MOL0     H92256   6.277   8.891   0.208 -0.5720 -1.3869  0.6348
  699MOL0     H92257   6.436   8.732   0.104  0.3220  0.7083 -0.8138
  699MOL0     H92258   6.525   8.549   0.009  1.5318  1.0232  1.4094
  699MOL0     H92259   6.582   8.681  -0.079  1.0431 -0.3884  0.9925
  699MOL0     H92260   6.537   8.419  -0.217  2.7259 -2.7164  1.9228
  699MOL0     H92261   6.622   8.563  -0.277  1.4920 -0.3013  0.7460
  699MOL0     H92262   6.707   8.388  -0.041 -0.0102  0.4205  0.5912
  699MOL0     H92263   6.789   8.525  -0.082 -1.6938  0.7749  0.1433
  699MOL0     H92264   6.729   8.300  -0.274  1.0706 -0.3085 -0.8984
  699MOL0     H92265   6.836   8.432  -0.324  0.0486  1.1272  1.4905
  699MOL0     H92266   7.092   8.171  -0.113  0.3419 -1.3981 -0.0682
  699MOL0     H92267   6.173   8.688  -0.235  2.6792 -0.2471  0.1927
  699MOL0     H92268   6.010   8.837  -0.114 -0.1546  1.4767  1.2621
  700MOL0     O92269  10.504   3.279   4.039  0.5182  0.9096  0.4059
  700MOL0     C92270  10.587   3.314   4.120  0.7161 -0.9569 -0.1520
  700MOL0     O92271  10.583   3.302   4.262  0.1997 -0.4290  0.1438
  700MOL0     C92272  10.468   3.244   4.306 -0.4080  0.2519  0.0279
  700MOL0     C92273  10.353   3.312   4.323 -0.1979  0.2509 -0.2557
  700MOL0     C92274  10.237   3.256   4.388  0.2386 -0.4742  0.0910
  700MOL0     C92275  10.246   3.124   4.432  0.4039  0.0493 -0.0471
  700MOL0     O92276  10.145   3.052   4.484  0.2535  0.1157  0.1710
  700MOL0     C92277  10.010   3.093   4.475 -0.6568  0.3329 -0.3115
  700MOL0     C92278   9.941   3.059   4.343 -0.7947 -0.5933 -0.6941
  700MOL0     C92279   9.996   3.132   4.213 -0.8363 -0.0912  0.1107
  700MOL0     C92280   9.964   3.047   4.088 -0.2154 -0.0313 -0.1073
  700MOL0     C92281   9.962   3.126   3.959  0.2897  0.0279  0.6125
  700MOL0     C92282  10.095   3.157   3.894  0.1673 -0.5180 -0.3060
  700MOL0     C92283  10.091   3.276   3.799  0.1537  0.3312 -0.8676
  700MOL0     C92284  10.236   3.325   3.755 -1.2036  0.2821 -0.3164
  700MOL0     N92285  10.238   3.441   3.670 -0.1541  0.4652  0.0644
  700MOL0     C92286  10.353   3.504   3.625 -0.4501  0.9444  0.8780
  700MOL0     C92287  10.325   3.631   3.589  0.7536 -0.2028  0.0807
  700MOL0     C92288  10.424   3.726   3.536 -0.2203  0.5519  1.3453
  700MOL0     C92289  10.431   3.711   3.386  0.5322  0.0037 -0.2185
  700MOL0     C92290  10.528   3.823   3.348  0.7829 -0.0232 -0.1106
  700MOL0     C92291  10.509   3.846   3.196 -0.2227  0.5782 -0.3278
  700MOL0     O92292  10.601   3.946   3.147 -0.1509  0.0030 -0.1594
  700MOL0     C92293  10.735   3.923   3.118 -0.1373 -0.0239  0.0456
  700MOL0     C92294  10.795   3.796   3.137  0.1320 -0.0684 -0.2023
  700MOL0     C92295  10.927   3.785   3.093 -0.5755  0.8196  0.5662
  700MOL0     C92296  11.006   3.888   3.050 -0.2806 -0.0775 -0.1110
  700MOL0     C92297  11.152   3.878   3.008 -0.4295 -0.3421 -0.4806
  700MOL0     O92298  11.208   3.989   2.959  0.0123  0.1989 -0.3443
  700MOL0     C92299  11.350   3.994   2.940 -0.3287 -0.4341  0.9246
  700MOL0     C92300  11.438   3.955   3.044 -0.4716 -0.5165  0.0100
  700MOL0     C92301  11.572   3.953   3.028  0.2674  0.1311  0.2311
  700MOL0     C92302  11.631   3.999   2.906 -0.1564 -0.5405 -0.1142
  700MOL0     O92303  11.760   4.000   2.873  0.1645 -0.1528 -0.7994
  700MOL0     C92304  11.851   3.948   2.973 -0.5216 -0.2612 -0.9378
  700MOL0     C92305  11.990   3.960   2.912  0.1956  0.1565 -0.0629
  700MOL0     C92306  12.024   4.106   2.880 -0.1678  0.9329 -0.2429
  700MOL0     C92307  12.163   4.140   2.810  0.2542 -0.3269 -0.7817
  700MOL0     C92308  12.158   4.119   2.657  0.6896 -0.7914  0.3847
  700MOL0     C92309  12.291   4.161   2.590  0.8833  0.6940  0.2998
  700MOL0     C92310  12.274   4.289   2.511 -0.5636  0.1543  0.2025
  700MOL0     C92311  12.397   4.342   2.447  0.4894 -0.6556 -0.2338
  700MOL0    Cl92312  12.519   4.228   2.398 -0.2754  0.3305  0.5213
  700MOL0     C92313  11.548   4.038   2.804  0.6244 -0.1940 -0.0440
  700MOL0     C92314  11.410   4.051   2.823 -0.2799  0.2747  0.6539
  700MOL0     O92315  11.215   3.779   3.024  0.1234  0.0165 -0.4375
  700MOL0     C92316  10.945   4.019   3.045 -0.2087  0.6674  0.4570
  700MOL0     C92317  10.808   4.028   3.070  0.5643 -0.9747 -0.1352
  700MOL0     N92318  10.188   3.641   3.600  0.1444 -0.1127  0.0023
  700MOL0     N92319  10.135   3.533   3.644 -0.8648 -0.3519  0.1317
  700MOL0     C92320  10.364   3.050   4.420 -0.2262  0.9114  0.4675
  700MOL0     C92321  10.481   3.110   4.363 -0.1989 -0.2829  0.6628
  700MOL0     C92322  10.705   3.389   4.057  0.0603  0.0774 -0.3798
  700MOL0     C92323  10.807   3.441   4.135  0.3858 -0.0441 -0.7256
  700MOL0     C92324  10.929   3.491   4.082  0.0992 -0.5699 -0.6428
  700MOL0     C92325  10.940   3.491   3.941  0.4416 -0.4241  0.1508
  700MOL0     O92326  11.060   3.543   3.890 -0.4834 -0.1862 -0.0646
  700MOL0     C92327  11.064   3.602   3.766 -0.2569  0.1026  1.0870
  700MOL0     C92328  11.200   3.669   3.738  0.1392  0.0413 -0.0623
  700MOL0     C92329  11.227   3.780   3.840  0.2959 -0.2755  0.7375
  700MOL0     C92330  11.361   3.851   3.830  0.0590 -0.4687  0.4358
  700MOL0     C92331  11.384   3.900   3.688 -0.0770  0.2703  1.0550
  700MOL0     C92332  11.396   3.928   3.570 -0.7495 -0.3890  0.5900
  700MOL0     C92333  10.831   3.455   3.861 -0.1817  0.5839 -0.1151
  700MOL0     C92334  10.715   3.393   3.919  0.1520 -0.8477  0.3441
  700MOL0     H92335  10.341   3.416   4.295  0.9587  0.9258  1.5539
  700MOL0     H92336  10.149   3.318   4.405  1.3190  1.2656 -0.3646
  700MOL0     H92337   9.998   3.199   4.498  2.1590  0.6631  0.0583
  700MOL0     H92338   9.955   3.047   4.558  2.0536  1.7142  2.4729
  700MOL0     H92339   9.835   3.079   4.364 -0.1692  0.6844  1.7064
  700MOL0     H92340   9.958   2.951   4.339 -0.9234 -0.6511  0.1393
  700MOL0     H92341  10.105   3.132   4.224 -1.1120 -1.0329  4.8313
  700MOL0     H92342   9.971   3.236   4.190  2.4940  0.7721 -0.1209
  700MOL0     H92343  10.030   2.961   4.079 -0.5356 -0.4289  1.2262
  700MOL0     H92344   9.861   3.012   4.096 -0.1076 -0.2143  0.4737
  700MOL0     H92345   9.904   3.218   3.969  0.9503  0.4356  0.7365
  700MOL0     H92346   9.907   3.060   3.891  1.3758  0.3496 -0.6088
  700MOL0     H92347  10.124   3.069   3.836  0.6065 -1.3593  1.1338
  700MOL0     H92348  10.176   3.167   3.967 -0.0465  2.6409 -0.3548
  700MOL0     H92349  10.041   3.239   3.709  0.6243 -1.7684 -0.3302
  700MOL0     H92350  10.039   3.360   3.845  0.2919  0.4026 -0.8409
  700MOL0     H92351  10.287   3.246   3.700 -1.0598  0.9639 -1.1700
  700MOL0     H92352  10.293   3.354   3.844  2.5682 -2.2778 -1.6429
  700MOL0     H92353  10.445   3.447   3.613 -0.4344  0.5626  2.5654
  700MOL0     H92354  10.517   3.716   3.593  0.4492 -0.0601  0.1869
  700MOL0     H92355  10.382   3.822   3.567 -0.7091 -0.4094  3.8882
  700MOL0     H92356  10.334   3.711   3.335  1.1564 -1.0108 -1.4618
  700MOL0     H92357  10.468   3.614   3.350 -2.1274 -0.6414 -1.4691
  700MOL0     H92358  10.506   3.919   3.395 -1.9521  0.2731 -1.7847
  700MOL0     H92359  10.632   3.799   3.371  0.8894  1.4179  1.0518
  700MOL0     H92360  10.405   3.871   3.171 -0.4992  4.6069  3.7663
  700MOL0     H92361  10.529   3.754   3.139 -1.3064 -0.6970  1.2519
  700MOL0     H92362  10.751   3.702   3.170 -0.6897  0.4494  0.2157
  700MOL0     H92363  10.978   3.689   3.097  0.0205  1.1195  0.1892
  700MOL0     H92364  11.390   3.929   3.137 -1.2721  0.7565 -0.0244
  700MOL0     H92365  11.635   3.936   3.115 -0.1378  2.6124  1.0925
  700MOL0     H92366  11.816   3.849   3.006 -2.6615  1.8985  4.4907
  700MOL0     H92367  11.848   4.007   3.065  0.7668 -1.4836 -0.0749
  700MOL0     H92368  11.977   3.896   2.824 -2.1831 -0.1069  0.4160
  700MOL0     H92369  12.063   3.909   2.976  0.9808  0.5307 -0.6418
  700MOL0     H92370  12.031   4.163   2.973 -0.5624  2.1540 -0.9303
  700MOL0     H92371  11.951   4.145   2.808 -1.9338 -0.5907  0.6401
  700MOL0     H92372  12.202   4.241   2.830  1.9633 -1.6829  4.1474
  700MOL0     H92373  12.238   4.073   2.852  2.7007  2.2373 -0.7286
  700MOL0     H92374  12.073   4.169   2.609  1.7719  0.7664 -0.0185
  700MOL0     H92375  12.141   4.013   2.637  0.1253 -0.4855 -0.8984
  700MOL0     H92376  12.321   4.076   2.527  0.3551 -0.8285  2.0039
  700MOL0     H92377  12.374   4.175   2.659  0.4042  2.3944  0.5596
  700MOL0     H92378  12.199   4.264   2.435  0.6739  0.4994 -1.1757
  700MOL0     H92379  12.231   4.372   2.567  1.2310 -0.0591  1.9976
  700MOL0     H92380  12.437   4.407   2.526 -3.0611 -1.4292  2.4712
  700MOL0     H92381  12.364   4.394   2.357 -0.9002  2.1068  1.7192
  700MOL0     H92382  11.589   4.065   2.707  0.0408 -4.2122 -1.6157
  700MOL0     H92383  11.351   4.097   2.745  2.6955 -1.0491 -2.6918
  700MOL0     H92384  10.995   4.108   3.009 -2.1222  1.5853 -0.0635
  700MOL0     H92385  10.763   4.126   3.058 -0.4673 -1.0430  2.4865
  700MOL0     H92386  10.378   2.948   4.456 -0.2581  0.3414 -1.0684
  700MOL0     H92387  10.575   3.057   4.351 -0.7798 -1.0191 -0.8212
  700MOL0     H92388  10.790   3.440   4.242 -1.3538 -1.3376 -0.9802
  700MOL0     H92389  11.008   3.537   4.139 -0.1052 -0.8962 -0.0900
  700MOL0     H92390  10.981   3.669   3.745  0.1620  0.4170  0.3888
  700MOL0     H92391  11.044   3.520   3.697 -2.0173 -0.2021  1.9083
  700MOL0     H92392  11.288   3.604   3.742  1.3368  1.4149 -2.0207
  700MOL0     H92393  11.194   3.716   3.639  4.2916  1.4006  0.1057
  700MOL0     H92394  11.228   3.741   3.942  2.7263  2.1835  1.7884
  700MOL0     H92395  11.141   3.847   3.829  0.0981 -0.7712 -1.1764
  700MOL0     H92396  11.368   3.936   3.899  0.0685 -0.7513  0.7858
  700MOL0     H92397  11.438   3.780   3.861  0.5170 -0.6870 -1.1128
  700MOL0     H92398  11.407   3.954   3.467 -1.6759  1.3149  0.8897
  700MOL0     H92399  10.848   3.461   3.754 -2.2981  2.5320 -0.4333
  700MOL0     H92400  10.647   3.347   3.848  0.3500 -2.0911  0.9384
  701MOL0     O92401   4.234  11.090   9.836 -0.0688  0.7807  0.4034
  701MOL0     C92402   4.216  11.199   9.886  0.4379  0.0395 -0.5310
  701MOL0     O92403   4.270  11.310   9.836 -0.0020 -0.3240 -0.1840
  701MOL0     C92404   4.399  11.313   9.790  0.9853 -0.0590 -1.1064
  701MOL0     C92405   4.444  11.435   9.749  0.3210  0.4434 -0.0637
  701MOL0     C92406   4.573  11.466   9.706  0.5546  0.9119 -0.7648
  701MOL0     C92407   4.667  11.364   9.708 -0.2630  0.1022  0.1874
  701MOL0     O92408   4.800  11.384   9.673 -0.6341  0.2913 -0.1665
  701MOL0     C92409   4.869  11.498   9.723  0.1131  0.6368  0.0838
  701MOL0     C92410   5.014  11.456   9.751  0.5445 -0.5185 -0.1918
  701MOL0     C92411   5.097  11.474   9.621  1.1694 -0.4107 -0.4483
  701MOL0     C92412   5.248  11.447   9.645  0.7634  0.0443 -0.3975
  701MOL0     C92413   5.332  11.450   9.519  0.2884 -0.9599  0.1153
  701MOL0     C92414   5.486  11.467   9.546  0.6412  0.1875  0.6943
  701MOL0     C92415   5.557  11.454   9.408  1.0428 -0.0802  0.6201
  701MOL0     C92416   5.689  11.537   9.406  0.8003  0.5075 -0.3518
  701MOL0     N92417   5.742  11.529   9.271 -0.2402  0.4405 -0.2281
  701MOL0     C92418   5.706  11.608   9.168 -0.7121 -0.4824  0.0723
  701MOL0     C92419   5.753  11.551   9.053  0.5427  0.1100  0.9832
  701MOL0     C92420   5.734  11.599   8.907  0.2627 -0.4568 -1.1747
  701MOL0     C92421   5.638  11.517   8.831 -0.1940 -0.0854 -0.8975
  701MOL0     C92422   5.592  11.552   8.695 -0.5379 -0.4574  1.0676
  701MOL0     C92423   5.712  11.546   8.590  0.0102  0.8060 -1.0901
  701MOL0     O92424   5.666  11.580   8.460 -0.6188 -0.0255 -0.2387
  701MOL0     C92425   5.569  11.514   8.392  0.3628 -0.2609  0.6368
  701MOL0     C92426   5.539  11.383   8.408  0.6882 -0.5564 -0.1821
  701MOL0     C92427   5.433  11.325   8.342  0.0865  0.3257 -0.1700
  701MOL0     C92428   5.349  11.396   8.257 -0.1375 -0.5782  0.4974
  701MOL0     C92429   5.229  11.337   8.191  0.2866 -0.1758 -0.5221
  701MOL0     O92430   5.189  11.217   8.243  0.1699  0.0372  0.2453
  701MOL0     C92431   5.085  11.148   8.180 -1.2351 -0.3268 -0.3662
  701MOL0     C92432   4.956  11.204   8.166  0.3498 -0.3614  0.2445
  701MOL0     C92433   4.851  11.118   8.124 -0.1572 -1.1933  0.1988
  701MOL0     C92434   4.888  10.988   8.077 -0.0387  0.6977  0.1757
  701MOL0     O92435   4.804  10.911   8.013  0.3431 -0.3843  0.0080
  701MOL0     C92436   4.685  10.863   8.085 -0.4887 -0.0616  0.5485
  701MOL0     C92437   4.578  10.853   7.983 -0.0991  0.1548  0.7897
  701MOL0     C92438   4.478  10.975   7.978  0.3777  0.1414 -0.8620
  701MOL0     C92439   4.368  10.960   7.869 -0.1093 -0.9888 -0.1621
  701MOL0     C92440   4.275  11.084   7.868  0.6967  0.2524 -0.1468
  701MOL0     C92441   4.156  11.079   7.768  0.2272 -0.1717  0.3489
  701MOL0     C92442   4.039  11.179   7.808 -0.2762  0.8644  0.1934
  701MOL0     C92443   3.918  11.155   7.721 -0.1975 -0.2263  0.1162
  701MOL0    Cl92444   3.777  11.241   7.792  0.5529 -0.2317  0.2435
  701MOL0     C92445   5.011  10.931   8.098 -0.3054 -0.7340 -0.6279
  701MOL0     C92446   5.109  11.018   8.149  0.9617  0.1395  0.0458
  701MOL0     O92447   5.177  11.395   8.096  0.9186  0.6954  0.0360
  701MOL0     C92448   5.386  11.528   8.218  0.3795  0.0923  0.5555
  701MOL0     C92449   5.494  11.586   8.288 -0.0974  0.4875  0.4177
  701MOL0     N92450   5.812  11.434   9.097  0.2909  0.2714 -0.1302
  701MOL0     N92451   5.790  11.415   9.226 -0.5491 -0.2097  0.2406
  701MOL0     C92452   4.632  11.233   9.751  0.0102 -0.0292 -0.3342
  701MOL0     C92453   4.492  11.216   9.790 -0.8682  0.3560 -1.1150
  701MOL0     C92454   4.135  11.213  10.007 -0.2379 -0.0297 -0.2613
  701MOL0     C92455   4.070  11.096  10.056 -0.5032  0.2797 -0.7751
  701MOL0     C92456   3.987  11.102  10.170  0.0674 -0.0508 -0.0201
  701MOL0     C92457   3.951  11.223  10.232  0.3363 -0.0814  0.9662
  701MOL0     O92458   3.859  11.250  10.334 -0.5010 -0.1610  0.2645
  701MOL0     C92459   3.752  11.156  10.364 -0.0460 -0.3119  0.2598
  701MOL0     C92460   3.628  11.171  10.276 -0.0093  0.1639  0.8708
  701MOL0     C92461   3.555  11.296  10.291  0.0243  0.3679 -0.6102
  701MOL0     C92462   3.414  11.308  10.237  0.2003  0.3808 -0.4621
  701MOL0     C92463   3.358  11.446  10.258 -0.8130  0.3111 -0.5939
  701MOL0     C92464   3.292  11.549  10.272 -0.7162 -0.0921 -0.1801
  701MOL0     C92465   4.021  11.334  10.182  0.5909 -0.2365  0.1973
  701MOL0     C92466   4.119  11.335  10.080  0.1437 -0.5287  0.0895
  701MOL0     H92467   4.364  11.506   9.734 -0.4128 -0.6886 -1.8456
  701MOL0     H92468   4.602  11.570   9.687 -0.5177  1.1268 -1.3068
  701MOL0     H92469   4.821  11.544   9.810 -1.0869  0.7006 -0.5819
  701MOL0     H92470   4.857  11.573   9.644  1.9876  1.0348  0.1384
  701MOL0     H92471   5.019  11.353   9.788  3.4374 -0.1900  0.5063
  701MOL0     H92472   5.057  11.524   9.825  0.4948 -2.8823  2.1526
  701MOL0     H92473   5.091  11.573   9.574  1.5308 -0.8230 -1.3965
  701MOL0     H92474   5.056  11.401   9.550 -0.4691 -0.6391  0.6671
  701MOL0     H92475   5.276  11.518   9.724 -1.4296 -0.7339  1.1727
  701MOL0     H92476   5.248  11.344   9.682 -1.8366 -0.1060 -0.6519
  701MOL0     H92477   5.301  11.536   9.458  1.5400 -0.7735 -0.2940
  701MOL0     H92478   5.332  11.360   9.457 -0.2038 -2.2223  1.8890
  701MOL0     H92479   5.517  11.383   9.609  0.7938  0.2668  0.7258
  701MOL0     H92480   5.500  11.568   9.585 -0.7787  1.0684 -0.9417
  701MOL0     H92481   5.568  11.350   9.377  0.3528  0.2471 -0.7869
  701MOL0     H92482   5.498  11.510   9.336  0.9697  0.1615  0.8643
  701MOL0     H92483   5.750  11.490   9.484 -0.4642 -0.0238  0.3427
  701MOL0     H92484   5.664  11.642   9.425  0.9860  0.4364  0.3041
  701MOL0     H92485   5.646  11.698   9.175 -0.3409 -0.1962 -0.3776
  701MOL0     H92486   5.829  11.607   8.854  0.2666  2.4986 -0.8618
  701MOL0     H92487   5.687  11.698   8.915  1.2738 -0.0957  0.6861
  701MOL0     H92488   5.554  11.510   8.899  0.5400  0.4933  0.0918
  701MOL0     H92489   5.673  11.413   8.829  0.2761  0.0254  0.6119
  701MOL0     H92490   5.514  11.480   8.666 -1.0937  0.3967  0.3971
  701MOL0     H92491   5.548  11.651   8.686 -0.9844 -0.7769 -0.7313
  701MOL0     H92492   5.777  11.458   8.595 -1.2346 -0.1144 -0.5290
  701MOL0     H92493   5.781  11.628   8.614  0.2759  1.3490 -3.4337
  701MOL0     H92494   5.606  11.330   8.475  0.1673 -0.1436  0.6884
  701MOL0     H92495   5.419  11.221   8.370  2.6009  0.3148  1.3341
  701MOL0     H92496   4.940  11.307   8.196  0.8369 -1.0362  3.0970
  701MOL0     H92497   4.746  11.143   8.124 -0.1448 -0.9071  2.6242
  701MOL0     H92498   4.653  10.922   8.172  0.9406 -0.4030  1.3252
  701MOL0     H92499   4.700  10.760   8.117  0.1482 -0.0268  0.3745
  701MOL0     H92500   4.519  10.766   8.014  1.0671 -0.7372  0.6033
  701MOL0     H92501   4.614  10.822   7.885  0.8497 -2.0944  1.7669
  701MOL0     H92502   4.525  11.072   7.959 -3.5446  1.9199 -2.5682
  701MOL0     H92503   4.423  10.979   8.073 -0.7193 -0.4915 -1.4553
  701MOL0     H92504   4.413  10.945   7.771  1.0288  1.8954 -0.1851
  701MOL0     H92505   4.312  10.867   7.883 -0.6372 -0.7838 -0.8248
  701MOL0     H92506   4.328  11.179   7.860  0.4338  0.4753  0.6789
  701MOL0     H92507   4.228  11.063   7.965  1.3688 -0.4865  0.0368
  701MOL0     H92508   4.110  10.980   7.779  0.3843 -0.2264  0.5164
  701MOL0     H92509   4.196  11.097   7.667 -0.3684  0.2370  0.1833
  701MOL0     H92510   4.003  11.141   7.904 -0.7807 -1.8455 -0.9671
  701MOL0     H92511   4.073  11.283   7.798  0.8880  0.4456 -0.3422
  701MOL0     H92512   3.902  11.048   7.705 -1.9050  0.4096 -3.7142
  701MOL0     H92513   3.937  11.208   7.627 -1.7787 -0.7472 -0.5281
  701MOL0     H92514   5.032  10.830   8.065 -0.4353 -1.6567  1.9017
  701MOL0     H92515   5.209  10.974   8.146  1.4032  1.0389  0.9644
  701MOL0     H92516   5.328  11.587   8.148  1.9546 -0.3638 -1.2428
  701MOL0     H92517   5.504  11.694   8.277  1.8204  0.2589 -0.5039
  701MOL0     H92518   4.697  11.146   9.749 -1.1902 -1.0277  1.5180
  701MOL0     H92519   4.470  11.115   9.824  2.1268  0.5569  2.0074
  701MOL0     H92520   4.071  11.003  10.002 -2.8742 -0.2459 -0.0580
  701MOL0     H92521   3.927  11.016  10.196  0.0837  0.3142  1.2650
  701MOL0     H92522   3.723  11.161  10.469 -2.6943 -0.1794 -0.3977
  701MOL0     H92523   3.784  11.051  10.355 -1.6372 -0.9667  1.6094
  701MOL0     H92524   3.644  11.154  10.169 -3.1775 -1.5635  0.5443
  701MOL0     H92525   3.568  11.088  10.314 -1.3750  0.9362  0.4616
  701MOL0     H92526   3.614  11.378  10.249 -0.0390  1.3914  1.1892
  701MOL0     H92527   3.543  11.324  10.396  1.1345 -0.9570 -0.0926
  701MOL0     H92528   3.414  11.290  10.130 -1.0808 -0.3884 -0.3440
  701MOL0     H92529   3.346  11.233  10.278 -1.9825 -0.4328 -4.9954
  701MOL0     H92530   3.235  11.639  10.281 -0.1032  0.1814  1.2197
  701MOL0     H92531   4.004  11.436  10.216  4.6893  0.6335  0.1033
  701MOL0     H92532   4.166  11.428  10.049 -1.2195 -0.6673 -2.7705
  702MOL0     O92533   1.207   9.522   4.861  0.6113  0.5322 -0.6067
  702MOL0     C92534   1.210   9.398   4.836  0.1118  0.3160 -0.5533
  702MOL0     O92535   1.134   9.309   4.890 -0.4696  0.2032 -0.3839
  702MOL0     C92536   1.027   9.354   4.964  0.2486 -0.8572  0.0215
  702MOL0     C92537   0.906   9.319   4.914 -0.7858  0.8671 -0.8887
  702MOL0     C92538   0.797   9.332   5.005  0.1723 -0.0720 -0.6671
  702MOL0     C92539   0.803   9.393   5.128 -0.0248  0.4190 -0.3648
  702MOL0     O92540   0.684   9.403   5.201 -0.0241  0.3705  0.1856
  702MOL0     C92541   0.672   9.503   5.293 -0.0845  0.7778  0.3334
  702MOL0     C92542   0.532   9.479   5.352  0.4621 -0.8620 -0.8559
  702MOL0     C92543   0.414   9.533   5.271  0.8512  0.9187 -0.4065
  702MOL0     C92544   0.288   9.532   5.367  0.5184 -0.6112  0.0287
  702MOL0     C92545   0.166   9.589   5.302  0.5588  0.3268 -0.5641
  702MOL0     C92546   0.037   9.547   5.376 -0.4686  0.5263  0.6831
  702MOL0     C92547   0.030   9.582   5.524 -0.8962 -0.5252 -0.5181
  702MOL0     C92548  -0.079   9.498   5.591  0.8918  0.9154 -0.0824
  702MOL0     N92549  -0.220   9.520   5.544 -0.4734 -0.6524  0.1701
  702MOL0     C92550  -0.286   9.426   5.467 -0.3279  0.2705  0.0477
  702MOL0     C92551  -0.413   9.470   5.459 -0.4327  0.7122 -0.0370
  702MOL0     C92552  -0.525   9.389   5.399 -0.6188 -0.1210 -0.4761
  702MOL0     C92553  -0.648   9.371   5.486  0.2490  0.6969 -0.2412
  702MOL0     C92554  -0.771   9.343   5.403 -0.4709 -0.8902 -0.2456
  702MOL0     C92555  -0.885   9.351   5.498 -0.1299  0.3402 -0.6574
  702MOL0     O92556  -0.999   9.312   5.413  0.4058 -0.9506 -0.7913
  702MOL0     C92557  -1.106   9.395   5.410  0.0364 -0.9425 -0.2533
  702MOL0     C92558  -1.157   9.442   5.289 -0.0326 -0.6050  0.2194
  702MOL0     C92559  -1.270   9.526   5.284  0.1179  0.5329  0.3274
  702MOL0     C92560  -1.339   9.559   5.406  0.2887  1.0214  0.0250
  702MOL0     C92561  -1.465   9.618   5.397  0.3491 -0.0501 -0.0563
  702MOL0     O92562  -1.544   9.594   5.288  0.0636  0.0688 -0.3335
  702MOL0     C92563  -1.668   9.649   5.284 -0.0619  0.8051 -0.4209
  702MOL0     C92564  -1.772   9.575   5.222 -0.3438 -0.1120  0.0872
  702MOL0     C92565  -1.896   9.625   5.205  0.1783  0.1941  0.7228
  702MOL0     C92566  -1.933   9.759   5.227  0.1377  0.2968 -0.1483
  702MOL0     O92567  -2.038   9.836   5.197 -0.2778 -0.1739 -0.0595
  702MOL0     C92568  -2.117   9.800   5.091 -0.6495 -0.1632  0.4835
  702MOL0     C92569  -2.229   9.894   5.062 -0.1761 -0.3134 -0.4962
  702MOL0     C92570  -2.319   9.926   5.190 -0.2909 -0.1968  0.8053
  702MOL0     C92571  -2.427  10.033   5.143  0.9829  0.5395 -0.4534
  702MOL0     C92572  -2.555   9.964   5.082  0.2460 -0.1845 -0.4505
  702MOL0     C92573  -2.681  10.010   5.159  0.2726  0.6871 -0.1454
  702MOL0     C92574  -2.811   9.954   5.092  0.2530 -0.2103  0.5992
  702MOL0     C92575  -2.939   9.968   5.173  0.3073 -1.5258 -0.3326
  702MOL0    Cl92576  -2.966   9.839   5.293 -0.3117 -0.1826 -0.2419
  702MOL0     C92577  -1.829   9.838   5.280 -0.8858  0.7575 -0.8694
  702MOL0     C92578  -1.703   9.779   5.316 -0.0984 -0.0947 -0.3137
  702MOL0     O92579  -1.491   9.689   5.496 -1.4008 -0.2963  0.9578
  702MOL0     C92580  -1.279   9.513   5.534  0.2657  0.8121 -0.3245
  702MOL0     C92581  -1.161   9.443   5.528 -0.4529  0.5249 -0.0095
  702MOL0     N92582  -0.417   9.598   5.513 -0.0921  0.5657 -0.4654
  702MOL0     N92583  -0.299   9.627   5.566  0.2270  0.2074  0.0257
  702MOL0     C92584   0.926   9.431   5.177 -0.3353 -0.0129 -0.8360
  702MOL0     C92585   1.036   9.408   5.093 -0.3153  0.1192  0.9191
  702MOL0     C92586   1.316   9.348   4.741 -0.5252 -0.0089  0.4358
  702MOL0     C92587   1.438   9.418   4.719 -0.5328 -0.1622 -0.8745
  702MOL0     C92588   1.536   9.371   4.633  0.1465 -0.2545 -0.6717
  702MOL0     C92589   1.520   9.245   4.571  0.3530  0.1095  0.9306
  702MOL0     O92590   1.628   9.197   4.508 -0.1093 -0.3428 -0.6979
  702MOL0     C92591   1.620   9.085   4.426 -0.2692  0.1228 -0.0598
  702MOL0     C92592   1.760   9.034   4.382 -0.0059 -0.2882 -0.1419
  702MOL0     C92593   1.847   9.006   4.502 -0.1747 -0.5519 -0.0571
  702MOL0     C92594   1.977   8.946   4.459 -0.1244 -0.4199  0.3312
  702MOL0     C92595   1.975   8.814   4.396  0.7466  0.0097 -0.9042
  702MOL0     C92596   1.976   8.713   4.328 -0.1892 -0.6713 -0.5681
  702MOL0     C92597   1.406   9.175   4.596  0.1604  0.4209 -0.3636
  702MOL0     C92598   1.302   9.216   4.684 -0.6483 -0.8030 -0.3605
  702MOL0     H92599   0.903   9.271   4.816 -2.4419 -0.0651 -0.4292
  702MOL0     H92600   0.695   9.313   4.972 -0.1987  2.0916 -0.8886
  702MOL0     H92601   0.689   9.595   5.236 -3.8000  1.8952  0.7492
  702MOL0     H92602   0.751   9.480   5.364 -0.6054  0.3119  0.7758
  702MOL0     H92603   0.536   9.525   5.451  2.4997  0.6874 -1.5602
  702MOL0     H92604   0.512   9.375   5.380 -1.8943 -0.6138 -1.4327
  702MOL0     H92605   0.403   9.471   5.181 -0.0788  0.0311  0.2905
  702MOL0     H92606   0.439   9.633   5.235  0.6030  0.2410 -2.5835
  702MOL0     H92607   0.268   9.428   5.395 -0.1028 -0.5892 -0.3210
  702MOL0     H92608   0.306   9.585   5.461 -1.4681 -0.4225  0.3509
  702MOL0     H92609   0.170   9.551   5.199  2.0187  1.8653 -1.1124
  702MOL0     H92610   0.163   9.698   5.306  0.3497  0.3477 -1.1368
  702MOL0     H92611   0.023   9.441   5.354 -2.9494  0.9403 -0.0396
  702MOL0     H92612  -0.048   9.596   5.327 -0.1878  0.6215  0.2890
  702MOL0     H92613   0.123   9.566   5.580 -1.1902  0.1452  0.1810
  702MOL0     H92614   0.000   9.687   5.529  0.2978 -0.2177  0.9058
  702MOL0     H92615  -0.073   9.513   5.699  0.5732 -1.3641  0.2963
  702MOL0     H92616  -0.060   9.393   5.570  3.3632  0.6488  2.8232
  702MOL0     H92617  -0.251   9.327   5.440 -0.3996 -0.3200  1.9777
  702MOL0     H92618  -0.489   9.290   5.369 -0.4935 -1.8372  4.4660
  702MOL0     H92619  -0.550   9.452   5.313 -1.1175  2.2294  1.2957
  702MOL0     H92620  -0.663   9.456   5.554  3.0646  0.5174  0.7342
  702MOL0     H92621  -0.629   9.288   5.555 -1.0989  1.7101  1.4366
  702MOL0     H92622  -0.782   9.417   5.324  1.3503  0.5605  0.7597
  702MOL0     H92623  -0.762   9.242   5.363  2.2260 -0.9623  0.3273
  702MOL0     H92624  -0.879   9.452   5.538 -1.2872  0.8387 -1.6717
  702MOL0     H92625  -0.875   9.272   5.572  0.4345 -0.4916 -1.5846
  702MOL0     H92626  -1.122   9.417   5.190 -0.5217  2.0896 -0.7137
  702MOL0     H92627  -1.313   9.555   5.189 -0.0694  0.3440  0.3549
  702MOL0     H92628  -1.748   9.472   5.196  2.2063  0.1980  0.9227
  702MOL0     H92629  -1.969   9.559   5.157 -0.4560  2.0166 -0.9449
  702MOL0     H92630  -2.157   9.699   5.101  1.3035 -0.9252  1.1676
  702MOL0     H92631  -2.053   9.794   5.002 -0.3640  1.0367  0.5881
  702MOL0     H92632  -2.298   9.851   4.989 -1.5411 -0.9695  1.1262
  702MOL0     H92633  -2.188   9.983   5.012 -0.3979 -0.2099 -0.4961
  702MOL0     H92634  -2.251   9.974   5.260 -0.0627  0.0030  0.4516
  702MOL0     H92635  -2.370   9.844   5.242  1.2582 -1.2951  0.6487
  702MOL0     H92636  -2.455  10.101   5.223 -1.7903  0.9714 -1.6969
  702MOL0     H92637  -2.382  10.101   5.069  0.8317 -0.3993 -1.4279
  702MOL0     H92638  -2.551   9.856   5.095 -1.4280 -0.1913  0.3131
  702MOL0     H92639  -2.555   9.992   4.976  0.4669 -0.7936 -0.6114
  702MOL0     H92640  -2.695  10.118   5.172 -1.2588  0.3915  0.9152
  702MOL0     H92641  -2.667   9.958   5.254  1.5736  1.1234 -0.0789
  702MOL0     H92642  -2.815  10.011   4.999  0.9684 -1.5698 -0.2983
  702MOL0     H92643  -2.799   9.853   5.052  2.1648  0.0847  0.3380
  702MOL0     H92644  -3.031   9.971   5.115 -0.4496 -0.7273  0.8784
  702MOL0     H92645  -2.938  10.067   5.219 -0.5628 -1.9883  0.7140
  702MOL0     H92646  -1.853   9.943   5.294 -1.9245  0.3626  0.4904
  702MOL0     H92647  -1.628   9.848   5.351 -0.2447 -0.8395  1.5808
  702MOL0     H92648  -1.329   9.531   5.629  0.0851  0.1265 -0.2899
  702MOL0     H92649  -1.132   9.393   5.620  0.0194  1.8224  0.5814
  702MOL0     H92650   0.947   9.470   5.276  0.7338 -1.2634 -0.5451
  702MOL0     H92651   1.135   9.430   5.133 -0.8519 -1.9296  3.7024
  702MOL0     H92652   1.461   9.513   4.767 -1.7295  0.2260 -1.0434
  702MOL0     H92653   1.633   9.419   4.625  1.0747 -1.3154  2.4242
  702MOL0     H92654   1.547   9.103   4.347 -0.1933  2.5241  0.3613
  702MOL0     H92655   1.578   9.009   4.493 -0.5072  0.7617  0.5281
  702MOL0     H92656   1.751   8.946   4.318 -0.9883 -1.4252  1.4699
  702MOL0     H92657   1.807   9.116   4.326  1.8290  0.7203  2.6421
  702MOL0     H92658   1.801   8.932   4.569  1.6776  0.4684  2.5051
  702MOL0     H92659   1.876   9.092   4.563  2.7837 -0.9057 -0.8133
  702MOL0     H92660   2.010   9.018   4.384 -0.6018 -0.4523  0.0875
  702MOL0     H92661   2.034   8.948   4.553  0.6694 -3.0731  0.0097
  702MOL0     H92662   1.992   8.616   4.286  1.1663 -0.4604 -0.5766
  702MOL0     H92663   1.386   9.075   4.559  1.0723 -0.7856  2.1747
  702MOL0     H92664   1.213   9.156   4.700 -0.4561 -0.6966  1.2698
  703MOL0     O92665   3.127   8.486   6.568 -0.9709 -0.1276  0.3616
  703MOL0     C92666   3.131   8.363   6.574  0.0690  0.1602  0.2372
  703MOL0     O92667   3.030   8.281   6.629  0.8586 -0.9080  0.1286
  703MOL0     C92668   2.922   8.348   6.675  0.7975 -0.3622  0.7168
  703MOL0     C92669   2.922   8.460   6.766  0.1075  0.7534  0.6159
  703MOL0     C92670   2.795   8.503   6.815 -1.0907 -0.6926  0.5115
  703MOL0     C92671   2.671   8.453   6.771  0.1662 -0.0165  0.3117
  703MOL0     O92672   2.557   8.519   6.808  0.0947  0.1258  0.3673
  703MOL0     C92673   2.515   8.477   6.940  0.0713 -0.0594  1.0097
  703MOL0     C92674   2.412   8.372   6.939 -0.5550  0.2479 -0.4628
  703MOL0     C92675   2.290   8.419   6.863  1.0391  0.4434 -0.0142
  703MOL0     C92676   2.194   8.310   6.837 -0.6120 -0.0190  0.3920
  703MOL0     C92677   2.131   8.246   6.957 -0.8598  0.4851 -0.6390
  703MOL0     C92678   2.063   8.362   7.030  0.3239 -0.1489  0.1782
  703MOL0     C92679   1.940   8.323   7.109  0.2447  0.0030 -0.1196
  703MOL0     C92680   1.854   8.446   7.146 -0.6392  0.9045  0.1848
  703MOL0     N92681   1.735   8.426   7.224 -0.0271 -0.4732 -0.1870
  703MOL0     C92682   1.733   8.391   7.364 -0.7644 -0.2808 -0.5570
  703MOL0     C92683   1.603   8.392   7.398 -0.3778 -0.9999  0.3613
  703MOL0     C92684   1.556   8.359   7.530 -0.0086 -0.4724 -0.3795
  703MOL0     C92685   1.427   8.434   7.556 -0.8326  0.5454  1.1678
  703MOL0     C92686   1.357   8.396   7.683  0.4357 -0.2762  0.2686
  703MOL0     C92687   1.295   8.249   7.704 -0.2974  0.2196 -0.1306
  703MOL0     O92688   1.193   8.236   7.799 -0.2593 -0.7672 -0.9169
  703MOL0     C92689   1.132   8.114   7.828 -1.0873 -0.4461  0.1014
  703MOL0     C92690   1.177   7.989   7.776  1.4992  0.2227 -0.3906
  703MOL0     C92691   1.105   7.872   7.820 -0.6684  0.4545 -0.3383
  703MOL0     C92692   1.000   7.869   7.905  0.9323 -0.4239 -0.2146
  703MOL0     C92693   0.930   7.741   7.952 -0.4408  0.2466  0.5930
  703MOL0     O92694   0.804   7.765   8.000 -0.1034  0.1306  0.2121
  703MOL0     C92695   0.714   7.667   8.028 -0.8884 -0.5573 -0.5930
  703MOL0     C92696   0.748   7.551   8.096 -0.9620  0.6274  0.4058
  703MOL0     C92697   0.657   7.459   8.132 -0.0275 -0.3001 -0.0761
  703MOL0     C92698   0.523   7.484   8.113 -0.7250  0.2851  0.0496
  703MOL0     O92699   0.441   7.380   8.138 -0.4308  0.5344 -0.2047
  703MOL0     C92700   0.298   7.393   8.130  0.4655  0.1540  0.4858
  703MOL0     C92701   0.237   7.442   8.259  0.2441  0.0863  0.2363
  703MOL0     C92702   0.081   7.419   8.264 -0.1489 -0.3120  0.1585
  703MOL0     C92703  -0.001   7.497   8.156 -0.1023 -0.2055 -0.7714
  703MOL0     C92704  -0.143   7.460   8.202  0.5375 -0.0558 -0.2292
  703MOL0     C92705  -0.255   7.491   8.110 -0.8180 -0.2248 -0.1067
  703MOL0     C92706  -0.284   7.640   8.086 -0.4155  0.6471  0.0745
  703MOL0     C92707  -0.422   7.669   8.020  0.2279  0.3718 -0.1172
  703MOL0    Cl92708  -0.432   7.853   7.994  0.4580  0.3269  0.5293
  703MOL0     C92709   0.486   7.611   8.054 -0.3896 -0.1498  0.8840
  703MOL0     C92710   0.583   7.694   7.998 -0.5951  0.0980  1.0308
  703MOL0     O92711   0.985   7.626   7.936  0.0446 -0.1906 -0.4884
  703MOL0     C92712   0.951   8.001   7.947 -0.0244  0.4355 -0.5907
  703MOL0     C92713   1.022   8.115   7.908  0.2187  0.4429  0.3267
  703MOL0     N92714   1.531   8.428   7.289  0.0165 -0.5256  0.7654
  703MOL0     N92715   1.610   8.453   7.185 -0.1586 -0.8426  0.3498
  703MOL0     C92716   2.673   8.341   6.687 -0.2242  0.0087 -0.0116
  703MOL0     C92717   2.797   8.286   6.641  0.1776 -0.3956 -0.3551
  703MOL0     C92718   3.260   8.296   6.515  0.4168 -0.2801 -0.2965
  703MOL0     C92719   3.309   8.185   6.570 -0.1363  0.7321 -0.1544
  703MOL0     C92720   3.422   8.116   6.525 -0.3780 -0.1970 -0.2329
  703MOL0     C92721   3.500   8.165   6.424  0.0609  0.5461  0.0630
  703MOL0     O92722   3.599   8.095   6.363 -0.3093 -0.2635 -0.7493
  703MOL0     C92723   3.662   8.137   6.240  0.8643  1.1018  0.9130
  703MOL0     C92724   3.785   8.055   6.206 -0.0645 -0.9458 -0.6160
  703MOL0     C92725   3.743   7.908   6.204 -0.7166 -0.2265  0.6549
  703MOL0     C92726   3.877   7.838   6.219  0.3575 -0.0235 -0.0774
  703MOL0     C92727   3.844   7.690   6.218 -0.6515 -0.0436  0.5843
  703MOL0     C92728   3.825   7.571   6.215 -0.1177  0.1334  0.0620
  703MOL0     C92729   3.455   8.289   6.368  0.2443  0.0680  0.1196
  703MOL0     C92730   3.331   8.350   6.411  0.4350 -0.4411 -0.3260
  703MOL0     H92731   3.014   8.513   6.790  1.8367  0.0977 -3.7975
  703MOL0     H92732   2.780   8.578   6.891 -1.7273 -0.9675  0.6683
  703MOL0     H92733   2.476   8.568   6.987 -0.8941  0.5656 -0.8796
  703MOL0     H92734   2.598   8.443   7.001  2.3330  3.0634 -0.0490
  703MOL0     H92735   2.382   8.339   7.038  0.0044 -1.5189 -0.8442
  703MOL0     H92736   2.447   8.280   6.892 -2.9352 -1.0837  0.1915
  703MOL0     H92737   2.317   8.453   6.762  0.9912 -1.6642 -0.7869
  703MOL0     H92738   2.242   8.496   6.924  0.3930 -1.1865  1.5854
  703MOL0     H92739   2.122   8.348   6.764  2.3812  1.5346 -2.0220
  703MOL0     H92740   2.249   8.226   6.793  1.2190  0.8692  0.8847
  703MOL0     H92741   2.203   8.197   7.024 -1.0359  0.6727 -0.3106
  703MOL0     H92742   2.056   8.176   6.919 -0.8389 -0.0477  0.2736
  703MOL0     H92743   2.041   8.442   6.958  1.7379 -1.9034 -2.4060
  703MOL0     H92744   2.139   8.400   7.099  0.4094  0.8528 -0.4515
  703MOL0     H92745   1.878   8.261   7.044  1.8143  0.2206 -1.9098
  703MOL0     H92746   1.963   8.263   7.197  0.5308  1.5604  0.9075
  703MOL0     H92747   1.835   8.499   7.052  0.6766 -1.3401 -1.4181
  703MOL0     H92748   1.920   8.516   7.197  0.1061  0.7205 -0.5184
  703MOL0     H92749   1.812   8.358   7.430  0.3094 -1.0883 -2.1621
  703MOL0     H92750   1.631   8.369   7.609 -2.2843  0.0049  1.8695
  703MOL0     H92751   1.524   8.255   7.520 -0.7021 -0.0548 -3.2939
  703MOL0     H92752   1.353   8.414   7.478 -0.7022  0.0200  1.1711
  703MOL0     H92753   1.443   8.541   7.543 -1.0695  0.4252 -0.3647
  703MOL0     H92754   1.428   8.417   7.764  0.0754 -2.3058  1.1789
  703MOL0     H92755   1.269   8.462   7.689 -0.8098 -1.6909 -1.4111
  703MOL0     H92756   1.376   8.177   7.717  0.5984  1.4476  1.4634
  703MOL0     H92757   1.253   8.223   7.606 -0.6364  0.8885 -0.1751
  703MOL0     H92758   1.267   7.981   7.716  1.8911 -0.9990  0.3266
  703MOL0     H92759   1.133   7.770   7.796 -1.0347  0.2214  0.2121
  703MOL0     H92760   0.852   7.535   8.124 -0.5818 -0.2670 -1.4322
  703MOL0     H92761   0.683   7.364   8.176  1.5868  0.4115  0.5554
  703MOL0     H92762   0.271   7.288   8.122  3.1429 -0.4825 -1.5997
  703MOL0     H92763   0.259   7.449   8.044 -2.2935 -0.9022  0.9559
  703MOL0     H92764   0.249   7.550   8.274 -0.4095  0.4183 -1.3940
  703MOL0     H92765   0.287   7.390   8.341 -0.9686  1.3320  1.8454
  703MOL0     H92766   0.051   7.455   8.362  0.6691  0.6301  0.0704
  703MOL0     H92767   0.062   7.311   8.268 -0.6627 -0.1866  3.5253
  703MOL0     H92768   0.028   7.602   8.159  3.3739 -1.0786  1.2067
  703MOL0     H92769   0.013   7.457   8.055  1.2257  2.2409 -1.6255
  703MOL0     H92770  -0.171   7.518   8.291  0.1904  3.6717 -2.5587
  703MOL0     H92771  -0.148   7.352   8.220  0.0055 -0.3025 -1.7165
  703MOL0     H92772  -0.347   7.447   8.151 -0.2976 -1.3085 -0.0741
  703MOL0     H92773  -0.235   7.446   8.013 -1.1924  0.4614 -0.5121
  703MOL0     H92774  -0.287   7.688   8.184 -2.3997 -1.1493  0.9670
  703MOL0     H92775  -0.211   7.681   8.016 -0.8688  0.4457 -0.5257
  703MOL0     H92776  -0.503   7.628   8.081  1.5947 -1.7273  0.3797
  703MOL0     H92777  -0.424   7.621   7.922 -0.9093  1.4988 -0.6677
  703MOL0     H92778   0.383   7.643   8.039 -0.1226  0.2579 -0.2029
  703MOL0     H92779   0.563   7.788   7.948  1.1780 -0.2314 -0.4381
  703MOL0     H92780   0.875   8.001   8.024  2.8117  0.1215  2.4343
  703MOL0     H92781   0.987   8.208   7.952 -0.4016  0.2552  0.2409
  703MOL0     H92782   2.579   8.292   6.664 -0.1229 -1.2671  1.9827
  703MOL0     H92783   2.792   8.201   6.573 -0.6695 -0.8204  0.2317
  703MOL0     H92784   3.250   8.139   6.649  0.7599  1.2226  0.8301
  703MOL0     H92785   3.454   8.024   6.573  4.8809  0.9366 -1.0489
  703MOL0     H92786   3.689   8.243   6.245  2.4499  0.8139 -0.4814
  703MOL0     H92787   3.594   8.135   6.155  1.1442 -1.9841  0.6560
  703MOL0     H92788   3.817   8.093   6.108 -1.2766  0.6301 -0.4447
  703MOL0     H92789   3.865   8.074   6.278 -1.5887 -0.4347  0.9951
  703MOL0     H92790   3.688   7.881   6.114  1.0947  1.5879 -1.0883
  703MOL0     H92791   3.669   7.888   6.283 -2.7466  0.1973 -1.0560
  703MOL0     H92792   3.947   7.868   6.140 -1.5055 -0.1996 -1.8893
  703MOL0     H92793   3.917   7.865   6.317  1.5757  0.3910 -0.6624
  703MOL0     H92794   3.804   7.467   6.204 -2.9853  0.6264  0.0019
  703MOL0     H92795   3.487   8.345   6.280 -0.8524  3.2471  1.5626
  703MOL0     H92796   3.289   8.437   6.362 -0.7855 -0.4172  0.7371
  704MOL0     O92797   1.479   0.235   5.502  1.0749  0.6683  0.5417
  704MOL0     C92798   1.491   0.185   5.612  0.1303  0.5355  1.3775
  704MOL0     O92799   1.567   0.228   5.719  0.7500 -0.0282  0.1818
  704MOL0     C92800   1.635   0.346   5.679 -0.7253  0.1153  0.5356
  704MOL0     C92801   1.584   0.476   5.700 -0.5167 -0.1494 -0.1273
  704MOL0     C92802   1.655   0.594   5.672  0.3677  0.4221  0.0216
  704MOL0     C92803   1.785   0.592   5.630 -0.3259  0.0747 -0.4566
  704MOL0     O92804   1.850   0.708   5.602 -0.3742  0.1339 -0.0094
  704MOL0     C92805   1.993   0.720   5.602 -1.2860 -0.1976  0.4229
  704MOL0     C92806   2.041   0.772   5.745  0.5809  0.2763 -0.0211
  704MOL0     C92807   2.178   0.836   5.757  0.0127  0.1157 -0.5258
  704MOL0     C92808   2.290   0.750   5.693 -0.3272 -0.0890  1.0938
  704MOL0     C92809   2.418   0.753   5.784  0.5800  0.8763  0.0118
  704MOL0     C92810   2.465   0.886   5.833  0.8233 -0.5759  0.2926
  704MOL0     C92811   2.486   0.978   5.718  0.2806 -0.2747  0.3660
  704MOL0     C92812   2.568   1.102   5.746 -0.5357  0.6011 -0.5012
  704MOL0     N92813   2.516   1.168   5.871  0.1764  0.3264 -0.1377
  704MOL0     C92814   2.389   1.209   5.881  0.3079 -0.0155  0.0168
  704MOL0     C92815   2.376   1.216   6.016  0.7562  0.0005  0.3879
  704MOL0     C92816   2.248   1.247   6.091  0.3192 -0.6487 -0.4421
  704MOL0     C92817   2.143   1.146   6.068 -0.6465 -0.3914  0.0913
  704MOL0     C92818   2.021   1.175   6.151 -0.4118  0.4088  0.3251
  704MOL0     C92819   1.893   1.109   6.108 -0.5793  0.3071  0.9930
  704MOL0     O92820   1.900   0.971   6.071  0.1088  0.1345 -0.0556
  704MOL0     C92821   1.780   0.900   6.066 -0.2544  0.7999  0.9011
  704MOL0     C92822   1.794   0.763   6.030  0.4730  0.1830  0.6257
  704MOL0     C92823   1.679   0.686   6.020  0.3261  0.2640 -0.7192
  704MOL0     C92824   1.551   0.736   6.056  0.1207  0.2937 -0.5476
  704MOL0     C92825   1.425   0.656   6.059 -0.9770  0.5885 -0.7407
  704MOL0     O92826   1.352   0.670   6.171 -0.0668  0.5416  0.1351
  704MOL0     C92827   1.238   0.594   6.203  0.9467  0.3394  0.0525
  704MOL0     C92828   1.164   0.520   6.107 -0.3840 -0.3664  0.2822
  704MOL0     C92829   1.044   0.461   6.156  0.4351  0.3832  0.2151
  704MOL0     C92830   1.000   0.475   6.288  0.5541  0.9760  0.0871
  704MOL0     O92831   0.885   0.433   6.344  0.3902 -0.2975 -0.1059
  704MOL0     C92832   0.763   0.420   6.260  0.0509 -0.3095 -1.5422
  704MOL0     C92833   0.656   0.364   6.348  0.2900  0.2993 -0.3129
  704MOL0     C92834   0.536   0.332   6.263  0.1438 -0.7068  0.9599
  704MOL0     C92835   0.444   0.231   6.331  0.4654  0.4904  0.4475
  704MOL0     C92836   0.340   0.151   6.247  0.5013 -0.8118  0.5039
  704MOL0     C92837   0.270   0.055   6.351 -0.1112  0.0679 -0.3937
  704MOL0     C92838   0.173  -0.042   6.264  0.6569 -0.7076 -0.1933
  704MOL0     C92839   0.119  -0.165   6.349  0.7530 -0.4115 -0.5823
  704MOL0    Cl92840  -0.011  -0.252   6.260  0.3791 -0.2020 -0.0056
  704MOL0     C92841   1.084   0.542   6.382  0.0632 -0.1295 -0.0286
  704MOL0     C92842   1.193   0.607   6.338 -0.0973 -1.2700 -0.1055
  704MOL0     O92843   1.411   0.577   5.965 -0.2299  0.0028  0.5745
  704MOL0     C92844   1.535   0.870   6.091  0.0852  0.5931  0.3728
  704MOL0     C92845   1.646   0.949   6.098 -0.7861  0.4867  0.3037
  704MOL0     N92846   2.502   1.214   6.070  0.1257  0.3140 -0.3121
  704MOL0     N92847   2.585   1.187   5.984  0.0662  0.2640  0.0562
  704MOL0     C92848   1.845   0.464   5.616 -0.8345 -0.7682  0.3942
  704MOL0     C92849   1.768   0.338   5.632 -0.0542  0.6151  0.3625
  704MOL0     C92850   1.424   0.055   5.631 -0.0413  0.0376 -0.8773
  704MOL0     C92851   1.470  -0.037   5.731  0.1874  0.7478 -0.0687
  704MOL0     C92852   1.402  -0.155   5.756  0.0014 -0.5338 -0.6626
  704MOL0     C92853   1.294  -0.198   5.684 -0.1128  0.7275  0.8455
  704MOL0     O92854   1.229  -0.316   5.677  0.0927  0.1120 -0.1482
  704MOL0     C92855   1.263  -0.407   5.782 -0.1677  0.5503 -0.4307
  704MOL0     C92856   1.169  -0.524   5.796  0.6528 -1.1355 -0.9022
  704MOL0     C92857   1.018  -0.496   5.796 -0.0812  0.4588  0.0882
  704MOL0     C92858   0.959  -0.637   5.788 -0.3252  0.5580 -0.7121
  704MOL0     C92859   0.817  -0.632   5.797 -0.6720 -0.0182 -1.1404
  704MOL0     C92860   0.698  -0.634   5.806 -0.0377  0.1964 -0.6893
  704MOL0     C92861   1.253  -0.109   5.582  0.7008  0.1572 -0.0567
  704MOL0     C92862   1.311   0.023   5.560  0.1681 -0.5694 -0.7020
  704MOL0     H92863   1.484   0.474   5.741  0.1447  1.1062  1.6866
  704MOL0     H92864   1.607   0.691   5.684  0.9640  0.8052 -0.6098
  704MOL0     H92865   2.025   0.791   5.526  0.2620  0.3250  1.5183
  704MOL0     H92866   2.047   0.627   5.583 -0.0835 -0.0600  2.8034
  704MOL0     H92867   2.034   0.681   5.806 -1.4653 -1.0299 -2.0399
  704MOL0     H92868   1.968   0.842   5.786 -0.8052 -1.6274  0.9131
  704MOL0     H92869   2.184   0.845   5.866  1.5307 -0.6841 -0.5295
  704MOL0     H92870   2.164   0.936   5.715 -1.5764 -0.2724 -0.9900
  704MOL0     H92871   2.256   0.646   5.692  0.8122 -0.4688  0.8643
  704MOL0     H92872   2.316   0.780   5.592 -1.1922  1.0543  1.1926
  704MOL0     H92873   2.505   0.697   5.748  0.8122 -0.1177  1.9870
  704MOL0     H92874   2.391   0.693   5.871  1.2460 -0.8286 -0.8904
  704MOL0     H92875   2.566   0.882   5.875  0.6033  1.2771  1.1056
  704MOL0     H92876   2.403   0.930   5.911  1.2143  1.2141 -0.3579
  704MOL0     H92877   2.524   0.919   5.634  0.5946  0.9664 -0.3941
  704MOL0     H92878   2.386   1.009   5.687  0.9304  1.8550  0.2741
  704MOL0     H92879   2.556   1.174   5.664 -1.4717  1.4201  0.3235
  704MOL0     H92880   2.675   1.079   5.754 -0.5621  0.1462 -1.3761
  704MOL0     H92881   2.309   1.210   5.807 -1.2822  0.7942  1.6607
  704MOL0     H92882   2.209   1.344   6.061  0.4818 -1.1459 -2.3878
  704MOL0     H92883   2.261   1.251   6.199  1.1169 -2.5601 -0.4184
  704MOL0     H92884   2.181   1.049   6.103 -1.3114  0.1259  2.4740
  704MOL0     H92885   2.105   1.123   5.968  0.6990 -2.4213 -0.0059
  704MOL0     H92886   2.025   1.149   6.257 -2.9474  2.5256  1.0647
  704MOL0     H92887   1.988   1.279   6.141 -7.2844 -1.4068 -0.9520
  704MOL0     H92888   1.850   1.164   6.024 -0.8374  0.6568  1.3553
  704MOL0     H92889   1.823   1.116   6.191 -1.5970 -2.9957  0.5718
  704MOL0     H92890   1.891   0.722   6.005  1.7166  1.0868  3.4907
  704MOL0     H92891   1.687   0.586   5.980 -3.3881 -0.7204  0.6091
  704MOL0     H92892   1.192   0.521   6.002  0.6157 -1.6241  0.5157
  704MOL0     H92893   0.972   0.418   6.087  0.9859  1.9979 -1.4521
  704MOL0     H92894   0.768   0.346   6.180 -1.1941 -3.0839  0.7875
  704MOL0     H92895   0.728   0.521   6.236 -1.6483  0.3305  2.7702
  704MOL0     H92896   0.623   0.428   6.431  1.0597 -1.3850  1.3737
  704MOL0     H92897   0.694   0.271   6.391 -3.1918 -0.2634  1.9989
  704MOL0     H92898   0.568   0.298   6.164 -0.2259  1.5524 -0.0009
  704MOL0     H92899   0.486   0.427   6.240  0.2666 -0.6340  0.9953
  704MOL0     H92900   0.513   0.161   6.379 -0.1132  0.3700  1.1251
  704MOL0     H92901   0.419   0.274   6.428  2.0626 -1.0965  1.6359
  704MOL0     H92902   0.395   0.093   6.172  1.8608  2.4103 -1.1650
  704MOL0     H92903   0.268   0.213   6.193  1.1950 -0.5521 -0.1365
  704MOL0     H92904   0.220   0.109   6.431 -0.4225  0.4983 -0.8712
  704MOL0     H92905   0.336  -0.014   6.404 -0.3285  0.5913  0.5707
  704MOL0     H92906   0.091   0.022   6.229  1.2841  1.0300  1.3647
  704MOL0     H92907   0.226  -0.087   6.180 -0.1995 -0.5711 -0.8222
  704MOL0     H92908   0.080  -0.120   6.441  2.4897 -1.2322  0.6220
  704MOL0     H92909   0.198  -0.238   6.367  0.5122 -0.9429 -1.5862
  704MOL0     H92910   1.058   0.551   6.487 -0.1847 -0.2335 -0.0785
  704MOL0     H92911   1.239   0.682   6.402  0.6798 -0.6930 -1.2983
  704MOL0     H92912   1.444   0.925   6.113  1.1329  2.6213 -0.1928
  704MOL0     H92913   1.633   1.056   6.109 -1.7838  0.3036  0.9418
  704MOL0     H92914   1.947   0.448   5.584 -1.2313 -4.1524  0.5063
  704MOL0     H92915   1.811   0.239   5.619 -0.5477  0.1885  1.7604
  704MOL0     H92916   1.550  -0.001   5.795  3.6534 -3.8036 -1.3246
  704MOL0     H92917   1.446  -0.214   5.836  0.3610 -1.9459 -1.8549
  704MOL0     H92918   1.265  -0.356   5.879 -1.1156  1.1551 -0.7145
  704MOL0     H92919   1.361  -0.447   5.754 -0.1850  0.6837 -0.6880
  704MOL0     H92920   1.188  -0.591   5.711  1.2529 -0.7817 -1.0610
  704MOL0     H92921   1.206  -0.575   5.886  1.6292  3.5439  1.6599
  704MOL0     H92922   1.001  -0.445   5.700  1.4791  0.9673  0.0573
  704MOL0     H92923   0.976  -0.439   5.880  1.1352 -0.8639  1.6572
  704MOL0     H92924   0.977  -0.672   5.686  0.3150  0.1425 -0.4616
  704MOL0     H92925   0.999  -0.701   5.867 -3.1573 -2.0951 -1.2293
  704MOL0     H92926   0.591  -0.622   5.799 -0.4495 -1.4724  1.5912
  704MOL0     H92927   1.177  -0.131   5.507  1.4746  0.0779 -0.8404
  704MOL0     H92928   1.268   0.093   5.489 -0.4741  2.0031  2.0508
  705MOL0     O92929   6.508  10.128   6.366 -0.3775  0.2677 -0.6643
  705MOL0     C92930   6.547  10.117   6.247  0.8252 -0.4276 -0.3770
  705MOL0     O92931   6.457  10.113   6.142  0.1532  0.3088  0.1578
  705MOL0     C92932   6.322  10.102   6.171  0.0859 -0.4903  0.3066
  705MOL0     C92933   6.237  10.197   6.108 -0.1863 -0.1547  0.4953
  705MOL0     C92934   6.097  10.196   6.124 -0.5291  0.5174 -0.0727
  705MOL0     C92935   6.042  10.098   6.204  0.0125 -0.0210  0.2557
  705MOL0     O92936   5.911  10.075   6.234 -0.3950 -0.4371  0.7383
  705MOL0     C92937   5.819  10.156   6.156 -0.3223 -0.6200 -0.4954
  705MOL0     C92938   5.689  10.096   6.172 -0.0346 -0.4454 -0.0479
  705MOL0     C92939   5.638  10.096   6.316 -0.0718  0.6676 -1.1718
  705MOL0     C92940   5.493  10.033   6.325 -0.6243  0.4800  0.4248
  705MOL0     C92941   5.430  10.078   6.454 -0.0642  0.4265  0.3132
  705MOL0     C92942   5.290  10.009   6.482  0.2799 -0.3725  0.0322
  705MOL0     C92943   5.258   9.977   6.627 -0.3680 -0.5089  0.3030
  705MOL0     C92944   5.126   9.901   6.630  0.3691 -0.3708 -0.4371
  705MOL0     N92945   5.003   9.961   6.581 -0.6507 -1.1165  0.4083
  705MOL0     C92946   4.930  10.062   6.636 -0.2737 -0.2250  0.0125
  705MOL0     C92947   4.828  10.091   6.548 -0.5991 -0.1427  0.3383
  705MOL0     C92948   4.724  10.200   6.558 -0.2738 -0.1104  0.7226
  705MOL0     C92949   4.586  10.147   6.594  0.2662 -0.2670 -0.4655
  705MOL0     C92950   4.507  10.270   6.630 -0.5935 -0.3938 -0.1017
  705MOL0     C92951   4.366  10.236   6.622  0.5381 -0.1915  0.1782
  705MOL0     O92952   4.297  10.347   6.680 -0.1131 -0.1819 -0.0852
  705MOL0     C92953   4.163  10.352   6.650  0.1293 -0.5359 -0.1537
  705MOL0     C92954   4.107  10.480   6.656  0.0755 -0.4018  0.3370
  705MOL0     C92955   3.972  10.494   6.613  0.5400 -0.4172 -0.7755
  705MOL0     C92956   3.896  10.387   6.568  0.7268  0.3828 -0.5440
  705MOL0     C92957   3.756  10.408   6.520  0.2882  0.1843 -0.4258
  705MOL0     O92958   3.674  10.300   6.503  0.4617 -0.5474  0.5005
  705MOL0     C92959   3.544  10.325   6.477  0.8596  0.4420 -0.1240
  705MOL0     C92960   3.508  10.289   6.348 -1.7500  0.0562 -0.5555
  705MOL0     C92961   3.376  10.294   6.316  0.5068 -0.5211 -0.2770
  705MOL0     C92962   3.276  10.335   6.409  0.7680  0.4401  0.0154
  705MOL0     O92963   3.145  10.314   6.371 -0.0751  0.3437 -0.9605
  705MOL0     C92964   3.049  10.392   6.448 -0.9030  0.1701 -0.4321
  705MOL0     C92965   2.909  10.366   6.387 -0.1613 -0.7145 -0.2514
  705MOL0     C92966   2.797  10.445   6.449 -0.1969 -0.6467  0.3762
  705MOL0     C92967   2.675  10.475   6.358  0.8614  0.1437 -0.6535
  705MOL0     C92968   2.592  10.564   6.455 -0.6874 -0.3745  0.7203
  705MOL0     C92969   2.458  10.594   6.397 -0.1345 -0.6505  0.0162
  705MOL0     C92970   2.340  10.504   6.446  0.7871  0.4912 -0.6314
  705MOL0     C92971   2.326  10.498   6.597 -0.4410  0.4009 -0.2548
  705MOL0    Cl92972   2.169  10.462   6.663  0.3012  0.2949  0.4894
  705MOL0     C92973   3.316  10.380   6.535 -0.4974 -0.0649 -0.3726
  705MOL0     C92974   3.453  10.378   6.570  1.0665  0.5866  0.0458
  705MOL0     O92975   3.730  10.523   6.491 -0.0722  0.3581  0.6404
  705MOL0     C92976   3.952  10.265   6.571  0.0410 -0.5554  0.0804
  705MOL0     C92977   4.082  10.244   6.607 -0.2801 -0.3777  0.3253
  705MOL0     N92978   4.850  10.013   6.437 -0.4130  0.4042 -0.1607
  705MOL0     N92979   4.941   9.924   6.463  0.2051 -0.2001 -0.1365
  705MOL0     C92980   6.128  10.001   6.267  0.3487 -1.0743  0.0711
  705MOL0     C92981   6.264  10.010   6.254  0.3236 -0.5291  0.1329
  705MOL0     C92982   6.692  10.134   6.212  0.2774 -0.1512  0.0944
  705MOL0     C92983   6.782  10.137   6.313 -0.5173 -0.5570 -0.1275
  705MOL0     C92984   6.917  10.144   6.298 -0.3354  0.4673  0.1159
  705MOL0     C92985   6.969  10.157   6.169 -0.4423 -0.2036 -0.1326
  705MOL0     O92986   7.100  10.154   6.135  0.2104  0.2046 -0.4299
  705MOL0     C92987   7.209  10.150   6.238  0.8192  0.1699 -0.2956
  705MOL0     C92988   7.334  10.168   6.149  0.1755 -0.2970 -0.3776
  705MOL0     C92989   7.459  10.098   6.217 -0.4320  0.4459  0.1546
  705MOL0     C92990   7.581  10.102   6.122 -0.0308  0.4592  0.0080
  705MOL0     C92991   7.704  10.082   6.204  0.5420 -0.0139  0.4567
  705MOL0     C92992   7.794  10.066   6.277 -0.8523 -0.8760 -0.2086
  705MOL0     C92993   6.880  10.159   6.063  0.0552  0.0878  0.6593
  705MOL0     C92994   6.744  10.139   6.087  0.6758 -0.0313 -0.2614
  705MOL0     H92995   6.278  10.277   6.047 -1.2500  0.3725  0.4459
  705MOL0     H92996   6.044  10.273   6.069  1.1900  2.8576  1.3218
  705MOL0     H92997   5.849  10.157   6.051  0.4915  2.3659 -0.3294
  705MOL0     H92998   5.816  10.259   6.193 -1.5071 -0.6336 -0.5127
  705MOL0     H92999   5.701   9.991   6.144  0.4793 -0.1145 -1.0998
  705MOL0     H93000   5.617  10.148   6.108 -1.8123 -1.5917  0.9534
  705MOL0     H93001   5.659  10.194   6.361  0.7135  1.3168 -2.8600
  705MOL0     H93002   5.693  10.026   6.379 -1.5267  0.6587  0.1413
  705MOL0     H93003   5.428  10.061   6.242  0.9801  0.9771 -0.7245
  705MOL0     H93004   5.506   9.925   6.325  0.4996  0.5704 -1.4945
  705MOL0     H93005   5.427  10.187   6.465 -1.6219  0.3079  1.4573
  705MOL0     H93006   5.498  10.043   6.532 -1.2614 -2.6467  0.1005
  705MOL0     H93007   5.293   9.913   6.429 -0.2953 -2.4434  3.4457
  705MOL0     H93008   5.208  10.070   6.444 -1.5588 -2.7841 -0.1191
  705MOL0     H93009   5.334   9.908   6.665  0.3652  0.0838 -0.0537
  705MOL0     H93010   5.260  10.070   6.683  1.4178  0.3729 -1.1169
  705MOL0     H93011   5.097   9.863   6.728 -1.6490 -1.8114 -1.5076
  705MOL0     H93012   5.130   9.815   6.563 -3.1059  1.6479 -3.6466
  705MOL0     H93013   4.948  10.104   6.735 -0.7375 -0.0581  0.0314
  705MOL0     H93014   4.725  10.266   6.471  1.7068 -1.0191  0.0174
  705MOL0     H93015   4.757  10.261   6.642 -0.3730 -0.5755  1.1075
  705MOL0     H93016   4.590  10.075   6.677 -0.0127  1.1996  0.8581
  705MOL0     H93017   4.547  10.093   6.508  1.3314 -1.2522 -0.3651
  705MOL0     H93018   4.538  10.292   6.732 -2.0886 -0.1986  0.3388
  705MOL0     H93019   4.534  10.355   6.566  1.2688 -1.9990 -1.5716
  705MOL0     H93020   4.359  10.150   6.689 -0.8364 -0.7934 -0.6939
  705MOL0     H93021   4.331  10.212   6.522  2.0526 -0.9629 -0.1906
  705MOL0     H93022   4.172  10.561   6.687 -0.0334 -0.0976 -0.2096
  705MOL0     H93023   3.943  10.599   6.618  2.7505  0.1976  2.2514
  705MOL0     H93024   3.578  10.240   6.281  0.3457  1.5056  0.4467
  705MOL0     H93025   3.339  10.249   6.225  0.9400  3.0161 -2.3962
  705MOL0     H93026   3.093  10.492   6.453 -1.2103  0.3260 -0.7708
  705MOL0     H93027   3.047  10.350   6.549  1.2551 -0.0098 -0.4190
  705MOL0     H93028   2.893  10.258   6.387 -0.6965 -0.6504 -1.6192
  705MOL0     H93029   2.922  10.406   6.286  1.1524 -0.5640 -0.0430
  705MOL0     H93030   2.829  10.544   6.485 -1.7102 -0.3786  1.0805
  705MOL0     H93031   2.761  10.388   6.535 -1.6173  0.7353  0.7508
  705MOL0     H93032   2.708  10.505   6.259  1.7557 -0.1957 -0.4686
  705MOL0     H93033   2.626  10.379   6.337  0.2364  0.5572 -1.1085
  705MOL0     H93034   2.646  10.658   6.463 -1.3083 -0.1167  2.1037
  705MOL0     H93035   2.591  10.517   6.554 -0.3159  0.3921  1.0907
  705MOL0     H93036   2.466  10.592   6.288  2.0495 -0.4232  0.1396
  705MOL0     H93037   2.436  10.698   6.423 -2.4493 -0.8491 -0.8729
  705MOL0     H93038   2.239  10.523   6.410  0.1928 -1.1297  0.1033
  705MOL0     H93039   2.361  10.402   6.413 -2.6223 -1.5868  2.8081
  705MOL0     H93040   2.359  10.596   6.632  1.8186 -0.0517 -0.9353
  705MOL0     H93041   2.401  10.425   6.629  0.2811  2.0916  2.1503
  705MOL0     H93042   3.237  10.408   6.604  2.1293  1.3793  2.3229
  705MOL0     H93043   3.488  10.423   6.662  2.8188 -2.1142  0.8320
  705MOL0     H93044   3.893  10.181   6.536  1.3554 -0.3085 -3.0703
  705MOL0     H93045   4.121  10.142   6.606 -1.3295 -0.8730  2.3373
  705MOL0     H93046   6.088   9.916   6.322 -0.7964  1.1081  2.8155
  705MOL0     H93047   6.323   9.932   6.303 -1.1918 -1.5689  0.3864
  705MOL0     H93048   6.745  10.139   6.415 -0.9823  1.2043 -0.2992
  705MOL0     H93049   6.976  10.142   6.389  1.8158  2.1045 -1.1437
  705MOL0     H93050   7.210  10.063   6.305 -0.3717  2.9089  3.6843
  705MOL0     H93051   7.193  10.239   6.300 -1.0615 -0.1239 -0.3002
  705MOL0     H93052   7.322  10.126   6.049  0.0772  1.1868 -1.0197
  705MOL0     H93053   7.350  10.275   6.135  0.3829 -0.2780 -0.0082
  705MOL0     H93054   7.432   9.994   6.237  1.3324 -0.6058 -2.3778
  705MOL0     H93055   7.483  10.158   6.306 -1.8875  2.0301 -0.4604
  705MOL0     H93056   7.588  10.019   6.051  0.1567 -0.9978  1.6321
  705MOL0     H93057   7.590  10.194   6.065  3.4184 -1.3675 -2.7734
  705MOL0     H93058   7.868  10.054   6.354 -0.7240 -0.0905 -0.2005
  705MOL0     H93059   6.913  10.164   5.959  1.8721 -2.5076  1.0279
  705MOL0     H93060   6.673  10.127   6.006 -2.8769 -1.6006  2.7985
  706MOL0     O93061   8.290   4.845   1.259  0.2602  0.2902 -0.6445
  706MOL0     C93062   8.294   4.958   1.215  1.0842  0.2258 -0.4271
  706MOL0     O93063   8.187   5.010   1.146 -0.0061  0.0038 -0.2601
  706MOL0     C93064   8.072   4.930   1.127 -0.1403 -0.3045 -0.0900
  706MOL0     C93065   8.076   4.805   1.064 -0.4663  0.5850 -0.0134
  706MOL0     C93066   7.956   4.730   1.038  0.2872  0.8554  0.6893
  706MOL0     C93067   7.834   4.785   1.074  0.1879  0.7772 -0.0450
  706MOL0     O93068   7.719   4.708   1.053 -0.5182 -0.0817 -0.4593
  706MOL0     C93069   7.592   4.768   1.074 -0.5318 -0.6126  0.3905
  706MOL0     C93070   7.483   4.660   1.070 -0.1885  0.0808  1.0872
  706MOL0     C93071   7.399   4.673   0.941 -0.1524 -0.3791  0.4376
  706MOL0     C93072   7.292   4.569   0.943 -0.2607 -0.6260  0.3753
  706MOL0     C93073   7.214   4.590   0.816 -0.7680  0.1541 -0.8147
  706MOL0     C93074   7.094   4.497   0.825 -0.3827 -0.5641 -0.0605
  706MOL0     C93075   7.128   4.366   0.757 -0.3360  0.2873 -0.5045
  706MOL0     C93076   7.028   4.254   0.750 -0.1822  0.4550  0.2925
  706MOL0     N93077   6.920   4.291   0.663 -1.1006  0.0583 -0.2522
  706MOL0     C93078   6.934   4.301   0.528  0.8695  0.0978 -0.5954
  706MOL0     C93079   6.808   4.319   0.487  0.1158 -0.6656 -0.4823
  706MOL0     C93080   6.760   4.353   0.346 -0.4496 -0.1388  0.3434
  706MOL0     C93081   6.624   4.294   0.308 -0.2871 -0.0495  0.2055
  706MOL0     C93082   6.581   4.335   0.167 -0.6861  0.1448 -0.1866
  706MOL0     C93083   6.507   4.478   0.167  0.4303 -0.1414 -0.0241
  706MOL0     O93084   6.365   4.464   0.206 -0.1305 -0.9320  0.8101
  706MOL0     C93085   6.269   4.558   0.164 -0.7881 -0.7470  0.2702
  706MOL0     C93086   6.311   4.671   0.088  0.4692  0.2892  0.0816
  706MOL0     C93087   6.209   4.770   0.060 -0.2934  0.8046  0.5400
  706MOL0     C93088   6.077   4.748   0.092  0.3594 -0.5619  0.2063
  706MOL0     C93089   5.978   4.851   0.055 -0.3899  0.0976 -0.2433
  706MOL0     O93090   6.030   4.976   0.017  0.2131  0.1571 -0.3478
  706MOL0     C93091   5.941   5.070  -0.020  0.6643 -0.7622  0.1191
  706MOL0     C93092   5.962   5.151  -0.131 -0.0964 -0.6065  0.6778
  706MOL0     C93093   5.877   5.253  -0.159  0.1384  0.2538  0.2337
  706MOL0     C93094   5.783   5.302  -0.074  0.0954 -0.3727  0.2461
  706MOL0     O93095   5.713   5.405  -0.124 -0.2228  0.2553  0.1809
  706MOL0     C93096   5.598   5.444  -0.038 -0.4318  0.4886 -0.4403
  706MOL0     C93097   5.574   5.587  -0.069 -0.0725  1.0716 -0.1296
  706MOL0     C93098   5.466   5.630   0.023  0.1493  0.1562 -0.3850
  706MOL0     C93099   5.429   5.776  -0.019  0.4229  0.1491  0.1440
  706MOL0     C93100   5.311   5.825   0.061  0.6127 -0.7539 -0.8982
  706MOL0     C93101   5.269   5.964   0.010 -0.0277  1.0658 -0.6203
  706MOL0     C93102   5.138   6.006   0.080  0.0664  0.1166  0.3118
  706MOL0     C93103   5.093   6.138   0.028  0.2929  0.1878  0.5388
  706MOL0    Cl93104   5.021   6.119  -0.129  0.1241  0.3282  0.3887
  706MOL0     C93105   5.763   5.225   0.043 -0.0371  0.0032  0.0019
  706MOL0     C93106   5.842   5.114   0.075 -0.1011 -0.3497 -0.4470
  706MOL0     O93107   5.863   4.820   0.051  0.4391 -0.2076  0.3701
  706MOL0     C93108   6.043   4.622   0.148  0.2348  0.0124 -0.2709
  706MOL0     C93109   6.141   4.531   0.186 -0.0905 -0.1040 -0.4685
  706MOL0     N93110   6.724   4.319   0.595  0.3849  0.2593  0.4907
  706MOL0     N93111   6.793   4.301   0.702  0.3507 -0.4250  0.0869
  706MOL0     C93112   7.834   4.914   1.124  0.5941  0.2312 -0.4856
  706MOL0     C93113   7.947   4.981   1.154 -0.1608 -0.2401  0.2497
  706MOL0     C93114   8.404   5.048   1.253  0.4225  0.5522 -0.4348
  706MOL0     C93115   8.438   5.165   1.178  0.1453 -0.3767 -0.8609
  706MOL0     C93116   8.546   5.244   1.219 -0.7434  0.3253 -0.3589
  706MOL0     C93117   8.633   5.208   1.334 -0.2470  0.3532  0.7010
  706MOL0     O93118   8.739   5.281   1.380 -0.4750  0.5259  0.5726
  706MOL0     C93119   8.779   5.396   1.306 -0.0427  0.5639 -0.0297
  706MOL0     C93120   8.912   5.443   1.354  0.3170  0.4216  0.5126
  706MOL0     C93121   8.943   5.586   1.305  0.1047 -0.6726 -0.0216
  706MOL0     C93122   8.937   5.691   1.419  0.1966  0.6953 -0.5604
  706MOL0     C93123   8.795   5.696   1.463 -0.2511 -0.0852  0.0117
  706MOL0     C93124   8.692   5.709   1.524  0.2822  0.3836  1.1531
  706MOL0     C93125   8.591   5.090   1.400  0.1733  0.1080  0.5072
  706MOL0     C93126   8.482   5.013   1.369 -0.7976 -0.4847  0.1297
  706MOL0     H93127   8.175   4.766   1.043  0.7069  2.5435  1.4825
  706MOL0     H93128   7.973   4.642   0.977  1.3871  0.7294  1.1536
  706MOL0     H93129   7.593   4.833   0.986  0.1113  1.2389  1.6898
  706MOL0     H93130   7.575   4.816   1.171 -1.0692 -1.3491  0.6708
  706MOL0     H93131   7.421   4.681   1.158  0.5543  0.4066  1.5477
  706MOL0     H93132   7.533   4.563   1.080  0.3151 -0.4736 -4.0571
  706MOL0     H93133   7.472   4.677   0.859 -0.1445 -2.7221  0.2901
  706MOL0     H93134   7.339   4.764   0.950  0.5386 -0.0963  3.1024
  706MOL0     H93135   7.339   4.471   0.934  1.3894  0.0627  1.0773
  706MOL0     H93136   7.232   4.575   1.034 -1.1930  1.4641 -0.3045
  706MOL0     H93137   7.272   4.562   0.727 -1.1017 -3.2111 -0.1121
  706MOL0     H93138   7.178   4.693   0.804 -0.9780  0.1536 -0.2169
  706MOL0     H93139   7.017   4.535   0.757  2.8522  0.6161 -3.4072
  706MOL0     H93140   7.059   4.481   0.927 -0.1341 -0.1672  0.0856
  706MOL0     H93141   7.156   4.395   0.656 -2.9200  1.4615 -0.9668
  706MOL0     H93142   7.213   4.315   0.802 -1.9291  0.2064  2.7156
  706MOL0     H93143   6.995   4.229   0.852  0.2075 -1.2286  0.0323
  706MOL0     H93144   7.070   4.158   0.719 -1.4164 -0.9998  2.7324
  706MOL0     H93145   7.025   4.306   0.469 -0.1568 -1.5617 -2.4265
  706MOL0     H93146   6.846   4.322   0.286 -0.1727  0.9808  0.1299
  706MOL0     H93147   6.762   4.462   0.334 -0.7954 -0.2240 -0.5959
  706MOL0     H93148   6.537   4.325   0.368  0.7937  1.9929  0.8130
  706MOL0     H93149   6.633   4.185   0.307 -4.0528 -0.5385  1.5961
  706MOL0     H93150   6.663   4.331   0.095 -2.4799 -2.7738 -2.3253
  706MOL0     H93151   6.513   4.257   0.130  1.0648 -2.8016  2.3118
  706MOL0     H93152   6.514   4.510   0.063 -1.0102 -0.1062 -0.1303
  706MOL0     H93153   6.555   4.559   0.223 -1.3552  1.6470 -0.9656
  706MOL0     H93154   6.414   4.691   0.058 -0.3891 -0.1918 -3.6025
  706MOL0     H93155   6.241   4.866   0.018  2.1766 -0.3277 -0.3575
  706MOL0     H93156   6.039   5.111  -0.196  0.4651  3.1855 -1.2600
  706MOL0     H93157   5.903   5.309  -0.248 -0.5062 -0.3679 -0.3658
  706MOL0     H93158   5.615   5.441   0.070 -0.4825 -0.4708 -0.4538
  706MOL0     H93159   5.506   5.394  -0.068 -0.9157  1.6750 -1.0026
  706MOL0     H93160   5.551   5.595  -0.176  2.4604 -1.5124 -1.0059
  706MOL0     H93161   5.663   5.642  -0.038  0.1187  1.2682 -0.9973
  706MOL0     H93162   5.503   5.632   0.126  1.6591  1.4269 -0.9111
  706MOL0     H93163   5.388   5.553   0.030  1.0628 -0.7673 -0.1615
  706MOL0     H93164   5.517   5.829   0.018  0.4430 -0.8637  1.6747
  706MOL0     H93165   5.414   5.788  -0.126 -1.4007 -2.2646  0.0306
  706MOL0     H93166   5.338   5.824   0.166  2.5196  0.7278 -1.3171
  706MOL0     H93167   5.231   5.753   0.040  1.4477 -1.6859 -0.9752
  706MOL0     H93168   5.242   5.961  -0.096  0.5262  0.9535 -0.7614
  706MOL0     H93169   5.358   6.027   0.018  0.3423  0.9373 -3.0874
  706MOL0     H93170   5.058   5.932   0.066  1.0397 -1.3797  2.2084
  706MOL0     H93171   5.160   6.015   0.187  1.4319 -1.9464  0.2651
  706MOL0     H93172   5.188   6.193   0.031  0.0516  0.5584  1.5757
  706MOL0     H93173   5.023   6.183   0.098 -1.7256 -1.7678 -0.1136
  706MOL0     H93174   5.681   5.243   0.112 -0.6255 -0.1481 -0.6413
  706MOL0     H93175   5.826   5.054   0.164  1.0716  0.6572  0.4854
  706MOL0     H93176   5.946   4.608   0.195  0.5935 -0.7583  0.2738
  706MOL0     H93177   6.113   4.447   0.249  0.4969  1.6198  2.2581
  706MOL0     H93178   7.734   4.954   1.138 -1.0013 -3.0356 -1.6086
  706MOL0     H93179   7.946   5.077   1.205  1.4514 -0.4907  0.8078
  706MOL0     H93180   8.380   5.189   1.090  1.1258  1.2074 -1.1261
  706MOL0     H93181   8.572   5.335   1.165 -1.4628  0.9354  0.3030
  706MOL0     H93182   8.704   5.476   1.306 -3.2434 -2.1988 -1.9013
  706MOL0     H93183   8.794   5.365   1.202  4.1683 -1.2297  0.9196
  706MOL0     H93184   8.913   5.439   1.463 -1.0229  3.6202  0.7240
  706MOL0     H93185   8.990   5.377   1.314  0.3038  0.6189  0.1570
  706MOL0     H93186   8.876   5.616   1.224 -0.2658 -0.3373  0.4057
  706MOL0     H93187   9.050   5.574   1.288  0.0871 -2.8816  1.1316
  706MOL0     H93188   9.007   5.665   1.499 -0.3962 -1.5126 -0.6999
  706MOL0     H93189   8.962   5.792   1.385 -1.4961  0.9709 -1.1092
  706MOL0     H93190   8.600   5.696   1.577 -0.0662 -2.0372  0.0784
  706MOL0     H93191   8.640   5.059   1.492  1.6116 -0.4316 -0.3965
  706MOL0     H93192   8.455   4.930   1.433 -0.2896 -0.9701 -0.2705
  707MOL0     O93193   1.112   5.470   9.510  0.0367  0.0636  0.3188
  707MOL0     C93194   1.186   5.496   9.600 -0.6783  0.1465 -1.1714
  707MOL0     O93195   1.142   5.564   9.710  0.0876 -0.3162  0.4775
  707MOL0     C93196   1.013   5.581   9.741  0.4524 -0.2159 -0.8526
  707MOL0     C93197   0.926   5.472   9.742 -0.3184 -0.2725  0.9005
  707MOL0     C93198   0.789   5.494   9.762  0.2575 -0.3690  0.3350
  707MOL0     C93199   0.733   5.616   9.797 -0.6312  1.0497  0.5222
  707MOL0     O93200   0.600   5.640   9.815 -0.7146  0.2883 -0.1517
  707MOL0     C93201   0.533   5.536   9.901  1.4239 -0.0982  0.0990
  707MOL0     C93202   0.400   5.595   9.932 -0.2059 -0.5218 -0.3969
  707MOL0     C93203   0.332   5.515  10.040  0.2627 -0.1321  0.5844
  707MOL0     C93204   0.178   5.529  10.043 -1.0893 -0.4312  0.8685
  707MOL0     C93205   0.119   5.424  10.132 -0.2007 -0.9725  0.3156
  707MOL0     C93206  -0.033   5.422  10.108 -0.4498 -0.2409  0.3164
  707MOL0     C93207  -0.093   5.313  10.201 -0.2412  0.2358 -0.1636
  707MOL0     C93208  -0.242   5.284  10.174  0.0985 -0.3562 -0.6278
  707MOL0     N93209  -0.305   5.217  10.292  0.0216 -0.0677  0.0910
  707MOL0     C93210  -0.391   5.275  10.369  0.8034  0.0428  0.3304
  707MOL0     C93211  -0.402   5.191  10.472 -0.0020 -1.0113 -0.0398
  707MOL0     C93212  -0.488   5.210  10.598 -0.1190  0.0603  0.4788
  707MOL0     C93213  -0.644   5.238  10.581  0.1308  0.7777 -0.2796
  707MOL0     C93214  -0.711   5.221  10.720  0.2354  0.0246  0.5885
  707MOL0     C93215  -0.855   5.175  10.724  0.1150  0.4658 -0.1228
  707MOL0     O93216  -0.894   5.184  10.862  0.4017 -0.2558 -0.7829
  707MOL0     C93217  -1.030   5.176  10.891 -0.9875  0.9880 -0.1237
  707MOL0     C93218  -1.075   5.206  11.017 -0.6093  0.8332  0.2173
  707MOL0     C93219  -1.208   5.205  11.054 -0.6532  0.1409 -0.2333
  707MOL0     C93220  -1.308   5.182  10.957 -0.1183  0.1636 -0.6279
  707MOL0     C93221  -1.447   5.202  10.990 -0.4594  0.5695 -1.1814
  707MOL0     O93222  -1.535   5.146  10.898  0.1295 -0.3432 -0.5845
  707MOL0     C93223  -1.675   5.142  10.934  0.1289 -0.3575  0.3467
  707MOL0     C93224  -1.725   5.031  10.998 -1.0115 -0.5521 -0.4025
  707MOL0     C93225  -1.870   5.013  11.005 -0.1779 -0.5705 -0.5418
  707MOL0     C93226  -1.951   5.108  10.945  0.5845  0.9988  0.1397
  707MOL0     O93227  -2.085   5.073  10.937 -0.0557  0.9153  0.8298
  707MOL0     C93228  -2.178   5.161  10.863 -0.2803  0.0308  0.5585
  707MOL0     C93229  -2.317   5.095  10.861 -0.8423 -0.4853  0.2197
  707MOL0     C93230  -2.424   5.195  10.822  0.3770 -0.3160  1.0560
  707MOL0     C93231  -2.562   5.133  10.795  0.2437 -0.1270 -0.2421
  707MOL0     C93232  -2.665   5.225  10.730  0.2863 -0.3527  1.3595
  707MOL0     C93233  -2.813   5.175  10.738 -0.0823 -0.1051 -0.4801
  707MOL0     C93234  -2.903   5.277  10.673  0.5911  0.2859  0.3820
  707MOL0     C93235  -3.057   5.252  10.682  0.1171  0.3932 -0.6272
  707MOL0    Cl93236  -3.100   5.253  10.858 -0.6387  0.2180 -0.0462
  707MOL0     C93237  -1.896   5.225  10.895  0.1926 -0.3638 -0.7809
  707MOL0     C93238  -1.758   5.241  10.886 -0.0560  0.1307 -0.6690
  707MOL0     O93239  -1.478   5.257  11.099  0.1238  0.0038 -0.1752
  707MOL0     C93240  -1.259   5.136  10.836  0.0635 -0.1708  0.3296
  707MOL0     C93241  -1.124   5.121  10.803  0.0985 -0.1238 -0.0639
  707MOL0     N93242  -0.335   5.072  10.453  0.1035  0.3280 -0.4898
  707MOL0     N93243  -0.289   5.091  10.334  0.0622 -0.5859  0.0480
  707MOL0     C93244   0.822   5.721   9.802 -0.0787  0.3820 -0.2976
  707MOL0     C93245   0.959   5.708   9.772  0.0038  0.6578 -0.0376
  707MOL0     C93246   1.331   5.489   9.586 -0.1313  0.1157  0.0005
  707MOL0     C93247   1.415   5.519   9.699 -0.5389 -0.4131 -1.0230
  707MOL0     C93248   1.559   5.505   9.688 -0.1757 -0.1300  0.1733
  707MOL0     C93249   1.621   5.458   9.571 -0.4756 -0.0592 -0.1859
  707MOL0     O93250   1.758   5.442   9.550  0.7817  0.7926 -0.7705
  707MOL0     C93251   1.856   5.473   9.644 -0.3053 -0.4471  0.6323
  707MOL0     C93252   1.864   5.371   9.764 -0.2639  0.5222  0.3950
  707MOL0     C93253   1.953   5.423   9.873  0.0349  0.3651  0.4142
  707MOL0     C93254   1.885   5.513   9.971  0.4391 -0.1567 -0.5956
  707MOL0     C93255   1.858   5.640   9.901 -0.3549 -1.0898 -0.0525
  707MOL0     C93256   1.857   5.747   9.846 -0.7646  0.2011  0.7704
  707MOL0     C93257   1.540   5.419   9.467  0.3941 -0.3883 -0.4707
  707MOL0     C93258   1.400   5.439   9.470 -0.5182 -0.6093 -0.6200
  707MOL0     H93259   0.971   5.378   9.709 -0.6491 -0.8346  2.0179
  707MOL0     H93260   0.732   5.403   9.745 -3.0464  1.5336  0.3118
  707MOL0     H93261   0.585   5.508   9.994 -0.9292 -2.1353  0.8884
  707MOL0     H93262   0.519   5.447   9.840 -0.5802  0.5027 -0.3735
  707MOL0     H93263   0.341   5.588   9.840  0.3244 -0.0719 -0.7794
  707MOL0     H93264   0.428   5.698   9.956  3.4384 -0.9434 -2.1847
  707MOL0     H93265   0.382   5.548  10.131 -0.6983  0.6850  0.8254
  707MOL0     H93266   0.348   5.408  10.022 -1.2957 -0.1284 -1.2621
  707MOL0     H93267   0.152   5.628  10.083  0.6562 -0.0933  1.2578
  707MOL0     H93268   0.135   5.510   9.944  1.5507  0.4052 -0.5336
  707MOL0     H93269   0.139   5.456  10.235 -0.5097 -0.6505  0.2766
  707MOL0     H93270   0.164   5.324  10.122 -2.9323 -2.5683  2.5112
  707MOL0     H93271  -0.051   5.388  10.006 -1.9352  1.3190  0.0216
  707MOL0     H93272  -0.082   5.519  10.117  0.7411  0.5007 -0.8033
  707MOL0     H93273  -0.033   5.222  10.190  1.2579  1.3351 -1.7555
  707MOL0     H93274  -0.089   5.355  10.302 -1.2108  0.4972 -0.2234
  707MOL0     H93275  -0.262   5.230  10.081  0.2148 -0.6910 -0.4625
  707MOL0     H93276  -0.298   5.377  10.163  2.4433  1.1333 -0.6344
  707MOL0     H93277  -0.429   5.377  10.361 -0.5630 -0.1668  2.9000
  707MOL0     H93278  -0.446   5.298  10.648 -1.3728 -1.0322  3.7740
  707MOL0     H93279  -0.467   5.134  10.673 -2.9960  1.5676  3.0732
  707MOL0     H93280  -0.683   5.159  10.516 -1.3146  1.1666  0.0606
  707MOL0     H93281  -0.670   5.334  10.533 -2.3449  1.1175  1.5187
  707MOL0     H93282  -0.662   5.138  10.771 -0.9253 -1.6826 -0.9595
  707MOL0     H93283  -0.704   5.322  10.763 -0.2724  1.6155 -2.7445
  707MOL0     H93284  -0.862   5.070  10.696 -3.1600 -0.1292  2.3522
  707MOL0     H93285  -0.907   5.231  10.647  1.1475  1.7432  0.0682
  707MOL0     H93286  -0.998   5.239  11.086 -1.2437  1.3774  0.6836
  707MOL0     H93287  -1.231   5.224  11.158  0.7013 -0.0087  0.1123
  707MOL0     H93288  -1.655   4.964  11.047  0.8161 -1.2689 -3.6876
  707MOL0     H93289  -1.921   4.928  11.050  1.9891 -1.4680  0.3614
  707MOL0     H93290  -2.141   5.186  10.763 -2.3450 -0.6033 -0.4221
  707MOL0     H93291  -2.199   5.253  10.919 -0.3664  0.6572 -0.4723
  707MOL0     H93292  -2.340   5.069  10.965  0.5293  1.1753  0.9897
  707MOL0     H93293  -2.301   5.008  10.796 -1.3900  0.9171 -1.9093
  707MOL0     H93294  -2.398   5.244  10.727 -0.6418  2.0757  1.9296
  707MOL0     H93295  -2.430   5.273  10.898  1.6697 -1.5452  2.4899
  707MOL0     H93296  -2.548   5.039  10.741 -2.0003 -1.8963  2.0159
  707MOL0     H93297  -2.607   5.108  10.891  2.1062 -0.6223  0.5474
  707MOL0     H93298  -2.633   5.253  10.629  2.6146  0.7100  2.3210
  707MOL0     H93299  -2.667   5.316  10.791  0.2714  0.5444  0.0627
  707MOL0     H93300  -2.828   5.157  10.845  0.6065 -0.9614 -0.5147
  707MOL0     H93301  -2.813   5.080  10.685  0.0128 -0.0448 -0.5866
  707MOL0     H93302  -2.873   5.376  10.710 -1.4596  1.5494 -1.1294
  707MOL0     H93303  -2.880   5.285  10.566  0.4713  2.5242  0.4690
  707MOL0     H93304  -3.093   5.155  10.648 -4.1508  1.0739  1.2468
  707MOL0     H93305  -3.106   5.335  10.630  0.3707  2.8755  2.6940
  707MOL0     H93306  -1.962   5.295  10.845 -0.1973  0.4404  0.8184
  707MOL0     H93307  -1.714   5.332  10.847 -0.4460  0.8392  0.5072
  707MOL0     H93308  -1.327   5.121  10.752  1.5391  0.3929 -1.0230
  707MOL0     H93309  -1.120   5.093  10.698 -0.6012  3.1187 -1.0874
  707MOL0     H93310   0.777   5.819   9.816  0.1315  0.3451  0.6657
  707MOL0     H93311   1.030   5.789   9.769  0.9215 -0.1359 -0.5264
  707MOL0     H93312   1.375   5.560   9.791  5.4279 -0.8279  2.2637
  707MOL0     H93313   1.620   5.547   9.768  0.7493  0.6294 -0.8907
  707MOL0     H93314   1.827   5.571   9.684  0.2707 -0.3945  0.9410
  707MOL0     H93315   1.960   5.472   9.609  0.5767 -1.0159  3.0373
  707MOL0     H93316   1.759   5.361   9.794 -0.2059 -0.4067  0.3054
  707MOL0     H93317   1.898   5.282   9.710 -1.5113  2.1089 -3.3331
  707MOL0     H93318   2.033   5.481   9.827  0.9652 -0.3963  1.0352
  707MOL0     H93319   1.998   5.343   9.932  1.5361  0.7807 -0.1203
  707MOL0     H93320   1.795   5.470  10.016 -1.1040  0.9298 -2.4574
  707MOL0     H93321   1.951   5.532  10.055 -0.7292 -1.2015  0.6035
  707MOL0     H93322   1.846   5.841   9.796 -2.9435 -0.2040  0.3627
  707MOL0     H93323   1.586   5.370   9.382  1.2555  2.8492 -2.0119
  707MOL0     H93324   1.342   5.426   9.379 -0.6333 -1.6849 -0.4033
  708MOL0     O93325   5.238   9.474   7.721 -0.6309 -0.2008  0.0871
  708MOL0     C93326   5.259   9.390   7.806  0.0536 -0.5019 -0.4582
  708MOL0     O93327   5.166   9.327   7.876 -0.3143  0.6323  0.1609
  708MOL0     C93328   5.033   9.348   7.854 -0.0993  1.1544  0.3305
  708MOL0     C93329   4.951   9.420   7.942 -0.4419  0.7720  0.1520
  708MOL0     C93330   4.818   9.443   7.913 -0.3816  0.5415  0.8065
  708MOL0     C93331   4.761   9.400   7.800 -0.7354 -0.0785  0.4298
  708MOL0     O93332   4.632   9.417   7.765 -0.4696  0.2888  0.2111
  708MOL0     C93333   4.530   9.415   7.866 -0.7166 -0.0567  0.4054
  708MOL0     C93334   4.393   9.432   7.806  0.0902 -0.7578  0.2319
  708MOL0     C93335   4.284   9.460   7.908  0.3206 -0.2706 -0.0558
  708MOL0     C93336   4.278   9.334   7.999 -0.1729  0.1649 -0.0224
  708MOL0     C93337   4.133   9.320   8.055 -0.0634 -0.1988 -0.5877
  708MOL0     C93338   4.094   9.418   8.167  0.4883  0.1121 -0.1698
  708MOL0     C93339   4.055   9.561   8.109  0.1608 -0.2839 -0.2664
  708MOL0     C93340   4.014   9.652   8.225 -0.0013 -0.4985 -0.7127
  708MOL0     N93341   3.865   9.673   8.240  0.0128 -0.3122 -0.4858
  708MOL0     C93342   3.791   9.603   8.335  0.0812  0.2050 -0.0796
  708MOL0     C93343   3.668   9.666   8.346 -0.3082  0.4550 -0.2380
  708MOL0     C93344   3.568   9.621   8.454 -0.7727  0.8063  0.2359
  708MOL0     C93345   3.461   9.727   8.495 -0.4500  0.0168  0.0423
  708MOL0     C93346   3.407   9.695   8.637  0.3469  0.0180  0.2992
  708MOL0     C93347   3.328   9.815   8.680 -0.8126  0.3588 -0.0177
  708MOL0     O93348   3.267   9.803   8.805  0.1642 -0.0536  0.3528
  708MOL0     C93349   3.147   9.868   8.818  0.3859  0.0481 -0.1277
  708MOL0     C93350   3.071   9.836   8.931  0.2138  0.1076  0.2115
  708MOL0     C93351   2.940   9.872   8.954  0.0980 -0.0690  0.0821
  708MOL0     C93352   2.880   9.956   8.863  0.3399  0.3528 -0.0146
  708MOL0     C93353   2.737   9.996   8.891 -0.1261 -0.5824  0.3902
  708MOL0     O93354   2.694  10.085   8.800 -0.1395  0.1881  0.8031
  708MOL0     C93355   2.585  10.159   8.830 -0.3181  0.4130 -1.4592
  708MOL0     C93356   2.595  10.286   8.868  0.6436 -0.0782  0.2722
  708MOL0     C93357   2.482  10.369   8.903 -0.1577  0.1825 -0.0196
  708MOL0     C93358   2.354  10.305   8.906 -0.5973 -0.3549  0.4443
  708MOL0     O93359   2.235  10.371   8.947 -0.1308 -0.1986  0.4209
  708MOL0     C93360   2.255  10.482   9.033 -0.3152 -0.2708  0.4016
  708MOL0     C93361   2.134  10.517   9.115 -0.1157  0.0902  0.1534
  708MOL0     C93362   2.021  10.596   9.035  0.2966 -0.0702 -0.6437
  708MOL0     C93363   1.896  10.620   9.124  0.1319  0.7279  0.3638
  708MOL0     C93364   1.797  10.730   9.077 -0.5496  0.9510  0.0613
  708MOL0     C93365   1.685  10.736   9.176  0.6139  0.4718  0.2506
  708MOL0     C93366   1.606  10.853   9.153  0.0032 -0.3533 -0.4899
  708MOL0     C93367   1.496  10.865   9.259  0.3309  0.8337  0.4485
  708MOL0    Cl93368   1.383  11.005   9.256  0.1646  0.1273 -0.0550
  708MOL0     C93369   2.349  10.174   8.858 -0.9724  0.1192 -0.1740
  708MOL0     C93370   2.458  10.105   8.822  0.3263 -0.0821 -0.4353
  708MOL0     O93371   2.684   9.955   8.992 -0.1524  0.1204 -0.4158
  708MOL0     C93372   2.944   9.990   8.743 -0.1842 -0.0273  1.0496
  708MOL0     C93373   3.083   9.956   8.726  0.1782 -0.0005 -0.3462
  708MOL0     N93374   3.686   9.783   8.275  0.6900  0.0262 -0.1936
  708MOL0     N93375   3.802   9.787   8.211  0.2069 -0.3832 -0.0352
  708MOL0     C93376   4.836   9.323   7.710 -0.6363  0.6029 -0.0776
  708MOL0     C93377   4.969   9.292   7.739 -0.4445 -0.3783  0.0024
  708MOL0     C93378   5.400   9.357   7.850 -0.4943 -0.0906  1.2631
  708MOL0     C93379   5.516   9.436   7.814 -0.0068  0.0673  0.0429
  708MOL0     C93380   5.646   9.387   7.834 -0.1487  0.4427  0.1212
  708MOL0     C93381   5.652   9.257   7.901 -0.6625  0.0544 -0.3374
  708MOL0     O93382   5.778   9.202   7.937  0.8088  0.2401 -0.3209
  708MOL0     C93383   5.898   9.265   7.898  0.4641 -0.4886  0.1104
  708MOL0     C93384   6.024   9.184   7.951 -0.4358  0.3480  0.2126
  708MOL0     C93385   6.145   9.280   7.962 -0.7898  0.9305 -0.0490
  708MOL0     C93386   6.264   9.214   8.036  0.2604  0.2771 -0.4056
  708MOL0     C93387   6.393   9.278   8.000  0.5168 -0.3137  0.8654
  708MOL0     C93388   6.511   9.313   7.980  0.0723  1.1562 -0.6196
  708MOL0     C93389   5.547   9.190   7.952  0.0032 -0.8904  0.8831
  708MOL0     C93390   5.419   9.240   7.925 -0.6576  0.3394 -0.3420
  708MOL0     H93391   4.989   9.457   8.036 -1.5920 -0.2732  1.0667
  708MOL0     H93392   4.769   9.514   7.978 -2.0613  1.1828 -1.0731
  708MOL0     H93393   4.559   9.498   7.932  3.9653 -1.1888  0.1293
  708MOL0     H93394   4.531   9.323   7.925  0.8147 -0.9326 -0.9308
  708MOL0     H93395   4.367   9.343   7.748 -1.3061  0.0887 -0.5121
  708MOL0     H93396   4.390   9.519   7.739 -2.7336  2.3363  3.9019
  708MOL0     H93397   4.193   9.495   7.859  0.2057  0.0040  0.3538
  708MOL0     H93398   4.321   9.541   7.972 -0.8221 -0.6011  1.0578
  708MOL0     H93399   4.308   9.240   7.951 -3.8228  0.3156 -3.0081
  708MOL0     H93400   4.351   9.353   8.078  0.5919  0.3177 -0.7490
  708MOL0     H93401   4.109   9.218   8.087  0.3361 -0.5655 -1.4386
  708MOL0     H93402   4.068   9.342   7.970 -1.0374 -4.1631 -1.0658
  708MOL0     H93403   4.171   9.431   8.243 -0.4431  0.3745  0.7573
  708MOL0     H93404   4.008   9.385   8.226  0.2751  4.1016  2.1600
  708MOL0     H93405   4.144   9.604   8.063  0.5548 -1.6761 -0.8776
  708MOL0     H93406   3.984   9.556   8.025  0.1027 -0.9532 -0.1883
  708MOL0     H93407   4.047   9.749   8.187 -3.3045  1.3132  0.5738
  708MOL0     H93408   4.066   9.626   8.318  0.4157  0.3000 -0.7101
  708MOL0     H93409   3.819   9.512   8.386  0.6357 -0.2897 -1.2233
  708MOL0     H93410   3.625   9.581   8.539 -0.9134 -0.7641 -0.3637
  708MOL0     H93411   3.524   9.529   8.413 -0.0104 -0.0875  1.3355
  708MOL0     H93412   3.386   9.714   8.417 -0.0097 -2.3516 -0.0686
  708MOL0     H93413   3.502   9.829   8.494 -0.0896 -0.1265 -0.7423
  708MOL0     H93414   3.343   9.606   8.633  0.4314 -0.0912  1.1784
  708MOL0     H93415   3.485   9.676   8.711 -0.5201 -2.7497  0.5973
  708MOL0     H93416   3.255   9.821   8.600  0.2800 -0.5155 -1.1186
  708MOL0     H93417   3.395   9.901   8.672 -0.7564  0.1841 -1.7932
  708MOL0     H93418   3.115   9.765   9.000 -0.5536 -1.5598 -0.9417
  708MOL0     H93419   2.877   9.836   9.035 -3.9087  2.1154 -1.7532
  708MOL0     H93420   2.698  10.321   8.866  0.5003  0.5600  2.2317
  708MOL0     H93421   2.499  10.475   8.922 -0.4346  0.0588  0.9936
  708MOL0     H93422   2.299  10.569   8.984  0.8786  0.4087  2.5475
  708MOL0     H93423   2.328  10.452   9.109 -1.2479 -0.6564  1.1821
  708MOL0     H93424   2.172  10.589   9.188 -0.1023  0.9456 -0.6690
  708MOL0     H93425   2.096  10.426   9.160 -0.1343 -1.1527 -2.1921
  708MOL0     H93426   1.987  10.538   8.949 -1.9217  0.6016 -0.2839
  708MOL0     H93427   2.054  10.692   8.995  2.6255 -1.6152 -2.7370
  708MOL0     H93428   1.840  10.526   9.122  0.0169  0.7988 -2.0405
  708MOL0     H93429   1.937  10.648   9.222 -0.3695  3.1391 -0.0656
  708MOL0     H93430   1.757  10.709   8.977  1.9256  1.4361 -1.1060
  708MOL0     H93431   1.848  10.826   9.069  0.2913  0.6960  1.8314
  708MOL0     H93432   1.731  10.751   9.274 -0.4672  2.8767  0.4597
  708MOL0     H93433   1.629  10.643   9.188  0.1345  0.5354 -1.3067
  708MOL0     H93434   1.674  10.938   9.145  2.0395 -1.9772 -1.5807
  708MOL0     H93435   1.558  10.842   9.055  2.5967 -2.6668 -1.6285
  708MOL0     H93436   1.552  10.862   9.352  0.0126  2.6695  0.7247
  708MOL0     H93437   1.427  10.780   9.256 -0.2551  1.2626 -3.0550
  708MOL0     H93438   2.253  10.128   8.837 -0.2765 -0.9752 -1.0339
  708MOL0     H93439   2.456  10.001   8.789  2.6003 -1.8848  4.2063
  708MOL0     H93440   2.901  10.056   8.668 -1.4467 -1.3658  0.5261
  708MOL0     H93441   3.134   9.985   8.634 -1.5953 -1.1225 -1.7439
  708MOL0     H93442   4.795   9.280   7.619 -0.9076  1.3594 -0.3237
  708MOL0     H93443   5.021   9.218   7.678  0.5215  1.1816 -1.1347
  708MOL0     H93444   5.516   9.533   7.765  2.2400  0.7658  1.3193
  708MOL0     H93445   5.739   9.429   7.797  0.5362 -2.0119 -1.1599
  708MOL0     H93446   5.908   9.361   7.951  0.1020  0.2568 -1.1414
  708MOL0     H93447   5.905   9.280   7.790  0.5426 -1.3009 -0.0067
  708MOL0     H93448   6.008   9.133   8.046 -1.0465  0.8328  0.3766
  708MOL0     H93449   6.050   9.100   7.886 -0.1958  0.7351 -0.2003
  708MOL0     H93450   6.101   9.361   8.021 -2.5316 -0.0439  0.0713
  708MOL0     H93451   6.182   9.315   7.865  0.3709  2.0425  0.7582
  708MOL0     H93452   6.245   9.214   8.144  0.5409 -0.2828 -0.3524
  708MOL0     H93453   6.277   9.108   8.009 -0.3851 -0.6850  2.6021
  708MOL0     H93454   6.611   9.347   7.961  0.0841  0.6925 -1.3803
  708MOL0     H93455   5.566   9.097   8.003  2.8616 -1.4803 -0.9777
  708MOL0     H93456   5.337   9.176   7.954 -0.1331  0.3125  1.1308
  709MOL0     O93457   4.139   4.110   5.261 -0.3196 -0.2105  0.5746
  709MOL0     C93458   4.208   4.121   5.358 -0.3099 -0.6405 -0.4636
  709MOL0     O93459   4.167   4.131   5.489 -0.0594 -0.5185 -0.8017
  709MOL0     C93460   4.028   4.145   5.496 -1.3909  0.2497  1.0424
  709MOL0     C93461   3.953   4.252   5.447  0.5504 -0.0131 -0.1131
  709MOL0     C93462   3.819   4.270   5.483  0.1763  0.1398 -1.0504
  709MOL0     C93463   3.762   4.176   5.571 -0.3748 -0.3884 -0.1509
  709MOL0     O93464   3.626   4.194   5.596 -0.0490 -0.7898  0.0564
  709MOL0     C93465   3.558   4.123   5.702  0.1765  0.2727  0.4948
  709MOL0     C93466   3.410   4.168   5.704 -0.3594 -0.1729 -0.4588
  709MOL0     C93467   3.334   4.087   5.815  0.6124  0.5009 -0.4932
  709MOL0     C93468   3.204   4.154   5.843  0.7353 -0.3505 -0.3937
  709MOL0     C93469   3.129   4.080   5.950 -0.3521 -0.1217  0.0296
  709MOL0     C93470   2.977   4.080   5.957 -0.1884 -0.2553 -0.6409
  709MOL0     C93471   2.938   4.227   5.998  1.0935  1.3466  0.1069
  709MOL0     C93472   2.787   4.247   5.975 -0.4431 -0.4230 -0.2953
  709MOL0     N93473   2.755   4.216   5.832  0.8331 -0.1403  0.4180
  709MOL0     C93474   2.815   4.284   5.728  0.0196 -0.4569 -0.9643
  709MOL0     C93475   2.768   4.226   5.611 -0.0088 -0.3802 -0.2669
  709MOL0     C93476   2.815   4.258   5.471 -0.1895 -1.4047 -0.5717
  709MOL0     C93477   2.960   4.221   5.450  1.5246  0.1844 -0.4474
  709MOL0     C93478   2.989   4.074   5.477  0.0680  0.5064 -1.0209
  709MOL0     C93479   3.125   4.030   5.433 -0.0671 -0.4241 -0.5063
  709MOL0     O93480   3.114   3.972   5.305 -0.6998  1.0908 -0.2730
  709MOL0     C93481   3.225   3.951   5.222 -0.4667 -0.0592 -0.4862
  709MOL0     C93482   3.355   3.991   5.260  0.9058 -0.4916  0.3121
  709MOL0     C93483   3.453   3.976   5.161  0.8420 -0.2082  0.3757
  709MOL0     C93484   3.429   3.916   5.037 -0.1235  0.3450 -0.5075
  709MOL0     C93485   3.544   3.909   4.943 -0.3482 -0.1472  0.2540
  709MOL0     O93486   3.665   3.968   4.977  1.0587  0.4122 -0.9453
  709MOL0     C93487   3.787   3.945   4.918  0.3467  0.6813  0.3768
  709MOL0     C93488   3.818   3.940   4.782  0.8093 -0.0058  1.2387
  709MOL0     C93489   3.947   3.929   4.728 -0.1427  0.0748 -0.6839
  709MOL0     C93490   4.061   3.948   4.810  0.1910  0.0545  0.6715
  709MOL0     O93491   4.180   3.940   4.748 -0.2963  0.0197  0.1217
  709MOL0     C93492   4.281   4.014   4.811  0.1598  0.0918  0.2554
  709MOL0     C93493   4.389   4.028   4.700  0.2725 -0.7588 -0.3695
  709MOL0     C93494   4.499   4.129   4.755 -0.4338  0.2051  0.0303
  709MOL0     C93495   4.573   4.074   4.876 -0.5955 -0.4171  0.6414
  709MOL0     C93496   4.673   3.963   4.828 -0.5201 -0.0126 -0.2252
  709MOL0     C93497   4.798   4.019   4.758  0.3143  0.4467 -0.7400
  709MOL0     C93498   4.921   3.917   4.735  0.2129 -0.8267 -0.7488
  709MOL0     C93499   5.025   3.962   4.637 -0.0892 -0.9705 -0.4798
  709MOL0    Cl93500   5.099   4.114   4.701  0.0134 -0.0130 -0.2052
  709MOL0     C93501   4.032   3.955   4.951  0.2277  0.3022  0.8657
  709MOL0     C93502   3.900   3.965   5.002  0.2792  0.0699 -0.4492
  709MOL0     O93503   3.521   3.861   4.831  0.3086  0.2049  0.3909
  709MOL0     C93504   3.294   3.879   5.006  0.5047 -0.1961  0.0904
  709MOL0     C93505   3.198   3.914   5.097  0.2228 -0.6102  0.4804
  709MOL0     N93506   2.679   4.130   5.649  0.1161  0.4303 -0.1900
  709MOL0     N93507   2.663   4.127   5.785 -0.6081  0.4071  0.5324
  709MOL0     C93508   3.829   4.066   5.613 -0.1605  0.7701 -0.4399
  709MOL0     C93509   3.964   4.049   5.573  0.1886 -0.0727 -0.1748
  709MOL0     C93510   4.353   4.117   5.336 -0.4018 -1.0554  0.3026
  709MOL0     C93511   4.401   4.025   5.237 -0.4174  0.3463 -0.3087
  709MOL0     C93512   4.535   4.014   5.202  0.2995 -1.3039  0.2606
  709MOL0     C93513   4.630   4.091   5.267  0.1102 -0.2455 -0.9013
  709MOL0     O93514   4.756   4.074   5.219  0.6011  0.7989 -0.2231
  709MOL0     C93515   4.857   4.169   5.262  0.5923  1.0450  1.9292
  709MOL0     C93516   4.948   4.179   5.143 -0.1442 -0.3867 -0.7329
  709MOL0     C93517   5.074   4.272   5.178  0.9213  0.2597 -0.3464
  709MOL0     C93518   5.188   4.265   5.072  0.3980  0.1239 -0.5650
  709MOL0     C93519   5.239   4.130   5.066 -0.5307 -0.2381 -0.6014
  709MOL0     C93520   5.270   4.014   5.055 -0.1270  0.0739  0.6933
  709MOL0     C93521   4.582   4.175   5.369 -0.6825 -0.7381  0.3392
  709MOL0     C93522   4.452   4.190   5.400 -0.0937  0.4572 -0.3991
  709MOL0     H93523   4.012   4.331   5.401 -0.9146  0.6065 -1.0008
  709MOL0     H93524   3.765   4.349   5.431  0.8761  1.4974  0.1771
  709MOL0     H93525   3.605   4.135   5.800 -0.5850 -0.0823  0.9157
  709MOL0     H93526   3.563   4.016   5.680 -0.3849  0.4783 -0.7181
  709MOL0     H93527   3.368   4.164   5.603 -1.3628  1.5959 -0.1583
  709MOL0     H93528   3.408   4.273   5.734 -0.6745 -0.6011  1.1090
  709MOL0     H93529   3.390   4.090   5.909  1.1859 -2.2175 -0.6675
  709MOL0     H93530   3.307   3.986   5.783 -2.5624  1.2871 -0.6074
  709MOL0     H93531   3.220   4.254   5.884 -3.1269  0.3361 -0.2108
  709MOL0     H93532   3.129   4.157   5.763 -1.8303  0.8259  1.9139
  709MOL0     H93533   3.167   4.126   6.041  1.0837  2.9045 -1.9222
  709MOL0     H93534   3.165   3.977   5.945  1.9425  0.6742 -1.8799
  709MOL0     H93535   2.948   4.021   6.045 -0.9717  0.3762 -0.4611
  709MOL0     H93536   2.932   4.043   5.865  2.6063 -0.2272 -2.1082
  709MOL0     H93537   2.954   4.248   6.104 -1.3755  0.1567  0.7866
  709MOL0     H93538   2.991   4.305   5.943 -0.6303  1.0305 -2.1342
  709MOL0     H93539   2.761   4.347   6.013  0.9207 -0.4215  0.7044
  709MOL0     H93540   2.738   4.179   6.045 -1.2051 -1.4703 -1.7892
  709MOL0     H93541   2.876   4.370   5.750 -3.2225  1.3067  2.3443
  709MOL0     H93542   2.798   4.365   5.460 -1.3631 -1.4364  0.7046
  709MOL0     H93543   2.759   4.205   5.393 -1.5672  0.8824 -1.2314
  709MOL0     H93544   3.015   4.290   5.516  1.2989  1.8230 -1.9147
  709MOL0     H93545   2.984   4.246   5.347  1.4431  1.0449 -0.2684
  709MOL0     H93546   2.987   4.069   5.587  0.9837  1.3909 -0.9476
  709MOL0     H93547   2.913   4.001   5.451  1.1183 -0.5299 -1.2755
  709MOL0     H93548   3.180   3.969   5.505  0.5835  0.6859 -0.0297
  709MOL0     H93549   3.185   4.121   5.420  0.5997 -1.0825 -2.4407
  709MOL0     H93550   3.373   4.020   5.363 -0.3505 -0.4788  0.5463
  709MOL0     H93551   3.556   3.997   5.186  0.7966 -0.0539  0.4308
  709MOL0     H93552   3.739   3.931   4.709  1.6743 -3.4114  0.5693
  709MOL0     H93553   3.964   3.934   4.621 -2.8016 -0.6139 -1.2200
  709MOL0     H93554   4.308   3.948   4.894 -1.5932 -1.5105 -0.3794
  709MOL0     H93555   4.251   4.115   4.840  2.7809  0.9671  0.1631
  709MOL0     H93556   4.352   4.059   4.602  0.6689 -0.6312 -0.4840
  709MOL0     H93557   4.425   3.926   4.682 -1.3883 -1.3870 -0.3158
  709MOL0     H93558   4.449   4.214   4.802 -2.8985 -1.4075  0.4943
  709MOL0     H93559   4.568   4.154   4.673  0.2499 -1.4595  0.0787
  709MOL0     H93560   4.634   4.148   4.928  0.1297  0.1281 -0.9146
  709MOL0     H93561   4.490   4.044   4.941 -0.8407 -0.1644  0.4453
  709MOL0     H93562   4.626   3.896   4.755 -0.0769  1.9124 -2.4148
  709MOL0     H93563   4.705   3.914   4.920 -0.4740  2.4340  1.1643
  709MOL0     H93564   4.834   4.103   4.818 -0.2238 -0.3760  0.7714
  709MOL0     H93565   4.776   4.066   4.661  0.9142  0.8940 -0.6648
  709MOL0     H93566   4.964   3.898   4.833  0.6434  2.0646 -0.2913
  709MOL0     H93567   4.884   3.826   4.686  0.2134 -0.3564 -1.6562
  709MOL0     H93568   4.968   3.988   4.547 -2.4644  0.4438  1.3051
  709MOL0     H93569   5.110   3.896   4.618  0.5498 -0.3088  0.0287
  709MOL0     H93570   4.117   3.941   5.018  1.2340 -2.2761 -0.7962
  709MOL0     H93571   3.872   3.967   5.106 -3.4073 -1.7084 -1.2103
  709MOL0     H93572   3.261   3.833   4.913 -0.6621 -0.5088  0.6346
  709MOL0     H93573   3.092   3.893   5.087 -0.8786  3.4752  1.5800
  709MOL0     H93574   3.796   3.984   5.675  0.1787  0.7739 -0.2532
  709MOL0     H93575   4.027   3.969   5.610  0.9018  1.0940  1.2436
  709MOL0     H93576   4.333   3.955   5.190 -1.8684 -0.8787  3.2906
  709MOL0     H93577   4.563   3.949   5.120  4.4753  1.8394 -1.1169
  709MOL0     H93578   4.906   4.145   5.357  0.7068  0.4617  1.7316
  709MOL0     H93579   4.818   4.271   5.270  0.1732  1.6418 -3.6771
  709MOL0     H93580   4.978   4.080   5.107 -0.8548 -1.2781  1.0330
  709MOL0     H93581   4.908   4.213   5.047  0.0033  1.6228 -0.1393
  709MOL0     H93582   5.115   4.232   5.271 -1.8943 -1.6110  0.2203
  709MOL0     H93583   5.040   4.375   5.187  2.8323  0.7343  2.4919
  709MOL0     H93584   5.149   4.299   4.976 -0.4859 -0.2745 -0.3543
  709MOL0     H93585   5.266   4.335   5.105  0.8209 -0.8164  0.4869
  709MOL0     H93586   5.295   3.909   5.054 -0.9724 -0.1408  1.0436
  709MOL0     H93587   4.645   4.237   5.432  0.9789  0.1598 -2.0400
  709MOL0     H93588   4.420   4.260   5.476  2.1692  3.4557 -1.9779
  710MOL0     O93589   4.087   2.910  10.035  0.5494  0.1515 -0.3985
  710MOL0     C93590   4.189   2.926   9.965 -0.1875  0.9459 -0.2524
  710MOL0     O93591   4.190   2.884   9.834  0.2826 -0.5216  0.0631
  710MOL0     C93592   4.083   2.815   9.785  0.1112 -0.4515  1.3889
  710MOL0     C93593   4.035   2.689   9.830  0.5816 -0.0009 -0.2922
  710MOL0     C93594   3.928   2.622   9.767  0.1364 -0.0195 -0.7775
  710MOL0     C93595   3.881   2.680   9.639  0.7950  1.6740  0.2589
  710MOL0     O93596   3.780   2.603   9.565 -0.3627  0.2285  0.3903
  710MOL0     C93597   3.713   2.498   9.631  0.7786 -0.1337 -1.7483
  710MOL0     C93598   3.599   2.447   9.536 -0.3469 -0.5147  0.1282
  710MOL0     C93599   3.493   2.554   9.516 -0.1625 -0.9901  0.2424
  710MOL0     C93600   3.377   2.495   9.430  0.2794  0.1436 -0.1119
  710MOL0     C93601   3.241   2.570   9.447  0.2387  0.1148  0.0760
  710MOL0     C93602   3.127   2.509   9.355  0.4068 -0.0998 -0.2150
  710MOL0     C93603   3.004   2.590   9.349  0.3679  0.2564 -0.3899
  710MOL0     C93604   2.921   2.588   9.487 -1.0905 -0.1030 -0.3585
  710MOL0     N93605   2.819   2.484   9.487 -0.2822  0.0146 -0.8298
  710MOL0     C93606   2.692   2.499   9.439  0.1022  0.6863  0.6488
  710MOL0     C93607   2.636   2.375   9.443  0.2510 -0.4300 -0.6753
  710MOL0     C93608   2.501   2.336   9.404 -0.1723 -0.4921 -0.0264
  710MOL0     C93609   2.409   2.347   9.516  0.4176 -0.5490 -0.8662
  710MOL0     C93610   2.263   2.327   9.458 -0.7176  0.6509  0.1197
  710MOL0     C93611   2.159   2.314   9.566 -0.3680 -0.1021 -0.5974
  710MOL0     O93612   2.035   2.295   9.501  0.5715  0.0513 -0.1259
  710MOL0     C93613   1.924   2.265   9.573 -0.3731  0.1700  0.4583
  710MOL0     C93614   1.803   2.268   9.508  0.0281 -1.5919 -0.4227
  710MOL0     C93615   1.685   2.246   9.572  0.1588  0.2835 -0.5767
  710MOL0     C93616   1.677   2.208   9.705 -0.6230  0.2336  0.1806
  710MOL0     C93617   1.547   2.190   9.772  0.3243  0.6199 -0.0955
  710MOL0     O93618   1.539   2.141   9.894 -0.0081 -0.2882 -0.5257
  710MOL0     C93619   1.410   2.114   9.933 -0.4719 -0.4101  0.0929
  710MOL0     C93620   1.342   2.201  10.013 -0.6875 -0.0401 -0.4997
  710MOL0     C93621   1.210   2.183  10.051 -0.1821  1.0202 -0.8965
  710MOL0     C93622   1.137   2.068  10.009  0.2079  0.6378  0.1023
  710MOL0     O93623   1.007   2.049  10.049 -0.3326 -0.1925  0.1242
  710MOL0     C93624   0.928   2.000   9.941  1.1854 -0.1906  0.5175
  710MOL0     C93625   0.892   2.108   9.834  0.0656  0.2505 -0.3076
  710MOL0     C93626   0.804   2.214   9.913 -0.9617  0.5368  0.1792
  710MOL0     C93627   0.647   2.181   9.916 -0.0296 -0.4488 -0.0595
  710MOL0     C93628   0.580   2.274  10.014 -0.4766  0.3213 -0.1653
  710MOL0     C93629   0.612   2.428   9.995  0.1320  0.0299 -0.4102
  710MOL0     C93630   0.529   2.522  10.086 -0.4450 -0.3570  0.2306
  710MOL0     C93631   0.537   2.495  10.233  0.1177 -0.2220  0.2104
  710MOL0    Cl93632   0.441   2.623  10.323  0.0617  0.2520  0.2595
  710MOL0     C93633   1.206   1.971   9.926  0.0999 -0.4296 -0.0046
  710MOL0     C93634   1.333   1.997   9.888 -0.8264  0.2079 -0.0909
  710MOL0     O93635   1.451   2.210   9.692  0.3580  0.1081 -0.9994
  710MOL0     C93636   1.799   2.217   9.771 -0.2231 -0.0779 -0.4189
  710MOL0     C93637   1.922   2.241   9.709  0.4483  1.1312  0.3387
  710MOL0     N93638   2.736   2.288   9.479 -0.3638 -0.5172  1.0910
  710MOL0     N93639   2.845   2.352   9.511 -0.3773 -0.3738 -0.7217
  710MOL0     C93640   3.933   2.797   9.589  0.1583  1.2168  0.3162
  710MOL0     C93641   4.041   2.862   9.658  0.0275 -0.3852 -0.4106
  710MOL0     C93642   4.306   2.995  10.020  0.2634 -0.5925 -0.8523
  710MOL0     C93643   4.411   3.015   9.939 -0.3501 -0.1971  0.4122
  710MOL0     C93644   4.532   3.073   9.975 -0.1988  0.1778 -0.1247
  710MOL0     C93645   4.542   3.118  10.107  0.4197 -0.7268  0.3865
  710MOL0     O93646   4.644   3.178  10.162 -0.5878 -0.1450  0.0702
  710MOL0     C93647   4.766   3.197  10.086  0.7164 -0.2149 -0.0234
  710MOL0     C93648   4.874   3.211  10.194  0.5333 -0.5695  0.3678
  710MOL0     C93649   5.005   3.239  10.140 -0.0175  0.4914 -0.2427
  710MOL0     C93650   5.093   3.261  10.263 -0.1803 -0.3821  0.1122
  710MOL0     C93651   5.233   3.252  10.212  0.3058  0.0880 -0.3399
  710MOL0     C93652   5.338   3.264  10.155  0.9637 -0.7199  0.5954
  710MOL0     C93653   4.428   3.109  10.192  0.5658  0.4670 -0.7512
  710MOL0     C93654   4.308   3.058  10.149  0.6119 -0.3638  0.8805
  710MOL0     H93655   4.077   2.640   9.918 -1.5413  0.2263  0.9110
  710MOL0     H93656   3.883   2.539   9.820  1.8882  0.1051  1.0551
  710MOL0     H93657   3.670   2.510   9.731 -1.6266 -2.4962 -2.3774
  710MOL0     H93658   3.788   2.419   9.643 -0.3980 -1.1731 -0.9768
  710MOL0     H93659   3.548   2.363   9.584  1.0828 -0.4661  1.8231
  710MOL0     H93660   3.632   2.407   9.439  0.8286 -2.2488  1.1794
  710MOL0     H93661   3.528   2.639   9.455 -3.3773 -0.6956 -1.3950
  710MOL0     H93662   3.468   2.596   9.614  1.1332  0.9293 -0.1802
  710MOL0     H93663   3.418   2.507   9.329 -0.8704 -0.6898 -0.6991
  710MOL0     H93664   3.354   2.391   9.455 -2.2890  0.3834 -1.1930
  710MOL0     H93665   3.264   2.672   9.413 -0.4133 -0.0306 -0.8274
  710MOL0     H93666   3.221   2.567   9.555  1.2057 -1.2562  0.2395
  710MOL0     H93667   3.101   2.414   9.402  2.3045 -0.2234  0.6494
  710MOL0     H93668   3.159   2.504   9.251  0.2394 -0.8584 -0.2348
  710MOL0     H93669   3.025   2.694   9.321  0.1906 -0.6973 -4.6664
  710MOL0     H93670   2.940   2.558   9.267  1.4001 -0.5181 -0.9002
  710MOL0     H93671   2.861   2.677   9.508 -2.1471 -1.1746  1.5016
  710MOL0     H93672   2.991   2.569   9.569 -1.3057  0.6151  0.0025
  710MOL0     H93673   2.644   2.588   9.402  0.4611 -0.3810 -2.7954
  710MOL0     H93674   2.487   2.235   9.365 -0.7246 -1.0406  1.5339
  710MOL0     H93675   2.471   2.412   9.331 -3.4684  0.3172  1.9700
  710MOL0     H93676   2.418   2.449   9.554  0.8884 -0.8016 -0.2785
  710MOL0     H93677   2.420   2.282   9.603 -1.5678 -1.1886 -1.0510
  710MOL0     H93678   2.240   2.404   9.384 -1.7795 -0.6623 -0.9619
  710MOL0     H93679   2.256   2.227   9.414 -1.5692  1.7125 -2.3439
  710MOL0     H93680   2.159   2.401   9.632 -0.9309 -0.0933 -0.6026
  710MOL0     H93681   2.181   2.224   9.626  0.9093 -1.2778 -2.7070
  710MOL0     H93682   1.816   2.289   9.402  1.8481  0.7495  0.1798
  710MOL0     H93683   1.593   2.249   9.514  0.1891 -0.8053 -0.7131
  710MOL0     H93684   1.388   2.294  10.045 -1.3014 -0.2646  1.1580
  710MOL0     H93685   1.163   2.248  10.124 -2.2466 -2.4600  1.1328
  710MOL0     H93686   0.829   1.968   9.975  0.9239  2.0444  2.1128
  710MOL0     H93687   0.968   1.912   9.888 -1.0926  0.6868 -3.0427
  710MOL0     H93688   0.840   2.067   9.747 -2.4433  2.2367  0.1285
  710MOL0     H93689   0.982   2.159   9.800  0.2789  0.8241  1.0645
  710MOL0     H93690   0.823   2.310   9.865  1.4797 -0.3981 -0.9023
  710MOL0     H93691   0.835   2.227  10.016 -0.3470  1.3698 -0.1012
  710MOL0     H93692   0.602   2.192   9.817  0.9881  2.0467 -0.3002
  710MOL0     H93693   0.635   2.080   9.956 -0.4688 -0.1251  0.6525
  710MOL0     H93694   0.610   2.242  10.114  0.6569  0.2231 -0.5253
  710MOL0     H93695   0.474   2.250  10.004 -0.1679 -0.3611 -2.1420
  710MOL0     H93696   0.592   2.454   9.891 -0.0245  0.4464 -0.2762
  710MOL0     H93697   0.718   2.454  10.003 -0.2135  1.2467  0.4236
  710MOL0     H93698   0.568   2.624  10.081 -0.0227 -0.5439 -0.4181
  710MOL0     H93699   0.426   2.518  10.051  0.3555  0.3430 -2.4565
  710MOL0     H93700   0.640   2.497  10.271 -0.2152 -0.0281  1.1283
  710MOL0     H93701   0.491   2.397  10.253  1.9813 -1.6354 -1.9520
  710MOL0     H93702   1.170   1.872   9.903  0.3188 -0.2418 -1.1994
  710MOL0     H93703   1.377   1.918   9.828  0.1647  0.1378  0.7032
  710MOL0     H93704   1.792   2.193   9.877  0.3339  0.7978 -0.1727
  710MOL0     H93705   2.015   2.255   9.763  1.7553 -1.3481 -1.0809
  710MOL0     H93706   3.891   2.836   9.497 -5.5416 -0.7621  1.6692
  710MOL0     H93707   4.082   2.953   9.614 -0.3443 -1.1281 -2.3972
  710MOL0     H93708   4.408   2.990   9.834 -0.8440  0.6141  0.2245
  710MOL0     H93709   4.600   3.095   9.894 -0.4609  4.3628  0.5591
  710MOL0     H93710   4.751   3.280  10.015 -0.0622 -0.1909  0.1584
  710MOL0     H93711   4.789   3.111  10.022  0.5820 -0.5262  0.3480
  710MOL0     H93712   4.842   3.287  10.266  0.7230  2.0085 -2.1072
  710MOL0     H93713   4.876   3.110  10.236  1.9197 -1.8719 -2.5351
  710MOL0     H93714   5.009   3.330  10.079 -0.1277 -0.0033 -1.0021
  710MOL0     H93715   5.040   3.152  10.083  0.3108  1.3669 -1.4383
  710MOL0     H93716   5.067   3.362  10.294  0.5020  0.9972 -3.3242
  710MOL0     H93717   5.070   3.182  10.335  2.8209 -2.4590 -0.9938
  710MOL0     H93718   5.428   3.290  10.103  0.5143 -0.7789 -0.2241
  710MOL0     H93719   4.435   3.145  10.294 -0.4272  2.4580 -1.3415
  710MOL0     H93720   4.224   3.053  10.218 -0.1107 -0.4743  0.0065
  711MOL0     O93721  11.057   9.421   9.064 -0.6489  0.7574 -0.2513
  711MOL0     C93722  10.974   9.492   9.007  0.5260  0.1788  1.1588
  711MOL0     O93723  10.849   9.457   8.974 -0.4117 -0.1013  1.1328
  711MOL0     C93724  10.784   9.349   9.024  1.0467  0.3805 -0.3616
  711MOL0     C93725  10.808   9.288   9.153  0.2904 -0.0895 -0.0064
  711MOL0     C93726  10.723   9.180   9.180  0.9011  0.7147  0.1189
  711MOL0     C93727  10.612   9.145   9.101  0.1396 -0.2248  0.2633
  711MOL0     O93728  10.524   9.046   9.137  0.1601 -0.6944 -0.0831
  711MOL0     C93729  10.458   9.052   9.263  0.0335  1.4565  0.2690
  711MOL0     C93730  10.391   8.923   9.296  0.1464 -0.1277  0.2877
  711MOL0     C93731  10.298   8.886   9.178  0.5029 -0.3468 -0.7068
  711MOL0     C93732  10.166   8.815   9.212 -0.1247  0.2275  0.1169
  711MOL0     C93733  10.078   8.782   9.097 -0.5000 -0.1191  1.1216
  711MOL0     C93734  10.088   8.642   9.055  0.0272  0.2142 -0.4779
  711MOL0     C93735   9.983   8.607   8.948 -0.2740  0.0061  0.0978
  711MOL0     C93736   9.971   8.458   8.936  0.2980  0.8842  0.3431
  711MOL0     N93737   9.859   8.420   8.851  0.0711 -0.9614 -0.1527
  711MOL0     C93738   9.853   8.405   8.714 -0.6987  0.4910  0.2726
  711MOL0     C93739   9.720   8.392   8.687  0.0055  0.3679  0.5781
  711MOL0     C93740   9.672   8.357   8.541  0.7623 -0.3522 -0.2500
  711MOL0     C93741   9.517   8.352   8.547 -0.0234  0.1801  0.0036
  711MOL0     C93742   9.468   8.295   8.411 -0.6035  0.5721 -0.4805
  711MOL0     C93743   9.461   8.137   8.422  0.3160 -0.5941  0.4621
  711MOL0     O93744   9.454   8.089   8.285 -0.4568 -0.3393  0.1202
  711MOL0     C93745   9.344   8.028   8.260  0.2072  0.1490  0.6579
  711MOL0     C93746   9.332   7.889   8.304  0.2207 -0.8254 -1.5425
  711MOL0     C93747   9.219   7.815   8.271  0.2003 -0.7777 -0.1000
  711MOL0     C93748   9.115   7.871   8.193 -1.4848  0.0210  0.0198
  711MOL0     C93749   8.984   7.802   8.180 -0.3716 -0.9755  0.2235
  711MOL0     O93750   8.879   7.867   8.116  0.2148 -0.8645 -0.6298
  711MOL0     C93751   8.758   7.804   8.124  0.0084 -0.2911  0.5283
  711MOL0     C93752   8.691   7.743   8.015 -0.0653  0.5901  0.1190
  711MOL0     C93753   8.566   7.688   8.035  0.3994 -0.1943 -0.5688
  711MOL0     C93754   8.502   7.690   8.160 -0.3342 -0.7677 -0.8367
  711MOL0     O93755   8.367   7.674   8.160  0.1160  0.3119 -1.5017
  711MOL0     C93756   8.303   7.619   8.281  0.3853 -0.3559  0.4091
  711MOL0     C93757   8.158   7.609   8.251 -0.2709  0.0723 -0.3857
  711MOL0     C93758   8.087   7.519   8.349 -1.3573 -0.9309 -0.4536
  711MOL0     C93759   7.937   7.523   8.352  0.6996  0.3394  0.7554
  711MOL0     C93760   7.878   7.435   8.465  0.1451 -0.7749 -0.1309
  711MOL0     C93761   7.725   7.434   8.471  0.5989 -0.3007 -0.7800
  711MOL0     C93762   7.681   7.321   8.562 -0.0162  0.1531 -0.0760
  711MOL0     C93763   7.536   7.317   8.604 -0.1229 -0.1864  0.3978
  711MOL0    Cl93764   7.427   7.381   8.473  0.1018  0.2564  0.2075
  711MOL0     C93765   8.576   7.732   8.271 -0.6834  0.0564 -0.0341
  711MOL0     C93766   8.702   7.798   8.256  0.1496 -0.2897  0.2517
  711MOL0     O93767   8.978   7.687   8.221 -0.3002  0.2747 -0.9073
  711MOL0     C93768   9.135   7.999   8.141  0.0608  0.4346 -0.7345
  711MOL0     C93769   9.244   8.079   8.183 -0.4719 -0.5035  0.2585
  711MOL0     N93770   9.655   8.401   8.805  0.3873  0.2596 -1.3123
  711MOL0     N93771   9.736   8.422   8.902  0.8462 -0.1108 -0.3196
  711MOL0     C93772  10.589   9.214   8.982 -0.1171 -0.0479  0.0012
  711MOL0     C93773  10.676   9.308   8.942 -0.5825  0.1139 -0.4893
  711MOL0     C93774  11.030   9.614   8.951  0.3127  0.2153 -0.3554
  711MOL0     C93775  11.162   9.657   8.966 -0.3758 -0.1804  0.4873
  711MOL0     C93776  11.213   9.770   8.905 -0.0480 -0.2627  0.7972
  711MOL0     C93777  11.122   9.849   8.835  0.4347 -0.0745 -0.7706
  711MOL0     O93778  11.161   9.965   8.774 -0.0454  0.2566  0.2520
  711MOL0     C93779  11.295   9.984   8.737 -0.1728 -0.1777  0.7799
  711MOL0     C93780  11.361  10.071   8.843  0.1607  0.1036 -0.1720
  711MOL0     C93781  11.479  10.149   8.789 -0.1596  0.1770  0.0389
  711MOL0     C93782  11.587  10.052   8.739 -0.5470 -0.2422  0.4892
  711MOL0     C93783  11.699  10.115   8.668  0.1771 -0.2039  0.2885
  711MOL0     C93784  11.795  10.175   8.615 -0.3098 -0.2908  0.2119
  711MOL0     C93785  10.984   9.807   8.822 -0.2251 -0.7831  0.3779
  711MOL0     C93786  10.939   9.688   8.869 -0.2773 -0.8889  0.6671
  711MOL0     H93787  10.885   9.321   9.222 -0.6380 -2.3539  2.2898
  711MOL0     H93788  10.745   9.145   9.281  4.6395  2.0456 -0.0976
  711MOL0     H93789  10.387   9.135   9.264 -0.5335  1.0267  2.6107
  711MOL0     H93790  10.534   9.086   9.334 -0.3816  2.6086  0.1817
  711MOL0     H93791  10.330   8.943   9.384  0.6484 -3.5483  1.5613
  711MOL0     H93792  10.457   8.839   9.321  1.4373  1.1355  1.2399
  711MOL0     H93793  10.359   8.833   9.104  3.0326  0.6126  0.5531
  711MOL0     H93794  10.272   8.975   9.120  2.1272 -0.2324 -1.3171
  711MOL0     H93795  10.196   8.728   9.271  1.1485  0.3252 -0.3499
  711MOL0     H93796  10.112   8.890   9.271  1.1863  2.0984 -0.9479
  711MOL0     H93797  10.094   8.846   9.009  1.6928 -0.3104  1.3362
  711MOL0     H93798   9.975   8.805   9.127  0.3155  2.2074  2.4168
  711MOL0     H93799  10.072   8.585   9.147 -0.8328  2.6751  1.0208
  711MOL0     H93800  10.190   8.630   9.020 -0.5822 -1.8723 -1.6430
  711MOL0     H93801   9.883   8.650   8.962 -0.7039 -0.9720  0.1114
  711MOL0     H93802  10.013   8.645   8.850  0.2910 -3.1630 -1.0927
  711MOL0     H93803   9.947   8.417   9.035  1.3933  0.3335  0.3961
  711MOL0     H93804  10.065   8.410   8.908  0.7038  0.9652  1.5118
  711MOL0     H93805   9.935   8.428   8.645  0.5646  0.7737  1.8121
  711MOL0     H93806   9.717   8.267   8.498 -0.6707 -0.7653 -0.9337
  711MOL0     H93807   9.699   8.445   8.483 -1.7646 -0.7086 -2.1435
  711MOL0     H93808   9.478   8.452   8.568  1.1570  0.4270  1.1686
  711MOL0     H93809   9.491   8.277   8.622  0.1239 -0.0308 -0.1536
  711MOL0     H93810   9.366   8.327   8.389 -0.5023 -0.0322 -1.9492
  711MOL0     H93811   9.529   8.322   8.324 -1.7022  1.0676 -1.1157
  711MOL0     H93812   9.379   8.106   8.488 -2.1107  3.5298 -0.2539
  711MOL0     H93813   9.557   8.107   8.463  1.1820 -0.6317 -1.5131
  711MOL0     H93814   9.406   7.848   8.372 -0.1869 -2.5178 -2.0674
  711MOL0     H93815   9.210   7.711   8.299  0.0068 -0.7718 -0.1374
  711MOL0     H93816   8.728   7.723   7.915 -2.0895  2.2481 -1.0655
  711MOL0     H93817   8.490   7.667   7.961  0.6995  0.1288 -0.9690
  711MOL0     H93818   8.298   7.684   8.369 -0.7326 -1.3351  1.1065
  711MOL0     H93819   8.349   7.526   8.316  0.6387 -0.5372 -0.3888
  711MOL0     H93820   8.149   7.559   8.154  1.1862  0.7720 -0.9100
  711MOL0     H93821   8.108   7.706   8.242  0.3412  0.7612  2.4412
  711MOL0     H93822   8.126   7.544   8.448 -3.9210 -1.8760  0.8729
  711MOL0     H93823   8.122   7.415   8.339 -0.9340 -1.0855  2.1287
  711MOL0     H93824   7.895   7.622   8.372  2.7390  1.1224  1.3826
  711MOL0     H93825   7.904   7.482   8.256 -2.2567  1.7444  1.0525
  711MOL0     H93826   7.902   7.471   8.566 -2.5385 -0.8514  0.6105
  711MOL0     H93827   7.909   7.332   8.447 -0.7101 -0.7066 -2.2570
  711MOL0     H93828   7.691   7.413   8.369 -1.5294 -1.3134  0.0923
  711MOL0     H93829   7.685   7.532   8.498  0.1375  0.0028 -2.4525
  711MOL0     H93830   7.696   7.230   8.503 -1.0147 -0.3281  0.3996
  711MOL0     H93831   7.744   7.332   8.651 -0.8380  2.1856  0.3204
  711MOL0     H93832   7.530   7.367   8.701  1.7819 -1.6814  1.3446
  711MOL0     H93833   7.509   7.214   8.629  0.7290 -0.3952  0.4916
  711MOL0     H93834   8.534   7.729   8.371 -1.8495  2.7016 -0.3290
  711MOL0     H93835   8.759   7.842   8.337 -0.1849 -0.7360  0.7315
  711MOL0     H93836   9.071   8.053   8.071  0.7828 -0.8087 -2.4086
  711MOL0     H93837   9.259   8.184   8.163 -1.5283 -0.4964 -0.5482
  711MOL0     H93838  10.500   9.191   8.924  2.0598 -0.5890 -3.4732
  711MOL0     H93839  10.650   9.353   8.847 -2.4449  1.7640  0.6990
  711MOL0     H93840  11.228   9.591   9.021 -0.3862  1.6449  2.8607
  711MOL0     H93841  11.319   9.790   8.916 -0.0982  1.2179 -1.0664
  711MOL0     H93842  11.292  10.043   8.645  5.2806 -1.7107 -0.7557
  711MOL0     H93843  11.356   9.898   8.709 -0.1687 -1.1186  3.3919
  711MOL0     H93844  11.288  10.141   8.886  0.4675 -1.3112  2.9698
  711MOL0     H93845  11.397  10.007   8.925  1.1567  0.5400 -0.2549
  711MOL0     H93846  11.508  10.209   8.875 -1.4904 -0.7295  1.1554
  711MOL0     H93847  11.459  10.212   8.701 -2.8652 -1.4689 -0.6447
  711MOL0     H93848  11.633   9.996   8.821  0.7186 -2.9209 -1.8664
  711MOL0     H93849  11.543   9.981   8.668 -0.3296  0.5499 -0.4576
  711MOL0     H93850  11.874  10.228   8.567 -0.1418  0.3496  1.1624
  711MOL0     H93851  10.913   9.872   8.773  2.7269  2.5793  0.1556
  711MOL0     H93852  10.840   9.654   8.842  0.2170 -1.5824 -0.3629
  712MOL0     O93853   9.945   9.499   4.213 -1.0137 -0.4309  0.4353
  712MOL0     C93854  10.011   9.462   4.305 -0.5066  0.8089 -0.0009
  712MOL0     O93855   9.967   9.410   4.415 -1.1314  0.7374  0.1358
  712MOL0     C93856   9.834   9.363   4.423  0.3683  0.2248  0.4900
  712MOL0     C93857   9.736   9.450   4.481 -0.5247  1.2172  0.2319
  712MOL0     C93858   9.608   9.404   4.512  0.2229 -0.0237  0.2394
  712MOL0     C93859   9.560   9.280   4.465 -0.2978 -0.0760 -0.6634
  712MOL0     O93860   9.431   9.226   4.487  1.4943  0.2801  0.0718
  712MOL0     C93861   9.330   9.320   4.524  0.2745  0.8567  0.3895
  712MOL0     C93862   9.195   9.247   4.493  0.4122 -0.0532  0.4134
  712MOL0     C93863   9.080   9.322   4.568 -0.0985  0.3470 -0.4340
  712MOL0     C93864   8.945   9.255   4.539 -0.5964 -0.5372  0.1605
  712MOL0     C93865   8.828   9.320   4.618 -0.2761  0.4938 -0.1008
  712MOL0     C93866   8.702   9.260   4.557  0.4712  0.6742 -0.3055
  712MOL0     C93867   8.580   9.274   4.651  0.1341  0.7637  0.7683
  712MOL0     C93868   8.454   9.228   4.574  0.5832 -0.1398 -0.8338
  712MOL0     N93869   8.338   9.222   4.666 -0.0995  0.3673  0.8850
  712MOL0     C93870   8.277   9.112   4.728 -0.7056  0.6245  0.2249
  712MOL0     C93871   8.179   9.155   4.805  0.0431  0.1155  0.1185
  712MOL0     C93872   8.096   9.068   4.893 -0.5474  0.2220  0.1095
  712MOL0     C93873   7.943   9.100   4.886 -0.7349 -0.5088  0.5712
  712MOL0     C93874   7.898   9.073   4.743 -0.3266  0.1628 -0.3384
  712MOL0     C93875   7.752   9.066   4.732  0.2639 -0.5619  1.0224
  712MOL0     O93876   7.706   8.940   4.784  0.4193  0.2715  0.2739
  712MOL0     C93877   7.574   8.909   4.789 -0.2829 -0.1416  0.0416
  712MOL0     C93878   7.474   9.008   4.800  0.4039  0.7304  0.2192
  712MOL0     C93879   7.340   8.964   4.806  0.6131 -0.7664 -0.1631
  712MOL0     C93880   7.302   8.827   4.793  0.6314  0.0181  0.2595
  712MOL0     C93881   7.159   8.785   4.799 -0.1892  0.8209  0.4322
  712MOL0     O93882   7.066   8.875   4.845 -0.1631  0.1904 -0.7338
  712MOL0     C93883   6.938   8.830   4.856 -1.2228 -1.0403 -0.1249
  712MOL0     C93884   6.862   8.797   4.749 -0.2504 -0.1634  0.6062
  712MOL0     C93885   6.729   8.772   4.770  0.1304 -0.4510  0.2256
  712MOL0     C93886   6.677   8.739   4.895 -0.2177 -0.6063 -1.0828
  712MOL0     O93887   6.551   8.711   4.918  0.5440 -0.5181  0.3450
  712MOL0     C93888   6.465   8.686   4.806  0.1691 -0.1163 -0.0191
  712MOL0     C93889   6.326   8.616   4.846 -0.1040  0.1417  0.4498
  712MOL0     C93890   6.234   8.690   4.950 -0.1541 -0.4773 -0.4941
  712MOL0     C93891   6.111   8.609   4.990  0.1491  0.8594 -0.1020
  712MOL0     C93892   5.989   8.652   4.918  0.2232 -0.3640 -0.1928
  712MOL0     C93893   5.874   8.548   4.934  0.3487  0.1398 -0.3047
  712MOL0     C93894   5.756   8.592   4.842 -0.1340  0.2240 -0.4750
  712MOL0     C93895   5.773   8.524   4.704 -0.0025 -0.4481 -0.3041
  712MOL0    Cl93896   5.644   8.599   4.596  0.5198  0.1794  0.0761
  712MOL0     C93897   6.767   8.759   5.002  0.0145  0.9060 -0.2531
  712MOL0     C93898   6.898   8.803   4.988 -0.0330 -0.3928  0.8101
  712MOL0     O93899   7.136   8.673   4.755 -0.0483  0.1719  0.0223
  712MOL0     C93900   7.405   8.734   4.771  0.0265 -0.5310  0.4858
  712MOL0     C93901   7.542   8.773   4.772 -0.1378 -0.3777 -0.0156
  712MOL0     N93902   8.178   9.289   4.791  0.4436 -1.3483  0.2923
  712MOL0     N93903   8.274   9.332   4.706 -0.2206  0.0950 -0.3120
  712MOL0     C93904   9.660   9.200   4.406  0.2593  0.4163 -0.0781
  712MOL0     C93905   9.796   9.232   4.391 -0.1698  0.4432  0.2637
  712MOL0     C93906  10.159   9.483   4.298  0.3655 -0.0047 -0.2445
  712MOL0     C93907  10.251   9.450   4.392 -1.3930  0.0520 -0.4889
  712MOL0     C93908  10.381   9.477   4.377 -0.2796 -0.5071 -0.7035
  712MOL0     C93909  10.438   9.516   4.257 -0.3484  0.0569  0.4487
  712MOL0     O93910  10.573   9.510   4.247  0.4355 -0.2382  0.1110
  712MOL0     C93911  10.641   9.503   4.118  0.8163 -0.5522 -0.5454
  712MOL0     C93912  10.783   9.514   4.145  0.7098  0.1969  0.2087
  712MOL0     C93913  10.835   9.413   4.250 -1.0331 -0.5173 -0.8733
  712MOL0     C93914  10.983   9.407   4.232 -0.0108  0.1140 -0.1726
  712MOL0     C93915  11.025   9.325   4.119 -0.5461  0.3640  0.8536
  712MOL0     C93916  11.063   9.277   4.010 -0.6098  0.9500 -0.1468
  712MOL0     C93917  10.355   9.543   4.152  0.1276 -0.1922 -0.9414
  712MOL0     C93918  10.212   9.538   4.175  0.5133  0.0806  0.0738
  712MOL0     H93919   9.764   9.549   4.516  0.8442  1.0946 -0.4540
  712MOL0     H93920   9.548   9.477   4.565  1.7274  3.3381 -2.2937
  712MOL0     H93921   9.333   9.422   4.483  4.6314  0.8528  0.1733
  712MOL0     H93922   9.344   9.320   4.632  0.4295  0.6016  0.3695
  712MOL0     H93923   9.199   9.139   4.512 -0.0947 -0.4878 -1.6428
  712MOL0     H93924   9.177   9.252   4.385  0.3703 -0.6286  0.3898
  712MOL0     H93925   9.083   9.427   4.536 -0.0683  0.0469 -1.4276
  712MOL0     H93926   9.101   9.335   4.675 -0.4066  1.9434 -0.5332
  712MOL0     H93927   8.928   9.265   4.431  3.6805  1.7650 -0.5260
  712MOL0     H93928   8.944   9.153   4.578  0.3552 -0.6887 -0.1947
  712MOL0     H93929   8.822   9.429   4.621  2.6188  0.7372  0.6076
  712MOL0     H93930   8.837   9.292   4.724  1.8405  0.2497 -0.2966
  712MOL0     H93931   8.718   9.153   4.538 -1.5122  0.3926 -0.5338
  712MOL0     H93932   8.688   9.302   4.457 -0.5855 -1.6266 -1.1857
  712MOL0     H93933   8.590   9.202   4.732 -1.0535  0.0428  0.2976
  712MOL0     H93934   8.561   9.377   4.682 -2.5517  1.2956 -2.0953
  712MOL0     H93935   8.469   9.134   4.521 -2.2281 -0.6978 -0.8049
  712MOL0     H93936   8.431   9.311   4.507 -2.4458 -0.7966 -0.7611
  712MOL0     H93937   8.295   9.006   4.722 -2.8501  0.1998  0.5579
  712MOL0     H93938   8.125   9.085   4.997  0.2491  2.8432 -0.4533
  712MOL0     H93939   8.111   8.963   4.866 -1.5139  0.2797 -0.6913
  712MOL0     H93940   7.933   9.202   4.924 -0.3484 -0.6348  1.0234
  712MOL0     H93941   7.892   9.026   4.947 -0.1813 -0.4020  1.1733
  712MOL0     H93942   7.942   9.142   4.671  0.0446 -1.1125 -1.3753
  712MOL0     H93943   7.923   8.972   4.709 -2.3831 -1.0108  1.3774
  712MOL0     H93944   7.721   9.083   4.629  0.9371 -0.1155  0.8853
  712MOL0     H93945   7.728   9.156   4.790 -0.2286  0.7103 -1.0642
  712MOL0     H93946   7.495   9.114   4.806 -0.0534  1.0122 -2.0313
  712MOL0     H93947   7.261   9.037   4.822  0.4399 -1.5878  3.3796
  712MOL0     H93948   6.901   8.818   4.650  1.7831 -1.1050  1.1415
  712MOL0     H93949   6.659   8.781   4.687  1.6150  1.1555 -0.9371
  712MOL0     H93950   6.509   8.614   4.737 -1.2648 -1.7778  0.7023
  712MOL0     H93951   6.445   8.787   4.770  3.3759  0.8810  0.7390
  712MOL0     H93952   6.355   8.519   4.888  1.0076  0.9871  1.7439
  712MOL0     H93953   6.268   8.607   4.754 -0.4366  3.5668  0.2118
  712MOL0     H93954   6.197   8.783   4.905 -0.6708 -0.9636 -1.1074
  712MOL0     H93955   6.289   8.717   5.040 -1.8071  0.1711  0.3489
  712MOL0     H93956   6.135   8.505   4.963 -1.5032  0.4788 -0.2308
  712MOL0     H93957   6.094   8.621   5.097 -1.3493 -2.0893  0.1035
  712MOL0     H93958   5.999   8.673   4.811 -3.3256 -0.4807 -0.6904
  712MOL0     H93959   5.959   8.742   4.972  1.2309 -1.6799  2.7871
  712MOL0     H93960   5.840   8.550   5.038 -0.7068 -3.6891 -0.4396
  712MOL0     H93961   5.918   8.452   4.907  2.4524  1.5272 -2.2711
  712MOL0     H93962   5.664   8.552   4.886  1.6690  0.8400  4.4650
  712MOL0     H93963   5.745   8.700   4.834 -1.9987  0.1594  0.5142
  712MOL0     H93964   5.773   8.415   4.700  3.9948 -0.5743 -0.5275
  712MOL0     H93965   5.874   8.547   4.670  1.2044 -3.3886  0.9746
  712MOL0     H93966   6.721   8.750   5.100 -0.6540  0.3631 -0.6040
  712MOL0     H93967   6.970   8.803   5.069 -1.6358  0.4288  2.2994
  712MOL0     H93968   7.382   8.631   4.745 -0.7650 -0.3293  0.3735
  712MOL0     H93969   7.622   8.701   4.756  0.3190  0.4243 -1.5681
  712MOL0     H93970   9.630   9.097   4.390 -2.3987  1.0791  0.2157
  712MOL0     H93971   9.866   9.160   4.348  1.2056  1.3692  0.8945
  712MOL0     H93972  10.207   9.429   4.489 -1.1305  1.5124 -0.0269
  712MOL0     H93973  10.448   9.467   4.463 -1.0912  0.9569  0.1336
  712MOL0     H93974  10.617   9.587   4.052  0.4902 -0.3422 -0.1602
  712MOL0     H93975  10.612   9.415   4.060  1.0391 -0.5335 -0.6866
  712MOL0     H93976  10.830   9.506   4.047 -3.6202  0.8528 -2.1847
  712MOL0     H93977  10.801   9.615   4.181  1.1333  0.5503 -0.9714
  712MOL0     H93978  10.792   9.312   4.258  0.7665 -1.1543  3.3850
  712MOL0     H93979  10.820   9.457   4.349  3.8627  0.9288 -0.5429
  712MOL0     H93980  11.037   9.502   4.236  1.7054 -0.7353 -1.6966
  712MOL0     H93981  11.022   9.363   4.324  0.7164  0.6770 -0.2053
  712MOL0     H93982  11.099   9.249   3.914  0.0742  3.3966 -0.6776
  712MOL0     H93983  10.376   9.575   4.050 -0.7019 -1.8081 -1.6614
  712MOL0     H93984  10.156   9.589   4.098  0.9409 -1.4416 -1.2943
  713MOL0     O93985   2.887   6.029   4.995 -0.7166 -0.4605  0.6378
  713MOL0     C93986   2.872   5.957   4.892 -0.3117  0.3252  0.0523
  713MOL0     O93987   2.753   5.925   4.835 -0.1647 -0.3924  0.1498
  713MOL0     C93988   2.639   5.952   4.903 -0.5869 -0.9356  1.0679
  713MOL0     C93989   2.529   6.029   4.842 -0.1879  0.4354 -0.2944
  713MOL0     C93990   2.407   6.059   4.916 -0.2534 -0.8267 -0.2669
  713MOL0     C93991   2.397   6.023   5.048 -1.2488 -0.5465 -0.2256
  713MOL0     O93992   2.294   6.041   5.136  0.1380 -0.2366 -0.1477
  713MOL0     C93993   2.159   6.062   5.093  0.1405 -0.2137 -0.1839
  713MOL0     C93994   2.061   6.058   5.210 -0.4155 -1.1844 -0.2879
  713MOL0     C93995   1.943   6.153   5.181 -0.0436 -0.1698 -0.5410
  713MOL0     C93996   1.823   6.160   5.277 -0.6222 -0.1109 -0.1821
  713MOL0     C93997   1.714   6.244   5.219 -0.0371  0.1288  0.7497
  713MOL0     C93998   1.598   6.273   5.311 -0.1501  0.0540 -1.0977
  713MOL0     C93999   1.617   6.344   5.448  0.2325 -0.0435 -0.2477
  713MOL0     C94000   1.665   6.489   5.429 -0.0510 -0.5771  0.7340
  713MOL0     N94001   1.802   6.498   5.398 -0.8480 -0.1938 -0.7278
  713MOL0     C94002   1.856   6.539   5.279  0.8684  0.1617 -0.3196
  713MOL0     C94003   1.989   6.512   5.285  0.6662 -0.3450  0.6859
  713MOL0     C94004   2.096   6.550   5.182 -0.1593 -0.1752 -0.0848
  713MOL0     C94005   2.172   6.680   5.222 -0.4082  0.3076 -0.7069
  713MOL0     C94006   2.088   6.811   5.246  0.5488  0.8152  0.3840
  713MOL0     C94007   2.026   6.862   5.119 -0.1206  0.3163 -0.2385
  713MOL0     O94008   1.938   6.971   5.136 -0.3556 -0.0504  0.1471
  713MOL0     C94009   1.857   6.979   5.245 -0.0634 -0.3780  0.1177
  713MOL0     C94010   1.866   7.083   5.337 -1.0664 -0.2576 -0.0084
  713MOL0     C94011   1.763   7.119   5.428 -0.3829 -0.3901  0.1988
  713MOL0     C94012   1.660   7.029   5.435  0.4397  0.0442  0.3547
  713MOL0     C94013   1.546   7.048   5.526  0.1038 -0.3133  0.3561
  713MOL0     O94014   1.553   7.169   5.586  0.0717  0.2516 -0.2884
  713MOL0     C94015   1.456   7.216   5.675  0.6631 -0.1215  0.2340
  713MOL0     C94016   1.396   7.139   5.772 -0.3460  0.8315 -0.4316
  713MOL0     C94017   1.306   7.196   5.869  0.6590  0.4756  0.9716
  713MOL0     C94018   1.256   7.327   5.845  0.1614  0.7734  0.0024
  713MOL0     O94019   1.167   7.388   5.925  0.6336  0.2372 -0.1780
  713MOL0     C94020   1.058   7.311   5.977  0.8904  0.8090 -0.1140
  713MOL0     C94021   0.956   7.405   6.055  0.9661 -0.3312 -0.2503
  713MOL0     C94022   0.823   7.334   6.081  1.3254  0.0457 -0.0372
  713MOL0     C94023   0.715   7.434   6.141 -0.5392 -0.9940 -0.4575
  713MOL0     C94024   0.575   7.367   6.126  0.1442  0.0544 -0.2660
  713MOL0     C94025   0.470   7.458   6.173  0.4161 -0.1732  0.5134
  713MOL0     C94026   0.337   7.383   6.192  0.4624  0.1395 -0.3261
  713MOL0     C94027   0.224   7.486   6.233 -0.3165 -0.2579  0.7028
  713MOL0    Cl94028   0.075   7.398   6.286  0.0692 -0.0010  0.4029
  713MOL0     C94029   1.300   7.400   5.736  0.4745  0.0100 -0.1516
  713MOL0     C94030   1.402   7.349   5.646  0.3314 -0.9411 -0.5118
  713MOL0     O94031   1.450   6.963   5.541 -0.9491 -0.1641  0.0258
  713MOL0     C94032   1.646   6.916   5.345 -0.3040  0.1623 -0.0059
  713MOL0     C94033   1.750   6.897   5.254 -0.7413  0.1142 -0.1127
  713MOL0     N94034   2.018   6.456   5.403 -0.0938  0.4903 -0.0274
  713MOL0     N94035   1.908   6.444   5.472  0.4435 -0.2930 -0.0844
  713MOL0     C94036   2.507   5.961   5.109 -1.0235  0.5154 -0.4662
  713MOL0     C94037   2.618   5.920   5.037 -0.2386  0.8812  0.2588
  713MOL0     C94038   2.994   5.926   4.810  0.1737 -0.2334  0.0849
  713MOL0     C94039   2.999   5.859   4.689 -0.3251  0.0970  0.7674
  713MOL0     C94040   3.112   5.839   4.616  0.8775 -0.7611  0.3885
  713MOL0     C94041   3.235   5.874   4.681  0.4266  0.0133 -0.0396
  713MOL0     O94042   3.358   5.859   4.630 -0.5758  0.1509  0.3527
  713MOL0     C94043   3.398   5.741   4.546  0.3532 -0.0056 -0.4890
  713MOL0     C94044   3.538   5.751   4.502 -0.0147 -0.4641  0.5883
  713MOL0     C94045   3.562   5.866   4.401 -0.3707  0.5728  0.1607
  713MOL0     C94046   3.693   5.843   4.328 -0.1631 -0.1175 -0.0320
  713MOL0     C94047   3.718   5.958   4.245  0.5318  0.2825  0.2842
  713MOL0     C94048   3.757   6.052   4.174 -0.2505  0.5040 -0.4024
  713MOL0     C94049   3.243   5.944   4.799  0.7035 -0.5507  0.6668
  713MOL0     C94050   3.122   5.978   4.857 -0.0277  0.1198 -0.1075
  713MOL0     H94051   2.532   6.064   4.739 -0.9146 -0.9571 -0.8156
  713MOL0     H94052   2.319   6.104   4.872 -0.3597  0.5533  1.2597
  713MOL0     H94053   2.128   6.000   5.008 -0.1647 -0.1945 -0.0885
  713MOL0     H94054   2.163   6.168   5.064 -0.5307 -0.0671  0.2353
  713MOL0     H94055   2.115   6.090   5.300  2.0284  2.8907 -2.8945
  713MOL0     H94056   2.044   5.952   5.233  2.1581 -0.8631  4.2350
  713MOL0     H94057   1.900   6.115   5.088 -2.5890  0.9227  0.0943
  713MOL0     H94058   1.974   6.257   5.169  0.6853 -0.3545 -0.3025
  713MOL0     H94059   1.799   6.054   5.293 -0.7650 -0.1388 -0.5693
  713MOL0     H94060   1.856   6.211   5.368 -1.8304  1.5014 -0.6088
  713MOL0     H94061   1.674   6.194   5.130  2.1026 -1.1955  0.4772
  713MOL0     H94062   1.748   6.339   5.177  0.7218 -0.4078  0.1333
  713MOL0     H94063   1.549   6.177   5.331 -0.4310  0.5291  0.7126
  713MOL0     H94064   1.521   6.331   5.260 -1.7528 -1.7395 -0.8393
  713MOL0     H94065   1.523   6.341   5.504 -1.6006  0.7588 -3.0417
  713MOL0     H94066   1.686   6.292   5.515 -0.6257 -0.4916  0.3004
  713MOL0     H94067   1.639   6.543   5.520 -1.4401  0.1916 -0.0902
  713MOL0     H94068   1.609   6.543   5.352 -1.3923 -0.0216  2.0439
  713MOL0     H94069   1.802   6.598   5.205 -1.0076  1.0287  1.6305
  713MOL0     H94070   2.045   6.572   5.087 -0.3174  0.0319  0.0489
  713MOL0     H94071   2.168   6.467   5.183  0.8740  0.7109  0.4783
  713MOL0     H94072   2.245   6.701   5.144  0.8762  0.5589  0.5210
  713MOL0     H94073   2.232   6.661   5.312  2.5360  1.0639 -2.3913
  713MOL0     H94074   2.015   6.794   5.326 -1.7158  0.6907 -1.6016
  713MOL0     H94075   2.150   6.893   5.284  1.7365  0.4015 -0.5557
  713MOL0     H94076   1.965   6.780   5.079 -0.2268 -2.3491  4.6294
  713MOL0     H94077   2.108   6.901   5.057  3.1367  0.4787  3.7727
  713MOL0     H94078   1.958   7.140   5.330 -2.0871  1.4426 -0.2876
  713MOL0     H94079   1.785   7.206   5.489  0.7741  0.4741 -1.3536
  713MOL0     H94080   1.444   7.042   5.773  0.8413  1.3976 -1.0908
  713MOL0     H94081   1.268   7.158   5.964  0.5293  2.1834  1.6524
  713MOL0     H94082   1.101   7.238   6.046  1.2088  0.7859 -0.3328
  713MOL0     H94083   1.010   7.256   5.896 -0.4811 -1.2862  1.9956
  713MOL0     H94084   0.930   7.494   5.998  1.1504  0.9458  1.6021
  713MOL0     H94085   1.001   7.444   6.146  1.5660  1.5105 -1.2717
  713MOL0     H94086   0.836   7.254   6.155  0.3488 -1.0511 -1.0184
  713MOL0     H94087   0.793   7.296   5.984  2.5895 -0.5257 -0.2211
  713MOL0     H94088   0.738   7.449   6.247 -0.7279 -1.6184 -0.3234
  713MOL0     H94089   0.717   7.531   6.090  1.0953 -1.7533 -1.9561
  713MOL0     H94090   0.575   7.270   6.178 -2.0918 -0.6645 -1.4581
  713MOL0     H94091   0.565   7.339   6.020  1.6872  2.7028 -1.1916
  713MOL0     H94092   0.471   7.541   6.102  0.4377  0.4681  1.2445
  713MOL0     H94093   0.496   7.496   6.273  1.9259  0.6419 -0.1597
  713MOL0     H94094   0.305   7.334   6.100  3.6008 -0.4090 -1.2234
  713MOL0     H94095   0.352   7.311   6.273 -1.1075 -1.3117 -1.2588
  713MOL0     H94096   0.192   7.552   6.152  0.8637  1.7242  1.7822
  713MOL0     H94097   0.262   7.558   6.306  0.5059  0.1139 -0.0687
  713MOL0     H94098   1.249   7.492   5.711 -2.5901 -1.8244 -1.2833
  713MOL0     H94099   1.431   7.414   5.563 -3.0329  1.1769 -0.2090
  713MOL0     H94100   1.576   6.833   5.356 -0.5365  0.0024 -2.1914
  713MOL0     H94101   1.752   6.820   5.177  1.6981  1.4612 -1.5505
  713MOL0     H94102   2.497   5.954   5.217  2.3447  3.0349  0.1694
  713MOL0     H94103   2.688   5.849   5.080  1.8684 -0.2790 -4.4183
  713MOL0     H94104   2.911   5.811   4.649 -0.1879  1.1395 -0.9105
  713MOL0     H94105   3.107   5.806   4.513 -1.2308 -0.6930  0.4413
  713MOL0     H94106   3.325   5.737   4.464  0.4402  2.9969 -0.8440
  713MOL0     H94107   3.386   5.655   4.612 -2.8477  0.1996 -0.6177
  713MOL0     H94108   3.605   5.763   4.588  1.0567  1.1128 -0.4138
  713MOL0     H94109   3.564   5.655   4.455  2.5583  0.7167 -0.6350
  713MOL0     H94110   3.545   5.962   4.450 -0.7962 -0.1290  1.4569
  713MOL0     H94111   3.480   5.857   4.329  0.3235 -4.5481 -0.3596
  713MOL0     H94112   3.773   5.831   4.402  1.6770  1.4137 -1.6501
  713MOL0     H94113   3.698   5.750   4.272  1.2435  0.9143 -1.7231
  713MOL0     H94114   3.802   6.145   4.145 -0.5374  1.5947  2.3970
  713MOL0     H94115   3.342   5.969   4.836 -0.2666 -1.3559  4.2361
  713MOL0     H94116   3.125   6.032   4.951 -2.7868  0.5133 -0.1828
  714MOL0     O94117  10.370   5.910   3.717  0.1387 -0.4272 -0.9432
  714MOL0     C94118  10.366   6.007   3.643  0.3194  0.0644 -0.0887
  714MOL0     O94119  10.262   6.031   3.556  0.1702  0.1762  0.4397
  714MOL0     C94120  10.145   5.958   3.560  0.2964  0.3577 -0.2195
  714MOL0     C94121  10.025   6.038   3.553  0.4036  0.0917  0.1133
  714MOL0     C94122   9.896   5.975   3.551  0.2648 -0.1684  0.2425
  714MOL0     C94123   9.886   5.831   3.559  0.4790 -0.2294 -0.2271
  714MOL0     O94124   9.769   5.754   3.554  0.1906 -0.5192 -0.5182
  714MOL0     C94125   9.644   5.811   3.550  0.3154 -0.3892  0.0382
  714MOL0     C94126   9.602   5.845   3.401  0.6438 -0.1019 -0.2558
  714MOL0     C94127   9.488   5.948   3.398 -0.9652  0.0193 -0.2058
  714MOL0     C94128   9.365   5.892   3.469  0.0740  1.1909  0.0063
  714MOL0     C94129   9.239   5.972   3.434 -0.1311  0.4679 -0.2215
  714MOL0     C94130   9.108   5.907   3.487 -0.0362  0.4086 -0.3411
  714MOL0     C94131   8.982   5.933   3.399 -0.3236 -0.1417  1.0602
  714MOL0     C94132   8.916   6.070   3.415 -0.6987 -0.9305  0.1399
  714MOL0     N94133   8.801   6.080   3.323 -0.2401 -0.4216  0.4952
  714MOL0     C94134   8.812   6.089   3.185 -0.1110  0.0671 -0.5440
  714MOL0     C94135   8.686   6.101   3.141  0.1103 -0.8518  0.3812
  714MOL0     C94136   8.660   6.119   2.994  0.0540  0.6234 -0.0317
  714MOL0     C94137   8.532   6.197   2.972  0.1589  0.6829 -0.6657
  714MOL0     C94138   8.506   6.226   2.827  0.2095 -0.0541  0.7949
  714MOL0     C94139   8.361   6.274   2.812 -0.5231  0.0598 -0.4198
  714MOL0     O94140   8.264   6.174   2.858  0.2838  0.4901 -0.5089
  714MOL0     C94141   8.134   6.200   2.848  0.4937  0.5592 -0.4116
  714MOL0     C94142   8.062   6.311   2.819 -0.4168 -0.9545 -0.8382
  714MOL0     C94143   7.921   6.314   2.840 -0.1533 -0.4257  0.1923
  714MOL0     C94144   7.852   6.195   2.861 -0.6255  0.2357  0.7979
  714MOL0     C94145   7.702   6.190   2.865 -0.2055  0.4302  0.2099
  714MOL0     O94146   7.641   6.073   2.846 -0.0239 -0.1353  0.2471
  714MOL0     C94147   7.505   6.064   2.859 -0.2735  0.1721  0.1349
  714MOL0     C94148   7.447   5.985   2.764  0.8011  0.8578 -0.0286
  714MOL0     C94149   7.307   5.974   2.766  1.0011 -0.2609  1.0690
  714MOL0     C94150   7.228   6.028   2.873  0.5562 -0.0962 -0.3690
  714MOL0     O94151   7.089   6.025   2.865 -0.4419 -0.5713 -0.2161
  714MOL0     C94152   7.012   6.151   2.886  0.5289 -0.1839 -0.4244
  714MOL0     C94153   6.871   6.094   2.901 -0.1638 -0.3061 -0.0684
  714MOL0     C94154   6.847   6.038   3.046 -0.5832  0.1772  0.2611
  714MOL0     C94155   6.810   6.158   3.138 -0.4665  0.6245 -0.3411
  714MOL0     C94156   6.823   6.133   3.286 -0.3675  0.9562 -0.0630
  714MOL0     C94157   6.788   6.251   3.371  0.2141 -0.7819 -0.1279
  714MOL0     C94158   6.647   6.305   3.356  1.2124  0.2194 -0.1133
  714MOL0     C94159   6.627   6.422   3.457 -0.0886  1.0154 -0.3051
  714MOL0    Cl94160   6.696   6.570   3.378 -0.0912  0.1049 -0.1298
  714MOL0     C94161   7.294   6.091   2.978 -0.0803  0.3671  0.2695
  714MOL0     C94162   7.434   6.115   2.957  0.2860  0.3813  0.2630
  714MOL0     O94163   7.644   6.300   2.870  0.2097 -0.3667 -0.4731
  714MOL0     C94164   7.925   6.075   2.875  0.5648 -0.2092 -0.3448
  714MOL0     C94165   8.066   6.074   2.865  1.0140 -0.6079  0.3457
  714MOL0     N94166   8.594   6.093   3.243  0.1539  0.0032  0.6575
  714MOL0     N94167   8.670   6.073   3.346  0.0779 -0.6779  0.2281
  714MOL0     C94168  10.010   5.760   3.557 -0.0014  0.3043 -0.1177
  714MOL0     C94169  10.135   5.819   3.563 -0.7246 -0.8251  0.4193
  714MOL0     C94170  10.485   6.098   3.633 -0.2709 -0.4726  0.0043
  714MOL0     C94171  10.494   6.196   3.535  0.3486  0.8031  0.9148
  714MOL0     C94172  10.610   6.271   3.524  0.2529  0.7943 -0.2686
  714MOL0     C94173  10.719   6.246   3.603 -0.3958 -0.3176 -0.4968
  714MOL0     O94174  10.823   6.328   3.572  0.4116 -0.5339  0.9210
  714MOL0     C94175  10.949   6.324   3.641 -0.2318  0.8010 -0.7963
  714MOL0     C94176  11.037   6.437   3.592 -1.2209  0.6052  0.4221
  714MOL0     C94177  11.140   6.381   3.491  0.0541 -0.2207  0.7718
  714MOL0     C94178  11.084   6.354   3.339 -0.3881 -0.9990 -0.2772
  714MOL0     C94179  11.198   6.340   3.245  0.5668  0.0735  0.3272
  714MOL0     C94180  11.288   6.333   3.167 -0.1948 -0.1046  0.0973
  714MOL0     C94181  10.716   6.151   3.710 -0.3355 -0.2157  1.5902
  714MOL0     C94182  10.597   6.079   3.718  0.5886 -0.2592  0.0413
  714MOL0     H94183  10.035   6.146   3.541  2.2993  0.0426  0.9124
  714MOL0     H94184   9.807   6.037   3.541  0.7549  1.0205  2.4319
  714MOL0     H94185   9.628   5.894   3.619 -0.8449 -0.8884  0.3954
  714MOL0     H94186   9.577   5.730   3.581 -2.9401  1.0281 -2.6054
  714MOL0     H94187   9.574   5.753   3.349  0.3892  0.6657 -1.5471
  714MOL0     H94188   9.676   5.891   3.335  0.2489 -2.1272 -2.2223
  714MOL0     H94189   9.460   5.963   3.294 -2.0783 -1.0656 -0.0890
  714MOL0     H94190   9.518   6.043   3.442  0.2774 -1.2870  1.9556
  714MOL0     H94191   9.357   5.786   3.443  3.4951  0.6614  0.5356
  714MOL0     H94192   9.380   5.899   3.577  2.2086 -0.6562 -0.0877
  714MOL0     H94193   9.234   5.977   3.325 -0.9463 -0.4118 -0.2356
  714MOL0     H94194   9.242   6.077   3.465  0.2871  0.8651 -1.5186
  714MOL0     H94195   9.105   5.937   3.592  2.9392 -0.0385 -0.0643
  714MOL0     H94196   9.127   5.799   3.488  3.0059  0.8606  0.1723
  714MOL0     H94197   9.003   5.918   3.292  1.4564  0.5927  1.2709
  714MOL0     H94198   8.902   5.861   3.418 -0.8778  0.6336  1.7177
  714MOL0     H94199   8.996   6.143   3.402 -0.7584 -0.7305  0.8580
  714MOL0     H94200   8.876   6.085   3.516  0.9833 -2.1153  1.0222
  714MOL0     H94201   8.908   6.087   3.135  1.2182 -1.9498  1.8777
  714MOL0     H94202   8.638   6.025   2.944 -3.3280  1.4844 -0.4110
  714MOL0     H94203   8.749   6.167   2.950  0.2008 -0.1460 -0.5876
  714MOL0     H94204   8.536   6.294   3.022  0.9007 -0.9190  2.6462
  714MOL0     H94205   8.453   6.130   3.007 -0.6285  0.1853 -3.1370
  714MOL0     H94206   8.576   6.303   2.792  0.3521 -0.1776  0.8043
  714MOL0     H94207   8.520   6.138   2.763 -0.9085  0.3892 -0.0821
  714MOL0     H94208   8.336   6.299   2.708  2.3826 -2.0371 -1.7467
  714MOL0     H94209   8.342   6.357   2.881 -0.7896 -0.4382  0.1098
  714MOL0     H94210   8.111   6.403   2.788  1.0542 -0.8544  1.5749
  714MOL0     H94211   7.869   6.409   2.828 -3.4974 -1.9665  1.4318
  714MOL0     H94212   7.502   5.933   2.686 -0.1506 -1.0944  0.5573
  714MOL0     H94213   7.267   5.915   2.684  4.0593 -2.3430  0.8831
  714MOL0     H94214   7.014   6.216   2.799  1.7862  0.2409 -0.1076
  714MOL0     H94215   7.052   6.213   2.967 -2.1583  1.3861 -0.1995
  714MOL0     H94216   6.849   6.016   2.828 -1.4137  0.7758 -0.8970
  714MOL0     H94217   6.800   6.174   2.877  1.8924  1.3674 -0.8942
  714MOL0     H94218   6.933   5.987   3.090 -0.1211 -0.1346 -0.9793
  714MOL0     H94219   6.768   5.963   3.036 -1.8493  1.6125 -0.9215
  714MOL0     H94220   6.872   6.246   3.117  1.1069 -0.5997 -1.0478
  714MOL0     H94221   6.709   6.191   3.113 -1.5800 -1.2295  1.4128
  714MOL0     H94222   6.928   6.106   3.303  0.0810  0.9903 -2.4467
  714MOL0     H94223   6.761   6.048   3.314  0.7701 -0.9961 -3.0333
  714MOL0     H94224   6.850   6.341   3.358 -2.0152  1.0921  1.3714
  714MOL0     H94225   6.798   6.220   3.475 -1.4055 -2.2164 -0.3623
  714MOL0     H94226   6.617   6.336   3.256 -1.3244 -2.0886 -0.1797
  714MOL0     H94227   6.577   6.232   3.399  1.2150  0.5273  0.4331
  714MOL0     H94228   6.676   6.389   3.549 -0.4808 -0.2358 -0.5222
  714MOL0     H94229   6.519   6.439   3.471  0.3031  2.7090  1.1245
  714MOL0     H94230   7.246   6.149   3.056 -0.4270 -0.2314  0.5067
  714MOL0     H94231   7.491   6.164   3.035  2.5042 -1.0658 -0.3685
  714MOL0     H94232   7.883   5.977   2.895  1.2912 -0.2403  1.1530
  714MOL0     H94233   8.114   5.979   2.882  1.4478 -0.2454  1.2590
  714MOL0     H94234  10.014   5.653   3.571 -0.5522  0.0296 -1.9133
  714MOL0     H94235  10.229   5.765   3.566  0.1031  0.5920  1.3593
  714MOL0     H94236  10.416   6.217   3.463  1.7189  0.8143 -0.6156
  714MOL0     H94237  10.630   6.341   3.443 -0.8628 -0.4569 -1.6754
  714MOL0     H94238  11.000   6.230   3.621  0.0981  1.2121 -1.9890
  714MOL0     H94239  10.945   6.344   3.748 -2.5330  0.8164 -0.8371
  714MOL0     H94240  10.976   6.514   3.546 -2.9425 -0.4334  0.8558
  714MOL0     H94241  11.096   6.477   3.676 -1.2066 -0.1440  0.7881
  714MOL0     H94242  11.197   6.294   3.524  1.3431 -0.1447 -1.0885
  714MOL0     H94243  11.213   6.462   3.485 -0.6899  0.5032  1.2624
  714MOL0     H94244  11.028   6.260   3.337 -0.5268 -0.9002 -1.5267
  714MOL0     H94245  11.030   6.444   3.307 -0.4606 -0.8160  0.3313
  714MOL0     H94246  11.361   6.317   3.090  1.2995  0.5982  1.3317
  714MOL0     H94247  10.805   6.134   3.769  2.6455  0.7365 -2.1974
  714MOL0     H94248  10.596   5.998   3.790 -2.4062 -0.7137 -0.3572
  715MOL0     O94249   9.628   6.110   4.512  0.3525  0.5946 -0.1307
  715MOL0     C94250   9.628   6.207   4.438 -0.0702 -0.8879 -0.7594
  715MOL0     O94251   9.523   6.253   4.362 -0.0589  0.7912 -0.1287
  715MOL0     C94252   9.395   6.214   4.393  0.0298  0.3113 -0.6531
  715MOL0     C94253   9.339   6.243   4.516  1.3821 -0.6111 -0.0606
  715MOL0     C94254   9.199   6.219   4.534 -0.3058 -0.4420  0.3256
  715MOL0     C94255   9.121   6.175   4.422  0.0131  1.0588  0.2395
  715MOL0     O94256   8.995   6.146   4.446  0.1480 -0.4347  0.2343
  715MOL0     C94257   8.903   6.259   4.441 -0.7288  0.4883  0.4417
  715MOL0     C94258   8.799   6.266   4.329  0.6799  1.2289 -0.3587
  715MOL0     C94259   8.685   6.364   4.370  0.0210  0.1444  0.8137
  715MOL0     C94260   8.611   6.319   4.497  0.8501  0.4819 -1.3966
  715MOL0     C94261   8.466   6.359   4.492  0.4702  0.3449  0.7402
  715MOL0     C94262   8.384   6.249   4.421  0.0243 -0.2084 -0.5415
  715MOL0     C94263   8.228   6.278   4.430 -0.3502  0.5722 -0.0148
  715MOL0     C94264   8.183   6.406   4.363  0.6923  0.1107 -0.6176
  715MOL0     N94265   8.046   6.407   4.318 -0.3448  0.0563 -0.2696
  715MOL0     C94266   7.937   6.362   4.393 -0.0905 -0.1418 -0.3250
  715MOL0     C94267   7.830   6.379   4.316 -0.3723  1.0283  0.0367
  715MOL0     C94268   7.694   6.372   4.363 -0.4554 -0.7937  0.5782
  715MOL0     C94269   7.593   6.385   4.249  0.4094  0.0299 -0.1110
  715MOL0     C94270   7.441   6.371   4.288 -0.5724 -0.8664 -0.8388
  715MOL0     C94271   7.353   6.333   4.168 -0.8265 -0.6096 -0.7204
  715MOL0     O94272   7.217   6.312   4.209  0.1262  0.1215  0.2314
  715MOL0     C94273   7.134   6.264   4.110  0.5833 -0.5921 -0.3705
  715MOL0     C94274   7.159   6.258   3.975 -0.7910 -0.1457 -0.6564
  715MOL0     C94275   7.068   6.191   3.892  0.7323 -0.7023 -0.4979
  715MOL0     C94276   6.952   6.128   3.937  1.1783  0.0527  0.5741
  715MOL0     C94277   6.860   6.038   3.856  0.5091  0.4181  0.3972
  715MOL0     O94278   6.905   6.000   3.734  0.5775 -0.1449  0.1113
  715MOL0     C94279   6.840   5.898   3.677 -0.5475  0.1759 -0.0342
  715MOL0     C94280   6.856   5.764   3.701 -0.6194  0.7257 -0.8410
  715MOL0     C94281   6.785   5.666   3.635 -0.5753  0.4411  0.1291
  715MOL0     C94282   6.694   5.690   3.529  0.7013  0.2565 -0.2404
  715MOL0     O94283   6.625   5.596   3.448 -0.4011 -0.3135  0.1552
  715MOL0     C94284   6.620   5.460   3.481 -0.0429 -0.2237  0.0996
  715MOL0     C94285   6.479   5.407   3.474 -0.4418 -0.1910 -0.7356
  715MOL0     C94286   6.473   5.260   3.510 -0.4669 -0.0606 -0.0154
  715MOL0     C94287   6.325   5.219   3.517 -0.7840  0.2225 -0.7838
  715MOL0     C94288   6.314   5.076   3.562  0.2424  0.6892  0.3852
  715MOL0     C94289   6.174   5.045   3.609 -0.4653  0.3975 -0.2753
  715MOL0     C94290   6.152   4.894   3.620  0.0719  0.1818 -0.8700
  715MOL0     C94291   6.211   4.831   3.750  0.2381  0.4381 -0.1539
  715MOL0    Cl94292   6.204   4.651   3.741  0.5488  0.1558 -0.3972
  715MOL0     C94293   6.665   5.823   3.520 -0.1435 -0.3079 -0.4619
  715MOL0     C94294   6.737   5.928   3.585 -0.3034  0.4790 -0.2156
  715MOL0     O94295   6.745   6.009   3.897  0.2270 -0.0314 -0.3144
  715MOL0     C94296   6.930   6.150   4.074  0.2500 -0.6660 -0.0803
  715MOL0     C94297   7.009   6.219   4.156 -1.0893  0.3704  0.9931
  715MOL0     N94298   7.874   6.425   4.192  0.0061  0.4459 -0.3876
  715MOL0     N94299   8.007   6.450   4.197  0.2981 -0.1657 -0.7404
  715MOL0     C94300   9.182   6.147   4.295  0.2813  0.0208 -0.3160
  715MOL0     C94301   9.316   6.159   4.288  0.4184 -0.7564  1.1797
  715MOL0     C94302   9.763   6.274   4.431 -0.1731  1.0002  0.1042
  715MOL0     C94303   9.863   6.257   4.530 -0.4059 -0.2375 -0.6812
  715MOL0     C94304   9.980   6.327   4.537 -0.2600 -0.8569 -0.6175
  715MOL0     C94305  10.016   6.415   4.429 -0.6347 -0.9070  0.5812
  715MOL0     O94306  10.134   6.489   4.416 -0.1978  0.2212  0.5376
  715MOL0     C94307  10.236   6.482   4.521 -0.1283 -0.6403  0.4456
  715MOL0     C94308  10.359   6.566   4.482 -0.0651 -0.4314 -0.2568
  715MOL0     C94309  10.433   6.513   4.355  0.0732  0.6842 -0.6473
  715MOL0     C94310  10.547   6.604   4.312 -0.2817  0.4170  0.4316
  715MOL0     C94311  10.670   6.588   4.389 -0.2533 -0.1995 -0.2480
  715MOL0     C94312  10.779   6.551   4.431 -0.5194 -0.3254  0.4642
  715MOL0     C94313   9.921   6.433   4.322 -0.1160  0.7328 -0.1289
  715MOL0     C94314   9.794   6.361   4.325 -0.9366 -0.5711 -0.2744
  715MOL0     H94315   9.390   6.280   4.604 -1.3211  2.2181  0.4615
  715MOL0     H94316   9.152   6.228   4.632 -1.2438  0.2142 -0.1590
  715MOL0     H94317   8.964   6.349   4.456 -0.2294  0.1442  0.4662
  715MOL0     H94318   8.851   6.240   4.536 -0.3424  0.3723  0.6292
  715MOL0     H94319   8.769   6.162   4.310  2.6182  1.0207 -2.8024
  715MOL0     H94320   8.843   6.300   4.235  0.8832  1.8912 -0.0264
  715MOL0     H94321   8.622   6.381   4.281  2.1681  0.9004 -0.6433
  715MOL0     H94322   8.726   6.462   4.398 -3.6604  1.5658  1.8597
  715MOL0     H94323   8.619   6.211   4.513 -0.1953  0.8529  2.4338
  715MOL0     H94324   8.655   6.380   4.576  2.7160  0.3142 -2.2573
  715MOL0     H94325   8.448   6.452   4.437  1.2352 -0.4174 -0.8697
  715MOL0     H94326   8.428   6.385   4.592 -0.5374  3.7198 -0.3821
  715MOL0     H94327   8.408   6.157   4.475  3.4528  0.8897 -0.0008
  715MOL0     H94328   8.408   6.241   4.314 -0.2610  3.0482 -0.9332
  715MOL0     H94329   8.183   6.191   4.381  0.6219  1.4062 -2.5475
  715MOL0     H94330   8.196   6.269   4.534  1.2388 -1.4667  0.3537
  715MOL0     H94331   8.244   6.430   4.276  1.6980  0.1533  0.0775
  715MOL0     H94332   8.197   6.481   4.441 -0.1719 -0.2332 -0.1179
  715MOL0     H94333   7.934   6.316   4.492  0.2375 -2.7754 -1.4481
  715MOL0     H94334   7.690   6.464   4.421 -0.1879 -0.5814  0.2648
  715MOL0     H94335   7.670   6.282   4.421  0.7166 -0.9787  0.8025
  715MOL0     H94336   7.614   6.305   4.177 -2.9643 -4.3388  3.2092
  715MOL0     H94337   7.596   6.483   4.202 -2.4539 -0.2894 -1.1503
  715MOL0     H94338   7.438   6.291   4.363 -2.0045 -0.7126 -0.6905
  715MOL0     H94339   7.408   6.465   4.333 -1.1827 -1.9927  1.1964
  715MOL0     H94340   7.391   6.241   4.123  0.6219 -1.1023  1.3720
  715MOL0     H94341   7.372   6.401   4.085 -0.1102 -0.2617 -0.2771
  715MOL0     H94342   7.244   6.310   3.933 -0.4652  0.8876  1.1690
  715MOL0     H94343   7.089   6.181   3.786  0.6380  1.2414 -0.7242
  715MOL0     H94344   6.939   5.739   3.767 -0.1154  4.8314  0.3416
  715MOL0     H94345   6.806   5.561   3.654  2.3655  0.8238 -0.5603
  715MOL0     H94346   6.647   5.447   3.587  1.0778  0.2847 -0.1115
  715MOL0     H94347   6.690   5.403   3.420  1.5555  0.9490  0.7718
  715MOL0     H94348   6.433   5.420   3.375 -2.0129 -1.2921 -0.1951
  715MOL0     H94349   6.423   5.470   3.544 -0.3217  3.3593 -3.5189
  715MOL0     H94350   6.509   5.250   3.613 -2.7403  1.9155  1.0578
  715MOL0     H94351   6.524   5.196   3.437  0.6696 -0.2065  0.8819
  715MOL0     H94352   6.269   5.274   3.593 -3.5814 -0.9358 -1.8511
  715MOL0     H94353   6.269   5.226   3.423  2.2203  1.3666 -2.6100
  715MOL0     H94354   6.386   5.063   3.644 -0.8007  3.4691  1.8820
  715MOL0     H94355   6.334   5.014   3.474 -2.4360 -0.5366  0.5628
  715MOL0     H94356   6.098   5.083   3.540  0.5168  1.0727 -1.0188
  715MOL0     H94357   6.151   5.088   3.707  1.6829  0.4126  0.2583
  715MOL0     H94358   6.043   4.886   3.623 -0.1674  2.5282 -1.1285
  715MOL0     H94359   6.198   4.833   3.542  4.0592 -0.8331  1.9612
  715MOL0     H94360   6.165   4.873   3.839 -0.6654  1.3005 -1.0117
  715MOL0     H94361   6.318   4.852   3.742  0.9844 -2.8877 -0.3947
  715MOL0     H94362   6.587   5.853   3.451 -0.5241  0.7822  0.4139
  715MOL0     H94363   6.698   6.029   3.577 -1.5106  0.0243 -0.2984
  715MOL0     H94364   6.842   6.093   4.099 -0.5673 -0.8388 -3.0732
  715MOL0     H94365   6.979   6.211   4.260  0.6647 -0.1717  1.4971
  715MOL0     H94366   9.121   6.105   4.215 -0.3282 -0.5855  0.4374
  715MOL0     H94367   9.358   6.123   4.195 -1.7109 -1.3462  0.3862
  715MOL0     H94368   9.838   6.188   4.610 -0.8427 -1.0305 -1.4836
  715MOL0     H94369  10.053   6.320   4.617 -0.3191  1.7781 -0.2311
  715MOL0     H94370  10.268   6.379   4.535  2.9157 -0.1687 -2.0550
  715MOL0     H94371  10.195   6.512   4.618 -0.5784 -0.6229  0.2536
  715MOL0     H94372  10.328   6.671   4.474  3.1659  1.2232  4.5685
  715MOL0     H94373  10.423   6.571   4.570 -1.8197 -1.2336  1.1312
  715MOL0     H94374  10.364   6.505   4.270  2.2087  0.8135 -2.4841
  715MOL0     H94375  10.470   6.411   4.366  1.2838  1.1205 -0.5216
  715MOL0     H94376  10.572   6.584   4.208  0.8851  1.2756  0.5268
  715MOL0     H94377  10.526   6.711   4.312  0.5805  0.5926  0.4854
  715MOL0     H94378  10.869   6.512   4.472 -0.2552  1.1476  1.3512
  715MOL0     H94379   9.943   6.494   4.235  3.1884  0.3910  0.3653
  715MOL0     H94380   9.725   6.371   4.242 -0.1961  0.5544 -0.7843
  716MOL0     O94381  10.324  10.329  11.098 -0.0664 -0.4796  0.5444
  716MOL0     C94382  10.397  10.333  10.999 -0.1337 -0.7978  0.6376
  716MOL0     O94383  10.364  10.289  10.879 -0.7889 -0.2126 -0.1378
  716MOL0     C94384  10.240  10.237  10.868  0.2705  0.1910 -0.6006
  716MOL0     C94385  10.219  10.096  10.869  0.1064  0.4903  0.4550
  716MOL0     C94386  10.088  10.045  10.852 -1.3890 -0.4570 -0.1974
  716MOL0     C94387   9.979  10.122  10.825  0.3221  0.6513  0.7103
  716MOL0     O94388   9.847  10.084  10.802 -0.4844  0.7408  0.5032
  716MOL0     C94389   9.805   9.950  10.830  0.6870  0.2389 -0.1268
  716MOL0     C94390   9.652   9.959  10.846 -0.8844  0.1964  0.1561
  716MOL0     C94391   9.585   9.978  10.712 -0.4656  0.7855  0.2265
  716MOL0     C94392   9.445  10.022  10.730  0.0597 -0.0367 -0.0579
  716MOL0     C94393   9.354   9.963  10.628 -0.0943  0.1061 -0.3360
  716MOL0     C94394   9.206   9.998  10.651 -0.1136  0.2583 -0.1330
  716MOL0     C94395   9.140  10.013  10.518 -0.0703 -0.6920  0.4364
  716MOL0     C94396   8.996  10.047  10.534 -0.4565  0.4466  0.1166
  716MOL0     N94397   8.932  10.083  10.405  0.2996  0.1080 -0.9160
  716MOL0     C94398   8.861   9.993  10.327  0.1595 -0.3738  0.6846
  716MOL0     C94399   8.777  10.067  10.253  0.0522 -0.5241 -0.8585
  716MOL0     C94400   8.697  10.016  10.137  0.2320 -0.7028 -0.1796
  716MOL0     C94401   8.550  10.001  10.164 -0.0945 -0.0666 -0.2420
  716MOL0     C94402   8.481   9.933  10.057  1.0057  0.3946  0.2719
  716MOL0     C94403   8.371   9.829  10.095 -0.2141 -0.0914  0.3129
  716MOL0     O94404   8.255   9.906  10.098  0.1192  0.1607  0.3102
  716MOL0     C94405   8.163   9.907   9.994  0.8098  0.1275 -0.2448
  716MOL0     C94406   8.074  10.014  10.016 -0.0971 -0.1636  0.5134
  716MOL0     C94407   7.964  10.029   9.927  0.2996 -1.1511  0.3755
  716MOL0     C94408   7.954   9.953   9.812  0.0810  1.6117  0.9850
  716MOL0     C94409   7.847   9.982   9.714 -0.4712 -0.1157 -0.2679
  716MOL0     O94410   7.747  10.070   9.758  0.1913  0.3518  0.4519
  716MOL0     C94411   7.634  10.077   9.685 -0.1308  0.4951 -0.4288
  716MOL0     C94412   7.595  10.195   9.635 -0.1435 -0.1903 -0.2605
  716MOL0     C94413   7.478  10.191   9.555 -0.5926 -0.3761 -0.5590
  716MOL0     C94414   7.404  10.065   9.534 -0.8583 -0.8131  0.4973
  716MOL0     O94415   7.290  10.070   9.459  0.0403  0.1984 -0.1569
  716MOL0     C94416   7.177  10.075   9.546  0.2539 -0.5880  0.5594
  716MOL0     C94417   7.062  10.148   9.474  0.3410 -0.2288  0.5148
  716MOL0     C94418   6.985  10.063   9.375 -0.0768  0.3177  0.3553
  716MOL0     C94419   6.846  10.110   9.330  0.8711  0.0310  0.4293
  716MOL0     C94420   6.786  10.039   9.202  0.3596 -0.3770 -0.0494
  716MOL0     C94421   6.631  10.056   9.195 -0.6258  0.3516  0.3928
  716MOL0     C94422   6.587  10.198   9.232  0.2159 -1.3862  0.0664
  716MOL0     C94423   6.431  10.220   9.217 -0.2957  0.2589 -0.4334
  716MOL0    Cl94424   6.356  10.097   9.320 -0.0351  0.4314 -0.4010
  716MOL0     C94425   7.448   9.945   9.592  0.7267  0.1968  0.3132
  716MOL0     C94426   7.557   9.958   9.676 -0.3435 -0.1415  0.0442
  716MOL0     O94427   7.866   9.947   9.599 -0.3022 -0.2475  0.2752
  716MOL0     C94428   8.054   9.852   9.792  1.1120  0.1655 -0.3645
  716MOL0     C94429   8.158   9.827   9.886  0.1813 -0.5378  0.0835
  716MOL0     N94430   8.803  10.205  10.283 -0.4055 -0.7813  0.0198
  716MOL0     N94431   8.881  10.204  10.387 -0.2119 -0.1847  0.5340
  716MOL0     C94432  10.002  10.263  10.838  0.3810 -0.6521 -0.6120
  716MOL0     C94433  10.129  10.320  10.866  0.5085  0.2582  0.5587
  716MOL0     C94434  10.519  10.412  11.016 -0.2605  0.8511  0.1787
  716MOL0     C94435  10.596  10.422  11.134  0.2782  0.7854  0.1068
  716MOL0     C94436  10.716  10.501  11.143  0.9165  0.1992  0.2263
  716MOL0     C94437  10.770  10.559  11.022  0.3314 -0.0699  0.2323
  716MOL0     O94438  10.887  10.622  10.994  0.0276  0.4232 -0.8341
  716MOL0     C94439  10.980  10.618  11.097  0.5268 -0.5400 -0.4553
  716MOL0     C94440  11.095  10.715  11.070  0.6926  0.6605 -0.6640
  716MOL0     C94441  11.183  10.659  10.959  0.8635 -0.1570  0.0053
  716MOL0     C94442  11.321  10.727  10.935 -0.2760  0.9051  0.3016
  716MOL0     C94443  11.434  10.640  10.970  0.0718  0.1329  0.4325
  716MOL0     C94444  11.519  10.566  11.013  0.0381  0.6858  0.4490
  716MOL0     C94445  10.695  10.549  10.910  0.5303 -0.7925 -0.4753
  716MOL0     C94446  10.572  10.477  10.903 -0.8820  0.4635  0.4745
  716MOL0     H94447  10.306  10.031  10.872  0.2575  0.6980  0.6362
  716MOL0     H94448  10.075   9.938  10.869 -0.8647 -0.2615  1.5731
  716MOL0     H94449   9.847   9.933  10.929 -0.0453  1.5589  0.4305
  716MOL0     H94450   9.840   9.875  10.758  0.6418 -0.0745  0.1758
  716MOL0     H94451   9.643  10.044  10.914  0.9446  1.0400 -0.5778
  716MOL0     H94452   9.623   9.865  10.894 -1.2775  0.2967  0.1174
  716MOL0     H94453   9.582   9.883  10.659 -2.5277  0.5218  0.7423
  716MOL0     H94454   9.642  10.052  10.656 -0.2727 -0.7505 -1.6841
  716MOL0     H94455   9.406   9.994  10.828  1.2062 -0.3766  0.3178
  716MOL0     H94456   9.453  10.130  10.718 -0.4887  0.0294  0.1317
  716MOL0     H94457   9.367   9.855  10.624 -0.1724  0.0086  1.3962
  716MOL0     H94458   9.382  10.008  10.533 -0.1431  0.0985 -0.3537
  716MOL0     H94459   9.185  10.088  10.710 -3.2645  0.0219 -0.6718
  716MOL0     H94460   9.147   9.933  10.717  2.5123  0.7806  2.9722
  716MOL0     H94461   9.182  10.100  10.467 -2.3443  0.6849  0.7754
  716MOL0     H94462   9.150   9.922  10.457  0.9159  1.3760 -2.7131
  716MOL0     H94463   9.005  10.142  10.588 -0.0749  1.4467 -1.5999
  716MOL0     H94464   8.938   9.970  10.584 -2.1218  0.2805 -1.9444
  716MOL0     H94465   8.859   9.885  10.338 -0.5323 -0.6861 -1.9703
  716MOL0     H94466   8.730   9.917  10.105  2.6297  0.3236 -1.1366
  716MOL0     H94467   8.713  10.094  10.062 -1.4480 -0.8840 -0.7611
  716MOL0     H94468   8.508  10.101  10.183  1.4016  0.4099  0.7514
  716MOL0     H94469   8.547   9.941  10.255  1.5407 -0.2210 -0.2660
  716MOL0     H94470   8.449  10.004   9.980  0.6980 -0.1479 -0.1147
  716MOL0     H94471   8.550   9.871   9.998  0.2920  0.8811 -1.1367
  716MOL0     H94472   8.395   9.790  10.194  3.7287  0.6709 -0.1714
  716MOL0     H94473   8.374   9.748  10.022 -2.6222  1.6817 -1.9484
  716MOL0     H94474   8.089  10.076  10.104  0.6699 -1.0373  1.0148
  716MOL0     H94475   7.887  10.102   9.950  1.6720 -0.2806  2.4185
  716MOL0     H94476   7.643  10.290   9.656  2.5749 -1.3212 -1.0027
  716MOL0     H94477   7.438  10.287   9.526 -0.6801 -0.6111 -1.2452
  716MOL0     H94478   7.201  10.133   9.635 -1.3033  1.1010 -0.0590
  716MOL0     H94479   7.144   9.974   9.575  0.6186 -0.8819 -0.0282
  716MOL0     H94480   7.099  10.239   9.426  0.1317  0.8768  2.3566
  716MOL0     H94481   6.990  10.169   9.553 -2.8805 -0.0230 -2.2404
  716MOL0     H94482   6.974   9.967   9.426  2.5837  0.2926  1.0297
  716MOL0     H94483   7.052  10.053   9.289  2.3723 -3.8456  2.3957
  716MOL0     H94484   6.780  10.076   9.411  0.3670  0.7219  0.3185
  716MOL0     H94485   6.836  10.218   9.318  1.5493  0.0272 -0.2410
  716MOL0     H94486   6.809   9.933   9.210  4.0300  0.1551 -1.4353
  716MOL0     H94487   6.832  10.072   9.108 -0.5878  1.0830 -0.0514
  716MOL0     H94488   6.600   9.985   9.271  1.6264  0.8394  1.8428
  716MOL0     H94489   6.586  10.022   9.101  0.6672  2.0644 -0.9362
  716MOL0     H94490   6.614  10.217   9.336 -0.7069 -0.3140  0.1345
  716MOL0     H94491   6.646  10.271   9.176  0.0837 -2.3149 -1.3312
  716MOL0     H94492   6.415  10.186   9.114 -1.8032 -2.8182  0.6936
  716MOL0     H94493   6.396  10.323   9.231  1.4343  1.3988 -3.3790
  716MOL0     H94494   7.380   9.862   9.579  0.2963  0.1546  2.4449
  716MOL0     H94495   7.600   9.878   9.737 -1.7271 -0.2841  0.8828
  716MOL0     H94496   8.054   9.786   9.705  1.3311 -0.9139  0.4369
  716MOL0     H94497   8.242   9.758   9.877  1.6230  1.0600  0.7358
  716MOL0     H94498   9.916  10.327  10.822 -0.6183 -2.1589 -1.4968
  716MOL0     H94499  10.162  10.424  10.869  2.7332 -0.1980 -2.7619
  716MOL0     H94500  10.544  10.400  11.227  0.5545 -0.4598 -0.0085
  716MOL0     H94501  10.769  10.503  11.238  0.7176  1.4073  0.3280
  716MOL0     H94502  11.008  10.514  11.116  1.2299 -0.3729 -0.5427
  716MOL0     H94503  10.942  10.661  11.190  2.1193  0.2163 -0.1117
  716MOL0     H94504  11.060  10.814  11.040  0.5934 -0.1067 -3.3200
  716MOL0     H94505  11.149  10.736  11.163 -1.6399  2.0480  0.4735
  716MOL0     H94506  11.120  10.665  10.869  0.7522  0.8261  0.1415
  716MOL0     H94507  11.197  10.551  10.973  2.1644  0.2929  2.7950
  716MOL0     H94508  11.327  10.754  10.829 -2.4370 -5.9675 -2.1343
  716MOL0     H94509  11.321  10.821  10.992  2.0118  2.3346 -1.8123
  716MOL0     H94510  11.595  10.500  11.050  1.0085  1.7075  0.3160
  716MOL0     H94511  10.729  10.593  10.817  0.9756 -2.3274 -1.0658
  716MOL0     H94512  10.527  10.468  10.805  1.1081  0.0172 -0.4437
  717MOL0     O94513   2.675   6.447   3.392  0.2888 -0.0191 -0.8169
  717MOL0     C94514   2.741   6.483   3.496 -0.3479  0.4656  1.0155
  717MOL0     O94515   2.704   6.461   3.628 -0.6036 -1.0929 -0.1597
  717MOL0     C94516   2.576   6.427   3.661 -0.1736  0.1416  0.2032
  717MOL0     C94517   2.555   6.348   3.775  0.7361  0.1258  0.1703
  717MOL0     C94518   2.418   6.333   3.814 -0.1035  0.3002 -0.4618
  717MOL0     C94519   2.313   6.392   3.744 -0.5032  0.2155 -0.3434
  717MOL0     O94520   2.192   6.368   3.805 -0.2432 -0.2731 -0.2989
  717MOL0     C94521   2.080   6.377   3.716  0.1118  0.2590  1.3773
  717MOL0     C94522   2.077   6.271   3.600  0.2389  0.3638 -0.5788
  717MOL0     C94523   2.107   6.135   3.652  0.1446 -0.5496 -0.3831
  717MOL0     C94524   2.092   6.044   3.533  0.5157  0.0746 -0.0051
  717MOL0     C94525   2.146   5.898   3.554  0.1792 -1.0798 -0.2433
  717MOL0     C94526   2.087   5.821   3.672 -0.2709  0.1780  1.0099
  717MOL0     C94527   1.943   5.798   3.630  0.5854 -0.2819 -0.3092
  717MOL0     C94528   1.863   5.723   3.741 -0.9854 -0.6636 -0.8128
  717MOL0     N94529   1.729   5.671   3.711  0.4177  0.8069 -0.1114
  717MOL0     C94530   1.693   5.540   3.682 -0.4560  0.1413  0.0192
  717MOL0     C94531   1.564   5.546   3.659 -0.8454 -0.1324 -0.4984
  717MOL0     C94532   1.481   5.428   3.621  0.8839  0.1506 -0.3161
  717MOL0     C94533   1.455   5.326   3.733  0.2912 -0.1574  0.1519
  717MOL0     C94534   1.350   5.222   3.693  0.0663  0.7982 -0.3586
  717MOL0     C94535   1.274   5.171   3.818  0.4093 -1.1347 -0.0591
  717MOL0     O94536   1.144   5.139   3.771  0.3306 -0.5872 -0.0196
  717MOL0     C94537   1.055   5.098   3.866  0.2912 -0.1384 -1.1906
  717MOL0     C94538   1.081   5.082   4.003  0.3507  0.0726  0.7291
  717MOL0     C94539   0.986   5.026   4.093 -1.1976 -0.1064  0.3867
  717MOL0     C94540   0.858   5.004   4.045  0.1752  0.5194  0.4386
  717MOL0     C94541   0.752   4.946   4.127  0.3697 -0.1042 -0.6408
  717MOL0     O94542   0.638   4.915   4.078 -0.5935  0.4421 -0.2285
  717MOL0     C94543   0.531   4.886   4.161 -0.7968  0.5345  0.8439
  717MOL0     C94544   0.516   4.763   4.229 -1.2729  0.3196 -0.5266
  717MOL0     C94545   0.424   4.752   4.329  0.4568  0.0044  0.0191
  717MOL0     C94546   0.321   4.851   4.347  0.8649 -0.1068 -0.9939
  717MOL0     O94547   0.213   4.816   4.431 -0.3955  0.2703  0.7266
  717MOL0     C94548   0.100   4.903   4.432 -0.0547 -0.1184 -0.3619
  717MOL0     C94549  -0.011   4.828   4.508  0.1710  0.3148 -0.0831
  717MOL0     C94550  -0.133   4.919   4.550 -0.9285  0.4580 -0.5506
  717MOL0     C94551  -0.241   4.852   4.633  0.4202  0.5418  0.4836
  717MOL0     C94552  -0.369   4.833   4.560  0.0032  0.2092 -0.8881
  717MOL0     C94553  -0.468   4.747   4.639 -0.4854 -0.4566  0.1442
  717MOL0     C94554  -0.601   4.787   4.589 -0.1961  0.0126  0.0875
  717MOL0     C94555  -0.708   4.709   4.659  0.7087  0.3493 -0.4044
  717MOL0    Cl94556  -0.861   4.782   4.618  0.1278 -0.4084  0.0305
  717MOL0     C94557   0.332   4.963   4.266  0.0625 -0.0116  1.4647
  717MOL0     C94558   0.435   4.983   4.176  0.5547 -0.4859 -0.2795
  717MOL0     O94559   0.774   4.930   4.244  0.0716 -0.1572  0.1012
  717MOL0     C94560   0.823   5.041   3.915 -0.4219  1.0114 -0.1831
  717MOL0     C94561   0.923   5.079   3.826  0.7621 -0.5317  0.2704
  717MOL0     N94562   1.516   5.677   3.667 -1.1906 -0.3961  0.2078
  717MOL0     N94563   1.617   5.746   3.693  0.5481 -0.2490  0.2269
  717MOL0     C94564   2.333   6.473   3.637 -0.6193  0.0105 -0.0548
  717MOL0     C94565   2.470   6.492   3.596  0.3836 -0.3713 -0.4430
  717MOL0     C94566   2.854   6.569   3.482 -0.4298 -0.7008 -0.3378
  717MOL0     C94567   2.935   6.600   3.600  0.2538 -0.2795  0.6550
  717MOL0     C94568   3.030   6.703   3.578 -0.2707 -0.0944 -0.3129
  717MOL0     C94569   3.054   6.761   3.460 -0.6738  0.1744  1.1503
  717MOL0     O94570   3.158   6.854   3.454 -0.2304  1.0483 -0.2887
  717MOL0     C94571   3.207   6.933   3.339 -0.8091  0.7565  0.1184
  717MOL0     C94572   3.316   6.873   3.262  0.9508 -0.6124 -0.5156
  717MOL0     C94573   3.465   6.902   3.303  0.1562  0.3387 -0.0189
  717MOL0     C94574   3.492   6.887   3.458 -0.1875 -0.0342  0.2105
  717MOL0     C94575   3.634   6.872   3.481  0.0573  0.4609 -0.3439
  717MOL0     C94576   3.750   6.892   3.488 -0.4701 -0.1972  0.3843
  717MOL0     C94577   2.980   6.725   3.347  0.6701  0.2602 -0.3705
  717MOL0     C94578   2.871   6.638   3.357 -0.1157 -0.0790 -0.8992
  717MOL0     H94579   2.638   6.305   3.829  0.9340  0.3805  0.0758
  717MOL0     H94580   2.394   6.280   3.906 -1.5877  0.9319 -0.4421
  717MOL0     H94581   2.071   6.472   3.662  1.9795 -1.4187 -2.3239
  717MOL0     H94582   1.991   6.375   3.779 -2.0957  0.5759 -1.5280
  717MOL0     H94583   2.144   6.297   3.518  1.3591 -0.7204 -0.0364
  717MOL0     H94584   1.973   6.280   3.568 -0.9958 -2.1092  2.2257
  717MOL0     H94585   2.024   6.114   3.720 -1.7665  1.7039 -1.8804
  717MOL0     H94586   2.205   6.119   3.699 -0.4374 -1.3815  0.5732
  717MOL0     H94587   1.987   6.046   3.505  0.6924  0.1007 -0.6726
  717MOL0     H94588   2.144   6.076   3.442 -0.8478  0.5515 -0.6417
  717MOL0     H94589   2.252   5.914   3.571  0.1145  1.1439 -1.6527
  717MOL0     H94590   2.125   5.842   3.463  2.1169 -1.0720 -0.7283
  717MOL0     H94591   2.101   5.875   3.766  1.5914 -0.7742  1.3265
  717MOL0     H94592   2.139   5.725   3.680  0.6136  0.3314 -1.8484
  717MOL0     H94593   1.894   5.893   3.606  1.0226  0.3490  1.1719
  717MOL0     H94594   1.947   5.735   3.541  1.8775 -0.9933  0.2305
  717MOL0     H94595   1.860   5.794   3.824  0.9596 -0.9480 -0.4579
  717MOL0     H94596   1.925   5.645   3.786 -1.1666  1.3676  3.4520
  717MOL0     H94597   1.756   5.452   3.676 -0.8371 -0.0519 -1.6628
  717MOL0     H94598   1.532   5.373   3.542  2.3616 -0.2002  0.8350
  717MOL0     H94599   1.379   5.462   3.597  0.1929 -1.5018  0.1296
  717MOL0     H94600   1.442   5.376   3.829 -0.7930  0.4578 -0.2975
  717MOL0     H94601   1.549   5.273   3.747  0.9154  0.6547 -0.8650
  717MOL0     H94602   1.278   5.266   3.624 -1.3297  3.9634  2.8395
  717MOL0     H94603   1.400   5.137   3.645  3.5698  0.9226  2.6186
  717MOL0     H94604   1.266   5.249   3.893  0.2403 -0.4120 -0.8171
  717MOL0     H94605   1.328   5.087   3.863 -1.6585 -0.9710  3.0004
  717MOL0     H94606   1.180   5.104   4.041  0.2050  2.1060  0.0100
  717MOL0     H94607   1.007   5.009   4.198 -1.6279 -0.3003  0.4445
  717MOL0     H94608   0.585   4.683   4.202  1.4704  1.8824  1.2726
  717MOL0     H94609   0.434   4.660   4.384  0.8284 -0.2257 -0.4273
  717MOL0     H94610   0.067   4.927   4.331 -0.8171 -2.2613 -0.6768
  717MOL0     H94611   0.114   4.997   4.486 -1.3003 -0.1551  0.0525
  717MOL0     H94612   0.031   4.782   4.598  1.9974  1.6362 -0.2015
  717MOL0     H94613  -0.038   4.751   4.436 -0.1031  1.7672 -1.5932
  717MOL0     H94614  -0.169   4.963   4.456 -1.6246  0.2818 -0.3726
  717MOL0     H94615  -0.093   5.003   4.608 -0.1560 -0.7277  0.6730
  717MOL0     H94616  -0.200   4.755   4.662 -0.9463  0.0546  0.8675
  717MOL0     H94617  -0.258   4.911   4.723  0.4409  0.9647  0.2155
  717MOL0     H94618  -0.356   4.787   4.461 -1.0417  0.0378 -0.9535
  717MOL0     H94619  -0.403   4.934   4.536  1.9936  1.1168 -0.1514
  717MOL0     H94620  -0.459   4.773   4.744 -1.8927  0.9144 -0.0292
  717MOL0     H94621  -0.433   4.644   4.625  1.4572 -0.1304  2.0931
  717MOL0     H94622  -0.608   4.893   4.617  1.4251 -0.0765  0.9460
  717MOL0     H94623  -0.613   4.778   4.481  0.5075 -1.2783  0.0930
  717MOL0     H94624  -0.698   4.707   4.768  0.5307  0.5955 -0.3829
  717MOL0     H94625  -0.704   4.605   4.624  0.9122  0.1967  0.0679
  717MOL0     H94626   0.260   5.043   4.273 -0.5872 -0.6545  2.2809
  717MOL0     H94627   0.419   5.067   4.109  0.0132 -1.0972 -0.9328
  717MOL0     H94628   0.727   5.018   3.869 -0.2314  1.2572 -0.7154
  717MOL0     H94629   0.908   5.077   3.718  2.8348 -0.5379 -0.0554
  717MOL0     H94630   2.250   6.524   3.588 -3.0188 -1.8178  1.8261
  717MOL0     H94631   2.500   6.569   3.524  0.3143 -1.2200 -1.4079
  717MOL0     H94632   2.909   6.553   3.694 -0.4854  1.6063  1.4563
  717MOL0     H94633   3.084   6.735   3.667  0.1284  0.1698 -0.6495
  717MOL0     H94634   3.248   7.031   3.367  2.6463 -0.2824 -0.8550
  717MOL0     H94635   3.130   6.945   3.262  0.5483  0.7790 -1.2845
  717MOL0     H94636   3.295   6.766   3.270 -2.4568  0.0863  1.9198
  717MOL0     H94637   3.307   6.902   3.157  0.3259 -0.7789 -0.5092
  717MOL0     H94638   3.493   7.002   3.267  2.0994 -0.4755 -0.9052
  717MOL0     H94639   3.531   6.830   3.255 -0.6817  0.5802 -1.6050
  717MOL0     H94640   3.469   6.973   3.521 -0.1085 -0.5203  0.9136
  717MOL0     H94641   3.434   6.802   3.494 -3.0211  1.1291 -1.3200
  717MOL0     H94642   3.852   6.922   3.492 -0.7771  0.9983 -0.2678
  717MOL0     H94643   2.990   6.759   3.244 -2.6812 -2.0870 -1.6789
  717MOL0     H94644   2.804   6.620   3.274  1.2873  1.8006 -2.5089
  718MOL0     O94645  11.096   6.636   1.189 -0.6658  0.0795 -0.6882
  718MOL0     C94646  11.066   6.691   1.082 -0.3632 -0.7675  0.1974
  718MOL0     O94647  10.936   6.712   1.042  0.0109 -0.4440  0.5076
  718MOL0     C94648  10.841   6.654   1.118  0.1525 -0.2718  0.0187
  718MOL0     C94649  10.838   6.520   1.161 -0.5358  1.0814 -0.3457
  718MOL0     C94650  10.730   6.459   1.237  0.0468 -0.5418 -0.4832
  718MOL0     C94651  10.615   6.540   1.257 -0.0251 -0.1986 -0.9930
  718MOL0     O94652  10.494   6.494   1.316  0.0294  0.5095  0.3490
  718MOL0     C94653  10.488   6.350   1.318 -0.0236  0.3156  1.3976
  718MOL0     C94654  10.349   6.320   1.375 -0.8673  0.0762  0.0065
  718MOL0     C94655  10.330   6.327   1.526 -1.0391  0.1907  0.0023
  718MOL0     C94656  10.206   6.260   1.575  0.0219 -0.4252  0.7691
  718MOL0     C94657  10.188   6.268   1.728 -0.4903 -0.0595  0.0204
  718MOL0     C94658  10.092   6.373   1.784 -0.2614 -0.4092 -1.2966
  718MOL0     C94659   9.947   6.374   1.758 -0.0548  1.0118 -0.0051
  718MOL0     C94660   9.873   6.482   1.841 -0.4214  0.2195 -0.6042
  718MOL0     N94661   9.745   6.504   1.773 -0.0886  0.3652 -0.5189
  718MOL0     C94662   9.643   6.414   1.777 -0.2969 -0.2229  0.4181
  718MOL0     C94663   9.569   6.440   1.664 -0.0025 -0.3402  0.5951
  718MOL0     C94664   9.446   6.375   1.611  0.7986  0.6378 -0.0092
  718MOL0     C94665   9.316   6.453   1.635 -0.1605 -0.3144  0.2847
  718MOL0     C94666   9.300   6.491   1.783  0.1675 -0.1721 -0.1854
  718MOL0     C94667   9.168   6.546   1.819 -0.3099  0.1569 -0.0088
  718MOL0     O94668   9.071   6.450   1.841  0.5240  0.2329  0.4553
  718MOL0     C94669   8.958   6.443   1.765  0.7357 -0.4928  0.8718
  718MOL0     C94670   8.950   6.474   1.626 -0.3958  0.5556 -0.2648
  718MOL0     C94671   8.821   6.487   1.574 -0.9584 -0.3571  0.1283
  718MOL0     C94672   8.702   6.459   1.647  0.0773  0.0298  0.2827
  718MOL0     C94673   8.568   6.450   1.589 -0.1472  1.6215 -0.7373
  718MOL0     O94674   8.480   6.364   1.649 -0.9456  0.6186 -0.0927
  718MOL0     C94675   8.347   6.364   1.631  0.9198  0.5097 -0.0068
  718MOL0     C94676   8.270   6.470   1.572  0.1233 -0.9191  0.3425
  718MOL0     C94677   8.131   6.467   1.559 -0.3547 -0.2657 -0.2397
  718MOL0     C94678   8.058   6.364   1.619  0.7060 -0.5377  0.3527
  718MOL0     O94679   7.919   6.375   1.620  0.5350 -0.2002  0.4913
  718MOL0     C94680   7.860   6.257   1.565  0.0368  0.1382  0.7480
  718MOL0     C94681   7.716   6.295   1.533 -0.0646  0.1540 -0.1146
  718MOL0     C94682   7.625   6.164   1.522  0.1827 -0.9920 -0.0183
  718MOL0     C94683   7.478   6.193   1.536  0.9389  0.3742 -0.3208
  718MOL0     C94684   7.400   6.067   1.512  0.2320 -0.0518  0.1439
  718MOL0     C94685   7.256   6.101   1.520  0.2161  0.6030 -0.1161
  718MOL0     C94686   7.170   5.971   1.499 -0.0055  0.5630 -0.0477
  718MOL0     C94687   7.029   6.006   1.451  0.7945  0.0118 -0.3119
  718MOL0    Cl94688   6.960   5.851   1.378 -0.2709 -0.3289 -0.3167
  718MOL0     C94689   8.128   6.256   1.672  0.0618 -0.4261 -0.2465
  718MOL0     C94690   8.269   6.246   1.677  0.3989  0.3297  0.6993
  718MOL0     O94691   8.548   6.514   1.485  0.0191 -0.4961 -0.8379
  718MOL0     C94692   8.717   6.442   1.785  0.0743 -0.2857 -0.1336
  718MOL0     C94693   8.839   6.432   1.843 -0.2550 -0.6073 -0.3624
  718MOL0     N94694   9.628   6.551   1.600 -0.7831 -0.0251  0.5164
  718MOL0     N94695   9.724   6.590   1.670 -0.0036  0.2528 -0.1505
  718MOL0     C94696  10.616   6.672   1.207 -0.4984  0.0741  0.0047
  718MOL0     C94697  10.726   6.720   1.143 -0.0007 -0.6532  0.2229
  718MOL0     C94698  11.171   6.731   0.978  0.6903 -0.0012 -0.1313
  718MOL0     C94699  11.305   6.706   1.006 -0.6782 -0.7571 -0.2275
  718MOL0     C94700  11.402   6.724   0.903 -0.0810 -1.1978  0.5540
  718MOL0     C94701  11.368   6.797   0.786  0.1171  0.9500 -0.1913
  718MOL0     O94702  11.460   6.809   0.691 -0.5892  0.0249  1.1694
  718MOL0     C94703  11.461   6.943   0.630 -0.0271 -0.5638  0.3826
  718MOL0     C94704  11.547   6.952   0.506  0.3270  0.4510  0.4930
  718MOL0     C94705  11.486   6.882   0.386 -0.2020 -0.1240 -0.5108
  718MOL0     C94706  11.565   6.862   0.253  0.3553  0.1084  0.3746
  718MOL0     C94707  11.685   6.783   0.271  0.1083  0.5684 -0.6900
  718MOL0     C94708  11.795   6.730   0.297  0.1154 -0.0878  0.6759
  718MOL0     C94709  11.235   6.834   0.763 -0.1492  0.2734 -0.1957
  718MOL0     C94710  11.138   6.790   0.858  0.4975  0.1062  0.3779
  718MOL0     H94711  10.931   6.465   1.160 -0.8169  0.6113 -1.0370
  718MOL0     H94712  10.748   6.363   1.286  2.6065  0.6968  1.2304
  718MOL0     H94713  10.572   6.306   1.372  2.4767  4.2435  1.0848
  718MOL0     H94714  10.484   6.305   1.218  0.4595  0.2478  1.4089
  718MOL0     H94715  10.309   6.224   1.339  3.1771 -0.9879 -2.4298
  718MOL0     H94716  10.276   6.389   1.332 -1.4424  0.8465  2.1228
  718MOL0     H94717  10.334   6.430   1.563 -0.2791 -0.2036  1.0920
  718MOL0     H94718  10.407   6.264   1.572 -0.5227 -0.4020 -1.5996
  718MOL0     H94719  10.118   6.306   1.527 -0.8487 -0.7339  2.0305
  718MOL0     H94720  10.206   6.154   1.547  0.8372  0.2391 -2.1085
  718MOL0     H94721  10.287   6.270   1.773 -0.5845 -2.2612  0.4587
  718MOL0     H94722  10.140   6.173   1.755  4.6506 -3.1049 -0.2305
  718MOL0     H94723  10.130   6.469   1.748 -0.0278  0.1024  0.2181
  718MOL0     H94724  10.112   6.354   1.890  1.1796  0.5810 -1.3526
  718MOL0     H94725   9.938   6.379   1.650  2.3369 -2.6905 -0.5280
  718MOL0     H94726   9.903   6.278   1.786 -1.6152  1.6240 -0.2494
  718MOL0     H94727   9.934   6.572   1.835  1.8508 -1.1585  0.3877
  718MOL0     H94728   9.848   6.462   1.945 -2.4366 -1.0393 -1.2662
  718MOL0     H94729   9.624   6.328   1.841  1.5007 -1.2281 -0.3152
  718MOL0     H94730   9.424   6.278   1.657 -2.0683  0.4918 -1.4616
  718MOL0     H94731   9.455   6.364   1.503  0.6412  0.0265  0.0364
  718MOL0     H94732   9.232   6.390   1.604  1.0334 -2.0067  0.3665
  718MOL0     H94733   9.308   6.540   1.569 -1.5536 -1.0474 -0.5663
  718MOL0     H94734   9.325   6.404   1.845  1.0296 -0.0897 -0.4047
  718MOL0     H94735   9.362   6.577   1.808  0.8220 -0.9198  0.9013
  718MOL0     H94736   9.139   6.601   1.729 -1.6841  1.6421  1.2766
  718MOL0     H94737   9.168   6.613   1.905 -0.6793 -0.6857  0.6689
  718MOL0     H94738   9.036   6.485   1.561 -1.6195 -0.8476 -2.2300
  718MOL0     H94739   8.828   6.504   1.467  1.6133  0.8642  0.4206
  718MOL0     H94740   8.319   6.558   1.532 -0.2143 -1.0479 -0.3719
  718MOL0     H94741   8.082   6.555   1.521  1.6895  2.1798  2.3506
  718MOL0     H94742   7.873   6.169   1.628  0.0985  0.8139  1.6873
  718MOL0     H94743   7.913   6.229   1.473 -0.2939  0.1190  0.5606
  718MOL0     H94744   7.715   6.346   1.437  4.2115  0.8081 -0.0121
  718MOL0     H94745   7.686   6.365   1.612  1.5767  1.2896 -0.4413
  718MOL0     H94746   7.654   6.107   1.610  0.3195  1.6237  1.7674
  718MOL0     H94747   7.648   6.122   1.424  2.1541  0.6873 -0.3598
  718MOL0     H94748   7.444   6.236   1.631 -2.8814  0.1578 -1.4082
  718MOL0     H94749   7.450   6.271   1.464 -1.5207 -0.6888 -0.6229
  718MOL0     H94750   7.419   5.994   1.591 -4.0630 -0.8826  0.6066
  718MOL0     H94751   7.437   6.026   1.417  2.9126  0.5206  0.8404
  718MOL0     H94752   7.234   6.177   1.445 -0.5752  0.8495  0.3609
  718MOL0     H94753   7.238   6.142   1.620  2.3343 -1.1457  1.0773
  718MOL0     H94754   7.213   5.910   1.419 -0.7219 -0.4840  0.3459
  718MOL0     H94755   7.182   5.903   1.584  0.2682  1.0546  0.3094
  718MOL0     H94756   7.028   6.080   1.371  0.3748 -1.0303 -1.2915
  718MOL0     H94757   6.969   6.037   1.537 -1.7940  0.1002 -2.0398
  718MOL0     H94758   8.070   6.175   1.715 -3.0890  0.8233 -1.8649
  718MOL0     H94759   8.317   6.155   1.712  0.8869  1.8062  4.2336
  718MOL0     H94760   8.624   6.430   1.840 -0.5281 -1.0120 -1.2842
  718MOL0     H94761   8.852   6.418   1.950 -0.1963  0.4025 -0.2269
  718MOL0     H94762  10.532   6.740   1.222  1.3764  3.1365 -2.0903
  718MOL0     H94763  10.721   6.826   1.122 -1.3105 -0.4990  1.1855
  718MOL0     H94764  11.332   6.685   1.109  0.9799  1.6536 -0.0714
  718MOL0     H94765  11.509   6.708   0.906  1.4635  5.1727 -2.8008
  718MOL0     H94766  11.498   7.014   0.705 -2.0681 -0.7210  1.6478
  718MOL0     H94767  11.362   6.983   0.605  1.2998  2.2792 -0.6981
  718MOL0     H94768  11.563   7.054   0.471  0.4863 -0.0796 -1.0349
  718MOL0     H94769  11.641   6.897   0.518  0.2305 -0.5422 -2.4972
  718MOL0     H94770  11.395   6.940   0.368 -0.4499 -0.1293  0.6656
  718MOL0     H94771  11.448   6.783   0.413  0.1006  0.2810  1.5286
  718MOL0     H94772  11.503   6.811   0.179  0.2675 -1.2139  1.3266
  718MOL0     H94773  11.601   6.958   0.215  1.0644 -1.3523 -3.0047
  718MOL0     H94774  11.891   6.689   0.322  0.2662  0.2858  0.7128
  718MOL0     H94775  11.203   6.894   0.679 -1.2961 -1.3248 -0.9397
  718MOL0     H94776  11.032   6.809   0.846  0.5407  0.0019 -0.1768
  719MOL0     O94777   1.823   7.742   7.253 -0.2269 -0.2640 -0.2641
  719MOL0     C94778   1.788   7.863   7.256  0.0667 -0.1689  0.2955
  719MOL0     O94779   1.864   7.966   7.216 -0.3776  0.2827  0.2745
  719MOL0     C94780   1.990   7.950   7.172 -0.3742 -0.3549  0.6893
  719MOL0     C94781   2.011   7.873   7.049 -0.8468 -1.4920 -0.5429
  719MOL0     C94782   2.143   7.864   7.000  0.4323  0.0919 -0.1588
  719MOL0     C94783   2.256   7.915   7.071  0.0683  0.4195 -0.1154
  719MOL0     O94784   2.384   7.890   7.034 -0.2179  0.4921  0.1448
  719MOL0     C94785   2.404   7.816   6.912  0.6389  0.4862  0.7212
  719MOL0     C94786   2.553   7.793   6.875  0.0390 -0.2309 -0.1681
  719MOL0     C94787   2.615   7.924   6.838 -0.0469 -0.3248  0.0412
  719MOL0     C94788   2.768   7.911   6.836 -0.6089  0.2905 -0.4514
  719MOL0     C94789   2.813   7.836   6.712 -0.4218  0.2713  1.0948
  719MOL0     C94790   2.965   7.848   6.685  0.6379 -0.3726 -0.0666
  719MOL0     C94791   3.061   7.787   6.792  0.6480  0.1141  0.2926
  719MOL0     C94792   3.063   7.638   6.820  0.4263  0.7939  0.2171
  719MOL0     N94793   3.148   7.590   6.930 -0.0169 -0.2544 -1.0253
  719MOL0     C94794   3.123   7.635   7.061 -0.2255 -0.0130  0.9390
  719MOL0     C94795   3.220   7.579   7.141 -0.0254  0.5712  0.4804
  719MOL0     C94796   3.242   7.599   7.286 -0.5354 -0.5375 -0.3119
  719MOL0     C94797   3.172   7.503   7.383  0.2491 -0.7506  0.3302
  719MOL0     C94798   3.030   7.459   7.345 -0.2688  0.2193  0.4491
  719MOL0     C94799   2.952   7.382   7.447 -0.0251 -0.2888  0.0429
  719MOL0     O94800   2.913   7.477   7.551 -0.1520 -0.1548  0.3974
  719MOL0     C94801   2.808   7.451   7.629 -0.5575  0.2317 -0.5826
  719MOL0     C94802   2.687   7.507   7.597  0.2847  0.2961  0.3291
  719MOL0     C94803   2.573   7.483   7.673 -0.5992 -0.2532 -0.1789
  719MOL0     C94804   2.584   7.397   7.784  1.0663 -0.1174 -0.4327
  719MOL0     C94805   2.467   7.365   7.873 -0.1797 -0.2143 -0.8391
  719MOL0     O94806   2.481   7.285   7.983 -0.3168 -0.0748 -0.0372
  719MOL0     C94807   2.367   7.245   8.048 -0.2813  0.4921  0.5023
  719MOL0     C94808   2.286   7.155   7.982 -0.5740  0.5971  0.2904
  719MOL0     C94809   2.163   7.122   8.041 -0.1569 -0.5698  1.6691
  719MOL0     C94810   2.121   7.170   8.161 -0.1954 -0.1410 -0.0721
  719MOL0     O94811   2.010   7.112   8.212  0.4647  0.0343 -0.3114
  719MOL0     C94812   1.966   7.146   8.347 -0.1229  0.1358  0.0234
  719MOL0     C94813   1.875   7.034   8.389  0.8416  0.4324  0.0141
  719MOL0     C94814   1.731   7.051   8.344 -0.4774  0.1743  0.3225
  719MOL0     C94815   1.641   6.927   8.391 -0.1939  0.4074  0.0986
  719MOL0     C94816   1.582   6.933   8.532  0.9243  0.2608  0.8280
  719MOL0     C94817   1.533   6.797   8.576 -0.2636 -0.2664 -0.3708
  719MOL0     C94818   1.420   6.752   8.488 -0.0058 -0.1207 -0.7664
  719MOL0     C94819   1.323   6.663   8.575 -0.5049 -0.0312  0.6771
  719MOL0    Cl94820   1.185   6.609   8.476  0.3386 -0.5532  0.2042
  719MOL0     C94821   2.204   7.263   8.231  0.1954  0.1087 -0.0888
  719MOL0     C94822   2.320   7.302   8.169 -0.1447  1.1337 -0.7256
  719MOL0     O94823   2.367   7.434   7.849  0.1313  0.4558  0.1573
  719MOL0     C94824   2.707   7.335   7.814 -0.4304 -0.2028  0.1679
  719MOL0     C94825   2.821   7.371   7.738  0.3555  0.2543  1.0563
  719MOL0     N94826   3.295   7.499   7.054  0.6544  0.0267  0.1137
  719MOL0     N94827   3.252   7.511   6.931 -0.4636 -0.3738 -0.3527
  719MOL0     C94828   2.235   7.990   7.185 -0.0400 -0.2850 -0.2977
  719MOL0     C94829   2.102   8.006   7.243  0.0899 -0.7065  0.4093
  719MOL0     C94830   1.641   7.898   7.289 -0.4755  0.7194  0.7711
  719MOL0     C94831   1.591   8.026   7.276  0.6749  0.1032 -0.2903
  719MOL0     C94832   1.450   8.052   7.294 -1.0725  0.0512  0.2368
  719MOL0     C94833   1.363   7.949   7.335 -0.3745 -0.1848 -0.1022
  719MOL0     O94834   1.224   7.971   7.364  0.3124  0.1684  0.1529
  719MOL0     C94835   1.177   8.100   7.341  0.9148  0.3163  0.1133
  719MOL0     C94836   1.027   8.088   7.336  0.5928  0.1403  0.0490
  719MOL0     C94837   0.970   8.046   7.470  0.0289 -0.0048  0.1891
  719MOL0     C94838   0.812   8.059   7.463 -0.6788 -0.2452  0.5258
  719MOL0     C94839   0.760   8.031   7.594  0.5718 -0.2321 -0.5785
  719MOL0     C94840   0.726   8.018   7.707  0.6041 -0.1084  0.2475
  719MOL0     C94841   1.420   7.824   7.347 -0.7013  0.1539  0.1427
  719MOL0     C94842   1.552   7.798   7.324  0.5840 -0.0260 -1.0381
  719MOL0     H94843   1.925   7.833   6.997 -1.3792 -0.2971 -0.6200
  719MOL0     H94844   2.148   7.812   6.905 -0.9848 -0.9317  0.2986
  719MOL0     H94845   2.362   7.874   6.829  1.3184  3.1405  2.1094
  719MOL0     H94846   2.353   7.720   6.918  1.7405 -0.1633  0.1153
  719MOL0     H94847   2.543   7.730   6.786 -0.9576 -1.8214  0.9995
  719MOL0     H94848   2.605   7.737   6.954 -0.3784  2.4732  2.1964
  719MOL0     H94849   2.576   8.004   6.902  1.4326 -0.6617  1.4193
  719MOL0     H94850   2.568   7.946   6.742 -3.5577  3.8490  2.3382
  719MOL0     H94851   2.799   8.016   6.835  0.1189  0.2505  3.1816
  719MOL0     H94852   2.801   7.864   6.929  0.7421 -0.4561 -1.2646
  719MOL0     H94853   2.770   7.879   6.621 -0.8867 -0.5026  0.9339
  719MOL0     H94854   2.794   7.728   6.709 -0.6618  0.3281  0.4629
  719MOL0     H94855   2.989   7.954   6.673 -0.3105 -0.1126  0.2606
  719MOL0     H94856   2.982   7.800   6.589 -1.1382  0.2477 -0.7277
  719MOL0     H94857   3.165   7.797   6.759  0.9957 -0.5388  1.1434
  719MOL0     H94858   3.054   7.841   6.886  1.7516  0.7258  0.0464
  719MOL0     H94859   3.092   7.586   6.729 -1.8782 -2.2215  1.0701
  719MOL0     H94860   2.961   7.612   6.848  0.1185  2.6143  0.9535
  719MOL0     H94861   3.050   7.710   7.089 -0.3664 -0.4746  1.8369
  719MOL0     H94862   3.213   7.700   7.313  2.0410  0.2254 -0.1798
  719MOL0     H94863   3.349   7.584   7.301  0.4694  3.4501 -2.2385
  719MOL0     H94864   3.176   7.545   7.483  0.1825  1.0715 -0.3935
  719MOL0     H94865   3.223   7.407   7.388 -2.1624 -2.0416  1.9227
  719MOL0     H94866   2.962   7.539   7.313 -0.3600 -0.3777 -0.9534
  719MOL0     H94867   3.035   7.399   7.253  0.0114  0.0192  0.5954
  719MOL0     H94868   3.008   7.299   7.492 -1.4942 -2.2668 -1.5532
  719MOL0     H94869   2.860   7.345   7.400 -0.8355  1.0047  0.5854
  719MOL0     H94870   2.674   7.569   7.509  1.0484  0.2824  0.2062
  719MOL0     H94871   2.478   7.530   7.649  1.3627  3.1675 -2.0635
  719MOL0     H94872   2.312   7.112   7.886 -0.0623  0.8638  0.3047
  719MOL0     H94873   2.097   7.056   7.984  0.2271  1.1444 -0.9192
  719MOL0     H94874   1.921   7.245   8.351 -1.2590 -0.4039  1.2123
  719MOL0     H94875   2.051   7.155   8.415  1.6268 -2.3081 -1.6716
  719MOL0     H94876   1.870   7.040   8.498  0.8683  1.6186 -0.0378
  719MOL0     H94877   1.919   6.937   8.362 -0.0313  0.2363 -0.7339
  719MOL0     H94878   1.737   7.062   8.236  0.0152  2.2875  0.5299
  719MOL0     H94879   1.692   7.141   8.392  0.1729  1.0581 -0.7712
  719MOL0     H94880   1.558   6.921   8.320 -1.4968  1.6495  1.4375
  719MOL0     H94881   1.700   6.836   8.376 -1.1394 -0.2406  0.2524
  719MOL0     H94882   1.522   7.024   8.525  3.3561  1.8143 -2.4600
  719MOL0     H94883   1.666   6.959   8.597  2.3672 -2.0278 -0.0132
  719MOL0     H94884   1.503   6.806   8.681  2.8484  0.6774  0.5657
  719MOL0     H94885   1.614   6.724   8.574 -1.1485 -1.3301  0.9288
  719MOL0     H94886   1.355   6.835   8.458  0.3902  0.7976  0.7911
  719MOL0     H94887   1.464   6.704   8.400  1.2851  1.0666 -0.7988
  719MOL0     H94888   1.290   6.711   8.667  2.0288 -0.6202  1.9920
  719MOL0     H94889   1.372   6.573   8.614 -0.6463  0.7989  2.8791
  719MOL0     H94890   2.187   7.320   8.321  0.9464  1.8085 -0.9779
  719MOL0     H94891   2.361   7.380   8.232 -0.3540 -0.3671  1.3453
  719MOL0     H94892   2.709   7.273   7.903 -1.0088  0.7196  0.8416
  719MOL0     H94893   2.915   7.322   7.760 -0.1932 -0.7649  1.2063
  719MOL0     H94894   2.314   8.039   7.241 -1.3601  2.8214 -0.9578
  719MOL0     H94895   2.092   8.065   7.333  0.3987 -2.5616  1.7265
  719MOL0     H94896   1.668   8.097   7.251  3.4502 -1.2281  3.5857
  719MOL0     H94897   1.422   8.157   7.286 -0.6117  0.0505 -1.8450
  719MOL0     H94898   1.216   8.130   7.243 -2.1455 -1.3253 -1.7488
  719MOL0     H94899   1.206   8.169   7.421  0.3103 -1.2987  1.7947
  719MOL0     H94900   0.980   8.183   7.310  0.9082  0.2638 -0.0675
  719MOL0     H94901   0.986   8.011   7.270 -0.0106 -0.4077  1.0285
  719MOL0     H94902   1.011   8.114   7.545  1.6222  2.0743 -2.3673
  719MOL0     H94903   0.995   7.945   7.503  0.9711  0.2307  0.2282
  719MOL0     H94904   0.771   8.152   7.420 -1.7785 -0.4582  1.0665
  719MOL0     H94905   0.784   7.982   7.390  1.0059 -0.0786 -0.3449
  719MOL0     H94906   0.700   7.989   7.807  1.7963 -1.3307  0.2324
  719MOL0     H94907   1.362   7.736   7.369  1.9109 -1.2009  2.1449
  719MOL0     H94908   1.580   7.693   7.326 -0.1968 -0.2296  0.6875
  720MOL0     O94909   5.069   3.017   5.246  0.0666 -0.1938 -0.7072
  720MOL0     C94910   5.068   3.010   5.368  0.2262  0.2838 -0.3238
  720MOL0     O94911   4.961   3.031   5.453 -0.0577  0.3069  0.3845
  720MOL0     C94912   4.835   3.071   5.414  0.2002 -0.7542 -0.4060
  720MOL0     C94913   4.730   3.003   5.471 -0.1740  0.0370 -0.6346
  720MOL0     C94914   4.599   3.050   5.460  0.4462 -0.6580 -0.4224
  720MOL0     C94915   4.565   3.150   5.367 -0.2112 -0.9065  1.3959
  720MOL0     O94916   4.431   3.187   5.342 -1.1264 -0.2766 -0.0014
  720MOL0     C94917   4.341   3.162   5.450  0.1538  0.4672  0.6277
  720MOL0     C94918   4.202   3.207   5.403  0.0427 -0.2802 -0.6255
  720MOL0     C94919   4.100   3.196   5.516 -0.7540  0.9848  0.5814
  720MOL0     C94920   3.958   3.240   5.478  0.4279 -0.3265  0.5727
  720MOL0     C94921   3.861   3.248   5.605 -0.7464 -0.2479 -0.1246
  720MOL0     C94922   3.729   3.304   5.552 -0.7628 -0.0486  0.8981
  720MOL0     C94923   3.628   3.300   5.661  0.9127  0.8690 -0.0880
  720MOL0     C94924   3.628   3.426   5.750  0.3887  0.2697 -0.8753
  720MOL0     N94925   3.525   3.396   5.845 -0.0113 -0.0423 -0.0720
  720MOL0     C94926   3.392   3.387   5.834  0.0025  0.0773 -0.2617
  720MOL0     C94927   3.342   3.381   5.964  0.2929  0.3375  0.1480
  720MOL0     C94928   3.202   3.363   6.009  0.9469 -0.1360  0.1439
  720MOL0     C94929   3.156   3.217   6.004 -0.0108 -0.2224  1.3334
  720MOL0     C94930   3.026   3.179   6.083 -0.5824 -0.2121  0.1004
  720MOL0     C94931   2.910   3.256   6.028 -0.7066  0.4534 -0.0277
  720MOL0     O94932   2.793   3.197   6.091 -0.3182 -0.8311 -0.0424
  720MOL0     C94933   2.667   3.234   6.051 -0.6011 -0.4032 -0.2895
  720MOL0     C94934   2.565   3.156   6.100  0.3475 -0.1552  0.3174
  720MOL0     C94935   2.434   3.167   6.054  0.4334  0.4862  0.0610
  720MOL0     C94936   2.395   3.283   5.975  0.2874  1.1594 -0.5043
  720MOL0     C94937   2.253   3.307   5.944  0.5560  0.4952  0.1467
  720MOL0     O94938   2.167   3.216   5.990  0.0389 -0.1333 -0.0640
  720MOL0     C94939   2.034   3.253   6.000 -0.5713 -0.3368  0.0729
  720MOL0     C94940   1.947   3.147   5.979  0.8581  0.4516 -0.1257
  720MOL0     C94941   1.808   3.168   5.982 -0.4768  0.1383  0.5439
  720MOL0     C94942   1.760   3.292   6.023 -0.6041 -0.5547 -0.0633
  720MOL0     O94943   1.625   3.290   6.044 -0.8706 -0.2517  0.0497
  720MOL0     C94944   1.558   3.406   6.096 -0.2648  0.1756 -0.0461
  720MOL0     C94945   1.420   3.346   6.110 -0.2139  0.0766  0.1462
  720MOL0     C94946   1.324   3.431   6.181  0.0678 -0.4859 -0.0830
  720MOL0     C94947   1.196   3.344   6.222  0.3483  0.0655 -0.5078
  720MOL0     C94948   1.095   3.440   6.292  1.8383 -0.3977 -1.1316
  720MOL0     C94949   0.954   3.383   6.294  0.1800  0.1095 -0.1980
  720MOL0     C94950   0.952   3.257   6.387  0.7691  0.7599  0.1241
  720MOL0     C94951   0.875   3.141   6.324 -0.0652  0.0252 -1.0418
  720MOL0    Cl94952   0.706   3.186   6.289  0.1045  0.3666 -0.1774
  720MOL0     C94953   1.849   3.398   6.046  0.3894  0.7811  0.4512
  720MOL0     C94954   1.989   3.380   6.040 -0.8335  0.7056  0.7665
  720MOL0     O94955   2.222   3.398   5.876  0.3807 -0.1983  0.5613
  720MOL0     C94956   2.501   3.371   5.935  0.5133  0.1835 -0.1850
  720MOL0     C94957   2.637   3.344   5.973 -0.0847 -0.3321  0.2872
  720MOL0     N94958   3.450   3.390   6.045 -0.3331  0.7778  0.3206
  720MOL0     N94959   3.556   3.400   5.975 -0.3645  0.6200  0.6031
  720MOL0     C94960   4.671   3.221   5.306 -0.0007 -0.7556  1.3380
  720MOL0     C94961   4.805   3.181   5.331 -0.7397 -0.1108 -0.6476
  720MOL0     C94962   5.187   2.953   5.429  0.0841 -0.0183  0.4255
  720MOL0     C94963   5.222   2.981   5.564  0.7444 -0.0744 -0.4296
  720MOL0     C94964   5.339   2.931   5.609  0.1560  0.7000  0.0524
  720MOL0     C94965   5.424   2.844   5.533 -0.3689 -0.1801 -0.4111
  720MOL0     O94966   5.536   2.790   5.599 -0.1839  0.0702 -0.4001
  720MOL0     C94967   5.628   2.720   5.519  0.1227 -0.2874  0.1938
  720MOL0     C94968   5.754   2.684   5.591  0.1894  0.2312  0.6930
  720MOL0     C94969   5.837   2.803   5.640 -0.0156  0.1360  0.8860
  720MOL0     C94970   5.936   2.762   5.745 -0.5330 -0.1261 -0.9351
  720MOL0     C94971   6.057   2.706   5.682 -0.6093  0.4539  0.1064
  720MOL0     C94972   6.150   2.655   5.628  0.8422  0.6173 -0.6174
  720MOL0     C94973   5.397   2.829   5.394 -0.6328 -0.0273 -0.0998
  720MOL0     C94974   5.278   2.875   5.344 -0.0121  0.2890 -0.5272
  720MOL0     H94975   4.742   2.921   5.541  0.4519  1.9238  1.5921
  720MOL0     H94976   4.517   2.987   5.492  0.7413 -1.4690 -1.2392
  720MOL0     H94977   4.366   3.203   5.548  1.1503 -1.9729  1.4692
  720MOL0     H94978   4.331   3.054   5.459  0.0400  0.1567 -2.3655
  720MOL0     H94979   4.173   3.172   5.304  2.0387 -1.6519 -0.7748
  720MOL0     H94980   4.217   3.314   5.384 -1.0823 -0.2132 -1.1414
  720MOL0     H94981   4.124   3.255   5.604  0.4573  0.3115  0.7304
  720MOL0     H94982   4.095   3.088   5.536  0.9351  0.4231 -1.6279
  720MOL0     H94983   3.968   3.337   5.428 -1.2423 -1.9015 -3.2247
  720MOL0     H94984   3.912   3.170   5.407  1.4662 -2.1616  1.6167
  720MOL0     H94985   3.908   3.315   5.678  0.4328  0.4161 -1.4378
  720MOL0     H94986   3.847   3.151   5.653  0.9827 -2.7595 -4.1480
  720MOL0     H94987   3.701   3.235   5.472 -2.5603 -0.4406  1.8008
  720MOL0     H94988   3.741   3.406   5.516  0.7659  1.7808  5.7735
  720MOL0     H94989   3.530   3.303   5.612  0.3870  0.8176  0.9223
  720MOL0     H94990   3.631   3.212   5.726  1.4909  2.7809  2.6410
  720MOL0     H94991   3.613   3.520   5.696  0.6988  2.2047  2.1546
  720MOL0     H94992   3.723   3.430   5.804 -0.7767 -3.8319  2.0111
  720MOL0     H94993   3.344   3.376   5.738  0.5951 -0.1280 -0.5400
  720MOL0     H94994   3.135   3.421   5.945  2.0921  0.2635 -0.7367
  720MOL0     H94995   3.199   3.402   6.111 -0.8856 -0.1828  0.1301
  720MOL0     H94996   3.236   3.149   6.034  0.8255  0.0766 -0.1169
  720MOL0     H94997   3.134   3.200   5.898 -1.0226  0.1346  1.4690
  720MOL0     H94998   3.019   3.070   6.074  4.6599 -1.0772  2.1772
  720MOL0     H94999   3.040   3.202   6.189 -0.2693  0.0876 -0.0040
  720MOL0     H95000   2.907   3.266   5.919 -0.2283  0.7614 -0.0145
  720MOL0     H95001   2.926   3.359   6.062  1.1681  0.3045 -0.3481
  720MOL0     H95002   2.578   3.064   6.156 -1.5327 -2.7373 -3.0687
  720MOL0     H95003   2.362   3.088   6.075 -0.1624  1.3755  1.4938
  720MOL0     H95004   1.989   3.050   5.956 -0.5898 -0.3666  0.5485
  720MOL0     H95005   1.734   3.089   5.973  0.7531 -0.8274 -2.3453
  720MOL0     H95006   1.556   3.484   6.018 -1.2793  4.2287  3.6207
  720MOL0     H95007   1.596   3.451   6.188  1.5800 -0.7363 -0.3173
  720MOL0     H95008   1.430   3.260   6.177  1.8961 -0.2554 -0.5167
  720MOL0     H95009   1.367   3.319   6.018 -3.1394 -0.7216  1.9211
  720MOL0     H95010   1.310   3.517   6.115 -0.0053 -0.1241  0.4043
  720MOL0     H95011   1.373   3.477   6.267 -0.7481  0.1485  0.0462
  720MOL0     H95012   1.152   3.295   6.135  0.7068 -0.6567 -0.2846
  720MOL0     H95013   1.224   3.268   6.295  0.4010  0.8328  0.2876
  720MOL0     H95014   1.082   3.532   6.234 -3.5013 -0.8839 -1.1418
  720MOL0     H95015   1.130   3.481   6.388  0.9271  0.1221 -1.0186
  720MOL0     H95016   0.917   3.356   6.195 -0.5008 -3.5274  0.8883
  720MOL0     H95017   0.886   3.459   6.333  0.8196 -0.3663  1.9641
  720MOL0     H95018   1.052   3.216   6.401  0.2636 -0.1795  1.1379
  720MOL0     H95019   0.909   3.286   6.483 -3.1414 -1.1205 -0.8357
  720MOL0     H95020   0.878   3.058   6.396 -1.8300 -1.3284 -2.4316
  720MOL0     H95021   0.924   3.096   6.237  0.7283  0.6975 -0.9525
  720MOL0     H95022   1.804   3.494   6.070  2.0088  2.2344 -1.9181
  720MOL0     H95023   2.043   3.470   6.067 -0.4382  1.4247 -2.0898
  720MOL0     H95024   2.479   3.453   5.868  1.1703  0.1348 -0.4715
  720MOL0     H95025   2.718   3.402   5.930 -0.4669  1.9237  2.3700
  720MOL0     H95026   4.646   3.301   5.237  0.8116 -1.4861  0.1579
  720MOL0     H95027   4.888   3.232   5.284 -0.7012  0.6918  0.2691
  720MOL0     H95028   5.165   3.046   5.629  0.6920 -2.0076  1.5699
  720MOL0     H95029   5.370   2.968   5.707  1.0265  0.4219 -0.1130
  720MOL0     H95030   5.656   2.774   5.428  1.0460 -2.2804 -0.7853
  720MOL0     H95031   5.575   2.625   5.505 -0.1239 -0.9263  4.2304
  720MOL0     H95032   5.717   2.620   5.671 -0.3933  0.2224  0.4243
  720MOL0     H95033   5.812   2.626   5.518 -2.0216  0.9905 -1.8101
  720MOL0     H95034   5.768   2.875   5.686 -2.2621 -0.5185 -1.1847
  720MOL0     H95035   5.879   2.859   5.556 -1.7988 -0.2338 -0.3270
  720MOL0     H95036   5.963   2.856   5.795 -1.1236 -0.2655 -0.3340
  720MOL0     H95037   5.897   2.687   5.814  0.7862  1.7453  2.0643
  720MOL0     H95038   6.237   2.602   5.595 -1.1763 -1.7436 -2.6317
  720MOL0     H95039   5.472   2.788   5.327  1.6820 -0.5205  2.6010
  720MOL0     H95040   5.260   2.871   5.237 -0.6446  0.5017 -0.4347
  721MOL0     O95041  10.336   4.434   7.217  0.1131  0.8114  0.7617
  721MOL0     C95042  10.397   4.525   7.280 -0.0653  0.0129  0.3459
  721MOL0     O95043  10.333   4.600   7.375 -0.1720  1.0246  0.3234
  721MOL0     C95044  10.198   4.582   7.411  0.0067  0.2835 -1.0905
  721MOL0     C95045  10.098   4.546   7.318 -0.1546 -0.3599  0.2392
  721MOL0     C95046   9.967   4.533   7.363 -0.0476  0.0447 -1.0189
  721MOL0     C95047   9.935   4.557   7.497 -0.1588 -1.2941 -0.0944
  721MOL0     O95048   9.804   4.529   7.529 -0.9472  0.2773  0.6434
  721MOL0     C95049   9.771   4.529   7.668 -0.9154  0.1957 -0.5520
  721MOL0     C95050   9.620   4.479   7.688  0.3059 -0.3874  0.1322
  721MOL0     C95051   9.594   4.456   7.839  0.0929 -0.8147  0.4287
  721MOL0     C95052   9.451   4.398   7.864  0.0664  0.5386  0.0600
  721MOL0     C95053   9.452   4.353   8.016 -0.1191  0.3766 -0.2488
  721MOL0     C95054   9.319   4.287   8.044  0.0366  0.0442  0.4009
  721MOL0     C95055   9.278   4.282   8.191 -0.4686 -0.5281  0.4103
  721MOL0     C95056   9.135   4.220   8.191  0.3377  0.0189 -0.1579
  721MOL0     N95057   9.081   4.182   8.325  0.6373 -0.7157 -0.0916
  721MOL0     C95058   9.121   4.080   8.395 -0.6092  0.0184 -0.2500
  721MOL0     C95059   9.048   4.073   8.512 -0.0949  0.8236 -0.3736
  721MOL0     C95060   9.052   3.957   8.610 -1.0008 -0.4419 -0.3517
  721MOL0     C95061   9.097   3.827   8.546  0.0369 -0.5391 -0.4154
  721MOL0     C95062   9.084   3.710   8.648  0.7479  0.4937  0.4393
  721MOL0     C95063   9.162   3.597   8.613 -0.3314  0.4959  0.2299
  721MOL0     O95064   9.242   3.565   8.732 -0.2200  1.0446 -0.0140
  721MOL0     C95065   9.293   3.432   8.737  0.8471 -0.7120 -0.0470
  721MOL0     C95066   9.225   3.329   8.798  0.2979  0.5366 -0.0005
  721MOL0     C95067   9.282   3.206   8.787  0.1055  0.2931  0.3135
  721MOL0     C95068   9.394   3.176   8.714  0.0462 -0.5734  0.9809
  721MOL0     C95069   9.450   3.036   8.711  1.1426  0.5733 -1.1690
  721MOL0     O95070   9.366   2.941   8.766 -0.2066 -0.4152  0.2775
  721MOL0     C95071   9.403   2.811   8.762 -0.0039 -0.1361  0.1233
  721MOL0     C95072   9.382   2.732   8.876  0.8624 -0.3174  1.3223
  721MOL0     C95073   9.420   2.595   8.881 -0.0737  0.0429 -0.0162
  721MOL0     C95074   9.497   2.536   8.773 -0.2819 -0.7639 -0.0339
  721MOL0     O95075   9.552   2.413   8.786 -0.7110 -0.2705  0.7217
  721MOL0     C95076   9.585   2.335   8.665 -0.1378  0.2966 -0.6930
  721MOL0     C95077   9.599   2.184   8.712  0.2762  1.1259  0.1887
  721MOL0     C95078   9.671   2.170   8.840 -0.3480 -0.7128 -0.6206
  721MOL0     C95079   9.711   2.023   8.877  0.7843  0.1508 -0.4562
  721MOL0     C95080   9.780   2.017   9.019 -0.2349 -0.0034  0.0190
  721MOL0     C95081   9.927   2.061   9.000 -1.0105 -0.2201 -0.1271
  721MOL0     C95082  10.019   1.991   9.098  0.6649  0.4559  0.0269
  721MOL0     C95083  10.167   1.996   9.043 -0.4770  0.0829 -0.0913
  721MOL0    Cl95084  10.215   2.163   9.035  0.1648  0.0931 -0.2398
  721MOL0     C95085   9.508   2.619   8.660  0.4858 -0.5671  0.5074
  721MOL0     C95086   9.454   2.750   8.651 -0.5059  0.0713  0.4561
  721MOL0     O95087   9.567   3.020   8.688 -0.5148  0.0298 -0.0274
  721MOL0     C95088   9.459   3.284   8.646  0.2444  0.2832 -0.9527
  721MOL0     C95089   9.407   3.413   8.659 -0.7279 -0.5940  0.8127
  721MOL0     N95090   8.954   4.169   8.501  0.9473  0.1062  0.1873
  721MOL0     N95091   8.976   4.236   8.391 -0.1671 -0.4575  0.5503
  721MOL0     C95092  10.032   4.587   7.586  0.2970  0.2937  0.1285
  721MOL0     C95093  10.166   4.605   7.545 -0.3969 -0.6360 -0.3941
  721MOL0     C95094  10.539   4.533   7.244 -0.6344  0.1310  0.0876
  721MOL0     C95095  10.633   4.577   7.336 -0.2663  0.2700 -0.6479
  721MOL0     C95096  10.766   4.564   7.298 -0.4046 -0.8488  0.0731
  721MOL0     C95097  10.813   4.507   7.186 -0.4533 -0.9739 -0.2088
  721MOL0     O95098  10.949   4.490   7.180  0.1147  0.3083 -0.0775
  721MOL0     C95099  11.009   4.401   7.082 -0.4240  0.3387  0.0170
  721MOL0     C95100  11.152   4.394   7.122  0.1764 -0.6054  0.2230
  721MOL0     C95101  11.176   4.347   7.265  0.7248 -0.2698 -0.3626
  721MOL0     C95102  11.319   4.293   7.282 -0.7275 -0.1205 -0.5548
  721MOL0     C95103  11.357   4.262   7.420  0.3506  0.2270 -0.1027
  721MOL0     C95104  11.382   4.215   7.533  0.2089  0.3577 -0.9525
  721MOL0     C95105  10.717   4.469   7.095  0.5325  1.0425 -0.0004
  721MOL0     C95106  10.583   4.477   7.124 -0.6061 -0.8497 -0.4531
  721MOL0     H95107  10.115   4.514   7.216  1.0566 -3.1808  1.2101
  721MOL0     H95108   9.894   4.512   7.286 -0.7919  0.5309 -0.4542
  721MOL0     H95109   9.791   4.630   7.705  3.2575 -0.5125 -0.4133
  721MOL0     H95110   9.841   4.466   7.724 -1.1205 -1.9471 -2.5493
  721MOL0     H95111   9.594   4.391   7.627  0.2317  1.1415 -2.1706
  721MOL0     H95112   9.561   4.561   7.646 -0.4546  0.2281  2.2682
  721MOL0     H95113   9.593   4.553   7.889 -0.0888  0.5285 -2.0219
  721MOL0     H95114   9.664   4.387   7.886  1.0976 -0.8238 -1.0227
  721MOL0     H95115   9.373   4.471   7.842 -1.2496 -0.7215  0.3787
  721MOL0     H95116   9.427   4.313   7.800 -2.9304  0.9705  0.4837
  721MOL0     H95117   9.459   4.440   8.082 -0.4608 -0.4005  0.8566
  721MOL0     H95118   9.539   4.293   8.043 -1.6143 -2.8587 -1.9556
  721MOL0     H95119   9.334   4.183   8.012  2.3288  0.5821 -0.5135
  721MOL0     H95120   9.245   4.321   7.971 -0.4416 -1.5015  0.1231
  721MOL0     H95121   9.342   4.233   8.264 -0.5068 -0.2843  0.6100
  721MOL0     H95122   9.261   4.387   8.217 -0.4818 -0.1874 -0.8985
  721MOL0     H95123   9.145   4.129   8.130 -2.2362 -0.4302 -0.0212
  721MOL0     H95124   9.065   4.294   8.152 -0.7317  0.6521  2.7406
  721MOL0     H95125   9.204   4.015   8.367 -1.3891 -2.1050  2.0812
  721MOL0     H95126   8.956   3.949   8.661 -0.7236 -0.2849  0.1990
  721MOL0     H95127   9.126   3.986   8.684 -1.2565 -0.0814 -0.2344
  721MOL0     H95128   9.200   3.841   8.510  0.1118  0.0032  0.0102
  721MOL0     H95129   9.033   3.794   8.463 -0.0156  2.4956 -1.7148
  721MOL0     H95130   9.109   3.750   8.747 -0.0734  1.6659  0.2030
  721MOL0     H95131   8.982   3.671   8.646  1.0481 -0.2968  0.2696
  721MOL0     H95132   9.227   3.616   8.527 -1.5153 -0.2035 -0.8632
  721MOL0     H95133   9.106   3.505   8.592  2.0009 -0.9048 -0.1508
  721MOL0     H95134   9.142   3.343   8.866 -1.5077 -5.2281 -0.4803
  721MOL0     H95135   9.233   3.124   8.840 -2.4320  1.1745 -0.5152
  721MOL0     H95136   9.326   2.778   8.957 -0.4631  1.2383 -0.4215
  721MOL0     H95137   9.415   2.537   8.972 -1.0847  0.6025  0.2954
  721MOL0     H95138   9.680   2.371   8.625  1.4564 -1.7169  1.0070
  721MOL0     H95139   9.513   2.336   8.582  0.6382 -0.4506 -1.3948
  721MOL0     H95140   9.667   2.136   8.640 -1.5764 -2.7326  0.7608
  721MOL0     H95141   9.501   2.135   8.718 -0.0194  1.4973 -1.2586
  721MOL0     H95142   9.605   2.210   8.918 -1.7497 -0.3525 -1.9317
  721MOL0     H95143   9.758   2.237   8.837 -1.5189  0.9982  0.9439
  721MOL0     H95144   9.626   1.954   8.878 -0.7386  1.9196 -0.2273
  721MOL0     H95145   9.785   1.991   8.803  2.8479 -0.3552  1.6874
  721MOL0     H95146   9.779   1.912   9.050  2.2412 -0.4030 -1.0021
  721MOL0     H95147   9.731   2.080   9.094 -0.7311  0.9433 -1.0745
  721MOL0     H95148   9.941   2.169   9.009 -1.2512  0.0043 -2.0291
  721MOL0     H95149   9.950   2.022   8.901 -4.1013  1.2314 -1.5644
  721MOL0     H95150  10.017   2.038   9.197  0.1577 -2.0465  1.2935
  721MOL0     H95151   9.985   1.888   9.115  0.1911  0.5060 -0.5613
  721MOL0     H95152  10.173   1.953   8.942  2.1396  2.3002 -1.0086
  721MOL0     H95153  10.235   1.945   9.111 -0.2293 -2.1758 -1.9014
  721MOL0     H95154   9.559   2.578   8.573  0.5102  1.6501 -0.5829
  721MOL0     H95155   9.474   2.806   8.560  1.9408 -0.9247  0.3179
  721MOL0     H95156   9.546   3.260   8.585 -1.2833 -0.5651 -2.9419
  721MOL0     H95157   9.451   3.500   8.613  3.7196 -2.4919  0.9738
  721MOL0     H95158   9.999   4.603   7.688 -0.5262  2.0622 -0.3748
  721MOL0     H95159  10.253   4.621   7.609 -0.5699  0.8962 -0.5105
  721MOL0     H95160  10.599   4.629   7.425  1.2877 -1.6121  1.1646
  721MOL0     H95161  10.839   4.613   7.362 -2.4149  0.4503  1.4733
  721MOL0     H95162  10.991   4.430   6.978 -2.1730  0.6576  0.3811
  721MOL0     H95163  10.968   4.301   7.095  1.3204 -0.3325  0.7343
  721MOL0     H95164  11.211   4.330   7.055 -2.2095 -4.2598  1.2882
  721MOL0     H95165  11.191   4.496   7.116 -0.2259 -0.5455 -2.3963
  721MOL0     H95166  11.112   4.267   7.302  0.9746 -0.3683 -0.1410
  721MOL0     H95167  11.164   4.433   7.332 -1.6301 -1.0377  0.2935
  721MOL0     H95168  11.340   4.202   7.223  0.3963 -1.9301  2.4028
  721MOL0     H95169  11.384   4.374   7.249  0.0438  2.4808  5.9802
  721MOL0     H95170  11.408   4.168   7.625 -1.7669  0.1258 -0.4663
  721MOL0     H95171  10.751   4.423   7.003 -0.0979 -1.3697  0.8678
  721MOL0     H95172  10.505   4.439   7.058 -1.5705 -1.7255  1.1349
  722MOL0     O95173   1.978   8.730   6.945  0.2955  0.2154  0.4712
  722MOL0     C95174   1.966   8.827   6.870 -0.5957 -1.1607 -0.5203
  722MOL0     O95175   1.860   8.919   6.873 -0.3170  0.5160  0.0593
  722MOL0     C95176   1.749   8.912   6.951  1.1733 -1.0893  0.2966
  722MOL0     C95177   1.699   8.816   7.031  0.6466  0.3325 -0.4185
  722MOL0     C95178   1.596   8.837   7.123 -0.4621  0.7106  0.1758
  722MOL0     C95179   1.519   8.955   7.120 -0.0385 -0.1202 -0.0922
  722MOL0     O95180   1.416   8.978   7.209 -0.5519  0.3179  0.6077
  722MOL0     C95181   1.439   8.959   7.349  0.2007  0.1148  0.3197
  722MOL0     C95182   1.318   8.951   7.440 -0.1929 -0.4717  0.0272
  722MOL0     C95183   1.209   9.053   7.406  0.8031  0.0093 -1.4661
  722MOL0     C95184   1.094   9.041   7.503 -0.2977 -0.7342 -0.4255
  722MOL0     C95185   1.124   9.109   7.638 -0.7049 -0.5174  0.0731
  722MOL0     C95186   1.021   9.081   7.745  0.0902  0.1235 -0.1713
  722MOL0     C95187   1.041   9.193   7.853 -0.2294  0.4980  0.0646
  722MOL0     C95188   0.952   9.191   7.977 -0.6593  0.4149 -0.0215
  722MOL0     N95189   0.817   9.232   7.940  0.3193  0.1473  0.1859
  722MOL0     C95190   0.783   9.358   7.896  0.6354  0.0546 -0.0407
  722MOL0     C95191   0.651   9.350   7.861 -0.4468 -0.0257 -0.0819
  722MOL0     C95192   0.561   9.462   7.813  0.4681  0.2273 -0.2443
  722MOL0     C95193   0.427   9.479   7.895  1.5492  0.3164 -0.4446
  722MOL0     C95194   0.368   9.608   7.847 -0.5805 -0.1417  0.2288
  722MOL0     C95195   0.222   9.639   7.905 -0.1792  0.3386 -0.4603
  722MOL0     O95196   0.149   9.744   7.839 -0.6073  0.1703 -0.2643
  722MOL0     C95197   0.049   9.805   7.905 -0.0251 -0.0513  0.6071
  722MOL0     C95198  -0.004   9.919   7.852  0.2242 -0.4926 -0.1377
  722MOL0     C95199  -0.113   9.984   7.920 -1.2185 -0.3225  0.2883
  722MOL0     C95200  -0.157   9.952   8.044 -0.4216  0.8902  0.0356
  722MOL0     C95201  -0.268  10.029   8.106  0.1066 -0.6330  0.1560
  722MOL0     O95202  -0.327  10.122   8.026  0.0712 -0.6646  0.0897
  722MOL0     C95203  -0.421  10.213   8.064 -0.1596 -0.0678 -0.3897
  722MOL0     C95204  -0.509  10.348   7.929  0.0864 -0.2355  0.1424
  722MOL0     C95205  -0.650  10.492   8.001 -0.3749 -0.1170  0.1519
  722MOL0     C95206  -0.703  10.496   8.207 -0.2577  0.4035  0.1618
  722MOL0     O95207  -0.787  10.596   8.244  0.2835 -0.4014  0.3987
  722MOL0     C95208  -0.838  10.592   8.379 -0.4169  0.4122 -0.9484
  722MOL0     C95209  -0.967  10.677   8.390 -0.2117  0.4147 -0.8145
  722MOL0     C95210  -0.948  10.817   8.343 -0.2656 -0.1233 -0.2604
  722MOL0     C95211  -1.067  10.907   8.382 -0.8731 -0.6631 -0.0674
  722MOL0     C95212  -1.077  11.036   8.294  0.9188  0.3288 -0.6224
  722MOL0     C95213  -0.998  11.157   8.364 -0.5050  0.3727  0.2590
  722MOL0     C95214  -1.033  11.278   8.290  0.0233 -1.2681  0.5407
  722MOL0     C95215  -1.020  11.405   8.370 -0.7309 -0.2091 -0.9763
  722MOL0    Cl95216  -0.857  11.400   8.454  0.0634  0.2684 -0.0834
  722MOL0     C95217  -0.606  10.354   8.343  0.2052 -0.0979  0.3746
  722MOL0     C95218  -0.464  10.215   8.270 -0.1803  0.5234  0.9334
  722MOL0     O95219  -0.309   9.987   8.217 -0.1071  0.3620 -0.0219
  722MOL0     C95220  -0.101   9.836   8.102  0.1061 -0.3576 -0.1050
  722MOL0     C95221   0.004   9.764   8.033  0.5829 -0.1178  0.7947
  722MOL0     N95222   0.606   9.227   7.889  0.0376 -0.3097 -0.3857
  722MOL0     N95223   0.705   9.153   7.942 -0.4616  0.1678 -0.3849
  722MOL0     C95224   1.576   9.058   7.038 -0.2000  0.0251 -0.3313
  722MOL0     C95225   1.690   9.038   6.953 -0.5509  0.2932  0.0872
  722MOL0     C95226   2.082   8.867   6.786  0.2826 -0.0126 -0.1852
  722MOL0     C95227   2.073   8.966   6.686 -0.6002 -0.9260  1.0954
  722MOL0     C95228   2.189   8.993   6.605  0.1528 -0.3814 -0.0882
  722MOL0     C95229   2.297   8.909   6.612  0.2046 -0.0686 -0.2292
  722MOL0     O95230   2.388   8.945   6.515  0.2188 -0.2267 -0.0376
  722MOL0     C95231   2.488   8.846   6.484  0.1416 -0.0823  0.5047
  722MOL0     C95232   2.628   8.881   6.542 -1.0373  0.5595 -0.7622
  722MOL0     C95233   2.666   9.029   6.515  0.3016  0.7445  0.9566
  722MOL0     C95234   2.797   9.066   6.582  0.4948  0.4156 -0.2951
  722MOL0     C95235   2.908   8.981   6.543  0.5106  0.3963 -0.2907
  722MOL0     C95236   2.998   8.910   6.503 -0.7186  0.8636  1.6293
  722MOL0     C95237   2.306   8.817   6.714 -0.0512  0.3870 -0.5398
  722MOL0     C95238   2.199   8.790   6.797  0.8240 -0.7899 -0.3205
  722MOL0     H95239   1.747   8.719   7.035  1.2566  0.4794 -2.9250
  722MOL0     H95240   1.565   8.758   7.190 -1.0646  0.5519 -0.2859
  722MOL0     H95241   1.509   9.032   7.389  0.3596 -0.6762  1.5441
  722MOL0     H95242   1.486   8.862   7.366  2.4615  1.3674  1.7267
  722MOL0     H95243   1.353   8.979   7.540 -2.8577 -3.0761  1.8793
  722MOL0     H95244   1.277   8.849   7.439 -0.6047 -0.3069  0.1925
  722MOL0     H95245   1.169   9.032   7.306  0.4935 -2.7034 -0.8343
  722MOL0     H95246   1.244   9.157   7.406 -0.8516  0.6410  0.3701
  722MOL0     H95247   1.007   9.088   7.457 -1.1268 -0.8857  0.9260
  722MOL0     H95248   1.068   8.936   7.520 -1.6299 -0.2850  0.5308
  722MOL0     H95249   1.126   9.217   7.625 -1.8793 -0.3123  1.3685
  722MOL0     H95250   1.218   9.068   7.677 -1.2834 -2.7092 -0.6681
  722MOL0     H95251   1.011   8.981   7.787 -0.1122 -0.4272 -1.4776
  722MOL0     H95252   0.924   9.088   7.696  0.0620 -0.1356 -0.1501
  722MOL0     H95253   1.146   9.197   7.884 -0.7828  0.0364  2.1413
  722MOL0     H95254   1.018   9.292   7.812 -1.1883 -0.0063 -0.6465
  722MOL0     H95255   0.963   9.248   8.070 -0.1959  2.2080 -1.1469
  722MOL0     H95256   0.955   9.083   7.997 -1.3923  0.8347  2.8564
  722MOL0     H95257   0.846   9.447   7.902  0.5427  0.1765 -0.7554
  722MOL0     H95258   0.536   9.424   7.713  1.0937 -2.0265  0.4031
  722MOL0     H95259   0.620   9.554   7.812 -1.8007  1.7882  1.2376
  722MOL0     H95260   0.440   9.480   8.004  0.9632 -0.1778 -0.3652
  722MOL0     H95261   0.359   9.399   7.865  1.2752  0.9145 -1.4772
  722MOL0     H95262   0.430   9.695   7.869  0.2122 -0.5750 -0.2693
  722MOL0     H95263   0.359   9.615   7.739 -1.4186  0.5913  0.3320
  722MOL0     H95264   0.241   9.665   8.009  0.4233  0.4699 -0.5981
  722MOL0     H95265   0.161   9.548   7.907  2.1096 -1.2637  0.5092
  722MOL0     H95266   0.027   9.959   7.756  0.0982 -0.4898 -0.1775
  722MOL0     H95267  -0.154  10.070   7.868 -2.5101  0.1111  1.9408
  722MOL0     H95268  -0.475  10.358   7.826  3.1086 -0.0825  1.0667
  722MOL0     H95269  -0.668  10.575   7.932 -2.5041 -0.9578 -0.3939
  722MOL0     H95270  -0.772  10.655   8.439 -0.7111  0.4276 -0.6391
  722MOL0     H95271  -0.841  10.489   8.416 -0.3022  0.1617 -1.6132
  722MOL0     H95272  -0.986  10.677   8.498  2.8983  2.0948 -0.1456
  722MOL0     H95273  -1.049  10.632   8.334 -0.7264  3.3561 -2.6072
  722MOL0     H95274  -0.939  10.822   8.234  1.6478  3.3893 -0.1029
  722MOL0     H95275  -0.854  10.866   8.372 -0.0234 -1.0791  0.6210
  722MOL0     H95276  -1.160  10.855   8.355 -1.5889 -0.7226  2.2402
  722MOL0     H95277  -1.075  10.929   8.489 -0.7893 -1.9935  0.2310
  722MOL0     H95278  -1.185  11.051   8.284  0.9754  0.5777 -0.8467
  722MOL0     H95279  -1.031  11.017   8.197 -1.3771 -0.1766 -1.6623
  722MOL0     H95280  -0.890  11.141   8.360 -0.7729 -1.6948 -0.1303
  722MOL0     H95281  -1.026  11.156   8.470  2.9594 -2.8636  1.3815
  722MOL0     H95282  -0.982  11.288   8.193  0.2304  2.4120  0.8873
  722MOL0     H95283  -1.138  11.275   8.260  0.0121  2.4489 -0.2813
  722MOL0     H95284  -1.103  11.408   8.442 -1.8192 -2.9901 -1.9977
  722MOL0     H95285  -1.030  11.495   8.308  0.6659  1.5936  1.2346
  722MOL0     H95286  -0.631  10.347   8.448 -0.4910 -1.2063  0.1517
  722MOL0     H95287  -0.411  10.154   8.342 -2.2221  0.3816  2.4106
  722MOL0     H95288  -0.130   9.808   8.203 -0.3441  3.2659  0.9116
  722MOL0     H95289   0.036   9.668   8.073 -1.1677 -1.7843 -1.5558
  722MOL0     H95290   1.534   9.157   7.055  0.9144  0.8263 -2.0177
  722MOL0     H95291   1.726   9.124   6.899 -0.2680  1.0923  1.4990
  722MOL0     H95292   1.980   9.019   6.671  0.3772  0.3760 -0.7649
  722MOL0     H95293   2.175   9.079   6.540 -1.3458 -0.5149  0.0154
  722MOL0     H95294   2.489   8.855   6.375 -2.1057  0.3576  0.4658
  722MOL0     H95295   2.459   8.744   6.511 -1.2995 -0.1135 -1.0528
  722MOL0     H95296   2.622   8.861   6.650 -2.3315 -1.5218 -1.1719
  722MOL0     H95297   2.705   8.813   6.505  0.7286  0.5892  2.4334
  722MOL0     H95298   2.593   9.096   6.562 -0.5068  0.0007  0.7957
  722MOL0     H95299   2.667   9.039   6.406  0.7788  0.8822  0.9714
  722MOL0     H95300   2.826   9.168   6.555  1.5017 -0.1017 -1.2459
  722MOL0     H95301   2.784   9.069   6.690 -0.7419  0.1126 -0.4193
  722MOL0     H95302   3.072   8.844   6.463  1.5941  4.5058 -0.5922
  722MOL0     H95303   2.398   8.759   6.712 -0.2922  0.0172 -1.4942
  722MOL0     H95304   2.208   8.704   6.862  0.8372  0.0191  0.7669
  723MOL0     O95305   1.398   8.597   6.189  0.6297  0.1591 -0.0688
  723MOL0     C95306   1.405   8.696   6.116 -0.0279 -0.4475  0.0016
  723MOL0     O95307   1.298   8.771   6.068 -0.8756  0.5949  0.8421
  723MOL0     C95308   1.177   8.744   6.103  0.3758 -0.1985 -0.7164
  723MOL0     C95309   1.134   8.718   6.235  0.2345  0.5328 -0.0330
  723MOL0     C95310   1.001   8.694   6.273  0.4859  0.2728  0.9012
  723MOL0     C95311   0.899   8.691   6.172 -0.2063 -0.2577 -0.7193
  723MOL0     O95312   0.764   8.683   6.202 -1.5297 -0.4478  1.1848
  723MOL0     C95313   0.727   8.672   6.339 -0.5366  0.0661 -0.6827
  723MOL0     C95314   0.576   8.685   6.341  0.7859  0.5812 -0.0766
  723MOL0     C95315   0.524   8.674   6.484 -0.5744 -0.4358 -0.0162
  723MOL0     C95316   0.373   8.696   6.475  0.0345  0.1284 -0.4752
  723MOL0     C95317   0.316   8.665   6.616  0.4576  0.0348  0.3965
  723MOL0     C95318   0.167   8.700   6.643  0.4366 -0.3196 -0.4917
  723MOL0     C95319   0.069   8.635   6.543 -0.3408 -0.5033 -0.2580
  723MOL0     C95320  -0.056   8.719   6.528  0.7824 -0.4369  0.8413
  723MOL0     N95321  -0.151   8.694   6.645  0.0152 -0.0563 -0.1931
  723MOL0     C95322  -0.166   8.774   6.754 -0.6570 -0.4398 -0.6137
  723MOL0     C95323  -0.237   8.710   6.844 -0.2390 -0.0151 -0.0330
  723MOL0     C95324  -0.302   8.754   6.966  0.2523  0.0800  0.2834
  723MOL0     C95325  -0.377   8.888   6.937  0.0105  0.1828  0.1636
  723MOL0     C95326  -0.454   8.915   7.071  0.0775 -0.1746 -0.1088
  723MOL0     C95327  -0.543   9.038   7.055 -0.1857  0.6525  0.1506
  723MOL0     O95328  -0.644   9.040   6.957 -0.6005 -0.4406 -0.5087
  723MOL0     C95329  -0.761   8.972   6.981  0.0128  1.1126  0.6025
  723MOL0     C95330  -0.864   8.994   6.891 -0.2996  0.3317 -0.0831
  723MOL0     C95331  -0.992   8.950   6.904 -0.1134  0.5867 -0.4238
  723MOL0     C95332  -1.017   8.870   7.014  1.1379 -0.2432  1.1264
  723MOL0     C95333  -1.159   8.819   7.042 -0.3055 -0.1940  0.3333
  723MOL0     O95334  -1.254   8.825   6.941 -0.4564  1.0525 -0.2861
  723MOL0     C95335  -1.390   8.802   6.948  0.4212 -0.0250  0.6025
  723MOL0     C95336  -1.463   8.767   7.064  0.5066  0.3544  0.7727
  723MOL0     C95337  -1.595   8.723   7.045  0.0497 -0.0111 -0.8109
  723MOL0     C95338  -1.663   8.721   6.925  0.4966  1.1438  0.0352
  723MOL0     O95339  -1.793   8.660   6.927 -0.0439 -0.0486  0.3743
  723MOL0     C95340  -1.832   8.575   6.818  0.6160  0.4125  0.8134
  723MOL0     C95341  -1.981   8.560   6.804 -0.0237  0.3669 -0.1003
  723MOL0     C95342  -2.035   8.671   6.724  0.3861 -0.8193  0.1820
  723MOL0     C95343  -2.164   8.718   6.789 -0.7141  0.2455 -0.2876
  723MOL0     C95344  -2.266   8.794   6.694 -0.4398 -0.0314 -0.0108
  723MOL0     C95345  -2.317   8.720   6.570 -0.1509  0.2134 -0.4810
  723MOL0     C95346  -2.412   8.805   6.490  0.8222 -0.5062  1.2193
  723MOL0     C95347  -2.498   8.731   6.389 -0.0398  0.0972  0.0636
  723MOL0    Cl95348  -2.395   8.695   6.255  0.7326  0.2613  0.0719
  723MOL0     C95349  -1.588   8.756   6.808  0.3848 -0.1926  0.2430
  723MOL0     C95350  -1.456   8.795   6.823  0.2162 -0.4863 -0.5625
  723MOL0     O95351  -1.185   8.796   7.160  0.5870 -0.2784  0.9629
  723MOL0     C95352  -0.909   8.829   7.104  0.4646  0.2654  0.1397
  723MOL0     C95353  -0.786   8.887   7.090  0.6683 -0.0276 -0.4866
  723MOL0     N95354  -0.276   8.587   6.785  0.0354 -0.2163 -0.9058
  723MOL0     N95355  -0.222   8.583   6.668  0.9607 -0.3785 -0.5900
  723MOL0     C95356   0.944   8.721   6.039 -0.4014  0.1857 -0.6045
  723MOL0     C95357   1.078   8.739   6.008 -0.6136 -1.3216  0.6468
  723MOL0     C95358   1.537   8.732   6.061  0.4506  0.2075  0.2081
  723MOL0     C95359   1.554   8.842   5.981 -0.3326  0.3593  0.5329
  723MOL0     C95360   1.682   8.877   5.930 -0.8133 -0.4946 -0.9366
  723MOL0     C95361   1.796   8.790   5.955 -1.1456 -0.0507 -0.1537
  723MOL0     O95362   1.918   8.809   5.886 -0.4630  0.2073  0.2529
  723MOL0     C95363   1.941   8.914   5.791 -0.4698 -0.0211  0.8728
  723MOL0     C95364   2.018   8.851   5.663 -0.2807 -0.1573  0.2903
  723MOL0     C95365   2.153   8.785   5.701  0.2840 -0.2985  0.1345
  723MOL0     C95366   2.254   8.881   5.757 -0.1305  0.4480  0.4205
  723MOL0     C95367   2.368   8.810   5.821  0.4280  0.0923 -0.5451
  723MOL0     C95368   2.455   8.745   5.863  0.7375 -0.2970 -0.3053
  723MOL0     C95369   1.777   8.679   6.032  0.2702 -0.2720  0.0834
  723MOL0     C95370   1.652   8.649   6.082  1.4446 -0.2867  0.0215
  723MOL0     H95371   1.210   8.715   6.312  0.7164  0.6251 -0.5020
  723MOL0     H95372   0.979   8.676   6.378 -0.0345 -3.0450  0.3361
  723MOL0     H95373   0.777   8.745   6.403  0.8732 -0.2072 -1.4285
  723MOL0     H95374   0.765   8.571   6.359 -0.9152 -0.6021 -3.0996
  723MOL0     H95375   0.536   8.598   6.289  1.3992  1.2890 -1.8067
  723MOL0     H95376   0.542   8.776   6.292  0.3772  0.9284  0.8274
  723MOL0     H95377   0.579   8.744   6.548  2.2678  0.1777 -2.8525
  723MOL0     H95378   0.553   8.574   6.519  0.3194 -0.7310 -1.4643
  723MOL0     H95379   0.350   8.800   6.450  1.4320  0.9954  1.5670
  723MOL0     H95380   0.328   8.625   6.405  0.6157 -0.7710  0.0491
  723MOL0     H95381   0.378   8.722   6.686 -1.3764 -0.1728  2.3027
  723MOL0     H95382   0.335   8.557   6.625 -1.4379 -0.4456 -0.8011
  723MOL0     H95383   0.158   8.808   6.629  0.8341  0.1895  2.5562
  723MOL0     H95384   0.144   8.668   6.745  0.5573 -1.5401 -0.8384
  723MOL0     H95385   0.115   8.633   6.444  0.6529  1.0185  0.1352
  723MOL0     H95386   0.035   8.535   6.571  0.4050 -0.4401  0.9778
  723MOL0     H95387  -0.104   8.692   6.433  2.0703 -2.9884  0.8465
  723MOL0     H95388  -0.016   8.819   6.505  2.8806 -1.6514 -1.2787
  723MOL0     H95389  -0.129   8.875   6.765  1.4297 -1.2866  0.5749
  723MOL0     H95390  -0.233   8.771   7.049  1.1370  1.6188 -0.7096
  723MOL0     H95391  -0.373   8.674   6.990 -1.2109  0.1702 -3.0659
  723MOL0     H95392  -0.443   8.892   6.850 -0.0218  0.7577  0.2119
  723MOL0     H95393  -0.301   8.964   6.918 -1.8151  2.6162  1.9261
  723MOL0     H95394  -0.514   8.827   7.096  0.2700 -1.6600 -4.1237
  723MOL0     H95395  -0.375   8.932   7.145  0.7423 -0.1046 -0.8193
  723MOL0     H95396  -0.478   9.125   7.038 -2.6153  3.0575  2.1630
  723MOL0     H95397  -0.587   9.052   7.154  2.5798 -1.4721  1.8270
  723MOL0     H95398  -0.840   9.064   6.811  0.2999 -0.0749 -0.2715
  723MOL0     H95399  -1.067   8.973   6.829 -1.7640 -0.1285  0.9656
  723MOL0     H95400  -1.419   8.783   7.162  0.0312 -0.3203  1.1042
  723MOL0     H95401  -1.648   8.690   7.134 -0.1538 -2.8675 -1.8884
  723MOL0     H95402  -1.808   8.472   6.847  0.0153 -0.2249 -0.8472
  723MOL0     H95403  -1.783   8.599   6.723 -0.7984 -1.0019 -0.3250
  723MOL0     H95404  -2.017   8.545   6.907  0.9600 -3.0798 -0.1338
  723MOL0     H95405  -2.002   8.461   6.763  0.5000 -0.8548  2.3700
  723MOL0     H95406  -2.055   8.644   6.620  0.8931  0.2183 -0.1970
  723MOL0     H95407  -1.964   8.754   6.722 -0.6557  0.0997 -1.9251
  723MOL0     H95408  -2.219   8.632   6.829  2.0956  0.0549  3.7551
  723MOL0     H95409  -2.135   8.776   6.878  0.2077 -2.9809  1.6733
  723MOL0     H95410  -2.221   8.886   6.655  2.9564 -1.1668  0.8890
  723MOL0     H95411  -2.355   8.830   6.747 -1.0078 -1.5034  0.0701
  723MOL0     H95412  -2.367   8.625   6.595  1.4429 -0.9645 -1.5586
  723MOL0     H95413  -2.241   8.679   6.503 -0.2430  0.0823 -0.5081
  723MOL0     H95414  -2.480   8.854   6.560  1.1275  2.3474 -0.3466
  723MOL0     H95415  -2.365   8.887   6.435 -1.2124  0.1145  0.3147
  723MOL0     H95416  -2.584   8.794   6.366  0.9271  1.8331  0.9440
  723MOL0     H95417  -2.534   8.640   6.438 -1.9154  1.8180  2.0994
  723MOL0     H95418  -1.620   8.733   6.707 -2.5128  1.9158  0.5448
  723MOL0     H95419  -1.398   8.807   6.732 -2.6556  2.6597 -2.2152
  723MOL0     H95420  -0.925   8.762   7.189 -0.7495 -0.2275 -0.4511
  723MOL0     H95421  -0.710   8.861   7.162 -0.1995 -1.8271 -0.1709
  723MOL0     H95422   0.878   8.729   5.954 -2.2718  0.6146  0.8375
  723MOL0     H95423   1.108   8.751   5.904  1.8433  1.4623  1.5413
  723MOL0     H95424   1.475   8.910   5.953  1.1061  1.7893 -0.2773
  723MOL0     H95425   1.693   8.969   5.872 -0.6829 -1.7299 -2.9909
  723MOL0     H95426   1.989   9.004   5.830 -1.7243  1.4177 -0.7430
  723MOL0     H95427   1.845   8.940   5.747 -1.0863 -1.0013  1.5993
  723MOL0     H95428   1.954   8.776   5.615  0.3442 -1.0383  0.7854
  723MOL0     H95429   2.031   8.928   5.587  1.0496 -1.3231 -0.7275
  723MOL0     H95430   2.187   8.745   5.605 -1.1591 -0.5418 -0.2996
  723MOL0     H95431   2.130   8.700   5.766  0.9425 -0.6377 -0.0688
  723MOL0     H95432   2.296   8.921   5.665 -2.7736 -0.5778 -1.3578
  723MOL0     H95433   2.214   8.961   5.821  2.3297  1.6814  0.5450
  723MOL0     H95434   2.525   8.681   5.913  0.1816  1.1657  2.5703
  723MOL0     H95435   1.865   8.618   6.051 -0.5776 -0.7335  2.9443
  723MOL0     H95436   1.644   8.554   6.134 -2.1285 -0.9414 -1.4601
  724MOL0     O95437   0.559   1.035   1.435 -0.4181 -0.8189 -0.2712
  724MOL0     C95438   0.535   1.052   1.552  0.2356 -0.1784 -0.4061
  724MOL0     O95439   0.405   1.071   1.600  0.2296 -0.2554 -0.3539
  724MOL0     C95440   0.306   1.059   1.502  0.4359 -1.2655 -0.0459
  724MOL0     C95441   0.249   1.179   1.451  0.2907 -0.2165  0.6551
  724MOL0     C95442   0.155   1.171   1.345 -0.0907  0.8429  0.5131
  724MOL0     C95443   0.118   1.043   1.295  0.2481  0.0058  0.1034
  724MOL0     O95444   0.019   1.022   1.204  0.1524  0.5916  0.3688
  724MOL0     C95445  -0.067   1.135   1.184  0.0208 -0.0172 -1.0336
  724MOL0     C95446  -0.163   1.105   1.073  0.2664  0.5851  0.2339
  724MOL0     C95447  -0.266   0.989   1.115  0.3522  0.1213  0.0583
  724MOL0     C95448  -0.303   0.898   0.995 -0.0904  0.1581 -0.9243
  724MOL0     C95449  -0.456   0.870   1.024  0.2395  0.9160 -0.1874
  724MOL0     C95450  -0.539   0.980   0.960 -0.0117 -0.3437  0.0986
  724MOL0     C95451  -0.688   0.974   1.006  0.2342 -0.2268 -0.0226
  724MOL0     C95452  -0.770   0.874   0.923 -0.1019 -0.0782  0.2153
  724MOL0     N95453  -0.915   0.873   0.938 -0.0176 -0.4032 -0.7511
  724MOL0     C95454  -0.993   0.979   0.899 -0.1949  0.4327  0.2234
  724MOL0     C95455  -1.117   0.940   0.915 -0.3851 -0.1904  0.6590
  724MOL0     C95456  -1.228   1.039   0.891 -0.0680 -0.5375 -0.1059
  724MOL0     C95457  -1.368   0.980   0.874 -0.6076  0.2535  0.8593
  724MOL0     C95458  -1.457   0.975   0.998  0.8632  0.4789  0.0278
  724MOL0     C95459  -1.614   0.978   0.977 -0.3764  0.5561 -0.1923
  724MOL0     O95460  -1.648   0.853   0.897 -0.4848 -1.3917 -0.0575
  724MOL0     C95461  -1.767   0.792   0.922 -0.0317  0.2829 -0.3070
  724MOL0     C95462  -1.827   0.771   1.049  0.0673  0.3431 -0.9863
  724MOL0     C95463  -1.945   0.692   1.060  0.2687  0.0455 -0.6585
  724MOL0     C95464  -1.996   0.629   0.943  0.5885  0.2755  0.2972
  724MOL0     C95465  -2.119   0.547   0.941 -0.0135  0.5208  0.2431
  724MOL0     O95466  -2.163   0.498   0.825  0.3186  0.6052  0.4951
  724MOL0     C95467  -2.280   0.424   0.832 -0.2618 -0.3302 -0.0459
  724MOL0     C95468  -2.396   0.494   0.783  0.1919  0.1832 -0.2621
  724MOL0     C95469  -2.514   0.439   0.812 -0.2484  0.1246  0.0902
  724MOL0     C95470  -2.534   0.317   0.878  0.0350 -0.3396 -0.4255
  724MOL0     O95471  -2.670   0.291   0.900 -0.1978  0.0393  0.2111
  724MOL0     C95472  -2.694   0.163   0.961  0.5352  0.1146 -0.3482
  724MOL0     C95473  -2.841   0.122   0.940  0.3330  0.0394  0.1277
  724MOL0     C95474  -2.923   0.184   1.048 -0.5456 -0.4633 -0.4472
  724MOL0     C95475  -3.062   0.120   1.041 -0.1295  0.2958 -0.4418
  724MOL0     C95476  -3.170   0.193   1.128  0.2668 -0.2560 -0.2750
  724MOL0     C95477  -3.140   0.190   1.282 -0.8087 -0.5570 -0.6639
  724MOL0     C95478  -3.240   0.262   1.367  1.2977 -0.3503 -0.5288
  724MOL0     C95479  -3.214   0.412   1.388  0.1223  0.4034  0.7116
  724MOL0    Cl95480  -3.076   0.453   1.494 -0.0188 -0.0261 -0.3049
  724MOL0     C95481  -2.421   0.243   0.911  0.6019 -0.2056 -0.6154
  724MOL0     C95482  -2.291   0.292   0.889  0.6411  0.0278 -0.0521
  724MOL0     O95483  -2.177   0.537   1.047 -0.0060 -0.5062  0.1689
  724MOL0     C95484  -1.925   0.662   0.823 -0.8555 -0.0828  0.6035
  724MOL0     C95485  -1.817   0.740   0.813 -0.4367  0.1154 -0.1572
  724MOL0     N95486  -1.122   0.820   0.981  0.8368  0.4002 -0.3852
  724MOL0     N95487  -1.001   0.777   1.001 -0.3723 -0.3587  0.4915
  724MOL0     C95488   0.170   0.926   1.355  0.0086 -0.1983  0.3782
  724MOL0     C95489   0.262   0.939   1.459  0.2655  0.0172  0.3172
  724MOL0     C95490   0.649   1.061   1.649  0.2264  0.6647 -0.2617
  724MOL0     C95491   0.632   1.027   1.787  0.7615  0.0588 -0.0965
  724MOL0     C95492   0.742   1.028   1.873 -0.0678  0.3966  0.4736
  724MOL0     C95493   0.871   1.063   1.823 -0.6864  0.6291 -0.6852
  724MOL0     O95494   0.968   1.063   1.913  0.2452  0.3530  0.5799
  724MOL0     C95495   1.100   1.049   1.862 -0.2460 -0.4263  0.7306
  724MOL0     C95496   1.193   1.048   1.981 -0.2171  1.4222  0.3548
  724MOL0     C95497   1.343   1.043   1.951  0.5612  0.3088 -0.0383
  724MOL0     C95498   1.437   1.078   2.068 -0.5768 -0.2355 -0.1604
  724MOL0     C95499   1.462   0.959   2.153 -0.0372  0.2691  0.6160
  724MOL0     C95500   1.482   0.865   2.225 -0.2639 -0.0371 -0.0150
  724MOL0     C95501   0.883   1.093   1.686  0.1023 -0.5351  0.5535
  724MOL0     C95502   0.775   1.103   1.600 -0.3656 -0.2320 -1.1099
  724MOL0     H95503   0.282   1.271   1.497  0.1660 -0.6742  1.6885
  724MOL0     H95504   0.127   1.264   1.296 -1.4492  0.3689  0.3327
  724MOL0     H95505  -0.006   1.218   1.148 -0.3944  0.3649 -0.8597
  724MOL0     H95506  -0.119   1.160   1.276 -2.0170 -3.0836 -1.1894
  724MOL0     H95507  -0.104   1.066   0.989  0.4712 -1.2717  1.1830
  724MOL0     H95508  -0.212   1.199   1.046 -2.1691 -0.3171  1.2147
  724MOL0     H95509  -0.354   1.034   1.162  0.2812 -0.1504  0.1871
  724MOL0     H95510  -0.208   0.930   1.186 -0.0962 -1.5079 -0.8518
  724MOL0     H95511  -0.293   0.961   0.906 -0.5146  2.4546  0.5823
  724MOL0     H95512  -0.233   0.818   0.969  0.5736 -0.3323  1.9781
  724MOL0     H95513  -0.490   0.855   1.127  0.3397  1.4401 -0.0731
  724MOL0     H95514  -0.467   0.776   0.969  0.8695  1.8661 -2.0243
  724MOL0     H95515  -0.528   0.984   0.851  0.1119 -0.7339  0.0947
  724MOL0     H95516  -0.518   1.080   1.001 -0.2902 -0.8784  1.6148
  724MOL0     H95517  -0.690   0.963   1.115  0.3320 -1.4729 -0.1325
  724MOL0     H95518  -0.730   1.074   0.988  3.6495  1.6226  1.2478
  724MOL0     H95519  -0.734   0.775   0.952 -1.8297 -0.8470 -0.0989
  724MOL0     H95520  -0.751   0.888   0.816 -0.7102  3.9025  0.4989
  724MOL0     H95521  -0.956   1.071   0.853 -1.2557  0.4892 -0.5482
  724MOL0     H95522  -1.212   1.081   0.791  1.7931  0.9311  0.7384
  724MOL0     H95523  -1.218   1.122   0.962  0.4733  3.0579 -3.9557
  724MOL0     H95524  -1.348   0.892   0.812  0.0235  1.0639 -0.1125
  724MOL0     H95525  -1.423   1.049   0.810  0.3676  0.9720  0.7730
  724MOL0     H95526  -1.434   0.888   1.062  1.3132  0.0615 -0.6864
  724MOL0     H95527  -1.437   1.065   1.057 -2.3732  1.0649  0.3713
  724MOL0     H95528  -1.637   1.070   0.922  2.9394  1.2334 -0.6794
  724MOL0     H95529  -1.662   0.974   1.074  0.6368  1.9627  0.4041
  724MOL0     H95530  -1.787   0.801   1.145  2.1804  1.6959 -2.2154
  724MOL0     H95531  -1.998   0.693   1.154 -0.3006 -1.7239 -0.9413
  724MOL0     H95532  -2.369   0.593   0.749 -1.3422  1.6077  2.3423
  724MOL0     H95533  -2.602   0.502   0.795  0.0130  0.4065 -0.2401
  724MOL0     H95534  -2.668   0.170   1.067 -1.2482  0.5127  0.1012
  724MOL0     H95535  -2.625   0.083   0.930 -0.5166 -1.2823  0.7698
  724MOL0     H95536  -2.853   0.014   0.949  0.4767  0.2317  4.0190
  724MOL0     H95537  -2.875   0.157   0.842  0.2711  0.4076  0.2810
  724MOL0     H95538  -2.930   0.293   1.041  0.0278 -0.3463  0.5660
  724MOL0     H95539  -2.884   0.158   1.147 -2.6952  1.6720  1.0614
  724MOL0     H95540  -3.102   0.106   0.940  0.0303  0.8109 -0.5797
  724MOL0     H95541  -3.074   0.019   1.082  0.0705 -1.1971 -3.7938
  724MOL0     H95542  -3.271   0.151   1.120 -1.4036  3.1928  0.7992
  724MOL0     H95543  -3.178   0.297   1.095  0.0984 -0.5140 -1.0722
  724MOL0     H95544  -3.044   0.234   1.313 -1.4080  0.2338  0.1131
  724MOL0     H95545  -3.140   0.086   1.313  3.5128 -0.7656 -0.7322
  724MOL0     H95546  -3.340   0.257   1.322  2.4860  1.3594 -3.6919
  724MOL0     H95547  -3.227   0.227   1.470 -1.4541  0.4327  0.1775
  724MOL0     H95548  -3.302   0.465   1.427 -0.8303 -0.7988  0.2867
  724MOL0     H95549  -3.181   0.453   1.292 -0.3783  0.3897  0.5252
  724MOL0     H95550  -2.437   0.150   0.965  2.4440  0.9294  2.1237
  724MOL0     H95551  -2.207   0.231   0.923  0.7594  0.3560  0.2557
  724MOL0     H95552  -1.954   0.612   0.731  1.7692 -1.4054  0.4277
  724MOL0     H95553  -1.768   0.751   0.716 -0.5652  0.9763 -0.1343
  724MOL0     H95554   0.155   0.825   1.319  1.7735 -0.1417 -0.6662
  724MOL0     H95555   0.296   0.850   1.511 -2.7492 -0.4989  1.6292
  724MOL0     H95556   0.536   0.987   1.816  1.5939 -2.2786 -0.3744
  724MOL0     H95557   0.726   1.017   1.979  1.6892 -1.7395  0.5934
  724MOL0     H95558   1.115   1.133   1.792  1.8552 -3.1541 -2.3861
  724MOL0     H95559   1.119   0.960   1.802  3.4866  1.5708 -1.3985
  724MOL0     H95560   1.166   1.132   2.046 -4.8752  2.1153 -2.1059
  724MOL0     H95561   1.164   0.958   2.037 -1.5565 -0.4967 -3.0865
  724MOL0     H95562   1.359   1.120   1.875  4.3049  2.3264  2.5004
  724MOL0     H95563   1.371   0.946   1.908  0.5350  0.8218 -1.2563
  724MOL0     H95564   1.533   1.116   2.032 -2.4175  2.6636 -2.5047
  724MOL0     H95565   1.391   1.157   2.127  1.4285  1.0791 -0.2599
  724MOL0     H95566   1.517   0.791   2.295 -0.0931 -0.6457 -0.7335
  724MOL0     H95567   0.978   1.126   1.646 -0.3762  1.9268  1.2337
  724MOL0     H95568   0.783   1.122   1.494  0.3231  1.6975 -0.7614
  725MOL0     O95569   0.548   2.430   6.892 -0.4814  0.0544 -0.0110
  725MOL0     C95570   0.552   2.384   7.004 -0.4582  1.7750  0.3566
  725MOL0     O95571   0.660   2.316   7.053  0.2673  0.1424  0.0489
  725MOL0     C95572   0.767   2.279   6.976  0.4290 -0.0198  0.4249
  725MOL0     C95573   0.756   2.216   6.851  0.4064 -0.3770 -0.6824
  725MOL0     C95574   0.868   2.170   6.777 -0.9161  0.3274 -0.2868
  725MOL0     C95575   0.998   2.178   6.830  0.9389  0.0980  0.1109
  725MOL0     O95576   1.115   2.120   6.778  0.2588  0.2025 -0.5186
  725MOL0     C95577   1.106   1.992   6.703 -0.1888 -0.1109 -0.7025
  725MOL0     C95578   1.215   1.896   6.748 -0.5197 -0.7567  0.6987
  725MOL0     C95579   1.187   1.813   6.874  0.2528  0.0184  0.1731
  725MOL0     C95580   1.172   1.913   7.000 -0.1829  0.3163 -0.1414
  725MOL0     C95581   1.170   1.833   7.128  0.3283 -0.0653  0.1711
  725MOL0     C95582   1.302   1.760   7.154  0.4040 -0.3059  0.5457
  725MOL0     C95583   1.300   1.694   7.289  0.1871  0.0129 -0.3004
  725MOL0     C95584   1.197   1.583   7.304  0.2784  0.8968 -0.5771
  725MOL0     N95585   1.176   1.556   7.452 -0.1262  0.3695 -0.2645
  725MOL0     C95586   1.096   1.637   7.528  0.1836 -0.5013 -0.6626
  725MOL0     C95587   1.122   1.610   7.658  0.4179  1.1340  0.0968
  725MOL0     C95588   1.069   1.671   7.787  0.4731  0.4991 -0.3785
  725MOL0     C95589   1.160   1.777   7.833  0.0937  0.3172 -0.1344
  725MOL0     C95590   1.134   1.821   7.975 -0.1687  0.2811 -0.3724
  725MOL0     C95591   0.996   1.899   7.973 -0.4022 -0.0590 -0.0780
  725MOL0     O95592   0.882   1.814   7.983  0.1475 -0.2168  0.4478
  725MOL0     C95593   0.766   1.859   8.045 -0.5880  0.1264 -0.1647
  725MOL0     C95594   0.666   1.763   8.066 -0.6721 -0.6296  0.7847
  725MOL0     C95595   0.538   1.802   8.115 -0.5762  0.1716  1.1575
  725MOL0     C95596   0.522   1.942   8.151 -0.0149  0.2036  0.5702
  725MOL0     C95597   0.387   1.981   8.196 -0.0224 -0.2745 -0.3104
  725MOL0     O95598   0.363   2.121   8.198  0.1851  0.2447 -0.3350
  725MOL0     C95599   0.231   2.164   8.209 -0.1397  0.5848  0.2936
  725MOL0     C95600   0.219   2.292   8.266 -0.0102  0.1635  0.7189
  725MOL0     C95601   0.092   2.366   8.261 -0.5486 -0.0910  0.5624
  725MOL0     C95602  -0.016   2.302   8.202 -0.1981  0.3474  0.6354
  725MOL0     O95603  -0.138   2.363   8.202 -0.2538 -0.8022  0.1334
  725MOL0     C95604  -0.140   2.509   8.211 -0.0422 -0.3473 -0.1985
  725MOL0     C95605  -0.290   2.552   8.188 -0.4162 -0.7755 -0.2266
  725MOL0     C95606  -0.345   2.539   8.046  0.2993 -0.6171  0.6790
  725MOL0     C95607  -0.483   2.596   8.023 -0.0361 -0.3519  0.0316
  725MOL0     C95608  -0.547   2.580   7.884 -0.3740  0.1932 -0.6726
  725MOL0     C95609  -0.675   2.654   7.874  0.6738 -0.4490  0.3412
  725MOL0     C95610  -0.732   2.639   7.724  0.1435  0.5405  1.4173
  725MOL0     C95611  -0.877   2.678   7.697  0.0114 -0.2189  0.0604
  725MOL0    Cl95612  -0.916   2.662   7.516 -0.3834  0.1992  0.0410
  725MOL0     C95613   0.001   2.171   8.144 -0.4879 -0.5706 -0.2021
  725MOL0     C95614   0.125   2.107   8.142  0.5820 -0.5649  0.7520
  725MOL0     O95615   0.309   1.893   8.234 -0.2553  0.3570  0.0603
  725MOL0     C95616   0.625   2.028   8.149 -0.3495  0.3327 -0.2849
  725MOL0     C95617   0.741   1.991   8.090 -0.1096 -0.2492 -0.5679
  725MOL0     N95618   1.217   1.507   7.661 -0.1564  0.0449  0.1233
  725MOL0     N95619   1.243   1.472   7.537  0.0699 -0.6962 -0.0809
  725MOL0     C95620   1.003   2.233   6.957 -0.3499 -0.2718 -0.7235
  725MOL0     C95621   0.897   2.283   7.033  0.2128  0.3511  0.0326
  725MOL0     C95622   0.437   2.416   7.092  0.6346 -0.0334 -0.3377
  725MOL0     C95623   0.333   2.503   7.049  0.3670  0.0484 -0.5064
  725MOL0     C95624   0.211   2.517   7.121  1.0891  0.1515 -1.1094
  725MOL0     C95625   0.189   2.426   7.227  0.1545 -0.3365  0.0803
  725MOL0     O95626   0.077   2.406   7.299  0.3076 -0.3778  0.4899
  725MOL0     C95627  -0.026   2.506   7.267 -0.6284  0.2061 -0.7630
  725MOL0     C95628  -0.128   2.495   7.386 -0.0236  0.4647  0.1069
  725MOL0     C95629  -0.233   2.602   7.373  1.0207 -0.4753 -1.7839
  725MOL0     C95630  -0.369   2.548   7.429  0.7438 -0.9792  0.2391
  725MOL0     C95631  -0.469   2.645   7.414 -0.4755 -0.7891  0.2366
  725MOL0     C95632  -0.557   2.724   7.392  0.3007  0.4905  0.2174
  725MOL0     C95633   0.289   2.338   7.272  0.8875  0.1896  0.2215
  725MOL0     C95634   0.408   2.335   7.206 -0.4927  1.1048  0.7302
  725MOL0     H95635   0.658   2.205   6.807 -0.8475  0.5977  1.7308
  725MOL0     H95636   0.862   2.116   6.683  0.2285 -3.2963  1.4928
  725MOL0     H95637   1.142   2.014   6.603  3.7564  1.2900  0.8322
  725MOL0     H95638   1.008   1.948   6.722 -0.6943  1.2563  0.0182
  725MOL0     H95639   1.305   1.953   6.771 -0.8218  0.3094 -0.6509
  725MOL0     H95640   1.228   1.832   6.660 -4.0144  0.2100 -0.6716
  725MOL0     H95641   1.276   1.751   6.890  0.6844 -0.0272 -2.0716
  725MOL0     H95642   1.097   1.753   6.857  0.4697  0.0917 -1.3727
  725MOL0     H95643   1.255   1.985   6.995  0.0971 -0.0649 -2.7826
  725MOL0     H95644   1.076   1.964   7.005 -0.9107 -1.1473  1.3710
  725MOL0     H95645   1.080   1.772   7.117 -0.0476  0.4422  0.3671
  725MOL0     H95646   1.156   1.912   7.203  0.9713  1.0634 -0.8532
  725MOL0     H95647   1.384   1.831   7.144 -0.4432  0.5083 -1.1092
  725MOL0     H95648   1.306   1.682   7.078 -1.0465 -0.5016  0.6412
  725MOL0     H95649   1.399   1.653   7.310 -0.5929 -1.0639  1.5764
  725MOL0     H95650   1.267   1.773   7.358  0.5168  0.4854 -0.6759
  725MOL0     H95651   1.236   1.496   7.249  2.0602  1.3808 -0.1237
  725MOL0     H95652   1.094   1.605   7.273 -0.0974 -1.3011 -1.1434
  725MOL0     H95653   1.018   1.706   7.496 -2.8666 -2.4944  1.8394
  725MOL0     H95654   1.046   1.591   7.858 -0.0370 -0.6176 -1.7644
  725MOL0     H95655   0.971   1.714   7.764  0.3768  0.1133 -0.6884
  725MOL0     H95656   1.148   1.866   7.771  1.5637  0.9055  0.3756
  725MOL0     H95657   1.262   1.735   7.834 -0.0977 -0.2104  1.8700
  725MOL0     H95658   1.115   1.737   8.042 -2.0038  1.0422  0.1227
  725MOL0     H95659   1.213   1.890   8.008  0.5793 -2.1621  3.6813
  725MOL0     H95660   0.986   1.962   7.884  1.2614  2.7215  1.5932
  725MOL0     H95661   0.984   1.964   8.060 -1.5729 -1.2914  0.7240
  725MOL0     H95662   0.688   1.663   8.031  0.3553 -0.6125  1.3387
  725MOL0     H95663   0.449   1.739   8.122 -0.9632  0.5028 -0.4215
  725MOL0     H95664   0.308   2.334   8.313  1.8277 -0.7331 -1.7161
  725MOL0     H95665   0.086   2.466   8.304 -0.7297 -0.2121  0.8245
  725MOL0     H95666  -0.075   2.548   8.132 -0.1362  1.1342  0.4336
  725MOL0     H95667  -0.112   2.547   8.309  0.7990 -0.8698 -0.2264
  725MOL0     H95668  -0.297   2.655   8.224  3.0692 -0.0884 -1.1687
  725MOL0     H95669  -0.350   2.488   8.254  0.1475 -1.6187 -0.5207
  725MOL0     H95670  -0.341   2.435   8.011  3.0096 -0.2091 -0.4783
  725MOL0     H95671  -0.277   2.585   7.974 -1.9588 -0.6475 -1.6366
  725MOL0     H95672  -0.547   2.557   8.103 -0.7762  1.4435  0.3728
  725MOL0     H95673  -0.463   2.702   8.042  2.7365 -0.8965  0.6449
  725MOL0     H95674  -0.566   2.474   7.865  0.1166  0.3718 -2.3047
  725MOL0     H95675  -0.478   2.615   7.806 -0.4051 -0.1030 -0.8334
  725MOL0     H95676  -0.650   2.757   7.900  0.0937 -1.0360  3.8194
  725MOL0     H95677  -0.749   2.637   7.953  1.6567  2.6276  2.0946
  725MOL0     H95678  -0.668   2.699   7.659  0.8189 -2.0386 -0.4820
  725MOL0     H95679  -0.710   2.536   7.693 -0.1725  0.0987  2.5947
  725MOL0     H95680  -0.892   2.779   7.735 -1.6472 -1.3544  2.6917
  725MOL0     H95681  -0.942   2.608   7.751 -0.2114 -2.0539 -2.3848
  725MOL0     H95682  -0.088   2.143   8.088  1.1091 -0.3478 -3.0112
  725MOL0     H95683   0.136   2.019   8.079 -1.3094  0.1355 -0.6881
  725MOL0     H95684   0.592   2.127   8.179 -3.7439 -0.7050 -0.1542
  725MOL0     H95685   0.814   2.071   8.086  0.8711 -1.1635 -3.1629
  725MOL0     H95686   1.104   2.234   6.996 -0.7510 -1.2681  0.4168
  725MOL0     H95687   0.923   2.316   7.133  1.7922  0.2548 -0.3193
  725MOL0     H95688   0.347   2.554   6.954  0.5979 -0.4863 -0.7610
  725MOL0     H95689   0.128   2.578   7.088  0.7093  0.2635  0.0336
  725MOL0     H95690  -0.069   2.478   7.171  0.2591 -0.4826 -0.9769
  725MOL0     H95691   0.005   2.610   7.259 -0.5635  0.1962 -0.6533
  725MOL0     H95692  -0.173   2.396   7.386  1.9260 -0.4996  1.6230
  725MOL0     H95693  -0.073   2.516   7.479 -1.2687  2.0119  0.5390
  725MOL0     H95694  -0.242   2.623   7.266 -0.4391  2.9749 -1.1310
  725MOL0     H95695  -0.203   2.696   7.420  0.0704 -1.7294  1.6100
  725MOL0     H95696  -0.397   2.454   7.380  1.2672  0.0018 -2.0640
  725MOL0     H95697  -0.347   2.522   7.533 -0.0869 -1.5135  0.2843
  725MOL0     H95698  -0.632   2.794   7.359  0.7365  0.0695 -1.7812
  725MOL0     H95699   0.276   2.274   7.359 -1.1780 -0.5080 -0.5412
  725MOL0     H95700   0.491   2.277   7.246 -0.4751  1.8296  1.7916
  726MOL0     O95701   1.403   7.514   9.726  0.3206  0.1478  0.0225
  726MOL0     C95702   1.431   7.393   9.731 -0.3957  0.7075  0.6714
  726MOL0     O95703   1.342   7.284   9.708 -0.0071  0.0349 -0.2989
  726MOL0     C95704   1.210   7.320   9.699  0.2459  0.7359 -0.4138
  726MOL0     C95705   1.153   7.381   9.592 -0.7171 -0.1969 -0.5152
  726MOL0     C95706   1.016   7.412   9.590 -1.1540 -0.0835 -0.4430
  726MOL0     C95707   0.924   7.352   9.673 -0.6407  0.9618  0.3827
  726MOL0     O95708   0.786   7.362   9.673  0.2440  0.1892  0.2125
  726MOL0     C95709   0.730   7.389   9.542 -0.0543 -0.0970  0.5713
  726MOL0     C95710   0.583   7.352   9.548  1.0051 -0.5851  0.2633
  726MOL0     C95711   0.500   7.448   9.464 -0.9053  0.2679  0.5459
  726MOL0     C95712   0.353   7.400   9.451 -0.5421  0.4977 -0.4321
  726MOL0     C95713   0.271   7.521   9.405 -1.2151  0.4250 -0.0278
  726MOL0     C95714   0.123   7.473   9.383  0.6157 -0.4467  1.1779
  726MOL0     C95715   0.034   7.593   9.396  0.6988 -0.6503 -0.5394
  726MOL0     C95716  -0.120   7.574   9.360 -0.0970  0.0564 -0.3196
  726MOL0     N95717  -0.189   7.486   9.452 -0.2153  0.1858 -0.0659
  726MOL0     C95718  -0.216   7.506   9.582 -1.3587 -0.8211  0.3484
  726MOL0     C95719  -0.311   7.420   9.609  0.7065  0.2628 -0.9590
  726MOL0     C95720  -0.398   7.421   9.736 -0.3714 -0.3693 -0.2856
  726MOL0     C95721  -0.337   7.330   9.848  0.1037  0.2879 -0.0040
  726MOL0     C95722  -0.383   7.188   9.826 -1.1220 -0.4109 -0.0552
  726MOL0     C95723  -0.483   7.147   9.934 -0.4456 -0.6000 -0.0216
  726MOL0     O95724  -0.598   7.241   9.929  0.1868 -0.5727  0.4514
  726MOL0     C95725  -0.731   7.210   9.922  0.5595  0.5445  0.5171
  726MOL0     C95726  -0.812   7.318   9.892 -0.2929  0.5390  0.0697
  726MOL0     C95727  -0.951   7.308   9.890 -0.9765  0.2195  0.7269
  726MOL0     C95728  -1.018   7.180   9.906 -0.3374 -0.2195 -0.6321
  726MOL0     C95729  -1.156   7.171   9.897 -0.1315 -0.5311 -0.1852
  726MOL0     O95730  -1.211   7.042   9.897 -0.5560 -0.0712  0.0613
  726MOL0     C95731  -1.345   7.021   9.893  0.1348 -0.1914  0.0154
  726MOL0     C95732  -1.453   7.111   9.898 -0.4484  0.8664 -0.4517
  726MOL0     C95733  -1.582   7.049   9.896 -0.2400  0.5302 -0.0102
  726MOL0     C95734  -1.609   6.912   9.866 -1.0564  0.6388  0.2354
  726MOL0     O95735  -1.736   6.854   9.859  1.4061  0.1947  0.3545
  726MOL0     C95736  -1.835   6.889   9.954 -0.1273  0.0112 -0.6633
  726MOL0     C95737  -1.937   6.798   9.927 -0.0551 -0.1883  0.0132
  726MOL0     C95738  -2.056   6.818  10.032  0.3207  0.9117  0.8110
  726MOL0     C95739  -2.173   6.719   9.996  0.3286  0.9483 -0.0803
  726MOL0     C95740  -2.276   6.718  10.108  1.0075 -0.4464 -0.5355
  726MOL0     C95741  -2.410   6.663  10.062 -0.1671  0.4288 -0.2805
  726MOL0     C95742  -2.513   6.678  10.173  0.3653 -0.0983  0.4141
  726MOL0     C95743  -2.646   6.608  10.150 -1.3687  0.7277 -0.7179
  726MOL0    Cl95744  -2.763   6.657  10.291 -0.0196 -0.0049  0.1480
  726MOL0     C95745  -1.493   6.830   9.851  0.6571  0.4688  0.4835
  726MOL0     C95746  -1.366   6.882   9.867  1.0848 -0.3012 -0.2495
  726MOL0     O95747  -1.216   7.279   9.878  0.3956  0.2992 -0.4713
  726MOL0     C95748  -0.925   7.070   9.945  0.6647 -0.6793  0.6538
  726MOL0     C95749  -0.787   7.088   9.934  0.0755  0.4316 -0.1629
  726MOL0     N95750  -0.330   7.334   9.504  0.3655  0.2377  0.2230
  726MOL0     N95751  -0.251   7.376   9.414  0.3685 -0.0126 -0.2855
  726MOL0     C95752   0.981   7.276   9.782 -0.1656 -0.0457  0.3135
  726MOL0     C95753   1.121   7.261   9.796 -0.3862  0.1027 -0.2616
  726MOL0     C95754   1.578   7.354   9.746  1.0472 -0.0570 -0.2762
  726MOL0     C95755   1.632   7.227   9.783  0.0172  1.1337  0.1834
  726MOL0     C95756   1.771   7.204   9.810  0.6146  0.5480  0.0188
  726MOL0     C95757   1.867   7.307   9.772  0.5163 -0.6114  0.0466
  726MOL0     O95758   2.002   7.281   9.762  0.4915 -0.3200  0.5829
  726MOL0     C95759   2.107   7.380   9.760  0.0605 -0.3622 -0.5803
  726MOL0     C95760   2.233   7.292   9.746 -0.0106  0.0483  0.4985
  726MOL0     C95761   2.360   7.372   9.708 -0.5712  0.1685 -0.2080
  726MOL0     C95762   2.464   7.272   9.643  0.3860 -0.6306 -0.1238
  726MOL0     C95763   2.577   7.344   9.587 -0.5954 -0.4922 -0.3812
  726MOL0     C95764   2.659   7.410   9.537  0.4535  0.1937  0.1331
  726MOL0     C95765   1.815   7.430   9.742  0.3453 -0.4983 -0.2690
  726MOL0     C95766   1.677   7.453   9.727 -0.3131 -0.0034  0.2291
  726MOL0     H95767   1.232   7.424   9.530  1.9966 -3.9258  0.0126
  726MOL0     H95768   0.989   7.473   9.505  0.1366 -1.4129 -1.8452
  726MOL0     H95769   0.782   7.337   9.461 -1.5249 -2.2203  0.9050
  726MOL0     H95770   0.743   7.493   9.512 -0.5345 -0.2586 -0.2336
  726MOL0     H95771   0.551   7.375   9.650  1.0672  2.6730 -0.3477
  726MOL0     H95772   0.568   7.248   9.518  0.1478 -0.2850 -0.3715
  726MOL0     H95773   0.553   7.461   9.369  1.4741 -2.0214  1.4478
  726MOL0     H95774   0.505   7.543   9.519  0.6392  1.0619 -0.8847
  726MOL0     H95775   0.338   7.313   9.386  1.1247  1.6012 -2.4335
  726MOL0     H95776   0.319   7.364   9.548  0.9182 -2.7539 -0.9877
  726MOL0     H95777   0.305   7.561   9.308 -1.4891 -0.6030 -0.5596
  726MOL0     H95778   0.270   7.601   9.480 -2.8769  0.7687 -0.3607
  726MOL0     H95779   0.105   7.398   9.460  3.3285 -2.1031  0.3370
  726MOL0     H95780   0.104   7.422   9.288 -1.3924  1.6593  0.3422
  726MOL0     H95781   0.044   7.628   9.499  0.0432 -1.2258 -0.2724
  726MOL0     H95782   0.072   7.672   9.330 -1.0192  0.5163 -0.1797
  726MOL0     H95783  -0.132   7.546   9.255 -1.6199  0.5922 -0.3064
  726MOL0     H95784  -0.173   7.670   9.358 -1.4364 -0.6755 -0.7102
  726MOL0     H95785  -0.190   7.587   9.649 -3.8120 -1.6649  2.5008
  726MOL0     H95786  -0.499   7.387   9.711  0.1111 -1.5428 -0.6992
  726MOL0     H95787  -0.410   7.520   9.781 -2.0920 -0.2814 -0.8670
  726MOL0     H95788  -0.356   7.375   9.946 -2.3323 -0.3407 -0.1205
  726MOL0     H95789  -0.228   7.337   9.844  0.0190  1.5909 -0.2208
  726MOL0     H95790  -0.420   7.173   9.724 -1.6667  1.3950 -0.1487
  726MOL0     H95791  -0.301   7.116   9.836 -2.2933 -2.0929 -1.8468
  726MOL0     H95792  -0.450   7.138  10.038 -0.8925 -1.3770  0.0650
  726MOL0     H95793  -0.512   7.045   9.908  0.0744 -1.4801  2.5947
  726MOL0     H95794  -0.768   7.416   9.874 -0.2539  0.5920  0.4456
  726MOL0     H95795  -1.011   7.394   9.860 -1.6183 -1.1208 -2.2383
  726MOL0     H95796  -1.440   7.216   9.922  1.5075  1.0209 -1.9956
  726MOL0     H95797  -1.674   7.107   9.901 -0.7296 -0.2403  0.0776
  726MOL0     H95798  -1.877   6.988   9.934 -1.3881 -0.5720 -1.0629
  726MOL0     H95799  -1.796   6.886  10.056 -0.6419  0.8597 -0.4301
  726MOL0     H95800  -1.889   6.700   9.935  2.2651  0.9131  0.4368
  726MOL0     H95801  -1.978   6.814   9.827 -2.1441 -1.4563  0.5930
  726MOL0     H95802  -2.088   6.923  10.038 -3.3151  0.2650 -2.9402
  726MOL0     H95803  -2.019   6.789  10.131 -0.2137  2.1302  1.3972
  726MOL0     H95804  -2.219   6.742   9.899 -1.2691 -3.8272 -0.7613
  726MOL0     H95805  -2.138   6.615   9.993 -1.5183  0.2904 -0.8977
  726MOL0     H95806  -2.292   6.823  10.133 -0.3140 -0.9502  0.9596
  726MOL0     H95807  -2.236   6.655  10.189 -0.9520 -1.1783 -0.0564
  726MOL0     H95808  -2.405   6.556  10.039 -1.3002  0.2854  0.1160
  726MOL0     H95809  -2.432   6.714   9.968  0.4392  0.2913 -0.5056
  726MOL0     H95810  -2.472   6.646  10.269 -0.0933 -0.4686  0.4902
  726MOL0     H95811  -2.535   6.785  10.173 -0.7087 -0.2323 -2.2665
  726MOL0     H95812  -2.627   6.500  10.148  5.8165  1.4411  0.8161
  726MOL0     H95813  -2.678   6.628  10.048 -1.2735 -2.3159 -1.4333
  726MOL0     H95814  -1.500   6.722   9.837  0.2782  0.6894 -1.2797
  726MOL0     H95815  -1.285   6.812   9.852  1.4486  0.5116 -2.5364
  726MOL0     H95816  -0.973   6.974   9.960 -0.2134 -0.6475 -1.4986
  726MOL0     H95817  -0.732   6.995   9.939 -1.9625 -0.9456 -1.9203
  726MOL0     H95818   0.923   7.220   9.856 -0.8981 -0.5349 -0.6077
  726MOL0     H95819   1.173   7.225   9.884  0.4950 -0.9027 -1.1652
  726MOL0     H95820   1.561   7.146   9.799  1.1085  0.2790  0.8646
  726MOL0     H95821   1.805   7.105   9.838  0.0811  0.1429 -0.7277
  726MOL0     H95822   2.106   7.433   9.856  0.0760 -3.6740  1.4202
  726MOL0     H95823   2.098   7.453   9.680  1.1610  3.0321  2.1180
  726MOL0     H95824   2.256   7.234   9.837  1.5074  0.1856  0.2329
  726MOL0     H95825   2.224   7.216   9.668 -0.9045  0.5931  0.0556
  726MOL0     H95826   2.404   7.410   9.800  0.1756 -3.7751  1.2517
  726MOL0     H95827   2.332   7.443   9.629  2.4619 -1.4826 -3.0065
  726MOL0     H95828   2.493   7.206   9.725 -3.8218  0.6175  2.7386
  726MOL0     H95829   2.415   7.210   9.567  1.4969 -0.0406 -1.3662
  726MOL0     H95830   2.732   7.464   9.480  0.2796 -0.6343 -0.8950
  726MOL0     H95831   1.879   7.514   9.715  0.5478  0.0528  1.7751
  726MOL0     H95832   1.652   7.551   9.687 -0.3641 -0.4835 -0.9511
  727MOL0     O95833   4.393   5.280  10.259 -0.0163  0.1869 -0.4231
  727MOL0     C95834   4.469   5.191  10.285  0.2719 -0.7202 -0.3433
  727MOL0     O95835   4.432   5.064  10.326 -0.4354  0.0960  0.2565
  727MOL0     C95836   4.303   5.022  10.310 -0.9621  0.2004  0.3800
  727MOL0     C95837   4.239   5.024  10.184 -0.2628  0.5575  0.1852
  727MOL0     C95838   4.114   4.976  10.168  0.0951 -0.0300 -0.2565
  727MOL0     C95839   4.040   4.935  10.279  0.5883 -0.0089 -0.6150
  727MOL0     O95840   3.918   4.876  10.276  0.0781  0.3590  0.4661
  727MOL0     C95841   3.878   4.800  10.163 -0.4665 -0.3704  0.8011
  727MOL0     C95842   3.741   4.731  10.187  0.1947  0.1883  1.0841
  727MOL0     C95843   3.753   4.612  10.270  0.1887 -0.4845 -0.0015
  727MOL0     C95844   3.620   4.534  10.290  0.4097 -0.1059 -0.1447
  727MOL0     C95845   3.625   4.402  10.367  0.7339  0.0820 -0.0279
  727MOL0     C95846   3.678   4.423  10.509 -0.4329 -1.0004  0.9898
  727MOL0     C95847   3.679   4.300  10.590  0.4000 -0.2114  0.7187
  727MOL0     C95848   3.684   4.325  10.743  0.9766  0.5570  0.4212
  727MOL0     N95849   3.801   4.410  10.777  0.0885  1.2095 -0.3213
  727MOL0     C95850   3.811   4.548  10.782 -0.1626  0.4552  0.0859
  727MOL0     C95851   3.940   4.580  10.791  0.7491 -0.0009  0.3651
  727MOL0     C95852   3.997   4.715  10.812 -0.3466  1.3753  1.2093
  727MOL0     C95853   4.149   4.724  10.807 -0.1874  0.1806  1.1072
  727MOL0     C95854   4.204   4.867  10.830  0.5546  0.2893 -0.7672
  727MOL0     C95855   4.356   4.868  10.835  0.1258  0.6778 -0.3137
  727MOL0     O95856   4.416   4.863  10.705 -0.2987 -0.3646  0.2588
  727MOL0     C95857   4.550   4.868  10.689  0.1997 -0.3962  0.5011
  727MOL0     C95858   4.598   4.807  10.573  0.4523  0.2158  1.1143
  727MOL0     C95859   4.735   4.775  10.553  0.2801  0.1870  0.8373
  727MOL0     C95860   4.831   4.829  10.642 -1.4785  0.3466  1.1863
  727MOL0     C95861   4.979   4.806  10.613  0.0090  0.4092 -0.2181
  727MOL0     O95862   5.019   4.824  10.484  0.0016 -0.5836 -0.5235
  727MOL0     C95863   5.146   4.821  10.451 -0.2529 -0.1249 -0.1936
  727MOL0     C95864   5.200   4.919  10.365 -0.3993  0.2463  0.8299
  727MOL0     C95865   5.337   4.907  10.327 -0.5466 -0.3308  0.2242
  727MOL0     C95866   5.424   4.799  10.383  0.4448 -0.1633 -0.5335
  727MOL0     O95867   5.554   4.794  10.345  0.1746  0.4518  0.2705
  727MOL0     C95868   5.652   4.722  10.428 -0.7207 -0.4427 -0.5520
  727MOL0     C95869   5.670   4.802  10.564  0.1128 -0.5208  0.3893
  727MOL0     C95870   5.800   4.753  10.637  0.9479 -0.3145  0.0852
  727MOL0     C95871   5.821   4.855  10.742  0.0990 -0.0683  0.2572
  727MOL0     C95872   5.960   4.854  10.804  0.2123  0.3219  0.2647
  727MOL0     C95873   5.996   4.725  10.893  0.6312 -0.2233 -0.7142
  727MOL0     C95874   6.146   4.718  10.945 -0.2423 -0.8601  0.1306
  727MOL0     C95875   6.248   4.716  10.825 -0.6087  0.1481  0.4721
  727MOL0    Cl95876   6.414   4.727  10.888  0.3785 -0.3274  0.0004
  727MOL0     C95877   5.365   4.708  10.469 -0.3396 -0.7791 -0.5430
  727MOL0     C95878   5.236   4.725  10.508 -0.0866 -0.1491  0.4700
  727MOL0     O95879   5.055   4.797  10.711 -0.4127 -0.2475  0.4500
  727MOL0     C95880   4.787   4.886  10.765  0.4177 -0.1113 -0.2700
  727MOL0     C95881   4.653   4.904  10.788  0.3266  0.2212 -0.6900
  727MOL0     N95882   4.003   4.454  10.805 -0.4226  0.1265  0.1563
  727MOL0     N95883   3.921   4.355  10.795 -0.2711  0.4611 -0.0852
  727MOL0     C95884   4.107   4.928  10.405  0.4919  0.3008  0.5034
  727MOL0     C95885   4.237   4.977  10.423  0.0366  0.3451  0.0341
  727MOL0     C95886   4.613   5.230  10.279  0.2732  0.0160 -0.1286
  727MOL0     C95887   4.652   5.366  10.272 -0.4767 -0.4471 -1.0443
  727MOL0     C95888   4.787   5.400  10.243  0.6801  0.0760 -0.3152
  727MOL0     C95889   4.893   5.311  10.239 -0.4133  1.0257  0.8049
  727MOL0     O95890   5.029   5.345  10.211 -0.0505  0.5282 -0.2650
  727MOL0     C95891   5.089   5.459  10.261 -0.7770 -0.4672 -0.3563
  727MOL0     C95892   5.234   5.465  10.222 -0.6197 -0.7676  0.3034
  727MOL0     C95893   5.318   5.357  10.299 -0.0644 -0.3623  0.4344
  727MOL0     C95894   5.471   5.369  10.278 -0.3803 -0.2597 -0.2228
  727MOL0     C95895   5.537   5.256  10.337 -0.0658 -0.1655 -0.0575
  727MOL0     C95896   5.587   5.172  10.403 -0.3132 -0.2068  0.0621
  727MOL0     C95897   4.854   5.177  10.254  0.2268 -0.2690 -0.8751
  727MOL0     C95898   4.715   5.139  10.263  0.2872  1.0020 -0.5351
  727MOL0     H95899   4.294   5.065  10.100 -1.3236  1.0979 -0.2580
  727MOL0     H95900   4.058   4.999  10.078  1.3058  0.2504 -0.9721
  727MOL0     H95901   3.960   4.744  10.116  0.3879  2.5696 -1.5644
  727MOL0     H95902   3.862   4.875  10.085  1.9218 -0.4770  0.1235
  727MOL0     H95903   3.708   4.696  10.089 -0.4907 -0.0492  1.3929
  727MOL0     H95904   3.673   4.806  10.229 -0.5970 -0.0803  0.3098
  727MOL0     H95905   3.787   4.638  10.370 -0.2439 -1.3264  0.3776
  727MOL0     H95906   3.826   4.545  10.224  2.1191 -2.6913  5.4869
  727MOL0     H95907   3.554   4.599  10.348 -1.5320 -2.2591  0.2058
  727MOL0     H95908   3.585   4.511  10.189  2.8149 -0.8868 -0.8555
  727MOL0     H95909   3.696   4.333  10.319  0.1442 -2.0390  1.9858
  727MOL0     H95910   3.530   4.349  10.365 -0.0942  1.4307  1.4758
  727MOL0     H95911   3.630   4.508  10.557  1.2377  2.2593 -2.6071
  727MOL0     H95912   3.784   4.451  10.499 -0.2147 -1.9516  0.5243
  727MOL0     H95913   3.589   4.239  10.577  0.7366 -1.0428  2.0193
  727MOL0     H95914   3.762   4.236  10.561  0.3437 -2.3663  4.5928
  727MOL0     H95915   3.695   4.231  10.797 -0.1768 -0.5675 -1.2041
  727MOL0     H95916   3.591   4.374  10.772 -0.8510 -3.3033  1.6629
  727MOL0     H95917   3.729   4.620  10.784  1.5211  2.4519  0.7577
  727MOL0     H95918   3.953   4.765  10.899  0.4166  0.5064  2.1186
  727MOL0     H95919   3.951   4.760  10.723  0.1320 -0.0637  0.1928
  727MOL0     H95920   4.185   4.692  10.709 -2.6106 -2.7795  1.0323
  727MOL0     H95921   4.207   4.673  10.884  0.8864  0.7337  0.6872
  727MOL0     H95922   4.163   4.941  10.761 -2.2597  0.2453  0.7315
  727MOL0     H95923   4.174   4.891  10.933 -2.8382 -2.0689 -1.0762
  727MOL0     H95924   4.401   4.788  10.895 -1.0123  1.2764  1.4097
  727MOL0     H95925   4.387   4.954  10.894  1.6768 -1.1284  1.6956
  727MOL0     H95926   4.539   4.770  10.490  2.1764 -2.6034  1.0161
  727MOL0     H95927   4.761   4.733  10.456 -2.8328  0.7890 -0.3898
  727MOL0     H95928   5.138   4.995  10.318  0.3658  0.6442  0.4415
  727MOL0     H95929   5.377   4.971  10.249  1.1278 -2.4434 -0.7505
  727MOL0     H95930   5.749   4.716  10.377  0.0634  0.3586  0.7988
  727MOL0     H95931   5.619   4.618  10.437  2.6166 -1.5413  0.6540
  727MOL0     H95932   5.580   4.780  10.622  0.6624  2.2256  2.5092
  727MOL0     H95933   5.676   4.909  10.544  0.5354 -0.1648  2.3095
  727MOL0     H95934   5.880   4.750  10.563  1.2072  1.8568  0.2211
  727MOL0     H95935   5.780   4.653  10.677 -1.7263  0.4579  0.8704
  727MOL0     H95936   5.802   4.951  10.692  0.1046 -0.6402 -0.8769
  727MOL0     H95937   5.757   4.838  10.828  1.5338 -0.0787  1.3592
  727MOL0     H95938   5.976   4.948  10.859  1.8113 -1.2107  2.6315
  727MOL0     H95939   6.029   4.859  10.719 -1.9780  0.5657 -1.5631
  727MOL0     H95940   5.972   4.633  10.839 -1.7440 -0.6956  1.0047
  727MOL0     H95941   5.927   4.711  10.976  0.4634 -1.3048 -1.0297
  727MOL0     H95942   6.165   4.812  11.000  2.1198 -1.3461  0.2557
  727MOL0     H95943   6.167   4.631  11.008 -0.1232 -0.7186  0.2907
  727MOL0     H95944   6.242   4.792  10.747  1.8709 -0.2676 -0.1894
  727MOL0     H95945   6.250   4.618  10.775  2.9082  0.1222  0.4423
  727MOL0     H95946   5.415   4.618  10.504  0.6655  0.9246  2.8582
  727MOL0     H95947   5.217   4.654  10.589  1.3034 -0.4265  0.5747
  727MOL0     H95948   4.848   4.916  10.849  0.3160 -0.1619 -0.1784
  727MOL0     H95949   4.626   4.940  10.887 -0.1019  2.4978 -1.5778
  727MOL0     H95950   4.053   4.883  10.489 -1.5476 -0.0355 -0.9219
  727MOL0     H95951   4.272   4.957  10.524  0.5292 -1.0051 -0.3890
  727MOL0     H95952   4.581   5.448  10.275  1.2336  1.1056  2.8056
  727MOL0     H95953   4.823   5.502  10.233 -1.1535  0.8031  0.1952
  727MOL0     H95954   5.071   5.483  10.366  0.4544 -1.0979  0.0255
  727MOL0     H95955   5.042   5.544  10.211  2.0645  1.5409  0.1682
  727MOL0     H95956   5.252   5.452  10.115 -0.0414 -0.6329  0.3795
  727MOL0     H95957   5.287   5.554  10.254  0.0451 -1.0961  0.1321
  727MOL0     H95958   5.287   5.264  10.250  3.0352 -0.5207 -1.5176
  727MOL0     H95959   5.290   5.362  10.405  1.6815 -1.3153  0.9783
  727MOL0     H95960   5.507   5.372  10.175 -0.6881  0.0065 -0.3227
  727MOL0     H95961   5.508   5.459  10.327 -0.4414 -0.4206  0.1201
  727MOL0     H95962   5.633   5.084  10.442 -0.4609 -0.3879 -0.1680
  727MOL0     H95963   4.943   5.115  10.257  1.2015  1.1337  0.6619
  727MOL0     H95964   4.697   5.035  10.287  2.2602  0.4565 -1.2027
  728MOL0     O95965  10.707   8.376   0.723 -0.4474  0.4646 -0.1345
  728MOL0     C95966  10.735   8.486   0.695 -0.2033  0.4726  0.3843
  728MOL0     O95967  10.659   8.581   0.639 -0.1693 -0.2486 -0.0739
  728MOL0     C95968  10.526   8.572   0.621 -0.2215  0.7712 -0.5251
  728MOL0     C95969  10.468   8.455   0.570 -0.3742 -0.6597  0.0170
  728MOL0     C95970  10.338   8.454   0.529  0.5203 -0.1761 -0.8472
  728MOL0     C95971  10.255   8.561   0.575  0.1025 -0.2907  0.1809
  728MOL0     O95972  10.115   8.565   0.558 -0.1068  0.2638 -0.3061
  728MOL0     C95973  10.041   8.444   0.550 -0.6660 -0.0136 -0.3217
  728MOL0     C95974   9.901   8.468   0.586  0.2558  0.3911  0.0721
  728MOL0     C95975   9.826   8.336   0.580  0.1950  0.1096  0.4011
  728MOL0     C95976   9.684   8.359   0.623  0.7119 -0.8195  0.5721
  728MOL0     C95977   9.620   8.227   0.627  0.4104 -0.0385  0.3431
  728MOL0     C95978   9.474   8.231   0.685 -0.2412  0.1040 -0.1967
  728MOL0     C95979   9.426   8.088   0.704 -0.6198  0.6298 -0.2324
  728MOL0     C95980   9.277   8.083   0.729  0.0149  0.5568  0.3065
  728MOL0     N95981   9.241   8.026   0.853  0.2609 -0.0190  0.0520
  728MOL0     C95982   9.188   8.108   0.952  0.1239 -0.4743 -0.8620
  728MOL0     C95983   9.155   8.020   1.051 -0.3655 -0.1192 -0.1969
  728MOL0     C95984   9.077   8.062   1.172 -0.3989  0.1723 -0.6590
  728MOL0     C95985   8.934   8.108   1.163 -0.1746 -0.0131  0.3177
  728MOL0     C95986   8.832   8.006   1.107  0.2447 -0.7530  0.3564
  728MOL0     C95987   8.698   8.084   1.096 -0.3424  0.2542  0.0507
  728MOL0     O95988   8.592   7.995   1.067 -0.2045  0.3550 -0.2041
  728MOL0     C95989   8.463   8.040   1.069  0.3478 -0.3799 -0.8086
  728MOL0     C95990   8.366   7.955   1.018  0.4186 -0.0741  0.1670
  728MOL0     C95991   8.225   7.985   1.008  0.0136 -0.5565  0.2959
  728MOL0     C95992   8.179   8.112   1.055  0.2545  0.7023 -0.2805
  728MOL0     C95993   8.045   8.155   1.036  0.4281 -0.2173 -0.0335
  728MOL0     O95994   8.022   8.252   1.132  0.5303 -0.1233  0.1725
  728MOL0     C95995   7.892   8.300   1.150  0.0890 -0.1499 -0.0051
  728MOL0     C95996   7.871   8.442   1.179 -0.7519 -0.5740 -0.0395
  728MOL0     C95997   7.740   8.493   1.207 -0.1258 -0.1022  0.3509
  728MOL0     C95998   7.625   8.411   1.209 -0.3442 -0.4390  0.2696
  728MOL0     O95999   7.513   8.493   1.231 -0.5034  0.1378 -0.8563
  728MOL0     C96000   7.388   8.438   1.206  0.3747 -0.9128  0.8213
  728MOL0     C96001   7.346   8.455   1.054  0.0156 -0.2708  0.2067
  728MOL0     C96002   7.211   8.381   1.023  0.6587  0.8937 -0.4511
  728MOL0     C96003   7.090   8.454   1.103 -0.1344  0.5299  0.5215
  728MOL0     C96004   6.970   8.366   1.099  0.3849 -0.3553 -1.0419
  728MOL0     C96005   6.849   8.466   1.092 -0.1853  0.5105  1.0025
  728MOL0     C96006   6.718   8.384   1.076  0.0900  0.1423 -0.7195
  728MOL0     C96007   6.602   8.482   1.088 -0.4880 -0.3625 -0.5243
  728MOL0    Cl96008   6.581   8.539   1.255 -0.4697  0.4671  0.0008
  728MOL0     C96009   7.637   8.273   1.179 -0.0236  0.1424  0.2226
  728MOL0     C96010   7.769   8.225   1.148  1.5302 -0.1865  0.6613
  728MOL0     O96011   7.965   8.103   0.958  0.4881 -0.3415  1.0175
  728MOL0     C96012   8.281   8.197   1.100  0.9212 -0.0049 -0.0272
  728MOL0     C96013   8.417   8.167   1.107 -0.5351  0.1290  0.0304
  728MOL0     N96014   9.165   7.890   1.012  0.3774  0.3400  0.2363
  728MOL0     N96015   9.205   7.901   0.894 -0.7735  0.8729  0.0077
  728MOL0     C96016  10.316   8.673   0.626 -0.0329 -0.1551  0.2582
  728MOL0     C96017  10.448   8.686   0.647 -0.9698  0.4494  0.0406
  728MOL0     C96018  10.867   8.539   0.753 -1.1877  0.1086  0.6704
  728MOL0     C96019  10.925   8.673   0.732  1.7436 -0.2768  0.0992
  728MOL0     C96020  11.048   8.711   0.790 -0.3712  0.6521 -0.4627
  728MOL0     C96021  11.128   8.623   0.867 -0.0448  0.3757 -0.6193
  728MOL0     O96022  11.239   8.663   0.946 -0.2656 -0.3345  0.4056
  728MOL0     C96023  11.302   8.789   0.911  0.5834  0.2456 -0.2955
  728MOL0     C96024  11.419   8.808   1.016 -0.2126 -0.0722  0.6500
  728MOL0     C96025  11.550   8.751   0.967 -0.0071 -0.3149  0.1996
  728MOL0     C96026  11.613   8.818   0.834 -0.1451 -0.0528 -0.2403
  728MOL0     C96027  11.754   8.764   0.812  0.7371  0.1991 -0.9364
  728MOL0     C96028  11.869   8.713   0.807 -0.9783 -0.3829 -0.4622
  728MOL0     C96029  11.072   8.495   0.889  0.0489  0.3175  0.2493
  728MOL0     C96030  10.955   8.458   0.828  0.4201 -0.6845 -0.2649
  728MOL0     H96031  10.537   8.379   0.534 -1.4675 -0.1899 -3.3819
  728MOL0     H96032  10.286   8.376   0.474  1.3387  0.3207 -2.3839
  728MOL0     H96033  10.095   8.365   0.602  0.2916 -0.7615 -2.3522
  728MOL0     H96034  10.041   8.410   0.446 -1.4677 -2.3119  0.3592
  728MOL0     H96035   9.856   8.539   0.516 -0.2653 -2.3688 -2.5834
  728MOL0     H96036   9.898   8.515   0.685  1.5281 -2.6139  1.6434
  728MOL0     H96037   9.884   8.279   0.652  0.6026  1.3637  1.0912
  728MOL0     H96038   9.833   8.289   0.481  0.4728 -0.0641  0.5048
  728MOL0     H96039   9.681   8.413   0.718 -0.5784  0.4862 -0.1695
  728MOL0     H96040   9.624   8.421   0.555 -0.0387 -3.2954 -1.1775
  728MOL0     H96041   9.682   8.159   0.686 -2.1307 -0.4612  2.7245
  728MOL0     H96042   9.611   8.192   0.523  2.1152 -0.3729  0.2756
  728MOL0     H96043   9.402   8.295   0.633 -2.1348  2.0346  4.2613
  728MOL0     H96044   9.481   8.267   0.788 -2.3999  4.1629 -1.2286
  728MOL0     H96045   9.443   8.029   0.614 -1.3524  1.7822 -1.1570
  728MOL0     H96046   9.477   8.040   0.788  0.3268  2.6238  0.3767
  728MOL0     H96047   9.237   8.015   0.654  1.1697 -1.5880  1.5473
  728MOL0     H96048   9.220   8.176   0.720 -0.8353 -0.0733 -1.1463
  728MOL0     H96049   9.178   8.216   0.961 -2.2187 -0.6981 -0.1233
  728MOL0     H96050   9.125   8.137   1.234 -3.7645  1.4903  0.6008
  728MOL0     H96051   9.063   7.975   1.236 -1.3601  1.9599  1.6876
  728MOL0     H96052   8.938   8.196   1.098 -1.2843  1.4973  2.1618
  728MOL0     H96053   8.899   8.139   1.262  1.7057  0.6444  0.8162
  728MOL0     H96054   8.871   7.972   1.010  1.3885 -1.2146  0.9621
  728MOL0     H96055   8.814   7.927   1.180  1.1118 -1.3488 -0.0529
  728MOL0     H96056   8.703   8.161   1.019  1.4582 -1.0321 -1.2107
  728MOL0     H96057   8.685   8.144   1.187 -1.6793  0.0496  0.0142
  728MOL0     H96058   8.393   7.855   0.987  2.4632  0.1339  1.1235
  728MOL0     H96059   8.161   7.903   0.978  0.5860 -0.6459 -0.7328
  728MOL0     H96060   7.954   8.505   1.209 -1.4881 -0.4581  1.8411
  728MOL0     H96061   7.740   8.599   1.231  4.0477 -0.4028  2.7255
  728MOL0     H96062   7.322   8.497   1.270 -0.0213 -2.3808  1.8205
  728MOL0     H96063   7.380   8.335   1.242 -1.4138 -0.6991  1.1285
  728MOL0     H96064   7.423   8.423   0.984  0.4167  0.8892  0.1050
  728MOL0     H96065   7.337   8.562   1.034  1.3337 -0.2009 -0.0897
  728MOL0     H96066   7.223   8.273   1.031  2.0603  1.0154 -0.6951
  728MOL0     H96067   7.188   8.398   0.918  0.8859  0.8894 -0.5024
  728MOL0     H96068   7.112   8.467   1.209 -1.8949  0.3474  0.9386
  728MOL0     H96069   7.078   8.549   1.051 -1.3896  0.2891  0.3352
  728MOL0     H96070   6.968   8.295   1.183  1.1107 -2.1684 -2.5002
  728MOL0     H96071   6.966   8.298   1.014 -2.1986 -0.4652 -0.9136
  728MOL0     H96072   6.850   8.540   1.011 -2.7338  1.6166  1.8863
  728MOL0     H96073   6.841   8.529   1.181  0.5014  2.8954 -0.5216
  728MOL0     H96074   6.708   8.325   0.984  2.7366 -0.1962 -0.8471
  728MOL0     H96075   6.707   8.306   1.151 -0.6090 -0.4631 -1.4367
  728MOL0     H96076   6.504   8.435   1.073 -0.4319 -1.2631  1.5295
  728MOL0     H96077   6.601   8.569   1.022 -2.1875 -1.0342 -1.4598
  728MOL0     H96078   7.556   8.201   1.186  1.8312 -2.1021 -0.1141
  728MOL0     H96079   7.779   8.117   1.145  1.8875 -0.1936  1.5834
  728MOL0     H96080   8.258   8.295   1.140 -0.5486  0.9946 -3.0671
  728MOL0     H96081   8.486   8.241   1.148  1.0862 -0.7647 -0.9934
  728MOL0     H96082  10.257   8.757   0.660  0.8376 -0.1465  1.8875
  728MOL0     H96083  10.486   8.776   0.694 -1.6346  0.5725  0.3490
  728MOL0     H96084  10.886   8.746   0.662  1.9828  0.5184  0.7771
  728MOL0     H96085  11.079   8.811   0.758  1.2280  0.8605  1.5342
  728MOL0     H96086  11.230   8.868   0.936 -0.1561 -0.5050 -0.0152
  728MOL0     H96087  11.334   8.798   0.807 -0.3596 -0.2279 -0.6390
  728MOL0     H96088  11.443   8.914   1.029 -0.3989 -0.1759  2.0366
  728MOL0     H96089  11.389   8.773   1.115 -1.7351 -1.7447 -0.3265
  728MOL0     H96090  11.538   8.646   0.942  1.2974 -0.3944 -0.2022
  728MOL0     H96091  11.624   8.759   1.047 -0.0314 -1.0931  0.3045
  728MOL0     H96092  11.555   8.793   0.744  0.1890  1.1755 -0.8100
  728MOL0     H96093  11.628   8.926   0.838  2.8143 -0.3609 -0.8280
  728MOL0     H96094  11.966   8.668   0.808 -0.9980 -0.4684  1.4517
  728MOL0     H96095  11.121   8.422   0.953 -0.0761 -0.3009 -0.3439
  728MOL0     H96096  10.940   8.356   0.862  0.4271 -0.7820 -0.5553
  729MOL0     O96097   3.866   4.300   6.991 -0.0237  0.2777 -0.1110
  729MOL0     C96098   3.868   4.344   7.104 -0.1037  0.3840  0.3208
  729MOL0     O96099   3.973   4.344   7.186  0.0870  0.4599  1.0753
  729MOL0     C96100   4.094   4.303   7.136 -0.1714 -0.4527  0.2605
  729MOL0     C96101   4.126   4.170   7.120 -0.5796  0.0861 -0.5368
  729MOL0     C96102   4.257   4.133   7.074 -0.4157  0.2954 -0.3782
  729MOL0     C96103   4.355   4.220   7.046  0.4382 -0.0988 -0.1051
  729MOL0     O96104   4.476   4.189   6.997  0.8056  0.4582  0.5870
  729MOL0     C96105   4.467   4.111   6.877  0.1886  0.0897 -0.3071
  729MOL0     C96106   4.619   4.101   6.831  0.2337  0.0999  1.0020
  729MOL0     C96107   4.623   3.995   6.718 -0.8399 -0.9929 -0.2789
  729MOL0     C96108   4.755   3.930   6.694  1.0393 -0.0667  0.7430
  729MOL0     C96109   4.755   3.823   6.582 -0.2006 -0.3177 -0.2286
  729MOL0     C96110   4.899   3.763   6.557  0.5612 -0.2725 -0.4516
  729MOL0     C96111   4.942   3.675   6.677 -0.4317  0.6099 -0.0412
  729MOL0     C96112   5.073   3.606   6.633 -1.1965 -0.6313 -0.1188
  729MOL0     N96113   5.143   3.559   6.752  0.1556  0.0223  0.0501
  729MOL0     C96114   5.138   3.431   6.795 -0.0270  0.2081 -0.2426
  729MOL0     C96115   5.208   3.428   6.917 -0.1124 -0.6585 -0.3861
  729MOL0     C96116   5.253   3.301   6.981  0.2580  0.0432 -0.4151
  729MOL0     C96117   5.343   3.231   6.886  0.1876  0.0361  0.0469
  729MOL0     C96118   5.442   3.147   6.971  0.6201  0.5944  0.0327
  729MOL0     C96119   5.498   3.021   6.906  0.0651 -0.0822  0.1469
  729MOL0     O96120   5.387   2.930   6.861 -0.4461 -0.1333 -0.2606
  729MOL0     C96121   5.358   2.826   6.949 -0.0572  0.8338  0.6041
  729MOL0     C96122   5.423   2.701   6.947 -0.2590 -0.1360 -0.7217
  729MOL0     C96123   5.372   2.599   7.031  0.2669  0.3917 -0.3530
  729MOL0     C96124   5.266   2.610   7.117 -0.3264 -0.4592  0.3247
  729MOL0     C96125   5.231   2.504   7.207  0.3043  0.2057 -0.8145
  729MOL0     O96126   5.104   2.509   7.262  1.0062 -0.1637 -0.3461
  729MOL0     C96127   5.059   2.439   7.373  0.7694 -0.3366 -0.7659
  729MOL0     C96128   4.922   2.437   7.399  0.2330  0.3528  0.2833
  729MOL0     C96129   4.869   2.381   7.511 -0.0367 -0.2836 -0.4547
  729MOL0     C96130   4.945   2.319   7.608  0.3030 -0.1621 -0.1297
  729MOL0     O96131   4.872   2.255   7.702 -0.5114 -0.2964 -0.5348
  729MOL0     C96132   4.933   2.218   7.824 -0.5039  0.0605 -0.3854
  729MOL0     C96133   4.832   2.193   7.937 -0.1753  0.3849  1.0706
  729MOL0     C96134   4.734   2.070   7.908  0.2666 -0.6651 -0.3466
  729MOL0     C96135   4.652   2.049   8.037  0.3727  0.2591 -1.1925
  729MOL0     C96136   4.563   1.921   8.027 -0.4328  0.3775  0.3729
  729MOL0     C96137   4.487   1.902   8.163 -0.3445  0.8851 -0.3211
  729MOL0     C96138   4.388   1.791   8.175 -0.2034  0.4355 -0.2130
  729MOL0     C96139   4.381   1.717   8.311  0.6905  0.4104 -0.1951
  729MOL0    Cl96140   4.390   1.827   8.455 -0.2870  0.3948 -0.1100
  729MOL0     C96141   5.079   2.329   7.590  0.5266  0.5261  0.2247
  729MOL0     C96142   5.142   2.384   7.472 -0.0497  1.1573  0.3335
  729MOL0     O96143   5.314   2.420   7.224 -0.1944  0.2653 -0.9165
  729MOL0     C96144   5.211   2.741   7.124  0.1587 -0.7604  0.7539
  729MOL0     C96145   5.256   2.841   7.037 -0.5186 -0.1131  0.0536
  729MOL0     N96146   5.240   3.560   6.960 -0.4387 -0.3735  0.7395
  729MOL0     N96147   5.192   3.632   6.863 -0.2993 -0.4272  0.3752
  729MOL0     C96148   4.322   4.352   7.060  0.5058  0.1869 -0.3470
  729MOL0     C96149   4.194   4.398   7.100  0.2964 -0.7300 -1.0956
  729MOL0     C96150   3.738   4.389   7.158  0.5394  0.0603  0.4791
  729MOL0     C96151   3.724   4.428   7.291 -0.0485  0.4261  0.1659
  729MOL0     C96152   3.605   4.487   7.329  0.1126  0.1790 -0.4606
  729MOL0     C96153   3.498   4.514   7.230 -0.1634  0.1531 -1.0105
  729MOL0     O96154   3.397   4.596   7.276 -0.1449  0.2863 -0.1975
  729MOL0     C96155   3.301   4.651   7.186 -0.0994 -0.2648 -0.1853
  729MOL0     C96156   3.361   4.775   7.126  0.1664 -0.7619  0.2906
  729MOL0     C96157   3.355   4.889   7.228 -0.3360  0.1557  0.3216
  729MOL0     C96158   3.335   5.028   7.164 -0.4189  0.4101 -0.7094
  729MOL0     C96159   3.433   5.051   7.056 -0.7725  0.9329  0.9305
  729MOL0     C96160   3.525   5.071   6.971 -0.5194  0.4208  0.2638
  729MOL0     C96161   3.508   4.465   7.098  0.0068  1.0534  1.1614
  729MOL0     C96162   3.623   4.385   7.067 -0.5625 -0.7401 -0.3885
  729MOL0     H96163   4.054   4.090   7.134 -0.1200 -0.0338  1.4483
  729MOL0     H96164   4.271   4.025   7.073  0.0290  0.3305  0.7740
  729MOL0     H96165   4.407   4.169   6.806 -0.4924  0.2933  0.4171
  729MOL0     H96166   4.418   4.015   6.894 -4.4605  2.6820  3.1053
  729MOL0     H96167   4.685   4.063   6.910  1.2719 -0.7770 -0.2449
  729MOL0     H96168   4.669   4.193   6.800  2.1910 -1.2414 -0.0365
  729MOL0     H96169   4.577   4.028   6.625 -0.6818 -0.2962 -0.1137
  729MOL0     H96170   4.562   3.916   6.763  0.6354 -0.9289  2.0462
  729MOL0     H96171   4.821   4.015   6.672 -0.1533  1.0690  1.4007
  729MOL0     H96172   4.792   3.882   6.785  0.9837 -0.6283  0.4756
  729MOL0     H96173   4.728   3.876   6.491  0.1110 -0.5524 -0.4608
  729MOL0     H96174   4.683   3.747   6.615 -1.4090  0.0695 -1.8770
  729MOL0     H96175   4.957   3.853   6.535  1.5463 -0.5848  0.7700
  729MOL0     H96176   4.901   3.699   6.468 -1.4045  1.3719 -1.7630
  729MOL0     H96177   4.954   3.740   6.764  1.1850 -0.9924  1.0001
  729MOL0     H96178   4.865   3.602   6.703 -0.8631  1.0602 -0.0546
  729MOL0     H96179   5.131   3.668   6.564 -1.8581  0.1997  0.0487
  729MOL0     H96180   5.044   3.518   6.576 -0.0977 -1.7790  1.0349
  729MOL0     H96181   5.103   3.346   6.738  1.3855  0.6542 -1.8480
  729MOL0     H96182   5.168   3.233   6.991 -3.0172  3.6783 -1.1412
  729MOL0     H96183   5.302   3.321   7.077 -1.0464 -2.4183  0.8591
  729MOL0     H96184   5.405   3.303   6.831 -2.1642  1.3373 -1.0406
  729MOL0     H96185   5.285   3.168   6.818 -0.9874  1.9302 -0.7913
  729MOL0     H96186   5.517   3.214   7.014  0.5264 -0.2811  1.6012
  729MOL0     H96187   5.394   3.107   7.060  0.7718  2.0073  0.7757
  729MOL0     H96188   5.565   2.963   6.969 -0.0956  1.9267  2.3299
  729MOL0     H96189   5.568   3.045   6.825  1.4584 -0.5563  1.1781
  729MOL0     H96190   5.509   2.686   6.884 -0.2972  2.1791 -1.4083
  729MOL0     H96191   5.437   2.512   7.029  0.4031  0.4388  0.8787
  729MOL0     H96192   4.849   2.476   7.329 -2.6598  0.0801  2.9485
  729MOL0     H96193   4.761   2.371   7.507 -0.3420  1.3412  1.8012
  729MOL0     H96194   5.001   2.296   7.858  1.1679 -2.5449  2.9165
  729MOL0     H96195   4.997   2.132   7.797 -1.7146 -1.0009  0.0244
  729MOL0     H96196   4.773   2.285   7.945 -0.9606 -0.1008  1.0125
  729MOL0     H96197   4.894   2.185   8.026  0.7929 -3.6414  0.2340
  729MOL0     H96198   4.802   1.985   7.893 -0.0683 -1.1773  0.8858
  729MOL0     H96199   4.674   2.088   7.819 -1.9925 -1.5565  0.9126
  729MOL0     H96200   4.721   2.047   8.122 -2.1536 -0.7936  1.0144
  729MOL0     H96201   4.587   2.136   8.051 -0.3412  0.1942 -3.6123
  729MOL0     H96202   4.630   1.838   8.006  0.2049  1.0620 -0.3887
  729MOL0     H96203   4.490   1.929   7.945  0.8433  0.0943 -0.8196
  729MOL0     H96204   4.429   1.991   8.190  0.8848  1.7813 -0.5237
  729MOL0     H96205   4.563   1.886   8.240  1.0159 -0.2310 -1.8273
  729MOL0     H96206   4.289   1.827   8.147  0.6279  2.4363 -0.7823
  729MOL0     H96207   4.419   1.726   8.093  2.9687  1.4207  0.0575
  729MOL0     H96208   4.455   1.636   8.312 -0.1968 -0.4281 -0.4917
  729MOL0     H96209   4.289   1.658   8.323  0.5922  0.8607  1.4471
  729MOL0     H96210   5.147   2.281   7.660 -0.1005 -0.8554 -0.0762
  729MOL0     H96211   5.249   2.381   7.456 -0.4521 -1.8475 -3.5195
  729MOL0     H96212   5.128   2.749   7.193 -0.7701  0.9901 -0.4834
  729MOL0     H96213   5.208   2.939   7.033  0.7359  0.4892 -1.8767
  729MOL0     H96214   4.401   4.426   7.048 -0.0036  0.7693 -0.1862
  729MOL0     H96215   4.163   4.501   7.115 -0.6288 -0.8561 -2.0825
  729MOL0     H96216   3.802   4.425   7.367 -0.6911  1.7458  0.9216
  729MOL0     H96217   3.592   4.523   7.431 -0.8404  0.4720 -0.6803
  729MOL0     H96218   3.210   4.668   7.245 -0.1195  0.6741 -0.4660
  729MOL0     H96219   3.274   4.577   7.110  0.6189 -0.4315 -0.2860
  729MOL0     H96220   3.467   4.760   7.105 -0.0869 -0.2588 -1.5107
  729MOL0     H96221   3.307   4.809   7.038 -2.3661 -0.7104  1.7485
  729MOL0     H96222   3.451   4.892   7.280 -0.0598 -0.7804 -0.1149
  729MOL0     H96223   3.274   4.867   7.298 -0.9378 -2.6876 -1.0773
  729MOL0     H96224   3.231   5.043   7.133 -1.0400 -0.7256  0.7109
  729MOL0     H96225   3.349   5.108   7.238  1.2784 -0.3907 -0.1148
  729MOL0     H96226   3.614   5.088   6.914 -0.2850  0.4587  0.6437
  729MOL0     H96227   3.429   4.482   7.026  2.9395  0.0053 -2.5903
  729MOL0     H96228   3.629   4.356   6.962 -1.5275 -0.0365 -0.6529
  730MOL0     O96229   2.749   8.109   7.141  0.2417  0.4690  0.4710
  730MOL0     C96230   2.836   8.038   7.186 -0.1592  0.1024 -0.6168
  730MOL0     O96231   2.837   7.966   7.305  0.3313 -0.6131 -0.0706
  730MOL0     C96232   2.718   7.918   7.342 -0.5327 -0.0126 -0.1138
  730MOL0     C96233   2.701   7.916   7.486  0.0820 -0.2438 -0.2221
  730MOL0     C96234   2.591   7.863   7.544 -0.3039 -0.8807  0.2415
  730MOL0     C96235   2.500   7.803   7.454 -0.6461 -0.4862 -0.3700
  730MOL0     O96236   2.390   7.746   7.498  0.4929  0.3692  0.8340
  730MOL0     C96237   2.294   7.837   7.545  0.2724  1.1675  0.9265
  730MOL0     C96238   2.158   7.767   7.532  0.2949  0.6286 -0.1508
  730MOL0     C96239   2.108   7.737   7.677  0.0348  0.7391 -0.2263
  730MOL0     C96240   1.975   7.656   7.676  0.2381 -0.1334  0.4997
  730MOL0     C96241   1.858   7.752   7.632  0.3466 -0.0426 -0.4739
  730MOL0     C96242   1.727   7.680   7.620 -0.2797  0.6334 -0.4724
  730MOL0     C96243   1.681   7.623   7.759 -0.5902 -0.2573  0.0066
  730MOL0     C96244   1.534   7.592   7.746 -0.0203 -0.9620  0.1430
  730MOL0     N96245   1.483   7.481   7.821 -0.0423 -0.3657 -0.0986
  730MOL0     C96246   1.355   7.458   7.862  0.5839 -0.9058 -0.3573
  730MOL0     C96247   1.351   7.324   7.875  1.0344  0.1582 -0.8842
  730MOL0     C96248   1.231   7.238   7.915  0.3857 -0.7860  0.0085
  730MOL0     C96249   1.102   7.318   7.901  0.1812  0.0135  0.4481
  730MOL0     C96250   0.976   7.259   7.952  0.0373 -0.9527 -0.3165
  730MOL0     C96251   0.964   7.105   7.944 -0.1801 -0.5349  1.0138
  730MOL0     O96252   0.835   7.071   8.008 -0.4810 -0.3570  0.1751
  730MOL0     C96253   0.721   7.070   7.935  0.4317  0.0640  0.1941
  730MOL0     C96254   0.705   7.079   7.794 -0.0163 -0.2158  0.4063
  730MOL0     C96255   0.575   7.098   7.742 -0.0086  0.9449 -0.5701
  730MOL0     C96256   0.459   7.086   7.820 -0.0839 -0.8174  0.4739
  730MOL0     C96257   0.323   7.094   7.762 -0.6689  0.1477  0.0486
  730MOL0     O96258   0.218   7.118   7.858 -0.0068 -0.3962 -1.1222
  730MOL0     C96259   0.086   7.126   7.826 -0.2546  0.3874  0.1206
  730MOL0     C96260  -0.005   7.050   7.898  0.6746 -0.3500  0.2981
  730MOL0     C96261  -0.144   7.055   7.873 -0.0372  0.4719 -0.1973
  730MOL0     C96262  -0.198   7.133   7.762 -0.9247 -1.1763  0.0877
  730MOL0     O96263  -0.326   7.148   7.732  0.2350  0.2636  0.4267
  730MOL0     C96264  -0.417   7.149   7.846  0.2078  0.7588 -0.0721
  730MOL0     C96265  -0.495   7.279   7.816 -0.0496  0.4752  0.7525
  730MOL0     C96266  -0.604   7.298   7.924  0.2490  0.0255  0.6379
  730MOL0     C96267  -0.734   7.341   7.850  0.1443  0.0310  0.0063
  730MOL0     C96268  -0.840   7.353   7.956  0.4344  0.6904  0.0770
  730MOL0     C96269  -0.979   7.380   7.888 -0.7885  0.2111  0.5879
  730MOL0     C96270  -1.075   7.402   8.002  0.1951  0.5467 -0.2169
  730MOL0     C96271  -1.225   7.401   7.963 -0.0123  0.7992  0.4049
  730MOL0    Cl96272  -1.245   7.525   7.840  0.2113 -0.0879  0.4151
  730MOL0     C96273  -0.106   7.206   7.687 -1.6559 -0.6421 -0.5084
  730MOL0     C96274   0.037   7.198   7.712  0.0057 -0.4323  0.1679
  730MOL0     O96275   0.305   7.073   7.639  0.1588 -0.0605  0.5909
  730MOL0     C96276   0.479   7.061   7.954  0.0728  0.1630 -0.3644
  730MOL0     C96277   0.605   7.046   8.012  0.1866 -0.3572 -0.1727
  730MOL0     N96278   1.479   7.273   7.859 -0.0987 -1.0693 -0.1792
  730MOL0     N96279   1.552   7.369   7.820 -0.6185 -0.6642 -0.9137
  730MOL0     C96280   2.517   7.790   7.321  0.4385 -0.2707 -0.0326
  730MOL0     C96281   2.629   7.851   7.257  0.1804 -0.6290 -0.1390
  730MOL0     C96282   2.967   8.058   7.120 -0.2982  0.1324  0.1235
  730MOL0     C96283   3.081   7.986   7.169 -0.5922 -0.9330  0.5024
  730MOL0     C96284   3.211   7.991   7.102  0.2818  0.5795 -0.3775
  730MOL0     C96285   3.232   8.063   6.986  0.2035 -0.4878 -0.1444
  730MOL0     O96286   3.350   8.059   6.917  0.4038 -0.2178 -0.1522
  730MOL0     C96287   3.452   7.968   6.957  0.1838 -0.5157 -0.6854
  730MOL0     C96288   3.561   7.961   6.846 -0.7140 -0.8218  1.1273
  730MOL0     C96289   3.687   7.881   6.900  0.1242  0.6678 -0.2589
  730MOL0     C96290   3.649   7.739   6.955  0.5878  0.3485 -0.8461
  730MOL0     C96291   3.748   7.632   6.946  0.2760 -0.5648 -0.5377
  730MOL0     C96292   3.833   7.543   6.939  0.3212 -0.8814 -0.1562
  730MOL0     C96293   3.119   8.130   6.944 -0.6035 -1.1444  0.0163
  730MOL0     C96294   2.990   8.134   6.998 -0.8300  0.2139 -0.4173
  730MOL0     H96295   2.764   7.977   7.552  1.3517 -0.6463 -1.0249
  730MOL0     H96296   2.576   7.863   7.652  2.1066  2.5043  0.7236
  730MOL0     H96297   2.287   7.916   7.470  0.3163 -2.1274 -2.8897
  730MOL0     H96298   2.319   7.853   7.650 -1.4264 -1.8990  1.9337
  730MOL0     H96299   2.157   7.675   7.473  1.6184 -0.7410  1.8634
  730MOL0     H96300   2.084   7.835   7.488  0.4556  0.3486 -0.8652
  730MOL0     H96301   2.083   7.831   7.728 -3.1187  0.7013 -1.4708
  730MOL0     H96302   2.179   7.679   7.736 -1.4002  0.5690  1.3933
  730MOL0     H96303   1.985   7.575   7.603  4.6069  1.8066 -1.4641
  730MOL0     H96304   1.963   7.608   7.773 -0.7016 -0.6163  0.1504
  730MOL0     H96305   1.868   7.792   7.531 -2.9621  2.6252  0.1062
  730MOL0     H96306   1.861   7.840   7.697 -0.4717 -0.4678  0.1570
  730MOL0     H96307   1.738   7.593   7.553 -0.6614 -0.3810  0.7422
  730MOL0     H96308   1.654   7.751   7.580 -0.9983 -1.1043 -2.4757
  730MOL0     H96309   1.741   7.535   7.780 -0.0370 -0.0173 -0.5303
  730MOL0     H96310   1.703   7.688   7.844  2.1550 -1.0264 -0.0058
  730MOL0     H96311   1.515   7.557   7.644 -0.9782  0.4468 -0.1953
  730MOL0     H96312   1.471   7.679   7.765 -1.7670 -1.6328 -2.1480
  730MOL0     H96313   1.285   7.537   7.887 -1.6592 -2.9620  0.1458
  730MOL0     H96314   1.242   7.208   8.019  0.3256 -1.6365 -0.2241
  730MOL0     H96315   1.232   7.146   7.856 -1.9574 -0.3192 -0.8938
  730MOL0     H96316   1.083   7.317   7.793 -0.2642 -2.6084  0.4965
  730MOL0     H96317   1.104   7.416   7.951  0.0859  0.0754  0.3319
  730MOL0     H96318   0.965   7.287   8.058 -1.6655  0.3276 -0.7872
  730MOL0     H96319   0.891   7.304   7.900 -0.5973  0.4181  1.7716
  730MOL0     H96320   1.045   7.047   7.991  0.5234 -0.1285  0.3347
  730MOL0     H96321   0.959   7.077   7.838  0.5185  2.6819  0.0172
  730MOL0     H96322   0.795   7.089   7.734 -0.3360 -3.4077 -0.8067
  730MOL0     H96323   0.558   7.118   7.637 -1.0884  1.2770 -0.3413
  730MOL0     H96324   0.033   7.002   7.987  1.1667  0.0253  0.2962
  730MOL0     H96325  -0.202   6.990   7.938  0.6768  3.0618  3.3502
  730MOL0     H96326  -0.362   7.158   7.940 -0.4332 -0.0806  0.3966
  730MOL0     H96327  -0.474   7.056   7.843  0.8154  0.3859 -3.1920
  730MOL0     H96328  -0.531   7.294   7.714  2.5480 -1.4959 -0.5734
  730MOL0     H96329  -0.428   7.365   7.821  0.5710  0.1140 -0.8472
  730MOL0     H96330  -0.578   7.381   7.990 -1.0403 -1.5917  3.3436
  730MOL0     H96331  -0.602   7.219   7.999  0.2416 -0.9117 -0.3222
  730MOL0     H96332  -0.717   7.437   7.801  0.4352 -1.4958 -3.0956
  730MOL0     H96333  -0.756   7.266   7.774 -1.6792 -0.8452  1.3246
  730MOL0     H96334  -0.819   7.444   8.014  0.7792  0.6258  0.0544
  730MOL0     H96335  -0.843   7.264   8.020  0.0931  0.9416  0.4153
  730MOL0     H96336  -1.014   7.294   7.829 -1.2590 -0.7735  2.2426
  730MOL0     H96337  -0.975   7.468   7.822  1.4379  0.6790  1.2885
  730MOL0     H96338  -1.060   7.320   8.072 -0.1554 -0.9096 -1.7828
  730MOL0     H96339  -1.045   7.494   8.054  2.8444 -0.1183 -0.4000
  730MOL0     H96340  -1.280   7.418   8.056  0.3051 -2.5994  1.3441
  730MOL0     H96341  -1.257   7.303   7.927  0.7838  0.7885 -0.3248
  730MOL0     H96342  -0.134   7.271   7.604  2.5355 -1.6507 -3.0029
  730MOL0     H96343   0.106   7.253   7.650 -0.4746 -1.0410 -0.9267
  730MOL0     H96344   0.399   7.038   8.024 -2.4888  2.5834 -2.2598
  730MOL0     H96345   0.624   7.022   8.116  2.2095 -2.8760 -1.0073
  730MOL0     H96346   2.444   7.733   7.265 -0.0904  2.2609 -2.0858
  730MOL0     H96347   2.644   7.826   7.153  0.9756 -1.7867  0.2285
  730MOL0     H96348   3.074   7.914   7.250  1.3071 -0.8840  0.7404
  730MOL0     H96349   3.286   7.925   7.145 -0.5624  1.0250  1.9201
  730MOL0     H96350   3.413   7.868   6.978 -1.3968  0.5201  1.6881
  730MOL0     H96351   3.506   7.992   7.049  1.2079 -2.2354 -0.8098
  730MOL0     H96352   3.513   7.905   6.765  0.6108 -0.0537 -0.2448
  730MOL0     H96353   3.605   8.052   6.805  1.5743 -2.7054 -0.9746
  730MOL0     H96354   3.746   7.940   6.971  1.6004 -3.5010  2.3489
  730MOL0     H96355   3.743   7.853   6.810  0.2589 -1.7513  0.5004
  730MOL0     H96356   3.601   7.738   7.053 -0.5880  2.1728 -1.3432
  730MOL0     H96357   3.575   7.700   6.885  1.4838 -2.2230 -0.4650
  730MOL0     H96358   3.908   7.467   6.938  1.7203  0.4451 -1.6253
  730MOL0     H96359   3.127   8.196   6.859 -0.7540 -1.1762 -0.0231
  730MOL0     H96360   2.913   8.197   6.956  2.0069  2.8705 -2.0824
  731MOL0     O96361   6.366  11.002   1.931 -0.5261  0.1140  0.1569
  731MOL0     C96362   6.442  10.964   2.017  0.4203 -0.0342  0.2858
  731MOL0     O96363   6.412  10.879   2.113 -0.2263  0.3977 -0.5651
  731MOL0     C96364   6.283  10.834   2.121  0.3959  0.5055  0.0756
  731MOL0     C96365   6.224  10.776   2.017  1.1504  0.2750 -0.2019
  731MOL0     C96366   6.098  10.716   2.029 -0.2766  0.0388  0.3609
  731MOL0     C96367   6.035  10.716   2.157  0.9682  0.9885  0.3207
  731MOL0     O96368   5.904  10.652   2.161  0.9357  0.5731 -0.5858
  731MOL0     C96369   5.844  10.586   2.047 -0.4423 -0.3486 -0.3458
  731MOL0     C96370   5.723  10.498   2.092  0.2864 -0.0616 -0.4862
  731MOL0     C96371   5.658  10.402   1.989 -0.8458 -0.1779 -0.7811
  731MOL0     C96372   5.616  10.484   1.864  0.0409 -0.3349 -0.3037
  731MOL0     C96373   5.568  10.381   1.754  0.3367 -0.0839 -0.2225
  731MOL0     C96374   5.419  10.344   1.763  0.3757 -0.0182 -0.2547
  731MOL0     C96375   5.391  10.260   1.631 -0.4446  0.2964  0.1574
  731MOL0     C96376   5.242  10.241   1.585 -0.4238  0.1357  0.2402
  731MOL0     N96377   5.259  10.154   1.466 -0.1341 -0.4321  0.2317
  731MOL0     C96378   5.276  10.018   1.475 -0.2721  0.1537  0.0923
  731MOL0     C96379   5.243   9.972   1.355  0.2778  0.4803 -0.3654
  731MOL0     C96380   5.239   9.828   1.319  0.2531 -0.3501  0.1581
  731MOL0     C96381   5.372   9.752   1.284 -0.4232 -0.1101 -0.3722
  731MOL0     C96382   5.424   9.793   1.149  0.2429  0.2494 -0.4051
  731MOL0     C96383   5.548   9.712   1.106 -0.2502  0.7759 -0.7896
  731MOL0     O96384   5.543   9.569   1.146  0.5441 -0.0677  0.0700
  731MOL0     C96385   5.639   9.476   1.094  1.0534 -0.0489 -0.1234
  731MOL0     C96386   5.757   9.506   1.028 -0.3544  0.1975  0.4633
  731MOL0     C96387   5.837   9.392   0.994  0.6587 -0.0095  0.5174
  731MOL0     C96388   5.797   9.260   1.019 -0.7115  0.6102 -0.4023
  731MOL0     C96389   5.878   9.137   0.973  0.3858 -1.3077 -0.8032
  731MOL0     O96390   5.807   9.023   0.947 -0.1287 -1.0886 -0.1873
  731MOL0     C96391   5.869   8.900   0.928  0.3421  0.0956  1.3594
  731MOL0     C96392   5.989   8.867   0.994 -0.5224 -0.3648 -0.2851
  731MOL0     C96393   6.029   8.732   1.004  0.4223 -0.8905 -0.7317
  731MOL0     C96394   5.944   8.629   0.955  0.2529 -0.1480 -0.9643
  731MOL0     O96395   5.991   8.507   0.975  0.1884  0.4119 -0.1517
  731MOL0     C96396   5.935   8.389   0.935 -0.1290 -0.3897  0.0344
  731MOL0     C96397   6.001   8.278   1.016 -0.0978  0.5952  0.4691
  731MOL0     C96398   5.913   8.149   1.014 -0.5560 -0.0973  0.8991
  731MOL0     C96399   5.984   8.031   1.083  0.8349  0.0009  0.2661
  731MOL0     C96400   5.903   7.901   1.055 -0.0768 -0.0318  0.2902
  731MOL0     C96401   5.786   7.894   1.144 -0.1532 -0.1010  0.0148
  731MOL0     C96402   5.698   7.773   1.109 -1.0804 -0.3948 -0.1758
  731MOL0     C96403   5.607   7.793   0.990  0.0613  0.9171  0.1092
  731MOL0    Cl96404   5.509   7.935   1.005  0.1803  0.2871  0.1335
  731MOL0     C96405   5.831   8.660   0.888  0.4554 -0.7714  0.1679
  731MOL0     C96406   5.790   8.797   0.882 -0.2369  0.0362  0.2513
  731MOL0     O96407   6.001   9.157   0.970  0.2716  1.0303 -0.2409
  731MOL0     C96408   5.672   9.234   1.083  0.6086  0.0522  0.1871
  731MOL0     C96409   5.595   9.347   1.114  0.1107  0.8065  0.4560
  731MOL0     N96410   5.212  10.079   1.269 -0.9413 -0.2831 -0.2349
  731MOL0     N96411   5.226  10.188   1.336  0.5276 -0.0624 -0.1426
  731MOL0     C96412   6.096  10.765   2.266 -0.4264 -0.0482  1.1306
  731MOL0     C96413   6.225  10.829   2.250  0.1848 -0.2880 -0.0649
  731MOL0     C96414   6.575  11.034   2.014  0.7735 -0.3104 -0.6096
  731MOL0     C96415   6.617  11.134   1.925 -0.6278  0.4054  0.3580
  731MOL0     C96416   6.748  11.189   1.940 -0.4985 -0.2322  0.0024
  731MOL0     C96417   6.840  11.140   2.027  0.3800  0.4876  0.4914
  731MOL0     O96418   6.967  11.192   2.021  0.3727 -0.1812  0.1334
  731MOL0     C96419   7.072  11.090   2.039  0.6257 -0.3159 -0.1551
  731MOL0     C96420   7.213  11.156   2.022 -0.0472  0.5029 -0.3864
  731MOL0     C96421   7.245  11.270   2.122  0.4796  0.3659 -0.5277
  731MOL0     C96422   7.379  11.339   2.095  0.5303  0.8273  0.8013
  731MOL0     C96423   7.410  11.414   2.207 -0.8695  1.6483  0.3305
  731MOL0     C96424   7.460  11.483   2.294 -0.3708 -0.3222  0.3520
  731MOL0     C96425   6.802  11.033   2.107 -0.1984  0.6894  0.5524
  731MOL0     C96426   6.673  10.978   2.105  1.7609 -0.4816  0.0466
  731MOL0     H96427   6.271  10.780   1.920 -0.5979  0.6677 -1.0805
  731MOL0     H96428   6.058  10.676   1.937  1.8207 -0.7905 -0.2607
  731MOL0     H96429   5.920  10.512   2.018 -0.4106  0.3610 -2.2066
  731MOL0     H96430   5.819  10.660   1.971 -0.2803 -0.1140 -0.1701
  731MOL0     H96431   5.644  10.563   2.132  0.3974 -1.4390  2.1401
  731MOL0     H96432   5.752  10.437   2.178  1.1848  3.3288  1.8405
  731MOL0     H96433   5.569  10.358   2.035 -2.0084 -0.2916 -2.9685
  731MOL0     H96434   5.722  10.315   1.970 -0.4889  0.1987 -1.3321
  731MOL0     H96435   5.545  10.563   1.890  1.5081  1.2813 -0.9932
  731MOL0     H96436   5.703  10.538   1.826  0.2910  0.3687  1.2028
  731MOL0     H96437   5.629  10.290   1.758 -0.6667 -0.7593  3.0482
  731MOL0     H96438   5.588  10.423   1.655  1.0583  0.2417  0.0603
  731MOL0     H96439   5.357  10.434   1.763  0.9439  0.3835  0.2545
  731MOL0     H96440   5.386  10.294   1.855  0.6961  2.4322  1.2697
  731MOL0     H96441   5.433  10.303   1.540 -0.4694 -1.0970 -0.5259
  731MOL0     H96442   5.438  10.162   1.637  1.6349  1.2554  0.5248
  731MOL0     H96443   5.194  10.336   1.559 -0.0983  0.5794  1.2208
  731MOL0     H96444   5.178  10.191   1.658 -1.4153 -1.1578 -1.4362
  731MOL0     H96445   5.311   9.968   1.565 -3.3971  0.7836  1.7905
  731MOL0     H96446   5.176   9.819   1.230  2.9302 -3.0610 -1.6796
  731MOL0     H96447   5.197   9.766   1.399 -0.8238  2.5933  2.0553
  731MOL0     H96448   5.352   9.645   1.286 -1.4527  0.0764  1.1533
  731MOL0     H96449   5.444   9.774   1.364 -0.6633  0.2512 -0.2512
  731MOL0     H96450   5.349   9.778   1.071  0.0511  2.0714 -0.6107
  731MOL0     H96451   5.446   9.900   1.144  1.2387  0.0430 -0.7490
  731MOL0     H96452   5.639   9.756   1.147  2.9059 -0.3247 -5.6921
  731MOL0     H96453   5.565   9.717   0.998  0.0220  1.7880 -0.7018
  731MOL0     H96454   5.798   9.604   1.006 -0.8809 -0.2581 -3.1148
  731MOL0     H96455   5.931   9.397   0.940  0.2075  0.2781 -0.2551
  731MOL0     H96456   6.047   8.942   1.045 -2.3241  1.9912 -1.5087
  731MOL0     H96457   6.121   8.710   1.057  0.3530  1.3125  0.4007
  731MOL0     H96458   5.935   8.372   0.827 -1.9529 -1.1400  0.1041
  731MOL0     H96459   5.831   8.396   0.969  0.7359  0.7448  2.7243
  731MOL0     H96460   6.009   8.313   1.119 -1.7617  0.8043  0.5654
  731MOL0     H96461   6.104   8.275   0.980  0.1943  1.9639  1.1315
  731MOL0     H96462   5.888   8.129   0.909  0.2331 -0.8237  0.8421
  731MOL0     H96463   5.815   8.178   1.052 -0.2736  1.0908  0.7786
  731MOL0     H96464   6.086   8.040   1.046  0.7766 -1.9300 -0.4784
  731MOL0     H96465   5.979   8.050   1.190 -0.6011  0.8052  0.0821
  731MOL0     H96466   5.972   7.817   1.070  1.2888  0.6511 -1.8554
  731MOL0     H96467   5.862   7.908   0.954 -2.2956 -1.3471  1.0248
  731MOL0     H96468   5.733   7.990   1.140  1.2663  0.7296 -3.8861
  731MOL0     H96469   5.821   7.881   1.247  0.4888 -1.8354 -0.3869
  731MOL0     H96470   5.756   7.682   1.093 -3.6072 -2.0195 -0.6407
  731MOL0     H96471   5.641   7.742   1.197 -0.6324 -0.3405  0.1378
  731MOL0     H96472   5.540   7.706   0.994  0.8327  0.1845 -1.5794
  731MOL0     H96473   5.662   7.787   0.896 -2.6257 -0.5148 -1.5346
  731MOL0     H96474   5.746   8.595   0.868 -1.6698  2.0775 -0.7892
  731MOL0     H96475   5.687   8.819   0.857 -1.3975 -2.8283  1.9596
  731MOL0     H96476   5.642   9.130   1.096 -1.2906  0.3801 -1.1964
  731MOL0     H96477   5.496   9.339   1.158  0.1209  0.7966  0.4777
  731MOL0     H96478   6.044  10.756   2.362 -1.6839 -0.0921  0.4729
  731MOL0     H96479   6.257  10.877   2.342 -0.0798 -1.0137  0.4216
  731MOL0     H96480   6.552  11.186   1.856  0.5390  1.0734 -0.2875
  731MOL0     H96481   6.790  11.260   1.869  1.3073  0.3597  1.5904
  731MOL0     H96482   7.067  11.024   1.951 -1.2795  2.2686 -2.1357
  731MOL0     H96483   7.062  11.036   2.134  1.1566  0.8604  0.5872
  731MOL0     H96484   7.304  11.097   2.035  0.4875  1.8127  3.3596
  731MOL0     H96485   7.215  11.205   1.925  2.1082  0.9180 -0.1916
  731MOL0     H96486   7.248  11.223   2.221  1.5045  1.1017 -0.1967
  731MOL0     H96487   7.167  11.346   2.117 -1.6267 -1.3644  2.3603
  731MOL0     H96488   7.454  11.261   2.078  0.2432  1.0767 -2.2313
  731MOL0     H96489   7.375  11.397   2.002  0.2611 -1.9763 -1.0427
  731MOL0     H96490   7.501  11.555   2.362  1.5549  0.5730 -1.6365
  731MOL0     H96491   6.863  10.998   2.189 -0.3111  1.5630  1.0168
  731MOL0     H96492   6.643  10.906   2.180  0.1036  0.8176  0.6961
  732MOL0     O96493   2.402   8.608   6.229 -0.4231 -0.5265  0.2941
  732MOL0     C96494   2.481   8.558   6.304  0.1481 -0.5064 -0.0147
  732MOL0     O96495   2.452   8.478   6.404  0.1554 -0.0098  0.4693
  732MOL0     C96496   2.318   8.443   6.410  0.9713  0.1672 -0.1196
  732MOL0     C96497   2.283   8.318   6.367  0.9531 -0.1095  1.2271
  732MOL0     C96498   2.146   8.282   6.342 -0.7714  0.2789  0.4616
  732MOL0     C96499   2.039   8.366   6.367 -0.2946  0.5769 -0.8803
  732MOL0     O96500   1.913   8.325   6.356  0.1458  0.6957  0.7068
  732MOL0     C96501   1.810   8.420   6.394 -0.0398 -0.2344  0.0226
  732MOL0     C96502   1.676   8.350   6.375 -0.4860 -0.2195  0.0331
  732MOL0     C96503   1.565   8.427   6.443 -0.2737  0.5895  0.6912
  732MOL0     C96504   1.432   8.363   6.429 -0.2406 -0.6314  0.2970
  732MOL0     C96505   1.329   8.447   6.511 -0.2989 -1.2913  0.4227
  732MOL0     C96506   1.201   8.371   6.510  0.3319  0.3400 -0.6015
  732MOL0     C96507   1.104   8.436   6.615 -0.8078  0.9567 -0.0348
  732MOL0     C96508   0.955   8.393   6.595  0.1764 -0.9805  0.1263
  732MOL0     N96509   0.858   8.434   6.699 -0.7155 -0.5567  0.2814
  732MOL0     C96510   0.859   8.413   6.837 -0.1507 -0.5602  0.0058
  732MOL0     C96511   0.744   8.474   6.880 -0.2845 -0.0478 -0.5842
  732MOL0     C96512   0.712   8.488   7.031 -0.3092  0.0127 -0.7305
  732MOL0     C96513   0.680   8.359   7.105 -0.4534 -0.0007  0.2394
  732MOL0     C96514   0.541   8.301   7.079 -0.8433 -0.1376  0.5405
  732MOL0     C96515   0.521   8.149   7.114 -0.3368 -0.2816 -0.1780
  732MOL0     O96516   0.509   8.123   7.255 -0.0453 -0.3854  0.0586
  732MOL0     C96517   0.400   8.174   7.323  0.2194  0.4787 -0.1285
  732MOL0     C96518   0.273   8.209   7.272  0.5503  0.0276  0.0823
  732MOL0     C96519   0.168   8.237   7.354 -0.2019  0.7829  0.6657
  732MOL0     C96520   0.181   8.208   7.493  0.5643 -0.3649  0.3879
  732MOL0     C96521   0.065   8.193   7.579  0.6023  0.4614  0.3303
  732MOL0     O96522  -0.053   8.190   7.505 -0.9366  0.3117  0.3274
  732MOL0     C96523  -0.185   8.170   7.546  0.7417  0.4954 -0.8145
  732MOL0     C96524  -0.229   8.092   7.652 -1.1020  0.6983 -0.2711
  732MOL0     C96525  -0.362   8.070   7.666  0.3894 -0.5777  0.4290
  732MOL0     C96526  -0.460   8.110   7.568 -1.3650  0.1302 -0.6619
  732MOL0     O96527  -0.594   8.080   7.593 -1.0547 -0.3527  0.7494
  732MOL0     C96528  -0.630   7.948   7.554  0.0013 -0.9669  0.0807
  732MOL0     C96529  -0.777   7.929   7.579 -0.1259 -1.0469 -0.4277
  732MOL0     C96530  -0.795   7.877   7.718  0.7078 -0.3606 -0.2636
  732MOL0     C96531  -0.948   7.877   7.755  0.6204 -0.0079 -0.3340
  732MOL0     C96532  -0.974   7.848   7.899  0.4788 -0.2426  0.6280
  732MOL0     C96533  -0.927   7.956   7.987 -0.0688  0.3458  0.5763
  732MOL0     C96534  -0.975   7.928   8.132 -0.1464  0.3228 -0.1518
  732MOL0     C96535  -0.929   7.791   8.196  0.3082  0.6294  0.3638
  732MOL0    Cl96536  -0.751   7.781   8.189  0.3831  0.0750 -0.1828
  732MOL0     C96537  -0.409   8.190   7.460 -0.0376  0.6614 -0.3589
  732MOL0     C96538  -0.278   8.218   7.448 -0.1021 -0.3822 -0.4372
  732MOL0     O96539   0.061   8.176   7.703 -0.9451  0.0477  0.4570
  732MOL0     C96540   0.306   8.179   7.546  0.2047 -0.1284 -1.0260
  732MOL0     C96541   0.414   8.157   7.461 -0.3611  0.0099 -0.5924
  732MOL0     N96542   0.683   8.531   6.776 -0.9356 -0.3201  0.0277
  732MOL0     N96543   0.751   8.506   6.664  0.3006 -0.2271 -0.0429
  732MOL0     C96544   2.080   8.503   6.403 -0.3155  0.8164  0.1218
  732MOL0     C96545   2.211   8.533   6.432  0.8263  0.4608 -0.1884
  732MOL0     C96546   2.624   8.583   6.262  0.0941  0.3018  1.9425
  732MOL0     C96547   2.728   8.510   6.310 -0.6144 -0.0053 -0.1915
  732MOL0     C96548   2.871   8.537   6.279  0.3189  0.6579 -0.3262
  732MOL0     C96549   2.897   8.644   6.191  0.3057  0.0216 -0.2896
  732MOL0     O96550   3.014   8.676   6.136 -0.5188  0.3919  0.1083
  732MOL0     C96551   3.130   8.615   6.191 -0.4527  0.9111 -0.2266
  732MOL0     C96552   3.255   8.668   6.118 -0.0151 -0.3702  0.6033
  732MOL0     C96553   3.256   8.635   5.970 -0.0801 -0.6169  0.2587
  732MOL0     C96554   3.377   8.679   5.905 -0.3526  0.7045  0.0918
  732MOL0     C96555   3.499   8.633   5.974  0.2793 -0.4520 -0.1329
  732MOL0     C96556   3.610   8.617   6.017 -0.6336 -0.2624 -0.4821
  732MOL0     C96557   2.790   8.713   6.142  0.5589  0.4829  0.4756
  732MOL0     C96558   2.653   8.689   6.170  0.8294  0.2892  0.0980
  732MOL0     H96559   2.354   8.238   6.350 -1.2115 -2.0539  0.8277
  732MOL0     H96560   2.113   8.183   6.314  0.3349  0.2281 -0.7600
  732MOL0     H96561   1.818   8.503   6.322  3.1211  0.1427  0.6770
  732MOL0     H96562   1.836   8.454   6.494  3.8964 -1.2194 -0.5110
  732MOL0     H96563   1.675   8.252   6.425 -0.1660 -1.0866 -1.5957
  732MOL0     H96564   1.665   8.328   6.268  2.9292 -1.6317 -0.1733
  732MOL0     H96565   1.558   8.524   6.394  0.5141  0.0886 -0.4451
  732MOL0     H96566   1.589   8.436   6.550  0.1761 -1.5825  0.8269
  732MOL0     H96567   1.406   8.356   6.323 -0.5554  1.7437  0.1460
  732MOL0     H96568   1.436   8.259   6.461 -0.8752 -0.9378 -0.5670
  732MOL0     H96569   1.321   8.544   6.461 -0.1989  0.4853  3.5862
  732MOL0     H96570   1.368   8.472   6.610 -1.0194  0.8084  0.2162
  732MOL0     H96571   1.222   8.268   6.540  1.3127  0.6028 -0.3622
  732MOL0     H96572   1.157   8.382   6.411  0.9623  3.7884 -0.6513
  732MOL0     H96573   1.128   8.406   6.717  0.7040  0.4243 -0.5187
  732MOL0     H96574   1.110   8.545   6.616  0.5503  0.9827 -2.6037
  732MOL0     H96575   0.944   8.285   6.594 -3.7055 -0.7013 -1.4861
  732MOL0     H96576   0.922   8.436   6.500 -0.0211  0.8167  0.9690
  732MOL0     H96577   0.937   8.368   6.898  0.5123 -0.8605 -1.0419
  732MOL0     H96578   0.631   8.560   7.044 -0.7952 -0.3920 -1.5032
  732MOL0     H96579   0.801   8.523   7.085 -0.4201 -2.1914  0.9998
  732MOL0     H96580   0.684   8.380   7.212 -2.6575  1.3878  0.1087
  732MOL0     H96581   0.761   8.287   7.088 -0.6758 -0.8574  2.5029
  732MOL0     H96582   0.472   8.370   7.127 -1.2971  2.2264 -3.0731
  732MOL0     H96583   0.538   8.318   6.971 -1.8506  0.8325  0.7103
  732MOL0     H96584   0.601   8.088   7.070 -1.5268 -1.6322 -0.5539
  732MOL0     H96585   0.426   8.117   7.070  0.5160 -1.0679 -1.5242
  732MOL0     H96586   0.248   8.218   7.166  0.3503  2.7388  0.2912
  732MOL0     H96587   0.071   8.259   7.310  0.0381 -1.1945 -0.9922
  732MOL0     H96588  -0.163   8.046   7.724 -0.1452 -1.9396 -2.6347
  732MOL0     H96589  -0.389   8.002   7.746  2.0106 -0.7850  0.8333
  732MOL0     H96590  -0.580   7.873   7.617 -2.6796 -0.5284  3.0045
  732MOL0     H96591  -0.608   7.933   7.448 -1.2601  0.8425 -0.4828
  732MOL0     H96592  -0.824   7.872   7.498  1.8734 -0.6866 -1.9276
  732MOL0     H96593  -0.825   8.027   7.590  0.2269 -0.8349 -0.7728
  732MOL0     H96594  -0.736   7.928   7.794 -3.0170  2.4606  1.0578
  732MOL0     H96595  -0.752   7.777   7.725  2.9087  0.6284  1.7253
  732MOL0     H96596  -1.000   7.970   7.730  2.4542  1.4621  1.0114
  732MOL0     H96597  -0.988   7.796   7.693  1.9507 -1.2626  0.3712
  732MOL0     H96598  -0.922   7.754   7.918  0.0269 -0.9837 -1.6008
  732MOL0     H96599  -1.081   7.827   7.905  0.4660  0.0627  1.7785
  732MOL0     H96600  -0.977   8.047   7.955  1.1679  0.4023 -1.4101
  732MOL0     H96601  -0.818   7.967   7.979  0.0624 -0.4546  1.1240
  732MOL0     H96602  -0.940   8.014   8.190 -2.0616  1.3873 -0.4983
  732MOL0     H96603  -1.084   7.918   8.125 -0.2907 -0.5989  2.3483
  732MOL0     H96604  -0.964   7.705   8.139  2.4619 -0.6043  0.7730
  732MOL0     H96605  -0.970   7.786   8.298 -2.3622 -0.8604 -0.6826
  732MOL0     H96606  -0.481   8.235   7.393  0.6463  4.7352  1.3264
  732MOL0     H96607  -0.238   8.281   7.369  1.3016  1.2140  1.4606
  732MOL0     H96608   0.323   8.163   7.652  0.9073 -0.5476 -1.2008
  732MOL0     H96609   0.510   8.123   7.500  0.9578  2.9198 -0.9963
  732MOL0     H96610   2.009   8.583   6.422 -0.9956 -0.0457  1.3382
  732MOL0     H96611   2.229   8.632   6.471  1.5225  0.2017  0.1667
  732MOL0     H96612   2.711   8.428   6.380  2.1092 -0.2899  0.2408
  732MOL0     H96613   2.940   8.470   6.329 -0.8028  0.8216  1.5389
  732MOL0     H96614   3.112   8.507   6.194 -4.2423  1.3761 -0.8429
  732MOL0     H96615   3.146   8.634   6.298 -1.2816  1.1993 -0.1371
  732MOL0     H96616   3.248   8.777   6.131 -0.7208 -0.5847  2.1308
  732MOL0     H96617   3.345   8.630   6.166  1.1497 -0.0438 -1.1992
  732MOL0     H96618   3.168   8.672   5.919  1.1497  1.1270 -0.6789
  732MOL0     H96619   3.259   8.526   5.961 -1.8922 -0.7851  1.2913
  732MOL0     H96620   3.377   8.642   5.802  0.6242  0.7572  0.0658
  732MOL0     H96621   3.371   8.788   5.894  0.4710  0.6338 -1.4274
  732MOL0     H96622   3.710   8.609   6.057 -0.7542  1.0935  0.1713
  732MOL0     H96623   2.815   8.792   6.072 -0.5816  2.2207  1.9328
  732MOL0     H96624   2.575   8.748   6.124 -0.0332  0.3684  1.6088
  733MOL0     O96625   5.567   9.633   5.015 -0.0374 -0.8149  0.2572
  733MOL0     C96626   5.633   9.738   5.014  0.4675  0.7600  0.1806
  733MOL0     O96627   5.576   9.868   5.016  1.0787  0.8120 -0.1666
  733MOL0     C96628   5.445   9.892   5.057  0.2361  0.3349 -0.0793
  733MOL0     C96629   5.419   9.978   5.165  0.3786 -0.6117  0.1177
  733MOL0     C96630   5.285  10.009   5.201 -0.1063  0.2550 -0.1053
  733MOL0     C96631   5.178   9.951   5.139  0.7900  0.1437 -0.3204
  733MOL0     O96632   5.045   9.988   5.177 -0.0817 -0.3073 -0.3787
  733MOL0     C96633   4.947  10.010   5.074 -0.5849 -0.1184  0.6210
  733MOL0     C96634   4.807  10.034   5.125 -0.5258  0.3013  0.1257
  733MOL0     C96635   4.811  10.172   5.183  0.0540  0.7336 -0.0516
  733MOL0     C96636   4.679  10.232   5.226  0.2257  0.2310  0.1001
  733MOL0     C96637   4.681  10.385   5.262 -0.3905  0.2417  0.4141
  733MOL0     C96638   4.784  10.415   5.370 -0.2705 -0.2962  0.1724
  733MOL0     C96639   4.769  10.336   5.501  0.7679  0.8382 -0.3272
  733MOL0     C96640   4.832  10.398   5.628 -0.1720 -0.6386  0.1706
  733MOL0     N96641   4.747  10.499   5.706 -0.3488 -0.5204  0.6539
  733MOL0     C96642   4.609  10.504   5.713 -0.2440 -0.3388  0.4797
  733MOL0     C96643   4.584  10.587   5.814  0.3362  0.1793  0.4095
  733MOL0     C96644   4.443  10.622   5.856 -0.9629  0.1875 -0.1697
  733MOL0     C96645   4.405  10.754   5.795  0.0018  0.3636  0.2495
  733MOL0     C96646   4.268  10.795   5.822  0.4203 -0.7826 -0.1288
  733MOL0     C96647   4.171  10.728   5.729  0.8378 -0.1810  0.7209
  733MOL0     O96648   4.167  10.768   5.596 -0.4710  0.7488  0.4321
  733MOL0     C96649   4.148  10.898   5.567  0.2872  0.1268  0.2500
  733MOL0     C96650   4.263  10.966   5.527 -0.3776 -0.4976 -0.0841
  733MOL0     C96651   4.258  11.096   5.479 -1.0417  0.6380 -0.4624
  733MOL0     C96652   4.134  11.159   5.483  0.1304 -0.5609  0.8471
  733MOL0     C96653   4.120  11.289   5.416  0.4488 -0.6678 -0.0595
  733MOL0     O96654   4.005  11.357   5.446  0.3353  0.2936 -0.4222
  733MOL0     C96655   3.977  11.471   5.379  0.5894 -0.2718 -0.3331
  733MOL0     C96656   4.019  11.604   5.415  0.1527  0.0466  0.7331
  733MOL0     C96657   3.972  11.710   5.340 -0.2072 -0.9009  1.4347
  733MOL0     C96658   3.894  11.693   5.224  0.7938 -0.2177  0.1881
  733MOL0     O96659   3.842  11.797   5.146 -0.5246 -0.0030 -0.0555
  733MOL0     C96660   3.752  11.898   5.208  0.2304 -0.1066 -0.5479
  733MOL0     C96661   3.739  12.010   5.108  0.4767 -0.4650 -0.0756
  733MOL0     C96662   3.645  12.128   5.145 -0.5203 -0.5524 -1.2723
  733MOL0     C96663   3.614  12.248   5.046  0.4044 -0.9294 -0.9402
  733MOL0     C96664   3.515  12.345   5.111 -0.2934 -0.4332 -0.0206
  733MOL0     C96665   3.373  12.295   5.102 -0.2442  0.3977  0.2425
  733MOL0     C96666   3.271  12.405   5.131 -0.2708 -0.5364 -0.0993
  733MOL0     C96667   3.125  12.346   5.148 -0.1035  0.1809  0.2034
  733MOL0    Cl96668   3.054  12.292   4.984 -0.6025 -0.2212 -0.0867
  733MOL0     C96669   3.861  11.566   5.182  0.0287 -0.5441 -0.6920
  733MOL0     C96670   3.906  11.456   5.260  0.7261  0.9955  0.4746
  733MOL0     O96671   4.192  11.317   5.322  0.2581 -0.0999 -0.1823
  733MOL0     C96672   4.026  11.103   5.541  0.4612  0.1619  0.1114
  733MOL0     C96673   4.034  10.969   5.583 -0.2747 -0.3507 -0.2066
  733MOL0     N96674   4.707  10.649   5.854 -0.1540  0.0691  0.2066
  733MOL0     N96675   4.802  10.590   5.787  0.1945 -0.0696  0.6193
  733MOL0     C96676   5.209   9.860   5.037  0.3499 -0.1097 -1.4304
  733MOL0     C96677   5.337   9.847   4.987  0.8207 -0.0901 -0.0144
  733MOL0     C96678   5.777   9.737   4.982 -0.2717  0.1407 -0.1841
  733MOL0     C96679   5.856   9.850   4.966 -0.0105 -0.5101  0.4567
  733MOL0     C96680   5.989   9.844   4.918 -0.4193  0.2385 -0.9022
  733MOL0     C96681   6.052   9.725   4.894  0.6768  0.5152 -0.1138
  733MOL0     O96682   6.176   9.722   4.851  0.0384 -0.3124  0.4202
  733MOL0     C96683   6.259   9.663   4.948 -0.2940 -0.7280 -0.6456
  733MOL0     C96684   6.334   9.764   5.042  0.5715  0.3872  0.5958
  733MOL0     C96685   6.437   9.854   4.978  0.6885  0.5817 -0.1686
  733MOL0     C96686   6.379   9.957   4.881  0.7544 -0.1151 -0.4571
  733MOL0     C96687   6.486  10.049   4.845 -0.4251 -0.4791  0.9624
  733MOL0     C96688   6.572  10.131   4.827 -0.0566  0.3886 -0.3449
  733MOL0     C96689   5.977   9.610   4.909 -0.2535 -0.0672  0.1112
  733MOL0     C96690   5.841   9.610   4.960 -0.8417  0.3845  0.5909
  733MOL0     H96691   5.503  10.013   5.224 -1.1306  0.2598  1.8897
  733MOL0     H96692   5.274  10.084   5.279 -0.5838  1.6476 -1.4539
  733MOL0     H96693   4.943   9.923   5.008 -0.0281  1.0512 -1.0271
  733MOL0     H96694   4.974  10.085   4.999 -1.5945 -1.6099 -1.3588
  733MOL0     H96695   4.781   9.965   5.206  2.3639 -0.0926  0.8424
  733MOL0     H96696   4.732  10.040   5.046  0.1660 -1.2347 -0.6924
  733MOL0     H96697   4.854  10.237   5.107  1.7182 -1.0018 -0.6690
  733MOL0     H96698   4.884  10.156   5.264  1.3636 -0.0171 -1.3428
  733MOL0     H96699   4.602  10.208   5.153 -1.8691  2.3342  1.4471
  733MOL0     H96700   4.638  10.174   5.309 -0.0137 -1.7106 -1.3235
  733MOL0     H96701   4.582  10.415   5.299 -0.6077 -0.3826  0.3618
  733MOL0     H96702   4.712  10.439   5.172 -1.6561  2.8015  1.3969
  733MOL0     H96703   4.793  10.521   5.396  0.9996  0.0983 -1.5928
  733MOL0     H96704   4.876  10.391   5.316 -1.1021  0.7651 -1.8240
  733MOL0     H96705   4.662  10.329   5.520  0.7212  2.1373 -0.0610
  733MOL0     H96706   4.813  10.236   5.496 -2.2392 -0.7345  1.5403
  733MOL0     H96707   4.935  10.432   5.615  0.8392 -3.4131  0.4724
  733MOL0     H96708   4.832  10.316   5.699 -1.1485 -0.3318  0.5416
  733MOL0     H96709   4.541  10.443   5.654  1.9060 -1.7195 -0.7150
  733MOL0     H96710   4.433  10.649   5.962 -1.7930  2.9229 -0.8711
  733MOL0     H96711   4.372  10.540   5.842  0.7825 -1.9077  2.3205
  733MOL0     H96712   4.418  10.743   5.686  0.3074  0.0773  0.3116
  733MOL0     H96713   4.482  10.822   5.832  0.2366 -0.4110  1.2327
  733MOL0     H96714   4.246  10.769   5.926  1.8506 -1.5126  0.0088
  733MOL0     H96715   4.268  10.904   5.817  1.0817 -0.4924  3.5364
  733MOL0     H96716   4.067  10.744   5.761  0.3819 -3.6833  1.4478
  733MOL0     H96717   4.175  10.619   5.741 -0.4829 -0.0769  2.7349
  733MOL0     H96718   4.356  10.912   5.543  1.7236  3.3332  2.1322
  733MOL0     H96719   4.342  11.147   5.433  1.0963 -0.2882  2.1775
  733MOL0     H96720   4.064  11.622   5.512 -2.3267  0.2380  1.9179
  733MOL0     H96721   4.011  11.809   5.362 -0.1294 -0.4832 -0.4289
  733MOL0     H96722   3.803  11.931   5.299 -1.9021 -0.1708  0.7246
  733MOL0     H96723   3.661  11.840   5.229 -0.3273  0.7316 -0.6266
  733MOL0     H96724   3.702  11.959   5.018  0.7465 -0.6856 -0.0638
  733MOL0     H96725   3.836  12.052   5.081  0.1574 -0.3143 -1.0372
  733MOL0     H96726   3.691  12.170   5.235 -3.6521  0.3303  0.0627
  733MOL0     H96727   3.555  12.087   5.193 -1.0918  0.6232 -1.3180
  733MOL0     H96728   3.704  12.304   5.019 -1.1408  1.7659 -0.8095
  733MOL0     H96729   3.580  12.206   4.950  3.6505 -1.8402 -1.8328
  733MOL0     H96730   3.524  12.438   5.054  0.6706 -1.9813 -2.5692
  733MOL0     H96731   3.544  12.384   5.209  0.8248  1.1841 -0.9361
  733MOL0     H96732   3.356  12.214   5.174 -0.9103 -0.0795 -0.4360
  733MOL0     H96733   3.371  12.272   4.995  2.6196  2.8831 -0.4923
  733MOL0     H96734   3.322  12.456   5.213 -1.1787  1.1446 -0.5246
  733MOL0     H96735   3.263  12.478   5.049 -2.5339 -0.7092 -0.0969
  733MOL0     H96736   3.059  12.425   5.187 -2.5276 -0.7960 -1.6379
  733MOL0     H96737   3.122  12.260   5.215  1.9438  1.2233  1.7544
  733MOL0     H96738   3.803  11.554   5.090 -0.7231  0.6503 -0.3976
  733MOL0     H96739   3.876  11.356   5.231 -1.5482  0.5839  3.6837
  733MOL0     H96740   3.930  11.152   5.555  0.5953  0.5058 -0.1692
  733MOL0     H96741   3.940  10.930   5.621 -0.8553 -0.7129 -1.9237
  733MOL0     H96742   5.133   9.798   4.990 -0.6056  0.6935 -0.9760
  733MOL0     H96743   5.359   9.778   4.906 -0.8496  0.1843 -0.7497
  733MOL0     H96744   5.827   9.954   4.977  3.4593  0.4262  1.9503
  733MOL0     H96745   6.059   9.924   4.893 -0.8198  1.4175  1.4551
  733MOL0     H96746   6.343   9.613   4.900  1.2939  2.0627 -0.9983
  733MOL0     H96747   6.217   9.580   5.006  0.0682 -0.2892  0.2478
  733MOL0     H96748   6.263   9.811   5.111 -1.0183 -1.0970  0.0220
  733MOL0     H96749   6.397   9.694   5.098  1.5476  1.1760  0.5142
  733MOL0     H96750   6.525   9.811   4.930  0.9858  1.4481 -0.4138
  733MOL0     H96751   6.475   9.915   5.061  0.9605 -2.8564  2.4785
  733MOL0     H96752   6.334   9.914   4.792 -3.0242  0.7963  0.8058
  733MOL0     H96753   6.298  10.019   4.921  0.9364  0.0288 -0.3029
  733MOL0     H96754   6.628  10.222   4.816 -1.0792  0.9400 -1.3125
  733MOL0     H96755   6.022   9.514   4.886  2.5282  1.1750 -0.0811
  733MOL0     H96756   5.797   9.516   4.993  1.0454 -1.5326 -1.8820
  734MOL0     O96757   5.451   5.906   6.849  0.4485 -0.2829 -0.0837
  734MOL0     C96758   5.463   6.007   6.918 -0.0818 -0.8221 -0.0244
  734MOL0     O96759   5.354   6.084   6.957 -0.6814  0.3013 -0.5072
  734MOL0     C96760   5.243   6.044   6.905  0.3046 -0.1320 -0.5895
  734MOL0     C96761   5.198   6.064   6.777  0.5626 -0.3132 -0.5772
  734MOL0     C96762   5.075   6.007   6.728 -0.4060  0.2692  0.0021
  734MOL0     C96763   4.995   5.927   6.813 -0.2917  0.2252  0.2477
  734MOL0     O96764   4.884   5.871   6.753 -0.5173  0.1139 -0.0445
  734MOL0     C96765   4.760   5.857   6.831 -0.2847  0.8084 -1.1897
  734MOL0     C96766   4.650   5.864   6.727  0.5345 -0.4596 -0.0052
  734MOL0     C96767   4.513   5.815   6.782  0.0880 -0.3407 -0.3704
  734MOL0     C96768   4.418   5.781   6.669  0.3530 -0.0421 -0.1993
  734MOL0     C96769   4.376   5.901   6.583 -0.0326 -0.3744 -0.2790
  734MOL0     C96770   4.308   6.021   6.648  0.1638  0.0819 -0.7850
  734MOL0     C96771   4.203   5.992   6.749  0.0355  0.0951 -1.0301
  734MOL0     C96772   4.080   5.924   6.693  0.3781  0.5239  1.6693
  734MOL0     N96773   4.001   5.869   6.797  0.1469 -0.2848 -0.1101
  734MOL0     C96774   3.925   5.938   6.884  0.3225 -0.0737 -0.5167
  734MOL0     C96775   3.855   5.854   6.961  0.1885  0.5907  0.1632
  734MOL0     C96776   3.738   5.881   7.060 -0.2048 -0.4475 -0.1083
  734MOL0     C96777   3.780   5.917   7.198 -0.3009 -0.4745  0.3489
  734MOL0     C96778   3.863   5.818   7.275 -0.1332 -0.5133  0.1551
  734MOL0     C96779   4.011   5.804   7.241 -0.5381  1.0445  0.4302
  734MOL0     O96780   4.088   5.720   7.335  0.4343 -0.3621  0.1827
  734MOL0     C96781   4.227   5.719   7.308  0.3715 -0.3897 -0.1882
  734MOL0     C96782   4.285   5.699   7.181  0.9386  0.0313 -0.4325
  734MOL0     C96783   4.422   5.703   7.162 -0.6158 -0.2399 -0.0510
  734MOL0     C96784   4.505   5.731   7.271 -0.6506 -0.0965 -0.8859
  734MOL0     C96785   4.647   5.758   7.254 -0.9944  0.7324 -0.3951
  734MOL0     O96786   4.728   5.736   7.365 -0.1115 -0.2718 -0.2234
  734MOL0     C96787   4.857   5.741   7.333 -0.1582  0.3373  0.5456
  734MOL0     C96788   4.927   5.634   7.268 -0.6264 -0.5658 -0.0097
  734MOL0     C96789   5.065   5.644   7.238 -0.0871 -0.3080  0.0020
  734MOL0     C96790   5.139   5.761   7.264  0.7292 -0.3540 -0.2631
  734MOL0     O96791   5.270   5.777   7.251  0.0501 -0.4127  0.1274
  734MOL0     C96792   5.329   5.696   7.147 -0.5890  0.3216  0.1936
  734MOL0     C96793   5.477   5.705   7.160 -0.6854 -0.4476 -0.2361
  734MOL0     C96794   5.524   5.642   7.285  0.4779 -0.2224 -0.3728
  734MOL0     C96795   5.662   5.693   7.326 -0.6637  0.4072 -0.3582
  734MOL0     C96796   5.730   5.618   7.450 -0.5345 -0.3908  0.7677
  734MOL0     C96797   5.867   5.679   7.484 -0.3487  0.7084 -0.0061
  734MOL0     C96798   5.933   5.604   7.602  0.2877 -0.0139  0.6554
  734MOL0     C96799   5.861   5.630   7.737 -0.0176  0.5947  0.0211
  734MOL0    Cl96800   5.725   5.529   7.755 -0.1032  0.0742 -0.2826
  734MOL0     C96801   5.069   5.870   7.316  0.4153 -0.2761 -0.5125
  734MOL0     C96802   4.936   5.856   7.365  0.5744  0.3474 -0.2153
  734MOL0     O96803   4.680   5.790   7.139 -0.5598 -0.1264  0.1089
  734MOL0     C96804   4.445   5.736   7.396 -0.1288 -0.1196 -0.3748
  734MOL0     C96805   4.308   5.730   7.409 -0.6594  1.5235 -0.2686
  734MOL0     N96806   3.886   5.724   6.916 -0.2179 -0.8769 -0.0271
  734MOL0     N96807   3.969   5.734   6.811  0.1873 -0.3431 -0.6916
  734MOL0     C96808   5.039   5.908   6.942  0.5052  0.2974 -0.3787
  734MOL0     C96809   5.150   5.977   6.991 -0.6304 -0.4544 -0.1395
  734MOL0     C96810   5.593   6.034   6.983  0.3645 -0.1015 -0.2407
  734MOL0     C96811   5.632   6.155   7.048 -0.3405  0.8584  0.2724
  734MOL0     C96812   5.759   6.170   7.107  0.3276 -0.6979 -0.3349
  734MOL0     C96813   5.838   6.060   7.116 -0.3747 -0.3835  0.1060
  734MOL0     O96814   5.953   6.087   7.188  0.1339  0.2390 -0.0420
  734MOL0     C96815   6.076   6.040   7.143 -0.2212 -0.1881 -0.4618
  734MOL0     C96816   6.188   6.089   7.230 -0.4128  0.1964 -0.5030
  734MOL0     C96817   6.190   6.028   7.366 -0.4111  0.8721  0.8576
  734MOL0     C96818   6.316   6.075   7.437  0.0599 -0.2274 -0.4123
  734MOL0     C96819   6.322   6.219   7.459 -0.5291  0.3148 -0.0746
  734MOL0     C96820   6.338   6.335   7.494 -0.5967  0.5379  0.1487
  734MOL0     C96821   5.808   5.943   7.050  0.0656  0.9137 -0.0323
  734MOL0     C96822   5.683   5.930   6.985  0.1730 -0.4456 -0.7681
  734MOL0     H96823   5.254   6.133   6.714 -0.9207  1.6962  0.1811
  734MOL0     H96824   5.032   6.016   6.629  1.2029 -1.1347 -0.8833
  734MOL0     H96825   4.763   5.942   6.901  3.6009 -0.3695  0.3199
  734MOL0     H96826   4.762   5.768   6.894  0.4212  1.0877 -0.8047
  734MOL0     H96827   4.686   5.796   6.649 -0.1463 -1.4889  0.5520
  734MOL0     H96828   4.636   5.966   6.690  1.1210 -0.4125 -0.1131
  734MOL0     H96829   4.463   5.890   6.844 -2.0394 -2.3312  0.4738
  734MOL0     H96830   4.531   5.729   6.848 -2.0173 -2.2364 -2.1322
  734MOL0     H96831   4.441   5.697   6.603 -4.3729 -1.2404 -0.6548
  734MOL0     H96832   4.325   5.744   6.712  0.4734 -0.3047 -0.1594
  734MOL0     H96833   4.312   5.863   6.502 -2.1231  0.1894  1.0424
  734MOL0     H96834   4.460   5.937   6.522 -0.5593 -1.9090 -1.9959
  734MOL0     H96835   4.257   6.071   6.565 -1.6115 -3.2242 -1.8549
  734MOL0     H96836   4.387   6.078   6.697 -0.2433 -1.0319  1.2829
  734MOL0     H96837   4.246   5.929   6.828  1.3945  0.0690 -1.7504
  734MOL0     H96838   4.167   6.089   6.785  2.0757  0.4655  0.1787
  734MOL0     H96839   4.104   5.840   6.626  0.1368  0.3931  1.7428
  734MOL0     H96840   4.014   5.986   6.633 -0.3984 -0.7714  1.1356
  734MOL0     H96841   3.912   6.046   6.881 -0.6961 -0.1677  0.1181
  734MOL0     H96842   3.671   5.794   7.068 -1.5130  0.5064 -0.3729
  734MOL0     H96843   3.678   5.963   7.019 -3.0825 -2.4112 -0.1610
  734MOL0     H96844   3.692   5.932   7.260  2.0647  2.0406  3.4694
  734MOL0     H96845   3.836   6.011   7.199 -0.6726 -0.2479 -0.3096
  734MOL0     H96846   3.857   5.852   7.379 -1.9583  1.9028 -0.6623
  734MOL0     H96847   3.818   5.718   7.269  2.4376 -1.6825 -2.1592
  734MOL0     H96848   4.061   5.901   7.227 -0.4742  0.9335 -0.1610
  734MOL0     H96849   4.025   5.744   7.150  2.8692 -2.8493  3.1620
  734MOL0     H96850   4.219   5.670   7.100  1.9189 -2.9538 -0.2998
  734MOL0     H96851   4.476   5.686   7.070  0.6446 -0.9861  0.7942
  734MOL0     H96852   4.864   5.548   7.248 -2.9524  1.6729 -3.2239
  734MOL0     H96853   5.105   5.557   7.187  1.1670  0.1199  0.2024
  734MOL0     H96854   5.293   5.719   7.047  1.6086 -0.5555 -0.8586
  734MOL0     H96855   5.303   5.589   7.152 -1.6377  0.5349 -0.4902
  734MOL0     H96856   5.518   5.805   7.145  1.3346 -1.2313 -0.2874
  734MOL0     H96857   5.528   5.657   7.076  1.6349 -1.6552  1.7122
  734MOL0     H96858   5.538   5.537   7.257  2.8211 -0.4677  1.3962
  734MOL0     H96859   5.457   5.644   7.371  3.6193 -0.2362  2.2890
  734MOL0     H96860   5.728   5.688   7.239 -1.2927  1.3317 -0.9019
  734MOL0     H96861   5.659   5.796   7.362  2.0061  1.0102 -1.5441
  734MOL0     H96862   5.743   5.515   7.417 -1.6385 -0.2001 -0.3522
  734MOL0     H96863   5.669   5.620   7.540  0.1647  2.5446  1.2683
  734MOL0     H96864   5.851   5.783   7.514  0.9904  0.2505  2.6421
  734MOL0     H96865   5.936   5.673   7.399 -0.2296 -0.4227  0.1525
  734MOL0     H96866   5.941   5.495   7.591 -1.7258 -0.1690  0.4793
  734MOL0     H96867   6.035   5.643   7.611  0.9332 -0.9292 -1.8278
  734MOL0     H96868   5.831   5.735   7.743 -0.0780  0.5690  0.1844
  734MOL0     H96869   5.923   5.612   7.825  0.1112 -2.0100 -0.5021
  734MOL0     H96870   5.114   5.967   7.333  0.2321  0.0428 -1.7022
  734MOL0     H96871   4.883   5.935   7.418  0.8510 -0.2676  0.9891
  734MOL0     H96872   4.508   5.744   7.484  0.8438  3.7773 -1.2719
  734MOL0     H96873   4.254   5.748   7.501 -0.6997  1.4317 -0.2745
  734MOL0     H96874   4.993   5.833   7.005  1.4786  0.4171  0.4993
  734MOL0     H96875   5.178   5.971   7.096  3.3529  1.1398 -0.9386
  734MOL0     H96876   5.566   6.241   7.041  1.5153  2.3881  0.6537
  734MOL0     H96877   5.789   6.259   7.161 -1.8307 -0.6881  0.9759
  734MOL0     H96878   6.087   6.076   7.040 -2.2834  1.2103 -0.2528
  734MOL0     H96879   6.070   5.932   7.128 -1.4462 -0.0858 -0.7914
  734MOL0     H96880   6.280   6.052   7.184  0.1861  1.0803 -0.0472
  734MOL0     H96881   6.176   6.198   7.230 -0.4403  0.2012 -1.2202
  734MOL0     H96882   6.205   5.921   7.351  0.6150  0.9079  1.5255
  734MOL0     H96883   6.103   6.046   7.429  0.1493 -0.8122  2.2031
  734MOL0     H96884   6.322   6.030   7.537 -2.0496  0.8275  0.2581
  734MOL0     H96885   6.399   6.036   7.377 -1.5962 -0.1878 -2.8975
  734MOL0     H96886   6.334   6.436   7.530 -3.7553 -0.0698  1.8380
  734MOL0     H96887   5.876   5.860   7.035 -0.2398  0.3378  1.5820
  734MOL0     H96888   5.657   5.839   6.933  1.2687 -1.4879  0.4568
  735MOL0     O96889   4.954   2.141  11.021  0.1855  0.5528 -0.1509
  735MOL0     C96890   4.946   2.232  11.101 -0.7604 -0.3262  0.0703
  735MOL0     O96891   4.832   2.255  11.185 -0.0016 -0.0694 -0.2779
  735MOL0     C96892   4.723   2.177  11.158 -0.5643 -0.6107  0.1100
  735MOL0     C96893   4.730   2.046  11.185  0.9426  0.4070 -0.4974
  735MOL0     C96894   4.612   1.970  11.168 -0.3146  0.1167 -0.4357
  735MOL0     C96895   4.491   2.027  11.127 -0.2813  0.8345 -0.3274
  735MOL0     O96896   4.391   1.937  11.102  0.6066  1.0589 -0.4414
  735MOL0     C96897   4.264   1.986  11.059  0.3479  0.0497 -0.1632
  735MOL0     C96898   4.163   1.891  11.100  0.2674  0.1403  0.0355
  735MOL0     C96899   4.034   1.888  11.029  0.0878 -1.4560  0.1064
  735MOL0     C96900   3.936   1.788  11.089 -0.7007 -0.4236 -0.8862
  735MOL0     C96901   3.791   1.801  11.027  0.9832  0.3511 -0.4269
  735MOL0     C96902   3.676   1.745  11.115 -0.0663 -0.1489  0.0834
  735MOL0     C96903   3.544   1.774  11.038 -0.0531 -0.6026  1.2252
  735MOL0     C96904   3.523   1.713  10.897 -0.2675 -0.0827 -0.9527
  735MOL0     N96905   3.496   1.563  10.895  0.1225  0.1410  0.3216
  735MOL0     C96906   3.380   1.503  10.927  0.6291  0.2556 -0.7311
  735MOL0     C96907   3.412   1.375  10.928  0.3197  0.5342 -0.3486
  735MOL0     C96908   3.309   1.263  10.973 -0.1889  0.9546  0.3318
  735MOL0     C96909   3.365   1.131  10.917  0.0006 -0.6722 -0.2702
  735MOL0     C96910   3.251   1.018  10.920  0.2424 -1.0268 -0.0664
  735MOL0     C96911   3.184   1.004  11.061 -0.8279 -0.2233  0.6695
  735MOL0     O96912   3.085   0.901  11.050 -0.3936  0.2968 -0.7866
  735MOL0     C96913   2.954   0.939  11.044  0.2838  0.2273  0.1520
  735MOL0     C96914   2.863   0.834  11.069 -0.2360  0.3577 -0.4605
  735MOL0     C96915   2.726   0.858  11.074 -0.5053  0.3980  0.2868
  735MOL0     C96916   2.671   0.987  11.054 -0.4898  0.4709  0.6889
  735MOL0     C96917   2.526   1.014  11.062 -0.4329  0.5689  0.0798
  735MOL0     O96918   2.449   0.907  11.107  0.2301 -0.3246  0.2837
  735MOL0     C96919   2.329   0.949  11.169 -0.7530 -0.8680  0.1249
  735MOL0     C96920   2.209   0.925  11.107  0.4166  0.1810 -0.3869
  735MOL0     C96921   2.086   0.952  11.172  0.2900 -0.0172 -0.5069
  735MOL0     C96922   2.083   1.005  11.296 -1.1895 -0.3001  0.0765
  735MOL0     O96923   1.967   1.043  11.362 -0.3172  0.2406 -0.6366
  735MOL0     C96924   1.844   1.024  11.291 -0.2748 -0.0120 -0.5228
  735MOL0     C96925   1.719   1.063  11.386 -0.7924  0.5493 -0.0005
  735MOL0     C96926   1.708   0.971  11.509  0.1175  0.1416  0.1018
  735MOL0     C96927   1.595   1.016  11.609 -0.3140  0.1348  0.2932
  735MOL0     C96928   1.597   0.928  11.737 -0.1448  0.3160  0.0786
  735MOL0     C96929   1.489   0.977  11.842 -0.1020  0.1948  0.7237
  735MOL0     C96930   1.505   0.920  11.980  1.0780 -0.0252 -0.6085
  735MOL0     C96931   1.378   0.965  12.061 -0.1213  0.5068  0.1133
  735MOL0    Cl96932   1.378   0.913  12.243  0.6433 -0.0117  0.4134
  735MOL0     C96933   2.207   1.025  11.362 -0.5291 -0.8016 -0.0577
  735MOL0     C96934   2.329   0.988  11.303  0.6963  0.1778 -0.7352
  735MOL0     O96935   2.486   1.125  11.023  0.2933  0.0651 -0.8923
  735MOL0     C96936   2.759   1.094  11.029  0.2187 -0.9449  0.2220
  735MOL0     C96937   2.899   1.069  11.023  0.1412 -0.4047 -0.6514
  735MOL0     N96938   3.546   1.362  10.898  0.5149  0.0418  0.5567
  735MOL0     N96939   3.595   1.476  10.869 -0.1234 -0.4139 -0.0790
  735MOL0     C96940   4.490   2.163  11.103  0.6408  0.4513  0.6944
  735MOL0     C96941   4.603   2.242  11.123 -0.6639  0.8990 -0.6880
  735MOL0     C96942   5.070   2.325  11.111  0.2220  0.1380  0.1796
  735MOL0     C96943   5.195   2.296  11.051 -0.6517 -0.0654 -0.5053
  735MOL0     C96944   5.303   2.386  11.065  0.5918  0.2253 -0.6086
  735MOL0     C96945   5.294   2.503  11.141  0.6499 -0.6946  0.3930
  735MOL0     O96946   5.384   2.609  11.144  0.2514 -0.2962 -0.1010
  735MOL0     C96947   5.516   2.564  11.104 -0.5322  0.5907  0.0948
  735MOL0     C96948   5.620   2.681  11.101  0.8639 -0.0975 -0.0339
  735MOL0     C96949   5.754   2.647  11.057  0.3381 -0.0655  0.6491
  735MOL0     C96950   5.832   2.779  11.031  1.0787 -0.7665  0.4864
  735MOL0     C96951   5.969   2.734  10.992  0.0381  0.1427 -0.9436
  735MOL0     C96952   6.076   2.699  10.959 -0.7182  0.0435 -0.3589
  735MOL0     C96953   5.174   2.533  11.207  0.2743  0.4266 -0.2126
  735MOL0     C96954   5.069   2.441  11.197  0.8510 -0.0204  0.1335
  735MOL0     H96955   4.820   1.997  11.220  0.4703  1.9300  3.4652
  735MOL0     H96956   4.606   1.861  11.168  0.2448  0.0205 -3.0240
  735MOL0     H96957   4.264   2.006  10.951 -2.8270  1.4999 -0.0008
  735MOL0     H96958   4.236   2.084  11.100 -3.3570  0.2181 -2.5793
  735MOL0     H96959   4.146   1.908  11.207  1.4802 -0.9853  0.4361
  735MOL0     H96960   4.194   1.786  11.092 -2.3451 -0.7199 -0.0026
  735MOL0     H96961   4.050   1.869  10.922  1.4581  1.5918 -0.3402
  735MOL0     H96962   3.999   1.992  11.029  3.6504 -0.1051  0.9178
  735MOL0     H96963   3.971   1.684  11.088  0.4976 -0.0378 -2.0331
  735MOL0     H96964   3.922   1.814  11.194 -0.4502  1.3906 -1.2802
  735MOL0     H96965   3.789   1.763  10.925  1.1385  0.4740 -0.4759
  735MOL0     H96966   3.776   1.909  11.034  1.4437  0.5391 -2.0512
  735MOL0     H96967   3.671   1.789  11.215 -0.7298  0.9898 -0.4277
  735MOL0     H96968   3.688   1.637  11.118 -1.6458 -0.3357  0.4588
  735MOL0     H96969   3.465   1.734  11.102 -3.2178  3.6015  0.3833
  735MOL0     H96970   3.535   1.882  11.025 -0.2544 -0.8787 -1.8142
  735MOL0     H96971   3.607   1.733  10.829  1.1032 -0.5656  0.5520
  735MOL0     H96972   3.435   1.759  10.851 -1.7208 -1.0964  0.7121
  735MOL0     H96973   3.283   1.551  10.941  0.7032 -0.3579  2.5432
  735MOL0     H96974   3.210   1.271  10.927 -0.3598  0.5264  0.6183
  735MOL0     H96975   3.301   1.259  11.082 -3.1412  2.0897  0.2437
  735MOL0     H96976   3.447   1.090  10.977 -1.9631 -3.0495  0.9439
  735MOL0     H96977   3.397   1.140  10.813 -0.9134 -2.4832 -0.7536
  735MOL0     H96978   3.174   1.043  10.847 -1.0030 -3.0788  0.4830
  735MOL0     H96979   3.291   0.921  10.889  1.2880  0.3324 -3.4599
  735MOL0     H96980   3.154   1.101  11.101  2.5320  0.8394  0.9306
  735MOL0     H96981   3.268   0.965  11.120  0.9009 -1.0372 -2.1053
  735MOL0     H96982   2.900   0.738  11.103 -0.4978  0.3994 -0.0514
  735MOL0     H96983   2.655   0.785  11.111 -1.7033  2.1985  1.6884
  735MOL0     H96984   2.196   0.885  11.007 -1.3795 -3.8425  1.2478
  735MOL0     H96985   1.994   0.925  11.122 -1.0577  0.0998  1.7837
  735MOL0     H96986   1.834   0.919  11.262  1.4586  0.1637 -1.9308
  735MOL0     H96987   1.843   1.089  11.203  0.6502  1.9444  0.8418
  735MOL0     H96988   1.624   1.056  11.332 -1.4357  1.8666  0.9172
  735MOL0     H96989   1.713   1.165  11.423 -2.0486  0.0123  1.3982
  735MOL0     H96990   1.808   0.958  11.551  0.9609 -0.5977 -2.0220
  735MOL0     H96991   1.683   0.872  11.470  1.4363  0.0603 -0.5765
  735MOL0     H96992   1.617   1.122  11.628  0.7963  0.2544 -1.3771
  735MOL0     H96993   1.503   1.014  11.550 -0.1073 -0.2499 -0.0175
  735MOL0     H96994   1.695   0.933  11.785  0.3227  0.3287 -0.8603
  735MOL0     H96995   1.583   0.822  11.715 -1.1800  0.1642  1.3495
  735MOL0     H96996   1.393   0.961  11.790  0.2782 -1.5414  0.4850
  735MOL0     H96997   1.493   1.085  11.859  1.6525  0.1848  0.4806
  735MOL0     H96998   1.499   0.810  11.981  4.1920 -0.2651 -0.2399
  735MOL0     H96999   1.601   0.943  12.026  0.6748  0.4538 -0.0036
  735MOL0     H97000   1.284   0.923  12.023  1.3586 -1.8370 -1.1574
  735MOL0     H97001   1.370   1.074  12.049  0.8533  0.3981 -1.8434
  735MOL0     H97002   2.205   1.074  11.459 -2.2443 -0.0927 -0.4165
  735MOL0     H97003   2.418   0.997  11.364 -1.2062 -1.9446  2.6502
  735MOL0     H97004   2.724   1.194  11.006 -0.9884 -1.3490  0.2064
  735MOL0     H97005   2.958   1.156  10.993 -0.1992 -0.4816 -1.5920
  735MOL0     H97006   4.395   2.212  11.081  2.0036  2.6347 -0.7544
  735MOL0     H97007   4.606   2.347  11.096  0.1962  0.7728 -1.1229
  735MOL0     H97008   5.197   2.205  10.991 -1.0412 -1.1771  1.1112
  735MOL0     H97009   5.395   2.364  11.012  0.5475 -0.5972 -0.3681
  735MOL0     H97010   5.504   2.531  11.000 -1.1756  0.0469  0.3337
  735MOL0     H97011   5.558   2.499  11.181 -0.7113  0.7317  0.3123
  735MOL0     H97012   5.578   2.755  11.033 -1.1074 -0.1801  1.0215
  735MOL0     H97013   5.637   2.728  11.198  2.0148  1.6178 -1.0193
  735MOL0     H97014   5.759   2.593  10.962 -0.0463  2.5133 -0.9131
  735MOL0     H97015   5.803   2.594  11.139 -0.0341 -3.1571 -0.9811
  735MOL0     H97016   5.793   2.831  10.942  2.5203  0.5940  0.6162
  735MOL0     H97017   5.833   2.844  11.119 -1.7774  1.2889 -0.8334
  735MOL0     H97018   6.174   2.662  10.936 -1.3770 -0.5151 -2.4936
  735MOL0     H97019   5.172   2.615  11.277  0.6549  1.2452 -1.1354
  735MOL0     H97020   4.983   2.453  11.262  0.2469 -1.1476 -0.4228
  736MOL0     O97021   5.888   9.493   5.447 -0.2255  0.3415  0.3245
  736MOL0     C97022   5.943   9.417   5.364 -0.3605 -0.8472 -0.2930
  736MOL0     O97023   5.881   9.318   5.284  0.5804  0.6309  0.0047
  736MOL0     C97024   5.756   9.273   5.329  0.5264  0.1530 -0.2889
  736MOL0     C97025   5.648   9.338   5.264  0.4329  0.2698  0.0711
  736MOL0     C97026   5.514   9.306   5.302  0.1697  0.4605 -0.1777
  736MOL0     C97027   5.494   9.221   5.405  0.0160  0.4843  0.4484
  736MOL0     O97028   5.376   9.182   5.470  0.0668 -0.0691 -0.0556
  736MOL0     C97029   5.252   9.206   5.405  0.7387  0.1715  0.3737
  736MOL0     C97030   5.135   9.122   5.461  0.4073  0.2557  0.3330
  736MOL0     C97031   5.001   9.187   5.426 -0.3372  0.2410 -0.0644
  736MOL0     C97032   4.881   9.105   5.464 -0.3676 -0.1336 -0.2017
  736MOL0     C97033   4.765   9.200   5.464  0.1415 -0.5797  0.8395
  736MOL0     C97034   4.640   9.115   5.496  0.0104 -1.2751 -0.2407
  736MOL0     C97035   4.614   9.071   5.641 -0.2979  0.1848 -0.3941
  736MOL0     C97036   4.466   9.037   5.667 -0.0136 -0.8442  0.0622
  736MOL0     N97037   4.462   8.958   5.794 -1.0542  0.5416 -0.6398
  736MOL0     C97038   4.476   8.821   5.804  0.6893  0.8003 -0.2195
  736MOL0     C97039   4.444   8.798   5.939 -0.0702 -0.3627 -0.6615
  736MOL0     C97040   4.441   8.655   5.990 -0.8717  0.4854  0.0624
  736MOL0     C97041   4.577   8.605   6.044  0.2219 -0.3734 -0.7058
  736MOL0     C97042   4.584   8.461   6.082  1.0000  0.4924 -1.0622
  736MOL0     C97043   4.706   8.428   6.168  0.6193  0.2067  0.7348
  736MOL0     O97044   4.683   8.302   6.235 -0.3131  0.8768  0.5716
  736MOL0     C97045   4.803   8.232   6.276  0.0074 -0.4407 -0.0512
  736MOL0     C97046   4.925   8.301   6.307  0.7898  0.4715  0.1422
  736MOL0     C97047   5.036   8.225   6.341 -0.2988 -0.5104  0.1814
  736MOL0     C97048   5.032   8.084   6.328 -0.8003  0.1846 -0.3529
  736MOL0     C97049   5.146   7.994   6.357 -0.7536 -0.5644  0.7738
  736MOL0     O97050   5.143   7.867   6.302 -0.0837 -0.7806  0.0885
  736MOL0     C97051   5.253   7.779   6.308  0.3774 -0.1535  0.0742
  736MOL0     C97052   5.366   7.820   6.222 -0.2474 -0.7670 -0.0460
  736MOL0     C97053   5.485   7.741   6.233 -0.6864 -0.1266 -1.0941
  736MOL0     C97054   5.488   7.635   6.319  0.2546  0.4193 -0.4570
  736MOL0     O97055   5.591   7.551   6.338  0.3234  0.0293 -0.0154
  736MOL0     C97056   5.701   7.547   6.242  0.3267  0.2593  0.2956
  736MOL0     C97057   5.813   7.645   6.282  0.2043  0.5451  0.1013
  736MOL0     C97058   5.866   7.606   6.424 -0.2651  0.4760  0.5834
  736MOL0     C97059   5.949   7.719   6.478  0.0716 -0.0047  0.3126
  736MOL0     C97060   6.046   7.677   6.578  0.4931  0.4385  0.0929
  736MOL0     C97061   6.140   7.792   6.603 -0.6274  0.1317 -0.1064
  736MOL0     C97062   6.252   7.754   6.701 -1.0477 -0.3253 -0.0567
  736MOL0     C97063   6.364   7.861   6.714  0.3706  0.3897 -0.0442
  736MOL0    Cl97064   6.297   8.033   6.713  0.2150 -0.1703 -0.0768
  736MOL0     C97065   5.376   7.603   6.396 -0.0389  0.1228 -0.6683
  736MOL0     C97066   5.256   7.671   6.394  0.1548  0.3049  0.7239
  736MOL0     O97067   5.234   8.041   6.421 -0.1848  0.3123  0.2685
  736MOL0     C97068   4.915   8.017   6.296 -0.2291 -0.1767 -0.8800
  736MOL0     C97069   4.799   8.098   6.274 -0.0415  0.2974  0.2556
  736MOL0     N97070   4.428   8.917   6.005  0.0738  0.2884 -0.5780
  736MOL0     N97071   4.431   9.016   5.913 -0.6635  0.6524  1.2570
  736MOL0     C97072   5.607   9.156   5.466 -0.5876 -0.4001  0.3883
  736MOL0     C97073   5.737   9.182   5.426  0.1553  0.2568  0.6191
  736MOL0     C97074   6.085   9.439   5.349 -0.3081 -0.4143 -0.1367
  736MOL0     C97075   6.158   9.366   5.255  0.6453 -0.0075  0.1697
  736MOL0     C97076   6.296   9.383   5.233  0.2087 -0.1200 -0.2746
  736MOL0     C97077   6.363   9.477   5.307  0.2814 -0.6237 -0.3802
  736MOL0     O97078   6.499   9.485   5.281 -0.3598 -0.4706 -0.0240
  736MOL0     C97079   6.578   9.575   5.350  1.1597  0.9868 -0.9278
  736MOL0     C97080   6.712   9.564   5.275  0.3156  0.9494 -0.7819
  736MOL0     C97081   6.822   9.655   5.340  0.3230  0.0442 -0.7139
  736MOL0     C97082   6.946   9.644   5.268 -0.9560  0.2929  0.2164
  736MOL0     C97083   7.041   9.744   5.322  0.0185  0.1448 -0.4827
  736MOL0     C97084   7.122   9.824   5.348 -0.8345 -0.2324 -0.7176
  736MOL0     C97085   6.294   9.547   5.415 -0.8552 -0.3239 -0.2251
  736MOL0     C97086   6.158   9.530   5.426  0.4882  0.1533 -0.0097
  736MOL0     H97087   5.671   9.394   5.174  2.9648 -1.3391 -0.3888
  736MOL0     H97088   5.423   9.335   5.252 -0.8393 -2.5909 -0.3031
  736MOL0     H97089   5.266   9.180   5.299  1.4684  1.6218  0.0938
  736MOL0     H97090   5.229   9.313   5.407 -0.9372 -0.1604  0.4046
  736MOL0     H97091   5.146   9.121   5.570 -0.4421  0.8862  0.4286
  736MOL0     H97092   5.137   9.022   5.417 -0.5693  0.5152 -0.3203
  736MOL0     H97093   5.006   9.218   5.321 -1.6109 -1.3984 -0.6536
  736MOL0     H97094   4.992   9.276   5.489 -1.8640 -1.0080  1.5841
  736MOL0     H97095   4.878   9.026   5.389  1.5400 -1.3036  0.8808
  736MOL0     H97096   4.898   9.060   5.563  0.7357 -0.4756 -0.5335
  736MOL0     H97097   4.751   9.242   5.364 -0.1145 -4.8179 -1.1492
  736MOL0     H97098   4.782   9.276   5.540 -1.8142 -0.3946  1.1289
  736MOL0     H97099   4.635   9.036   5.420  0.3524 -1.6814  0.1532
  736MOL0     H97100   4.553   9.175   5.469  0.0772 -0.6778  0.8210
  736MOL0     H97101   4.678   8.982   5.653 -1.0863 -0.4197 -0.5771
  736MOL0     H97102   4.650   9.146   5.712  3.3553 -1.1412 -0.6333
  736MOL0     H97103   4.430   8.973   5.585 -0.1124  1.6716 -1.9851
  736MOL0     H97104   4.401   9.125   5.664  0.2241 -0.6359  0.8969
  736MOL0     H97105   4.501   8.749   5.727 -4.0738 -2.4009  0.7805
  736MOL0     H97106   4.413   8.591   5.907  1.0534 -2.3684  1.4392
  736MOL0     H97107   4.375   8.640   6.077  2.0291  0.2097  2.3706
  736MOL0     H97108   4.599   8.669   6.130  0.2804  0.2674 -1.1881
  736MOL0     H97109   4.653   8.631   5.971  0.8886  1.8343  0.6514
  736MOL0     H97110   4.497   8.437   6.142  2.5977 -0.7224  0.9000
  736MOL0     H97111   4.581   8.396   5.993 -2.1958  1.7989 -2.0270
  736MOL0     H97112   4.729   8.510   6.237 -1.7982  1.8576 -0.2771
  736MOL0     H97113   4.792   8.420   6.102 -1.3020  0.7933 -1.9976
  736MOL0     H97114   4.938   8.409   6.309 -0.0990  0.6971 -2.3884
  736MOL0     H97115   5.123   8.284   6.370  0.7933 -1.6446 -0.6721
  736MOL0     H97116   5.356   7.910   6.162 -2.1833 -0.9448 -0.0385
  736MOL0     H97117   5.564   7.782   6.170 -0.4519 -0.1521 -0.8213
  736MOL0     H97118   5.660   7.568   6.143 -0.9135 -0.0555  0.7232
  736MOL0     H97119   5.745   7.448   6.230 -0.0387 -0.0091  1.0954
  736MOL0     H97120   5.776   7.748   6.275 -1.1376  0.1746  1.1773
  736MOL0     H97121   5.890   7.625   6.207  1.0215 -0.6926  1.2288
  736MOL0     H97122   5.918   7.509   6.424 -1.0260  0.0520 -0.0126
  736MOL0     H97123   5.781   7.587   6.489 -3.1750  3.4696 -2.0033
  736MOL0     H97124   5.995   7.765   6.390 -0.6520 -1.6013 -0.9458
  736MOL0     H97125   5.876   7.791   6.515 -0.3706  1.1881 -2.6182
  736MOL0     H97126   6.110   7.597   6.541  1.9388  1.1967  0.8685
  736MOL0     H97127   5.994   7.650   6.671  0.5377 -2.2963 -0.5857
  736MOL0     H97128   6.093   7.881   6.647  3.1029  2.5814 -0.6100
  736MOL0     H97129   6.190   7.832   6.515  0.6289  1.8580  1.3020
  736MOL0     H97130   6.203   7.738   6.797  0.3562 -1.6619  0.4784
  736MOL0     H97131   6.290   7.656   6.669 -1.1997  0.5616 -3.3858
  736MOL0     H97132   6.432   7.852   6.629 -0.3081 -0.5786 -0.4944
  736MOL0     H97133   6.420   7.835   6.805  0.2774 -0.5030 -0.2346
  736MOL0     H97134   5.371   7.517   6.463 -0.0390  0.9775  0.4543
  736MOL0     H97135   5.162   7.645   6.442 -0.6323  1.9908  0.2136
  736MOL0     H97136   4.915   7.909   6.290  2.1883 -0.4238  1.6222
  736MOL0     H97137   4.715   8.039   6.236 -0.1288  1.1695 -0.9844
  736MOL0     H97138   5.596   9.076   5.538 -1.3443  0.0073  0.7388
  736MOL0     H97139   5.811   9.123   5.478 -1.6872 -0.9078  2.0795
  736MOL0     H97140   6.106   9.287   5.203  0.9846 -0.3725  0.3864
  736MOL0     H97141   6.347   9.322   5.159 -0.1991  0.6832 -1.2269
  736MOL0     H97142   6.586   9.577   5.459 -0.6084  0.7983 -0.7575
  736MOL0     H97143   6.532   9.674   5.341  2.5176  1.6450 -0.8689
  736MOL0     H97144   6.729   9.456   5.284 -2.0801  0.7157  3.6757
  736MOL0     H97145   6.697   9.587   5.169 -1.8005 -1.3004 -1.0450
  736MOL0     H97146   6.838   9.631   5.445  0.1890  0.6113 -0.5582
  736MOL0     H97147   6.784   9.758   5.344  0.8822  0.2384 -0.3093
  736MOL0     H97148   6.991   9.546   5.285 -2.0381 -0.3435 -0.5016
  736MOL0     H97149   6.927   9.658   5.162 -2.7330  1.1445  0.6118
  736MOL0     H97150   7.206   9.883   5.379 -0.6734  0.3885 -2.2231
  736MOL0     H97151   6.343   9.608   5.489  1.0003 -2.1609  0.1456
  736MOL0     H97152   6.114   9.590   5.505 -3.4494 -2.4565  0.0288
  737MOL0     O97153  10.031   9.551   9.175 -0.5780 -0.1010  0.2149
  737MOL0     C97154  10.064   9.445   9.224  0.3470  1.2658 -0.1373
  737MOL0     O97155  10.189   9.407   9.265  0.0677 -0.8845  0.3665
  737MOL0     C97156  10.294   9.494   9.265 -0.8670 -0.4385  0.0016
  737MOL0     C97157  10.419   9.459   9.216  0.6956 -0.3947  0.7172
  737MOL0     C97158  10.522   9.547   9.199 -0.6456  0.1951 -0.1764
  737MOL0     C97159  10.506   9.685   9.233  0.1769  0.5414  0.6387
  737MOL0     O97160  10.600   9.786   9.216  0.1125 -0.7207 -0.6639
  737MOL0     C97161  10.731   9.748   9.158  0.0136  0.0621 -0.0957
  737MOL0     C97162  10.835   9.864   9.170  0.3649 -0.3851  0.4675
  737MOL0     C97163  10.788   9.986   9.098 -0.1682  0.6148 -0.0872
  737MOL0     C97164  10.897  10.089   9.066  0.6451  0.2566 -0.4166
  737MOL0     C97165  10.847  10.209   8.981  0.0819 -0.4814 -0.2904
  737MOL0     C97166  10.965  10.292   8.943 -0.3843 -0.2618  0.0107
  737MOL0     C97167  10.943  10.413   8.844 -0.1211 -0.6649  0.4833
  737MOL0     C97168  10.828  10.509   8.874  0.3418 -0.7109 -0.2488
  737MOL0     N97169  10.696  10.479   8.814 -0.4310 -0.4854  0.2575
  737MOL0     C97170  10.600  10.397   8.866  1.2851 -0.4551  0.5459
  737MOL0     C97171  10.490  10.409   8.789  0.6899 -0.4237  0.7211
  737MOL0     C97172  10.359  10.335   8.827 -0.4617  0.6489 -0.1354
  737MOL0     C97173  10.263  10.436   8.903 -0.8461 -0.0466 -0.1866
  737MOL0     C97174  10.192  10.526   8.802 -0.5243 -0.1256  0.0547
  737MOL0     C97175  10.084  10.606   8.872 -0.6688 -0.1001  0.2980
  737MOL0     O97176  10.027  10.712   8.795 -0.3763  0.1974  0.4885
  737MOL0     C97177   9.900  10.739   8.822  1.1007  1.1186 -0.6950
  737MOL0     C97178   9.856  10.749   8.952  0.3893 -0.5787  0.0045
  737MOL0     C97179   9.721  10.784   8.977 -0.0315  0.3756  0.3994
  737MOL0     C97180   9.625  10.801   8.873  0.5859  0.3303  0.1410
  737MOL0     C97181   9.485  10.843   8.886  0.9632 -0.6314  0.6001
  737MOL0     O97182   9.416  10.888   8.777  0.2866 -0.4886 -0.5736
  737MOL0     C97183   9.278  10.882   8.763 -0.9940  0.4921 -0.9922
  737MOL0     C97184   9.183  10.894   8.869 -0.3144 -0.4175 -0.7719
  737MOL0     C97185   9.047  10.889   8.842  0.1682  0.5135 -0.8982
  737MOL0     C97186   8.995  10.873   8.715 -0.2396 -0.6072  0.4207
  737MOL0     O97187   8.862  10.858   8.680  0.1907  0.0011 -0.9040
  737MOL0     C97188   8.765  10.880   8.791 -1.2631  0.9682  0.3133
  737MOL0     C97189   8.629  10.913   8.736 -0.5766 -0.3658 -0.2061
  737MOL0     C97190   8.519  10.916   8.847 -1.4022 -0.0718 -0.5809
  737MOL0     C97191   8.375  10.942   8.789 -1.1252  0.3088  0.9374
  737MOL0     C97192   8.269  10.935   8.900 -0.0663 -0.5451  0.1934
  737MOL0     C97193   8.136  10.990   8.850  0.4829 -0.1091  0.6064
  737MOL0     C97194   8.014  10.959   8.934 -0.1355  0.3187 -0.9359
  737MOL0     C97195   7.887  11.044   8.894 -0.2612 -0.0072  0.5148
  737MOL0    Cl97196   7.842  11.036   8.725  0.5099 -0.4134 -0.0612
  737MOL0     C97197   9.089  10.852   8.607  0.1250  0.0381  0.0466
  737MOL0     C97198   9.225  10.870   8.632 -0.1043  0.3582 -0.5155
  737MOL0     O97199   9.433  10.831   9.000  0.4746 -0.2352  0.4809
  737MOL0     C97200   9.682  10.790   8.743  0.4760  0.0963 -0.5230
  737MOL0     C97201   9.816  10.759   8.719 -0.6442  0.5347  0.3779
  737MOL0     N97202  10.525  10.485   8.677 -0.1611  0.0987 -0.1266
  737MOL0     N97203  10.644  10.525   8.690  0.1904 -0.8208 -0.2018
  737MOL0     C97204  10.383   9.726   9.289 -0.6604 -0.5939  0.8112
  737MOL0     C97205  10.279   9.631   9.303  0.3052  0.5390  0.3093
  737MOL0     C97206   9.958   9.340   9.237 -0.1208  0.1291 -0.6661
  737MOL0     C97207   9.824   9.364   9.202  0.0115  0.4383  0.3457
  737MOL0     C97208   9.729   9.257   9.214 -0.0327 -0.2482  0.1921
  737MOL0     C97209   9.772   9.131   9.251 -0.2363  0.1314 -0.7516
  737MOL0     O97210   9.685   9.020   9.259  0.2284 -0.9492  0.5526
  737MOL0     C97211   9.646   8.944   9.143 -0.3176 -0.2112 -0.1405
  737MOL0     C97212   9.668   8.794   9.163  0.2330 -0.0998  0.2276
  737MOL0     C97213   9.587   8.747   9.287 -0.0688  0.6735  0.2422
  737MOL0     C97214   9.629   8.598   9.312 -0.3577 -0.1580  0.7198
  737MOL0     C97215   9.769   8.570   9.345  0.3310 -0.3588  0.3916
  737MOL0     C97216   9.881   8.523   9.356 -0.3545 -0.5590 -1.5646
  737MOL0     C97217   9.906   9.115   9.290 -0.0619  0.1979 -0.1042
  737MOL0     C97218  10.001   9.213   9.285  0.3184 -0.0641  0.1680
  737MOL0     H97219  10.436   9.355   9.191 -1.7088 -0.6558 -0.1344
  737MOL0     H97220  10.616   9.515   9.154  0.4379  2.0571  0.6796
  737MOL0     H97221  10.727   9.720   9.052 -1.6915 -1.1584  0.2437
  737MOL0     H97222  10.778   9.666   9.213  1.6816  2.2626  1.9781
  737MOL0     H97223  10.928   9.830   9.124  0.6380 -0.3229  0.9713
  737MOL0     H97224  10.853   9.890   9.275 -1.5809 -5.0574  2.1815
  737MOL0     H97225  10.712  10.033   9.162 -0.0640 -1.4204  1.6812
  737MOL0     H97226  10.739   9.943   9.010  1.6728 -2.0969  0.0828
  737MOL0     H97227  10.932  10.125   9.163 -0.4602  0.6261 -0.1292
  737MOL0     H97228  10.980  10.038   9.017  2.7399  0.2093  2.9100
  737MOL0     H97229  10.784  10.278   9.038  0.8555  1.1138 -1.2770
  737MOL0     H97230  10.782  10.180   8.898 -1.2986  0.0431  0.5556
  737MOL0     H97231  11.043  10.224   8.907  1.0561  1.3402 -0.0864
  737MOL0     H97232  10.999  10.336   9.037 -2.8458 -3.1186  2.4268
  737MOL0     H97233  11.033  10.474   8.850 -0.8015  0.4479 -0.1517
  737MOL0     H97234  10.932  10.372   8.743 -1.5548 -0.1300  0.3996
  737MOL0     H97235  10.864  10.607   8.839  0.0511 -0.8597 -0.9764
  737MOL0     H97236  10.812  10.518   8.982  0.8019 -2.0445 -0.0596
  737MOL0     H97237  10.603  10.335   8.956 -1.5235 -2.5311 -0.6464
  737MOL0     H97238  10.384  10.254   8.896  0.7754  1.2760  0.1862
  737MOL0     H97239  10.316  10.301   8.733  2.7779 -1.8899 -0.8790
  737MOL0     H97240  10.319  10.481   8.986  1.6724 -2.8307 -0.2405
  737MOL0     H97241  10.183  10.373   8.943 -0.7806 -1.6925 -2.4507
  737MOL0     H97242  10.274  10.588   8.765 -0.1814 -0.9470 -0.5979
  737MOL0     H97243  10.153  10.478   8.712  3.2868 -2.0330 -0.8245
  737MOL0     H97244  10.125  10.651   8.964 -0.0290  1.5069 -0.7346
  737MOL0     H97245  10.003  10.537   8.896 -2.6342  1.4225 -1.5542
  737MOL0     H97246   9.920  10.742   9.040  0.7346 -1.4553 -0.2990
  737MOL0     H97247   9.685  10.793   9.079  0.2571  2.3916  0.3475
  737MOL0     H97248   9.204  10.896   8.975 -3.2861 -3.3315  0.0753
  737MOL0     H97249   8.978  10.886   8.926 -0.1361  0.6145 -1.1443
  737MOL0     H97250   8.802  10.961   8.855  0.6053  0.5618 -0.1918
  737MOL0     H97251   8.753  10.787   8.848  3.7008 -1.1447 -1.5671
  737MOL0     H97252   8.603  10.827   8.673 -0.6835 -1.6347  1.5074
  737MOL0     H97253   8.621  11.010   8.685 -1.4118 -1.2038 -1.7569
  737MOL0     H97254   8.541  10.993   8.922 -1.4545  0.3434 -0.9874
  737MOL0     H97255   8.518  10.823   8.903  1.0320  0.8104  1.1275
  737MOL0     H97256   8.372  11.038   8.737  4.1592 -0.8594 -2.2379
  737MOL0     H97257   8.365  10.864   8.714 -0.7013  2.1698 -1.1404
  737MOL0     H97258   8.299  10.995   8.987 -1.3033  1.0544 -0.4327
  737MOL0     H97259   8.266  10.836   8.946  2.8376 -0.3250  1.0551
  737MOL0     H97260   8.120  10.942   8.752 -0.0283 -1.1206  1.1744
  737MOL0     H97261   8.143  11.098   8.837 -0.3385 -0.0254  0.8367
  737MOL0     H97262   7.994  10.852   8.920  0.8739  0.2000 -1.5219
  737MOL0     H97263   8.039  10.980   9.038  2.2995 -1.7574 -1.0239
  737MOL0     H97264   7.926  11.146   8.905  1.5691 -0.3278 -2.1156
  737MOL0     H97265   7.803  11.008   8.954  1.0540 -1.2357  1.6969
  737MOL0     H97266   9.060  10.818   8.508  0.4937 -0.5442  0.1330
  737MOL0     H97267   9.305  10.865   8.559 -1.0173  3.5985 -1.9268
  737MOL0     H97268   9.615  10.802   8.658 -3.2103 -2.5054  1.7256
  737MOL0     H97269   9.860  10.736   8.622 -1.6588 -0.9725  0.2434
  737MOL0     H97270  10.357   9.831   9.302 -0.1675 -0.6888  2.8643
  737MOL0     H97271  10.185   9.675   9.338 -0.8589  0.3134 -2.3199
  737MOL0     H97272   9.787   9.457   9.160  1.2522 -0.4875 -3.1854
  737MOL0     H97273   9.629   9.274   9.176  0.8548  1.5676 -1.5203
  737MOL0     H97274   9.702   8.976   9.054  1.3819 -0.1103  0.9055
  737MOL0     H97275   9.538   8.958   9.134 -0.0096  1.7358 -1.5147
  737MOL0     H97276   9.623   8.738   9.080 -0.4329  1.7885 -0.7558
  737MOL0     H97277   9.773   8.765   9.160 -0.1419 -1.4094 -1.0283
  737MOL0     H97278   9.482   8.743   9.257 -0.7569 -2.3819  2.5178
  737MOL0     H97279   9.608   8.802   9.380 -1.7497  1.4925  0.1831
  737MOL0     H97280   9.586   8.563   9.406  1.2723 -2.4532  0.6963
  737MOL0     H97281   9.586   8.532   9.236 -1.1562  0.4516  0.6294
  737MOL0     H97282   9.972   8.468   9.371 -2.3617 -3.2472  3.1719
  737MOL0     H97283   9.921   9.011   9.317 -0.6525  0.0384 -0.3743
  737MOL0     H97284  10.104   9.191   9.311 -0.4386 -2.5554  1.3381
  738MOL0     O97285   0.531   6.745   1.391 -0.5235 -0.4414 -0.2123
  738MOL0     C97286   0.458   6.849   1.410 -0.2826  0.2064 -0.3660
  738MOL0     O97287   0.499   6.981   1.416 -0.3158  0.7300  0.2872
  738MOL0     C97288   0.625   7.008   1.372  0.6130 -0.5990 -0.6015
  738MOL0     C97289   0.681   6.962   1.258 -0.7707 -0.0455  0.4355
  738MOL0     C97290   0.812   6.998   1.236 -1.3184 -0.7264 -0.4975
  738MOL0     C97291   0.895   7.081   1.323  1.2713  0.1770  0.4536
  738MOL0     O97292   1.023   7.109   1.294  0.7670 -0.7148  0.6531
  738MOL0     C97293   1.061   7.113   1.149 -0.1672 -0.0808 -0.6127
  738MOL0     C97294   1.202   7.181   1.144 -0.1874  0.0974 -0.0547
  738MOL0     C97295   1.220   7.327   1.188 -0.0632 -0.1655 -0.4775
  738MOL0     C97296   1.371   7.370   1.217  0.0433 -0.0856 -0.4595
  738MOL0     C97297   1.479   7.318   1.131  0.0299 -0.3180  0.2350
  738MOL0     C97298   1.479   7.377   0.993  0.2781 -0.0078  0.0296
  738MOL0     C97299   1.609   7.339   0.923 -1.0953  0.9761 -0.3724
  738MOL0     C97300   1.630   7.189   0.905 -0.3118  0.1166 -0.3620
  738MOL0     N97301   1.697   7.160   0.777  0.0448 -0.2616 -0.4080
  738MOL0     C97302   1.840   7.151   0.769 -0.1416  0.2463 -0.2212
  738MOL0     C97303   1.861   7.119   0.640  0.9048  0.5655 -0.6180
  738MOL0     C97304   1.997   7.125   0.564  0.3265 -0.1445 -0.4004
  738MOL0     C97305   2.037   7.274   0.514 -0.5474  0.7698 -0.1203
  738MOL0     C97306   1.915   7.320   0.425  0.2388 -0.0645 -0.2398
  738MOL0     C97307   1.905   7.235   0.297 -0.1903  0.2781 -0.1650
  738MOL0     O97308   1.835   7.316   0.197  0.1810  0.2651  0.0975
  738MOL0     C97309   1.703   7.351   0.213  0.4334 -0.2874  0.2750
  738MOL0     C97310   1.646   7.453   0.141  0.1714 -0.0606  0.5764
  738MOL0     C97311   1.512   7.482   0.143  0.0309 -0.0773 -0.1622
  738MOL0     C97312   1.423   7.409   0.226 -0.7516  0.5189 -0.7055
  738MOL0     C97313   1.292   7.458   0.258  0.7126 -0.2038 -0.0472
  738MOL0     O97314   1.267   7.593   0.261 -0.2233 -0.1394  0.1995
  738MOL0     C97315   1.142   7.644   0.273 -0.8730 -0.3473 -0.1749
  738MOL0     C97316   1.065   7.641   0.395 -0.0920  0.3650 -0.5320
  738MOL0     C97317   0.942   7.712   0.413  0.1944 -0.4945  0.0038
  738MOL0     C97318   0.902   7.794   0.299  0.7178 -0.3333 -0.6751
  738MOL0     O97319   0.785   7.873   0.300 -0.6509 -0.0531  0.4134
  738MOL0     C97320   0.698   7.887   0.410  0.0072  0.8217 -0.4267
  738MOL0     C97321   0.653   8.037   0.403  0.1169  0.6981 -0.6154
  738MOL0     C97322   0.748   8.140   0.459  0.4174  0.5038 -0.1557
  738MOL0     C97323   0.701   8.287   0.479 -0.0945  0.2222 -0.7339
  738MOL0     C97324   0.694   8.356   0.345 -0.4285  0.7103 -0.3296
  738MOL0     C97325   0.618   8.485   0.366 -0.0479  0.3677  0.4600
  738MOL0     C97326   0.687   8.582   0.472  0.0150  0.1274  0.2665
  738MOL0     C97327   0.651   8.719   0.448 -0.1524 -1.1985  0.4933
  738MOL0    Cl97328   0.481   8.747   0.444  0.3428 -0.2204 -0.7801
  738MOL0     C97329   0.982   7.810   0.185 -0.1500 -0.3093  0.0732
  738MOL0     C97330   1.095   7.725   0.171  0.1225  0.1894  0.6249
  738MOL0     O97331   1.200   7.377   0.274 -0.2420 -0.1654 -0.1358
  738MOL0     C97332   1.481   7.295   0.302 -0.0733 -0.7181  0.9745
  738MOL0     C97333   1.616   7.270   0.291 -0.5596  0.1621  0.1304
  738MOL0     N97334   1.748   7.094   0.578 -0.3351 -0.2240  0.4170
  738MOL0     N97335   1.645   7.131   0.655 -0.2840  0.4635 -0.0016
  738MOL0     C97336   0.830   7.125   1.438 -0.6065 -0.3799  0.0863
  738MOL0     C97337   0.703   7.090   1.464  1.0745  0.8186  0.2005
  738MOL0     C97338   0.310   6.816   1.446  0.1381 -0.6299  0.6851
  738MOL0     C97339   0.267   6.682   1.436  0.1406  0.5133 -0.8058
  738MOL0     C97340   0.139   6.645   1.486  0.0541 -0.2194  0.1519
  738MOL0     C97341   0.053   6.742   1.531 -0.6136  0.8611  0.1541
  738MOL0     O97342  -0.074   6.730   1.571  0.4741  0.3418 -0.3576
  738MOL0     C97343  -0.165   6.636   1.520  0.0645  0.0702  0.0665
  738MOL0     C97344  -0.294   6.708   1.469  0.1048 -0.5702  0.0010
  738MOL0     C97345  -0.389   6.774   1.573  0.1094  0.2754  0.2303
  738MOL0     C97346  -0.531   6.733   1.553  0.1174  0.0182 -0.0986
  738MOL0     C97347  -0.626   6.813   1.639  0.2459  0.4325  0.4182
  738MOL0     C97348  -0.688   6.886   1.710  0.2304 -0.7300  0.6846
  738MOL0     C97349   0.098   6.874   1.545  0.1541  0.4254  0.1001
  738MOL0     C97350   0.226   6.914   1.496  0.4414 -0.3097  0.3164
  738MOL0     H97351   0.626   6.909   1.180  1.1671 -0.3841 -0.7905
  738MOL0     H97352   0.863   6.952   1.151  1.7896  2.5040 -0.6388
  738MOL0     H97353   0.983   7.167   1.097 -1.3694  0.5727  1.7114
  738MOL0     H97354   1.075   7.015   1.102  2.0829 -0.7608  1.2349
  738MOL0     H97355   1.222   7.168   1.037 -2.2382  1.0495 -0.5965
  738MOL0     H97356   1.272   7.117   1.198 -0.2813 -1.8488 -2.0703
  738MOL0     H97357   1.154   7.336   1.275 -1.1479 -1.6457 -1.1095
  738MOL0     H97358   1.180   7.400   1.118  0.2916  1.0075  0.5126
  738MOL0     H97359   1.381   7.476   1.242  0.3758 -0.5333  1.4657
  738MOL0     H97360   1.395   7.324   1.313 -0.4265  0.8550  0.1255
  738MOL0     H97361   1.477   7.209   1.117  0.7808 -0.1099 -1.9630
  738MOL0     H97362   1.574   7.352   1.173  0.1192  1.6470 -1.3736
  738MOL0     H97363   1.476   7.486   1.003  1.5887 -0.0457  1.1458
  738MOL0     H97364   1.397   7.339   0.931 -0.4030 -2.1566  2.0847
  738MOL0     H97365   1.626   7.381   0.824  5.0037 -0.3432 -0.3182
  738MOL0     H97366   1.700   7.377   0.972  0.2778  0.0727 -2.1008
  738MOL0     H97367   1.537   7.134   0.921 -0.9178  1.2436  0.0954
  738MOL0     H97368   1.683   7.171   0.999  0.3722  2.5224 -0.2132
  738MOL0     H97369   1.916   7.167   0.845  0.0490 -1.4804  0.0080
  738MOL0     H97370   1.983   7.055   0.481  0.8544 -1.0238  0.2293
  738MOL0     H97371   2.082   7.083   0.619  0.1275  1.3146  1.0975
  738MOL0     H97372   2.130   7.256   0.459  0.3704 -0.2248  1.6496
  738MOL0     H97373   2.062   7.336   0.600  0.5901  1.2246 -0.7536
  738MOL0     H97374   1.820   7.304   0.477 -0.9366  0.5191 -2.0832
  738MOL0     H97375   1.917   7.428   0.403  0.3112 -0.1041 -0.4228
  738MOL0     H97376   1.860   7.137   0.312  2.2504 -0.6079  2.3924
  738MOL0     H97377   2.007   7.216   0.262 -0.6737 -1.1272 -0.8455
  738MOL0     H97378   1.715   7.517   0.087  0.4585 -1.6011 -1.0038
  738MOL0     H97379   1.470   7.568   0.092 -4.1750  0.4343  3.6144
  738MOL0     H97380   1.105   7.587   0.479 -0.4785  1.9523  0.7307
  738MOL0     H97381   0.879   7.712   0.501  0.5471  2.7346  0.3801
  738MOL0     H97382   0.749   7.868   0.505 -1.6028 -2.2703 -0.0574
  738MOL0     H97383   0.614   7.818   0.410  0.1933  0.5490  1.5121
  738MOL0     H97384   0.567   8.037   0.470  1.0065 -1.8376  0.6264
  738MOL0     H97385   0.612   8.057   0.303 -2.2453 -0.5363  0.0489
  738MOL0     H97386   0.838   8.141   0.397  1.1213 -0.2410  0.8315
  738MOL0     H97387   0.776   8.107   0.559  0.7890  1.3196  0.0181
  738MOL0     H97388   0.604   8.283   0.529 -0.1421  2.4272 -0.5479
  738MOL0     H97389   0.770   8.336   0.549 -0.7097 -0.3487  0.2978
  738MOL0     H97390   0.638   8.291   0.276 -1.8107  0.8756  0.5863
  738MOL0     H97391   0.796   8.369   0.308  0.3471  0.5807  1.6689
  738MOL0     H97392   0.518   8.453   0.400  0.3011 -2.5332 -0.9466
  738MOL0     H97393   0.610   8.528   0.266  1.6190  0.0393  0.1668
  738MOL0     H97394   0.661   8.548   0.572  0.8439  0.1497  0.4932
  738MOL0     H97395   0.794   8.565   0.454 -0.4968 -1.2895 -1.8797
  738MOL0     H97396   0.703   8.748   0.356  1.0542 -0.7809  1.2870
  738MOL0     H97397   0.693   8.783   0.525  0.7605 -1.4764  0.2345
  738MOL0     H97398   0.951   7.870   0.100  2.2330  1.8027  0.5477
  738MOL0     H97399   1.152   7.736   0.080  0.8611  1.8725  1.2466
  738MOL0     H97400   1.410   7.250   0.371  0.6068  0.5001  2.5504
  738MOL0     H97401   1.652   7.178   0.337 -0.9710  0.6402  1.4456
  738MOL0     H97402   0.882   7.187   1.510 -0.8796 -2.5866  2.3328
  738MOL0     H97403   0.659   7.133   1.553  2.5459  0.3595  1.1812
  738MOL0     H97404   0.330   6.597   1.411 -1.0237 -0.5233 -0.3145
  738MOL0     H97405   0.093   6.546   1.480 -1.0608  0.2755  0.2972
  738MOL0     H97406  -0.189   6.562   1.597 -3.9046 -0.3374 -1.3606
  738MOL0     H97407  -0.116   6.590   1.433 -0.4817 -0.6827  0.1504
  738MOL0     H97408  -0.258   6.790   1.407 -1.6584  0.1438 -0.1490
  738MOL0     H97409  -0.348   6.633   1.410  1.9414  0.1572 -2.7870
  738MOL0     H97410  -0.386   6.883   1.567  1.1587  0.2560  0.2086
  738MOL0     H97411  -0.364   6.749   1.677 -1.7978 -0.5618  0.5266
  738MOL0     H97412  -0.548   6.752   1.447 -1.2720  2.7889  0.5133
  738MOL0     H97413  -0.555   6.630   1.583  0.9640 -0.1932 -0.1292
  738MOL0     H97414  -0.732   6.966   1.767 -0.3206  0.6599 -1.5753
  738MOL0     H97415   0.037   6.949   1.596  3.0016  0.6023  3.7120
  738MOL0     H97416   0.262   7.016   1.505 -1.1641  0.1815  1.5935
  739MOL0     O97417   0.800   0.304   1.674  0.1008  0.3994 -1.0424
  739MOL0     C97418   0.839   0.235   1.581  0.4022  0.1355 -0.7510
  739MOL0     O97419   0.752   0.172   1.499  0.2023  0.0174  0.1397
  739MOL0     C97420   0.623   0.172   1.540 -0.5018 -0.2301  0.8055
  739MOL0     C97421   0.577   0.084   1.632  0.3296  0.1774  0.5655
  739MOL0     C97422   0.444   0.091   1.668 -0.3106 -0.8193 -0.2366
  739MOL0     C97423   0.344   0.182   1.613 -0.2558 -0.3505  0.3733
  739MOL0     O97424   0.211   0.183   1.659  0.2890  0.0424  0.4629
  739MOL0     C97425   0.118   0.268   1.599  0.4287 -0.1514  0.2790
  739MOL0     C97426  -0.023   0.245   1.660  0.3138 -0.6257 -0.1476
  739MOL0     C97427  -0.092   0.111   1.647 -0.7052 -0.0416 -0.2850
  739MOL0     C97428  -0.137   0.064   1.503 -0.2801  0.3330  0.8468
  739MOL0     C97429  -0.186  -0.082   1.493 -0.0999  0.1105 -0.4367
  739MOL0     C97430  -0.239  -0.104   1.350 -0.1061 -0.4019 -0.1830
  739MOL0     C97431  -0.281  -0.254   1.313 -0.1226 -0.3450 -0.0125
  739MOL0     C97432  -0.186  -0.363   1.365  0.3213  0.1092 -0.3691
  739MOL0     N97433  -0.229  -0.504   1.329 -0.4560 -0.2556 -0.4442
  739MOL0     C97434  -0.178  -0.570   1.223  0.5777  0.2890 -0.5688
  739MOL0     C97435  -0.237  -0.690   1.214 -0.3603 -0.3759  0.7035
  739MOL0     C97436  -0.209  -0.785   1.095  0.5680  0.7989 -0.9296
  739MOL0     C97437  -0.328  -0.791   0.998  0.7563 -0.1833 -0.3920
  739MOL0     C97438  -0.320  -0.875   0.868  0.3295  0.1022 -0.3340
  739MOL0     C97439  -0.448  -0.891   0.786 -0.4664 -0.7439 -0.3220
  739MOL0     O97440  -0.479  -0.769   0.719 -0.1802 -0.3367  0.4699
  739MOL0     C97441  -0.577  -0.775   0.615  0.5747  0.6281  0.5939
  739MOL0     C97442  -0.706  -0.838   0.634  0.4958 -0.0711 -0.0768
  739MOL0     C97443  -0.809  -0.815   0.540  0.3944  0.1791  0.5024
  739MOL0     C97444  -0.795  -0.742   0.425  0.2318 -0.2697  0.5031
  739MOL0     C97445  -0.903  -0.714   0.325 -0.3867 -0.7166 -0.3527
  739MOL0     O97446  -1.004  -0.805   0.308 -0.8230 -0.4312  0.3268
  739MOL0     C97447  -1.099  -0.786   0.210  0.3591 -0.9330  1.0178
  739MOL0     C97448  -1.089  -0.737   0.075  0.6467 -0.3354 -0.2945
  739MOL0     C97449  -1.189  -0.729  -0.018 -0.1730  0.1854  0.6970
  739MOL0     C97450  -1.312  -0.763   0.029  0.1017  0.0233  0.2603
  739MOL0     O97451  -1.417  -0.754  -0.056 -0.1301 -0.2408  0.1902
  739MOL0     C97452  -1.450  -0.880  -0.105  0.2709  0.5648  0.2366
  739MOL0     C97453  -1.589  -0.927  -0.059 -0.3097  0.2323  0.6228
  739MOL0     C97454  -1.687  -0.832  -0.122 -0.2043 -0.6296 -0.3181
  739MOL0     C97455  -1.832  -0.898  -0.112 -0.9070 -0.6638 -0.0147
  739MOL0     C97456  -1.930  -0.818  -0.203  0.5151 -0.3521  0.4822
  739MOL0     C97457  -2.070  -0.878  -0.191 -0.0013  0.2490 -0.3657
  739MOL0     C97458  -2.154  -0.807  -0.297  0.3670 -0.1778 -0.4787
  739MOL0     C97459  -2.298  -0.855  -0.292 -0.5134 -0.0635 -0.0102
  739MOL0    Cl97460  -2.299  -1.021  -0.347 -0.0705  0.3221 -0.3373
  739MOL0     C97461  -1.334  -0.806   0.161  0.3830 -0.0488  0.1829
  739MOL0     C97462  -1.226  -0.819   0.251  0.9300 -0.2985  0.3205
  739MOL0     O97463  -0.900  -0.601   0.263 -0.9067 -0.3695  0.4467
  739MOL0     C97464  -0.666  -0.691   0.399 -0.0977  0.0128 -0.2206
  739MOL0     C97465  -0.561  -0.707   0.488  0.3423 -0.1660 -1.6401
  739MOL0     N97466  -0.315  -0.700   1.330  0.2495  0.3166 -0.3130
  739MOL0     N97467  -0.310  -0.588   1.398  0.4501 -0.5392 -0.2911
  739MOL0     C97468   0.400   0.267   1.517  0.1730  1.0522 -0.1888
  739MOL0     C97469   0.532   0.263   1.477 -0.0226 -0.1107 -0.0482
  739MOL0     C97470   0.972   0.240   1.534 -0.3148 -0.8143  0.4164
  739MOL0     C97471   1.068   0.299   1.616 -0.0353  0.1079 -0.0612
  739MOL0     C97472   1.202   0.295   1.577 -0.4465 -0.3683 -0.0748
  739MOL0     C97473   1.243   0.229   1.456  0.5108 -0.6285  0.1656
  739MOL0     O97474   1.367   0.211   1.412  0.1737  0.2293  0.4866
  739MOL0     C97475   1.473   0.292   1.458 -0.5461 -0.5586 -0.9420
  739MOL0     C97476   1.599   0.257   1.395 -0.1208  0.3026  0.1537
  739MOL0     C97477   1.714   0.329   1.452 -0.1752 -0.4151 -0.4676
  739MOL0     C97478   1.837   0.267   1.387 -0.3402  0.3445 -0.0917
  739MOL0     C97479   1.958   0.331   1.437 -0.9077  0.9148  0.6718
  739MOL0     C97480   2.056   0.369   1.501 -0.3406 -0.9027  0.2457
  739MOL0     C97481   1.141   0.159   1.386 -0.4011 -0.9342 -0.4890
  739MOL0     C97482   1.012   0.169   1.419  0.4793  0.0433 -0.6496
  739MOL0     H97483   0.631   0.000   1.674 -0.5980 -0.3135  0.8153
  739MOL0     H97484   0.432   0.019   1.748  2.0427 -0.0896  0.8457
  739MOL0     H97485   0.113   0.252   1.491 -2.5356 -0.5524  0.4131
  739MOL0     H97486   0.151   0.371   1.618 -1.1399  0.5070 -0.4070
  739MOL0     H97487  -0.092   0.313   1.609  1.0420 -1.6956 -2.7302
  739MOL0     H97488  -0.014   0.289   1.759  1.6128 -1.2070  0.0124
  739MOL0     H97489  -0.188   0.123   1.697 -1.0795 -1.0759 -0.7200
  739MOL0     H97490  -0.034   0.036   1.702 -0.5706  1.5273  1.8061
  739MOL0     H97491  -0.211   0.133   1.461 -0.4838  0.1672  0.9348
  739MOL0     H97492  -0.052   0.065   1.433 -1.3166 -1.1258 -0.4922
  739MOL0     H97493  -0.264  -0.100   1.568  1.3511 -0.6942  0.9348
  739MOL0     H97494  -0.105  -0.153   1.510 -1.3092 -1.0438  0.7090
  739MOL0     H97495  -0.166  -0.072   1.274  0.1371 -0.9550 -0.1860
  739MOL0     H97496  -0.319  -0.031   1.334 -0.1848  0.9833  4.7390
  739MOL0     H97497  -0.381  -0.268   1.355  0.5919  1.0833  2.3724
  739MOL0     H97498  -0.300  -0.276   1.208 -0.1793  0.1636 -0.1116
  739MOL0     H97499  -0.163  -0.354   1.471  0.0854  1.1011 -0.3938
  739MOL0     H97500  -0.088  -0.355   1.318 -0.0316 -0.8690 -1.3115
  739MOL0     H97501  -0.110  -0.524   1.152 -1.9279  3.4884 -1.1448
  739MOL0     H97502  -0.196  -0.882   1.145 -1.1164  0.8290 -0.3909
  739MOL0     H97503  -0.112  -0.763   1.049  0.8979 -0.2759 -0.7757
  739MOL0     H97504  -0.330  -0.685   0.970  3.4236  1.1793  3.6398
  739MOL0     H97505  -0.425  -0.806   1.047  0.7310 -0.4797 -0.5309
  739MOL0     H97506  -0.250  -0.824   0.801  1.1457 -2.6466 -1.6971
  739MOL0     H97507  -0.289  -0.976   0.894  0.1341  0.0722 -0.2133
  739MOL0     H97508  -0.527  -0.923   0.856  0.4768  0.6876  1.4879
  739MOL0     H97509  -0.424  -0.965   0.709 -0.4671 -1.1192  0.0328
  739MOL0     H97510  -0.731  -0.885   0.728 -0.8308 -1.5237 -1.1124
  739MOL0     H97511  -0.896  -0.876   0.565 -0.9937  1.4008 -1.1357
  739MOL0     H97512  -0.988  -0.703   0.055  0.9088  0.4359  2.0569
  739MOL0     H97513  -1.166  -0.703  -0.121  1.9068 -1.6134  0.6156
  739MOL0     H97514  -1.387  -0.954  -0.056 -0.2046  0.6749  1.0499
  739MOL0     H97515  -1.439  -0.889  -0.213 -0.0112  0.1088  0.2445
  739MOL0     H97516  -1.602  -0.936   0.049  2.8291  0.7286  1.1261
  739MOL0     H97517  -1.615  -1.030  -0.088 -1.6083  0.2003  1.7823
  739MOL0     H97518  -1.665  -0.795  -0.222 -0.3320  3.8581  1.0914
  739MOL0     H97519  -1.692  -0.740  -0.062 -1.8988 -1.0323  0.2263
  739MOL0     H97520  -1.816  -1.004  -0.133 -1.5877 -1.0692  1.3911
  739MOL0     H97521  -1.871  -0.904  -0.010  0.5383  1.4184  0.7335
  739MOL0     H97522  -1.895  -0.815  -0.307 -0.2878  0.6210  0.2282
  739MOL0     H97523  -1.932  -0.713  -0.173 -0.6706 -0.0431 -0.6095
  739MOL0     H97524  -2.110  -0.869  -0.090  0.7080  1.1768 -0.1614
  739MOL0     H97525  -2.057  -0.983  -0.221 -2.1439  0.4356 -2.2105
  739MOL0     H97526  -2.145  -0.698  -0.294 -0.2427 -0.1439  1.2673
  739MOL0     H97527  -2.121  -0.841  -0.396 -1.6469  0.0362 -1.2797
  739MOL0     H97528  -2.377  -0.795  -0.338 -1.9965 -0.8434  1.4211
  739MOL0     H97529  -2.324  -0.856  -0.186  1.1473  0.4096  0.4186
  739MOL0     H97530  -1.432  -0.833   0.198  0.7634 -1.2072  0.4018
  739MOL0     H97531  -1.244  -0.877   0.341 -3.1123  1.6145  0.9885
  739MOL0     H97532  -0.659  -0.623   0.314  0.6118  1.0870  0.6751
  739MOL0     H97533  -0.464  -0.664   0.465 -0.4883  3.1142  0.2926
  739MOL0     H97534   0.337   0.339   1.464  0.1344  2.1210  1.2439
  739MOL0     H97535   0.569   0.323   1.395  1.4716  0.2873  0.8919
  739MOL0     H97536   1.040   0.349   1.708  2.0795 -0.9819  1.2448
  739MOL0     H97537   1.278   0.342   1.639  0.9140 -1.2133 -1.0565
  739MOL0     H97538   1.485   0.279   1.566 -3.2261  0.9275 -0.3636
  739MOL0     H97539   1.452   0.398   1.438 -2.8649 -0.7308  0.2465
  739MOL0     H97540   1.610   0.152   1.422  1.1259 -0.3533 -2.5056
  739MOL0     H97541   1.597   0.271   1.286 -0.2518  2.2070  0.3622
  739MOL0     H97542   1.716   0.311   1.560 -0.1472  0.0600 -0.3875
  739MOL0     H97543   1.702   0.437   1.444 -2.8963 -0.3949  2.1544
  739MOL0     H97544   1.840   0.160   1.408 -2.1275 -0.6931 -4.0553
  739MOL0     H97545   1.828   0.280   1.278 -1.9709 -3.7380 -0.5952
  739MOL0     H97546   2.134   0.418   1.556  0.8565 -1.5898 -0.8084
  739MOL0     H97547   1.162   0.102   1.296 -3.2821  2.6453 -3.8159
  739MOL0     H97548   0.939   0.126   1.351 -0.6319 -1.0727  1.1541
  740MOL0     O97549   0.782   7.775   3.290 -0.7853  0.1056  0.2937
  740MOL0     C97550   0.881   7.835   3.331  0.8051  0.0610  0.0898
  740MOL0     O97551   0.902   7.870   3.457  0.2385  0.1177  0.2445
  740MOL0     C97552   0.818   7.857   3.559  0.1750 -0.0879  0.2374
  740MOL0     C97553   0.878   7.867   3.685  0.3833  0.3216 -0.7283
  740MOL0     C97554   0.804   7.854   3.806  0.5887  1.1931 -0.2317
  740MOL0     C97555   0.666   7.844   3.806 -0.1730  0.9294 -0.0637
  740MOL0     O97556   0.600   7.814   3.926  0.3239 -0.4796  0.6411
  740MOL0     C97557   0.640   7.901   4.034  0.0761  0.1928  0.7981
  740MOL0     C97558   0.583   7.842   4.156  1.1120 -1.3203  0.2125
  740MOL0     C97559   0.604   7.923   4.283  0.0957 -0.9331  0.4285
  740MOL0     C97560   0.745   7.936   4.342  0.7505  0.5524 -0.6409
  740MOL0     C97561   0.734   8.050   4.452  0.2661 -0.2749 -0.8165
  740MOL0     C97562   0.869   8.071   4.514 -0.0641  0.5308  0.2508
  740MOL0     C97563   0.861   8.172   4.628 -0.0701  0.7472  0.4237
  740MOL0     C97564   0.834   8.316   4.581 -0.8082 -0.9540  0.2431
  740MOL0     N97565   0.835   8.430   4.677 -0.1590  0.0563  0.5728
  740MOL0     C97566   0.799   8.427   4.810 -0.8373  0.6866 -0.9170
  740MOL0     C97567   0.833   8.546   4.857  0.0736  0.6936 -0.8670
  740MOL0     C97568   0.787   8.601   4.989 -0.0920  0.1277 -0.2329
  740MOL0     C97569   0.632   8.614   4.993 -0.1179  0.0313  0.1575
  740MOL0     C97570   0.593   8.654   5.141  0.2028 -0.1316  0.7809
  740MOL0     C97571   0.442   8.666   5.166  0.4773 -0.0947  0.0958
  740MOL0     O97572   0.407   8.695   5.301 -0.0273  0.8115  0.0491
  740MOL0     C97573   0.273   8.722   5.330 -0.5218  0.5405 -0.0088
  740MOL0     C97574   0.246   8.753   5.463  0.3088  0.1782  0.3891
  740MOL0     C97575   0.117   8.785   5.500  0.2826 -0.3233  0.0442
  740MOL0     C97576   0.020   8.800   5.401  0.6707 -0.1685 -0.0208
  740MOL0     C97577  -0.122   8.835   5.434 -0.4496 -0.4197 -0.8403
  740MOL0     O97578  -0.152   8.909   5.542 -0.3008  0.9031  0.0233
  740MOL0     C97579  -0.282   8.930   5.576 -0.3544 -1.0099  0.6991
  740MOL0     C97580  -0.319   8.931   5.706  0.0192 -0.7071  0.7535
  740MOL0     C97581  -0.445   8.966   5.748 -0.0995 -0.7344 -0.0243
  740MOL0     C97582  -0.548   9.011   5.655 -0.2594 -0.7523 -1.5865
  740MOL0     O97583  -0.676   9.044   5.689  0.1324 -0.5164 -0.5003
  740MOL0     C97584  -0.718   9.023   5.825  0.2182 -0.5298  0.4176
  740MOL0     C97585  -0.861   9.057   5.828  0.6837 -0.4223  0.7940
  740MOL0     C97586  -0.912   9.108   5.961 -0.6243  0.0154  0.5093
  740MOL0     C97587  -1.057   9.141   5.954 -0.2781  0.5567  1.1296
  740MOL0     C97588  -1.126   9.166   6.093  0.0886 -0.6804 -0.0790
  740MOL0     C97589  -1.268   9.230   6.094  0.7004 -0.0752 -0.8703
  740MOL0     C97590  -1.372   9.141   6.010 -0.6045 -0.4105  0.0681
  740MOL0     C97591  -1.509   9.208   6.001  0.8447 -0.5906  0.5383
  740MOL0    Cl97592  -1.580   9.217   6.165  0.0747  0.6708 -0.0606
  740MOL0     C97593  -0.507   9.016   5.519 -0.0729  0.1938  0.3593
  740MOL0     C97594  -0.374   8.978   5.486 -0.2203 -0.3594 -0.2825
  740MOL0     O97595  -0.202   8.781   5.358  0.1754 -0.4281  0.0817
  740MOL0     C97596   0.057   8.796   5.265 -0.2417  0.4756 -0.1952
  740MOL0     C97597   0.181   8.745   5.228  0.6742  0.1879  0.0861
  740MOL0     N97598   0.906   8.607   4.763 -0.9505 -0.3471  0.2848
  740MOL0     N97599   0.910   8.541   4.653 -0.3742 -0.1768 -0.4439
  740MOL0     C97600   0.608   7.837   3.679 -0.2586 -0.0728 -0.0015
  740MOL0     C97601   0.675   7.847   3.557  0.2794  0.2439  0.0130
  740MOL0     C97602   0.991   7.882   3.237  0.7635 -0.1904  0.1546
  740MOL0     C97603   1.113   7.929   3.283 -0.5529 -0.1321  0.3789
  740MOL0     C97604   1.216   7.970   3.196 -0.5440 -0.6008 -0.0429
  740MOL0     C97605   1.190   7.976   3.059  0.6586  0.2740  0.2424
  740MOL0     O97606   1.282   8.009   2.958 -0.1179  0.2794 -0.2110
  740MOL0     C97607   1.419   8.021   2.990 -0.3038 -0.3590  0.4075
  740MOL0     C97608   1.489   8.046   2.856  0.6035  0.5613  0.1019
  740MOL0     C97609   1.644   8.065   2.867  0.0700  0.1148  0.7010
  740MOL0     C97610   1.694   8.138   2.738  0.8221  0.7099 -0.0536
  740MOL0     C97611   1.679   8.054   2.611 -0.4667 -0.9438 -0.4219
  740MOL0     C97612   1.656   7.999   2.511 -0.5745  0.3542  0.2517
  740MOL0     C97613   1.073   7.919   3.013 -0.4236  0.4324  0.2810
  740MOL0     C97614   0.975   7.876   3.102  0.3300  0.2842  0.3638
  740MOL0     H97615   0.983   7.886   3.702 -0.4510  2.0339  3.8617
  740MOL0     H97616   0.862   7.827   3.894  1.1758  0.1587 -0.9147
  740MOL0     H97617   0.600   8.002   4.021  0.1194  0.6764  3.7300
  740MOL0     H97618   0.748   7.895   4.049  0.4538  2.8352 -0.2365
  740MOL0     H97619   0.598   7.736   4.178  1.3817 -0.9881  1.7307
  740MOL0     H97620   0.476   7.856   4.135  1.9661  3.8582 -2.4410
  740MOL0     H97621   0.534   7.891   4.361 -3.0755  1.4169 -1.1820
  740MOL0     H97622   0.593   8.028   4.253  1.2581 -0.3852  1.8126
  740MOL0     H97623   0.784   7.843   4.386 -1.6018  1.4780  4.0876
  740MOL0     H97624   0.815   7.976   4.268 -0.3923  0.7290 -1.6612
  740MOL0     H97625   0.667   8.008   4.526 -1.8455  1.7110 -1.4877
  740MOL0     H97626   0.683   8.139   4.413  2.2727  0.6841 -1.3980
  740MOL0     H97627   0.927   8.117   4.434 -1.0068  2.3669  0.5655
  740MOL0     H97628   0.910   7.974   4.543  0.9779  1.0266  0.4675
  740MOL0     H97629   0.775   8.140   4.688  0.3883  1.6490  1.6009
  740MOL0     H97630   0.941   8.165   4.701 -0.5577 -1.8924  0.8002
  740MOL0     H97631   0.734   8.310   4.536 -1.5870  2.5903  1.1814
  740MOL0     H97632   0.908   8.343   4.506 -0.8564 -0.9159  0.2096
  740MOL0     H97633   0.749   8.346   4.861 -0.9905  0.1673 -1.8605
  740MOL0     H97634   0.830   8.702   4.985 -1.0473  0.5102 -1.6253
  740MOL0     H97635   0.846   8.553   5.067 -0.0369 -1.0814 -0.9914
  740MOL0     H97636   0.582   8.517   4.988 -2.8629  1.1392  2.6410
  740MOL0     H97637   0.602   8.685   4.916 -0.4855  0.5169  0.7369
  740MOL0     H97638   0.639   8.580   5.208 -0.8271 -2.3390 -0.8281
  740MOL0     H97639   0.625   8.757   5.162  0.0816  0.3977 -1.3972
  740MOL0     H97640   0.391   8.575   5.135 -0.5280  1.3446 -2.8767
  740MOL0     H97641   0.407   8.742   5.095 -0.8338 -0.5588  0.2227
  740MOL0     H97642   0.328   8.738   5.534  1.5554 -0.4539 -1.1202
  740MOL0     H97643   0.099   8.808   5.604 -1.1902  2.1129 -0.6585
  740MOL0     H97644  -0.252   8.900   5.786 -1.5904  0.4417  2.6638
  740MOL0     H97645  -0.462   8.962   5.855 -0.4635 -1.1213 -0.0916
  740MOL0     H97646  -0.676   9.098   5.893 -2.2225  0.8886  0.4866
  740MOL0     H97647  -0.703   8.919   5.856 -2.4398 -0.8892  0.7144
  740MOL0     H97648  -0.919   8.970   5.796 -1.3473  1.8043 -2.1435
  740MOL0     H97649  -0.884   9.130   5.749  1.3291 -0.6683  0.3720
  740MOL0     H97650  -0.851   9.186   6.007 -1.1748  0.1859  0.9697
  740MOL0     H97651  -0.914   9.024   6.031 -3.5063 -2.7133 -2.5053
  740MOL0     H97652  -1.064   9.229   5.889 -2.7271 -1.1298 -1.0750
  740MOL0     H97653  -1.110   9.057   5.909 -1.0507  1.9357 -0.6763
  740MOL0     H97654  -1.063   9.232   6.153 -2.7606  0.1472  2.2052
  740MOL0     H97655  -1.144   9.069   6.142  0.6718 -1.7167 -1.8196
  740MOL0     H97656  -1.265   9.323   6.035  1.1488  0.9259  0.6870
  740MOL0     H97657  -1.309   9.252   6.193 -4.6978  1.7605 -3.1157
  740MOL0     H97658  -1.324   9.126   5.913 -0.2327  2.2418 -0.2220
  740MOL0     H97659  -1.381   9.039   6.049  2.3178 -0.5379  0.5955
  740MOL0     H97660  -1.576   9.149   5.939  3.5269 -3.5072  0.2027
  740MOL0     H97661  -1.503   9.310   5.961 -2.2328 -0.5216 -0.0107
  740MOL0     H97662  -0.570   9.062   5.444 -1.4709 -0.8923  0.8327
  740MOL0     H97663  -0.349   9.003   5.383  0.3077  1.5830  0.2833
  740MOL0     H97664  -0.001   8.832   5.181 -1.2941 -0.6786 -0.0046
  740MOL0     H97665   0.210   8.747   5.124  0.3270  1.9274 -0.0170
  740MOL0     H97666   0.501   7.818   3.680 -0.4477  0.9202 -0.4612
  740MOL0     H97667   0.623   7.835   3.462  0.3484 -0.4987  0.0637
  740MOL0     H97668   1.135   7.938   3.389 -0.3961  1.6283  0.2225
  740MOL0     H97669   1.313   8.003   3.232  0.0219 -2.2117 -0.0221
  740MOL0     H97670   1.456   7.929   3.037 -1.2173  0.0940  2.0888
  740MOL0     H97671   1.434   8.106   3.057  0.4238  1.5385 -2.0225
  740MOL0     H97672   1.479   7.955   2.796 -1.6362 -0.7021  2.1934
  740MOL0     H97673   1.439   8.126   2.801 -0.0092 -0.3451 -0.7051
  740MOL0     H97674   1.688   7.966   2.885 -0.2466 -0.1619 -0.0153
  740MOL0     H97675   1.653   8.135   2.951  2.0679  2.5133 -1.3666
  740MOL0     H97676   1.642   8.232   2.721  2.0433  1.1933 -1.4069
  740MOL0     H97677   1.802   8.153   2.753  0.8198 -0.8510  2.0775
  740MOL0     H97678   1.640   7.953   2.415  0.2569  3.0042 -1.2752
  740MOL0     H97679   1.070   7.915   2.905  0.1668 -0.8904  0.3033
  740MOL0     H97680   0.890   7.825   3.059  2.0263 -1.6938 -0.8045
  741MOL0     O97681   5.862   1.582   0.375  0.0703  0.0349 -0.3862
  741MOL0     C97682   5.856   1.619   0.494 -0.6480 -0.0714  0.2127
  741MOL0     O97683   5.959   1.673   0.563 -0.7277  0.5992  0.1530
  741MOL0     C97684   6.094   1.685   0.528  0.0778 -0.0334 -1.0337
  741MOL0     C97685   6.186   1.735   0.621  0.0492 -0.2930 -0.7570
  741MOL0     C97686   6.318   1.770   0.582  0.7322  0.6585 -0.5207
  741MOL0     C97687   6.370   1.731   0.461 -0.0407 -0.5275 -0.6029
  741MOL0     O97688   6.500   1.766   0.417 -0.0310 -0.3982 -0.8272
  741MOL0     C97689   6.572   1.875   0.490 -0.4178  0.4395 -0.5184
  741MOL0     C97690   6.698   1.916   0.422  0.1342 -0.8492 -0.0034
  741MOL0     C97691   6.678   1.992   0.290 -1.1191 -0.3263  0.0411
  741MOL0     C97692   6.813   2.010   0.209 -0.5083  0.5630  0.2768
  741MOL0     C97693   6.790   2.104   0.093  0.2545 -0.4033 -0.2735
  741MOL0     C97694   6.735   2.035  -0.030 -0.6608 -0.5665 -0.8598
  741MOL0     C97695   6.694   2.145  -0.138  0.8132 -0.5924 -1.1611
  741MOL0     C97696   6.653   2.079  -0.266  0.3363 -0.6012 -0.6146
  741MOL0     N97697   6.645   2.172  -0.383 -0.2851 -0.1162 -0.4329
  741MOL0     C97698   6.561   2.275  -0.393  0.6137  0.6935 -0.0996
  741MOL0     C97699   6.584   2.334  -0.516 -0.4572  0.5548 -0.1413
  741MOL0     C97700   6.515   2.452  -0.587 -0.7001 -0.2596 -0.2190
  741MOL0     C97701   6.358   2.427  -0.602 -0.4245 -0.0264  0.0327
  741MOL0     C97702   6.296   2.575  -0.618 -0.2028  0.2727  0.9106
  741MOL0     C97703   6.141   2.592  -0.648 -0.7398  0.7484  0.3113
  741MOL0     O97704   6.096   2.495  -0.738  0.2870 -0.2776 -0.1034
  741MOL0     C97705   5.966   2.493  -0.776  0.6462 -0.3312  0.2882
  741MOL0     C97706   5.851   2.567  -0.729 -0.0572  0.2923  0.5721
  741MOL0     C97707   5.717   2.531  -0.767 -0.2772  0.1877  0.2589
  741MOL0     C97708   5.693   2.425  -0.850  0.5568  0.7995  0.1537
  741MOL0     C97709   5.560   2.392  -0.900  0.2164  0.0313  0.7581
  741MOL0     O97710   5.458   2.458  -0.852  0.0144  0.1351 -0.1940
  741MOL0     C97711   5.337   2.432  -0.918 -0.4123 -0.1200  0.0507
  741MOL0     C97712   5.315   2.462  -1.052 -0.5943 -0.5049  0.0309
  741MOL0     C97713   5.197   2.443  -1.117 -0.2765  0.0374  0.3387
  741MOL0     C97714   5.088   2.406  -1.039 -0.1747 -0.2168 -0.0422
  741MOL0     O97715   4.955   2.399  -1.078 -0.3729 -0.8436 -0.2284
  741MOL0     C97716   4.937   2.349  -1.212  0.5124 -0.0431  0.0792
  741MOL0     C97717   4.788   2.348  -1.257 -0.2490 -0.1438  0.2610
  741MOL0     C97718   4.707   2.246  -1.173 -0.4493 -0.3965 -0.0484
  741MOL0     C97719   4.560   2.269  -1.169  0.2565  0.2068 -0.6546
  741MOL0     C97720   4.488   2.139  -1.125 -0.2495 -0.2739  0.8127
  741MOL0     C97721   4.479   2.144  -0.963 -0.2437 -0.1850  0.8896
  741MOL0     C97722   4.432   2.013  -0.913  0.0357 -0.8299 -0.0151
  741MOL0     C97723   4.291   1.976  -0.956 -0.6755  0.0155  0.5984
  741MOL0    Cl97724   4.239   1.837  -0.871  0.3103 -0.2130  0.1816
  741MOL0     C97725   5.106   2.382  -0.899  0.3903  0.0325  0.5874
  741MOL0     C97726   5.229   2.400  -0.842 -0.2009  0.5839  0.4335
  741MOL0     O97727   5.555   2.291  -0.974  0.1623  0.2272 -0.1599
  741MOL0     C97728   5.807   2.348  -0.897 -0.2736 -0.1162 -0.0573
  741MOL0     C97729   5.935   2.388  -0.862  0.3481  0.5997 -0.0022
  741MOL0     N97730   6.695   2.264  -0.568 -0.2378 -0.9379 -0.1282
  741MOL0     N97731   6.727   2.166  -0.491  0.2848 -0.0593  0.8908
  741MOL0     C97732   6.285   1.666   0.377 -0.4987  0.2962  0.1286
  741MOL0     C97733   6.154   1.641   0.408  1.2012 -0.2781  0.3386
  741MOL0     C97734   5.734   1.592   0.573 -0.1638  0.2401 -0.6402
  741MOL0     C97735   5.702   1.665   0.694  0.2255  0.1952 -0.2492
  741MOL0     C97736   5.575   1.649   0.755 -0.1734 -0.4505  0.0006
  741MOL0     C97737   5.473   1.574   0.693  0.5084 -0.2305  0.5717
  741MOL0     O97738   5.353   1.564   0.760  0.2427 -0.5031 -0.9120
  741MOL0     C97739   5.258   1.474   0.718 -0.2891 -0.8495 -0.0092
  741MOL0     C97740   5.167   1.459   0.836  0.1560  0.8213  0.5215
  741MOL0     C97741   5.232   1.370   0.945  0.0515  1.0165  0.4339
  741MOL0     C97742   5.357   1.428   1.013  0.5902 -0.2239  0.3555
  741MOL0     C97743   5.374   1.367   1.149  0.4117  0.3234  0.3618
  741MOL0     C97744   5.364   1.314   1.260 -0.1317 -0.1411  0.3898
  741MOL0     C97745   5.506   1.503   0.575  0.2752 -1.0380 -0.0168
  741MOL0     C97746   5.633   1.510   0.511  0.4759 -0.3876 -0.1997
  741MOL0     H97747   6.149   1.741   0.723 -0.8686 -2.2386 -0.9388
  741MOL0     H97748   6.384   1.819   0.653 -0.0272  2.1075 -0.7775
  741MOL0     H97749   6.605   1.837   0.587 -1.5985 -2.8410 -1.2794
  741MOL0     H97750   6.506   1.958   0.515 -1.4516 -0.3253 -0.6435
  741MOL0     H97751   6.765   1.831   0.404  1.3622 -0.5414  2.6546
  741MOL0     H97752   6.747   1.985   0.491  0.7388 -0.5593 -0.7109
  741MOL0     H97753   6.645   2.093   0.315  1.2306  1.1658 -2.3129
  741MOL0     H97754   6.603   1.947   0.224  1.2782 -2.0556 -1.6944
  741MOL0     H97755   6.885   2.059   0.276 -0.3925 -0.1015  0.6480
  741MOL0     H97756   6.862   1.921   0.170  1.7483  2.3617 -1.2477
  741MOL0     H97757   6.888   2.141   0.063  1.1096 -1.6834  0.8052
  741MOL0     H97758   6.742   2.197   0.126 -0.5290 -1.4571  1.7645
  741MOL0     H97759   6.641   1.980  -0.020  1.0997 -4.9831 -4.6120
  741MOL0     H97760   6.810   1.964  -0.066 -0.2776 -0.6882  0.1524
  741MOL0     H97761   6.615   2.205  -0.091  0.7338 -0.9598 -0.8267
  741MOL0     H97762   6.775   2.218  -0.144 -0.5962  1.6564  3.0164
  741MOL0     H97763   6.561   2.021  -0.260  0.8879 -1.3326  2.5960
  741MOL0     H97764   6.736   2.010  -0.284 -0.0365 -1.6547  1.3715
  741MOL0     H97765   6.484   2.295  -0.320  1.0154  1.5788  0.0856
  741MOL0     H97766   6.559   2.458  -0.686  0.4861 -1.3005  0.2184
  741MOL0     H97767   6.539   2.541  -0.528  0.9850 -1.7846  1.5314
  741MOL0     H97768   6.325   2.375  -0.512  1.4468 -0.4691  0.5001
  741MOL0     H97769   6.339   2.368  -0.692 -0.7690 -0.9991  0.7274
  741MOL0     H97770   6.318   2.635  -0.530 -0.6908 -0.1307  1.3117
  741MOL0     H97771   6.343   2.621  -0.705 -2.7709  3.2163  0.9206
  741MOL0     H97772   6.120   2.689  -0.694 -0.5336  0.1758 -1.0281
  741MOL0     H97773   6.080   2.593  -0.557  1.2685 -2.2136  1.8542
  741MOL0     H97774   5.872   2.663  -0.682  3.6299 -0.1168  0.0235
  741MOL0     H97775   5.641   2.598  -0.728 -0.2564  0.6804 -0.5298
  741MOL0     H97776   5.398   2.507  -1.106  1.1868 -1.0526  2.1654
  741MOL0     H97777   5.185   2.464  -1.223  0.9824 -0.1269  0.1515
  741MOL0     H97778   4.974   2.248  -1.225 -1.9426 -0.8580 -1.1642
  741MOL0     H97779   4.978   2.417  -1.287  0.1310  1.1096  0.8717
  741MOL0     H97780   4.768   2.317  -1.360 -3.3434 -0.6700  0.9243
  741MOL0     H97781   4.742   2.445  -1.235 -1.9650 -0.6208 -0.9942
  741MOL0     H97782   4.748   2.252  -1.071 -0.3295 -0.9791 -0.0588
  741MOL0     H97783   4.728   2.145  -1.210 -0.8612  0.2484 -2.1553
  741MOL0     H97784   4.534   2.355  -1.106 -1.0404 -1.9667  2.0176
  741MOL0     H97785   4.526   2.292  -1.270 -2.0792  0.8391  0.2055
  741MOL0     H97786   4.531   2.052  -1.176 -2.3253 -1.4682  0.9834
  741MOL0     H97787   4.385   2.139  -1.161  0.7368  0.1724 -2.3612
  741MOL0     H97788   4.397   2.212  -0.939  0.4546 -0.0737  3.1957
  741MOL0     H97789   4.570   2.184  -0.918  1.8708  0.5187 -3.4755
  741MOL0     H97790   4.501   1.932  -0.939 -0.0476 -0.6339 -0.8709
  741MOL0     H97791   4.432   2.020  -0.804 -0.4071 -3.5938  0.2555
  741MOL0     H97792   4.288   1.955  -1.064 -1.0421  2.3797  0.1069
  741MOL0     H97793   4.224   2.061  -0.942  0.3904  1.7379 -3.3059
  741MOL0     H97794   5.016   2.352  -0.847 -0.3716 -2.8979 -2.1099
  741MOL0     H97795   5.246   2.381  -0.736  1.0611 -0.8726  0.0051
  741MOL0     H97796   5.792   2.267  -0.968  2.3843 -0.5850 -0.1781
  741MOL0     H97797   6.022   2.339  -0.905  0.5962  0.3767  0.7293
  741MOL0     H97798   6.322   1.655   0.275  0.6130  2.5610  0.2115
  741MOL0     H97799   6.104   1.605   0.318  0.2480  0.8355  0.3945
  741MOL0     H97800   5.775   1.721   0.751  1.3622 -1.9696  0.5267
  741MOL0     H97801   5.562   1.703   0.848  1.3004  1.1307 -0.6429
  741MOL0     H97802   5.306   1.379   0.693  0.1696 -0.3997 -0.9050
  741MOL0     H97803   5.212   1.515   0.627  0.9284 -0.1131 -0.3169
  741MOL0     H97804   5.136   1.560   0.865  0.6919  0.4773  2.4673
  741MOL0     H97805   5.075   1.412   0.799  1.1030 -2.1812  1.6236
  741MOL0     H97806   5.250   1.267   0.914  1.7023  1.6863 -1.0163
  741MOL0     H97807   5.154   1.362   1.022  0.6655  0.0774  0.9748
  741MOL0     H97808   5.446   1.399   0.956 -0.1136  0.4999 -1.1457
  741MOL0     H97809   5.351   1.537   1.020 -3.1078 -0.3560  0.8936
  741MOL0     H97810   5.364   1.263   1.355  2.9471  0.1474  0.6272
  741MOL0     H97811   5.428   1.443   0.527 -0.3302  0.5533 -1.1093
  741MOL0     H97812   5.649   1.458   0.418 -1.0050 -2.6467  0.7241
  742MOL0     O97813   9.872   8.430   4.706 -0.1781 -0.0372 -0.2686
  742MOL0     C97814   9.901   8.342   4.789 -0.7989  0.6181 -0.2526
  742MOL0     O97815   9.815   8.281   4.868 -0.5249  0.3240  0.4621
  742MOL0     C97816   9.684   8.308   4.868  0.6653  0.5010 -0.6098
  742MOL0     C97817   9.633   8.438   4.870  0.7142 -0.7698  0.0315
  742MOL0     C97818   9.497   8.467   4.879  0.7312  0.1945  0.4503
  742MOL0     C97819   9.401   8.367   4.900 -0.2142  0.0483  0.2480
  742MOL0     O97820   9.268   8.396   4.884 -0.2049 -0.5029 -0.7830
  742MOL0     C97821   9.175   8.316   4.962  0.0525  0.5726  0.1307
  742MOL0     C97822   9.191   8.310   5.114 -0.9539  0.1682 -0.0621
  742MOL0     C97823   9.132   8.437   5.183  0.0457  0.9485  0.3767
  742MOL0     C97824   9.216   8.561   5.171  0.1358  0.8143 -0.0679
  742MOL0     C97825   9.137   8.685   5.235 -0.0095 -0.3279  0.7142
  742MOL0     C97826   9.155   8.693   5.391  0.4492  0.5468  0.7032
  742MOL0     C97827   9.122   8.835   5.442 -0.4249 -0.1169 -0.3069
  742MOL0     C97828   9.136   8.842   5.596  0.6981  0.7737 -0.2154
  742MOL0     N97829   9.103   8.967   5.653 -0.2207  0.5508  0.0039
  742MOL0     C97830   9.177   9.042   5.742  0.4639  0.0781 -0.1267
  742MOL0     C97831   9.095   9.151   5.781  0.2016  0.6091  0.1746
  742MOL0     C97832   9.127   9.261   5.885 -0.0289 -0.0864 -0.0463
  742MOL0     C97833   9.144   9.181   6.014  0.8719 -0.1704 -0.3307
  742MOL0     C97834   9.214   9.260   6.127  0.0626 -0.4571 -0.3773
  742MOL0     C97835   9.204   9.201   6.271 -0.0572 -0.3716  0.4885
  742MOL0     O97836   9.179   9.307   6.370 -0.7928  0.3892 -0.2465
  742MOL0     C97837   9.078   9.305   6.451 -0.1869  0.8623 -0.1867
  742MOL0     C97838   9.087   9.386   6.565 -0.0964 -0.5781 -0.0865
  742MOL0     C97839   8.981   9.406   6.647 -0.0013 -1.3098 -0.0097
  742MOL0     C97840   8.854   9.341   6.627  0.2553 -0.3479 -0.4393
  742MOL0     C97841   8.733   9.361   6.713 -0.2840  0.5153  0.1470
  742MOL0     O97842   8.609   9.322   6.662  0.7823  0.2257  0.0948
  742MOL0     C97843   8.504   9.378   6.730  0.4131  0.0953  0.2826
  742MOL0     C97844   8.456   9.318   6.852 -0.3184 -0.7683 -0.0442
  742MOL0     C97845   8.342   9.373   6.913  0.3846  0.5867  0.4700
  742MOL0     C97846   8.273   9.484   6.858  0.0350  0.3903  0.2551
  742MOL0     O97847   8.167   9.549   6.909  0.0130  0.8599 -0.3783
  742MOL0     C97848   8.118   9.508   7.035  0.3819  0.4692 -0.4591
  742MOL0     C97849   8.022   9.619   7.097  0.8444  0.3495  0.7157
  742MOL0     C97850   7.908   9.658   7.007 -0.3608  0.0502  0.2547
  742MOL0     C97851   7.795   9.549   7.013 -0.4100 -0.0392 -0.1946
  742MOL0     C97852   7.666   9.574   6.938  0.0639 -0.0262  0.0829
  742MOL0     C97853   7.589   9.690   7.004  0.1675 -0.1560  0.3448
  742MOL0     C97854   7.449   9.691   6.938  0.4756  0.1617 -0.0057
  742MOL0     C97855   7.403   9.836   6.918  0.3255 -0.1501  0.4756
  742MOL0    Cl97856   7.334   9.892   7.071  0.0693  0.1508 -0.4441
  742MOL0     C97857   8.317   9.535   6.739 -0.2992 -0.2158  0.0291
  742MOL0     C97858   8.428   9.487   6.669  0.5672 -0.1318  0.2325
  742MOL0     O97859   8.760   9.418   6.814  0.8985 -0.2465 -0.8833
  742MOL0     C97860   8.849   9.259   6.512 -0.1775 -0.4882 -0.4187
  742MOL0     C97861   8.958   9.243   6.429  0.2377  0.4426  0.5056
  742MOL0     N97862   8.969   9.126   5.720 -0.1105  0.0202  0.3704
  742MOL0     N97863   8.973   9.019   5.652  0.2859  1.3504 -0.0585
  742MOL0     C97864   9.455   8.236   4.920 -0.4544  0.2001 -0.0006
  742MOL0     C97865   9.595   8.202   4.901  0.4807 -0.4745  0.9135
  742MOL0     C97866  10.035   8.284   4.768 -0.2180 -0.1686 -0.3667
  742MOL0     C97867  10.099   8.226   4.883 -0.3918  0.2580  1.1681
  742MOL0     C97868  10.231   8.192   4.868 -0.0187 -0.3984  0.4984
  742MOL0     C97869  10.306   8.218   4.753  0.1076  0.1055 -0.3363
  742MOL0     O97870  10.434   8.186   4.768  0.0676  0.0589 -0.4120
  742MOL0     C97871  10.504   8.143   4.656 -0.1006 -0.3115 -0.0955
  742MOL0     C97872  10.641   8.080   4.693  0.4164 -0.3145 -0.2899
  742MOL0     C97873  10.733   8.045   4.574  0.0708  0.1725  0.0549
  742MOL0     C97874  10.858   7.961   4.607 -0.5878  0.4083  0.1749
  742MOL0     C97875  10.921   7.900   4.489 -0.1636 -0.7314  0.1491
  742MOL0     C97876  10.978   7.852   4.392  0.0743  0.2846  0.2912
  742MOL0     C97877  10.236   8.262   4.642  0.3249 -0.5987 -0.1268
  742MOL0     C97878  10.102   8.288   4.650 -0.9704 -0.2364  0.6948
  742MOL0     H97879   9.698   8.525   4.871  0.5326 -0.6003  2.4230
  742MOL0     H97880   9.446   8.563   4.867 -1.6136 -0.8630  1.3126
  742MOL0     H97881   9.179   8.213   4.926 -0.4814  1.0914 -1.5417
  742MOL0     H97882   9.074   8.357   4.946 -0.1745  1.1334  2.5423
  742MOL0     H97883   9.299   8.304   5.129 -1.0997  0.2412  1.1077
  742MOL0     H97884   9.157   8.214   5.153  0.1778  0.2761  1.2477
  742MOL0     H97885   9.125   8.409   5.288 -3.9109  2.2350  0.6303
  742MOL0     H97886   9.029   8.442   5.147  0.3923 -1.8269 -1.3452
  742MOL0     H97887   9.313   8.552   5.220  0.3773  1.6125 -0.3730
  742MOL0     H97888   9.238   8.579   5.065  2.4034  2.5571  0.5901
  742MOL0     H97889   9.029   8.677   5.219  0.0346  1.6885 -1.0631
  742MOL0     H97890   9.164   8.781   5.190 -1.3410 -0.1184  0.3130
  742MOL0     H97891   9.258   8.665   5.419 -0.1929 -0.1461  2.5557
  742MOL0     H97892   9.083   8.622   5.433 -1.5076  0.8188 -1.9451
  742MOL0     H97893   9.198   8.897   5.393 -1.5629 -0.8750 -3.2300
  742MOL0     H97894   9.019   8.865   5.421 -0.8840 -1.9636 -0.8910
  742MOL0     H97895   9.236   8.812   5.629  2.0574  3.2522 -1.7514
  742MOL0     H97896   9.070   8.773   5.649  0.1295  1.2054 -0.3581
  742MOL0     H97897   9.279   9.018   5.769  0.7262  0.4366 -0.7742
  742MOL0     H97898   9.051   9.340   5.894  0.3338  0.7418 -2.9647
  742MOL0     H97899   9.221   9.309   5.856 -0.1826 -0.8902 -2.0664
  742MOL0     H97900   9.217   9.102   5.994  0.2992 -0.8875  0.3105
  742MOL0     H97901   9.046   9.140   6.044  1.5396 -2.2061 -0.7575
  742MOL0     H97902   9.312   9.274   6.081  0.7925 -0.3323  1.1820
  742MOL0     H97903   9.164   9.358   6.132  0.8669 -0.0074 -0.9854
  742MOL0     H97904   9.306   9.166   6.289 -0.3015 -0.2472  2.2359
  742MOL0     H97905   9.140   9.113   6.281  0.1707 -0.3519  2.4942
  742MOL0     H97906   9.169   9.456   6.578  0.4901 -1.4259  0.9153
  742MOL0     H97907   8.983   9.475   6.731  1.3552 -3.0187  1.4470
  742MOL0     H97908   8.511   9.232   6.889  0.2779 -0.7717 -0.9124
  742MOL0     H97909   8.324   9.325   7.009  1.1205  0.8750  0.7661
  742MOL0     H97910   8.201   9.481   7.100 -0.2640 -0.0543  0.1471
  742MOL0     H97911   8.053   9.421   7.020 -0.8138  0.9722  1.5280
  742MOL0     H97912   8.088   9.706   7.091 -3.5392  3.9125 -2.2707
  742MOL0     H97913   7.984   9.601   7.198  0.2883 -3.2034  0.0005
  742MOL0     H97914   7.934   9.681   6.903  1.6377  1.1288  0.9413
  742MOL0     H97915   7.865   9.753   7.042  1.0764  0.5301  0.7813
  742MOL0     H97916   7.825   9.452   6.971 -2.6178 -0.9667  0.2063
  742MOL0     H97917   7.775   9.534   7.120  1.7275  0.8785  0.3936
  742MOL0     H97918   7.611   9.480   6.941 -0.2846  0.0854 -1.7697
  742MOL0     H97919   7.690   9.591   6.832  1.8361  1.4453  0.6692
  742MOL0     H97920   7.645   9.783   6.998  0.4428 -0.2350  1.4552
  742MOL0     H97921   7.594   9.681   7.113  0.9341 -0.9223  0.2547
  742MOL0     H97922   7.446   9.634   6.845 -0.1526 -0.4832  0.3970
  742MOL0     H97923   7.381   9.643   7.009 -0.4451  0.0703 -0.9158
  742MOL0     H97924   7.333   9.836   6.834 -0.5936  3.9748  1.0298
  742MOL0     H97925   7.486   9.891   6.873  0.2183  1.0261  1.6532
  742MOL0     H97926   8.271   9.623   6.693 -0.3939 -0.6456 -0.7207
  742MOL0     H97927   8.465   9.533   6.578 -0.4380 -0.3570 -0.3127
  742MOL0     H97928   8.755   9.225   6.469 -0.1939 -1.0037  0.0191
  742MOL0     H97929   8.951   9.186   6.338  0.4384  1.4942 -0.1920
  742MOL0     H97930   9.387   8.160   4.955  0.3083 -0.7292 -0.4997
  742MOL0     H97931   9.623   8.098   4.919  1.3704 -0.1557  1.4262
  742MOL0     H97932  10.046   8.202   4.975  1.9815 -1.1703  2.2576
  742MOL0     H97933  10.279   8.156   4.959  1.5315  0.3089 -0.0118
  742MOL0     H97934  10.504   8.222   4.580 -2.7046  1.1758  1.3022
  742MOL0     H97935  10.442   8.067   4.608 -2.1105  2.2849 -1.9697
  742MOL0     H97936  10.692   8.155   4.755  4.0279 -0.7877 -2.3966
  742MOL0     H97937  10.618   7.984   4.738  0.4737 -0.6360 -0.9422
  742MOL0     H97938  10.773   8.136   4.529 -0.6661  1.1443  1.2963
  742MOL0     H97939  10.665   7.997   4.503  0.8840 -1.2132  0.1586
  742MOL0     H97940  10.929   8.027   4.659 -1.0978  0.2634  1.0788
  742MOL0     H97941  10.832   7.880   4.676  1.6619 -0.5950 -0.0904
  742MOL0     H97942  11.040   7.813   4.313  1.8472 -1.2263  2.2966
  742MOL0     H97943  10.284   8.281   4.547 -0.8981 -2.3648 -1.1554
  742MOL0     H97944  10.057   8.322   4.557 -1.3799 -0.2442  0.8899
  743MOL0     O97945   2.938   7.633  10.221  0.4165  0.0916  0.5822
  743MOL0     C97946   3.031   7.562  10.218  0.2399  1.0805  0.3478
  743MOL0     O97947   3.043   7.441  10.290  1.0214  0.2658 -0.2940
  743MOL0     C97948   2.938   7.405  10.370 -0.9174 -0.1081  0.4038
  743MOL0     C97949   2.807   7.379  10.324 -0.2638  0.1039  1.3713
  743MOL0     C97950   2.712   7.345  10.418 -0.4099  0.2996  0.2222
  743MOL0     C97951   2.737   7.339  10.553 -0.2257  0.6185 -0.6680
  743MOL0     O97952   2.630   7.311  10.636 -0.1023  0.5355 -0.0518
  743MOL0     C97953   2.620   7.370  10.764 -0.7567  0.1133 -0.2821
  743MOL0     C97954   2.476   7.366  10.800 -0.1500  0.3172 -0.4635
  743MOL0     C97955   2.461   7.415  10.943 -0.0422 -0.2596 -0.3073
  743MOL0     C97956   2.300   7.437  10.976 -1.1808 -0.5235 -0.4820
  743MOL0     C97957   2.265   7.495  11.114 -0.6716  0.6337 -0.8400
  743MOL0     C97958   2.111   7.511  11.130  0.7646  0.4076 -1.0232
  743MOL0     C97959   2.074   7.522  11.286 -0.4921  0.1187 -0.3586
  743MOL0     C97960   2.157   7.630  11.364  0.3086  0.4755  0.0823
  743MOL0     N97961   2.108   7.659  11.500  0.6511 -0.8896  0.3551
  743MOL0     C97962   1.978   7.678  11.531 -0.2202 -0.0203 -0.0363
  743MOL0     C97963   1.984   7.690  11.661  0.7092 -0.1125 -0.3314
  743MOL0     C97964   1.860   7.685  11.753 -0.2949  0.1325 -0.1051
  743MOL0     C97965   1.725   7.665  11.681  0.2092  0.2081  0.5456
  743MOL0     C97966   1.617   7.647  11.784  0.0266  0.4879  0.4281
  743MOL0     C97967   1.471   7.632  11.729  0.2305 -0.0383 -0.5790
  743MOL0     O97968   1.393   7.627  11.853  0.0217  0.3608  0.0960
  743MOL0     C97969   1.331   7.508  11.885 -0.4797  0.0613  0.7418
  743MOL0     C97970   1.390   7.387  11.839  0.3479  0.0517  0.1130
  743MOL0     C97971   1.332   7.262  11.864 -0.0105  0.0908 -0.0147
  743MOL0     C97972   1.213   7.248  11.937  0.4746  0.1258 -0.7138
  743MOL0     C97973   1.156   7.118  11.973  0.9809  0.5170 -0.3415
  743MOL0     O97974   1.225   7.002  11.934 -0.3349  0.6437 -0.2637
  743MOL0     C97975   1.162   6.878  11.932  0.3983  0.0359 -0.9554
  743MOL0     C97976   1.075   6.834  12.036 -0.4301 -0.3380  0.5962
  743MOL0     C97977   0.999   6.719  12.017 -0.1294  0.0667 -0.0570
  743MOL0     C97978   1.021   6.629  11.907  0.0925 -0.2985 -0.6807
  743MOL0     O97979   0.936   6.521  11.889  0.5542  0.0547  0.2254
  743MOL0     C97980   0.973   6.417  11.810 -0.1030 -0.6292  0.1101
  743MOL0     C97981   0.897   6.294  11.842  0.3351 -0.0954 -0.4181
  743MOL0     C97982   0.938   6.175  11.765  0.4950 -0.9373 -0.3141
  743MOL0     C97983   0.840   6.060  11.794  0.1726  0.2990 -0.1379
  743MOL0     C97984   0.874   5.928  11.735 -0.4661  0.2263 -0.4899
  743MOL0     C97985   0.761   5.823  11.724 -0.2996 -0.3972  0.2303
  743MOL0     C97986   0.801   5.688  11.677 -0.5683 -0.4194  0.4175
  743MOL0     C97987   0.855   5.587  11.785 -0.2417 -0.5919  0.2401
  743MOL0    Cl97988   0.739   5.571  11.926 -0.1732  0.1301  0.0704
  743MOL0     C97989   1.117   6.673  11.807 -0.6908  0.9077 -0.0169
  743MOL0     C97990   1.183   6.795  11.818 -0.5466  0.6058  0.2909
  743MOL0     O97991   1.041   7.120  12.022 -0.1153 -0.2524 -0.5928
  743MOL0     C97992   1.157   7.369  11.976 -0.1399  0.0444  0.0075
  743MOL0     C97993   1.216   7.492  11.956  0.4675  0.0112 -0.0167
  743MOL0     N97994   2.112   7.696  11.710 -0.5313 -0.2352  0.3472
  743MOL0     N97995   2.178   7.664  11.612 -0.3479  0.4192 -0.6324
  743MOL0     C97996   2.866   7.377  10.601  0.1992  1.0637  0.4196
  743MOL0     C97997   2.962   7.407  10.508 -0.8092 -0.4619 -0.7019
  743MOL0     C97998   3.137   7.588  10.116 -0.7756 -0.8928 -0.2280
  743MOL0     C97999   3.241   7.502  10.085 -0.4584  0.0463 -0.0776
  743MOL0     C98000   3.350   7.525  10.008 -0.8885  0.3781 -0.2815
  743MOL0     C98001   3.363   7.648   9.950  0.2136 -0.1275 -0.3663
  743MOL0     O98002   3.463   7.680   9.857 -0.0997  0.3434 -0.4400
  743MOL0     C98003   3.549   7.573   9.812  0.5187  0.2058 -0.4540
  743MOL0     C98004   3.661   7.616   9.719  0.1934 -0.1060 -0.7269
  743MOL0     C98005   3.743   7.730   9.777  0.4109  0.7020 -0.6667
  743MOL0     C98006   3.800   7.708   9.916 -0.9024 -0.6978  0.2880
  743MOL0     C98007   3.873   7.580   9.925  0.0972  0.4946 -0.2117
  743MOL0     C98008   3.922   7.470   9.926 -0.4330  0.2626 -1.4834
  743MOL0     C98009   3.256   7.737   9.965 -0.5008 -0.1423  1.1720
  743MOL0     C98010   3.139   7.710  10.045 -0.1268  0.4247  0.0526
  743MOL0     H98011   2.781   7.379  10.218 -1.3035  1.6627  1.5986
  743MOL0     H98012   2.609   7.324  10.392 -0.9487  0.3463  2.1338
  743MOL0     H98013   2.640   7.478  10.771 -1.8573  0.2572  0.9331
  743MOL0     H98014   2.681   7.310  10.832  0.6253  4.6464  2.9972
  743MOL0     H98015   2.446   7.262  10.783 -0.7019  0.2338  0.8844
  743MOL0     H98016   2.408   7.426  10.739 -2.7469 -1.3211  0.6621
  743MOL0     H98017   2.522   7.504  10.960  0.6002 -0.7247 -0.1678
  743MOL0     H98018   2.504   7.334  11.003  3.0715 -1.1611 -3.4638
  743MOL0     H98019   2.260   7.498  10.894 -0.3674  0.0672 -0.4490
  743MOL0     H98020   2.260   7.336  10.965  0.2008 -1.1065 -0.3437
  743MOL0     H98021   2.318   7.589  11.134 -4.0577  2.4111  0.4972
  743MOL0     H98022   2.299   7.423  11.189  2.1712  1.6129 -1.0528
  743MOL0     H98023   2.071   7.417  11.091  0.6893 -0.7742  1.6697
  743MOL0     H98024   2.074   7.594  11.069  1.8569 -0.5008 -3.0097
  743MOL0     H98025   1.970   7.556  11.290 -0.0720  1.4824 -0.5110
  743MOL0     H98026   2.086   7.422  11.328  1.6663 -0.1418 -1.4693
  743MOL0     H98027   2.147   7.722  11.306 -4.6416  0.2653  0.1650
  743MOL0     H98028   2.264   7.614  11.374  0.1359  0.3584  1.9755
  743MOL0     H98029   1.887   7.668  11.472 -0.7931 -1.9327  1.0803
  743MOL0     H98030   1.862   7.775  11.814  0.2081 -0.9808  1.6081
  743MOL0     H98031   1.880   7.596  11.814  2.3231 -0.0810 -1.1362
  743MOL0     H98032   1.727   7.580  11.612 -0.0680  1.1627 -0.6579
  743MOL0     H98033   1.710   7.751  11.615  2.2556  0.5226  0.4494
  743MOL0     H98034   1.640   7.560  11.846 -2.3262 -0.8338 -0.4252
  743MOL0     H98035   1.617   7.742  11.838  1.8856  0.3007  0.8133
  743MOL0     H98036   1.457   7.546  11.663  3.0414 -3.1574  2.5285
  743MOL0     H98037   1.446   7.719  11.667 -0.1893  0.1577 -0.1428
  743MOL0     H98038   1.488   7.371  11.795 -0.4018 -3.8282 -0.5055
  743MOL0     H98039   1.383   7.173  11.830 -0.1934 -1.1552  2.6831
  743MOL0     H98040   1.059   6.889  12.128  0.2209 -0.6855  0.9215
  743MOL0     H98041   0.931   6.690  12.097 -1.1106  3.2246  0.4092
  743MOL0     H98042   1.080   6.398  11.820  0.3422  0.3366 -2.1526
  743MOL0     H98043   0.954   6.441  11.705 -0.3437  0.1528  0.3281
  743MOL0     H98044   0.792   6.307  11.814 -0.5309 -0.4733  2.3302
  743MOL0     H98045   0.893   6.266  11.948  0.8681 -1.8906 -0.8414
  743MOL0     H98046   1.038   6.148  11.800  0.5966  0.1367  0.2496
  743MOL0     H98047   0.939   6.194  11.657 -1.7806 -1.9866 -0.5688
  743MOL0     H98048   0.825   6.050  11.902  2.3561 -1.7866  0.0610
  743MOL0     H98049   0.746   6.095  11.751  0.6075 -0.0499 -1.4206
  743MOL0     H98050   0.954   5.877  11.789  0.8895  4.8069  2.3961
  743MOL0     H98051   0.908   5.948  11.632 -0.1875 -0.0768 -0.4576
  743MOL0     H98052   0.689   5.866  11.653 -0.4096  4.1262  2.6747
  743MOL0     H98053   0.718   5.816  11.824  0.6991 -2.5075  0.5581
  743MOL0     H98054   0.716   5.652  11.618 -2.2971  2.0571  1.2597
  743MOL0     H98055   0.876   5.700  11.598 -1.3905  0.0953 -0.2992
  743MOL0     H98056   0.947   5.629  11.825 -0.9693 -0.0839  1.4193
  743MOL0     H98057   0.883   5.487  11.750  1.0995 -0.7024  1.5386
  743MOL0     H98058   1.159   6.617  11.724 -0.6649 -1.4199  1.4528
  743MOL0     H98059   1.252   6.828  11.740  1.6748 -1.1212  1.4142
  743MOL0     H98060   1.054   7.364  12.010  0.2844 -0.1777  1.2761
  743MOL0     H98061   1.162   7.583  11.983 -1.0325 -1.0443  0.6807
  743MOL0     H98062   2.891   7.351  10.703  2.3286  0.0524 -0.3129
  743MOL0     H98063   3.057   7.446  10.543 -1.0130  1.4713 -2.1625
  743MOL0     H98064   3.229   7.405  10.132  0.2414  0.8967  1.9870
  743MOL0     H98065   3.426   7.447  10.009  0.0243  1.1436  2.7771
  743MOL0     H98066   3.492   7.503   9.751 -1.7421  0.8696  0.7833
  743MOL0     H98067   3.586   7.520   9.901 -0.4561  2.1503  1.1881
  743MOL0     H98068   3.731   7.534   9.701 -1.0518 -1.0907 -1.2871
  743MOL0     H98069   3.603   7.643   9.630 -1.3630  0.9910  0.5776
  743MOL0     H98070   3.689   7.825   9.769 -0.7308 -0.0136 -1.9054
  743MOL0     H98071   3.830   7.741   9.711  1.7205  0.5074  0.9589
  743MOL0     H98072   3.861   7.792   9.950  0.1710 -0.9412 -0.9353
  743MOL0     H98073   3.709   7.706   9.976 -2.1018  0.4671 -1.4090
  743MOL0     H98074   3.973   7.376   9.922  0.4010  0.5783  0.4771
  743MOL0     H98075   3.244   7.836   9.922 -0.6518 -0.9386 -0.7234
  743MOL0     H98076   3.057   7.779  10.056 -2.0241 -2.0117  2.2657
  744MOL0     O98077   9.393   9.078   0.688 -0.2595 -0.5887  0.5112
  744MOL0     C98078   9.368   9.163   0.601 -0.4502 -1.1899  0.3565
  744MOL0     O98079   9.246   9.216   0.574  0.0810  0.2853  1.0387
  744MOL0     C98080   9.141   9.155   0.630 -0.0509 -0.2935  0.2232
  744MOL0     C98081   9.051   9.243   0.681 -0.2161 -0.4154  0.1044
  744MOL0     C98082   8.921   9.205   0.720 -1.2290  0.4479  0.1471
  744MOL0     C98083   8.878   9.063   0.714 -0.9657 -0.4269 -0.1714
  744MOL0     O98084   8.749   9.017   0.755 -0.0087 -0.3608 -0.5214
  744MOL0     C98085   8.641   9.119   0.743  0.1853  0.1887 -0.1772
  744MOL0     C98086   8.520   9.028   0.763  0.1573 -0.1251 -0.4499
  744MOL0     C98087   8.381   9.093   0.718 -0.5726 -0.6544 -0.1328
  744MOL0     C98088   8.265   9.001   0.766 -0.7222  0.4913  0.1871
  744MOL0     C98089   8.144   9.031   0.677  0.2600  0.9773 -0.5222
  744MOL0     C98090   8.018   9.068   0.752 -0.8495  0.0150 -0.0231
  744MOL0     C98091   7.914   9.134   0.665 -0.2685  0.1773  0.4340
  744MOL0     C98092   7.869   9.060   0.540 -0.4481  0.3629 -0.6343
  744MOL0     N98093   7.755   9.125   0.480  0.0181  0.3176 -0.0955
  744MOL0     C98094   7.664   9.055   0.391 -0.3275 -0.0731 -0.3784
  744MOL0     C98095   7.567   9.147   0.377 -0.0705 -0.8762  0.5281
  744MOL0     C98096   7.445   9.131   0.285 -0.6703 -0.0349 -0.2374
  744MOL0     C98097   7.482   9.131   0.138 -0.3078 -0.3529 -0.5377
  744MOL0     C98098   7.561   9.265   0.099 -0.1949  0.5047 -0.7803
  744MOL0     C98099   7.614   9.283  -0.042 -0.8453  0.6992 -0.1869
  744MOL0     O98100   7.688   9.161  -0.074 -0.7281  0.1517  0.0274
  744MOL0     C98101   7.809   9.145  -0.015  0.3399  0.8577  1.1253
  744MOL0     C98102   7.831   9.030   0.065 -0.3349  0.2329 -0.2252
  744MOL0     C98103   7.950   9.017   0.137 -0.5937  0.0413 -0.8322
  744MOL0     C98104   8.054   9.111   0.113  0.3656 -0.6870 -0.0961
  744MOL0     C98105   8.184   9.109   0.181 -0.7864  0.3716  0.0722
  744MOL0     O98106   8.293   9.152   0.104  1.0401  0.0001 -0.8757
  744MOL0     C98107   8.419   9.133   0.151 -0.6148 -0.5823  0.4363
  744MOL0     C98108   8.468   9.098   0.280 -0.2737 -0.2329  0.2032
  744MOL0     C98109   8.606   9.091   0.302 -0.5372  0.4448 -0.5783
  744MOL0     C98110   8.696   9.109   0.201  0.4106 -0.9832 -0.2101
  744MOL0     O98111   8.823   9.101   0.252 -1.0725  0.7763 -0.3896
  744MOL0     C98112   8.934   9.128   0.164 -0.0766 -0.6649  0.0683
  744MOL0     C98113   9.058   9.117   0.246 -0.2843 -0.4501  0.1542
  744MOL0     C98114   9.173   9.173   0.163 -0.6115 -0.8849  0.5964
  744MOL0     C98115   9.306   9.107   0.198 -0.2759 -1.3032 -0.1712
  744MOL0     C98116   9.418   9.160   0.104 -0.1869 -0.1573  0.7566
  744MOL0     C98117   9.542   9.092   0.122  0.0201 -0.3661  0.1837
  744MOL0     C98118   9.644   9.156   0.035 -0.3664  0.6763  0.3818
  744MOL0     C98119   9.780   9.089   0.046 -0.1418 -0.1667 -0.1542
  744MOL0    Cl98120   9.914   9.201   0.012 -0.7695 -0.1553 -0.2559
  744MOL0     C98121   8.655   9.142   0.070 -0.8035  0.9363 -0.3320
  744MOL0     C98122   8.517   9.153   0.048  0.1392  0.5817  0.2215
  744MOL0     O98123   8.194   9.044   0.283 -0.1827  0.1860 -0.0619
  744MOL0     C98124   8.033   9.214   0.021  0.3758  0.2123  0.4109
  744MOL0     C98125   7.913   9.230  -0.042  0.5803 -1.0735  0.0839
  744MOL0     N98126   7.591   9.254   0.456  0.1735  0.3361  0.6348
  744MOL0     N98127   7.697   9.240   0.521  0.2851  0.1446 -0.2419
  744MOL0     C98128   8.974   8.976   0.670  0.7264 -0.8285 -1.0678
  744MOL0     C98129   9.099   9.023   0.616 -0.1485  0.3532  0.9712
  744MOL0     C98130   9.489   9.226   0.546 -0.0873  0.1974 -0.0562
  744MOL0     C98131   9.617   9.214   0.617  0.1304 -0.2023  0.5564
  744MOL0     C98132   9.722   9.289   0.564  0.4833  0.0528  0.4702
  744MOL0     C98133   9.709   9.370   0.448  0.2114 -0.0777 -0.5619
  744MOL0     O98134   9.814   9.427   0.381  0.2694  0.6372 -0.8460
  744MOL0     C98135   9.948   9.378   0.380 -0.3224  0.0248  0.5130
  744MOL0     C98136  10.044   9.486   0.423  0.0636 -0.3133 -0.0142
  744MOL0     C98137  10.195   9.451   0.435  0.1314 -0.1049  1.0811
  744MOL0     C98138  10.261   9.425   0.300  0.3103 -1.1007  0.5177
  744MOL0     C98139  10.341   9.545   0.259  0.1950  0.0217 -1.0947
  744MOL0     C98140  10.410   9.647   0.243  1.0821 -0.5455 -0.4730
  744MOL0     C98141   9.582   9.386   0.391  0.6267 -0.3502 -0.0790
  744MOL0     C98142   9.466   9.318   0.440  0.2648  0.1893  0.0831
  744MOL0     H98143   9.081   9.346   0.699  0.2493 -0.8075  1.8138
  744MOL0     H98144   8.855   9.287   0.748 -0.2458  1.9539 -1.6739
  744MOL0     H98145   8.632   9.145   0.637 -1.6689 -3.5847 -1.1332
  744MOL0     H98146   8.653   9.197   0.819  3.4703 -1.9245  1.7550
  744MOL0     H98147   8.522   9.012   0.872  1.3918  0.6091 -0.3400
  744MOL0     H98148   8.547   8.937   0.710  2.3666  1.1857 -1.7265
  744MOL0     H98149   8.378   9.109   0.610  1.0963  0.9255  0.0073
  744MOL0     H98150   8.368   9.186   0.775  2.7288 -1.8050  2.9397
  744MOL0     H98151   8.295   8.896   0.759 -0.8405  0.5594 -2.7967
  744MOL0     H98152   8.246   9.008   0.873 -0.7869  0.2187  0.1937
  744MOL0     H98153   8.134   8.943   0.614 -0.0356 -1.5963  2.8218
  744MOL0     H98154   8.172   9.117   0.615  2.5096  0.8194  0.1526
  744MOL0     H98155   8.037   9.139   0.834 -3.0130  0.0306  0.5260
  744MOL0     H98156   7.979   8.974   0.790  0.7758 -0.3523  0.8462
  744MOL0     H98157   7.820   9.153   0.718 -0.8433  1.0556 -0.8660
  744MOL0     H98158   7.954   9.232   0.636 -2.5634  1.2691  0.7351
  744MOL0     H98159   7.835   8.961   0.571  2.0000 -0.1495  0.7015
  744MOL0     H98160   7.945   9.041   0.463 -2.7830 -3.1007 -2.3466
  744MOL0     H98161   7.680   8.956   0.351  0.1685 -1.1189  2.2095
  744MOL0     H98162   7.383   9.217   0.313 -0.3636 -0.4166  1.7737
  744MOL0     H98163   7.384   9.043   0.307  0.8200 -1.1812 -0.4965
  744MOL0     H98164   7.394   9.137   0.073  0.5734 -1.3285 -1.8544
  744MOL0     H98165   7.542   9.040   0.134  1.2971  0.4645  2.2494
  744MOL0     H98166   7.496   9.349   0.122 -1.1636 -0.5652  0.5490
  744MOL0     H98167   7.651   9.267   0.162 -0.6247  1.8910 -0.1954
  744MOL0     H98168   7.663   9.380  -0.047 -0.6203  0.6382  0.7309
  744MOL0     H98169   7.524   9.288  -0.104 -0.8507  0.8945 -0.1635
  744MOL0     H98170   7.753   8.956   0.077 -0.1577  0.1196  0.2684
  744MOL0     H98171   7.971   8.928   0.197 -0.2562 -0.9971 -2.4173
  744MOL0     H98172   8.410   9.074   0.369 -1.0114  2.6997  0.5946
  744MOL0     H98173   8.634   9.083   0.406 -2.6737 -0.3907 -0.0200
  744MOL0     H98174   8.921   9.232   0.133 -1.1144 -0.4029  1.3086
  744MOL0     H98175   8.937   9.061   0.078  0.2282 -0.5211 -0.0359
  744MOL0     H98176   9.074   9.010   0.258 -1.2547 -0.4983  1.0469
  744MOL0     H98177   9.060   9.171   0.341  0.3296  1.5600 -0.9384
  744MOL0     H98178   9.178   9.281   0.181 -1.3697 -1.0810  2.1587
  744MOL0     H98179   9.150   9.155   0.058  0.1458  2.2371 -0.2313
  744MOL0     H98180   9.338   9.141   0.297 -0.0616  0.0835 -0.6972
  744MOL0     H98181   9.286   8.999   0.193 -0.8779 -1.3495  2.0744
  744MOL0     H98182   9.427   9.269   0.114  1.8577  0.0250 -1.9833
  744MOL0     H98183   9.400   9.135  -0.001 -1.0247  0.8048  0.6531
  744MOL0     H98184   9.527   8.985   0.100 -2.7389  0.4351 -2.4751
  744MOL0     H98185   9.572   9.107   0.227 -2.0934 -0.3303  0.8317
  744MOL0     H98186   9.618   9.150  -0.071 -0.5398 -1.2947  0.4993
  744MOL0     H98187   9.645   9.264   0.057  0.1002  0.9031 -0.6858
  744MOL0     H98188   9.781   9.014  -0.034 -2.3911  0.5214 -0.9115
  744MOL0     H98189   9.785   9.047   0.147  1.5186  0.4714  0.0552
  744MOL0     H98190   8.722   9.151  -0.015 -2.0421  3.1848 -1.1446
  744MOL0     H98191   8.485   9.172  -0.054  0.4728 -0.7489 -0.1609
  744MOL0     H98192   8.118   9.278  -0.005  1.0247 -1.4832 -1.9627
  744MOL0     H98193   7.887   9.307  -0.115  1.2269 -1.1279 -0.2079
  744MOL0     H98194   8.941   8.873   0.660 -0.7819 -0.3244 -1.5352
  744MOL0     H98195   9.167   8.948   0.576 -1.8353 -0.4607 -0.5287
  744MOL0     H98196   9.641   9.151   0.703  2.8408 -0.7922 -0.5165
  744MOL0     H98197   9.820   9.279   0.611  1.6563  2.6964 -1.1734
  744MOL0     H98198   9.972   9.345   0.278 -1.5813  0.8481 -0.0839
  744MOL0     H98199   9.958   9.296   0.451  1.0242 -0.7162 -0.4993
  744MOL0     H98200  10.042   9.572   0.356  1.0259  0.3839  0.8156
  744MOL0     H98201   9.996   9.522   0.515 -1.4244 -2.8688  0.3261
  744MOL0     H98202  10.213   9.372   0.508  1.1307  0.0155  0.9817
  744MOL0     H98203  10.239   9.538   0.485 -1.8300  1.3588  0.3917
  744MOL0     H98204  10.314   9.329   0.314 -0.7533 -1.9784 -1.2219
  744MOL0     H98205  10.185   9.409   0.224  0.3866  0.7570  0.0056
  744MOL0     H98206  10.457   9.743   0.236 -3.7563  2.0177 -2.5617
  744MOL0     H98207   9.575   9.446   0.301  2.3276 -0.2246 -0.1578
  744MOL0     H98208   9.368   9.337   0.397  1.4249  1.5638 -2.1466
  745MOL0     O98209   7.311  10.838   9.931 -0.1312 -0.1385 -0.5718
  745MOL0     C98210   7.243  10.785  10.019 -0.3381 -0.5544 -0.6858
  745MOL0     O98211   7.297  10.712  10.127 -0.0190  0.2161 -0.2693
  745MOL0     C98212   7.432  10.707  10.148  0.2221 -1.2531  0.1925
  745MOL0     C98213   7.512  10.824  10.130 -0.0397  0.4280  0.3904
  745MOL0     C98214   7.651  10.812  10.124 -0.2342  0.5865  0.4246
  745MOL0     C98215   7.711  10.691  10.159 -0.6195 -0.5352  0.7695
  745MOL0     O98216   7.847  10.685  10.157  0.0883 -0.1083  0.7483
  745MOL0     C98217   7.911  10.563  10.093 -0.1777 -0.1109  0.4625
  745MOL0     C98218   7.958  10.469  10.203 -0.2595  0.2502  0.5607
  745MOL0     C98219   8.104  10.494  10.235 -0.6182  0.0594  0.0023
  745MOL0     C98220   8.157  10.410  10.339  0.1225  0.6752 -0.1653
  745MOL0     C98221   8.302  10.449  10.367  0.2842  0.1238  0.0714
  745MOL0     C98222   8.375  10.352  10.461 -0.3875  0.4767 -0.1710
  745MOL0     C98223   8.522  10.391  10.481 -0.0704 -0.2600 -0.0005
  745MOL0     C98224   8.594  10.282  10.557  0.0904  0.0410 -0.7563
  745MOL0     N98225   8.576  10.276  10.708  0.5751 -1.0739 -0.1668
  745MOL0     C98226   8.535  10.381  10.793 -0.5730  1.2376  0.1870
  745MOL0     C98227   8.510  10.327  10.910 -0.1707 -0.2136 -0.2786
  745MOL0     C98228   8.462  10.395  11.034  0.2783  0.4534 -0.4308
  745MOL0     C98229   8.312  10.397  11.048  0.0753  1.1043 -0.4550
  745MOL0     C98230   8.276  10.479  11.170  0.2783  0.8609  0.0745
  745MOL0     C98231   8.128  10.495  11.185  0.3721 -0.5577  0.0185
  745MOL0     O98232   8.059  10.372  11.207 -0.4952  1.3086  0.1172
  745MOL0     C98233   7.927  10.354  11.201  0.6702 -0.3528  0.2112
  745MOL0     C98234   7.867  10.225  11.200  0.3536 -0.1039  0.7007
  745MOL0     C98235   7.728  10.215  11.198 -0.6597  0.2769 -0.7228
  745MOL0     C98236   7.639  10.320  11.186 -0.2754  0.0215  0.5310
  745MOL0     C98237   7.493  10.315  11.190  0.0814  0.5184  0.2742
  745MOL0     O98238   7.407  10.426  11.191 -0.0893  0.3512  0.6330
  745MOL0     C98239   7.273  10.424  11.189  0.0761  0.5897 -0.5219
  745MOL0     C98240   7.220  10.546  11.157  0.0081  0.6680  0.8119
  745MOL0     C98241   7.082  10.558  11.154 -1.0164 -0.2403  0.0045
  745MOL0     C98242   6.993  10.455  11.189 -0.2580  0.5278  0.3753
  745MOL0     O98243   6.856  10.467  11.194 -0.0228 -0.3230 -0.0684
  745MOL0     C98244   6.791  10.532  11.085  0.0431 -0.4782  0.8919
  745MOL0     C98245   6.644  10.485  11.078 -0.0825 -1.0533  0.4464
  745MOL0     C98246   6.573  10.528  10.949  0.4833  0.1795  0.6367
  745MOL0     C98247   6.438  10.461  10.940 -0.6898 -0.1410  0.2872
  745MOL0     C98248   6.333  10.551  10.866 -0.3482  0.4538 -1.2798
  745MOL0     C98249   6.363  10.554  10.714  0.1243 -0.2511 -0.4634
  745MOL0     C98250   6.258  10.605  10.625  0.0970 -0.6321 -0.1350
  745MOL0     C98251   6.193  10.735  10.675  1.1372 -0.2729 -0.6561
  745MOL0    Cl98252   6.087  10.800  10.548 -0.0856 -0.1675 -0.0562
  745MOL0     C98253   7.057  10.331  11.222  0.0565 -0.0112  0.2851
  745MOL0     C98254   7.191  10.317  11.235 -0.3087 -0.3147 -0.1502
  745MOL0     O98255   7.459  10.197  11.195 -0.1491  0.2650  0.9741
  745MOL0     C98256   7.699  10.453  11.185  0.3625  0.4889  0.7643
  745MOL0     C98257   7.840  10.466  11.194 -0.5079  0.5310  0.7195
  745MOL0     N98258   8.553  10.198  10.903  0.0353  0.2038 -0.2433
  745MOL0     N98259   8.585  10.162  10.783  0.4058 -0.9331  0.4662
  745MOL0     C98260   7.628  10.576  10.186  0.5468  0.3146  0.2509
  745MOL0     C98261   7.491  10.584  10.172  0.0282  0.4195  0.5087
  745MOL0     C98262   7.099  10.775  10.000  0.1688  0.6040  1.2930
  745MOL0     C98263   7.019  10.689  10.072  0.0675 -0.1677  0.1749
  745MOL0     C98264   6.877  10.684  10.043  0.0173 -0.1813 -0.6477
  745MOL0     C98265   6.823  10.755   9.928 -0.4052 -0.5214  0.9764
  745MOL0     O98266   6.691  10.732   9.894 -0.1706 -0.3327  0.1517
  745MOL0     C98267   6.629  10.807   9.785 -0.0853 -0.1404 -0.0541
  745MOL0     C98268   6.495  10.745   9.750 -1.0477  0.8329  0.2597
  745MOL0     C98269   6.378  10.776   9.843  0.0448  0.2169 -0.4917
  745MOL0     C98270   6.237  10.713   9.825 -0.4951  0.1883  0.6583
  745MOL0     C98271   6.173  10.779   9.709 -0.4224 -0.4390  0.0489
  745MOL0     C98272   6.104  10.820   9.619 -0.0059  0.5985 -0.3904
  745MOL0     C98273   6.901  10.846   9.859 -0.4630  0.0449 -1.2027
  745MOL0     C98274   7.038  10.859   9.901  0.0651  0.0719  0.2558
  745MOL0     H98275   7.479  10.925  10.110  2.1653  0.9374 -1.0579
  745MOL0     H98276   7.713  10.901  10.120  0.2160  0.2821  0.6224
  745MOL0     H98277   7.993  10.595  10.029 -0.9360  1.7701  0.3697
  745MOL0     H98278   7.841  10.511  10.027  0.9093  1.1771 -1.8189
  745MOL0     H98279   7.941  10.369  10.163 -0.1668  0.3560  0.2560
  745MOL0     H98280   7.900  10.478  10.296 -3.4118 -1.1732 -1.0950
  745MOL0     H98281   8.108  10.598  10.269 -0.7327 -0.2859  1.1022
  745MOL0     H98282   8.169  10.483  10.148 -3.3849  0.9926 -2.3352
  745MOL0     H98283   8.105  10.412  10.435  1.1385 -2.9849  0.6277
  745MOL0     H98284   8.159  10.304  10.310 -1.4791  0.3119  0.9156
  745MOL0     H98285   8.307  10.550  10.409  1.2601  0.5605 -1.0530
  745MOL0     H98286   8.358  10.455  10.274 -0.7627 -0.1829 -0.5973
  745MOL0     H98287   8.367  10.246  10.438  3.0761 -0.1672  0.9821
  745MOL0     H98288   8.331  10.360  10.561  0.7515  1.9227  0.2689
  745MOL0     H98289   8.560  10.405  10.379  1.0483 -0.6220  0.3614
  745MOL0     H98290   8.523  10.486  10.535 -2.6879  0.0454 -0.3412
  745MOL0     H98291   8.702  10.297  10.541  0.5386 -0.3943  1.5061
  745MOL0     H98292   8.574  10.188  10.504  2.2759 -0.7148 -0.3623
  745MOL0     H98293   8.529  10.485  10.764 -1.7659  0.7554 -1.4493
  745MOL0     H98294   8.504  10.496  11.029  0.6992  0.4890  2.3577
  745MOL0     H98295   8.501  10.338  11.119 -1.5227  0.7729  0.6539
  745MOL0     H98296   8.266  10.299  11.059 -2.2008  2.2478  1.2037
  745MOL0     H98297   8.273  10.439  10.956  2.5125 -0.2665 -2.2374
  745MOL0     H98298   8.311  10.429  11.261  1.5334  2.3276  0.4395
  745MOL0     H98299   8.318  10.578  11.152 -0.3623  0.6357 -3.3347
  745MOL0     H98300   8.095  10.541  11.091  0.5632 -0.8168 -0.1757
  745MOL0     H98301   8.100  10.565  11.264  0.4549 -0.7577  0.2249
  745MOL0     H98302   7.938  10.143  11.196  1.6329  1.0271 -1.3910
  745MOL0     H98303   7.699  10.111  11.200  2.8926 -0.8565  1.8061
  745MOL0     H98304   7.283  10.628  11.125  2.4063 -1.1865  0.5625
  745MOL0     H98305   7.032  10.649  11.123 -0.4156 -1.0366 -3.8488
  745MOL0     H98306   6.842  10.503  10.993  0.3526 -2.6040  1.6719
  745MOL0     H98307   6.787  10.640  11.102  0.0177  0.1470 -2.4488
  745MOL0     H98308   6.595  10.520  11.169  2.7128  0.0649  1.6509
  745MOL0     H98309   6.641  10.376  11.072 -1.2094 -1.0219  0.3733
  745MOL0     H98310   6.622  10.505  10.854 -2.3089  0.3712 -0.9559
  745MOL0     H98311   6.552  10.635  10.955  0.8306  0.3500 -0.7892
  745MOL0     H98312   6.445  10.365  10.888 -2.0947 -0.9843  1.5545
  745MOL0     H98313   6.401  10.446  11.042 -0.1790  0.7284  0.6095
  745MOL0     H98314   6.332  10.657  10.894  1.1101 -0.6038  3.6012
  745MOL0     H98315   6.233  10.513  10.886  1.4514 -4.2095  0.1702
  745MOL0     H98316   6.380  10.450  10.686 -3.7338 -0.8188 -1.2972
  745MOL0     H98317   6.457  10.611  10.712  0.4998 -0.8888 -1.9905
  745MOL0     H98318   6.308  10.632  10.532 -0.3020  0.6183 -0.0160
  745MOL0     H98319   6.180  10.529  10.610  0.4478 -1.7061  2.7563
  745MOL0     H98320   6.274  10.803  10.703 -0.8655  3.2312 -2.6897
  745MOL0     H98321   6.130  10.709  10.761 -0.2648 -1.1513 -1.9056
  745MOL0     H98322   7.000  10.239  11.228  2.3166 -1.5757 -0.6465
  745MOL0     H98323   7.226  10.217  11.257 -0.3463 -0.3039 -0.0359
  745MOL0     H98324   7.642  10.544  11.179  0.1249  0.2994  0.0917
  745MOL0     H98325   7.874  10.569  11.189 -0.7839  0.5744 -1.0398
  745MOL0     H98326   7.670  10.480  10.215 -0.9363 -0.7675 -1.0136
  745MOL0     H98327   7.417  10.505  10.180  1.7599 -1.5486 -1.4000
  745MOL0     H98328   7.065  10.618  10.140  2.1260  1.8198  0.9956
  745MOL0     H98329   6.813  10.612  10.093 -1.2121  1.8763  0.9248
  745MOL0     H98330   6.691  10.789   9.696 -0.0659 -1.6548  0.2413
  745MOL0     H98331   6.620  10.915   9.799  3.3708  0.2293  0.1781
  745MOL0     H98332   6.465  10.778   9.650  0.4779  5.7901  1.1688
  745MOL0     H98333   6.508  10.636   9.746 -1.7504  0.7785 -1.3399
  745MOL0     H98334   6.372  10.885   9.853 -0.2622  0.0290  2.1403
  745MOL0     H98335   6.416  10.752   9.943 -2.9149  0.7685  0.8808
  745MOL0     H98336   6.254  10.605   9.815  0.1550  0.0801  2.5368
  745MOL0     H98337   6.170  10.728   9.910 -2.0796 -1.5752 -0.1962
  745MOL0     H98338   6.043  10.850   9.536 -0.0829  1.1077 -0.1555
  745MOL0     H98339   6.870  10.900   9.770  0.2308  0.0637 -1.4434
  745MOL0     H98340   7.093  10.929   9.839 -0.1867 -0.5465 -0.6983
  746MOL0     O98341   2.033   4.664   7.654  0.0064  0.2397 -0.7167
  746MOL0     C98342   2.132   4.651   7.578  0.5759 -0.5586  0.8635
  746MOL0     O98343   2.206   4.759   7.530 -0.3188  0.4759 -0.1530
  746MOL0     C98344   2.168   4.890   7.562  0.3561 -0.1493 -0.2419
  746MOL0     C98345   2.038   4.937   7.529 -0.0642 -0.6826 -0.3225
  746MOL0     C98346   1.993   5.069   7.568 -0.4998  0.4187  1.5458
  746MOL0     C98347   2.083   5.147   7.647  0.1991  0.5844  0.0731
  746MOL0     O98348   2.051   5.262   7.712 -0.2191  0.0468 -0.5588
  746MOL0     C98349   1.938   5.337   7.674  0.7626 -0.3874  0.3280
  746MOL0     C98350   1.817   5.302   7.760  0.3888  0.5524  0.2408
  746MOL0     C98351   1.695   5.391   7.745  0.3600  0.0263 -0.0772
  746MOL0     C98352   1.558   5.323   7.783  0.3097 -0.2046  0.3151
  746MOL0     C98353   1.430   5.409   7.767 -0.1641  0.8492 -0.6204
  746MOL0     C98354   1.393   5.445   7.620 -0.1854 -0.0442 -0.5748
  746MOL0     C98355   1.252   5.527   7.633 -0.9467  0.4941 -0.1044
  746MOL0     C98356   1.203   5.556   7.493  0.6266  0.3579 -0.1514
  746MOL0     N98357   1.055   5.569   7.502 -0.3669 -1.0420  0.0900
  746MOL0     C98358   0.964   5.464   7.502 -0.1894  0.3893 -0.1152
  746MOL0     C98359   0.849   5.511   7.563  0.0433 -1.2366 -0.0863
  746MOL0     C98360   0.722   5.433   7.591 -0.8244  0.5570 -0.3169
  746MOL0     C98361   0.766   5.283   7.621  0.0679  0.2200  0.7032
  746MOL0     C98362   0.654   5.187   7.665 -0.4446 -0.8534  0.3341
  746MOL0     C98363   0.525   5.193   7.583 -0.8591 -0.4468  0.6543
  746MOL0     O98364   0.464   5.314   7.606 -0.6895 -0.2771  0.2646
  746MOL0     C98365   0.330   5.321   7.581 -0.6862 -0.1692  0.8259
  746MOL0     C98366   0.282   5.371   7.461  0.4308 -0.4652 -0.2532
  746MOL0     C98367   0.142   5.358   7.432 -0.0823 -1.1781 -0.6690
  746MOL0     C98368   0.050   5.312   7.528 -0.2568  0.0690  0.0450
  746MOL0     C98369  -0.093   5.294   7.487 -0.1096  0.9336 -0.5394
  746MOL0     O98370  -0.181   5.277   7.591 -0.2855  0.1559 -0.4880
  746MOL0     C98371  -0.311   5.284   7.569 -0.2122 -0.0022 -0.0572
  746MOL0     C98372  -0.368   5.411   7.539 -0.3041  0.0812  0.3568
  746MOL0     C98373  -0.502   5.432   7.535  1.4892  0.1319 -0.4716
  746MOL0     C98374  -0.590   5.323   7.571 -0.3283 -0.0094 -0.0386
  746MOL0     O98375  -0.727   5.315   7.549 -0.4229 -0.4274 -0.3587
  746MOL0     C98376  -0.800   5.435   7.558  0.8302 -0.9076 -0.0999
  746MOL0     C98377  -0.951   5.403   7.548  0.3777 -0.4701  0.4128
  746MOL0     C98378  -1.038   5.522   7.556 -0.2082 -0.0588  0.2020
  746MOL0     C98379  -1.188   5.487   7.540 -0.3668  0.6859 -0.4450
  746MOL0     C98380  -1.261   5.612   7.570  0.1643 -0.2156  0.3788
  746MOL0     C98381  -1.409   5.576   7.566  0.3897  0.3781 -1.2790
  746MOL0     C98382  -1.479   5.710   7.545 -0.5913  0.3138 -0.1650
  746MOL0     C98383  -1.504   5.749   7.402 -0.4096 -0.8825 -0.3827
  746MOL0    Cl98384  -1.617   5.639   7.322 -0.2696  0.2713  0.2773
  746MOL0     C98385  -0.536   5.202   7.611 -0.1975  0.7985  0.2030
  746MOL0     C98386  -0.399   5.182   7.609  0.4940 -0.2484 -0.7126
  746MOL0     O98387  -0.125   5.324   7.372  0.7062 -0.2750 -0.1434
  746MOL0     C98388   0.103   5.272   7.653  1.1090  0.1588  0.8257
  746MOL0     C98389   0.239   5.279   7.680  0.1923 -0.9626  0.5676
  746MOL0     N98390   0.873   5.649   7.574 -0.8804  0.3775 -0.7008
  746MOL0     N98391   0.998   5.684   7.545  0.1114  0.0580 -0.1121
  746MOL0     C98392   2.218   5.103   7.657 -0.1824  0.3220 -0.0908
  746MOL0     C98393   2.258   4.973   7.623 -0.9564 -0.5529  0.3211
  746MOL0     C98394   2.161   4.513   7.529  0.0041  0.9277 -0.1464
  746MOL0     C98395   2.094   4.401   7.586  0.3033  0.5431  0.4831
  746MOL0     C98396   2.119   4.275   7.523 -0.2811  0.6743 -0.5768
  746MOL0     C98397   2.204   4.263   7.414 -0.5337 -0.1991  0.1218
  746MOL0     O98398   2.218   4.130   7.369  0.2707  0.1790  0.3160
  746MOL0     C98399   2.297   4.091   7.254 -0.1172  0.2228  0.2085
  746MOL0     C98400   2.223   4.136   7.122 -0.7498  0.4832  0.7448
  746MOL0     C98401   2.067   4.093   7.107  0.2733  0.0640 -0.0326
  746MOL0     C98402   1.978   4.212   7.126  0.4558  0.1865  0.1045
  746MOL0     C98403   1.833   4.175   7.089 -0.8490 -0.2809  0.1003
  746MOL0     C98404   1.712   4.158   7.059  0.6562 -0.7222  0.2441
  746MOL0     C98405   2.272   4.376   7.368 -0.6940  0.0227  0.6499
  746MOL0     C98406   2.247   4.502   7.424  0.3387  0.5260  0.4164
  746MOL0     H98407   1.968   4.874   7.476 -1.7281  2.5853 -2.3345
  746MOL0     H98408   1.890   5.099   7.553  0.0182  1.4698 -0.0459
  746MOL0     H98409   1.915   5.318   7.569  1.1329 -0.0083  0.1761
  746MOL0     H98410   1.964   5.442   7.687  0.3345  0.4241 -3.9080
  746MOL0     H98411   1.841   5.304   7.866 -0.5673  0.1118  0.4784
  746MOL0     H98412   1.810   5.196   7.733  1.4830  0.8160 -1.2344
  746MOL0     H98413   1.692   5.433   7.644  0.2811  1.4872  0.5039
  746MOL0     H98414   1.713   5.473   7.815 -1.4955 -0.2479  0.7929
  746MOL0     H98415   1.549   5.236   7.717 -0.5954  0.2315 -0.1449
  746MOL0     H98416   1.567   5.286   7.886 -2.0326  2.4982  1.6225
  746MOL0     H98417   1.442   5.497   7.830  2.7346 -0.7486  1.3073
  746MOL0     H98418   1.350   5.349   7.811  1.2646 -0.8307 -0.1869
  746MOL0     H98419   1.394   5.358   7.554  1.7733  0.6137 -1.4998
  746MOL0     H98420   1.468   5.514   7.580  1.5471 -0.8797  1.0412
  746MOL0     H98421   1.182   5.456   7.680 -1.7544  0.6955 -0.9714
  746MOL0     H98422   1.259   5.603   7.711  0.2017 -0.4918  0.8014
  746MOL0     H98423   1.227   5.485   7.413 -0.2772 -1.4054  1.0983
  746MOL0     H98424   1.243   5.653   7.462  2.3876 -0.5290 -0.8057
  746MOL0     H98425   0.975   5.364   7.461 -0.6131  0.5649 -0.6682
  746MOL0     H98426   0.657   5.436   7.503 -0.3671 -0.6796 -0.7074
  746MOL0     H98427   0.672   5.470   7.682  1.5083  0.3502  1.1240
  746MOL0     H98428   0.844   5.266   7.696 -0.7379 -4.0796  0.7956
  746MOL0     H98429   0.809   5.239   7.531  0.3776 -1.5202  1.6578
  746MOL0     H98430   0.689   5.084   7.668 -1.8744 -1.5226 -2.1778
  746MOL0     H98431   0.622   5.207   7.768  0.0008 -0.7386  0.4483
  746MOL0     H98432   0.454   5.110   7.592  0.7310 -1.8537  0.8380
  746MOL0     H98433   0.556   5.195   7.478  0.6066  1.5069  1.0581
  746MOL0     H98434   0.358   5.416   7.398  1.4476 -0.1503  1.1574
  746MOL0     H98435   0.099   5.388   7.337 -1.4409 -2.3630 -0.4578
  746MOL0     H98436  -0.302   5.497   7.537 -3.2788  2.5808  2.2880
  746MOL0     H98437  -0.536   5.526   7.492  0.9486  1.2605  2.2043
  746MOL0     H98438  -0.772   5.504   7.478  0.8855  2.4273  2.5888
  746MOL0     H98439  -0.771   5.486   7.650 -0.1850 -1.5199  0.5819
  746MOL0     H98440  -0.978   5.315   7.606 -1.7960 -0.7592 -0.9248
  746MOL0     H98441  -0.968   5.358   7.450 -1.0707  0.9597 -0.0471
  746MOL0     H98442  -1.013   5.599   7.482  3.5446 -2.1966 -0.9766
  746MOL0     H98443  -1.020   5.572   7.651  0.8350  0.7669 -0.4070
  746MOL0     H98444  -1.207   5.457   7.437 -0.4929  0.8095 -0.4597
  746MOL0     H98445  -1.216   5.409   7.612  1.3640  0.0576 -0.4201
  746MOL0     H98446  -1.244   5.695   7.501  0.7407 -0.9870 -0.4438
  746MOL0     H98447  -1.228   5.651   7.666  1.2131  3.2796 -1.2633
  746MOL0     H98448  -1.435   5.524   7.658 -0.4360 -1.2734 -2.3845
  746MOL0     H98449  -1.425   5.493   7.496  0.8137 -2.2094  1.4919
  746MOL0     H98450  -1.570   5.710   7.606  0.3448 -1.4109  1.3179
  746MOL0     H98451  -1.430   5.791   7.599 -2.1923 -0.0291  1.9086
  746MOL0     H98452  -1.412   5.758   7.344 -0.9661  0.8101 -1.0799
  746MOL0     H98453  -1.551   5.848   7.405  1.3763 -0.0156  0.0454
  746MOL0     H98454  -0.607   5.122   7.627  0.4563  0.0479 -0.5354
  746MOL0     H98455  -0.361   5.090   7.653  0.1784 -0.2634 -0.4685
  746MOL0     H98456   0.034   5.234   7.727  0.6163 -1.8907 -0.6106
  746MOL0     H98457   0.284   5.253   7.775 -0.4938  2.8762  2.1197
  746MOL0     H98458   2.309   5.155   7.687  0.3349 -2.8877  5.1557
  746MOL0     H98459   2.360   4.937   7.639 -0.9973 -1.7482 -1.7830
  746MOL0     H98460   2.027   4.416   7.669  1.6791  3.5778  1.1582
  746MOL0     H98461   2.077   4.190   7.575 -0.3410  1.9727  1.6247
  746MOL0     H98462   2.303   3.983   7.266 -1.5743  0.0537 -0.3717
  746MOL0     H98463   2.392   4.145   7.259  0.2169  0.0069 -2.2777
  746MOL0     H98464   2.226   4.245   7.127  0.2286  0.4837  0.3601
  746MOL0     H98465   2.285   4.107   7.037 -1.0412  4.5878 -1.1084
  746MOL0     H98466   2.043   4.021   7.185  1.4327  0.7840  1.0374
  746MOL0     H98467   2.039   4.039   7.016 -0.2336 -1.3587  0.9511
  746MOL0     H98468   1.983   4.234   7.233 -0.1806  1.3893 -0.0932
  746MOL0     H98469   2.003   4.301   7.069 -0.5679  0.2379 -0.2994
  746MOL0     H98470   1.609   4.141   7.031  0.3084 -1.1477  1.7095
  746MOL0     H98471   2.332   4.382   7.277 -2.4333  2.4205 -0.4591
  746MOL0     H98472   2.287   4.582   7.363  4.7228 -2.5298 -1.2319
  747MOL0     O98473   9.511   1.861   9.924  0.0510  0.6699  0.1010
  747MOL0     C98474   9.571   1.767   9.971  1.0251 -0.0762 -0.7753
  747MOL0     O98475   9.531   1.685  10.067 -0.8429  0.3115  1.1196
  747MOL0     C98476   9.398   1.697  10.102 -0.1892 -0.3721 -0.8046
  747MOL0     C98477   9.300   1.601  10.068  0.3170  0.8012  0.2237
  747MOL0     C98478   9.166   1.623  10.105 -0.2987 -0.4988 -0.5855
  747MOL0     C98479   9.127   1.737  10.165 -0.2912 -0.0645 -0.5323
  747MOL0     O98480   8.995   1.757  10.202  0.2116  0.0735  0.4025
  747MOL0     C98481   8.970   1.836  10.314  1.0955 -0.1198 -0.0894
  747MOL0     C98482   8.817   1.870  10.338  0.6332 -0.0902 -0.4485
  747MOL0     C98483   8.711   1.759  10.350 -0.3368 -0.2585  0.2282
  747MOL0     C98484   8.575   1.816  10.338  0.3521 -0.3074 -0.5160
  747MOL0     C98485   8.470   1.723  10.389  0.0117  0.4158  0.7864
  747MOL0     C98486   8.327   1.781  10.381 -0.4424  0.5390  0.0139
  747MOL0     C98487   8.226   1.674  10.369 -0.1634  0.6729 -0.0587
  747MOL0     C98488   8.085   1.731  10.413 -1.1444 -0.2688  0.8146
  747MOL0     N98489   7.973   1.640  10.401 -0.0452 -0.1948  0.0988
  747MOL0     C98490   7.885   1.620  10.508 -1.6658  0.6065 -0.0837
  747MOL0     C98491   7.781   1.540  10.463  0.7541  0.0846 -0.1217
  747MOL0     C98492   7.688   1.487  10.565 -0.3905 -0.7121  0.4044
  747MOL0     C98493   7.585   1.599  10.599 -0.2762 -0.2029  0.6743
  747MOL0     C98494   7.477   1.604  10.481  0.4715  0.5216  0.7263
  747MOL0     C98495   7.346   1.662  10.526  1.1445 -0.2591  0.5794
  747MOL0     O98496   7.285   1.567  10.620 -0.4639  0.1766  0.5515
  747MOL0     C98497   7.158   1.597  10.671  1.0606 -0.0336 -0.1848
  747MOL0     C98498   7.095   1.514  10.774 -0.8363 -0.3994 -0.7602
  747MOL0     C98499   6.979   1.547  10.844 -0.2259 -0.7389 -0.1911
  747MOL0     C98500   6.907   1.659  10.805  0.4319 -0.2113  1.0883
  747MOL0     C98501   6.766   1.697  10.850  0.4917 -0.2888  1.1134
  747MOL0     O98502   6.710   1.622  10.953 -0.3984 -0.1979 -0.0905
  747MOL0     C98503   6.600   1.674  11.012  0.0508 -0.3180  0.2299
  747MOL0     C98504   6.612   1.689  11.151  0.4419 -0.2364 -0.1430
  747MOL0     C98505   6.503   1.728  11.224 -0.3609 -0.7149 -0.3607
  747MOL0     C98506   6.382   1.755  11.158  0.0290 -0.2557 -0.4129
  747MOL0     O98507   6.275   1.796  11.237  0.0472 -0.0388 -0.2022
  747MOL0     C98508   6.142   1.755  11.199 -0.7345 -0.0210 -0.3757
  747MOL0     C98509   6.057   1.877  11.163  0.7132 -0.1974  0.0201
  747MOL0     C98510   5.914   1.843  11.123  0.6083 -0.1394 -0.5135
  747MOL0     C98511   5.820   1.963  11.092 -0.2033 -0.4677 -0.1998
  747MOL0     C98512   5.696   1.930  11.013 -0.3591 -0.2801  0.9172
  747MOL0     C98513   5.614   1.824  11.093 -0.1587 -0.5648  1.0994
  747MOL0     C98514   5.497   1.770  11.009  0.1059 -0.1924 -0.3036
  747MOL0     C98515   5.386   1.880  10.986 -0.9184  1.2173 -0.7737
  747MOL0    Cl98516   5.274   1.799  10.873 -0.6784  0.1910 -0.3760
  747MOL0     C98517   6.376   1.749  11.022 -0.3874  0.4519  0.0462
  747MOL0     C98518   6.480   1.696  10.946 -0.1574 -0.0676  0.1404
  747MOL0     O98519   6.709   1.792  10.792  0.3282 -0.2419 -0.5053
  747MOL0     C98520   6.965   1.744  10.713  0.7985 -0.3358 -1.2643
  747MOL0     C98521   7.082   1.711  10.647 -0.3095  0.0449 -0.2989
  747MOL0     N98522   7.811   1.515  10.326  0.2465 -0.2255  1.2781
  747MOL0     N98523   7.919   1.590  10.289 -0.2245  0.1639 -0.6076
  747MOL0     C98524   9.230   1.821  10.214  0.1150  0.2537 -0.1626
  747MOL0     C98525   9.364   1.808  10.186  0.6690  0.3427 -0.1911
  747MOL0     C98526   9.706   1.738   9.915  0.1848 -0.0589 -0.6725
  747MOL0     C98527   9.783   1.840   9.862  0.8889 -0.0079  0.1251
  747MOL0     C98528   9.915   1.822   9.825  0.5256  0.3821  0.0798
  747MOL0     C98529   9.975   1.692   9.840  0.2715 -0.5102 -0.1333
  747MOL0     O98530  10.109   1.669   9.810 -0.0141  0.2690  0.4135
  747MOL0     C98531  10.185   1.773   9.749  0.1068  0.2287  0.1748
  747MOL0     C98532  10.333   1.737   9.737  0.1574  0.1461 -0.2381
  747MOL0     C98533  10.353   1.591   9.684 -0.1040 -0.2075 -0.4178
  747MOL0     C98534  10.496   1.564   9.629 -0.4132  0.2120  0.9653
  747MOL0     C98535  10.598   1.574   9.734 -0.5139 -0.2373 -0.0954
  747MOL0     C98536  10.679   1.579   9.826 -0.2869 -0.5153  0.2716
  747MOL0     C98537   9.894   1.589   9.875 -0.6486 -0.3596 -0.1021
  747MOL0     C98538   9.766   1.615   9.923  0.4597  0.0777 -0.2704
  747MOL0     H98539   9.342   1.520  10.011  2.3573  1.3983  0.7959
  747MOL0     H98540   9.084   1.555  10.087  1.3691 -3.0371  0.7844
  747MOL0     H98541   9.009   1.934  10.289  1.1498 -0.6609 -2.3776
  747MOL0     H98542   9.013   1.785  10.401  0.4881  0.0207  0.3008
  747MOL0     H98543   8.784   1.925  10.249 -1.2863  0.1923  0.3898
  747MOL0     H98544   8.801   1.938  10.422 -1.9020 -1.1508  0.0152
  747MOL0     H98545   8.728   1.711  10.448 -1.2621  0.9517  1.0100
  747MOL0     H98546   8.718   1.687  10.268 -2.4906 -0.5716  0.2682
  747MOL0     H98547   8.575   1.909  10.396  0.7633 -0.0992 -0.8444
  747MOL0     H98548   8.572   1.841  10.231  1.6957  1.0955 -0.2626
  747MOL0     H98549   8.493   1.695  10.492  1.8756  2.6108  1.0342
  747MOL0     H98550   8.482   1.630  10.333  1.2689 -0.7892  2.9518
  747MOL0     H98551   8.318   1.848  10.294 -2.1496  0.3914  0.0562
  747MOL0     H98552   8.302   1.836  10.472 -1.0401 -2.0690  1.5291
  747MOL0     H98553   8.217   1.646  10.264  0.7867  2.5266 -0.6830
  747MOL0     H98554   8.255   1.593  10.438  1.1830  2.2188  1.2874
  747MOL0     H98555   8.064   1.812  10.343  1.8696 -1.0140 -1.1050
  747MOL0     H98556   8.091   1.774  10.514 -0.0262 -0.8023  0.9932
  747MOL0     H98557   7.901   1.651  10.610 -0.8592  1.1760 -0.3658
  747MOL0     H98558   7.747   1.472  10.656 -2.1481 -0.6928  1.5828
  747MOL0     H98559   7.644   1.394  10.527  1.7196 -1.1424 -1.1951
  747MOL0     H98560   7.625   1.698  10.622  0.2815  0.4372 -2.5413
  747MOL0     H98561   7.537   1.563  10.691 -2.9713 -2.6853 -1.5009
  747MOL0     H98562   7.526   1.672  10.410  1.8484  1.2153  2.2718
  747MOL0     H98563   7.472   1.506  10.433  1.4341  1.2442 -0.9402
  747MOL0     H98564   7.280   1.683  10.442  0.8471  1.1963  1.1394
  747MOL0     H98565   7.364   1.763  10.565  1.0734  1.3100 -3.0623
  747MOL0     H98566   7.148   1.423  10.798 -0.3515  0.5961  2.5099
  747MOL0     H98567   6.934   1.476  10.913 -0.1187  0.3435  1.0352
  747MOL0     H98568   6.708   1.676  11.201  1.5807  2.5810 -1.3468
  747MOL0     H98569   6.501   1.734  11.332  1.4299  0.4653 -0.3437
  747MOL0     H98570   6.101   1.704  11.286  3.1238  0.6891  2.1339
  747MOL0     H98571   6.158   1.681  11.120  0.6454  0.7938 -0.9041
  747MOL0     H98572   6.096   1.938  11.081 -2.1819  1.1880 -0.4507
  747MOL0     H98573   6.049   1.938  11.253 -0.6338 -3.1003  2.0472
  747MOL0     H98574   5.870   1.783  11.204 -2.0379  0.3154 -1.5369
  747MOL0     H98575   5.924   1.775  11.038  0.7865 -0.8836  0.0897
  747MOL0     H98576   5.794   2.003  11.190  1.1166 -1.2260  0.5026
  747MOL0     H98577   5.870   2.042  11.036  1.5590  0.3981  2.4048
  747MOL0     H98578   5.727   1.883  10.920  2.5203 -1.6458  2.4131
  747MOL0     H98579   5.635   2.018  10.992 -0.5383 -0.3704  1.0541
  747MOL0     H98580   5.563   1.875  11.176 -2.2206 -1.4906  0.4790
  747MOL0     H98581   5.663   1.737  11.138 -1.2166  0.5150  4.7420
  747MOL0     H98582   5.532   1.725  10.916  0.4161 -1.5247  0.4287
  747MOL0     H98583   5.450   1.690  11.067 -1.0912  0.2315 -0.6434
  747MOL0     H98584   5.424   1.973  10.943  2.7868  0.9253  1.4356
  747MOL0     H98585   5.327   1.896  11.077 -2.5875 -2.7483 -0.9450
  747MOL0     H98586   6.292   1.775  10.958  1.9155 -1.4128 -4.1947
  747MOL0     H98587   6.472   1.671  10.841 -1.8109 -3.8612  1.0067
  747MOL0     H98588   6.926   1.845  10.708  0.5344 -0.4391 -1.2975
  747MOL0     H98589   7.122   1.790  10.584 -0.4741 -0.0926 -0.5755
  747MOL0     H98590   9.212   1.910  10.275 -0.7619  0.6305 -0.9331
  747MOL0     H98591   9.428   1.879  10.237 -0.3518  1.2821 -0.1602
  747MOL0     H98592   9.727   1.931   9.845 -0.8696 -1.4828 -2.8531
  747MOL0     H98593   9.963   1.919   9.815  0.2976  0.4780 -0.0785
  747MOL0     H98594  10.179   1.865   9.807 -0.4689 -1.5179  3.0938
  747MOL0     H98595  10.148   1.789   9.647 -0.0620 -2.8749 -0.3571
  747MOL0     H98596  10.385   1.798   9.663 -2.5137  1.5443 -1.1017
  747MOL0     H98597  10.371   1.741   9.839 -2.2431 -0.9944  0.7623
  747MOL0     H98598  10.281   1.574   9.603 -2.1746  3.9995  0.2772
  747MOL0     H98599  10.321   1.515   9.756  1.1879 -1.2564 -0.9003
  747MOL0     H98600  10.509   1.470   9.573 -0.0241  1.2212 -0.7111
  747MOL0     H98601  10.521   1.639   9.554 -0.2103 -1.6888 -0.9811
  747MOL0     H98602  10.747   1.600   9.907  1.2758  1.3324 -1.3914
  747MOL0     H98603   9.928   1.487   9.888 -1.2460 -0.4733  0.6795
  747MOL0     H98604   9.708   1.545   9.982  0.3693  1.8824  1.9543
  748MOL0     O98605   4.801   1.377   7.828 -0.4341  0.5181 -1.2102
  748MOL0     C98606   4.778   1.492   7.826  0.5907 -0.3452 -0.6608
  748MOL0     O98607   4.669   1.549   7.890  0.6667  0.0650 -0.4759
  748MOL0     C98608   4.601   1.472   7.976  0.6772  0.8109  0.2274
  748MOL0     C98609   4.497   1.397   7.938  1.3096 -0.1847  0.0188
  748MOL0     C98610   4.411   1.335   8.029 -0.4789 -0.0251  0.0872
  748MOL0     C98611   4.449   1.321   8.161 -0.4326  0.6098 -0.2796
  748MOL0     O98612   4.387   1.237   8.247 -0.4133  0.1022  0.3454
  748MOL0     C98613   4.251   1.189   8.236  0.0360 -0.2107 -0.3268
  748MOL0     C98614   4.150   1.295   8.263 -0.1111  0.7636 -0.0287
  748MOL0     C98615   4.015   1.219   8.255 -0.0824  0.8463 -0.3560
  748MOL0     C98616   3.979   1.148   8.383 -0.5439  0.7084 -0.7551
  748MOL0     C98617   3.855   1.053   8.374  1.0955 -0.1582 -0.2842
  748MOL0     C98618   3.727   1.135   8.371  0.1856 -0.2496 -0.5329
  748MOL0     C98619   3.596   1.060   8.384 -0.4189 -0.6974  0.0813
  748MOL0     C98620   3.476   1.153   8.392 -0.3849  1.0525 -0.8923
  748MOL0     N98621   3.351   1.074   8.402  0.3902 -0.2141  0.1334
  748MOL0     C98622   3.318   1.008   8.512  0.8659  0.2757 -0.3891
  748MOL0     C98623   3.181   0.972   8.493 -0.3643  0.5490 -0.4510
  748MOL0     C98624   3.101   0.893   8.598 -0.0029  0.8681  0.2290
  748MOL0     C98625   2.998   0.798   8.537 -0.8376 -1.2651  0.6389
  748MOL0     C98626   2.873   0.858   8.472  0.4511 -0.7273  0.2264
  748MOL0     C98627   2.757   0.896   8.570 -0.8367 -0.1162  1.0592
  748MOL0     O98628   2.665   0.980   8.502  0.4033 -0.1477 -0.1084
  748MOL0     C98629   2.558   1.022   8.586  0.1878 -0.2106 -0.3288
  748MOL0     C98630   2.577   1.102   8.698  0.1214  0.6189 -0.3689
  748MOL0     C98631   2.473   1.131   8.792 -0.7544 -0.3383  0.2492
  748MOL0     C98632   2.345   1.096   8.759  0.5206  0.3461 -0.5944
  748MOL0     C98633   2.225   1.141   8.837  0.5527 -0.7278  0.2339
  748MOL0     O98634   2.105   1.114   8.787 -0.3086 -0.1489  0.0448
  748MOL0     C98635   1.993   1.112   8.856  0.9209  0.5323 -0.0577
  748MOL0     C98636   1.895   1.198   8.802 -0.6205  0.6062 -0.4816
  748MOL0     C98637   1.768   1.187   8.852  0.4324 -0.5501  0.3198
  748MOL0     C98638   1.724   1.090   8.954 -0.2401  0.7233  0.8474
  748MOL0     O98639   1.594   1.068   8.981 -0.4662  0.2671 -0.6956
  748MOL0     C98640   1.497   1.074   8.873 -0.2120 -0.7985 -0.9385
  748MOL0     C98641   1.369   1.043   8.940 -0.8268 -0.7256 -0.5469
  748MOL0     C98642   1.250   1.072   8.851 -0.3587 -0.0717 -0.1007
  748MOL0     C98643   1.124   1.076   8.932 -0.8956  0.4563  0.2231
  748MOL0     C98644   0.993   1.115   8.852 -0.1364  0.3846 -0.5899
  748MOL0     C98645   0.874   1.107   8.935 -0.6459 -0.3114 -0.2414
  748MOL0     C98646   0.827   0.962   8.964 -0.1944 -0.5419 -0.4834
  748MOL0     C98647   0.692   0.954   9.028  0.9018  0.4723  0.0357
  748MOL0    Cl98648   0.668   0.801   9.099  0.0266  0.4599  0.6075
  748MOL0     C98649   1.833   1.020   9.010  0.5064 -0.8634 -0.1019
  748MOL0     C98650   1.963   1.021   8.957 -0.0407  0.0186 -0.4571
  748MOL0     O98651   2.241   1.204   8.939 -0.7594 -0.0985 -0.0284
  748MOL0     C98652   2.326   1.026   8.634 -0.8308  0.7157  0.2029
  748MOL0     C98653   2.430   0.981   8.555  0.7707 -0.3398 -0.6114
  748MOL0     N98654   3.147   1.007   8.369 -0.7401 -0.1183  0.5316
  748MOL0     N98655   3.245   1.075   8.315 -0.6176 -0.5642 -0.0597
  748MOL0     C98656   4.564   1.391   8.209 -0.1878  0.3773 -0.8379
  748MOL0     C98657   4.631   1.473   8.114  0.3435  0.0888 -0.3330
  748MOL0     C98658   4.851   1.590   7.743  0.7253 -0.4484  0.2987
  748MOL0     C98659   4.972   1.558   7.680  0.8105  0.7306 -0.1212
  748MOL0     C98660   5.034   1.654   7.600  0.1884  0.3025  0.4432
  748MOL0     C98661   4.989   1.784   7.579  0.1137  0.3480 -0.5199
  748MOL0     O98662   5.043   1.880   7.494 -0.2410  0.0461 -0.9921
  748MOL0     C98663   5.178   1.859   7.438 -0.0662  0.5224  0.0160
  748MOL0     C98664   5.238   1.992   7.390 -0.3727 -0.2730  0.6140
  748MOL0     C98665   5.198   2.038   7.251  0.0399  0.5711 -0.3896
  748MOL0     C98666   5.051   2.104   7.246  0.2560  0.0212  0.3464
  748MOL0     C98667   5.012   2.188   7.128 -0.1904  0.5356 -0.2910
  748MOL0     C98668   4.957   2.268   7.050  0.1302  1.0510  0.0893
  748MOL0     C98669   4.875   1.822   7.642 -0.0466  0.2928 -0.5880
  748MOL0     C98670   4.798   1.724   7.718  0.1981 -0.2308  0.2956
  748MOL0     H98671   4.480   1.378   7.833  2.2176 -2.3384  0.2009
  748MOL0     H98672   4.321   1.286   7.995 -0.7535 -0.0328  0.8052
  748MOL0     H98673   4.248   1.122   8.323  0.9202 -0.2705 -0.3319
  748MOL0     H98674   4.244   1.128   8.145  1.5488 -2.5956  1.0525
  748MOL0     H98675   4.151   1.359   8.174  1.9335  1.0508  0.1479
  748MOL0     H98676   4.163   1.359   8.350  0.6618  1.4398 -0.6239
  748MOL0     H98677   4.016   1.151   8.169 -2.9934  0.9589 -0.6004
  748MOL0     H98678   3.936   1.294   8.243 -0.4732  0.1359 -2.7467
  748MOL0     H98679   4.059   1.080   8.416 -2.4212  0.4913  4.2053
  748MOL0     H98680   3.967   1.221   8.463  0.6930  0.0215  0.1031
  748MOL0     H98681   3.856   0.983   8.458  1.3360  1.0429  0.7249
  748MOL0     H98682   3.858   0.999   8.278  1.4189  2.1689 -1.6481
  748MOL0     H98683   3.725   1.192   8.278  0.8334 -0.6965 -0.8348
  748MOL0     H98684   3.732   1.200   8.459  0.1911 -1.0937  0.1037
  748MOL0     H98685   3.590   0.995   8.296  2.6254 -2.0863  0.7457
  748MOL0     H98686   3.606   1.007   8.479 -1.8700 -2.1044 -0.5029
  748MOL0     H98687   3.466   1.227   8.311 -0.1257  2.1120  0.0193
  748MOL0     H98688   3.473   1.205   8.488  2.9710 -0.6102  0.2630
  748MOL0     H98689   3.375   0.990   8.602  3.1923  2.3174 -1.3535
  748MOL0     H98690   3.043   0.955   8.667 -0.0862  0.3145  0.6590
  748MOL0     H98691   3.173   0.839   8.659  0.3862 -0.3335 -1.2303
  748MOL0     H98692   2.971   0.724   8.613 -1.0559  0.7206  2.5992
  748MOL0     H98693   3.061   0.760   8.456 -0.8342  0.3490 -0.1491
  748MOL0     H98694   2.900   0.942   8.408  3.4765 -0.6195  1.4661
  748MOL0     H98695   2.826   0.784   8.407 -1.4387  2.3259 -2.1632
  748MOL0     H98696   2.799   0.954   8.653  0.0388  2.9802 -1.3760
  748MOL0     H98697   2.705   0.806   8.603 -0.8131 -0.4049  0.3175
  748MOL0     H98698   2.678   1.139   8.713  0.5505 -1.1924  1.7258
  748MOL0     H98699   2.503   1.181   8.883 -2.3489  0.7654  0.1941
  748MOL0     H98700   1.907   1.256   8.711  0.1104 -1.2863 -1.6292
  748MOL0     H98701   1.690   1.258   8.829 -0.4492 -0.6207  2.8078
  748MOL0     H98702   1.504   1.001   8.793 -2.5819 -1.5127 -0.5560
  748MOL0     H98703   1.480   1.175   8.834 -2.1010 -0.9995 -0.7274
  748MOL0     H98704   1.367   1.111   9.025 -0.7324  0.4330 -1.4518
  748MOL0     H98705   1.363   0.942   8.983 -0.8533  0.6904  3.1066
  748MOL0     H98706   1.242   0.987   8.783  1.2852 -0.1509 -0.2389
  748MOL0     H98707   1.257   1.169   8.800  0.5973  1.3381  2.4865
  748MOL0     H98708   1.116   0.976   8.977  1.4166  0.0794 -0.0654
  748MOL0     H98709   1.144   1.151   9.009 -0.2618  0.4485  0.0754
  748MOL0     H98710   0.978   1.058   8.760 -2.0572  1.5488 -1.0521
  748MOL0     H98711   1.010   1.217   8.817  0.9486 -0.1469 -1.6664
  748MOL0     H98712   0.794   1.158   8.882  0.7595  0.2734 -1.8839
  748MOL0     H98713   0.890   1.163   9.027  1.3795 -0.7592 -0.2796
  748MOL0     H98714   0.833   0.905   8.871  0.3653 -2.5872  0.7354
  748MOL0     H98715   0.902   0.921   9.032  0.0547  1.5613  0.6011
  748MOL0     H98716   0.610   0.972   8.958  1.3191  0.0633 -0.5634
  748MOL0     H98717   0.689   1.031   9.107 -1.3304 -0.1329  0.6096
  748MOL0     H98718   1.810   0.956   9.094 -1.2778 -0.3628 -0.1662
  748MOL0     H98719   2.041   0.954   8.993  1.6075 -0.0031 -3.6850
  748MOL0     H98720   2.227   1.000   8.598 -0.5550 -1.6842  0.9942
  748MOL0     H98721   2.427   0.909   8.474  2.0389 -2.9784  1.5480
  748MOL0     H98722   4.604   1.392   8.310  0.0879 -0.1490 -0.9385
  748MOL0     H98723   4.717   1.528   8.151  1.5421 -1.1981 -1.0919
  748MOL0     H98724   5.009   1.456   7.688 -0.4085  0.2225 -0.6890
  748MOL0     H98725   5.129   1.633   7.552 -0.3098 -1.5633  0.2174
  748MOL0     H98726   5.177   1.777   7.365  2.1446  0.2379  0.2434
  748MOL0     H98727   5.245   1.833   7.520 -0.4896 -2.0847 -0.3896
  748MOL0     H98728   5.207   2.056   7.473  1.6381 -0.1396  1.2914
  748MOL0     H98729   5.346   1.978   7.386 -0.2263  0.8251 -3.0266
  748MOL0     H98730   5.203   1.969   7.166  1.1507  1.3394 -0.9701
  748MOL0     H98731   5.264   2.122   7.229 -2.8129  4.7897  4.8960
  748MOL0     H98732   4.982   2.021   7.257  1.4262 -1.2401 -1.3200
  748MOL0     H98733   5.039   2.158   7.341  4.6954  1.0867  0.5424
  748MOL0     H98734   4.934   2.338   6.971  0.1107  0.5222 -0.3797
  748MOL0     H98735   4.838   1.924   7.627 -2.2812 -0.3111  0.2908
  748MOL0     H98736   4.703   1.753   7.761 -0.0671 -1.2676  0.4347
  749MOL0     O98737   9.700  10.177   0.682 -0.1288 -0.5542 -0.3585
  749MOL0     C98738   9.772  10.253   0.611  0.5308 -0.3661 -0.6488
  749MOL0     O98739   9.735  10.314   0.497 -0.1936  0.0974  0.1570
  749MOL0     C98740   9.618  10.263   0.445  0.1454 -0.8359 -0.4535
  749MOL0     C98741   9.503  10.336   0.477 -0.3175 -0.2390 -0.0221
  749MOL0     C98742   9.384  10.288   0.444  0.5438  0.5912  0.3184
  749MOL0     C98743   9.363  10.175   0.367  0.2212 -0.4264  0.5753
  749MOL0     O98744   9.231  10.145   0.333  0.1512 -0.3111  0.2018
  749MOL0     C98745   9.223  10.042   0.232 -1.0040  0.0259 -0.0734
  749MOL0     C98746   9.079  10.012   0.189 -0.2663  0.2004  0.4811
  749MOL0     C98747   9.058   9.960   0.049  0.3227  0.1998  0.0688
  749MOL0     C98748   8.908   9.936   0.015  0.2089  0.7833 -0.4553
  749MOL0     C98749   8.898   9.888  -0.133  0.1054 -0.2348 -0.9625
  749MOL0     C98750   8.753   9.888  -0.187  0.2429  0.3023  0.9149
  749MOL0     C98751   8.711   9.794  -0.300 -0.1165 -0.2562 -0.6475
  749MOL0     C98752   8.778   9.831  -0.432  0.2692  0.6229 -0.1130
  749MOL0     N98753   8.753   9.731  -0.528  0.7979  0.0582 -0.0265
  749MOL0     C98754   8.639   9.648  -0.542  0.7115 -0.0512  0.2162
  749MOL0     C98755   8.673   9.567  -0.644  0.7213  0.4627 -0.1688
  749MOL0     C98756   8.586   9.454  -0.690  0.5238 -0.0860 -0.1472
  749MOL0     C98757   8.475   9.518  -0.782 -0.0101  0.6324 -0.2558
  749MOL0     C98758   8.402   9.428  -0.877  0.1835  0.4640 -0.8089
  749MOL0     C98759   8.277   9.478  -0.950 -0.8544  0.1194  0.3040
  749MOL0     O98760   8.159   9.477  -0.864  0.4639 -0.5111 -0.2191
  749MOL0     C98761   8.035   9.502  -0.925  0.6702  0.5750 -0.1647
  749MOL0     C98762   8.017   9.538  -1.065  0.0140  0.5915 -0.1809
  749MOL0     C98763   7.890   9.566  -1.116  0.6989  0.5787  0.2467
  749MOL0     C98764   7.780   9.577  -1.027  0.0996 -0.5492  0.2942
  749MOL0     C98765   7.648   9.617  -1.080  0.1433  0.1527  0.4427
  749MOL0     O98766   7.639   9.633  -1.218  1.6693 -0.5735  0.3255
  749MOL0     C98767   7.515   9.663  -1.271 -0.9025  0.0728 -0.4269
  749MOL0     C98768   7.437   9.575  -1.350  0.0973  0.3605  0.9196
  749MOL0     C98769   7.310   9.620  -1.386  0.4031  0.4044 -0.0867
  749MOL0     C98770   7.259   9.745  -1.360 -0.2936 -0.5239  0.4507
  749MOL0     O98771   7.139   9.799  -1.401 -0.2331  0.4220 -0.4919
  749MOL0     C98772   7.028   9.705  -1.422 -0.1624 -0.9164 -0.5967
  749MOL0     C98773   6.908   9.804  -1.445 -0.2957  0.0900 -0.6597
  749MOL0     C98774   6.765   9.737  -1.455 -0.9027 -0.6337 -0.6685
  749MOL0     C98775   6.758   9.659  -1.593  0.5344  0.0582  0.0109
  749MOL0     C98776   6.613   9.604  -1.615 -0.2337 -0.0535  0.6022
  749MOL0     C98777   6.582   9.496  -1.511  0.4316 -0.1845  0.3389
  749MOL0     C98778   6.440   9.422  -1.528  0.1678 -0.3027 -0.0206
  749MOL0     C98779   6.446   9.277  -1.507 -0.1729  0.2745  1.0025
  749MOL0    Cl98780   6.303   9.194  -1.568 -0.3191 -0.0694 -0.3604
  749MOL0     C98781   7.341   9.824  -1.279  0.1267 -0.4120  0.5086
  749MOL0     C98782   7.466   9.792  -1.226  0.1314  0.2406  0.2152
  749MOL0     O98783   7.554   9.631  -1.003  0.5381  0.4384 -0.4984
  749MOL0     C98784   7.798   9.542  -0.897 -1.0377  0.4346  0.4279
  749MOL0     C98785   7.920   9.499  -0.851 -0.2161 -0.0877  0.4355
  749MOL0     N98786   8.797   9.597  -0.689 -0.1396 -0.2968  0.5928
  749MOL0     N98787   8.842   9.704  -0.626  0.3853 -0.2123  0.7973
  749MOL0     C98788   9.486  10.109   0.323  0.4256 -1.0970 -0.3171
  749MOL0     C98789   9.608  10.149   0.369  0.2485  0.1186  0.6941
  749MOL0     C98790   9.885  10.310   0.683 -0.7404  0.6760  0.6377
  749MOL0     C98791   9.949  10.421   0.632  0.3363 -0.1309  0.4012
  749MOL0     C98792  10.070  10.475   0.691  1.0007 -0.1551  0.2399
  749MOL0     C98793  10.126  10.402   0.795  0.5682  0.0259  0.4408
  749MOL0     O98794  10.247  10.434   0.860  0.1281  0.0151  0.2493
  749MOL0     C98795  10.292  10.565   0.852  0.1107 -0.2196  0.3462
  749MOL0     C98796  10.415  10.602   0.937  0.3643 -0.0526  0.2184
  749MOL0     C98797  10.454  10.750   0.904 -0.3964  0.1306 -0.3673
  749MOL0     C98798  10.584  10.785   0.961 -0.2607  0.6805 -0.6831
  749MOL0     C98799  10.591  10.771   1.108 -0.6756 -0.8319 -0.4892
  749MOL0     C98800  10.606  10.747   1.226 -0.0730 -0.6167 -0.7459
  749MOL0     C98801  10.056  10.285   0.847  0.8311  0.3637 -1.0009
  749MOL0     C98802   9.938  10.239   0.794  0.1505  0.0948  0.7227
  749MOL0     H98803   9.504  10.429   0.533 -2.3350  1.3714 -2.4213
  749MOL0     H98804   9.301  10.348   0.482  0.9677  0.9745  0.6469
  749MOL0     H98805   9.272   9.947   0.250 -0.4705 -0.1294 -2.0743
  749MOL0     H98806   9.282  10.082   0.149 -1.6674  0.4065 -0.3753
  749MOL0     H98807   9.024  10.106   0.193 -1.1668 -0.3079  0.1401
  749MOL0     H98808   9.044   9.938   0.262  2.3720 -0.1925  1.4872
  749MOL0     H98809   9.116   9.868   0.036  0.2967  0.3675 -1.3716
  749MOL0     H98810   9.097  10.023  -0.032 -0.7741  0.8183  0.0033
  749MOL0     H98811   8.870   9.860   0.084  0.8176  2.6541  2.0816
  749MOL0     H98812   8.850  10.027   0.028  0.2384  0.5804  1.4396
  749MOL0     H98813   8.938   9.786  -0.125 -0.8230 -0.5632 -0.3307
  749MOL0     H98814   8.966   9.947  -0.195  0.5539  0.5856  0.2528
  749MOL0     H98815   8.742   9.992  -0.217  1.1862  1.1712  3.3243
  749MOL0     H98816   8.684   9.853  -0.110 -1.7941  2.0413 -0.0132
  749MOL0     H98817   8.742   9.694  -0.267 -1.6239 -0.2758  0.7865
  749MOL0     H98818   8.605   9.812  -0.318 -0.3897 -1.0841  0.0380
  749MOL0     H98819   8.886   9.839  -0.420  0.5092 -1.5224 -0.5543
  749MOL0     H98820   8.742   9.930  -0.464 -0.7237  0.4522  0.4298
  749MOL0     H98821   8.552   9.648  -0.478  0.5821 -1.8883  0.0947
  749MOL0     H98822   8.543   9.401  -0.605  0.8222 -1.3410 -0.7487
  749MOL0     H98823   8.641   9.377  -0.746 -2.0927 -2.2099  0.0184
  749MOL0     H98824   8.526   9.591  -0.845  0.0617 -0.4388 -1.4997
  749MOL0     H98825   8.396   9.562  -0.720  0.8572  0.8663  0.7073
  749MOL0     H98826   8.478   9.381  -0.940 -0.2649 -2.1898  0.5314
  749MOL0     H98827   8.383   9.344  -0.810  2.8461 -1.4501 -2.2632
  749MOL0     H98828   8.259   9.415  -1.037  0.8998  2.6926 -2.1138
  749MOL0     H98829   8.301   9.580  -0.982 -1.3954 -0.2524 -1.3900
  749MOL0     H98830   8.100   9.528  -1.134  1.9234  3.3544  1.4919
  749MOL0     H98831   7.884   9.599  -1.219 -0.0233  2.6923  0.9141
  749MOL0     H98832   7.467   9.470  -1.356 -0.0289  0.2725  1.7191
  749MOL0     H98833   7.254   9.539  -1.432  0.8787  0.8062 -1.4516
  749MOL0     H98834   7.025   9.648  -1.329  2.8224  2.5180  1.8774
  749MOL0     H98835   7.041   9.640  -1.510 -1.7421  0.0322 -1.5735
  749MOL0     H98836   6.922   9.866  -1.535 -0.7213 -0.9257 -1.4477
  749MOL0     H98837   6.911   9.871  -1.359  0.0915  0.0523 -0.6417
  749MOL0     H98838   6.701   9.826  -1.456  2.2334  1.8220 -2.7536
  749MOL0     H98839   6.753   9.673  -1.368  1.8121 -2.7915 -1.7444
  749MOL0     H98840   6.777   9.741  -1.662  0.2472 -1.1157 -1.5232
  749MOL0     H98841   6.836   9.582  -1.603  0.3897  0.0714 -1.4589
  749MOL0     H98842   6.601   9.562  -1.715 -0.5265  1.3745  0.0118
  749MOL0     H98843   6.548   9.692  -1.618 -0.9212 -0.5439 -2.4842
  749MOL0     H98844   6.573   9.539  -1.410 -2.9874 -0.7807  0.4106
  749MOL0     H98845   6.671   9.434  -1.523 -1.3927 -2.5466 -2.4111
  749MOL0     H98846   6.370   9.470  -1.458 -0.0580  2.3151 -1.8811
  749MOL0     H98847   6.417   9.429  -1.635  0.8103 -0.4854 -0.1748
  749MOL0     H98848   6.469   9.253  -1.402  2.4442  1.1290  0.6734
  749MOL0     H98849   6.526   9.251  -1.577 -0.0360  2.1447  0.4174
  749MOL0     H98850   7.306   9.923  -1.251  0.0040 -0.0996 -0.6847
  749MOL0     H98851   7.518   9.859  -1.159  1.4285 -0.8955  0.3638
  749MOL0     H98852   7.709   9.539  -0.835 -1.5877  3.3492 -0.0672
  749MOL0     H98853   7.915   9.466  -0.748 -2.6757 -2.1595 -0.2494
  749MOL0     H98854   9.465  10.020   0.264  1.1964 -0.5662 -1.4289
  749MOL0     H98855   9.691  10.082   0.348 -0.9268 -0.6720 -1.8301
  749MOL0     H98856   9.907  10.467   0.543  0.7063 -0.1539  0.2122
  749MOL0     H98857  10.109  10.568   0.651  2.4145 -0.5660  0.6166
  749MOL0     H98858  10.213  10.623   0.901 -0.5511 -2.2209  1.7522
  749MOL0     H98859  10.301  10.589   0.746 -0.1077  2.3919  0.8417
  749MOL0     H98860  10.390  10.584   1.043  0.2331  1.0301  0.3810
  749MOL0     H98861  10.501  10.537   0.917  1.8799  1.0554  2.6084
  749MOL0     H98862  10.373  10.812   0.942  0.3118 -0.4035  2.2121
  749MOL0     H98863  10.450  10.753   0.795  1.1138 -1.0944 -0.4923
  749MOL0     H98864  10.652  10.712   0.916 -0.8030 -2.1955  2.6845
  749MOL0     H98865  10.620  10.886   0.940  1.6056 -0.3843 -2.9719
  749MOL0     H98866  10.614  10.725   1.331 -2.0017 -0.7815 -0.5825
  749MOL0     H98867  10.092  10.229   0.933  0.0320 -0.1109 -0.9677
  749MOL0     H98868   9.890  10.147   0.826 -1.2316 -0.0404 -1.4877
  750MOL0     O98869   9.985   2.089   7.029 -0.5089 -0.0529 -0.7305
  750MOL0     C98870  10.063   2.159   6.966 -0.5323 -1.4668 -0.4861
  750MOL0     O98871  10.033   2.277   6.905  0.0866 -0.2603  0.3935
  750MOL0     C98872   9.902   2.317   6.877  1.0250  0.2930 -0.6252
  750MOL0     C98873   9.792   2.230   6.871 -0.2032  0.2298  0.1256
  750MOL0     C98874   9.665   2.272   6.830 -0.2896 -0.4022 -0.7430
  750MOL0     C98875   9.639   2.398   6.806 -0.0490 -0.0794  0.0407
  750MOL0     O98876   9.509   2.426   6.780 -0.4685 -0.9182  0.2054
  750MOL0     C98877   9.467   2.560   6.805 -0.3592  0.4079 -0.0644
  750MOL0     C98878   9.319   2.570   6.800  0.9268  0.0060  0.1979
  750MOL0     C98879   9.249   2.474   6.895  0.2185 -0.2202 -0.4361
  750MOL0     C98880   9.099   2.484   6.881  0.5885  0.4847  0.0346
  750MOL0     C98881   9.022   2.373   6.957 -0.1612 -0.2796 -0.0889
  750MOL0     C98882   8.874   2.363   6.923 -0.0472 -0.7066 -0.3921
  750MOL0     C98883   8.803   2.496   6.899  0.2005  0.3179  0.9022
  750MOL0     C98884   8.650   2.476   6.878 -0.3530  0.4708  0.7227
  750MOL0     N98885   8.565   2.463   7.001  0.0985 -0.0060 -0.4214
  750MOL0     C98886   8.567   2.550   7.105  0.0757  0.8957 -0.1108
  750MOL0     C98887   8.504   2.480   7.203 -0.6130  0.0751 -0.0858
  750MOL0     C98888   8.479   2.519   7.346  0.1222 -0.1566  0.6700
  750MOL0     C98889   8.586   2.595   7.422 -0.7032  0.2694  0.6049
  750MOL0     C98890   8.693   2.496   7.472  0.2231  0.1063  0.1493
  750MOL0     C98891   8.819   2.569   7.528  0.2518  0.2308  1.1335
  750MOL0     O98892   8.781   2.669   7.621  0.4437 -0.4461  0.0274
  750MOL0     C98893   8.885   2.745   7.672  0.1768  1.0982  0.2403
  750MOL0     C98894   9.015   2.753   7.624 -0.3469  0.4218 -0.3830
  750MOL0     C98895   9.113   2.849   7.673 -0.0990  0.2238  0.8809
  750MOL0     C98896   9.083   2.942   7.780  0.5703  0.2693 -0.1185
  750MOL0     C98897   9.177   3.037   7.834 -0.6449  0.4123  0.8286
  750MOL0     O98898   9.297   3.036   7.759 -0.1618 -0.3977  0.7896
  750MOL0     C98899   9.414   3.070   7.814 -0.1374  0.6117 -0.5552
  750MOL0     C98900   9.508   2.967   7.835 -0.5730  0.4662  0.3775
  750MOL0     C98901   9.632   2.990   7.896  0.6883  0.9121  0.1482
  750MOL0     C98902   9.669   3.115   7.935 -0.0820 -0.0217  0.0327
  750MOL0     O98903   9.796   3.147   7.986  0.4543  0.0675  0.1962
  750MOL0     C98904   9.858   3.263   7.938 -0.8776 -0.1196  0.0783
  750MOL0     C98905   9.982   3.307   8.025  0.6698 -0.1809 -0.0740
  750MOL0     C98906  10.109   3.240   7.994  0.7235  0.6035  0.3769
  750MOL0     C98907  10.092   3.088   7.989 -0.4089 -0.5505 -0.0034
  750MOL0     C98908  10.228   3.019   7.973  0.3264  0.3621  0.3551
  750MOL0     C98909  10.325   3.051   8.090  0.3106  0.6397 -0.3850
  750MOL0     C98910  10.452   2.968   8.082 -0.8478 -0.4075  0.4494
  750MOL0     C98911  10.554   3.015   8.187 -0.6069 -0.7609  0.4181
  750MOL0    Cl98912  10.701   2.919   8.183  0.0057 -0.0760 -0.3939
  750MOL0     C98913   9.565   3.213   7.934  0.6521  0.0694  0.9696
  750MOL0     C98914   9.449   3.198   7.863 -0.5889 -0.2326  0.3938
  750MOL0     O98915   9.163   3.099   7.934 -0.0153  0.3436  0.5004
  750MOL0     C98916   8.947   2.942   7.823 -0.1191 -0.9329  0.5183
  750MOL0     C98917   8.857   2.852   7.767  0.6528 -0.3285  0.1108
  750MOL0     N98918   8.472   2.357   7.160  0.1018 -0.3496  0.4372
  750MOL0     N98919   8.517   2.349   7.043 -0.3462 -0.2128  0.2094
  750MOL0     C98920   9.748   2.487   6.803  0.1193 -0.2964 -0.0114
  750MOL0     C98921   9.875   2.449   6.841 -0.6934  0.2575  0.2697
  750MOL0     C98922  10.202   2.107   6.968  0.4261 -0.2409  0.2139
  750MOL0     C98923  10.248   2.006   7.066  0.5445  0.0912 -0.0749
  750MOL0     C98924  10.381   1.973   7.081 -0.4415  0.2835  0.6232
  750MOL0     C98925  10.477   2.013   6.992  0.4459 -1.1660  0.2465
  750MOL0     O98926  10.606   1.976   7.026 -0.2508  0.3985  0.1601
  750MOL0     C98927  10.705   2.003   6.924 -0.2320  0.0241  0.2834
  750MOL0     C98928  10.845   1.962   6.974  0.4009  0.3604 -0.2923
  750MOL0     C98929  10.888   2.035   7.102  0.5631 -0.0399 -0.4526
  750MOL0     C98930  11.029   1.994   7.143  0.0670  0.4200 -0.5704
  750MOL0     C98931  11.076   2.051   7.265  0.1203 -0.8109 -0.2236
  750MOL0     C98932  11.118   2.101   7.367 -0.0350 -0.2114 -0.1317
  750MOL0     C98933  10.433   2.107   6.887 -0.0960  0.0680 -0.7152
  750MOL0     C98934  10.300   2.154   6.880  0.3891  0.1545 -0.1912
  750MOL0     H98935   9.786   2.125   6.899 -1.2842  0.1455 -0.3444
  750MOL0     H98936   9.577   2.209   6.829  0.2424 -1.1822  0.3415
  750MOL0     H98937   9.502   2.628   6.727 -1.0954  0.7026 -0.1439
  750MOL0     H98938   9.500   2.582   6.907 -1.3704 -2.2790  0.9365
  750MOL0     H98939   9.277   2.564   6.699 -0.6113 -3.0522  0.9151
  750MOL0     H98940   9.299   2.672   6.836  0.5193 -0.1440  0.4088
  750MOL0     H98941   9.263   2.491   7.002 -2.7743 -0.4242  0.0713
  750MOL0     H98942   9.284   2.377   6.859  1.0542  0.1612 -0.6780
  750MOL0     H98943   9.055   2.579   6.912 -0.1628 -0.5087  2.1850
  750MOL0     H98944   9.089   2.474   6.772  0.1935 -1.0627  0.1936
  750MOL0     H98945   9.034   2.395   7.063  1.2806  0.1470 -0.3143
  750MOL0     H98946   9.071   2.277   6.938  0.5606  0.0558  0.0411
  750MOL0     H98947   8.820   2.323   7.009  0.6223 -0.4925  0.1399
  750MOL0     H98948   8.863   2.295   6.838 -0.7036 -0.8489 -0.1986
  750MOL0     H98949   8.825   2.569   6.977  2.4383  1.1503 -0.4455
  750MOL0     H98950   8.841   2.544   6.809  1.4835 -0.9799  0.7207
  750MOL0     H98951   8.627   2.403   6.800 -0.2605  1.5082 -0.3026
  750MOL0     H98952   8.616   2.575   6.846  0.0057  1.2198  2.5422
  750MOL0     H98953   8.619   2.645   7.116 -0.9387  1.8250 -2.5007
  750MOL0     H98954   8.434   2.438   7.403  0.1207 -0.9671 -0.4533
  750MOL0     H98955   8.397   2.588   7.324  0.3857 -0.0970 -0.1701
  750MOL0     H98956   8.534   2.646   7.503  1.5378  1.9090  1.0896
  750MOL0     H98957   8.618   2.669   7.348  1.1806  0.9444  2.0230
  750MOL0     H98958   8.644   2.418   7.532  0.7704 -1.9771 -1.9517
  750MOL0     H98959   8.716   2.446   7.377  0.3294 -1.0817  0.7738
  750MOL0     H98960   8.889   2.600   7.450 -0.6549 -3.0690 -1.2314
  750MOL0     H98961   8.882   2.496   7.580 -0.4838 -0.5257  0.9941
  750MOL0     H98962   9.051   2.688   7.545  2.4183  0.6176  0.6342
  750MOL0     H98963   9.210   2.842   7.626  0.7270 -1.6620  2.6870
  750MOL0     H98964   9.484   2.866   7.801 -1.2422  0.7153  0.0854
  750MOL0     H98965   9.710   2.917   7.916 -0.0722  0.2148  0.6272
  750MOL0     H98966   9.782   3.342   7.945 -2.4514 -1.5100 -0.5441
  750MOL0     H98967   9.896   3.255   7.835 -0.4721  0.6960  0.1531
  750MOL0     H98968   9.949   3.304   8.129  1.1642  1.1194  0.1482
  750MOL0     H98969   9.990   3.416   8.013 -0.8275 -0.0850 -0.3772
  750MOL0     H98970  10.183   3.274   8.066 -0.2594 -1.5717  2.5474
  750MOL0     H98971  10.125   3.277   7.892 -2.3384  1.6485  0.1695
  750MOL0     H98972  10.045   3.052   8.081  0.0051 -1.8134 -0.2551
  750MOL0     H98973  10.029   3.048   7.909  2.4905 -2.5641 -1.4593
  750MOL0     H98974  10.278   3.039   7.878  0.1935  0.2446  0.2591
  750MOL0     H98975  10.217   2.910   7.971 -1.4545  0.5267 -0.6998
  750MOL0     H98976  10.284   3.033   8.190  3.4699  0.6245  1.0074
  750MOL0     H98977  10.357   3.155   8.088 -0.6614  1.0458  2.0304
  750MOL0     H98978  10.423   2.864   8.099 -1.2600 -0.6577 -1.6015
  750MOL0     H98979  10.501   2.981   7.985  0.6325  1.0246  1.3319
  750MOL0     H98980  10.525   2.999   8.291 -1.5624 -1.3006  0.0723
  750MOL0     H98981  10.580   3.122   8.181 -0.0604 -0.8519  1.1077
  750MOL0     H98982   9.587   3.313   7.969  1.5537  1.0517 -2.0862
  750MOL0     H98983   9.374   3.273   7.844 -0.4149 -0.6053 -2.0513
  750MOL0     H98984   8.914   3.018   7.893 -0.1465  0.6123 -1.1014
  750MOL0     H98985   8.751   2.853   7.789 -0.3663  2.6934 -3.8743
  750MOL0     H98986   9.737   2.588   6.762 -1.0463 -0.5778 -0.4532
  750MOL0     H98987   9.952   2.525   6.842 -0.2576 -0.1732  2.0616
  750MOL0     H98988  10.182   1.974   7.146 -1.4337 -0.8449 -1.9813
  750MOL0     H98989  10.405   1.906   7.162  0.1062  1.3823  1.3795
  750MOL0     H98990  10.710   2.111   6.908  1.2285  0.7434  4.4417
  750MOL0     H98991  10.690   1.946   6.832 -1.2649 -1.6859  1.4512
  750MOL0     H98992  10.852   1.856   6.999  1.2836  0.8061  1.5454
  750MOL0     H98993  10.913   1.980   6.891 -0.5170 -1.5875 -1.5315
  750MOL0     H98994  10.819   2.014   7.185  1.0206 -0.4862 -0.1720
  750MOL0     H98995  10.884   2.143   7.089  3.2258  0.0306 -1.3068
  750MOL0     H98996  11.033   1.885   7.156 -0.1431  0.3192 -1.2985
  750MOL0     H98997  11.102   2.018   7.064  0.2383 -4.3101 -2.2094
  750MOL0     H98998  11.153   2.138   7.460  1.2621 -1.0115 -0.2826
  750MOL0     H98999  10.509   2.136   6.816 -0.9659  0.4045 -1.5172
  750MOL0     H99000  10.271   2.224   6.802 -0.3122 -0.8203 -0.8363
  751MOL0     O99001   7.964   1.908   9.685 -0.2426  0.0179 -0.2922
  751MOL0     C99002   7.917   1.803   9.737  0.0735 -0.3755  0.1210
  751MOL0     O99003   7.929   1.683   9.676  0.1099  0.0127 -0.3446
  751MOL0     C99004   8.013   1.683   9.566  0.3101  0.7363  0.0056
  751MOL0     C99005   8.144   1.637   9.571  0.4536  0.4250 -0.0132
  751MOL0     C99006   8.228   1.658   9.452 -0.2643 -0.1906 -0.1826
  751MOL0     C99007   8.192   1.721   9.332  0.3174  0.0511  0.5425
  751MOL0     O99008   8.278   1.746   9.232  0.4262  0.1802 -0.4462
  751MOL0     C99009   8.237   1.781   9.101 -0.3305  0.0663  0.0703
  751MOL0     C99010   8.357   1.767   8.995  0.0522  0.1313  0.1259
  751MOL0     C99011   8.448   1.888   8.993  1.0949 -0.5316  0.4060
  751MOL0     C99012   8.388   2.003   8.911 -0.7721  0.1122  0.4760
  751MOL0     C99013   8.432   1.999   8.761 -0.2767 -0.1728  0.1150
  751MOL0     C99014   8.350   2.084   8.669 -0.5913  0.3618  0.0648
  751MOL0     C99015   8.371   2.229   8.687 -0.5085 -0.5591  0.6821
  751MOL0     C99016   8.324   2.306   8.554 -0.7403  0.1833  0.1210
  751MOL0     N99017   8.424   2.314   8.451  0.3865  0.3197  0.4605
  751MOL0     C99018   8.553   2.362   8.463 -0.0607  0.9237  0.2090
  751MOL0     C99019   8.599   2.362   8.332  0.1801 -0.0791  0.0361
  751MOL0     C99020   8.743   2.396   8.295 -0.6465 -0.3509  0.0652
  751MOL0     C99021   8.770   2.550   8.280 -0.4375  0.5842  0.3163
  751MOL0     C99022   8.675   2.638   8.208  0.1839  0.2095 -0.1161
  751MOL0     C99023   8.657   2.593   8.058 -0.1672 -0.4565  0.8768
  751MOL0     O99024   8.572   2.690   7.992 -0.0291  0.6362  0.4671
  751MOL0     C99025   8.435   2.691   8.021 -0.1805 -0.0782 -0.1634
  751MOL0     C99026   8.362   2.576   8.048  0.3827  0.1991  0.2227
  751MOL0     C99027   8.224   2.588   8.078 -0.4999 -0.5579  0.3159
  751MOL0     C99028   8.159   2.716   8.072  0.5882 -0.8311  0.4371
  751MOL0     C99029   8.014   2.736   8.099  0.6856 -0.1513  0.3493
  751MOL0     O99030   7.934   2.632   8.135 -0.2989 -0.6390  0.1696
  751MOL0     C99031   7.813   2.644   8.195  0.4437 -0.7278  0.5227
  751MOL0     C99032   7.757   2.754   8.260 -0.5127  0.2105 -0.5342
  751MOL0     C99033   7.631   2.737   8.327 -0.4650 -0.8102 -0.6862
  751MOL0     C99034   7.566   2.614   8.317 -0.7452 -0.1138 -0.1516
  751MOL0     O99035   7.441   2.618   8.376  0.1079 -0.1224  0.7979
  751MOL0     C99036   7.347   2.518   8.339 -0.5943  0.1857 -0.2042
  751MOL0     C99037   7.225   2.557   8.426 -0.2233 -0.3868  0.0216
  751MOL0     C99038   7.168   2.701   8.401  0.0488  0.9430 -0.1271
  751MOL0     C99039   7.050   2.703   8.501 -0.1634  0.5840  0.0352
  751MOL0     C99040   6.920   2.681   8.431 -0.3756 -0.1046 -0.2193
  751MOL0     C99041   6.819   2.636   8.532  0.3669 -0.3263 -0.3001
  751MOL0     C99042   6.682   2.590   8.482 -0.1560 -0.3653  0.5105
  751MOL0     C99043   6.685   2.457   8.408 -0.0030 -0.4785  0.6891
  751MOL0    Cl99044   6.782   2.326   8.486  0.4081 -0.2153  0.0338
  751MOL0     C99045   7.625   2.501   8.250  0.7483  0.5557  0.2259
  751MOL0     C99046   7.744   2.523   8.189 -0.5319  0.1627 -0.4205
  751MOL0     O99047   7.982   2.857   8.079 -0.1313  0.3462  0.7275
  751MOL0     C99048   8.246   2.826   8.029  0.0433  0.3978 -0.9935
  751MOL0     C99049   8.373   2.811   8.002 -0.2294  0.9549 -0.0288
  751MOL0     N99050   8.493   2.326   8.246 -0.0346  1.0727  0.4183
  751MOL0     N99051   8.398   2.284   8.322 -0.5092  0.6862  0.1974
  751MOL0     C99052   8.057   1.754   9.326 -0.4599  0.3501  0.4657
  751MOL0     C99053   7.971   1.744   9.442  0.1585 -0.4966 -0.2313
  751MOL0     C99054   7.846   1.823   9.868  0.5610  0.3061  0.2570
  751MOL0     C99055   7.790   1.708   9.924 -0.6412 -0.2813 -0.2775
  751MOL0     C99056   7.712   1.714  10.045 -0.2427 -0.4687  0.3519
  751MOL0     C99057   7.694   1.845  10.107 -0.0150 -0.3461  1.2638
  751MOL0     O99058   7.627   1.839  10.231 -0.5423  0.3834 -0.4326
  751MOL0     C99059   7.613   1.963  10.311 -0.3623 -0.3535 -0.2435
  751MOL0     C99060   7.724   1.972  10.413 -0.2584 -0.2238  0.0201
  751MOL0     C99061   7.712   2.092  10.514  0.2131  0.9261  0.8676
  751MOL0     C99062   7.787   2.073  10.644  0.0776  0.1861 -0.1885
  751MOL0     C99063   7.934   2.050  10.626 -0.0060 -1.0476 -0.0351
  751MOL0     C99064   8.056   2.035  10.618  0.7407  0.1759  0.4471
  751MOL0     C99065   7.751   1.958  10.046  0.3848  1.1564  0.2730
  751MOL0     C99066   7.828   1.947   9.935  0.3368  0.0909  0.7137
  751MOL0     H99067   8.171   1.577   9.657 -1.3419 -1.6657 -0.7732
  751MOL0     H99068   8.333   1.632   9.462  0.1102  0.4789 -2.0470
  751MOL0     H99069   8.195   1.881   9.101 -3.5839 -1.1773  0.3588
  751MOL0     H99070   8.154   1.718   9.067 -0.1696  0.8344 -1.8951
  751MOL0     H99071   8.318   1.744   8.895  1.6436  1.4829 -0.8550
  751MOL0     H99072   8.421   1.684   9.025 -0.8642 -0.1567  1.3514
  751MOL0     H99073   8.542   1.852   8.950  1.1505  0.3630 -0.2567
  751MOL0     H99074   8.472   1.922   9.094  1.9096  1.6339 -0.4582
  751MOL0     H99075   8.278   2.003   8.912 -0.7893  1.7204  0.9288
  751MOL0     H99076   8.417   2.101   8.949 -1.0924 -0.1683  1.4790
  751MOL0     H99077   8.423   1.896   8.724 -1.9655  0.0743 -0.2309
  751MOL0     H99078   8.538   2.024   8.748 -0.9286  1.9684 -1.5345
  751MOL0     H99079   8.243   2.058   8.670 -0.6755  0.6826 -0.2316
  751MOL0     H99080   8.377   2.058   8.566 -0.1552 -0.8024  0.4539
  751MOL0     H99081   8.303   2.252   8.770 -1.9830 -0.8787 -0.3961
  751MOL0     H99082   8.474   2.254   8.716 -0.3249 -1.5177  0.8690
  751MOL0     H99083   8.295   2.409   8.578  0.9365  0.8091 -0.4275
  751MOL0     H99084   8.238   2.256   8.507 -0.1218  0.0841 -0.9412
  751MOL0     H99085   8.596   2.379   8.561  2.0240 -0.8767 -0.3210
  751MOL0     H99086   8.758   2.350   8.197 -1.3740 -0.6517  0.0923
  751MOL0     H99087   8.813   2.354   8.368 -0.3267  0.2847  0.1378
  751MOL0     H99088   8.870   2.563   8.237 -0.1858 -1.3346  0.2429
  751MOL0     H99089   8.762   2.586   8.383  0.1685 -0.6285  0.8014
  751MOL0     H99090   8.583   2.647   8.266  0.5791 -0.8083  0.6834
  751MOL0     H99091   8.703   2.744   8.219  2.0702 -0.5435  5.2703
  751MOL0     H99092   8.625   2.489   8.054 -2.0490  0.1337 -2.5375
  751MOL0     H99093   8.753   2.595   8.006 -1.3851 -1.9529 -1.6244
  751MOL0     H99094   8.405   2.476   8.045  1.9546  0.8373 -2.9052
  751MOL0     H99095   8.166   2.508   8.123  0.2501 -0.1405  2.0943
  751MOL0     H99096   7.812   2.846   8.272 -0.0463 -0.0284 -0.7928
  751MOL0     H99097   7.597   2.836   8.353  3.7642  0.7614 -0.2503
  751MOL0     H99098   7.379   2.417   8.368 -1.0696  0.2512  0.5990
  751MOL0     H99099   7.338   2.536   8.232  1.2438  0.3685 -0.3570
  751MOL0     H99100   7.252   2.523   8.526 -1.9708 -1.8952  0.0439
  751MOL0     H99101   7.147   2.484   8.403  0.6730 -1.7039  1.0747
  751MOL0     H99102   7.149   2.710   8.294  0.7361 -2.2957 -0.6482
  751MOL0     H99103   7.241   2.775   8.436 -0.2081  0.5964  1.2286
  751MOL0     H99104   7.058   2.630   8.581 -3.0431 -0.5442 -0.5851
  751MOL0     H99105   7.046   2.797   8.556  0.5732  0.0194  1.0808
  751MOL0     H99106   6.939   2.600   8.360  3.6792 -0.7683  1.3719
  751MOL0     H99107   6.867   2.769   8.391 -0.3470 -0.0597 -0.1571
  751MOL0     H99108   6.814   2.712   8.611 -1.8917  2.9101 -3.2877
  751MOL0     H99109   6.861   2.550   8.586  4.1899  0.5888 -1.5002
  751MOL0     H99110   6.609   2.578   8.563 -0.6600 -3.4912 -0.2828
  751MOL0     H99111   6.637   2.663   8.413  1.1068 -0.8888 -0.9262
  751MOL0     H99112   6.720   2.481   8.307 -1.7407 -2.4223 -0.4666
  751MOL0     H99113   6.583   2.418   8.401 -0.3696  0.4793  0.6526
  751MOL0     H99114   7.576   2.404   8.248 -1.1002  1.2846  3.3740
  751MOL0     H99115   7.781   2.439   8.131 -0.7151  0.5322 -1.0809
  751MOL0     H99116   8.205   2.926   8.023 -1.7159 -0.3255 -1.8793
  751MOL0     H99117   8.431   2.900   7.980 -1.2904  2.1832  1.8838
  751MOL0     H99118   8.017   1.807   9.240  0.9763 -0.5516 -0.8090
  751MOL0     H99119   7.871   1.784   9.428  1.0417  1.3302 -1.6965
  751MOL0     H99120   7.817   1.612   9.880  3.0957 -0.0476  1.1097
  751MOL0     H99121   7.684   1.628  10.105 -1.1563  0.0596  0.7053
  751MOL0     H99122   7.520   1.953  10.369 -0.9635 -0.6106 -1.2275
  751MOL0     H99123   7.609   2.051  10.245  0.3508  1.4738  2.0013
  751MOL0     H99124   7.723   1.878  10.468 -1.4572  0.5957  1.4757
  751MOL0     H99125   7.820   1.982  10.362  1.0494 -0.6179  2.2642
  751MOL0     H99126   7.608   2.097  10.548  0.2725 -0.0174  1.2071
  751MOL0     H99127   7.732   2.184  10.459  1.1720  0.1381 -0.1387
  751MOL0     H99128   7.772   2.154  10.716  0.4075  0.5905 -0.5634
  751MOL0     H99129   7.741   1.989  10.695 -0.0955  0.5504  0.2556
  751MOL0     H99130   8.163   2.032  10.610  0.6980  1.5026 -1.4897
  751MOL0     H99131   7.750   2.055  10.093 -0.0308  2.2943 -1.9415
  751MOL0     H99132   7.861   2.037   9.883 -1.1672  1.4290  2.0014
  752MOL0     O99133   7.184   2.805   8.765  0.9954  0.4726 -0.4478
  752MOL0     C99134   7.254   2.786   8.864 -0.8180 -0.3280 -0.3842
  752MOL0     O99135   7.213   2.743   8.986 -0.0745 -0.0344 -0.5492
  752MOL0     C99136   7.081   2.715   9.020 -0.7371 -0.1092  0.6315
  752MOL0     C99137   6.971   2.790   8.983  0.1966  0.5145  0.6020
  752MOL0     C99138   6.844   2.753   9.032  0.7272 -0.8252 -0.3191
  752MOL0     C99139   6.818   2.647   9.126 -0.2668 -0.2884  0.2797
  752MOL0     O99140   6.690   2.611   9.172 -0.4105  0.2403  0.5391
  752MOL0     C99141   6.570   2.663   9.106 -0.0645  0.0529  0.1520
  752MOL0     C99142   6.444   2.594   9.160  1.1937 -0.4622 -0.0758
  752MOL0     C99143   6.434   2.440   9.132  0.0532  0.1488 -0.5742
  752MOL0     C99144   6.295   2.377   9.147 -0.3381 -0.0857  0.3102
  752MOL0     C99145   6.279   2.274   9.253  0.3465  0.8978 -0.2151
  752MOL0     C99146   6.372   2.154   9.226  0.1374 -0.0417  0.0186
  752MOL0     C99147   6.353   2.047   9.336 -0.7949 -0.5145 -0.1652
  752MOL0     C99148   6.216   1.989   9.362 -0.1651 -0.4240  0.4929
  752MOL0     N99149   6.220   1.856   9.417 -0.3693  0.2974 -0.2800
  752MOL0     C99150   6.202   1.830   9.548  0.4106 -0.4537  0.1664
  752MOL0     C99151   6.207   1.698   9.563 -0.3137  1.0391  0.2202
  752MOL0     C99152   6.177   1.624   9.685 -0.9558 -0.4188  0.0403
  752MOL0     C99153   6.029   1.635   9.724 -0.7972  0.2809 -0.3669
  752MOL0     C99154   6.011   1.565   9.859  0.1208  0.6852 -0.1773
  752MOL0     C99155   5.883   1.596   9.935 -0.4644 -0.2510  1.1636
  752MOL0     O99156   5.779   1.550   9.852 -0.2462  0.1606  0.2513
  752MOL0     C99157   5.647   1.547   9.911 -0.4963  0.3884  0.0020
  752MOL0     C99158   5.612   1.614  10.039  0.2820  0.3224  0.8282
  752MOL0     C99159   5.482   1.590  10.082  0.1571 -0.2387  0.0889
  752MOL0     C99160   5.381   1.522  10.011  0.0923 -0.7320 -0.5411
  752MOL0     C99161   5.243   1.506  10.057  0.2030 -0.0210  1.6661
  752MOL0     O99162   5.153   1.463   9.960  0.1710 -0.9550  0.5333
  752MOL0     C99163   5.014   1.471   9.970  0.8750 -0.0608 -0.1552
  752MOL0     C99164   4.935   1.456  10.091 -0.2990  0.2933 -0.3852
  752MOL0     C99165   4.792   1.462  10.086  0.1989  1.4490  0.3183
  752MOL0     C99166   4.721   1.490   9.971 -0.3661 -0.7075  0.1680
  752MOL0     O99167   4.582   1.488   9.975 -1.1283 -0.1462 -0.9794
  752MOL0     C99168   4.517   1.512   9.849 -0.7860  0.1265  0.2812
  752MOL0     C99169   4.371   1.486   9.860  1.1669  0.8310  0.5352
  752MOL0     C99170   4.298   1.577   9.958 -0.0897  0.3955  0.5236
  752MOL0     C99171   4.333   1.727   9.949  0.7316 -0.6314  0.6796
  752MOL0     C99172   4.342   1.776   9.802 -0.0981  0.2198 -0.1137
  752MOL0     C99173   4.245   1.887   9.763 -0.5992 -0.1825 -0.2257
  752MOL0     C99174   4.101   1.854   9.791 -0.3757 -0.6003  0.8520
  752MOL0     C99175   4.007   1.964   9.729 -0.4733 -0.0088 -0.5202
  752MOL0    Cl99176   4.045   2.128   9.787  0.2462  0.3314  0.0310
  752MOL0     C99177   4.802   1.526   9.856 -0.8632  0.2089 -0.2901
  752MOL0     C99178   4.942   1.507   9.853  1.2641 -0.6139  0.0168
  752MOL0     O99179   5.207   1.539  10.166 -0.3928  0.4783 -0.0763
  752MOL0     C99180   5.420   1.454   9.892  0.8089  0.4764  0.2904
  752MOL0     C99181   5.553   1.469   9.841  0.4921 -0.4234 -0.6018
  752MOL0     N99182   6.257   1.646   9.446  0.4874  0.0816  0.3520
  752MOL0     N99183   6.252   1.741   9.361  0.2654  0.6201 -0.3636
  752MOL0     C99184   6.935   2.586   9.162  0.7211  0.3382  0.5655
  752MOL0     C99185   7.059   2.617   9.105  0.0707  0.6041 -0.4453
  752MOL0     C99186   7.402   2.812   8.853  0.5525  0.5256 -0.1865
  752MOL0     C99187   7.498   2.792   8.960  0.8453 -0.3084  0.4486
  752MOL0     C99188   7.629   2.819   8.944 -0.4669  0.0230 -0.9582
  752MOL0     C99189   7.682   2.859   8.822  0.0412 -0.0136  0.5265
  752MOL0     O99190   7.814   2.878   8.800  0.1088  0.2576 -0.8052
  752MOL0     C99191   7.900   2.899   8.914 -0.8706 -0.2385 -0.0733
  752MOL0     C99192   8.045   2.924   8.878  0.1563 -0.7704 -0.4418
  752MOL0     C99193   8.060   3.068   8.824 -0.1301  0.7106  0.3613
  752MOL0     C99194   8.205   3.093   8.772 -0.1760 -0.5811  0.2650
  752MOL0     C99195   8.219   3.239   8.753  0.5041  0.0793 -0.5508
  752MOL0     C99196   8.217   3.360   8.728 -0.6730 -0.0373 -0.0480
  752MOL0     C99197   7.594   2.880   8.719 -0.8245 -0.6806 -0.2099
  752MOL0     C99198   7.452   2.868   8.735  0.0923  1.2542 -0.4545
  752MOL0     H99199   6.988   2.872   8.914  2.2752  0.1656  0.6420
  752MOL0     H99200   6.763   2.805   8.982  0.6368 -2.4583 -1.9620
  752MOL0     H99201   6.568   2.674   8.997 -1.6665 -1.8797 -0.0709
  752MOL0     H99202   6.559   2.769   9.133 -1.6060  0.0281 -0.2811
  752MOL0     H99203   6.350   2.634   9.121 -0.1557 -0.2848  3.0625
  752MOL0     H99204   6.436   2.610   9.268  1.3593  1.4606 -0.3168
  752MOL0     H99205   6.512   2.409   9.203  0.0088  0.9500 -0.1567
  752MOL0     H99206   6.458   2.404   9.032 -1.3485 -2.3424 -0.0865
  752MOL0     H99207   6.222   2.453   9.176 -2.3574 -1.7382 -0.1578
  752MOL0     H99208   6.277   2.340   9.045  0.5648 -1.3254  0.5887
  752MOL0     H99209   6.180   2.228   9.246  1.1485 -0.8613 -0.4760
  752MOL0     H99210   6.290   2.324   9.350 -1.5262  0.2110  0.4163
  752MOL0     H99211   6.476   2.187   9.227 -0.4298  1.9982 -1.2187
  752MOL0     H99212   6.354   2.104   9.131 -1.0788 -0.7886  0.6219
  752MOL0     H99213   6.424   1.966   9.314 -1.2572 -1.0640  0.3129
  752MOL0     H99214   6.392   2.089   9.429  1.1065 -1.5466 -0.4359
  752MOL0     H99215   6.173   1.977   9.262 -3.6646 -1.6492  1.9668
  752MOL0     H99216   6.155   2.062   9.417 -0.5028  0.1874 -0.6529
  752MOL0     H99217   6.167   1.897   9.625  0.7551 -0.6269  0.4756
  752MOL0     H99218   6.244   1.652   9.766 -2.6566  1.3793  0.8984
  752MOL0     H99219   6.204   1.518   9.674 -0.3678 -0.4216  1.3309
  752MOL0     H99220   5.958   1.594   9.652 -2.0664  2.2975 -0.3367
  752MOL0     H99221   6.004   1.740   9.738  0.4815  0.4325  1.1715
  752MOL0     H99222   6.008   1.458   9.834 -3.8592  1.3823 -3.9610
  752MOL0     H99223   6.090   1.588   9.932 -0.0315  0.7281 -0.0237
  752MOL0     H99224   5.871   1.704   9.947  1.9907  0.6004 -2.6272
  752MOL0     H99225   5.883   1.540  10.030 -0.5884 -1.1454  0.6487
  752MOL0     H99226   5.689   1.661  10.099  0.1241  1.3771  0.2335
  752MOL0     H99227   5.460   1.641  10.176  1.0737  1.5653 -0.6275
  752MOL0     H99228   4.984   1.438  10.186 -0.7638  1.3768  0.0783
  752MOL0     H99229   4.727   1.459  10.172 -2.5253  1.2522 -1.6195
  752MOL0     H99230   4.563   1.441   9.779  1.7944  1.2122  0.7685
  752MOL0     H99231   4.538   1.612   9.812 -0.0897 -1.0915 -2.9625
  752MOL0     H99232   4.356   1.381   9.887  0.6771  0.1504 -2.1814
  752MOL0     H99233   4.327   1.504   9.762 -0.6295  0.3548  1.2131
  752MOL0     H99234   4.320   1.549  10.062  0.4105  0.4531  0.4381
  752MOL0     H99235   4.190   1.571   9.943 -0.1941  2.2361  0.3489
  752MOL0     H99236   4.264   1.790  10.005 -0.0154 -0.4204 -0.4446
  752MOL0     H99237   4.428   1.742  10.002  0.3329 -3.7517  2.5526
  752MOL0     H99238   4.345   1.697   9.726  0.9785 -1.7834  1.8804
  752MOL0     H99239   4.436   1.832   9.806 -0.1349  0.2212  1.7124
  752MOL0     H99240   4.259   1.907   9.656  0.3015 -0.7545 -0.2236
  752MOL0     H99241   4.274   1.976   9.820 -1.3923 -0.0261 -0.0460
  752MOL0     H99242   4.068   1.761   9.745 -0.9271 -1.3818  2.7385
  752MOL0     H99243   4.090   1.851   9.900 -1.1029  3.2387  1.0278
  752MOL0     H99244   3.906   1.926   9.744  0.5836 -3.2149 -0.5772
  752MOL0     H99245   4.013   1.969   9.620 -1.1801 -0.7213 -0.6007
  752MOL0     H99246   4.758   1.554   9.761 -1.8941  2.2879  0.7520
  752MOL0     H99247   4.995   1.518   9.759 -0.2375  0.0342 -0.7856
  752MOL0     H99248   5.345   1.411   9.827 -0.3318  1.6202  0.8141
  752MOL0     H99249   5.567   1.420   9.745 -1.5258 -0.8288 -0.7303
  752MOL0     H99250   6.939   2.508   9.237 -0.7675 -0.9664 -0.6442
  752MOL0     H99251   7.156   2.580   9.136  1.4851  2.1644 -2.7443
  752MOL0     H99252   7.456   2.751   9.051  0.6195 -0.0881  0.4434
  752MOL0     H99253   7.698   2.814   9.028  0.2585  4.3836 -1.0500
  752MOL0     H99254   7.907   2.802   8.963  0.1440  0.3815  1.0686
  752MOL0     H99255   7.857   2.967   8.988 -0.9879 -1.8396  1.4016
  752MOL0     H99256   8.100   2.903   8.970 -2.6492 -2.4959  0.9996
  752MOL0     H99257   8.082   2.847   8.810  1.1417 -0.8526  0.1631
  752MOL0     H99258   8.025   3.136   8.903 -1.2769  0.4377  0.0948
  752MOL0     H99259   7.997   3.086   8.737 -0.3188 -0.1874  0.3076
  752MOL0     H99260   8.274   3.066   8.853 -1.3197  0.2626  1.5643
  752MOL0     H99261   8.228   3.053   8.673 -0.1342 -0.2638  0.1442
  752MOL0     H99262   8.233   3.464   8.706 -1.0869  0.0373 -0.0190
  752MOL0     H99263   7.629   2.907   8.620 -2.0285 -2.2503 -1.1234
  752MOL0     H99264   7.389   2.888   8.649 -0.7602  2.3596  0.3949
  753MOL0     O99265   0.622   0.403   0.548  0.4730 -0.4551 -0.4277
  753MOL0     C99266   0.590   0.375   0.662 -0.1694 -0.1421 -1.3521
  753MOL0     O99267   0.678   0.390   0.772  0.0721 -0.1355  0.1512
  753MOL0     C99268   0.805   0.423   0.739  0.7724 -0.7916  0.2435
  753MOL0     C99269   0.895   0.331   0.687  0.4887 -1.0309  0.0357
  753MOL0     C99270   1.032   0.370   0.669  0.2670 -0.1277 -0.0814
  753MOL0     C99271   1.062   0.504   0.686 -0.7797 -0.0272 -0.8728
  753MOL0     O99272   1.189   0.561   0.667  0.1203  0.2634  0.1905
  753MOL0     C99273   1.262   0.501   0.562 -0.9508 -0.3959 -0.5195
  753MOL0     C99274   1.394   0.562   0.553 -0.6433  0.0422 -0.3076
  753MOL0     C99275   1.439   0.553   0.406 -0.6538  0.0581  0.0954
  753MOL0     C99276   1.386   0.667   0.315  0.4324  0.4605 -0.6178
  753MOL0     C99277   1.456   0.672   0.177  0.3158 -0.1040 -0.0640
  753MOL0     C99278   1.425   0.801   0.101 -0.5553 -0.7034  0.0124
  753MOL0     C99279   1.472   0.790  -0.040  0.2648 -0.0705  0.0329
  753MOL0     C99280   1.462   0.930  -0.112 -0.7535  0.7625 -0.0175
  753MOL0     N99281   1.334   0.981  -0.155 -0.1276  0.4861 -0.4386
  753MOL0     C99282   1.248   0.918  -0.245  0.6005 -0.4411  0.3881
  753MOL0     C99283   1.161   1.005  -0.284 -0.1633  0.3632  0.0899
  753MOL0     C99284   1.060   0.984  -0.395  0.4985  0.5700 -0.2096
  753MOL0     C99285   0.968   0.859  -0.379 -0.1269  0.2474 -0.0890
  753MOL0     C99286   0.880   0.853  -0.261  0.5532 -1.2789  0.0716
  753MOL0     C99287   0.760   0.765  -0.291  0.1257 -0.6661 -0.1638
  753MOL0     O99288   0.771   0.629  -0.248  0.2682 -0.2439 -0.0011
  753MOL0     C99289   0.661   0.552  -0.225  0.4525 -0.2067 -0.0046
  753MOL0     C99290   0.692   0.430  -0.150 -0.6390 -0.3580 -0.2638
  753MOL0     C99291   0.582   0.351  -0.113 -1.4201  0.9974 -0.2301
  753MOL0     C99292   0.452   0.391  -0.148  0.4994  0.0322  0.0721
  753MOL0     C99293   0.328   0.314  -0.099  0.3907  0.6154  0.2440
  753MOL0     O99294   0.205   0.364  -0.137 -0.0687  0.0442 -0.3395
  753MOL0     C99295   0.096   0.285  -0.109 -0.2760 -0.2336 -0.6209
  753MOL0     C99296  -0.004   0.352  -0.042  0.2302 -0.0268 -1.0872
  753MOL0     C99297  -0.132   0.291  -0.023 -0.3870 -0.0522 -0.0209
  753MOL0     C99298  -0.157   0.168  -0.070 -0.8711 -0.3776  0.1653
  753MOL0     O99299  -0.272   0.093  -0.068  0.5029 -1.0137  0.1722
  753MOL0     C99300  -0.394   0.164  -0.025 -0.2543  0.1921 -0.4214
  753MOL0     C99301  -0.515   0.079  -0.043  1.0720  0.4479 -0.5602
  753MOL0     C99302  -0.552   0.093  -0.195 -0.3115 -0.1693  0.3221
  753MOL0     C99303  -0.688   0.036  -0.224  0.0648 -0.1849 -0.5594
  753MOL0     C99304  -0.725   0.020  -0.367  0.1328 -0.4161 -0.6564
  753MOL0     C99305  -0.882   0.005  -0.371 -0.4215  0.5379  0.1843
  753MOL0     C99306  -0.921  -0.022  -0.516 -0.5195 -0.7271 -0.3030
  753MOL0     C99307  -1.069  -0.019  -0.538  0.6815  0.1977  0.2404
  753MOL0    Cl99308  -1.101  -0.086  -0.700 -0.3211 -0.0662  0.4999
  753MOL0     C99309  -0.051   0.094  -0.122 -0.3692  0.5312  0.3447
  753MOL0     C99310   0.070   0.152  -0.148  0.2090 -0.1487  0.1417
  753MOL0     O99311   0.345   0.208  -0.033  0.0729 -0.3846 -0.1292
  753MOL0     C99312   0.433   0.495  -0.233  0.4650 -0.8315 -0.9311
  753MOL0     C99313   0.534   0.577  -0.278 -0.0826  0.0308  0.1082
  753MOL0     N99314   1.189   1.121  -0.219 -0.2989  0.7947  0.1774
  753MOL0     N99315   1.294   1.107  -0.152  0.4979 -0.4829  0.0637
  753MOL0     C99316   0.972   0.603   0.701  0.4362 -0.1176 -0.4499
  753MOL0     C99317   0.840   0.563   0.736  0.4422 -0.0735  0.0850
  753MOL0     C99318   0.455   0.320   0.700  0.2652  0.4125 -0.2727
  753MOL0     C99319   0.416   0.314   0.833 -0.3807 -0.6512  0.2648
  753MOL0     C99320   0.291   0.261   0.860 -0.0477  0.4834 -0.3895
  753MOL0     C99321   0.203   0.211   0.764 -0.0758 -0.5627  0.0894
  753MOL0     O99322   0.084   0.155   0.804 -0.7305 -0.2780 -0.8584
  753MOL0     C99323  -0.013   0.123   0.705 -0.1482 -0.2092 -0.4964
  753MOL0     C99324  -0.143   0.101   0.781  0.6637  0.0028  0.1505
  753MOL0     C99325  -0.122  -0.011   0.874 -0.4380  0.2039 -0.1791
  753MOL0     C99326  -0.241  -0.043   0.967 -0.0132  0.0036 -0.1807
  753MOL0     C99327  -0.368  -0.006   0.911 -0.2514 -0.2423 -0.2208
  753MOL0     C99328  -0.463   0.038   0.855  0.1789  0.5314 -0.4577
  753MOL0     C99329   0.246   0.225   0.629 -0.1949 -0.8456 -0.3665
  753MOL0     C99330   0.369   0.279   0.598 -0.5521 -0.0909  0.8841
  753MOL0     H99331   0.873   0.226   0.670 -2.0755 -0.5780  0.0540
  753MOL0     H99332   1.104   0.292   0.648 -1.6016 -2.3783  1.4803
  753MOL0     H99333   1.202   0.518   0.472 -0.9406  0.1197 -0.4345
  753MOL0     H99334   1.277   0.394   0.579  2.0257  0.4060  3.0470
  753MOL0     H99335   1.464   0.515   0.623 -0.8482 -0.6798 -0.5714
  753MOL0     H99336   1.397   0.668   0.580  0.8855 -0.1792  0.5465
  753MOL0     H99337   1.428   0.451   0.369  2.8796 -0.8242  1.0795
  753MOL0     H99338   1.548   0.564   0.396 -0.5583  0.1419  1.1049
  753MOL0     H99339   1.279   0.656   0.296  0.4364  0.2565 -0.5258
  753MOL0     H99340   1.404   0.759   0.370  1.5595  0.5771 -1.1302
  753MOL0     H99341   1.403   0.594   0.121 -0.4721  0.7615 -0.5615
  753MOL0     H99342   1.565   0.664   0.176  0.2337 -1.3940 -0.2472
  753MOL0     H99343   1.480   0.874   0.161 -0.3386 -1.3815  0.6487
  753MOL0     H99344   1.320   0.831   0.098  0.3022  2.7932  0.2183
  753MOL0     H99345   1.576   0.757  -0.043  0.6101  0.4487  3.0742
  753MOL0     H99346   1.410   0.713  -0.088 -0.5596  1.1224 -0.8742
  753MOL0     H99347   1.527   0.908  -0.196 -1.9832  1.1314 -1.0957
  753MOL0     H99348   1.505   1.007  -0.047  1.8090 -0.0430 -0.6774
  753MOL0     H99349   1.257   0.816  -0.282  2.3744 -1.3361  2.9343
  753MOL0     H99350   1.104   0.982  -0.495 -0.8970 -0.1165 -0.8374
  753MOL0     H99351   0.990   1.067  -0.401  2.0061  1.8338 -1.4588
  753MOL0     H99352   1.030   0.770  -0.368 -1.8434 -0.9461  0.2600
  753MOL0     H99353   0.907   0.844  -0.469  1.2316  0.8032 -1.1296
  753MOL0     H99354   0.927   0.828  -0.166  0.7396  2.0699  1.0102
  753MOL0     H99355   0.847   0.958  -0.258  0.9627 -1.1761  1.4445
  753MOL0     H99356   0.746   0.762  -0.399  2.5643  2.2355 -0.7082
  753MOL0     H99357   0.672   0.814  -0.249 -0.6818 -1.5318 -0.8220
  753MOL0     H99358   0.789   0.399  -0.112 -0.6612 -0.2518 -0.1215
  753MOL0     H99359   0.596   0.256  -0.063  1.8854  0.6921 -1.5104
  753MOL0     H99360   0.011   0.450   0.003  0.2150  0.2797 -1.7375
  753MOL0     H99361  -0.215   0.345   0.020  1.4248  2.6122  0.3620
  753MOL0     H99362  -0.409   0.266  -0.063 -0.8860  1.7440  3.5470
  753MOL0     H99363  -0.380   0.183   0.082  0.8786  2.4008 -0.8923
  753MOL0     H99364  -0.598   0.119   0.016  1.4219  0.0559  0.2076
  753MOL0     H99365  -0.492  -0.024  -0.016 -1.1753  0.4769  1.8398
  753MOL0     H99366  -0.473   0.049  -0.256 -0.3113 -0.8385  0.7972
  753MOL0     H99367  -0.565   0.200  -0.213 -0.2668  0.0184  1.3236
  753MOL0     H99368  -0.701  -0.058  -0.171 -0.7401  1.4672  2.4196
  753MOL0     H99369  -0.752   0.115  -0.183 -0.9881 -0.0629 -2.3634
  753MOL0     H99370  -0.678  -0.069  -0.410 -0.6908 -0.8790 -0.6308
  753MOL0     H99371  -0.694   0.106  -0.426 -0.2426  0.0196 -0.2191
  753MOL0     H99372  -0.930   0.096  -0.332  1.0942  1.8065 -0.7492
  753MOL0     H99373  -0.895  -0.087  -0.315 -0.0417  0.3472 -0.0364
  753MOL0     H99374  -0.878   0.051  -0.584 -0.9276  0.4630  0.6841
  753MOL0     H99375  -0.889  -0.123  -0.545  0.3839 -1.2277  2.1465
  753MOL0     H99376  -1.107   0.083  -0.528 -0.0600 -0.1636  1.2941
  753MOL0     H99377  -1.131  -0.076  -0.469 -1.8450  1.7823 -0.6134
  753MOL0     H99378  -0.073  -0.010  -0.143  1.6487 -0.4031  2.4054
  753MOL0     H99379   0.150   0.100  -0.200  0.2126 -0.8406  0.8188
  753MOL0     H99380   0.332   0.511  -0.271  0.3816 -2.0094 -1.2508
  753MOL0     H99381   0.516   0.653  -0.354  2.5404 -0.9658 -1.6378
  753MOL0     H99382   1.006   0.705   0.719  0.5882 -0.7089  3.6304
  753MOL0     H99383   0.767   0.639   0.763  1.1916  1.5866 -2.3136
  753MOL0     H99384   0.490   0.332   0.911  0.9652 -2.0565 -0.6217
  753MOL0     H99385   0.270   0.258   0.967 -0.5098 -1.4687 -0.4924
  753MOL0     H99386   0.026   0.033   0.656  2.3701  0.1384  0.6833
  753MOL0     H99387  -0.027   0.202   0.632  1.0794 -1.1519 -1.8116
  753MOL0     H99388  -0.172   0.185   0.845 -0.0324  0.3182 -0.5587
  753MOL0     H99389  -0.222   0.070   0.712  1.0384 -2.7557  0.8272
  753MOL0     H99390  -0.047   0.009   0.952 -1.7470 -1.2107  1.5320
  753MOL0     H99391  -0.083  -0.099   0.823 -1.2286  1.0611 -2.3683
  753MOL0     H99392  -0.242  -0.149   0.995  0.3742 -0.5129 -1.9786
  753MOL0     H99393  -0.228   0.009   1.063  1.2501 -1.1097  0.2821
  753MOL0     H99394  -0.541   0.087   0.799  0.1907  2.3135  0.9869
  753MOL0     H99395   0.178   0.195   0.550 -2.0802  2.3036 -0.1275
  753MOL0     H99396   0.398   0.277   0.494 -4.4041  2.8664 -0.5043
  754MOL0     O99397   5.752   6.279   8.675  0.0356  0.5012  0.9014
  754MOL0     C99398   5.756   6.400   8.645  0.3203 -0.6427 -0.3511
  754MOL0     O99399   5.652   6.478   8.597 -0.6462 -0.2877 -0.2173
  754MOL0     C99400   5.530   6.426   8.597  0.5273 -0.3827  0.2411
  754MOL0     C99401   5.472   6.340   8.692 -0.5317 -0.5646 -0.0016
  754MOL0     C99402   5.339   6.289   8.689  0.0388  0.6212  0.4140
  754MOL0     C99403   5.262   6.321   8.582 -0.2143  0.1119  0.5109
  754MOL0     O99404   5.132   6.272   8.557 -0.3457 -0.0727  0.0947
  754MOL0     C99405   5.098   6.134   8.576 -0.0009  0.3695  0.3232
  754MOL0     C99406   4.963   6.093   8.526  0.6063 -0.7589 -0.1336
  754MOL0     C99407   4.941   5.946   8.552  0.8880  0.4029  0.8651
  754MOL0     C99408   4.814   5.889   8.485  0.4913  0.3421  1.0097
  754MOL0     C99409   4.777   5.749   8.540 -0.9277  0.0284  0.3099
  754MOL0     C99410   4.647   5.713   8.483  0.6521 -0.4552  0.5407
  754MOL0     C99411   4.618   5.574   8.517 -0.7789  0.1192 -1.0463
  754MOL0     C99412   4.469   5.544   8.481 -0.0660 -0.1595 -0.2736
  754MOL0     N99413   4.369   5.615   8.566 -0.7059  0.1202  0.1727
  754MOL0     C99414   4.350   5.603   8.708 -0.8407 -0.1398  0.3860
  754MOL0     C99415   4.254   5.698   8.729 -0.0483  0.3698  0.4866
  754MOL0     C99416   4.193   5.745   8.862  0.1272  0.1177 -0.2398
  754MOL0     C99417   4.057   5.693   8.899  0.4495 -0.8165  0.3461
  754MOL0     C99418   3.940   5.776   8.837 -0.9009  0.0833 -0.7992
  754MOL0     C99419   3.813   5.701   8.861 -0.3766  0.3165 -0.2396
  754MOL0     O99420   3.708   5.774   8.793  0.7463 -0.2477 -0.6645
  754MOL0     C99421   3.576   5.726   8.822  0.1958 -0.5030  0.5743
  754MOL0     C99422   3.536   5.600   8.863  0.6964  0.4368 -0.1270
  754MOL0     C99423   3.398   5.572   8.849 -0.4202  0.6313 -0.9733
  754MOL0     C99424   3.306   5.668   8.811  0.9737 -0.7618  0.0781
  754MOL0     C99425   3.158   5.635   8.827 -0.3123  0.1197 -0.3429
  754MOL0     O99426   3.080   5.725   8.767 -0.8338  0.6654 -0.0809
  754MOL0     C99427   2.949   5.688   8.761 -0.2136  0.2647 -0.4267
  754MOL0     C99428   2.916   5.593   8.666  0.0713 -0.0118  0.5082
  754MOL0     C99429   2.778   5.556   8.667 -0.1982 -0.0645  0.2753
  754MOL0     C99430   2.694   5.607   8.758  0.4736 -0.1012 -1.2427
  754MOL0     O99431   2.561   5.567   8.747  0.6536  0.1600 -0.3396
  754MOL0     C99432   2.470   5.581   8.860  0.5197  0.1068  0.1428
  754MOL0     C99433   2.339   5.504   8.824  0.2693  0.3887 -0.7176
  754MOL0     C99434   2.244   5.517   8.936  0.1944  0.2349 -0.6288
  754MOL0     C99435   2.117   5.430   8.924  0.1551  1.2121 -0.6494
  754MOL0     C99436   2.031   5.439   9.058 -0.5747 -0.0244 -0.2797
  754MOL0     C99437   1.915   5.338   9.047  0.1291  0.2005 -0.2915
  754MOL0     C99438   1.839   5.320   9.176  0.5739  0.8103 -0.3489
  754MOL0     C99439   1.741   5.206   9.185  0.9908  0.3444 -0.2205
  754MOL0    Cl99440   1.602   5.220   9.065  0.0863  0.5982  0.0977
  754MOL0     C99441   2.739   5.692   8.866  0.4224  0.1279  0.5631
  754MOL0     C99442   2.867   5.735   8.864  0.3256  0.2654  0.1797
  754MOL0     O99443   3.122   5.536   8.891 -0.0356  0.3382 -0.1986
  754MOL0     C99444   3.352   5.792   8.766  0.3263  0.8741 -0.2981
  754MOL0     C99445   3.486   5.814   8.760  0.3024 -0.2566 -0.4334
  754MOL0     N99446   4.212   5.735   8.605  0.3399 -0.2345  0.5127
  754MOL0     N99447   4.272   5.684   8.508  0.3749  0.0933  0.5875
  754MOL0     C99448   5.312   6.412   8.484 -1.2418 -0.8348 -1.1325
  754MOL0     C99449   5.443   6.463   8.491  0.4589  0.1008  0.0760
  754MOL0     C99450   5.888   6.464   8.625 -0.0223 -0.0441  0.2298
  754MOL0     C99451   5.896   6.575   8.545  0.1017 -1.1556  0.0849
  754MOL0     C99452   6.013   6.642   8.521  0.1733 -0.0093 -0.7845
  754MOL0     C99453   6.127   6.593   8.590  0.0137 -0.3201  0.2568
  754MOL0     O99454   6.237   6.683   8.579  0.4098  0.0093 -0.7829
  754MOL0     C99455   6.340   6.668   8.681  0.3332 -0.5728 -0.2968
  754MOL0     C99456   6.463   6.746   8.636  0.1115 -0.4635 -0.1189
  754MOL0     C99457   6.571   6.741   8.751  0.3034 -0.4903  0.4250
  754MOL0     C99458   6.552   6.851   8.851  0.3434 -0.2743  0.3534
  754MOL0     C99459   6.682   6.886   8.911  0.1311 -0.2284 -0.3131
  754MOL0     C99460   6.792   6.899   8.959 -0.2736 -0.0201 -0.9625
  754MOL0     C99461   6.128   6.476   8.664  0.4616 -0.6975  0.0883
  754MOL0     C99462   6.004   6.413   8.680 -0.5782  0.0648  0.4674
  754MOL0     H99463   5.529   6.309   8.779 -0.3291  2.3978  1.0309
  754MOL0     H99464   5.295   6.238   8.774 -1.8363 -0.2494 -1.0050
  754MOL0     H99465   5.088   6.107   8.681  0.7792  0.9541  0.5596
  754MOL0     H99466   5.175   6.077   8.522 -0.0600  0.1830  0.4364
  754MOL0     H99467   4.958   6.120   8.420 -0.0080 -1.9192 -0.4117
  754MOL0     H99468   4.892   6.160   8.577  2.6704 -0.2757  2.2644
  754MOL0     H99469   4.933   5.928   8.659  1.0575  0.4268  0.8820
  754MOL0     H99470   5.029   5.887   8.526  0.9576  0.8642 -0.0230
  754MOL0     H99471   4.737   5.958   8.519 -1.3330 -0.9108 -0.4290
  754MOL0     H99472   4.814   5.891   8.376 -0.0709  0.6892  1.0144
  754MOL0     H99473   4.780   5.767   8.648 -4.6783 -0.3432  0.6095
  754MOL0     H99474   4.850   5.674   8.510 -0.6257  0.4602 -0.0547
  754MOL0     H99475   4.636   5.725   8.375  1.0421 -1.5502  0.3614
  754MOL0     H99476   4.572   5.779   8.527  0.6536 -0.7452  0.9939
  754MOL0     H99477   4.684   5.504   8.465 -0.5196  0.6183 -1.3928
  754MOL0     H99478   4.636   5.561   8.624  0.8165 -1.1475 -1.4269
  754MOL0     H99479   4.458   5.436   8.481  1.7607 -0.3927 -0.9900
  754MOL0     H99480   4.445   5.569   8.377 -1.7043  0.1510  0.1457
  754MOL0     H99481   4.410   5.540   8.772  0.6367  0.4666 -0.3395
  754MOL0     H99482   4.174   5.852   8.854 -0.3311  0.0590  0.0140
  754MOL0     H99483   4.263   5.731   8.944  0.6174  0.2398 -0.6311
  754MOL0     H99484   4.040   5.694   9.007 -0.7253 -1.8316  0.1932
  754MOL0     H99485   4.049   5.587   8.873 -1.3977 -0.2832 -1.4763
  754MOL0     H99486   3.925   5.876   8.879 -3.3477  0.2326 -1.8796
  754MOL0     H99487   3.961   5.787   8.730 -0.1924 -2.6683 -1.0250
  754MOL0     H99488   3.788   5.696   8.967 -2.1671  1.2350 -0.5914
  754MOL0     H99489   3.819   5.598   8.825  1.4653  0.4643 -0.4929
  754MOL0     H99490   3.606   5.523   8.895 -1.1983  0.2618  4.3945
  754MOL0     H99491   3.372   5.468   8.865 -0.4951  0.6709 -0.8339
  754MOL0     H99492   2.976   5.547   8.589 -0.9042 -0.4167 -0.0339
  754MOL0     H99493   2.732   5.480   8.604 -3.2191  1.2014  0.7843
  754MOL0     H99494   2.456   5.689   8.869  1.7174  0.1792  1.4075
  754MOL0     H99495   2.520   5.538   8.948 -0.4648  0.7172  1.0183
  754MOL0     H99496   2.368   5.399   8.815 -1.0729 -0.0796  0.2985
  754MOL0     H99497   2.301   5.531   8.725 -1.5602 -2.1476 -0.7928
  754MOL0     H99498   2.203   5.618   8.947 -2.4272 -0.8619  0.6823
  754MOL0     H99499   2.289   5.479   9.028  3.7065  0.2056 -2.2153
  754MOL0     H99500   2.059   5.458   8.836 -0.0389 -0.1380 -0.9743
  754MOL0     H99501   2.145   5.325   8.918  0.3224  1.3260 -2.4027
  754MOL0     H99502   1.999   5.540   9.087 -0.7896 -0.3091  0.4871
  754MOL0     H99503   2.105   5.416   9.136  0.5309  1.7957 -0.7250
  754MOL0     H99504   1.953   5.237   9.031  0.5994  0.2573  0.4246
  754MOL0     H99505   1.847   5.366   8.966 -1.7468 -0.1236  1.1238
  754MOL0     H99506   1.911   5.296   9.254 -0.0899  1.2265  0.4020
  754MOL0     H99507   1.789   5.415   9.197  0.2046  1.0211 -1.9898
  754MOL0     H99508   1.709   5.183   9.287 -1.1859  0.0676 -0.9252
  754MOL0     H99509   1.798   5.116   9.157  2.0991  0.7768  0.5611
  754MOL0     H99510   2.666   5.732   8.935  0.5955 -0.0800  0.8674
  754MOL0     H99511   2.908   5.807   8.934 -0.1029 -0.7329  1.4955
  754MOL0     H99512   3.284   5.868   8.729  0.7807  2.2709  1.5606
  754MOL0     H99513   3.536   5.899   8.715 -2.0666  0.4783 -1.8558
  754MOL0     H99514   5.251   6.458   8.407 -2.2617 -1.9435 -1.0169
  754MOL0     H99515   5.482   6.542   8.428  1.5591  0.6883  1.4310
  754MOL0     H99516   5.806   6.618   8.503  0.4910  0.4082  0.7846
  754MOL0     H99517   6.013   6.731   8.458 -1.8927 -0.9923 -2.2956
  754MOL0     H99518   6.372   6.570   8.717 -0.1062 -0.4302  0.5178
  754MOL0     H99519   6.290   6.715   8.766 -2.4036 -1.2556 -1.4199
  754MOL0     H99520   6.495   6.689   8.548  0.0397 -0.7422  0.0347
  754MOL0     H99521   6.438   6.846   8.599 -0.1612 -0.6721 -0.5061
  754MOL0     H99522   6.665   6.747   8.695  0.5469 -2.4128  0.5745
  754MOL0     H99523   6.570   6.641   8.794 -1.3573 -0.7063 -0.0281
  754MOL0     H99524   6.508   6.942   8.808 -1.7712 -2.0065 -1.3390
  754MOL0     H99525   6.491   6.823   8.937  1.2506  0.0510  1.1166
  754MOL0     H99526   6.885   6.929   9.004  0.3681 -1.0284 -1.5660
  754MOL0     H99527   6.217   6.439   8.712  2.6206  3.5000 -0.2035
  754MOL0     H99528   6.007   6.327   8.746 -0.7333 -2.1953 -2.3232
  755MOL0     O99529   5.543   4.832   6.540  0.2302  0.3650 -0.7862
  755MOL0     C99530   5.458   4.919   6.537  0.1220 -0.9342 -0.0603
  755MOL0     O99531   5.323   4.916   6.576 -0.1107 -0.5502 -0.1256
  755MOL0     C99532   5.261   4.796   6.612  0.1342 -0.0169 -0.4042
  755MOL0     C99533   5.163   4.807   6.719 -0.8428  0.1168  0.6636
  755MOL0     C99534   5.090   4.699   6.763  0.2637  0.3446  0.6816
  755MOL0     C99535   5.113   4.571   6.704  0.6956  0.2223  0.2860
  755MOL0     O99536   5.051   4.458   6.734  0.3200  0.5863  0.2407
  755MOL0     C99537   4.965   4.449   6.850 -0.6004 -0.5123  0.2606
  755MOL0     C99538   4.906   4.307   6.851 -0.7394 -0.5744  0.4089
  755MOL0     C99539   5.008   4.188   6.879 -1.1759 -0.0807 -0.3621
  755MOL0     C99540   5.108   4.214   6.993  0.1365  0.2855 -0.1234
  755MOL0     C99541   5.200   4.080   7.002  0.7588  0.6785  0.2892
  755MOL0     C99542   5.131   3.943   7.024  0.0575  1.5954  0.9399
  755MOL0     C99543   5.025   3.942   7.132  0.3633  0.1667  0.4326
  755MOL0     C99544   4.964   3.798   7.134 -0.5924 -0.0805 -0.3401
  755MOL0     N99545   4.845   3.782   7.214  0.1859  0.5608  0.4255
  755MOL0     C99546   4.834   3.721   7.333 -0.0009  0.8403  0.2720
  755MOL0     C99547   4.699   3.731   7.367 -0.1111 -0.6696  0.2878
  755MOL0     C99548   4.630   3.683   7.494  0.2957 -0.3577 -0.2376
  755MOL0     C99549   4.475   3.696   7.502 -0.6854 -0.3974 -0.2069
  755MOL0     C99550   4.446   3.744   7.648  0.2458 -0.6830  0.8067
  755MOL0     C99551   4.293   3.734   7.678 -0.4348  0.0852  0.1629
  755MOL0     O99552   4.283   3.759   7.818 -0.3187 -0.4738 -0.3919
  755MOL0     C99553   4.153   3.755   7.870  0.2726 -0.1254 -0.5678
  755MOL0     C99554   4.039   3.753   7.789 -0.4978  0.7998 -1.0542
  755MOL0     C99555   3.914   3.752   7.847  0.0043 -0.2598 -0.0043
  755MOL0     C99556   3.898   3.757   7.985 -0.1158  0.3461 -0.1892
  755MOL0     C99557   3.768   3.768   8.050 -0.6834  0.0141  0.7382
  755MOL0     O99558   3.665   3.726   7.977  0.2022 -0.5800 -0.2750
  755MOL0     C99559   3.538   3.750   8.021 -0.5697 -0.0197 -0.8026
  755MOL0     C99560   3.490   3.872   8.080 -0.1498  0.0537  0.5915
  755MOL0     C99561   3.353   3.891   8.114  0.3757  0.3673  0.2583
  755MOL0     C99562   3.265   3.780   8.099 -0.2440 -1.3228  0.2300
  755MOL0     O99563   3.143   3.775   8.160 -0.2465 -0.3207 -0.1365
  755MOL0     C99564   3.084   3.890   8.213  0.1967  0.4790 -0.0455
  755MOL0     C99565   2.934   3.867   8.190 -0.1961  0.4819 -0.4490
  755MOL0     C99566   2.892   3.736   8.266  0.7138 -0.4937 -0.1026
  755MOL0     C99567   2.747   3.734   8.312  0.0083 -0.2698  0.7858
  755MOL0     C99568   2.646   3.741   8.197  0.8096  0.2583  0.5432
  755MOL0     C99569   2.493   3.725   8.244  0.0409  0.6540  0.3071
  755MOL0     C99570   2.396   3.697   8.124 -0.4764  0.8180  0.2596
  755MOL0     C99571   2.250   3.666   8.172 -0.2659 -0.8380  0.3008
  755MOL0    Cl99572   2.229   3.495   8.220 -0.2209  0.1911 -0.1255
  755MOL0     C99573   3.313   3.667   8.041  0.0989  0.0562  0.3820
  755MOL0     C99574   3.442   3.655   7.999 -0.7949  0.3931  0.4711
  755MOL0     O99575   3.761   3.830   8.156 -0.4230  0.0618 -0.6929
  755MOL0     C99576   4.014   3.756   8.065 -0.2186 -0.0200  0.0361
  755MOL0     C99577   4.141   3.746   8.008  0.2540 -0.6658  0.1290
  755MOL0     N99578   4.630   3.793   7.262  0.5550  0.4512  0.0374
  755MOL0     N99579   4.719   3.819   7.168 -0.2134 -0.7490 -0.8226
  755MOL0     C99580   5.215   4.563   6.605  0.8714  0.2785 -0.7807
  755MOL0     C99581   5.281   4.672   6.562  0.0860  0.7882  0.0645
  755MOL0     C99582   5.510   5.057   6.508 -0.3983  0.2472  0.1009
  755MOL0     C99583   5.616   5.068   6.417  0.2558  0.0470  0.4918
  755MOL0     C99584   5.653   5.194   6.370 -0.2569 -0.0548 -0.3651
  755MOL0     C99585   5.604   5.312   6.425  0.2481  0.4054  0.1832
  755MOL0     O99586   5.649   5.438   6.386 -0.0783 -0.5826 -0.3502
  755MOL0     C99587   5.642   5.465   6.242  0.2738  0.3172 -0.1429
  755MOL0     C99588   5.781   5.461   6.174 -0.3615 -0.3189 -0.5210
  755MOL0     C99589   5.889   5.566   6.225  0.0731  0.2833  0.5105
  755MOL0     C99590   6.028   5.521   6.172  0.4482  0.8476 -0.3737
  755MOL0     C99591   6.120   5.630   6.197  0.1265 -0.0482 -0.7972
  755MOL0     C99592   6.191   5.726   6.218  0.2346  0.1215 -0.0423
  755MOL0     C99593   5.499   5.300   6.511  0.1086 -0.3922 -0.2440
  755MOL0     C99594   5.449   5.173   6.555 -0.5146 -0.2423  0.5239
  755MOL0     H99595   5.155   4.901   6.772  0.5370 -0.4648  1.9634
  755MOL0     H99596   5.022   4.724   6.843 -0.2638  0.2540  0.2652
  755MOL0     H99597   4.899   4.537   6.853 -0.9472 -0.7787  2.2251
  755MOL0     H99598   5.026   4.466   6.940  0.6844 -2.0028 -0.2879
  755MOL0     H99599   4.859   4.288   6.754 -0.2706 -0.3957  0.1454
  755MOL0     H99600   4.828   4.309   6.928 -1.1379 -2.7838  0.1544
  755MOL0     H99601   5.065   4.154   6.792 -1.0172 -0.2880 -0.1814
  755MOL0     H99602   4.951   4.099   6.909  0.9650 -1.2849  0.3634
  755MOL0     H99603   5.176   4.298   6.974 -0.9037  0.7136 -2.3234
  755MOL0     H99604   5.052   4.232   7.084 -1.5834  1.4162 -1.3528
  755MOL0     H99605   5.250   4.099   7.098 -0.1608 -0.5885  1.0449
  755MOL0     H99606   5.273   4.075   6.921 -0.4441  0.1101 -0.7945
  755MOL0     H99607   5.190   3.852   7.036 -1.2319  0.1389 -2.4358
  755MOL0     H99608   5.089   3.921   6.925  1.9695  2.5159 -0.1288
  755MOL0     H99609   5.075   3.958   7.228 -0.2495 -1.5502  1.0764
  755MOL0     H99610   4.955   4.016   7.093  0.8145 -0.2954 -1.3692
  755MOL0     H99611   5.034   3.720   7.163 -3.0902 -1.1962  3.5652
  755MOL0     H99612   4.919   3.776   7.036 -1.9223 -0.8009  0.4016
  755MOL0     H99613   4.916   3.682   7.393 -1.0055  0.4364  1.4138
  755MOL0     H99614   4.662   3.752   7.571  0.9613  1.5029 -2.0906
  755MOL0     H99615   4.661   3.580   7.515  0.7522 -0.2393 -0.3336
  755MOL0     H99616   4.427   3.598   7.502  0.1795 -0.9149  2.3144
  755MOL0     H99617   4.436   3.763   7.425  0.9054 -1.7141 -2.2705
  755MOL0     H99618   4.500   3.690   7.727  0.2965 -0.1634  1.1402
  755MOL0     H99619   4.472   3.851   7.648 -0.9709 -0.3595 -0.6989
  755MOL0     H99620   4.254   3.635   7.653 -1.6386  0.5843  0.0190
  755MOL0     H99621   4.248   3.810   7.614  0.2224 -1.6028 -2.4250
  755MOL0     H99622   4.035   3.749   7.681  1.9969  1.3472 -1.2253
  755MOL0     H99623   3.826   3.753   7.784 -0.5719 -2.4605  0.6903
  755MOL0     H99624   3.562   3.952   8.086 -0.2252  0.2094 -0.3447
  755MOL0     H99625   3.315   3.982   8.161 -1.6051  0.9682 -2.2908
  755MOL0     H99626   3.119   3.987   8.176  1.0489 -0.0786 -0.7601
  755MOL0     H99627   3.097   3.881   8.322 -1.0230  0.3718  0.1015
  755MOL0     H99628   2.897   3.856   8.087  1.4046  0.5230 -1.0571
  755MOL0     H99629   2.896   3.958   8.238  1.6729  1.2171 -0.2850
  755MOL0     H99630   2.958   3.718   8.352 -1.5165 -1.6564  1.4890
  755MOL0     H99631   2.913   3.648   8.204 -0.3253 -1.6084  1.0685
  755MOL0     H99632   2.722   3.636   8.354 -1.1357 -0.1992  0.3004
  755MOL0     H99633   2.728   3.811   8.387  0.5954  0.4066  0.2477
  755MOL0     H99634   2.670   3.663   8.123  0.0261  2.4529 -2.2215
  755MOL0     H99635   2.659   3.833   8.138  0.5373 -0.9441 -1.4735
  755MOL0     H99636   2.459   3.806   8.309 -1.1409  1.3673 -1.1421
  755MOL0     H99637   2.491   3.637   8.309 -2.5489  0.9020  0.6543
  755MOL0     H99638   2.405   3.787   8.062  2.7073  0.1996 -0.3651
  755MOL0     H99639   2.431   3.617   8.058  0.7741  1.4157  0.1553
  755MOL0     H99640   2.180   3.685   8.090  0.4699 -0.7894 -0.3323
  755MOL0     H99641   2.225   3.739   8.249  0.8696 -0.7734  0.6329
  755MOL0     H99642   3.236   3.591   8.036  0.0026 -0.0963  2.7689
  755MOL0     H99643   3.475   3.563   7.952 -2.4059  0.6639 -1.2976
  755MOL0     H99644   3.998   3.769   8.171 -1.6584  2.2674 -0.3952
  755MOL0     H99645   4.238   3.750   8.057  1.9937  2.5493 -3.0920
  755MOL0     H99646   5.245   4.476   6.547  2.1358 -1.5776  2.3914
  755MOL0     H99647   5.362   4.675   6.489  1.3864  1.2476  1.4660
  755MOL0     H99648   5.672   4.981   6.384 -0.3784  0.2251 -1.1479
  755MOL0     H99649   5.736   5.198   6.300  0.0476  2.8937  0.0313
  755MOL0     H99650   5.607   5.568   6.230  0.4160  0.1609 -2.4230
  755MOL0     H99651   5.563   5.402   6.200  0.3145 -0.6014  1.0832
  755MOL0     H99652   5.817   5.359   6.189  0.5708  0.0770  0.0095
  755MOL0     H99653   5.775   5.471   6.065  2.0822  1.2340 -0.6059
  755MOL0     H99654   5.875   5.550   6.333 -2.0978 -1.4713  0.0484
  755MOL0     H99655   5.867   5.668   6.195 -0.3986 -0.5844 -2.3625
  755MOL0     H99656   6.061   5.431   6.226  0.2030  0.2248 -1.2489
  755MOL0     H99657   6.023   5.499   6.065  1.3491  0.3792 -0.3351
  755MOL0     H99658   6.240   5.820   6.234 -4.0232  2.4303  1.1182
  755MOL0     H99659   5.456   5.388   6.556 -2.2059 -1.0385 -1.0002
  755MOL0     H99660   5.359   5.162   6.615 -0.5104  1.2070  0.8366
  756MOL0     O99661   0.088  10.208   4.341  0.7680 -0.0382 -0.1516
  756MOL0     C99662   0.168  10.119   4.375  0.6313 -0.0261  0.5363
  756MOL0     O99663   0.130  10.002   4.433  0.0434 -1.1810  0.4723
  756MOL0     C99664  -0.002   9.967   4.433 -0.0427 -0.3202 -0.2338
  756MOL0     C99665  -0.108  10.046   4.476 -0.4030  1.0467 -0.3743
  756MOL0     C99666  -0.244   9.992   4.486  0.0378  0.6066 -0.3135
  756MOL0     C99667  -0.266   9.866   4.432  0.2149  0.0913  0.3969
  756MOL0     O99668  -0.400   9.819   4.421  0.1040  0.1005 -0.0099
  756MOL0     C99669  -0.443   9.728   4.527  0.5703 -0.3596  0.6871
  756MOL0     C99670  -0.523   9.810   4.629 -0.3049 -0.0493  0.1610
  756MOL0     C99671  -0.654   9.849   4.572  0.4567  0.4928  0.3847
  756MOL0     C99672  -0.740   9.914   4.679  0.0919  0.9765  0.1455
  756MOL0     C99673  -0.877   9.965   4.618 -0.6763 -0.5914  0.2555
  756MOL0     C99674  -0.971   9.846   4.582 -0.2281  0.2159  0.2075
  756MOL0     C99675  -1.116   9.884   4.551  0.5229  0.6547  0.4579
  756MOL0     C99676  -1.199   9.766   4.506 -0.2198 -0.2917  0.7462
  756MOL0     N99677  -1.330   9.805   4.472 -0.6654 -0.5926  0.2672
  756MOL0     C99678  -1.400   9.789   4.349 -1.3897 -0.0305  1.3504
  756MOL0     C99679  -1.529   9.814   4.377  0.1348  1.0044 -0.6831
  756MOL0     C99680  -1.637   9.807   4.269 -0.3174 -0.4397 -0.5943
  756MOL0     C99681  -1.767   9.758   4.319  0.3330  0.1600 -0.5546
  756MOL0     C99682  -1.872   9.764   4.210  0.3442 -0.2036 -0.3151
  756MOL0     C99683  -1.996   9.694   4.262 -0.2609  0.0434  0.6153
  756MOL0     O99684  -2.053   9.776   4.363  0.2037 -0.5080 -0.1047
  756MOL0     C99685  -2.182   9.756   4.398  0.0680 -0.5088 -0.1375
  756MOL0     C99686  -2.246   9.633   4.381 -0.3908  0.0563  0.6382
  756MOL0     C99687  -2.378   9.618   4.423  0.5829  0.3035  0.4665
  756MOL0     C99688  -2.456   9.722   4.479 -0.4068  0.7786 -0.3635
  756MOL0     C99689  -2.598   9.700   4.526 -0.4311  0.0398 -0.3454
  756MOL0     O99690  -2.661   9.804   4.568  0.3867  0.5042 -0.0729
  756MOL0     C99691  -2.783   9.799   4.630  0.5376 -0.1293 -0.1639
  756MOL0     C99692  -2.867   9.905   4.603  0.7488 -0.3012  0.0249
  756MOL0     C99693  -2.992   9.910   4.673 -0.2502 -0.0832 -0.2179
  756MOL0     C99694  -3.029   9.809   4.771 -0.4300  0.4220 -0.4281
  756MOL0     O99695  -3.155   9.811   4.827 -0.2152 -0.6667  0.2603
  756MOL0     C99696  -3.233   9.703   4.872 -0.3863 -0.7772  0.4788
  756MOL0     C99697  -3.333   9.767   4.977  0.4241  0.1929  0.0750
  756MOL0     C99698  -3.456   9.673   4.981 -0.1169  0.4511 -0.0692
  756MOL0     C99699  -3.438   9.548   5.070 -0.9910  0.5705 -0.2519
  756MOL0     C99700  -3.565   9.459   5.072  0.0582 -0.6521 -0.2032
  756MOL0     C99701  -3.540   9.350   5.172  0.3712  0.3492  0.7755
  756MOL0     C99702  -3.654   9.247   5.162  0.1572  0.0578  0.6916
  756MOL0     C99703  -3.603   9.107   5.155 -0.2078  0.0389 -0.5043
  756MOL0    Cl99704  -3.510   9.062   5.295 -0.1731  0.2419  0.4499
  756MOL0     C99705  -2.938   9.707   4.788  0.1171  0.0106 -0.5764
  756MOL0     C99706  -2.813   9.708   4.724  0.4280  0.5333  0.3482
  756MOL0     O99707  -2.643   9.586   4.512  0.3495 -0.0419 -0.0632
  756MOL0     C99708  -2.388   9.843   4.493 -0.7582 -0.1116  0.7146
  756MOL0     C99709  -2.249   9.862   4.461 -0.2730  0.4669  0.3724
  756MOL0     N99710  -1.540   9.844   4.512  0.0645  0.2356  0.1608
  756MOL0     N99711  -1.423   9.838   4.566 -0.6704  0.6262 -0.1640
  756MOL0     C99712  -0.164   9.782   4.400 -0.0588  0.6145 -0.9776
  756MOL0     C99713  -0.028   9.828   4.403 -0.1342 -0.8963 -0.2351
  756MOL0     C99714   0.310  10.139   4.345 -0.6659  0.7508  0.3468
  756MOL0     C99715   0.357  10.251   4.273 -0.4106  0.4325  0.5855
  756MOL0     C99716   0.496  10.261   4.241 -0.1581 -0.1746  0.3433
  756MOL0     C99717   0.591  10.163   4.275  0.1937 -0.0768  0.3867
  756MOL0     O99718   0.728  10.172   4.271  0.0602 -0.0965  0.3519
  756MOL0     C99719   0.784  10.267   4.169  0.3609  0.1037  0.0973
  756MOL0     C99720   0.930  10.221   4.122 -0.2695 -0.4091 -0.3795
  756MOL0     C99721   1.004  10.315   4.030 -0.5327  0.3227 -0.1092
  756MOL0     C99722   0.940  10.324   3.887 -0.0633  0.4208  0.0387
  756MOL0     C99723   1.013  10.403   3.786 -0.4736 -1.0813 -0.1329
  756MOL0     C99724   1.060  10.489   3.718  0.0022 -0.6576  0.1628
  756MOL0     C99725   0.538  10.051   4.333 -0.8300  0.3046 -0.8567
  756MOL0     C99726   0.400  10.038   4.363  0.1615 -0.0663  0.3238
  756MOL0     H99727  -0.097  10.150   4.505  2.2741  0.5248  0.7200
  756MOL0     H99728  -0.327  10.055   4.515 -1.8445 -1.0944 -1.6529
  756MOL0     H99729  -0.356   9.686   4.579  0.8131 -1.4089 -0.5124
  756MOL0     H99730  -0.509   9.647   4.495 -1.2007 -0.1287  3.4004
  756MOL0     H99731  -0.464   9.902   4.641  1.5486 -1.2326  0.5437
  756MOL0     H99732  -0.525   9.758   4.725 -1.3980 -2.0930 -0.9141
  756MOL0     H99733  -0.717   9.769   4.532  1.1124 -0.6417  1.5327
  756MOL0     H99734  -0.623   9.914   4.490 -0.3441 -1.3197 -1.4300
  756MOL0     H99735  -0.758   9.847   4.764  1.7509 -0.4502 -0.5762
  756MOL0     H99736  -0.688  10.001   4.722  1.2332  0.6175 -0.4824
  756MOL0     H99737  -0.863  10.030   4.532  2.5064  0.8993  1.7403
  756MOL0     H99738  -0.939  10.027   4.684  1.5053  1.4367  0.5010
  756MOL0     H99739  -0.973   9.775   4.666 -0.1034 -0.6387 -0.4905
  756MOL0     H99740  -0.928   9.806   4.489  1.7544  0.6711  0.8935
  756MOL0     H99741  -1.162   9.929   4.639 -0.1539  0.3774  0.2507
  756MOL0     H99742  -1.121   9.963   4.475 -1.6482 -0.2423 -0.4068
  756MOL0     H99743  -1.202   9.700   4.594  2.0458  0.8500  1.7851
  756MOL0     H99744  -1.153   9.726   4.415 -1.0461 -0.8893  0.5801
  756MOL0     H99745  -1.352   9.751   4.260  0.0095  1.4531  1.4161
  756MOL0     H99746  -1.602   9.754   4.181 -0.9834 -0.6956 -0.7076
  756MOL0     H99747  -1.657   9.913   4.253 -2.2054 -0.2118  2.4809
  756MOL0     H99748  -1.790   9.833   4.396  0.6929  0.6695 -0.9366
  756MOL0     H99749  -1.752   9.657   4.358 -0.4196 -0.9110 -2.9079
  756MOL0     H99750  -1.901   9.867   4.189  1.8235  0.3977  0.4591
  756MOL0     H99751  -1.831   9.714   4.122 -1.9618 -0.4226 -1.3340
  756MOL0     H99752  -1.975   9.591   4.293 -2.3645  0.1792  2.8400
  756MOL0     H99753  -2.052   9.691   4.168  1.0389 -0.2987 -0.1757
  756MOL0     H99754  -2.189   9.546   4.350 -4.2681 -2.7999  0.7260
  756MOL0     H99755  -2.421   9.518   4.418 -3.7101  1.9745  0.0387
  756MOL0     H99756  -2.842   9.974   4.523 -0.9688 -0.6790 -0.8805
  756MOL0     H99757  -3.059   9.994   4.659 -1.1317 -0.8666 -0.8060
  756MOL0     H99758  -3.161   9.634   4.916  0.6680  1.4216  2.4655
  756MOL0     H99759  -3.292   9.655   4.793  1.1414 -3.1654  0.6906
  756MOL0     H99760  -3.365   9.867   4.948 -0.6838  0.4522  2.0105
  756MOL0     H99761  -3.288   9.765   5.077  2.7128 -1.2275 -0.9136
  756MOL0     H99762  -3.483   9.642   4.879  1.1192 -4.3463  0.7859
  756MOL0     H99763  -3.526   9.738   5.034  1.7416  0.7213  2.2217
  756MOL0     H99764  -3.346   9.498   5.039 -1.5080 -1.3535  1.0747
  756MOL0     H99765  -3.426   9.578   5.175  0.0684 -0.4572 -0.0594
  756MOL0     H99766  -3.592   9.427   4.971 -2.1137 -1.9643  0.7060
  756MOL0     H99767  -3.650   9.521   5.103  2.1513  2.0004  0.5641
  756MOL0     H99768  -3.538   9.394   5.273 -0.9145  0.6166  0.7080
  756MOL0     H99769  -3.448   9.301   5.141 -0.6996 -0.2699 -1.6346
  756MOL0     H99770  -3.725   9.262   5.244 -0.2265 -1.3824  0.6441
  756MOL0     H99771  -3.719   9.259   5.075  0.3259  0.6544  0.6404
  756MOL0     H99772  -3.555   9.098   5.058 -2.3006 -3.0679 -1.3892
  756MOL0     H99773  -3.694   9.049   5.140 -1.1354  1.4259 -0.4584
  756MOL0     H99774  -2.966   9.618   4.843 -1.8303  0.7824 -0.2145
  756MOL0     H99775  -2.744   9.626   4.739  1.6703  1.3363 -0.7695
  756MOL0     H99776  -2.432   9.936   4.524  2.5976  0.8118  3.2884
  756MOL0     H99777  -2.197   9.954   4.484 -1.0782  1.1086 -0.2943
  756MOL0     H99778  -0.190   9.679   4.374  1.7221  0.4145 -2.1865
  756MOL0     H99779   0.042   9.753   4.368  1.4384  0.4115 -0.0170
  756MOL0     H99780   0.288  10.329   4.242 -0.9572 -1.1026 -2.4215
  756MOL0     H99781   0.523  10.359   4.201 -1.7581 -0.3294 -1.2820
  756MOL0     H99782   0.775  10.366   4.215  1.7869 -0.0779  0.8202
  756MOL0     H99783   0.726  10.277   4.077  1.4971  0.0484 -0.6534
  756MOL0     H99784   0.986  10.191   4.211 -0.4306  1.8689  0.5459
  756MOL0     H99785   0.898  10.136   4.060 -1.5392 -0.2537  0.0299
  756MOL0     H99786   1.101  10.267   4.022 -1.3262 -1.2204 -0.8736
  756MOL0     H99787   1.021  10.409   4.085  1.7592  0.0063 -0.2010
  756MOL0     H99788   0.931  10.225   3.842 -1.5911 -0.5479  2.2899
  756MOL0     H99789   0.838  10.365   3.885 -0.9976 -1.7732 -0.3415
  756MOL0     H99790   1.094  10.575   3.662  1.1301 -0.7607  0.6625
  756MOL0     H99791   0.591   9.965   4.372 -0.7526  0.4515 -0.6293
  756MOL0     H99792   0.368   9.944   4.407 -0.7098 -2.2344 -4.3488
  757MOL0     O99793   6.251   1.112   1.751 -0.0616  0.3133 -0.4385
  757MOL0     C99794   6.227   1.212   1.677 -0.0715 -0.0083 -0.5059
  757MOL0     O99795   6.107   1.270   1.649  0.0597 -0.0038 -0.0541
  757MOL0     C99796   5.992   1.216   1.692 -0.0452  0.0487  0.6280
  757MOL0     C99797   5.960   1.089   1.752  0.6820 -0.2765  0.6703
  757MOL0     C99798   5.825   1.070   1.785  0.3234  0.2525  0.3425
  757MOL0     C99799   5.722   1.154   1.757 -0.5270  0.1583  0.1603
  757MOL0     O99800   5.590   1.132   1.785 -0.7508 -0.6544  0.0616
  757MOL0     C99801   5.535   1.003   1.791 -0.3552 -0.2876 -0.1122
  757MOL0     C99802   5.396   1.016   1.855  0.2239  0.1514  0.2238
  757MOL0     C99803   5.285   1.032   1.755 -0.4111  0.1290  0.4493
  757MOL0     C99804   5.152   1.054   1.825  0.1196  0.0809 -0.0146
  757MOL0     C99805   5.032   1.026   1.723 -0.0947 -0.2868  0.5823
  757MOL0     C99806   4.891   1.069   1.776 -0.1127  0.0458 -0.4830
  757MOL0     C99807   4.792   0.948   1.804  0.1568 -0.4846 -0.0015
  757MOL0     C99808   4.661   1.007   1.852  0.1577 -0.3451 -0.4871
  757MOL0     N99809   4.577   0.891   1.893  0.6145  0.4068 -0.0610
  757MOL0     C99810   4.544   0.802   1.799 -0.4935  0.9778  0.0127
  757MOL0     C99811   4.514   0.687   1.869  0.6766  0.5101  0.6364
  757MOL0     C99812   4.459   0.563   1.815 -0.1286  0.5299 -0.7359
  757MOL0     C99813   4.306   0.544   1.846  0.4319 -0.5084  0.4476
  757MOL0     C99814   4.249   0.430   1.760 -0.3481  0.3950 -0.3191
  757MOL0     C99815   4.098   0.407   1.763 -0.3860  0.9700 -0.5177
  757MOL0     O99816   4.070   0.339   1.888  0.2083  0.6153 -0.1565
  757MOL0     C99817   3.945   0.352   1.944  0.3060  0.5238  0.8784
  757MOL0     C99818   3.919   0.312   2.078  0.2945  0.3756  0.8270
  757MOL0     C99819   3.790   0.324   2.132 -0.5319  0.8603  0.9346
  757MOL0     C99820   3.682   0.378   2.060  0.2797 -0.6102  0.0468
  757MOL0     C99821   3.549   0.383   2.131 -0.9185  0.1970  0.0396
  757MOL0     O99822   3.449   0.434   2.058 -0.1303  0.1724  0.1157
  757MOL0     C99823   3.335   0.477   2.120  0.0813 -0.6598 -0.7511
  757MOL0     C99824   3.214   0.444   2.058  0.1328 -0.1647  0.9737
  757MOL0     C99825   3.090   0.484   2.106 -0.1472  0.1746  0.2712
  757MOL0     C99826   3.072   0.550   2.227  0.9609  0.0089  0.0619
  757MOL0     O99827   2.952   0.569   2.279  0.8737  1.1307  0.6713
  757MOL0     C99828   2.839   0.595   2.194 -0.1603 -0.4823  0.6479
  757MOL0     C99829   2.713   0.620   2.277 -0.5397  0.3115 -0.0370
  757MOL0     C99830   2.586   0.606   2.187 -0.0366  0.1112 -0.9330
  757MOL0     C99831   2.454   0.632   2.270 -0.5159 -0.9275 -0.5128
  757MOL0     C99832   2.334   0.666   2.178  0.8077  0.9839 -0.1797
  757MOL0     C99833   2.224   0.716   2.268  0.5311  0.5209  0.7195
  757MOL0     C99834   2.100   0.778   2.196 -0.0310 -0.2285 -0.3226
  757MOL0     C99835   2.007   0.833   2.312  0.1646  0.6857  0.4530
  757MOL0    Cl99836   1.858   0.857   2.232  0.1430 -0.2277 -0.2126
  757MOL0     C99837   3.189   0.587   2.289  0.3686  0.1881  0.4927
  757MOL0     C99838   3.316   0.556   2.239 -0.6640  0.0541 -0.1783
  757MOL0     O99839   3.536   0.337   2.244 -0.8918  0.2736 -0.4480
  757MOL0     C99840   3.706   0.416   1.930  0.6970  0.4435 -1.0489
  757MOL0     C99841   3.833   0.406   1.876 -0.4068 -0.8034 -0.6508
  757MOL0     N99842   4.526   0.714   2.007  0.4275 -0.3960 -0.0309
  757MOL0     N99843   4.568   0.836   2.016 -0.4792 -0.7733 -1.2878
  757MOL0     C99844   5.758   1.275   1.699 -0.5171 -0.3244  1.3377
  757MOL0     C99845   5.888   1.307   1.662 -0.0212  0.6524  0.2066
  757MOL0     C99846   6.349   1.281   1.627 -1.0250  0.0808 -0.0013
  757MOL0     C99847   6.342   1.370   1.528 -0.1007 -0.8250  1.1096
  757MOL0     C99848   6.457   1.440   1.476  0.6289  0.5488  0.4356
  757MOL0     C99849   6.584   1.417   1.531  0.9764 -0.0532  0.1512
  757MOL0     O99850   6.684   1.482   1.467 -0.5622  0.1534 -0.6671
  757MOL0     C99851   6.785   1.546   1.537 -0.6648 -0.1949 -0.0214
  757MOL0     C99852   6.902   1.456   1.567  0.5325  0.0964 -0.3060
  757MOL0     C99853   6.951   1.391   1.442 -0.1646  0.4417 -0.7425
  757MOL0     C99854   7.054   1.273   1.457  0.7121  0.7479  0.3494
  757MOL0     C99855   7.192   1.313   1.490  0.7796 -0.2557  0.1189
  757MOL0     C99856   7.302   1.337   1.537  0.4811  0.6083  0.0957
  757MOL0     C99857   6.591   1.310   1.629  0.4340 -0.9598  1.0379
  757MOL0     C99858   6.477   1.246   1.676 -0.1617 -0.3894  0.3853
  757MOL0     H99859   6.039   1.023   1.788  2.6372  0.9933 -1.0481
  757MOL0     H99860   5.795   0.977   1.833  1.6885 -1.0616 -1.2102
  757MOL0     H99861   5.593   0.930   1.848 -0.4161 -1.8815 -1.9653
  757MOL0     H99862   5.520   0.962   1.690 -0.0757  0.6873 -0.5637
  757MOL0     H99863   5.389   1.100   1.924  1.5167  0.3846  0.0997
  757MOL0     H99864   5.377   0.924   1.912  2.8846 -0.5279  0.1561
  757MOL0     H99865   5.284   0.944   1.689  2.6288  1.4077 -1.5666
  757MOL0     H99866   5.317   1.115   1.690  0.6719 -0.5158  0.1170
  757MOL0     H99867   5.135   0.984   1.907 -1.1703  0.2779 -0.1001
  757MOL0     H99868   5.145   1.159   1.852  0.7210  0.1625 -0.1586
  757MOL0     H99869   5.039   0.920   1.700  1.5989  0.0513 -0.6193
  757MOL0     H99870   5.062   1.084   1.635 -0.2757  1.1524  1.4254
  757MOL0     H99871   4.838   1.141   1.712 -2.0079  0.1686  1.1398
  757MOL0     H99872   4.902   1.111   1.876 -0.0407 -0.6681 -0.1870
  757MOL0     H99873   4.766   0.888   1.717 -1.7082 -1.0743  0.9034
  757MOL0     H99874   4.836   0.889   1.885  0.8845 -1.8021 -1.3155
  757MOL0     H99875   4.607   1.069   1.780  0.9832 -1.7506 -2.3836
  757MOL0     H99876   4.686   1.062   1.944  0.0346 -0.1294 -0.5794
  757MOL0     H99877   4.548   0.808   1.691  1.1909  0.9485  0.0426
  757MOL0     H99878   4.510   0.478   1.860 -0.7468  1.0086  0.9833
  757MOL0     H99879   4.467   0.544   1.708  0.9819 -1.4802 -0.3285
  757MOL0     H99880   4.247   0.632   1.821  3.2339  0.6376 -2.8571
  757MOL0     H99881   4.297   0.518   1.952  0.0292 -1.5093  0.1805
  757MOL0     H99882   4.256   0.463   1.656 -6.1958  0.2129 -1.1477
  757MOL0     H99883   4.298   0.334   1.772  0.2584  0.9914  2.6524
  757MOL0     H99884   4.069   0.339   1.683 -0.4025 -2.6331  2.2790
  757MOL0     H99885   4.043   0.502   1.763  0.4200  1.4699  0.6465
  757MOL0     H99886   3.997   0.265   2.137  0.5977  0.0702  0.1960
  757MOL0     H99887   3.778   0.302   2.238 -0.4797  0.5084  0.8699
  757MOL0     H99888   3.231   0.404   1.959  0.0354  1.1461  0.4073
  757MOL0     H99889   3.003   0.477   2.042 -0.0406 -1.1836  0.2468
  757MOL0     H99890   2.816   0.511   2.128  3.3075 -0.2496 -1.0828
  757MOL0     H99891   2.855   0.671   2.117  0.7130  1.3438  2.5379
  757MOL0     H99892   2.712   0.721   2.318  0.0216 -0.4745  2.0568
  757MOL0     H99893   2.710   0.549   2.360 -0.1622  1.7821  1.2916
  757MOL0     H99894   2.588   0.503   2.150 -0.9677  0.0064 -0.7267
  757MOL0     H99895   2.603   0.679   2.108  2.1927  1.6039  0.8005
  757MOL0     H99896   2.432   0.543   2.329  0.8230 -1.6957 -1.1285
  757MOL0     H99897   2.477   0.712   2.340 -1.5962  0.2909 -1.4930
  757MOL0     H99898   2.302   0.569   2.138  1.0197  0.4504  0.8976
  757MOL0     H99899   2.338   0.742   2.100 -4.1239  2.2917  0.4949
  757MOL0     H99900   2.255   0.793   2.339  3.1523  1.1140 -0.9416
  757MOL0     H99901   2.181   0.627   2.314 -1.7767 -0.4075 -2.8388
  757MOL0     H99902   2.128   0.870   2.144  1.1733  0.1599  0.9696
  757MOL0     H99903   2.038   0.708   2.139  1.3201  0.1521 -2.3554
  757MOL0     H99904   2.046   0.923   2.359 -3.4832  2.6539  0.0398
  757MOL0     H99905   1.984   0.765   2.395  0.8219 -0.6330 -0.3937
  757MOL0     H99906   3.196   0.641   2.382  0.0605  0.4092  0.3908
  757MOL0     H99907   3.402   0.595   2.293  0.9092 -1.0796 -1.7694
  757MOL0     H99908   3.620   0.451   1.874  0.1921 -0.2617 -0.7334
  757MOL0     H99909   3.838   0.446   1.775 -0.4379  2.5110  0.5256
  757MOL0     H99910   5.675   1.342   1.677 -2.8401 -3.5704 -0.6689
  757MOL0     H99911   5.915   1.401   1.615  4.7110  0.0859  1.3117
  757MOL0     H99912   6.245   1.403   1.493  0.7954  0.4828 -0.2420
  757MOL0     H99913   6.442   1.516   1.400 -0.0260  0.2872  0.2974
  757MOL0     H99914   6.741   1.597   1.624  1.6233  0.4539  0.8212
  757MOL0     H99915   6.812   1.626   1.468 -1.6344 -1.4741 -1.9553
  757MOL0     H99916   6.996   1.495   1.606  0.5778 -1.5631  1.3961
  757MOL0     H99917   6.868   1.389   1.647 -0.8475  3.2409  1.9144
  757MOL0     H99918   7.003   1.466   1.381  1.8523 -0.8562 -0.7307
  757MOL0     H99919   6.867   1.347   1.387 -0.1033  0.6169 -0.9822
  757MOL0     H99920   7.011   1.199   1.526 -1.1920  0.9866 -0.5109
  757MOL0     H99921   7.074   1.227   1.360  2.2590  2.5800 -0.2547
  757MOL0     H99922   7.389   1.366   1.593 -0.1080  1.0011  0.8224
  757MOL0     H99923   6.689   1.283   1.665  0.5632 -3.3076 -0.8101
  757MOL0     H99924   6.487   1.176   1.759  1.5714  1.3268  1.7116
  758MOL0     O99925   4.009   3.187   0.006  0.2013 -0.2808  0.5174
  758MOL0     C99926   4.015   3.235   0.117  0.6724  0.7407  0.1867
  758MOL0     O99927   3.924   3.221   0.220  0.1023 -0.4318  0.3127
  758MOL0     C99928   3.814   3.144   0.216 -0.1437 -0.1402 -0.4823
  758MOL0     C99929   3.719   3.171   0.124 -0.6256 -0.6217  0.1639
  758MOL0     C99930   3.593   3.107   0.143 -0.5281  0.3241 -0.5516
  758MOL0     C99931   3.572   3.007   0.236  0.2609 -0.3527 -0.5467
  758MOL0     O99932   3.456   2.936   0.229 -0.0759 -0.1507 -0.0810
  758MOL0     C99933   3.409   2.884   0.352  0.1058 -0.1569 -0.7202
  758MOL0     C99934   3.261   2.845   0.335  0.0686  0.6547  0.4376
  758MOL0     C99935   3.180   2.960   0.266 -0.6398 -0.3133  0.2055
  758MOL0     C99936   3.045   2.911   0.244 -0.4261  0.0687 -0.4196
  758MOL0     C99937   2.963   2.999   0.153  0.3993 -0.8036 -0.2548
  758MOL0     C99938   2.828   2.941   0.115  0.4930  0.3112 -0.0545
  758MOL0     C99939   2.760   3.025   0.003  0.1902 -0.7282  0.5061
  758MOL0     C99940   2.704   3.153   0.060 -0.3442 -0.8224  0.0906
  758MOL0     N99941   2.643   3.244  -0.041 -0.2682  0.0442 -0.2336
  758MOL0     C99942   2.511   3.234  -0.086 -0.3348 -0.7620  0.3639
  758MOL0     C99943   2.492   3.350  -0.161  0.0829  0.7070  0.0537
  758MOL0     C99944   2.367   3.403  -0.222  0.1515 -0.1178 -0.9997
  758MOL0     C99945   2.266   3.454  -0.117 -0.2779 -0.0824 -0.2691
  758MOL0     C99946   2.137   3.518  -0.175 -0.2429  0.3108 -0.0134
  758MOL0     C99947   2.156   3.615  -0.296 -0.8360 -0.7569 -0.0351
  758MOL0     O99948   2.245   3.721  -0.252  0.9405 -0.7176  0.0179
  758MOL0     C99949   2.188   3.821  -0.176  0.2217  0.5734  0.8389
  758MOL0     C99950   2.057   3.823  -0.127 -0.8913 -0.1651  1.1207
  758MOL0     C99951   1.997   3.922  -0.052  0.6829  0.2205 -0.1997
  758MOL0     C99952   2.076   4.038  -0.020 -0.3458  0.8141 -0.1277
  758MOL0     C99953   2.031   4.151   0.063  0.4333  0.3587  0.5785
  758MOL0     O99954   1.894   4.138   0.091  0.3343 -0.2697 -0.2656
  758MOL0     C99955   1.827   4.242   0.155 -0.5476 -0.6886  0.7713
  758MOL0     C99956   1.727   4.200   0.253 -0.5246 -0.6750  0.1288
  758MOL0     C99957   1.646   4.294   0.318 -0.4396 -1.1025  0.6141
  758MOL0     C99958   1.654   4.432   0.280  1.0489 -0.7194  0.3709
  758MOL0     O99959   1.561   4.518   0.335 -0.1422  0.0306  0.0168
  758MOL0     C99960   1.512   4.626   0.251 -0.7251 -0.5881 -0.2368
  758MOL0     C99961   1.394   4.701   0.326 -0.9595 -0.4769  0.0363
  758MOL0     C99962   1.258   4.632   0.319 -0.1824  0.0540 -0.0903
  758MOL0     C99963   1.156   4.733   0.376 -0.7459 -0.2310 -0.6527
  758MOL0     C99964   1.025   4.719   0.298 -0.5946 -0.3600 -0.9315
  758MOL0     C99965   0.904   4.776   0.370  0.0920 -0.6246  0.1319
  758MOL0     C99966   0.919   4.927   0.406  0.4583 -0.0114 -0.5002
  758MOL0     C99967   0.968   4.939   0.551  0.3263 -0.4326 -0.0284
  758MOL0    Cl99968   0.978   5.118   0.588  0.0713  0.2061  0.2767
  758MOL0     C99969   1.743   4.474   0.174 -0.3595 -0.1432  0.3813
  758MOL0     C99970   1.827   4.384   0.110  0.4195  0.2440 -0.2786
  758MOL0     O99971   2.100   4.240   0.093  0.0221  0.2387 -0.6306
  758MOL0     C99972   2.215   4.039  -0.068  0.0431  0.2343 -0.7971
  758MOL0     C99973   2.263   3.938  -0.150 -0.4044 -0.5809 -0.3067
  758MOL0     N99974   2.615   3.410  -0.161 -0.4320  0.4732  0.3229
  758MOL0     N99975   2.707   3.349  -0.094  0.0756  0.8421 -0.3008
  758MOL0     C99976   3.676   2.984   0.338 -0.7900  0.3178  0.4408
  758MOL0     C99977   3.793   3.053   0.321  0.2777  0.3102  1.2260
  758MOL0     C99978   4.134   3.309   0.157  0.5950  1.5349  0.7966
  758MOL0     C99979   4.246   3.320   0.065  0.0110  0.5919 -0.6464
  758MOL0     C99980   4.364   3.381   0.103  0.7476  0.1795 -0.5657
  758MOL0     C99981   4.373   3.444   0.227  0.7361 -0.3678 -0.2974
  758MOL0     O99982   4.489   3.494   0.284  0.7139  0.6924  0.2266
  758MOL0     C99983   4.482   3.634   0.333  0.1150 -0.0948 -1.0256
  758MOL0     C99984   4.630   3.692   0.341  0.6386 -0.2886  0.7120
  758MOL0     C99985   4.678   3.717   0.197 -0.6771 -0.3970  0.3144
  758MOL0     C99986   4.797   3.821   0.204  0.3049  0.6728 -0.1316
  758MOL0     C99987   4.743   3.956   0.223  0.0731  0.4943 -0.1979
  758MOL0     C99988   4.680   4.051   0.250  0.0183 -0.0370 -0.5467
  758MOL0     C99989   4.263   3.438   0.316 -0.5880 -0.7029 -0.3586
  758MOL0     C99990   4.143   3.378   0.279 -0.3757 -0.0527 -0.2110
  758MOL0     H99991   3.721   3.251   0.051 -0.9808  0.2262  1.0708
  758MOL0     H99992   3.520   3.126   0.065  1.6646  5.2302 -1.8117
  758MOL0     H99993   3.414   2.957   0.432  0.9841 -1.8069  0.7989
  758MOL0     H99994   3.461   2.794   0.385  0.2371  0.4439  0.7558
  758MOL0     H99995   3.225   2.822   0.436  0.0558 -4.1980 -0.4380
  758MOL0     H99996   3.255   2.749   0.284  0.8409  1.1919 -0.7275
  758MOL0     H99997   3.225   2.997   0.173 -2.1016  2.5050  0.5205
  758MOL0     H99998   3.187   3.051   0.326  2.0881  1.6224 -2.6829
  758MOL0     H99999   3.061   2.814   0.194  1.7700  0.8152 -1.2835
  758MOL0     H    0   2.995   2.892   0.339 -1.2427 -0.5387 -0.9563
  758MOL0     H    1   3.012   3.023   0.058 -0.4856  1.5958 -0.1687
  758MOL0     H    2   2.941   3.090   0.209  0.7826  0.0735 -1.4970
  758MOL0     H    3   2.760   2.939   0.201 -0.4388  1.3222 -0.7446
  758MOL0     H    4   2.833   2.836   0.085 -2.1792 -0.1502  0.7867
  758MOL0     H    5   2.839   3.052  -0.067  3.1155 -0.1077  3.7612
  758MOL0     H    6   2.679   2.976  -0.052 -0.5686  1.0466 -0.0001
  758MOL0     H    7   2.773   3.208   0.124 -0.6900  0.2258 -0.4128
  758MOL0     H    8   2.615   3.122   0.115 -1.2081  0.7479 -0.3505
  758MOL0     H    9   2.432   3.171  -0.045  1.2590 -1.8185  1.9988
  758MOL0     H   10   2.322   3.330  -0.290 -0.5088 -0.7279  0.0645
  758MOL0     H   11   2.408   3.493  -0.268 -0.7571  1.2751  0.7724
  758MOL0     H   12   2.300   3.529  -0.045 -3.3616 -0.0580  1.3269
  758MOL0     H   13   2.230   3.367  -0.061  0.1671 -0.9726 -1.3279
  758MOL0     H   14   2.091   3.427  -0.214  0.4471 -0.1671  0.2594
  758MOL0     H   15   2.071   3.548  -0.094  1.5187  0.1200  1.5560
  758MOL0     H   16   2.068   3.650  -0.351 -1.1048  1.2334  1.5824
  758MOL0     H   17   2.212   3.559  -0.373  0.0109 -2.6193  1.8284
  758MOL0     H   18   1.986   3.743  -0.147 -1.8738  0.1620  3.1456
  758MOL0     H   19   1.891   3.911  -0.028  1.2159 -1.1017  1.8151
  758MOL0     H   20   1.731   4.094   0.275  2.1061 -0.8182 -0.6971
  758MOL0     H   21   1.569   4.267   0.390 -1.9055  2.1398  0.4729
  758MOL0     H   22   1.476   4.598   0.152  0.2980  0.3041 -0.8854
  758MOL0     H   23   1.595   4.697   0.247 -1.3907  0.2358  0.2569
  758MOL0     H   24   1.381   4.793   0.268 -1.0696  0.9175  2.1580
  758MOL0     H   25   1.413   4.712   0.433  1.8785 -2.1459 -0.1860
  758MOL0     H   26   1.254   4.549   0.389 -0.7109  1.2760  1.3887
  758MOL0     H   27   1.233   4.615   0.214 -0.6032  0.6720 -0.0922
  758MOL0     H   28   1.135   4.704   0.480  0.5687  0.0698 -0.2817
  758MOL0     H   29   1.191   4.837   0.372  1.6064 -1.0056 -2.1491
  758MOL0     H   30   0.995   4.615   0.284  1.5077 -1.3321  1.0897
  758MOL0     H   31   1.038   4.757   0.196 -1.7466 -3.1884 -2.2655
  758MOL0     H   32   0.884   4.713   0.458 -2.3396  1.8098  1.4814
  758MOL0     H   33   0.819   4.759   0.303 -0.7244 -1.0592  1.2443
  758MOL0     H   34   0.989   4.973   0.336  1.3022 -0.3675  0.0991
  758MOL0     H   35   0.817   4.967   0.395  0.2190 -0.7987 -1.3075
  758MOL0     H   36   1.070   4.903   0.564  0.9061  1.2708  0.3428
  758MOL0     H   37   0.915   4.890   0.633  2.2071  0.5142  1.8383
  758MOL0     H   38   1.752   4.575   0.135 -0.9008 -0.5030 -0.7388
  758MOL0     H   39   1.892   4.413   0.028  0.9994 -1.0552 -0.3122
  758MOL0     H   40   2.288   4.116  -0.042  2.5228 -2.1439 -0.1904
  758MOL0     H   41   2.368   3.934  -0.178 -0.4958 -0.7341 -0.6381
  758MOL0     H   42   3.671   2.918   0.424  0.6806  0.5572  0.7369
  758MOL0     H   43   3.871   3.023   0.390  1.3204 -1.9440 -0.7847
  758MOL0     H   44   4.236   3.281  -0.036  0.3670 -0.4903 -0.2741
  758MOL0     H   45   4.446   3.365   0.033  2.4858 -4.0966  2.0213
  758MOL0     H   46   4.430   3.638   0.429  0.5680  1.4524 -0.8189
  758MOL0     H   47   4.413   3.688   0.267 -1.4236  0.8351  1.2095
  758MOL0     H   48   4.636   3.785   0.399  0.8622 -0.9744  1.8083
  758MOL0     H   49   4.705   3.626   0.386  2.1260  0.9939  0.2484
  758MOL0     H   50   4.593   3.749   0.135 -1.1552 -1.9747  0.1111
  758MOL0     H   51   4.724   3.628   0.153 -0.5734 -0.5139  0.6570
  758MOL0     H   52   4.871   3.797   0.280  0.2106 -1.1991 -0.5762
  758MOL0     H   53   4.856   3.817   0.111 -2.0223 -1.0131 -1.6544
  758MOL0     H   54   4.631   4.146   0.264 -0.6868 -0.3447 -0.8787
  758MOL0     H   55   4.277   3.484   0.414 -1.8189 -0.6674 -0.1807
  758MOL0     H   56   4.062   3.392   0.350  0.0624  0.1620  0.2532
  759MOL0     O   57   9.062   9.711   0.443 -0.2184 -0.0594  0.4435
  759MOL0     C   58   9.114   9.650   0.536  0.0830  0.9195 -0.3949
  759MOL0     O   59   9.054   9.550   0.608  0.2276 -0.5590 -0.8972
  759MOL0     C   60   8.918   9.544   0.589  0.4777 -0.1118  1.2007
  759MOL0     C   61   8.820   9.644   0.630 -0.1114 -0.4167 -0.8270
  759MOL0     C   62   8.682   9.627   0.599 -0.1894 -0.4453  0.4488
  759MOL0     C   63   8.638   9.514   0.519 -0.6559  0.9103 -0.7143
  759MOL0     O   64   8.509   9.461   0.491 -0.7172 -0.3817 -0.9093
  759MOL0     C   65   8.419   9.556   0.453  0.1431  0.6509 -0.6116
  759MOL0     C   66   8.292   9.465   0.436  0.1367  0.1323  0.3660
  759MOL0     C   67   8.179   9.548   0.391 -0.9773 -0.3843  0.0065
  759MOL0     C   68   8.079   9.460   0.307  0.0270 -0.0883  0.9731
  759MOL0     C   69   7.989   9.567   0.237 -0.5005 -0.0665 -0.9045
  759MOL0     C   70   7.864   9.509   0.173 -0.0383 -0.7732 -0.3501
  759MOL0     C   71   7.756   9.611   0.155  0.8654 -0.6188 -0.2511
  759MOL0     C   72   7.793   9.725   0.060  0.1459  0.2106  0.1765
  759MOL0     N   73   7.825   9.685  -0.077 -0.0722 -0.1393  0.1368
  759MOL0     C   74   7.877   9.767  -0.168 -0.8204  0.0371 -0.3744
  759MOL0     C   75   7.871   9.701  -0.287  0.3674  0.0733 -0.4617
  759MOL0     C   76   7.915   9.771  -0.421  0.4258  0.5708 -0.9942
  759MOL0     C   77   7.818   9.734  -0.538  0.0011 -0.1114 -0.8301
  759MOL0     C   78   7.672   9.769  -0.518  0.0011 -0.0322  0.3453
  759MOL0     C   79   7.597   9.778  -0.656  0.0272 -0.2064 -0.2189
  759MOL0     O   80   7.457   9.783  -0.616 -0.0008  0.1144  0.2155
  759MOL0     C   81   7.354   9.814  -0.701 -0.9504 -0.7030 -0.6671
  759MOL0     C   82   7.225   9.806  -0.641 -0.7588  0.7746  0.3812
  759MOL0     C   83   7.117   9.850  -0.716 -0.0916  0.1755 -0.0847
  759MOL0     C   84   7.127   9.912  -0.843 -0.7291  0.9360  0.7571
  759MOL0     C   85   7.003   9.960  -0.916 -0.4196 -0.3390  0.1287
  759MOL0     O   86   6.877   9.911  -0.876 -0.0680 -0.0926  0.2926
  759MOL0     C   87   6.765   9.962  -0.932  0.2906 -0.3026 -0.2905
  759MOL0     C   88   6.750  10.004  -1.063  0.0511  0.1123  0.3546
  759MOL0     C   89   6.623  10.038  -1.124 -0.4767 -0.0490 -0.5933
  759MOL0     C   90   6.505  10.027  -1.049 -0.8210 -0.1078  0.8237
  759MOL0     O   91   6.395  10.081  -1.102  0.3013  0.3560 -0.3242
  759MOL0     C   92   6.277  10.016  -1.045 -0.7736 -0.3240 -0.3191
  759MOL0     C   93   6.162  10.075  -1.128 -0.0706  0.7368  0.2575
  759MOL0     C   94   6.031  10.041  -1.057  0.2582  0.1567  0.3717
  759MOL0     C   95   5.926  10.083  -1.158  0.3572  0.3313  0.1195
  759MOL0     C   96   5.774  10.048  -1.107  0.1102  0.1052  1.0980
  759MOL0     C   97   5.681  10.038  -1.228  0.2284 -0.3143  0.0379
  759MOL0     C   98   5.531  10.088  -1.199 -0.2831 -0.2889  0.3261
  759MOL0     C   99   5.526  10.234  -1.248  0.3902 -0.0105 -0.2655
  759MOL0    Cl  100   5.558  10.251  -1.428 -0.5546  0.2693 -0.0743
  759MOL0     C  101   6.518   9.985  -0.915 -0.1221 -0.3386  0.0466
  759MOL0     C  102   6.642   9.954  -0.859 -0.1426 -0.1311  0.4381
  759MOL0     O  103   7.025  10.059  -0.989  0.0360  0.9127 -0.1116
  759MOL0     C  104   7.260   9.923  -0.899  0.2589 -0.0834 -0.3548
  759MOL0     C  105   7.369   9.875  -0.828  0.2993  0.5669  0.2052
  759MOL0     N  106   7.827   9.573  -0.259 -0.8381 -0.0066  0.3336
  759MOL0     N  107   7.803   9.568  -0.133 -0.1430 -0.5563  0.1889
  759MOL0     C  108   8.742   9.427   0.475  0.3650 -0.0534  0.3978
  759MOL0     C  109   8.874   9.440   0.511  0.2992 -0.0115 -0.0204
  759MOL0     C  110   9.257   9.664   0.565  0.3500  0.5514 -0.6656
  759MOL0     C  111   9.319   9.786   0.537  0.2287 -0.2255  0.2872
  759MOL0     C  112   9.464   9.798   0.564  0.1215 -0.1340 -0.2179
  759MOL0     C  113   9.532   9.694   0.628  0.0279 -0.5253  0.2750
  759MOL0     O  114   9.665   9.699   0.677  0.4265 -0.4406  0.4633
  759MOL0     C  115   9.720   9.823   0.712  0.4063  0.2652 -0.4886
  759MOL0     C  116   9.814   9.870   0.597 -0.1568 -0.2685  0.3005
  759MOL0     C  117   9.951   9.811   0.621 -0.0084  0.4641  0.2431
  759MOL0     C  118  10.043   9.822   0.494  0.0477  0.4766 -0.2956
  759MOL0     C  119  10.076   9.966   0.481 -0.6864  0.8013 -0.1491
  759MOL0     C  120  10.092  10.087   0.466  0.8068 -0.6746 -0.1498
  759MOL0     C  121   9.463   9.576   0.654  0.3894  0.2957  0.7579
  759MOL0     C  122   9.330   9.566   0.625  0.0710 -0.4315 -0.1065
  759MOL0     H  123   8.841   9.725   0.699 -1.2984  0.0393 -0.9737
  759MOL0     H  124   8.614   9.701   0.640  1.8590  2.4065 -0.9981
  759MOL0     H  125   8.450   9.601   0.358  1.2224  1.8872  0.2985
  759MOL0     H  126   8.400   9.633   0.528 -0.7471 -0.2327  0.0973
  759MOL0     H  127   8.251   9.410   0.521 -0.3742 -0.4049 -0.2107
  759MOL0     H  128   8.308   9.380   0.368 -2.9633  0.0845 -0.4586
  759MOL0     H  129   8.210   9.626   0.321 -1.0483 -1.5951 -1.4414
  759MOL0     H  130   8.122   9.595   0.471 -1.3598 -1.6510  0.4996
  759MOL0     H  131   8.133   9.395   0.237 -0.5267  0.5469 -0.0749
  759MOL0     H  132   8.006   9.404   0.366 -1.0162  0.1567 -0.0348
  759MOL0     H  133   8.040   9.625   0.160  1.1291 -1.1282 -0.6649
  759MOL0     H  134   7.966   9.644   0.311 -2.3983 -1.6943  0.3064
  759MOL0     H  135   7.821   9.428   0.234 -0.5528 -0.3981 -0.2123
  759MOL0     H  136   7.902   9.473   0.077 -0.7593  0.5477 -1.1496
  759MOL0     H  137   7.656   9.567   0.149 -0.4671  0.5355  5.9354
  759MOL0     H  138   7.752   9.652   0.256  1.1702 -1.6343  0.1922
  759MOL0     H  139   7.875   9.779   0.109 -0.0526  2.8434 -2.1592
  759MOL0     H  140   7.718   9.804   0.060 -0.3183 -0.1966  2.0943
  759MOL0     H  141   7.904   9.870  -0.144  0.1526  0.1214 -1.7678
  759MOL0     H  142   8.016   9.738  -0.446  0.8464 -1.6656  2.8876
  759MOL0     H  143   7.918   9.880  -0.408  4.0905  0.8196 -2.6224
  759MOL0     H  144   7.834   9.629  -0.564  0.3663 -0.3807  0.3713
  759MOL0     H  145   7.843   9.797  -0.624  0.8556 -0.1099 -0.5899
  759MOL0     H  146   7.620   9.684  -0.471  2.4899 -2.5959 -1.1824
  759MOL0     H  147   7.668   9.867  -0.469 -2.3518  1.8915 -3.3149
  759MOL0     H  148   7.616   9.688  -0.714  1.8220 -0.1173  0.1631
  759MOL0     H  149   7.640   9.861  -0.712  1.2312 -0.3857  0.3934
  759MOL0     H  150   7.215   9.763  -0.542 -0.9125  2.2912  1.0458
  759MOL0     H  151   7.015   9.829  -0.683  0.0030  2.0240  1.5888
  759MOL0     H  152   6.836  10.001  -1.129 -0.7503 -3.2852 -0.7096
  759MOL0     H  153   6.628  10.056  -1.231 -0.7804 -0.6904 -0.7253
  759MOL0     H  154   6.263  10.045  -0.941 -1.2238 -1.8131  0.0530
  759MOL0     H  155   6.278   9.907  -1.056 -1.1394 -0.6403  2.2391
  759MOL0     H  156   6.175  10.020  -1.222  0.5296  0.0787  0.7161
  759MOL0     H  157   6.184  10.180  -1.148 -0.4114  0.8642  0.5415
  759MOL0     H  158   6.019  10.094  -0.963 -0.8088  1.4657 -0.4750
  759MOL0     H  159   6.021   9.933  -1.039  1.3096  0.0924  0.6375
  759MOL0     H  160   5.931  10.190  -1.181  0.6500  1.0125  2.9419
  759MOL0     H  161   5.947  10.023  -1.247 -1.4391 -0.1292 -0.0135
  759MOL0     H  162   5.747  10.126  -1.036 -0.1535  1.9313 -0.9129
  759MOL0     H  163   5.776   9.949  -1.061 -1.8649  0.0206  1.0974
  759MOL0     H  164   5.667   9.933  -1.256 -1.3633 -0.4709  1.2543
  759MOL0     H  165   5.725  10.092  -1.313  0.5559 -3.1177 -1.6865
  759MOL0     H  166   5.453  10.031  -1.251 -0.9749  0.6169  0.3308
  759MOL0     H  167   5.515  10.085  -1.091  2.6202  0.6080  0.8421
  759MOL0     H  168   5.586  10.303  -1.189  0.8310  0.5989 -1.4122
  759MOL0     H  169   5.423  10.269  -1.232  1.1862  1.6331  1.6065
  759MOL0     H  170   6.429   9.963  -0.856  0.0067  0.5066  0.5664
  759MOL0     H  171   6.641   9.902  -0.764 -0.3113  0.1539  0.5947
  759MOL0     H  172   7.270   9.962  -1.000 -3.5949  0.7734 -0.5571
  759MOL0     H  173   7.467   9.888  -0.872  0.0154  0.9259 -0.3370
  759MOL0     H  174   8.718   9.335   0.423  0.5390 -0.9153  1.7935
  759MOL0     H  175   8.945   9.371   0.466 -0.1371  1.1015 -2.5907
  759MOL0     H  176   9.268   9.870   0.490  0.8142 -1.3483 -2.5387
  759MOL0     H  177   9.524   9.885   0.538  3.5618 -2.1843  0.2151
  759MOL0     H  178   9.780   9.810   0.802 -0.5119  1.4994  0.3442
  759MOL0     H  179   9.635   9.888   0.737 -3.0124 -3.2117 -2.1179
  759MOL0     H  180   9.783   9.821   0.504 -0.7024  0.2857  0.1760
  759MOL0     H  181   9.819   9.978   0.580  0.8533 -0.3829 -0.1398
  759MOL0     H  182   9.945   9.707   0.654  1.4859  1.2292  3.3128
  759MOL0     H  183   9.995   9.871   0.701 -3.4114  2.6418  0.6898
  759MOL0     H  184  10.135   9.765   0.508 -0.2685  0.1585  0.5495
  759MOL0     H  185  10.003   9.769   0.406 -0.8632  0.6825 -0.0147
  759MOL0     H  186  10.102  10.192   0.452  0.8840 -0.8630 -1.6691
  759MOL0     H  187   9.524   9.493   0.687  0.2089 -0.3275 -0.4381
  759MOL0     H  188   9.278   9.472   0.641 -0.1350 -0.0325  1.8320
  760MOL0     O  189   2.285   0.774  10.067  0.6785  0.2454 -0.0978
  760MOL0     C  190   2.322   0.889  10.097  0.8557  0.2111 -0.2728
  760MOL0     O  191   2.246   0.980  10.164 -0.4014  0.3704  0.0907
  760MOL0     C  192   2.122   0.941  10.199 -0.2183  0.6821  0.3024
  760MOL0     C  193   2.084   0.959  10.331  1.0094  0.1787  0.9295
  760MOL0     C  194   1.958   0.931  10.372 -0.0560  0.3214  0.1970
  760MOL0     C  195   1.867   0.888  10.278  0.3323  0.0676 -0.3985
  760MOL0     O  196   1.740   0.878  10.330  0.3890  0.4532 -0.0862
  760MOL0     C  197   1.636   0.818  10.253 -0.0598  0.7250 -0.1699
  760MOL0     C  198   1.531   0.804  10.354  0.6987 -0.1916 -0.5759
  760MOL0     C  199   1.408   0.753  10.292  0.2715 -0.0316  0.3478
  760MOL0     C  200   1.301   0.741  10.407 -0.8749  0.2830 -0.4586
  760MOL0     C  201   1.162   0.708  10.367 -0.0272 -0.0861 -0.0160
  760MOL0     C  202   1.088   0.810  10.267 -0.6619 -0.5853 -0.2953
  760MOL0     C  203   0.946   0.753  10.226 -0.2657 -0.0903 -0.0821
  760MOL0     C  204   0.843   0.743  10.339 -0.4175  0.6675  0.9397
  760MOL0     N  205   0.703   0.746  10.274  0.0877  0.2600 -0.1642
  760MOL0     C  206   0.646   0.652  10.196 -0.3870  0.4133 -1.2310
  760MOL0     C  207   0.516   0.676  10.194  0.4795  0.4587 -0.0390
  760MOL0     C  208   0.407   0.593  10.121  0.2414  0.5110 -0.3820
  760MOL0     C  209   0.273   0.606  10.185  0.5527 -0.2319 -0.3436
  760MOL0     C  210   0.191   0.475  10.150  0.8469  0.0408  0.4874
  760MOL0     C  211   0.049   0.482  10.208 -0.4574  0.6252 -0.3307
  760MOL0     O  212  -0.010   0.357  10.184 -1.1519 -0.5883 -0.1382
  760MOL0     C  213  -0.147   0.344  10.203 -0.2436  0.0119  0.5942
  760MOL0     C  214  -0.200   0.213  10.186 -0.5058  0.0439 -0.1278
  760MOL0     C  215  -0.335   0.194  10.204 -0.0957 -0.7189 -0.7045
  760MOL0     C  216  -0.428   0.297  10.235 -0.2790 -0.1398  0.2750
  760MOL0     C  217  -0.570   0.275  10.236  0.4627 -0.1629  0.2144
  760MOL0     O  218  -0.624   0.183  10.155  0.3902 -0.2686  0.2070
  760MOL0     C  219  -0.759   0.149  10.155 -0.2667  0.3280 -0.0827
  760MOL0     C  220  -0.850   0.168  10.267 -0.2943  0.2354 -0.1341
  760MOL0     C  221  -0.981   0.124  10.249 -0.5403 -1.0501  0.0743
  760MOL0     C  222  -1.026   0.053  10.141  0.2008  0.2836 -0.0038
  760MOL0     O  223  -1.161   0.019  10.145  0.1074  0.2381  0.4547
  760MOL0     C  224  -1.225  -0.053  10.043 -0.3157 -0.0277 -0.0902
  760MOL0     C  225  -1.378  -0.036  10.059 -1.0852 -0.2301  0.0175
  760MOL0     C  226  -1.440  -0.085  10.191 -1.0756  0.1768 -0.1152
  760MOL0     C  227  -1.593  -0.119  10.179  0.0826  0.2769  0.4326
  760MOL0     C  228  -1.678   0.008  10.141  0.3114  0.0643 -0.1534
  760MOL0     C  229  -1.683   0.128  10.251 -0.0755 -0.6100 -0.4872
  760MOL0     C  230  -1.799   0.230  10.233  0.2090 -0.1105  0.5378
  760MOL0     C  231  -1.776   0.355  10.316  0.3983 -0.0322 -0.0832
  760MOL0    Cl  232  -1.927   0.435  10.334  0.0732 -0.1940  0.3062
  760MOL0     C  233  -0.937   0.026  10.040  0.1235 -0.2087  0.4582
  760MOL0     C  234  -0.798   0.068  10.044  0.0543 -0.7042 -0.0009
  760MOL0     O  235  -0.636   0.347  10.308  0.1716  0.2804 -0.3145
  760MOL0     C  236  -0.373   0.416  10.267  0.3567  0.6471 -0.3708
  760MOL0     C  237  -0.233   0.445  10.258 -0.1334  0.2205  0.2969
  760MOL0     N  238   0.496   0.804  10.254  0.7158 -0.2481  0.4472
  760MOL0     N  239   0.611   0.847  10.307 -0.0930  0.2274  0.4532
  760MOL0     C  240   1.903   0.864  10.151  0.1813  0.1414  0.2896
  760MOL0     C  241   2.026   0.899  10.103 -0.3503  1.1583 -0.5912
  760MOL0     C  242   2.461   0.942  10.068 -0.0882  0.6532  0.1871
  760MOL0     C  243   2.498   1.072  10.071  0.3485 -0.3153 -0.2049
  760MOL0     C  244   2.628   1.117  10.040  0.4581  0.3889  0.0311
  760MOL0     C  245   2.720   1.024   9.994 -0.2988 -0.7922  0.3156
  760MOL0     O  246   2.847   1.040   9.942 -0.0786 -0.0999 -1.0066
  760MOL0     C  247   2.885   1.177   9.929 -0.0970 -0.2774  0.7006
  760MOL0     C  248   2.955   1.238  10.048 -0.8937 -0.3532  0.1782
  760MOL0     C  249   3.098   1.179  10.064 -0.0124 -0.1703 -0.4238
  760MOL0     C  250   3.170   1.285  10.144  0.3559  0.1529  0.4476
  760MOL0     C  251   3.302   1.225  10.171  0.0438 -0.9177 -0.5315
  760MOL0     C  252   3.413   1.187  10.171 -0.0538 -0.3668 -0.4253
  760MOL0     C  253   2.682   0.890   9.981 -0.5513 -0.1299  0.0533
  760MOL0     C  254   2.563   0.850  10.020  0.6037  1.2056 -0.4612
  760MOL0     H  255   2.163   0.986  10.401  1.0811  0.8924  0.5882
  760MOL0     H  256   1.924   0.949  10.473 -1.2809 -1.7428  0.1962
  760MOL0     H  257   1.667   0.718  10.221  0.0019 -0.2465  2.5964
  760MOL0     H  258   1.599   0.882  10.173 -0.4874 -0.2837 -0.7971
  760MOL0     H  259   1.511   0.906  10.389  1.8243  0.0445 -0.5823
  760MOL0     H  260   1.548   0.730  10.432 -2.1213  0.2915  0.6292
  760MOL0     H  261   1.442   0.660  10.245  1.7562  1.2033 -1.1519
  760MOL0     H  262   1.387   0.829  10.216 -2.8018  2.0307  2.9376
  760MOL0     H  263   1.332   0.665  10.479 -0.5460  0.0484 -0.8456
  760MOL0     H  264   1.298   0.838  10.459 -1.1387 -1.5532  3.3487
  760MOL0     H  265   1.090   0.686  10.447 -2.5609 -1.7690 -2.5458
  760MOL0     H  266   1.165   0.611  10.318 -2.2070  0.0021 -0.4226
  760MOL0     H  267   1.138   0.809  10.170  1.6006 -0.9274  0.8283
  760MOL0     H  268   1.082   0.916  10.292 -0.9538 -0.1277 -2.1610
  760MOL0     H  269   0.905   0.824  10.153  1.7448 -0.3852 -1.5636
  760MOL0     H  270   0.969   0.657  10.181  0.0982 -0.5850  1.1045
  760MOL0     H  271   0.860   0.824  10.410 -0.6138  1.4907  0.0779
  760MOL0     H  272   0.865   0.650  10.392  0.9836  1.7817  2.4100
  760MOL0     H  273   0.690   0.560  10.160  1.3896  0.4098  0.7912
  760MOL0     H  274   0.434   0.487  10.115 -3.2182 -0.4712 -0.3819
  760MOL0     H  275   0.389   0.627  10.019  0.3318 -0.3850 -0.7118
  760MOL0     H  276   0.221   0.697  10.156  1.4594  0.4092  0.0077
  760MOL0     H  277   0.284   0.615  10.293  1.8041  3.4045 -0.6432
  760MOL0     H  278   0.176   0.443  10.046 -0.3004  1.2414  0.2627
  760MOL0     H  279   0.234   0.383  10.192  0.0880  0.1951  1.6352
  760MOL0     H  280  -0.013   0.558  10.160  0.3642  1.6445  0.1902
  760MOL0     H  281   0.057   0.510  10.313  0.2226  2.7181 -0.9001
  760MOL0     H  282  -0.141   0.131  10.146 -2.8686 -1.2944 -1.0734
  760MOL0     H  283  -0.378   0.096  10.184 -1.7049 -0.0742 -0.5835
  760MOL0     H  284  -0.841   0.224  10.359 -3.4760 -0.9019  1.0343
  760MOL0     H  285  -1.054   0.142  10.328  1.7025  1.4641  1.7076
  760MOL0     H  286  -1.196  -0.158  10.046  0.4526  0.1451 -0.9540
  760MOL0     H  287  -1.197  -0.015   9.944  1.1226  0.5331  0.4890
  760MOL0     H  288  -1.424  -0.083   9.971 -0.8891  0.7240 -0.6027
  760MOL0     H  289  -1.403   0.070  10.051 -3.6034 -0.7416  0.0972
  760MOL0     H  290  -1.423  -0.004  10.262  0.6799  0.3599 -0.7213
  760MOL0     H  291  -1.392  -0.175  10.229  0.1100  1.3376  1.2376
  760MOL0     H  292  -1.600  -0.200  10.106 -0.0480 -0.6840  1.4838
  760MOL0     H  293  -1.635  -0.160  10.271  0.2441  1.8922  1.2701
  760MOL0     H  294  -1.778  -0.035  10.136  0.0244  0.0225  3.2034
  760MOL0     H  295  -1.649   0.050  10.044  1.4727  0.3838  0.3059
  760MOL0     H  296  -1.597   0.193  10.233 -2.3349  2.1060 -2.2717
  760MOL0     H  297  -1.689   0.085  10.351  0.0532 -0.2468 -0.3233
  760MOL0     H  298  -1.796   0.260  10.127  3.8976 -2.3792 -0.2112
  760MOL0     H  299  -1.896   0.189  10.261 -1.2929  2.4728 -0.5008
  760MOL0     H  300  -1.705   0.429  10.277 -0.1447  0.0415 -0.9555
  760MOL0     H  301  -1.730   0.317  10.408  0.8297  1.4687  0.3430
  760MOL0     H  302  -0.982  -0.019   9.952 -0.7152 -0.0875  0.8114
  760MOL0     H  303  -0.723   0.041   9.970  1.2054 -0.2362  0.9638
  760MOL0     H  304  -0.434   0.501  10.297  1.8220  2.2165 -1.6184
  760MOL0     H  305  -0.194   0.543  10.286 -1.2436  0.8609 -0.2991
  760MOL0     H  306   1.824   0.825  10.088  1.3853  1.4822 -2.1797
  760MOL0     H  307   2.048   0.884   9.998  1.5044  3.2168 -0.5557
  760MOL0     H  308   2.414   1.137  10.094 -1.1057 -1.4220 -2.1358
  760MOL0     H  309   2.646   1.223  10.053 -1.5953  1.0989 -2.2710
  760MOL0     H  310   2.799   1.241   9.910  1.7033  2.2107  0.5383
  760MOL0     H  311   2.954   1.184   9.845  0.6270 -0.3994  1.2747
  760MOL0     H  312   2.954   1.340  10.009 -1.4059 -0.4347 -0.0327
  760MOL0     H  313   2.897   1.234  10.141 -1.4749  3.7178  0.1535
  760MOL0     H  314   3.151   1.152   9.972  2.7156 -0.9507  1.2606
  760MOL0     H  315   3.080   1.088  10.122 -0.8465  0.8850  1.0389
  760MOL0     H  316   3.183   1.371  10.077  2.5708 -0.6820 -0.2656
  760MOL0     H  317   3.125   1.301  10.242  0.7522 -1.4839  0.9313
  760MOL0     H  318   3.515   1.153  10.167  0.8787  1.9297  1.4565
  760MOL0     H  319   2.753   0.819   9.940  0.3769  1.9540 -2.2803
  760MOL0     H  320   2.537   0.745  10.016  1.0179  1.1256 -1.1601
  761MOL0     O  321   9.691   0.862   2.079  0.2355 -0.3021  0.2063
  761MOL0     C  322   9.698   0.908   1.962 -0.1251  0.3105 -0.0928
  761MOL0     O  323   9.635   0.856   1.846 -0.3612  1.1310 -0.3436
  761MOL0     C  324   9.569   0.736   1.874  0.3613  0.0087  0.7371
  761MOL0     C  325   9.616   0.615   1.819  0.2318  0.3903 -1.0184
  761MOL0     C  326   9.537   0.501   1.824  0.0736 -0.0505  0.1905
  761MOL0     C  327   9.411   0.496   1.886 -0.0374 -0.8690 -0.0793
  761MOL0     O  328   9.321   0.395   1.882  0.1165 -0.3601  0.0288
  761MOL0     C  329   9.375   0.270   1.899 -0.2892 -0.0296 -0.0304
  761MOL0     C  330   9.273   0.163   1.895  0.2231  0.1734 -0.4589
  761MOL0     C  331   9.338   0.023   1.863  0.1115 -1.2129  0.6690
  761MOL0     C  332   9.239  -0.072   1.799  0.1874  0.6804 -0.7418
  761MOL0     C  333   9.300  -0.202   1.760 -0.3248  0.5349 -0.2497
  761MOL0     C  334   9.211  -0.315   1.706  1.0254  0.2133  0.1528
  761MOL0     C  335   9.293  -0.440   1.689 -0.9556  0.3331  0.7031
  761MOL0     C  336   9.208  -0.569   1.660 -0.2351 -0.2130 -0.8119
  761MOL0     N  337   9.066  -0.545   1.642  0.8360  0.3643  0.1579
  761MOL0     C  338   8.999  -0.558   1.520  1.1020 -0.5476 -0.0843
  761MOL0     C  339   8.868  -0.545   1.555  0.7314  0.0156 -1.0746
  761MOL0     C  340   8.751  -0.561   1.463 -0.4216 -0.8440  0.6191
  761MOL0     C  341   8.624  -0.603   1.543  0.8624  0.0372 -0.1095
  761MOL0     C  342   8.527  -0.683   1.456 -0.0001  0.4460 -0.2183
  761MOL0     C  343   8.460  -0.596   1.356 -0.1910 -0.7630  0.2212
  761MOL0     O  344   8.388  -0.486   1.418  0.0657  0.4857  0.3330
  761MOL0     C  345   8.261  -0.503   1.463  0.5350 -0.3142 -0.1713
  761MOL0     C  346   8.204  -0.627   1.486  0.0610  0.1461  0.0419
  761MOL0     C  347   8.080  -0.643   1.548 -0.5030 -0.5133  0.0641
  761MOL0     C  348   7.997  -0.529   1.580  0.6968 -0.4408 -0.6154
  761MOL0     C  349   7.855  -0.545   1.610 -0.7583  0.2846  0.2378
  761MOL0     O  350   7.816  -0.672   1.631 -0.4824  0.4865 -0.0666
  761MOL0     C  351   7.688  -0.694   1.663  0.1956 -0.3376  1.0539
  761MOL0     C  352   7.594  -0.696   1.555  0.1754  0.0314  0.6797
  761MOL0     C  353   7.459  -0.704   1.588 -0.0382  1.1065 -0.8545
  761MOL0     C  354   7.415  -0.730   1.713  0.1572  0.0238 -0.3657
  761MOL0     O  355   7.290  -0.757   1.756 -0.0711 -0.1017 -0.5333
  761MOL0     C  356   7.184  -0.813   1.666  0.1805 -0.1761 -0.2675
  761MOL0     C  357   7.062  -0.859   1.751 -0.3078  0.2168 -0.7962
  761MOL0     C  358   6.952  -0.918   1.656  0.5766 -0.4392 -0.3673
  761MOL0     C  359   6.828  -0.960   1.734 -0.3797  0.0352  0.2988
  761MOL0     C  360   6.721  -0.992   1.639 -0.3172 -0.0399 -0.6474
  761MOL0     C  361   6.584  -1.042   1.706 -0.1541 -0.2425 -0.0061
  761MOL0     C  362   6.483  -1.094   1.601  0.2473 -0.3584  0.3844
  761MOL0     C  363   6.416  -1.227   1.640 -0.0524 -1.0973 -0.3116
  761MOL0    Cl  364   6.331  -1.203   1.804 -0.2023 -0.1615 -0.0901
  761MOL0     C  365   7.513  -0.742   1.817  0.3853 -0.1135 -0.1931
  761MOL0     C  366   7.653  -0.727   1.786  0.5479 -0.3147 -0.1726
  761MOL0     O  367   7.778  -0.451   1.623 -0.3577 -0.4651  0.3615
  761MOL0     C  368   8.051  -0.403   1.558 -1.0249 -0.7089 -0.5451
  761MOL0     C  369   8.189  -0.388   1.516  0.5162 -0.4915 -0.2065
  761MOL0     N  370   8.857  -0.536   1.695  0.3017  0.2674  0.2167
  761MOL0     N  371   8.977  -0.546   1.748 -0.4836  0.1777 -0.3445
  761MOL0     C  372   9.369   0.611   1.951 -0.4970  0.4664  0.8734
  761MOL0     C  373   9.448   0.731   1.948  0.2832 -0.0380 -0.2686
  761MOL0     C  374   9.780   1.030   1.955  0.4679  0.4827 -0.0277
  761MOL0     C  375   9.855   1.088   2.062 -0.0639  1.1631 -0.6456
  761MOL0     C  376   9.924   1.204   2.032 -0.1646 -0.6212 -0.2918
  761MOL0     C  377   9.915   1.273   1.914  0.2521 -0.0956 -0.1198
  761MOL0     O  378   9.969   1.395   1.876  0.1216  0.7061  0.2200
  761MOL0     C  379  10.055   1.477   1.957 -0.4559 -0.2922  0.1740
  761MOL0     C  380  10.098   1.586   1.860  1.1033 -0.2027  1.0292
  761MOL0     C  381  10.200   1.681   1.929 -0.3647 -0.3272 -0.1204
  761MOL0     C  382  10.224   1.802   1.843  0.4291  0.3047  0.4205
  761MOL0     C  383  10.316   1.901   1.895  0.3259  0.3635 -0.4999
  761MOL0     C  384  10.388   1.993   1.926  0.6327  0.4027 -0.7946
  761MOL0     C  385   9.849   1.212   1.813  0.3240  0.0010 -0.7044
  761MOL0     C  386   9.777   1.096   1.833  0.9286 -0.3840 -0.3239
  761MOL0     H  387   9.713   0.621   1.772  0.8562  0.5167  0.2382
  761MOL0     H  388   9.574   0.410   1.778 -0.1314 -0.6935  1.2631
  761MOL0     H  389   9.432   0.264   1.993  0.2670  2.9041 -0.0952
  761MOL0     H  390   9.448   0.260   1.818 -2.2968  3.8563 -2.5977
  761MOL0     H  391   9.212   0.180   1.806  0.1452 -0.9647 -0.6399
  761MOL0     H  392   9.219   0.162   1.990  1.1683 -1.3955  0.1038
  761MOL0     H  393   9.388  -0.024   1.948 -3.4383  0.0313  3.7600
  761MOL0     H  394   9.417   0.032   1.788  1.7120 -0.7199  2.3507
  761MOL0     H  395   9.162  -0.084   1.876  1.4569  0.9764  0.6157
  761MOL0     H  396   9.188  -0.026   1.713 -2.6867  0.8115  0.9048
  761MOL0     H  397   9.337  -0.242   1.855 -0.8755  0.2151 -0.1666
  761MOL0     H  398   9.369  -0.191   1.676  0.5675  0.6670  0.4805
  761MOL0     H  399   9.158  -0.280   1.616  0.7681 -0.1337  0.1678
  761MOL0     H  400   9.145  -0.334   1.791  1.9656  0.7966  1.0402
  761MOL0     H  401   9.359  -0.424   1.604 -1.0423 -0.6565  0.4298
  761MOL0     H  402   9.353  -0.460   1.778 -0.0131 -1.8004 -0.3314
  761MOL0     H  403   9.215  -0.639   1.744 -1.1447  1.5772  0.8569
  761MOL0     H  404   9.247  -0.624   1.574 -0.1762 -0.9978 -0.2965
  761MOL0     H  405   9.034  -0.565   1.417  0.4840  2.4985 -0.6117
  761MOL0     H  406   8.771  -0.642   1.391  0.0240 -1.8688  1.8539
  761MOL0     H  407   8.729  -0.476   1.398  0.3972 -0.8009  0.3984
  761MOL0     H  408   8.575  -0.527   1.603  1.5205 -1.1790  2.0831
  761MOL0     H  409   8.649  -0.678   1.619  0.4952 -1.2439 -1.2071
  761MOL0     H  410   8.578  -0.764   1.403  1.8342 -0.3197  2.4694
  761MOL0     H  411   8.454  -0.735   1.518  0.0855 -0.1208 -0.5882
  761MOL0     H  412   8.394  -0.657   1.294  0.5018 -1.1939 -0.1097
  761MOL0     H  413   8.530  -0.546   1.288 -3.3105  0.9469 -1.9822
  761MOL0     H  414   8.246  -0.718   1.445 -2.7652 -1.0199 -0.5129
  761MOL0     H  415   8.049  -0.744   1.573 -0.7420 -1.3878 -3.2633
  761MOL0     H  416   7.622  -0.669   1.453 -1.5764 -1.8923 -0.3630
  761MOL0     H  417   7.400  -0.703   1.497 -2.0493  1.2727  0.3988
  761MOL0     H  418   7.204  -0.904   1.609 -1.3710  0.2088 -1.5075
  761MOL0     H  419   7.153  -0.741   1.590  0.9619  0.0333 -0.3944
  761MOL0     H  420   7.021  -0.779   1.813 -1.3744  0.5902 -1.9258
  761MOL0     H  421   7.095  -0.942   1.814  4.3026  0.7313 -2.1556
  761MOL0     H  422   6.985  -0.995   1.586  0.8777  1.5325 -2.5294
  761MOL0     H  423   6.925  -0.832   1.594  1.3292 -0.6876 -1.0636
  761MOL0     H  424   6.848  -1.054   1.787 -0.6369  0.7527  1.7064
  761MOL0     H  425   6.786  -0.890   1.807 -1.5348  0.7116 -0.9645
  761MOL0     H  426   6.771  -1.064   1.573  0.8188 -1.6493  1.8004
  761MOL0     H  427   6.694  -0.898   1.591 -2.0816 -0.0497  0.2445
  761MOL0     H  428   6.547  -0.962   1.771 -1.1825 -0.2742 -0.5257
  761MOL0     H  429   6.609  -1.126   1.770 -2.0945 -1.0656 -0.2438
  761MOL0     H  430   6.401  -1.023   1.588  0.7164 -0.1315 -1.7381
  761MOL0     H  431   6.540  -1.104   1.508  1.1102 -2.7203  1.1092
  761MOL0     H  432   6.490  -1.306   1.657 -0.3760 -0.9782  1.9563
  761MOL0     H  433   6.337  -1.251   1.568  0.3129  0.3803 -1.2548
  761MOL0     H  434   7.485  -0.751   1.921  1.7554  3.4707  0.6300
  761MOL0     H  435   7.718  -0.727   1.873  0.2795  2.0495  0.1018
  761MOL0     H  436   7.997  -0.314   1.588  1.3307  0.5501  0.2629
  761MOL0     H  437   8.249  -0.300   1.534  0.3394  0.6303 -4.1000
  761MOL0     H  438   9.280   0.619   2.013 -1.7853 -1.8253 -0.5357
  761MOL0     H  439   9.418   0.823   1.998  2.0773  0.2131  0.4212
  761MOL0     H  440   9.857   1.040   2.160 -0.5299  1.5041 -0.4621
  761MOL0     H  441   9.985   1.256   2.105 -0.2068 -2.3222  1.0054
  761MOL0     H  442  10.140   1.420   1.995 -0.7187 -2.2494 -1.9591
  761MOL0     H  443   9.998   1.524   2.038 -0.7402 -1.1729  0.4942
  761MOL0     H  444  10.137   1.544   1.766 -1.4181  0.0445 -0.2062
  761MOL0     H  445  10.012   1.646   1.829 -0.0169 -2.4564 -0.4837
  761MOL0     H  446  10.299   1.640   1.951  0.3008 -0.3756 -2.8851
  761MOL0     H  447  10.159   1.718   2.024  3.4555  2.4534  0.6739
  761MOL0     H  448  10.277   1.774   1.752  0.3268  0.5071  0.2959
  761MOL0     H  449  10.134   1.857   1.813  1.5177  1.0847 -1.5321
  761MOL0     H  450  10.468   2.063   1.921  0.0192  1.0288 -4.8597
  761MOL0     H  451   9.863   1.263   1.719  4.2991 -1.0957 -0.8607
  761MOL0     H  452   9.715   1.076   1.746 -0.2270 -1.1868  0.6559
  762MOL0     O  453   2.329   7.554   1.987 -0.3244  0.3490  0.1739
  762MOL0     C  454   2.348   7.535   1.870 -0.6201 -0.4394  1.3211
  762MOL0     O  455   2.276   7.453   1.794  0.7712  0.1720 -0.1781
  762MOL0     C  456   2.148   7.414   1.828  0.2263  0.1501 -0.1705
  762MOL0     C  457   2.124   7.339   1.935 -1.2232 -0.1291 -0.1060
  762MOL0     C  458   1.988   7.303   1.958 -0.5131 -0.8182  0.0802
  762MOL0     C  459   1.884   7.346   1.876  0.3739  0.1670 -0.5806
  762MOL0     O  460   1.761   7.303   1.908  0.3779  0.7702 -0.3215
  762MOL0     C  461   1.654   7.316   1.812  0.1510  0.0186 -0.5381
  762MOL0     C  462   1.534   7.229   1.850 -0.1354 -0.2931  0.0275
  762MOL0     C  463   1.443   7.215   1.723  0.2730 -0.0415  0.3607
  762MOL0     C  464   1.317   7.125   1.751  0.0209  0.1916  0.5211
  762MOL0     C  465   1.287   7.025   1.639  0.5736 -0.5951 -0.4926
  762MOL0     C  466   1.178   6.930   1.692 -0.3158  0.1329 -0.4997
  762MOL0     C  467   1.155   6.820   1.588  0.3616  0.3640  0.6956
  762MOL0     C  468   1.029   6.724   1.612  0.1263 -0.3907 -0.1083
  762MOL0     N  469   0.988   6.653   1.488  0.1065 -0.3733 -0.1810
  762MOL0     C  470   0.878   6.680   1.411  0.5201 -0.0753  0.3079
  762MOL0     C  471   0.888   6.591   1.307 -0.0859 -0.0925 -0.8524
  762MOL0     C  472   0.777   6.569   1.213 -0.0226  0.7538 -0.3777
  762MOL0     C  473   0.696   6.450   1.254 -0.4468  0.8598  1.0364
  762MOL0     C  474   0.588   6.419   1.146  0.1144 -0.1050 -0.2147
  762MOL0     C  475   0.490   6.537   1.117 -0.8114 -0.4214  0.2383
  762MOL0     O  476   0.383   6.490   1.031  0.0693  0.4134  0.2337
  762MOL0     C  477   0.278   6.423   1.083 -0.1650 -0.6502 -0.4873
  762MOL0     C  478   0.259   6.399   1.222  0.1402 -0.8205 -0.5695
  762MOL0     C  479   0.142   6.336   1.264  0.4835 -1.2722  0.1467
  762MOL0     C  480   0.039   6.311   1.166 -0.0211 -1.4140 -0.3562
  762MOL0     C  481  -0.089   6.252   1.204 -0.6136 -0.4930 -0.6403
  762MOL0     O  482  -0.114   6.239   1.337  0.1055 -0.4952 -0.1986
  762MOL0     C  483  -0.234   6.196   1.391  0.7210 -1.0854  0.2095
  762MOL0     C  484  -0.236   6.220   1.535  0.4229  0.2696  0.2588
  762MOL0     C  485  -0.340   6.154   1.601 -0.2571  0.3263  0.7697
  762MOL0     C  486  -0.434   6.074   1.531  0.2765  0.7906 -0.3457
  762MOL0     O  487  -0.532   6.001   1.593  0.3566  0.0386 -0.2421
  762MOL0     C  488  -0.579   6.031   1.725 -0.4827 -0.5242 -0.7703
  762MOL0     C  489  -0.700   5.955   1.771  0.2937 -0.9240 -0.6055
  762MOL0     C  490  -0.780   6.015   1.887 -0.6000  0.1197  0.4409
  762MOL0     C  491  -0.925   5.966   1.911 -0.5214  0.7472 -0.4405
  762MOL0     C  492  -0.983   6.064   2.014 -0.1139 -0.5849 -0.2838
  762MOL0     C  493  -1.132   6.058   2.025  0.0171  0.7018 -0.0724
  762MOL0     C  494  -1.186   5.989   2.144  0.3096 -0.2569 -1.0880
  762MOL0     C  495  -1.322   6.028   2.184  0.3158  0.1009 -0.0600
  762MOL0    Cl  496  -1.385   5.927   2.312  0.0811 -0.4905 -0.0891
  762MOL0     C  497  -0.430   6.062   1.391 -0.1342  0.0444 -0.1123
  762MOL0     C  498  -0.329   6.119   1.327  0.3276  0.1442 -0.0756
  762MOL0     O  499  -0.163   6.223   1.116  0.0772  0.6840 -0.5580
  762MOL0     C  500   0.072   6.335   1.026 -0.2600  0.0722 -0.7724
  762MOL0     C  501   0.188   6.393   0.984  0.3918  0.5865 -0.5153
  762MOL0     N  502   1.000   6.517   1.327  0.1859  0.3284  0.5177
  762MOL0     N  503   1.063   6.570   1.422 -0.4134 -0.0872 -1.0177
  762MOL0     C  504   1.916   7.432   1.766  0.0601 -0.9426 -0.1778
  762MOL0     C  505   2.049   7.469   1.748 -0.0800  0.9522 -0.0473
  762MOL0     C  506   2.455   7.609   1.802 -0.3899 -0.7616 -0.6862
  762MOL0     C  507   2.500   7.731   1.863  0.4706 -0.4153  0.0589
  762MOL0     C  508   2.605   7.801   1.815  0.2082  0.4547  0.0315
  762MOL0     C  509   2.672   7.761   1.696  0.3157 -0.5740 -0.5378
  762MOL0     O  510   2.780   7.831   1.652 -0.4834 -0.6682 -0.3786
  762MOL0     C  511   2.866   7.744   1.579 -0.5019 -1.1140 -0.9546
  762MOL0     C  512   2.991   7.823   1.534  0.1327 -0.1439 -0.7103
  762MOL0     C  513   3.056   7.885   1.657 -0.2141 -0.3815 -0.5183
  762MOL0     C  514   3.171   7.987   1.625 -0.0999  1.1245 -0.5556
  762MOL0     C  515   3.287   7.906   1.560  0.4187 -0.4116  0.3544
  762MOL0     C  516   3.386   7.848   1.527 -0.9683 -0.4518  0.5167
  762MOL0     C  517   2.622   7.641   1.630 -0.0525 -0.2394 -0.4207
  762MOL0     C  518   2.520   7.567   1.689 -0.2107 -0.5052  0.4444
  762MOL0     H  519   2.200   7.298   2.002 -1.3544 -2.2577 -1.1778
  762MOL0     H  520   1.974   7.234   2.040 -0.2229 -1.4338 -0.3748
  762MOL0     H  521   1.689   7.281   1.715 -0.9429  0.5704 -1.1581
  762MOL0     H  522   1.616   7.417   1.797 -0.0499  0.3167  1.6274
  762MOL0     H  523   1.491   7.273   1.940 -0.5970  1.5105 -1.0320
  762MOL0     H  524   1.576   7.133   1.882 -0.0820  0.3727  2.1389
  762MOL0     H  525   1.502   7.163   1.647  1.6463  0.9944  0.6784
  762MOL0     H  526   1.409   7.312   1.685  1.7760  1.3318  2.3012
  762MOL0     H  527   1.341   7.063   1.838 -0.4752  0.0230  0.5386
  762MOL0     H  528   1.234   7.190   1.778  0.9953  0.8226  2.1805
  762MOL0     H  529   1.382   6.972   1.624  0.6401 -0.4449 -0.6065
  762MOL0     H  530   1.255   7.074   1.547  0.4040 -0.1310 -0.1871
  762MOL0     H  531   1.086   6.984   1.715 -1.9441 -2.9260  0.6397
  762MOL0     H  532   1.217   6.884   1.783 -1.7815 -0.0860  0.0391
  762MOL0     H  533   1.144   6.874   1.493  1.2319 -0.8611 -0.1326
  762MOL0     H  534   1.248   6.762   1.581  1.0644  1.6236 -2.8746
  762MOL0     H  535   0.954   6.787   1.661  0.3670 -1.3336  1.5371
  762MOL0     H  536   1.068   6.658   1.689  1.7762  0.2154 -0.3771
  762MOL0     H  537   0.790   6.743   1.418 -0.8580 -1.8991  0.0830
  762MOL0     H  538   0.822   6.546   1.116  0.0835 -1.3461  0.1118
  762MOL0     H  539   0.713   6.658   1.206  1.2411  1.7920  0.7874
  762MOL0     H  540   0.635   6.464   1.343 -2.1617 -2.5966  0.5753
  762MOL0     H  541   0.766   6.368   1.275 -3.4059 -2.0754  0.3258
  762MOL0     H  542   0.633   6.397   1.049  0.0203  1.9199 -0.7608
  762MOL0     H  543   0.523   6.346   1.196  0.7329 -0.2128  0.4471
  762MOL0     H  544   0.546   6.612   1.060 -1.0156 -2.4645 -2.8974
  762MOL0     H  545   0.445   6.584   1.205  0.8242  0.3778  0.6952
  762MOL0     H  546   0.336   6.413   1.297 -0.5070 -0.2981  0.0259
  762MOL0     H  547   0.124   6.319   1.369  1.0772 -2.3740  0.0882
  762MOL0     H  548  -0.160   6.279   1.585  1.1639  0.7361 -1.3339
  762MOL0     H  549  -0.346   6.157   1.710 -1.1967  0.8205  0.7122
  762MOL0     H  550  -0.609   6.136   1.718  2.6696  0.4273 -1.8004
  762MOL0     H  551  -0.501   6.031   1.802  0.3088 -2.7921 -1.4812
  762MOL0     H  552  -0.660   5.856   1.795  1.1796 -0.8222 -1.5932
  762MOL0     H  553  -0.772   5.947   1.689 -0.6628  2.4980 -0.2416
  762MOL0     H  554  -0.786   6.120   1.854 -0.9213 -0.0622 -0.0817
  762MOL0     H  555  -0.723   6.000   1.979  0.4401  1.7729  0.1267
  762MOL0     H  556  -0.975   5.966   1.814  0.1788 -0.1702 -0.8208
  762MOL0     H  557  -0.923   5.862   1.945 -1.0101  0.6666 -0.6457
  762MOL0     H  558  -0.948   6.165   1.989  2.1025 -1.5776 -1.5256
  762MOL0     H  559  -0.941   6.041   2.112 -0.4649 -1.7095 -0.3899
  762MOL0     H  560  -1.165   6.001   1.938  0.3009 -0.4976  0.5856
  762MOL0     H  561  -1.174   6.159   2.024 -1.4617  0.1061 -1.6108
  762MOL0     H  562  -1.181   5.881   2.126  1.5042 -0.4093  0.0919
  762MOL0     H  563  -1.131   6.020   2.233 -1.9819  0.1873  0.2557
  762MOL0     H  564  -1.392   6.017   2.101  0.2344  0.3879 -0.0317
  762MOL0     H  565  -1.311   6.134   2.207  1.3056  0.0501 -0.2424
  762MOL0     H  566  -0.497   5.997   1.336  1.5691 -0.5417 -1.6129
  762MOL0     H  567  -0.321   6.092   1.222 -0.5883 -0.1583 -0.0796
  762MOL0     H  568  -0.004   6.322   0.949 -0.8412 -3.1844  0.2081
  762MOL0     H  569   0.209   6.410   0.879  2.8759 -0.3039 -0.2519
  762MOL0     H  570   1.833   7.474   1.710  0.6337  1.2291  0.5061
  762MOL0     H  571   2.055   7.546   1.672 -1.2306  2.0401  0.9088
  762MOL0     H  572   2.449   7.768   1.951  0.5260 -0.2549  0.0228
  762MOL0     H  573   2.643   7.892   1.860  2.0988  0.0399 -0.6511
  762MOL0     H  574   2.826   7.694   1.491 -1.5028 -3.3136  0.6592
  762MOL0     H  575   2.904   7.668   1.647  0.5684 -0.0327 -0.2933
  762MOL0     H  576   3.048   7.745   1.482 -2.1884 -1.9462 -0.7118
  762MOL0     H  577   2.971   7.906   1.466  0.9850 -0.4065 -1.3041
  762MOL0     H  578   3.098   7.801   1.712 -0.8347 -1.3280 -1.4540
  762MOL0     H  579   2.984   7.928   1.728  1.1498 -0.4944  0.9746
  762MOL0     H  580   3.144   8.067   1.556  2.4231  1.8557 -0.8142
  762MOL0     H  581   3.216   8.027   1.716  1.9617  0.1177 -1.0666
  762MOL0     H  582   3.471   7.787   1.507 -0.8444 -0.0025 -0.3896
  762MOL0     H  583   2.655   7.603   1.533  0.6354 -0.6962 -0.0171
  762MOL0     H  584   2.481   7.483   1.632 -2.5852  2.1029 -2.1640
  763MOL0     O  585   7.861   8.160  10.055  0.2544 -0.5045 -0.5983
  763MOL0     C  586   7.928   8.182   9.954 -0.1346 -0.0201 -0.7623
  763MOL0     O  587   7.879   8.205   9.833 -0.5773  0.4113 -0.6719
  763MOL0     C  588   7.755   8.158   9.804  0.2059  1.0040 -0.6198
  763MOL0     C  589   7.737   8.025   9.759  0.4484 -0.5048  1.1624
  763MOL0     C  590   7.611   7.971   9.727 -0.1502 -0.6768 -0.1174
  763MOL0     C  591   7.502   8.049   9.739 -1.1034 -0.0713 -1.0001
  763MOL0     O  592   7.375   8.012   9.693 -0.7317  0.0922 -0.0898
  763MOL0     C  593   7.367   7.889   9.615 -0.8529  0.0379 -0.4034
  763MOL0     C  594   7.222   7.856   9.588 -0.1375 -0.0801  0.7275
  763MOL0     C  595   7.152   7.954   9.504 -0.4625  0.3088  0.2191
  763MOL0     C  596   7.007   7.917   9.483 -0.3812  0.4434 -1.4823
  763MOL0     C  597   6.942   7.977   9.350  0.2517 -0.5235  0.3205
  763MOL0     C  598   6.942   8.133   9.353 -0.7387  0.8598  0.5879
  763MOL0     C  599   6.828   8.184   9.275  0.1110 -1.0118  0.2664
  763MOL0     C  600   6.844   8.184   9.123  0.4437 -0.1949  0.0845
  763MOL0     N  601   6.711   8.216   9.069 -0.8763  0.2038 -0.4664
  763MOL0     C  602   6.651   8.338   9.084 -0.6468  0.1820 -0.5386
  763MOL0     C  603   6.521   8.326   9.059  0.8498 -0.1406  0.9484
  763MOL0     C  604   6.428   8.437   9.045  0.6055 -0.0036  0.0825
  763MOL0     C  605   6.450   8.515   8.912 -0.7845 -0.2125 -0.0916
  763MOL0     C  606   6.331   8.599   8.866  0.2474 -0.8153  0.5801
  763MOL0     C  607   6.375   8.689   8.751 -0.1814 -0.6819  0.0405
  763MOL0     O  608   6.332   8.822   8.783  0.4347 -0.0612 -0.0035
  763MOL0     C  609   6.193   8.853   8.795 -0.3145 -0.1310 -0.1866
  763MOL0     C  610   6.152   8.939   8.896  0.0354  0.3635 -0.1740
  763MOL0     C  611   6.012   8.977   8.907 -0.8416 -0.3488  0.3427
  763MOL0     C  612   5.909   8.930   8.815 -0.5016  0.5809  0.3224
  763MOL0     C  613   5.777   8.971   8.829  0.1373  0.2960 -0.3203
  763MOL0     O  614   5.683   8.898   8.768  0.0195  0.0914  0.3276
  763MOL0     C  615   5.554   8.947   8.754 -0.5354 -0.5226 -0.5931
  763MOL0     C  616   5.454   8.883   8.820  0.0647  0.3981 -1.4958
  763MOL0     C  617   5.319   8.922   8.791 -0.0366 -0.0002 -0.7688
  763MOL0     C  618   5.294   9.015   8.699 -0.0040 -0.6410  0.0380
  763MOL0     O  619   5.168   9.049   8.660 -0.4060 -0.4408  0.5147
  763MOL0     C  620   5.066   8.952   8.640  0.4434 -0.8381  0.7570
  763MOL0     C  621   4.963   8.953   8.755 -0.0075 -0.0710 -0.6846
  763MOL0     C  622   4.863   9.070   8.748  0.4749 -0.8997 -0.0560
  763MOL0     C  623   4.749   9.049   8.645 -0.4997  0.8402 -0.0827
  763MOL0     C  624   4.643   9.153   8.649  0.4503  0.2459 -0.5473
  763MOL0     C  625   4.572   9.175   8.788  0.8251 -0.9031  0.0317
  763MOL0     C  626   4.451   9.267   8.761 -0.0420 -0.1573 -0.0856
  763MOL0     C  627   4.379   9.316   8.891  0.4419  0.5734  0.2358
  763MOL0    Cl  628   4.303   9.152   8.932  0.3457  0.2331  0.3563
  763MOL0     C  629   5.395   9.086   8.640 -0.1824 -0.3228 -0.1620
  763MOL0     C  630   5.528   9.053   8.667 -0.2017 -0.1048 -0.3868
  763MOL0     O  631   5.758   9.064   8.913 -0.2834 -0.2607  0.3938
  763MOL0     C  632   5.960   8.828   8.729  0.4170  0.4890 -0.1169
  763MOL0     C  633   6.095   8.795   8.718  0.0691 -0.3420 -0.1775
  763MOL0     N  634   6.504   8.194   9.010  0.2335 -0.6411 -0.2597
  763MOL0     N  635   6.622   8.133   9.017  0.2240  0.1496 -0.4562
  763MOL0     C  636   7.512   8.182   9.785 -0.3278  0.4595 -0.3391
  763MOL0     C  637   7.642   8.235   9.819  0.5819  0.1004 -0.8109
  763MOL0     C  638   8.076   8.202   9.969 -0.3509 -0.4064 -0.2825
  763MOL0     C  639   8.136   8.217  10.094  0.1139  0.1875  0.2549
  763MOL0     C  640   8.278   8.216  10.110  0.5495  0.2680  0.1477
  763MOL0     C  641   8.359   8.222   9.998  0.0079  0.4558 -1.1450
  763MOL0     O  642   8.494   8.238   9.993 -0.7068 -0.2889 -0.1878
  763MOL0     C  643   8.571   8.253  10.113 -0.5092  0.3327  0.7697
  763MOL0     C  644   8.712   8.307  10.088  0.2031  0.2305 -0.2895
  763MOL0     C  645   8.705   8.458  10.052 -0.5418 -0.3071 -0.3995
  763MOL0     C  646   8.840   8.522  10.021 -0.6177  0.3231 -1.1919
  763MOL0     C  647   8.933   8.507  10.131 -0.0111 -0.7467 -0.9078
  763MOL0     C  648   9.017   8.498  10.222  0.2708  0.4506  0.3668
  763MOL0     C  649   8.299   8.212   9.877 -0.2186 -0.9099  0.0448
  763MOL0     C  650   8.162   8.204   9.863 -0.2256  0.6730 -0.0891
  763MOL0     H  651   7.826   7.962   9.756  0.1791 -0.8554  0.4256
  763MOL0     H  652   7.601   7.871   9.688  1.0812 -1.1888  0.8209
  763MOL0     H  653   7.404   7.807   9.676  2.1791  1.5938  0.0504
  763MOL0     H  654   7.417   7.902   9.519 -0.4014 -0.2934 -0.2141
  763MOL0     H  655   7.164   7.836   9.678 -1.9289 -1.0407 -0.5745
  763MOL0     H  656   7.223   7.763   9.531 -0.5474  0.4872 -0.2418
  763MOL0     H  657   7.181   7.974   9.400 -0.6739 -1.0041 -0.1109
  763MOL0     H  658   7.150   8.054   9.550 -1.4159 -0.1789  1.2745
  763MOL0     H  659   7.001   7.809   9.465 -0.3925  0.5923 -2.4347
  763MOL0     H  660   6.953   7.936   9.576 -1.5482  0.2777 -2.1046
  763MOL0     H  661   6.841   7.935   9.341 -0.5170  1.5088 -1.2639
  763MOL0     H  662   6.988   7.942   9.257 -2.1598 -2.0241 -0.4246
  763MOL0     H  663   7.037   8.172   9.317 -0.2985 -0.7367 -0.0598
  763MOL0     H  664   6.921   8.161   9.457  2.7873  1.5057  1.2425
  763MOL0     H  665   6.734   8.135   9.302 -1.3898 -0.8108 -3.8700
  763MOL0     H  666   6.808   8.288   9.304  0.4008 -0.9047  0.0951
  763MOL0     H  667   6.858   8.083   9.084 -5.0055 -2.0675  2.0371
  763MOL0     H  668   6.923   8.255   9.097  1.5780 -2.2077 -2.3691
  763MOL0     H  669   6.698   8.434   9.106  2.4110 -1.0442 -1.1675
  763MOL0     H  670   6.439   8.507   9.128 -2.7366  2.2139 -1.1297
  763MOL0     H  671   6.323   8.404   9.043  0.7322 -0.3922 -0.6950
  763MOL0     H  672   6.477   8.438   8.839 -1.8282 -0.7825  0.0929
  763MOL0     H  673   6.537   8.577   8.936  0.2182  0.3356 -4.2697
  763MOL0     H  674   6.250   8.534   8.830  1.0659 -0.2589 -2.6400
  763MOL0     H  675   6.284   8.655   8.947 -1.5926  1.3901 -1.8297
  763MOL0     H  676   6.334   8.650   8.657 -0.1397 -1.6693  0.4291
  763MOL0     H  677   6.483   8.683   8.738  0.0439  1.9778  0.0181
  763MOL0     H  678   6.221   8.978   8.970  0.0816  0.4611 -0.2701
  763MOL0     H  679   5.991   9.059   8.975  0.1833 -0.3088  0.6306
  763MOL0     H  680   5.491   8.804   8.885  1.1405  1.7240 -0.4315
  763MOL0     H  681   5.246   8.861   8.844  2.6437 -1.2491  1.8205
  763MOL0     H  682   5.109   8.853   8.628 -2.1013 -1.6913 -3.0176
  763MOL0     H  683   5.019   8.985   8.547 -1.5813 -1.4455  1.5161
  763MOL0     H  684   5.011   8.970   8.851 -0.5613 -1.1008 -0.2055
  763MOL0     H  685   4.904   8.861   8.764 -1.9561  1.3118  2.7965
  763MOL0     H  686   4.917   9.165   8.741 -0.3542 -0.1207  2.7222
  763MOL0     H  687   4.808   9.080   8.842  2.1646  1.1750  0.7880
  763MOL0     H  688   4.795   9.034   8.547  1.3664 -0.0550  0.8794
  763MOL0     H  689   4.704   8.950   8.658  2.3621 -0.6216 -0.3457
  763MOL0     H  690   4.557   9.124   8.588 -1.9295  2.6494  1.3810
  763MOL0     H  691   4.683   9.251   8.620  0.4362  0.6999  0.8823
  763MOL0     H  692   4.646   9.231   8.847 -3.4202  3.3202  1.9934
  763MOL0     H  693   4.542   9.083   8.839  0.1310 -0.6253  0.1408
  763MOL0     H  694   4.481   9.359   8.710 -0.0469 -0.5794 -0.8525
  763MOL0     H  695   4.376   9.218   8.699 -2.4516  1.2732  1.4955
  763MOL0     H  696   4.303   9.389   8.861 -1.5445 -2.3121 -2.3631
  763MOL0     H  697   4.440   9.349   8.975  0.2517 -0.3590  0.7581
  763MOL0     H  698   5.365   9.168   8.576  0.6924  0.6207  0.5997
  763MOL0     H  699   5.595   9.120   8.614 -0.5225  0.5486  0.0277
  763MOL0     H  700   5.891   8.781   8.660  0.9416 -0.3766 -0.0604
  763MOL0     H  701   6.129   8.713   8.655  0.5799 -2.3461  2.5574
  763MOL0     H  702   7.424   8.241   9.807 -0.8892  1.0899 -3.6910
  763MOL0     H  703   7.640   8.333   9.866 -2.9238  0.5054 -1.5131
  763MOL0     H  704   8.075   8.222  10.184  1.1993 -1.0485  1.0922
  763MOL0     H  705   8.314   8.232  10.211  2.3713  2.5412 -0.7722
  763MOL0     H  706   8.580   8.153  10.154  2.0414 -0.3277 -1.1180
  763MOL0     H  707   8.515   8.315  10.184 -0.1848  0.6226  0.7742
  763MOL0     H  708   8.770   8.290  10.179  1.4292  0.1029 -1.0786
  763MOL0     H  709   8.745   8.244  10.005  0.2490  0.9358 -0.8147
  763MOL0     H  710   8.660   8.502  10.142 -4.2677  1.4339 -2.8476
  763MOL0     H  711   8.646   8.474   9.962  0.6798  0.1043 -1.1508
  763MOL0     H  712   8.887   8.462   9.942  2.2788 -0.1958  0.7746
  763MOL0     H  713   8.839   8.630  10.004 -0.8084  1.0924  2.8214
  763MOL0     H  714   9.089   8.497  10.301 -1.5420 -0.3072  2.0813
  763MOL0     H  715   8.361   8.232   9.790  0.6469  3.2242  1.3906
  763MOL0     H  716   8.118   8.197   9.764 -0.2229 -1.3071  0.0018
  764MOL0     O  717   6.312   0.201   0.966 -0.2340 -0.2626 -0.1686
  764MOL0     C  718   6.360   0.133   1.059  1.4101 -0.1584  0.1787
  764MOL0     O  719   6.281   0.086   1.166 -0.4323  0.4323  0.0713
  764MOL0     C  720   6.145   0.096   1.174  0.1189  0.7358 -0.5931
  764MOL0     C  721   6.100   0.126   1.301  0.1343  0.4026 -0.6179
  764MOL0     C  722   5.957   0.148   1.317  0.0793 -1.1259  0.1318
  764MOL0     C  723   5.865   0.146   1.215  0.1030 -0.4482 -0.7277
  764MOL0     O  724   5.727   0.148   1.227 -0.3959 -0.0207  0.6089
  764MOL0     C  725   5.672   0.159   1.363  0.4079 -0.6932  0.6805
  764MOL0     C  726   5.517   0.179   1.362  1.0713  0.1041 -0.4156
  764MOL0     C  727   5.462   0.171   1.504 -0.3911  0.0401 -0.5247
  764MOL0     C  728   5.316   0.172   1.508  1.0546  0.0902  0.5874
  764MOL0     C  729   5.253   0.165   1.648  0.3409 -1.3960  0.3820
  764MOL0     C  730   5.328   0.093   1.754  0.0151 -0.1196 -0.5541
  764MOL0     C  731   5.256   0.077   1.887  1.3316  0.6762  0.0488
  764MOL0     C  732   5.336  -0.006   1.988 -0.0376 -0.2641 -0.1260
  764MOL0     N  733   5.261  -0.050   2.116 -0.1019 -0.2111  0.1235
  764MOL0     C  734   5.146  -0.123   2.125 -0.6001  0.4642  0.1191
  764MOL0     C  735   5.111  -0.128   2.257  0.8198 -0.3700 -0.0273
  764MOL0     C  736   4.985  -0.193   2.319  0.1318 -0.5246 -0.5035
  764MOL0     C  737   4.850  -0.125   2.277 -0.3079  0.1267 -0.3360
  764MOL0     C  738   4.860   0.019   2.290 -0.4448 -1.0900 -0.7359
  764MOL0     C  739   4.866   0.074   2.435 -0.1135 -0.1801 -0.3901
  764MOL0     O  740   4.729   0.070   2.492  0.1374 -0.0309  0.2968
  764MOL0     C  741   4.710   0.079   2.620 -0.1188  0.9594 -0.9733
  764MOL0     C  742   4.607   0.160   2.663 -0.5534  0.8952  0.8399
  764MOL0     C  743   4.573   0.176   2.795 -0.5031 -0.2942  0.4812
  764MOL0     C  744   4.636   0.099   2.884 -0.0334 -0.2899 -1.0256
  764MOL0     C  745   4.612   0.128   3.027 -0.1551  0.1392 -0.1650
  764MOL0     O  746   4.505   0.209   3.052 -0.0776 -0.0720  0.8207
  764MOL0     C  747   4.450   0.229   3.173 -0.5955  0.5530  1.1406
  764MOL0     C  748   4.325   0.282   3.166  0.4908 -0.1552  0.0221
  764MOL0     C  749   4.248   0.331   3.276  0.0460  0.2140 -0.5066
  764MOL0     C  750   4.297   0.307   3.408 -0.0600  0.3764 -0.7431
  764MOL0     O  751   4.225   0.319   3.525  0.1643 -0.2067  0.3042
  764MOL0     C  752   4.126   0.417   3.531  0.0281  0.2091  0.5984
  764MOL0     C  753   4.075   0.456   3.670  0.0145 -0.0869  0.0619
  764MOL0     C  754   3.940   0.393   3.708  0.2331 -0.2023  0.2890
  764MOL0     C  755   3.830   0.431   3.615 -0.2578 -0.0797  0.3015
  764MOL0     C  756   3.704   0.388   3.685  1.0269  0.4943  0.0949
  764MOL0     C  757   3.585   0.373   3.584 -0.3271 -0.6860  0.3993
  764MOL0     C  758   3.438   0.380   3.636 -0.6413 -0.6046  0.9489
  764MOL0     C  759   3.413   0.517   3.697  0.7948  0.1073 -0.9475
  764MOL0    Cl  760   3.245   0.521   3.767  0.0138  0.3648 -0.1760
  764MOL0     C  761   4.426   0.246   3.416  0.5473  0.5750  0.3797
  764MOL0     C  762   4.501   0.216   3.301 -0.1853  0.3059 -0.3965
  764MOL0     O  763   4.681   0.073   3.113 -0.0063  0.6729 -0.2295
  764MOL0     C  764   4.742   0.009   2.848 -0.3688 -1.1950  0.6740
  764MOL0     C  765   4.788   0.003   2.719  0.0508 -0.0687  0.4127
  764MOL0     N  766   5.205  -0.058   2.328 -0.2490 -0.3245 -0.1621
  764MOL0     N  767   5.291  -0.006   2.247 -0.1075  1.1202 -0.0004
  764MOL0     C  768   5.915   0.115   1.083 -0.4738  0.5371 -0.2395
  764MOL0     C  769   6.056   0.090   1.065 -0.1561 -0.0211  0.1927
  764MOL0     C  770   6.506   0.125   1.070  0.0756  0.5678  0.4761
  764MOL0     C  771   6.593   0.168   0.969  0.1882 -0.0764  0.1543
  764MOL0     C  772   6.732   0.138   0.980  0.3781  0.0133 -0.0075
  764MOL0     C  773   6.789   0.072   1.090 -1.0344 -0.0248  0.1364
  764MOL0     O  774   6.923   0.052   1.086 -0.0384 -0.4788  0.0214
  764MOL0     C  775   6.993   0.047   1.206 -0.7463 -0.6103  0.0592
  764MOL0     C  776   7.119   0.130   1.189  0.4379  0.3052  0.8401
  764MOL0     C  777   7.190   0.123   1.320 -0.2311  0.5362 -0.6322
  764MOL0     C  778   7.285   0.001   1.332  0.1688  0.4368 -0.1941
  764MOL0     C  779   7.417   0.006   1.260  0.3541  0.6160  1.4885
  764MOL0     C  780   7.523   0.025   1.208 -0.3356 -0.5057  0.7658
  764MOL0     C  781   6.699   0.045   1.197  0.8952 -0.7073 -0.3687
  764MOL0     C  782   6.559   0.063   1.186 -0.2641 -0.6662  0.2578
  764MOL0     H  783   6.166   0.126   1.388  0.2706  1.4304 -0.7075
  764MOL0     H  784   5.933   0.156   1.422 -0.5910 -2.5092  0.1088
  764MOL0     H  785   5.714   0.247   1.411  1.3956  2.3236 -4.8750
  764MOL0     H  786   5.687   0.074   1.430  3.0777  0.3870  1.5763
  764MOL0     H  787   5.475   0.102   1.297 -2.2033  2.1214 -0.8905
  764MOL0     H  788   5.492   0.280   1.331  0.0048  0.0611  0.2802
  764MOL0     H  789   5.505   0.259   1.553  1.8271 -1.2953  0.0805
  764MOL0     H  790   5.505   0.085   1.556 -1.9575  0.9449  2.4531
  764MOL0     H  791   5.273   0.253   1.449  2.1072  0.4550  0.2853
  764MOL0     H  792   5.278   0.081   1.461 -2.1671  1.4736  0.2503
  764MOL0     H  793   5.153   0.123   1.627 -1.4066  2.5994 -0.1665
  764MOL0     H  794   5.224   0.265   1.679  1.5984 -0.3832 -1.5238
  764MOL0     H  795   5.418   0.152   1.773 -0.3030  0.1559  0.1501
  764MOL0     H  796   5.358  -0.005   1.717 -1.2366 -0.4554 -0.7337
  764MOL0     H  797   5.228   0.176   1.923  1.5819  0.3994  1.0494
  764MOL0     H  798   5.159   0.028   1.881  0.5836  2.1237  0.0914
  764MOL0     H  799   5.412   0.062   2.027  1.2169 -1.7086  0.0482
  764MOL0     H  800   5.383  -0.093   1.941  1.1354  0.2329  0.0961
  764MOL0     H  801   5.092  -0.168   2.042  2.5883 -3.8191  0.0323
  764MOL0     H  802   4.987  -0.174   2.427  0.7630 -3.2255  0.0454
  764MOL0     H  803   4.982  -0.303   2.315 -0.1342 -0.6152  1.2733
  764MOL0     H  804   4.766  -0.166   2.335 -1.3809  1.3090 -1.0203
  764MOL0     H  805   4.832  -0.151   2.173  1.5740 -0.4775 -0.5476
  764MOL0     H  806   4.940   0.069   2.234 -0.3517 -1.1331 -0.6413
  764MOL0     H  807   4.766   0.060   2.251 -1.0505 -1.5866  0.1675
  764MOL0     H  808   4.890   0.181   2.433  0.5945 -0.3225  0.1422
  764MOL0     H  809   4.939   0.021   2.496 -1.0427 -1.3506 -0.2816
  764MOL0     H  810   4.554   0.226   2.595 -1.6441 -1.4304 -0.6982
  764MOL0     H  811   4.488   0.234   2.828  1.6605  0.4441  5.5841
  764MOL0     H  812   4.281   0.315   3.072 -2.7606  1.2353  1.8670
  764MOL0     H  813   4.151   0.375   3.258 -0.8854 -0.0986  3.0033
  764MOL0     H  814   4.048   0.369   3.471  0.1825  1.8821 -1.0270
  764MOL0     H  815   4.161   0.508   3.479  0.1946 -0.1904 -0.0005
  764MOL0     H  816   4.062   0.565   3.672 -3.4132 -0.3468 -1.2074
  764MOL0     H  817   4.153   0.429   3.741  4.4193  1.7765 -3.5702
  764MOL0     H  818   3.917   0.429   3.809  0.6833  0.0013  0.3216
  764MOL0     H  819   3.954   0.286   3.723  0.5429  0.3168  5.8116
  764MOL0     H  820   3.825   0.538   3.592 -0.1067 -0.1509 -0.0728
  764MOL0     H  821   3.845   0.374   3.523 -1.3112  0.7813 -0.4317
  764MOL0     H  822   3.668   0.464   3.754 -2.1054 -2.3318  1.8868
  764MOL0     H  823   3.720   0.295   3.740  0.2151 -1.2100 -2.3622
  764MOL0     H  824   3.598   0.292   3.512 -1.3093 -0.2184 -0.3328
  764MOL0     H  825   3.588   0.460   3.518 -1.4508  0.5983  1.9495
  764MOL0     H  826   3.376   0.366   3.547  0.2494  1.4408 -0.0810
  764MOL0     H  827   3.411   0.292   3.694 -1.9839 -1.2739 -0.5950
  764MOL0     H  828   3.433   0.596   3.625  4.7770 -1.7544 -2.1674
  764MOL0     H  829   3.482   0.548   3.776 -2.0891  0.5147  1.6518
  764MOL0     H  830   4.462   0.233   3.518 -1.2402  1.4245  1.1463
  764MOL0     H  831   4.598   0.173   3.326 -1.0640 -1.6315 -0.1892
  764MOL0     H  832   4.797  -0.044   2.925  0.9111 -0.9423 -0.0381
  764MOL0     H  833   4.865  -0.065   2.685  1.6745  2.8292 -2.2645
  764MOL0     H  834   5.864   0.102   0.988  2.3573  0.1291 -1.8049
  764MOL0     H  835   6.086   0.061   0.965  1.9048 -2.3731  1.3949
  764MOL0     H  836   6.546   0.211   0.881 -1.6591  0.4191  1.3374
  764MOL0     H  837   6.787   0.161   0.889 -0.2054 -0.2978 -0.4459
  764MOL0     H  838   7.015  -0.056   1.234  1.4323  0.2390  1.8486
  764MOL0     H  839   6.936   0.095   1.286  0.0716 -0.1922  0.4033
  764MOL0     H  840   7.178   0.093   1.105 -1.4812 -0.9311 -0.0100
  764MOL0     H  841   7.098   0.236   1.172 -0.1619  0.0569 -0.0268
  764MOL0     H  842   7.112   0.121   1.396  0.2287 -1.0240 -0.1565
  764MOL0     H  843   7.253   0.211   1.334  1.7900 -1.0896  1.1377
  764MOL0     H  844   7.318  -0.002   1.436 -2.0829 -1.2795  0.5416
  764MOL0     H  845   7.238  -0.095   1.309 -0.4163  0.9556 -1.2646
  764MOL0     H  846   7.621   0.032   1.164 -0.6788 -0.0590  0.0448
  764MOL0     H  847   6.741   0.001   1.287  0.6575  1.2988  0.7751
  764MOL0     H  848   6.510   0.023   1.274  0.7155 -1.0416  0.6491
  765MOL0     O  849   5.168   2.650  10.707  0.2941  0.2054  0.3406
  765MOL0     C  850   5.184   2.528  10.724 -0.0813 -0.7078  0.2583
  765MOL0     O  851   5.085   2.442  10.750  0.3945  1.2825  0.3187
  765MOL0     C  852   4.963   2.496  10.753  0.3684 -0.0334  0.9577
  765MOL0     C  853   4.911   2.535  10.873  1.1911 -0.4789 -0.3001
  765MOL0     C  854   4.782   2.588  10.882  0.2323  0.7121 -0.2041
  765MOL0     C  855   4.704   2.602  10.760 -0.1789  0.3920 -0.5099
  765MOL0     O  856   4.581   2.669  10.766 -0.2661 -0.4001 -0.0987
  765MOL0     C  857   4.481   2.621  10.685 -0.2247 -0.1888  0.2958
  765MOL0     C  858   4.340   2.626  10.748 -0.5113 -0.3307 -0.9796
  765MOL0     C  859   4.229   2.597  10.645  0.3336 -0.1281  0.5213
  765MOL0     C  860   4.082   2.616  10.699  0.1193  0.8537  0.6041
  765MOL0     C  861   3.977   2.567  10.598  0.2422  0.5887  0.4944
  765MOL0     C  862   3.838   2.581  10.666  0.0187  0.2154 -0.3183
  765MOL0     C  863   3.724   2.548  10.569 -0.3337 -0.4172  0.5269
  765MOL0     C  864   3.724   2.398  10.548 -0.0769  0.8624  0.4178
  765MOL0     N  865   3.595   2.368  10.492 -0.5209 -0.6988 -0.5785
  765MOL0     C  866   3.551   2.376  10.357 -0.9762  0.0506 -0.9720
  765MOL0     C  867   3.420   2.347  10.367 -0.1143 -0.2671  0.4702
  765MOL0     C  868   3.336   2.357  10.239 -0.2749  0.4080 -0.1459
  765MOL0     C  869   3.225   2.256  10.236 -0.7531  0.3687  0.3816
  765MOL0     C  870   3.091   2.300  10.290 -0.1798  0.6865 -0.2096
  765MOL0     C  871   2.981   2.205  10.257 -0.6412 -0.5894 -0.2879
  765MOL0     O  872   2.967   2.087  10.346  0.0985  0.4855  0.0332
  765MOL0     C  873   2.840   2.068  10.374  0.5754  0.8144  0.4289
  765MOL0     C  874   2.786   2.076  10.504  0.3789 -0.2042 -0.8121
  765MOL0     C  875   2.658   2.041  10.538  0.3511 -0.6193 -0.4845
  765MOL0     C  876   2.571   2.003  10.441 -0.1775  1.0789  0.8200
  765MOL0     C  877   2.431   1.975  10.478  0.7412 -0.0653 -0.0440
  765MOL0     O  878   2.372   2.043  10.582 -0.1712 -0.4521 -0.0394
  765MOL0     C  879   2.239   2.019  10.608 -0.0889  0.4154  0.6244
  765MOL0     C  880   2.138   2.018  10.507  0.5387  0.2936 -0.7776
  765MOL0     C  881   2.005   1.981  10.537 -0.1805 -0.0788 -0.1150
  765MOL0     C  882   1.972   1.950  10.668  0.6612 -0.2204  0.5727
  765MOL0     O  883   1.843   1.928  10.694  0.6787 -0.0771  0.5355
  765MOL0     C  884   1.775   1.827  10.619 -0.2925 -0.1115 -0.6994
  765MOL0     C  885   1.621   1.830  10.653  0.5892 -0.2150 -0.6965
  765MOL0     C  886   1.550   1.706  10.598 -0.0150 -0.7306  0.1165
  765MOL0     C  887   1.419   1.679  10.676 -0.0281 -0.1593  0.4457
  765MOL0     C  888   1.342   1.580  10.597  0.4316  0.0050  0.7769
  765MOL0     C  889   1.202   1.556  10.659  0.2547 -0.0300  0.6021
  765MOL0     C  890   1.166   1.405  10.658 -0.5435  0.2693 -0.5226
  765MOL0     C  891   1.162   1.361  10.517  0.8500  0.1795  0.4172
  765MOL0    Cl  892   1.090   1.198  10.500  0.0810  0.0231  0.1399
  765MOL0     C  893   2.072   1.958  10.767 -0.7288 -0.6131 -0.2274
  765MOL0     C  894   2.209   1.982  10.738  0.8350  0.2684 -0.3990
  765MOL0     O  895   2.384   1.876  10.420  0.2125 -0.1960  0.5347
  765MOL0     C  896   2.612   1.990  10.308  0.1251  0.2436  0.5156
  765MOL0     C  897   2.746   2.023  10.280  0.2923 -0.0680  0.1441
  765MOL0     N  898   3.383   2.313  10.490 -1.0262 -0.4191  0.0583
  765MOL0     N  899   3.492   2.323  10.570  0.7612 -0.7276  0.0859
  765MOL0     C  900   4.763   2.566  10.641  0.4052  0.0187  0.2058
  765MOL0     C  901   4.891   2.508  10.635 -0.1590 -0.6019  0.0657
  765MOL0     C  902   5.325   2.482  10.716  0.6194 -0.0784 -0.6280
  765MOL0     C  903   5.429   2.577  10.723 -0.6476 -0.2659  0.1908
  765MOL0     C  904   5.560   2.545  10.741  0.2982 -0.7665  0.3810
  765MOL0     C  905   5.592   2.405  10.733  0.2280 -0.4802  0.1299
  765MOL0     O  906   5.724   2.367  10.731  0.3213 -0.1555 -1.0047
  765MOL0     C  907   5.759   2.245  10.786  0.6555 -0.7084 -0.7245
  765MOL0     C  908   5.908   2.254  10.836 -0.8481 -0.1556  0.2843
  765MOL0     C  909   6.013   2.275  10.719 -0.5687  0.3236 -0.4822
  765MOL0     C  910   6.065   2.140  10.666  0.0338 -0.2968  0.0642
  765MOL0     C  911   6.163   2.088  10.761  0.3224 -1.0364 -0.5757
  765MOL0     C  912   6.242   2.049  10.846 -0.4666 -0.2788 -0.4439
  765MOL0     C  913   5.488   2.307  10.727 -0.3450  0.2549 -0.1159
  765MOL0     C  914   5.351   2.348  10.713 -1.3491 -0.1410 -0.2707
  765MOL0     H  915   4.975   2.540  10.960  0.8445  0.2298 -0.0767
  765MOL0     H  916   4.755   2.621  10.982  1.6829 -2.1494  1.2479
  765MOL0     H  917   4.508   2.533  10.626 -0.0944 -0.0935  0.2115
  765MOL0     H  918   4.466   2.695  10.606 -4.9039 -2.8832 -1.7375
  765MOL0     H  919   4.320   2.718  10.803 -1.9751 -0.7849 -0.7012
  765MOL0     H  920   4.329   2.543  10.818 -0.2744 -1.8353 -2.6329
  765MOL0     H  921   4.241   2.495  10.609  2.1694  0.2943 -0.1762
  765MOL0     H  922   4.235   2.668  10.562  0.5946 -1.2316 -0.4316
  765MOL0     H  923   4.062   2.561  10.791  0.3054  0.1309  0.2212
  765MOL0     H  924   4.071   2.722  10.723  0.5242  1.3355 -1.2146
  765MOL0     H  925   4.006   2.465  10.574  2.6439  1.5014 -0.8600
  765MOL0     H  926   3.988   2.622  10.504  4.4561 -0.5759  0.1014
  765MOL0     H  927   3.842   2.685  10.699  2.2581  0.4888 -1.2582
  765MOL0     H  928   3.841   2.513  10.752  2.5024  0.4435 -0.1511
  765MOL0     H  929   3.628   2.585  10.604 -1.7189 -0.9485 -2.3850
  765MOL0     H  930   3.745   2.601  10.476 -0.5483 -1.0755  0.0965
  765MOL0     H  931   3.734   2.357  10.649 -1.5964  0.4657  0.4275
  765MOL0     H  932   3.804   2.365  10.481  0.2854 -1.0677  1.7266
  765MOL0     H  933   3.615   2.413  10.278  1.0332 -2.0258 -0.4230
  765MOL0     H  934   3.394   2.326  10.152 -1.0547  1.3360 -1.0227
  765MOL0     H  935   3.312   2.463  10.225  1.8384  1.0344  0.7065
  765MOL0     H  936   3.244   2.155  10.271 -3.8097 -1.3592 -2.3574
  765MOL0     H  937   3.208   2.240  10.129  1.1901  0.9471 -0.0469
  765MOL0     H  938   3.110   2.312  10.397 -1.5951  0.8701  0.0366
  765MOL0     H  939   3.054   2.397  10.255  0.3794  1.2296  0.6737
  765MOL0     H  940   2.987   2.175  10.152  0.2647 -2.9634  0.3756
  765MOL0     H  941   2.885   2.257  10.269 -0.5459 -0.9393  2.7860
  765MOL0     H  942   2.843   2.095  10.595 -2.2903 -0.0729  0.9746
  765MOL0     H  943   2.620   2.043  10.640 -1.6821  1.1212 -1.2043
  765MOL0     H  944   2.153   2.071  10.414  3.5026  1.5478  0.2892
  765MOL0     H  945   1.926   1.983  10.462 -0.4560  1.9790  0.1821
  765MOL0     H  946   1.827   1.735  10.647 -0.6931  0.2717  1.5547
  765MOL0     H  947   1.789   1.836  10.511 -0.5453  1.9149 -0.5969
  765MOL0     H  948   1.575   1.920  10.611 -0.5580 -0.5561 -0.2058
  765MOL0     H  949   1.615   1.827  10.762 -0.7888  3.3095 -0.5275
  765MOL0     H  950   1.614   1.619  10.613 -2.2851 -2.7451 -1.0526
  765MOL0     H  951   1.528   1.716  10.491 -0.7082  0.9355  0.3930
  765MOL0     H  952   1.437   1.637  10.775 -0.4854 -1.2556  0.0718
  765MOL0     H  953   1.364   1.772  10.695 -1.3944 -0.8049 -0.1945
  765MOL0     H  954   1.398   1.486  10.591  1.6746  0.7879 -0.4725
  765MOL0     H  955   1.335   1.619  10.495 -1.7621 -0.7524  0.5967
  765MOL0     H  956   1.130   1.612  10.599  0.6158 -1.0732 -0.8703
  765MOL0     H  957   1.203   1.591  10.763 -0.2625 -0.5358  0.7789
  765MOL0     H  958   1.244   1.360  10.719  0.1704  1.6213 -0.3892
  765MOL0     H  959   1.072   1.376  10.706  1.1872 -2.1291  1.6755
  765MOL0     H  960   1.266   1.352  10.482  0.9680  2.1736  0.1074
  765MOL0     H  961   1.108   1.434  10.455 -1.9205 -1.6873  0.4986
  765MOL0     H  962   2.048   1.950  10.873  0.9752 -3.7186  0.0478
  765MOL0     H  963   2.273   1.984  10.825  1.1925 -0.1885 -0.6480
  765MOL0     H  964   2.545   1.958  10.230 -0.0357  1.1363  0.2727
  765MOL0     H  965   2.779   2.001  10.179 -1.2013  1.2138 -0.6789
  765MOL0     H  966   4.707   2.590  10.550 -0.4178  2.1661  1.2100
  765MOL0     H  967   4.926   2.471  10.540 -1.8899  1.5589 -1.5173
  765MOL0     H  968   5.399   2.681  10.723  0.6376  0.1159 -0.3303
  765MOL0     H  969   5.633   2.626  10.746  0.0281 -0.5819  1.8752
  765MOL0     H  970   5.742   2.173  10.705  1.2380 -2.4416  0.6206
  765MOL0     H  971   5.699   2.223  10.874  2.1439 -1.1228  0.2202
  765MOL0     H  972   5.929   2.329  10.913  1.4757  2.3277 -2.5359
  765MOL0     H  973   5.926   2.158  10.885  2.2232 -0.1640 -0.7073
  765MOL0     H  974   6.096   2.334  10.760 -1.4290  0.3927  1.2294
  765MOL0     H  975   5.968   2.318  10.629  1.4953  0.3714 -1.5499
  765MOL0     H  976   5.988   2.063  10.653  0.2623 -0.5378  0.1424
  765MOL0     H  977   6.099   2.154  10.563 -2.7288 -2.0755 -1.2054
  765MOL0     H  978   6.313   2.025  10.922  1.1498  1.9426 -1.1545
  765MOL0     H  979   5.505   2.201  10.708  1.8803  0.5329  0.0436
  765MOL0     H  980   5.265   2.283  10.697 -1.4378 -0.0819 -0.0252
  766MOL0     O  981   6.913  10.674  10.795  0.4208  0.0240  0.2662
  766MOL0     C  982   6.995  10.762  10.811  0.9493  0.0046  0.7126
  766MOL0     O  983   6.969  10.893  10.828  0.1216 -0.4314  0.5011
  766MOL0     C  984   6.846  10.945  10.821 -0.2178  0.7061  0.6440
  766MOL0     C  985   6.745  10.921  10.730  0.1119 -0.6846  0.6335
  766MOL0     C  986   6.629  10.999  10.718  0.6845  0.7408  0.1843
  766MOL0     C  987   6.612  11.107  10.806 -0.7386 -0.3116 -0.9362
  766MOL0     O  988   6.511  11.198  10.791 -0.6357 -0.1915 -0.2728
  766MOL0     C  989   6.379  11.151  10.820 -0.3697 -0.3790 -0.6428
  766MOL0     C  990   6.359  11.142  10.980  0.9445 -0.1324  0.0889
  766MOL0     C  991   6.209  11.114  11.017  0.9618 -0.5738  0.3998
  766MOL0     C  992   6.164  10.979  10.969 -0.0090 -0.3547 -0.0587
  766MOL0     C  993   6.052  10.924  11.060  0.3702  0.1765  0.5637
  766MOL0     C  994   5.923  11.009  11.074 -0.2769 -0.1229 -0.1998
  766MOL0     C  995   5.859  11.042  10.943 -0.4277  0.0875  0.6036
  766MOL0     C  996   5.817  10.920  10.859  0.4461  0.2416 -0.1855
  766MOL0     N  997   5.718  10.839  10.926  0.5668  0.2618 -0.0209
  766MOL0     C  998   5.586  10.861  10.916  0.1777 -0.0303  0.8866
  766MOL0     C  999   5.520  10.767  10.981 -0.1524  0.2970  0.1972
  766MOL0     C 1000   5.366  10.755  11.004 -0.2896 -0.0657 -0.0610
  766MOL0     C 1001   5.321  10.630  10.931  0.2741  0.1914  0.3579
  766MOL0     C 1002   5.169  10.587  10.963 -0.3202  1.4074 -0.0479
  766MOL0     C 1003   5.070  10.706  10.944  0.1452 -0.4292 -0.0375
  766MOL0     O 1004   4.931  10.658  10.951 -0.3872 -0.6882 -0.4166
  766MOL0     C 1005   4.838  10.705  11.041 -0.5822 -0.4978  0.3227
  766MOL0     C 1006   4.849  10.813  11.129 -0.3796 -0.7250  0.5267
  766MOL0     C 1007   4.744  10.852  11.217  1.0493 -0.2210  0.8949
  766MOL0     C 1008   4.629  10.775  11.233  0.5086  0.5015 -0.6616
  766MOL0     C 1009   4.510  10.823  11.322  0.2239 -0.3296 -0.8471
  766MOL0     O 1010   4.401  10.752  11.327  0.3729  0.6768  0.2128
  766MOL0     C 1011   4.286  10.789  11.391  0.0902  0.1807  0.2830
  766MOL0     C 1012   4.235  10.713  11.497 -0.7623 -0.9493 -0.3638
  766MOL0     C 1013   4.110  10.743  11.550  0.3347 -0.0652  0.5348
  766MOL0     C 1014   4.030  10.843  11.490  0.2383  0.1634 -0.1700
  766MOL0     O 1015   3.901  10.856  11.534  0.0420 -0.3667  1.0945
  766MOL0     C 1016   3.901  10.946  11.647  0.4716 -0.2887  0.7261
  766MOL0     C 1017   3.824  10.877  11.763  0.2534 -0.2072 -0.0939
  766MOL0     C 1018   3.676  10.891  11.738  0.1940  0.1227  0.1431
  766MOL0     C 1019   3.593  10.817  11.841 -0.4380  0.6131 -0.6995
  766MOL0     C 1020   3.441  10.834  11.825 -0.4912 -0.2643  0.2177
  766MOL0     C 1021   3.372  10.798  11.943  0.6437 -0.2299 -0.3043
  766MOL0     C 1022   3.222  10.825  11.942  0.3830  0.9906  0.5375
  766MOL0     C 1023   3.150  10.798  12.082  0.1599 -0.1629 -0.1792
  766MOL0    Cl 1024   3.154  10.624  12.102 -0.0074 -0.3707 -0.4944
  766MOL0     C 1025   4.080  10.923  11.390  0.1350  0.5564  0.0495
  766MOL0     C 1026   4.206  10.897  11.347 -0.6324 -0.2586  0.8642
  766MOL0     O 1027   4.522  10.929  11.382 -0.0397  0.1423  0.7484
  766MOL0     C 1028   4.626  10.657  11.152  0.3556 -0.7518 -0.1158
  766MOL0     C 1029   4.722  10.624  11.058 -0.8869  0.6104 -0.3793
  766MOL0     N 1030   5.614  10.686  11.042 -0.5815  0.4017 -0.1439
  766MOL0     N 1031   5.734  10.723  11.001 -0.3345 -0.2925  0.1976
  766MOL0     C 1032   6.712  11.132  10.900  0.4319 -0.2725 -0.0146
  766MOL0     C 1033   6.832  11.053  10.910  0.2118 -0.3367 -0.2005
  766MOL0     C 1034   7.137  10.722  10.831 -0.4041 -0.6392  0.6849
  766MOL0     C 1035   7.236  10.808  10.882 -0.0410 -0.4724  0.1110
  766MOL0     C 1036   7.371  10.764  10.891  0.8994  0.7044 -0.8338
  766MOL0     C 1037   7.403  10.638  10.857  0.2570  1.0113 -0.3984
  766MOL0     O 1038   7.531  10.595  10.883  0.5817 -0.5444 -0.0652
  766MOL0     C 1039   7.614  10.592  10.761  0.0061  0.2711 -0.1816
  766MOL0     C 1040   7.727  10.688  10.768 -0.0900  0.9999  0.5104
  766MOL0     C 1041   7.838  10.644  10.862  0.2033  1.0086 -0.6992
  766MOL0     C 1042   7.963  10.721  10.833  0.2651 -0.5762 -0.2280
  766MOL0     C 1043   8.069  10.644  10.771 -0.4557 -0.0445  0.4593
  766MOL0     C 1044   8.161  10.589  10.716  0.0461  0.1135  0.2748
  766MOL0     C 1045   7.310  10.552  10.796  0.5076 -0.4614 -0.1499
  766MOL0     C 1046   7.174  10.591  10.792  0.3487  0.0896 -0.5344
  766MOL0     H 1047   6.755  10.843  10.655  1.5909  0.6248 -0.6104
  766MOL0     H 1048   6.560  10.966  10.641  3.1508 -0.6457 -1.5770
  766MOL0     H 1049   6.368  11.052  10.773  1.0939 -1.0549  0.3551
  766MOL0     H 1050   6.302  11.219  10.783 -3.0238 -2.6572  0.3291
  766MOL0     H 1051   6.396  11.235  11.024 -1.5580 -0.3761  3.1157
  766MOL0     H 1052   6.423  11.061  11.015 -0.4267 -0.7263  1.3814
  766MOL0     H 1053   6.139  11.192  10.986  1.5405  0.3778  1.4195
  766MOL0     H 1054   6.207  11.112  11.126 -0.2520  1.5739  0.4596
  766MOL0     H 1055   6.132  10.988  10.864  1.0173  0.2541 -0.3289
  766MOL0     H 1056   6.246  10.907  10.977  0.2707  0.0695  1.0352
  766MOL0     H 1057   6.084  10.913  11.164  2.2801  1.2058  0.1156
  766MOL0     H 1058   6.026  10.823  11.028 -1.0359 -0.0391  2.2081
  766MOL0     H 1059   5.929  11.106  11.123 -0.8782  1.1129 -2.4336
  766MOL0     H 1060   5.843  10.954  11.125 -1.1598  0.8177 -0.5255
  766MOL0     H 1061   5.759  11.086  10.951 -1.5793 -2.3061  0.3019
  766MOL0     H 1062   5.925  11.103  10.882 -1.3426  0.7726  0.2714
  766MOL0     H 1063   5.905  10.856  10.845 -0.2389 -0.4328 -1.6075
  766MOL0     H 1064   5.797  10.954  10.757  3.5064 -0.7315 -1.2303
  766MOL0     H 1065   5.544  10.940  10.855  1.1322 -1.8085 -2.3100
  766MOL0     H 1066   5.317  10.845  10.965  1.5777  0.1454 -2.1337
  766MOL0     H 1067   5.345  10.736  11.110 -0.2682  1.3418  0.2151
  766MOL0     H 1068   5.389  10.548  10.953 -1.1360 -1.0137  0.3571
  766MOL0     H 1069   5.330  10.656  10.825 -0.8866  0.7792  0.3838
  766MOL0     H 1070   5.142  10.509  10.892 -0.0738  1.4338 -0.1750
  766MOL0     H 1071   5.160  10.530  11.056 -1.9989 -1.3872 -1.7886
  766MOL0     H 1072   5.104  10.741  10.846  0.5226 -0.9270 -0.0930
  766MOL0     H 1073   5.089  10.788  11.014  0.1562 -0.0830 -0.4389
  766MOL0     H 1074   4.939  10.874  11.130  0.0600 -1.3623  1.5685
  766MOL0     H 1075   4.761  10.938  11.281  2.1138 -0.1940  0.5949
  766MOL0     H 1076   4.298  10.644  11.551 -2.4826 -0.7426  2.0525
  766MOL0     H 1077   4.060  10.690  11.630 -1.8385  1.9873  0.6177
  766MOL0     H 1078   3.852  11.040  11.620 -2.2056 -1.2321  1.8639
  766MOL0     H 1079   4.003  10.960  11.684 -0.0185 -0.7802  2.3551
  766MOL0     H 1080   3.852  10.924  11.857  0.5637 -1.2696  0.3565
  766MOL0     H 1081   3.855  10.773  11.772  0.2630 -0.6272 -3.5646
  766MOL0     H 1082   3.652  10.850  11.640 -0.0390  4.4681 -1.8299
  766MOL0     H 1083   3.638  10.994  11.734 -2.2669 -0.7001  0.2224
  766MOL0     H 1084   3.631  10.715  11.830  2.6861  1.5173  0.7209
  766MOL0     H 1085   3.631  10.854  11.937 -1.0861 -0.5582  0.0186
  766MOL0     H 1086   3.409  10.777  11.736 -2.7744  0.0812  0.7653
  766MOL0     H 1087   3.423  10.939  11.802  1.5837  0.0667 -0.1297
  766MOL0     H 1088   3.407  10.872  12.015  0.6818 -0.9823  0.4626
  766MOL0     H 1089   3.395  10.695  11.972 -1.4365 -0.4329  0.8133
  766MOL0     H 1090   3.204  10.927  11.908 -1.1721  0.5761  0.0015
  766MOL0     H 1091   3.174  10.753  11.874  0.3427  1.4970  0.0306
  766MOL0     H 1092   3.046  10.829  12.072 -0.5401 -0.5655  3.9413
  766MOL0     H 1093   3.193  10.847  12.170 -2.3572 -1.4593  1.9061
  766MOL0     H 1094   4.017  11.005  11.356 -0.5110  0.6459  1.4028
  766MOL0     H 1095   4.244  10.963  11.269 -1.9555 -3.1694 -2.4938
  766MOL0     H 1096   4.544  10.586  11.159 -0.2385 -0.4140 -2.7422
  766MOL0     H 1097   4.725  10.527  11.010  4.0231  0.4625 -0.3227
  766MOL0     H 1098   6.705  11.208  10.977 -3.0324 -2.4308  2.0920
  766MOL0     H 1099   6.903  11.063  10.991  2.2200  0.8751 -2.0004
  766MOL0     H 1100   7.219  10.911  10.909  0.6508  0.3534 -2.3027
  766MOL0     H 1101   7.450  10.832  10.921  0.5352  1.0412 -0.6249
  766MOL0     H 1102   7.560  10.619  10.669  1.2488 -1.3039 -1.4230
  766MOL0     H 1103   7.647  10.488  10.750 -0.7827 -0.0561  0.4300
  766MOL0     H 1104   7.767  10.700  10.667 -0.9966 -0.2019 -0.0234
  766MOL0     H 1105   7.679  10.779  10.804 -2.6719  0.2394 -0.7360
  766MOL0     H 1106   7.858  10.536  10.866  0.1365  0.9806  3.4324
  766MOL0     H 1107   7.804  10.674  10.962  1.4491  2.0788 -0.5688
  766MOL0     H 1108   7.936  10.813  10.781 -0.6906  0.5193  2.0664
  766MOL0     H 1109   8.009  10.753  10.926  1.8309 -1.9210 -0.4874
  766MOL0     H 1110   8.251  10.555  10.668  1.0289 -0.7264  2.5559
  766MOL0     H 1111   7.331  10.455  10.752 -0.2086 -0.2065 -1.0759
  766MOL0     H 1112   7.105  10.522  10.744 -1.8578  2.4467 -0.9702
  767MOL0     O 1113   6.141   6.139   8.895  0.1120 -0.6266  0.3516
  767MOL0     C 1114   6.186   6.102   9.006  0.2804  0.0307  0.4729
  767MOL0     O 1115   6.141   6.136   9.126  0.3085 -0.3174 -0.4374
  767MOL0     C 1116   6.035   6.224   9.150 -0.2375 -0.7852  0.2332
  767MOL0     C 1117   6.007   6.265   9.278 -0.0111 -0.1507 -0.5920
  767MOL0     C 1118   5.901   6.359   9.305 -0.1217  0.5248  0.5107
  767MOL0     C 1119   5.815   6.404   9.205 -0.7069 -0.2714  0.4157
  767MOL0     O 1120   5.720   6.493   9.239 -0.6190 -0.4542  0.0565
  767MOL0     C 1121   5.589   6.445   9.265 -0.2471 -0.6346 -0.6570
  767MOL0     C 1122   5.527   6.385   9.138  0.1880  0.7437 -0.8088
  767MOL0     C 1123   5.375   6.359   9.178 -0.0705  0.5761 -0.9012
  767MOL0     C 1124   5.286   6.342   9.047 -0.3781  0.3099  0.0968
  767MOL0     C 1125   5.140   6.345   9.092  0.0121 -0.1007 -0.0651
  767MOL0     C 1126   5.046   6.311   8.982 -0.3877  0.7292 -0.6452
  767MOL0     C 1127   4.909   6.303   9.037  0.5148  0.8398  0.9004
  767MOL0     C 1128   4.803   6.257   8.934 -1.0383 -0.7348  0.2077
  767MOL0     N 1129   4.681   6.232   9.014  0.6219  0.3072  0.7499
  767MOL0     C 1130   4.592   6.328   9.069  0.3584  0.1358  0.1299
  767MOL0     C 1131   4.503   6.251   9.135  0.2089 -0.4188 -0.3310
  767MOL0     C 1132   4.389   6.299   9.213 -0.8653 -0.0009 -0.5966
  767MOL0     C 1133   4.257   6.226   9.192  0.5534 -0.1050 -0.3237
  767MOL0     C 1134   4.188   6.258   9.054 -0.9121 -0.0067 -0.0003
  767MOL0     C 1135   4.046   6.207   9.036  0.3342  0.1288  0.2285
  767MOL0     O 1136   3.959   6.294   9.112  0.5610 -0.2065  0.1516
  767MOL0     C 1137   3.822   6.257   9.111 -0.6133 -0.0521 -0.2482
  767MOL0     C 1138   3.735   6.338   9.187  0.5302 -0.3518  0.7531
  767MOL0     C 1139   3.608   6.297   9.213 -0.4643 -0.8115 -0.1224
  767MOL0     C 1140   3.556   6.186   9.153  0.9824 -0.4717 -0.8540
  767MOL0     C 1141   3.412   6.140   9.175 -0.0503  0.1889 -0.3884
  767MOL0     O 1142   3.364   6.037   9.104  0.3944  0.1176 -0.5541
  767MOL0     C 1143   3.250   5.973   9.149  0.5395 -1.2824 -0.1584
  767MOL0     C 1144   3.251   5.833   9.161 -0.3379 -0.7562 -0.3500
  767MOL0     C 1145   3.129   5.760   9.191 -0.1626 -0.0170  0.1882
  767MOL0     C 1146   3.007   5.827   9.206 -0.7522  1.1149 -0.6534
  767MOL0     O 1147   2.886   5.762   9.215 -0.2889 -0.0893  0.2587
  767MOL0     C 1148   2.889   5.617   9.242  0.4940 -0.9999  0.4670
  767MOL0     C 1149   2.751   5.554   9.236  0.0191  0.2431  0.5665
  767MOL0     C 1150   2.657   5.621   9.332 -0.5108 -0.8486  0.0165
  767MOL0     C 1151   2.521   5.551   9.321 -0.5904  0.6307 -0.3265
  767MOL0     C 1152   2.430   5.570   9.449 -0.2290  0.4464 -0.9217
  767MOL0     C 1153   2.415   5.707   9.498 -0.8053 -0.1150  0.0475
  767MOL0     C 1154   2.328   5.727   9.620 -0.7695  0.7411 -0.3881
  767MOL0     C 1155   2.379   5.645   9.743  0.2815  0.0772 -0.6925
  767MOL0    Cl 1156   2.286   5.688   9.884  0.2475  0.2044  0.2414
  767MOL0     C 1157   3.013   5.966   9.204  0.0938 -0.6028  0.0965
  767MOL0     C 1158   3.132   6.038   9.181  0.4338 -0.3585  0.2211
  767MOL0     O 1159   3.350   6.205   9.262  0.2781  0.2010 -0.0369
  767MOL0     C 1160   3.635   6.114   9.061  0.3477  1.0298 -0.2582
  767MOL0     C 1161   3.767   6.150   9.043 -0.1779 -0.6160  0.4568
  767MOL0     N 1162   4.529   6.123   9.120  0.2986  0.2408 -0.0673
  767MOL0     N 1163   4.629   6.104   9.045 -0.7066 -0.2384 -0.1436
  767MOL0     C 1164   5.847   6.378   9.076 -0.8247  0.2183 -0.8663
  767MOL0     C 1165   5.950   6.284   9.051 -0.5163  0.1142  0.1264
  767MOL0     C 1166   6.307   6.023   9.011 -0.4144 -0.6258 -0.3403
  767MOL0     C 1167   6.379   5.989   8.894 -0.1573  0.3003  0.3332
  767MOL0     C 1168   6.487   5.901   8.900  0.0724  0.6412 -0.1957
  767MOL0     C 1169   6.533   5.849   9.017 -0.0149 -0.3272 -0.7218
  767MOL0     O 1170   6.647   5.775   9.016 -0.4809  0.2976  0.2128
  767MOL0     C 1171   6.753   5.782   8.924  0.4779 -0.3508  0.3153
  767MOL0     C 1172   6.872   5.854   8.986  0.0863 -0.1499  0.2951
  767MOL0     C 1173   6.860   6.011   8.993  0.6736  0.1218 -0.7350
  767MOL0     C 1174   6.838   6.076   8.856  0.7097 -0.3527  0.6228
  767MOL0     C 1175   6.925   6.042   8.748 -0.4299  0.1227  0.1885
  767MOL0     C 1176   7.022   6.018   8.668 -0.1256 -0.2757 -0.6899
  767MOL0     C 1177   6.474   5.881   9.137 -0.1773  0.2112  0.6342
  767MOL0     C 1178   6.353   5.956   9.127 -0.2243 -0.4745 -0.4485
  767MOL0     H 1179   6.046   6.205   9.359 -0.5344 -0.8204 -0.8207
  767MOL0     H 1180   5.882   6.375   9.411  0.2311  1.6393  0.4198
  767MOL0     H 1181   5.520   6.524   9.295  1.9659  1.1990 -0.1928
  767MOL0     H 1182   5.597   6.373   9.347 -1.4531 -0.4814 -0.3861
  767MOL0     H 1183   5.576   6.292   9.110 -2.8218 -1.0109 -0.6704
  767MOL0     H 1184   5.524   6.461   9.059 -0.4292 -0.2397 -1.7563
  767MOL0     H 1185   5.332   6.437   9.240 -1.4053 -0.7323 -0.1131
  767MOL0     H 1186   5.373   6.268   9.239 -0.2962 -0.1952 -2.0278
  767MOL0     H 1187   5.312   6.411   8.966 -0.5524 -1.4977 -1.5656
  767MOL0     H 1188   5.316   6.247   9.003 -2.2693  0.4213 -1.5698
  767MOL0     H 1189   5.112   6.447   9.121 -0.0027  0.5055 -2.0525
  767MOL0     H 1190   5.119   6.277   9.175 -2.9881  1.3531  0.5238
  767MOL0     H 1191   5.079   6.211   8.950  0.7797  1.5097 -2.0207
  767MOL0     H 1192   5.060   6.368   8.890 -1.5261 -2.0674 -2.7154
  767MOL0     H 1193   4.908   6.230   9.118 -0.5310 -0.1418  0.0205
  767MOL0     H 1194   4.886   6.406   9.066  2.3149  2.8901 -3.9729
  767MOL0     H 1195   4.841   6.164   8.889 -0.0755  0.0374 -0.6286
  767MOL0     H 1196   4.791   6.332   8.856  1.2060 -0.4334  0.0897
  767MOL0     H 1197   4.597   6.435   9.058 -0.2231  0.0616 -0.9559
  767MOL0     H 1198   4.387   6.406   9.192  1.0848 -0.0593 -1.3282
  767MOL0     H 1199   4.425   6.282   9.315  1.0428 -0.9201 -1.3683
  767MOL0     H 1200   4.185   6.252   9.270 -2.0969  0.0164 -2.6317
  767MOL0     H 1201   4.272   6.118   9.189 -0.4469 -0.2767 -3.7714
  767MOL0     H 1202   4.185   6.367   9.053 -0.1148  0.0712  1.5273
  767MOL0     H 1203   4.253   6.223   8.974  0.9915  0.1873  1.3824
  767MOL0     H 1204   4.047   6.107   9.081  0.2174  0.6534  1.4543
  767MOL0     H 1205   4.028   6.203   8.928 -1.3020 -0.0873  0.4727
  767MOL0     H 1206   3.776   6.434   9.215  1.8394  0.6212 -3.6338
  767MOL0     H 1207   3.548   6.361   9.277  1.9476  0.3416  1.1488
  767MOL0     H 1208   3.350   5.791   9.143 -0.1777 -0.4863 -0.1049
  767MOL0     H 1209   3.137   5.653   9.207  1.0256  0.3139  2.1587
  767MOL0     H 1210   2.935   5.606   9.340  1.6941  3.3800  0.6029
  767MOL0     H 1211   2.940   5.566   9.160 -0.3731  0.4308 -1.0322
  767MOL0     H 1212   2.769   5.449   9.258 -0.6239  0.1126  0.4866
  767MOL0     H 1213   2.706   5.565   9.137 -0.3847  0.5296  0.7754
  767MOL0     H 1214   2.648   5.727   9.309 -0.1623 -0.3575  1.9954
  767MOL0     H 1215   2.698   5.602   9.431 -1.6132  1.0078  0.8649
  767MOL0     H 1216   2.474   5.576   9.225  0.5757 -1.4660 -1.5333
  767MOL0     H 1217   2.535   5.443   9.308 -0.9285  0.5494 -0.0392
  767MOL0     H 1218   2.464   5.504   9.529 -1.9846  0.7006  0.0932
  767MOL0     H 1219   2.332   5.525   9.429 -0.5958  1.5219 -1.6573
  767MOL0     H 1220   2.359   5.751   9.415  0.6497  2.1828  0.2015
  767MOL0     H 1221   2.508   5.762   9.515 -0.9485 -0.5117  2.4145
  767MOL0     H 1222   2.319   5.833   9.646 -1.4966  0.1467  1.9296
  767MOL0     H 1223   2.226   5.697   9.594 -0.2938 -1.0523 -0.3201
  767MOL0     H 1224   2.484   5.667   9.766 -0.6730  3.1715  1.3181
  767MOL0     H 1225   2.378   5.536   9.730 -1.3543 -0.2313  1.4111
  767MOL0     H 1226   2.920   6.012   9.234 -0.3793 -2.4751  1.6285
  767MOL0     H 1227   3.123   6.146   9.188 -0.1840 -0.5030  2.3563
  767MOL0     H 1228   3.594   6.020   9.026  0.3867 -0.3301  3.0105
  767MOL0     H 1229   3.832   6.084   8.987  0.0558  0.8462 -1.0798
  767MOL0     H 1230   5.781   6.411   8.997 -0.4110  1.2255 -0.8047
  767MOL0     H 1231   5.937   6.249   8.949 -0.3599  0.3845  0.0160
  767MOL0     H 1232   6.350   6.013   8.792 -0.0264  0.1060  0.2507
  767MOL0     H 1233   6.536   5.872   8.808 -0.5316  1.5825 -0.8312
  767MOL0     H 1234   6.723   5.843   8.838  1.6243  0.1183  0.2363
  767MOL0     H 1235   6.775   5.682   8.884 -1.4416 -1.1969  1.2045
  767MOL0     H 1236   6.893   5.818   9.087 -1.2081  0.6119  0.8716
  767MOL0     H 1237   6.962   5.832   8.927  1.1054  1.3110  1.2337
  767MOL0     H 1238   6.954   6.052   9.032  0.2386  2.6740 -2.1288
  767MOL0     H 1239   6.777   6.037   9.060  1.7918  1.2956  0.2614
  767MOL0     H 1240   6.733   6.056   8.832  0.7446 -0.6650  0.7280
  767MOL0     H 1241   6.847   6.183   8.874 -1.0754  0.2804 -1.7794
  767MOL0     H 1242   7.111   6.004   8.610  0.9573  1.2951  0.4898
  767MOL0     H 1243   6.518   5.848   9.230  1.3371  1.5438  0.4362
  767MOL0     H 1244   6.297   5.963   9.219 -0.2624 -3.1572 -0.1866
  768MOL0     O 1245   2.257   0.596   5.359  0.5701  0.4085 -0.1848
  768MOL0     C 1246   2.340   0.506   5.368  0.7419 -0.2931 -0.5447
  768MOL0     O 1247   2.317   0.375   5.360  0.0900  0.0846 -0.1149
  768MOL0     C 1248   2.194   0.318   5.317 -0.3281 -0.6061  0.1201
  768MOL0     C 1249   2.197   0.197   5.251 -0.5634 -0.2772 -0.2719
  768MOL0     C 1250   2.082   0.122   5.211  0.4421  0.3840 -0.1987
  768MOL0     C 1251   1.957   0.170   5.244  0.1123 -0.3069  0.2461
  768MOL0     O 1252   1.847   0.096   5.216  0.3669  0.3202 -0.1436
  768MOL0     C 1253   1.715   0.140   5.261 -0.7185  0.2546 -0.2048
  768MOL0     C 1254   1.609   0.032   5.250 -0.4777 -0.2165  0.9096
  768MOL0     C 1255   1.640  -0.089   5.341  0.8228 -0.5302 -0.2974
  768MOL0     C 1256   1.549  -0.208   5.319  0.9499  0.4312  0.2699
  768MOL0     C 1257   1.594  -0.346   5.373  0.3997 -0.3469 -0.0379
  768MOL0     C 1258   1.641  -0.333   5.515  0.5754  0.2990 -0.2920
  768MOL0     C 1259   1.627  -0.480   5.584 -0.3668 -0.1473 -0.2203
  768MOL0     C 1260   1.679  -0.467   5.732  0.1888  0.9312 -0.4336
  768MOL0     N 1261   1.600  -0.557   5.822 -0.3584 -0.4353  0.6282
  768MOL0     C 1262   1.575  -0.695   5.804 -0.5432 -1.1779 -0.7795
  768MOL0     C 1263   1.501  -0.727   5.914  0.1449 -0.8504  0.8015
  768MOL0     C 1264   1.444  -0.861   5.924 -0.0316  0.2330  0.2882
  768MOL0     C 1265   1.289  -0.858   5.909 -0.3792 -0.3265  0.2113
  768MOL0     C 1266   1.220  -0.988   5.933 -0.1965  0.6380 -1.0400
  768MOL0     C 1267   1.066  -0.983   5.961 -0.5775  0.3437 -0.6875
  768MOL0     O 1268   1.047  -0.912   6.086 -0.3198 -0.1490  0.4115
  768MOL0     C 1269   0.920  -0.906   6.138 -0.4352 -0.4341  0.4608
  768MOL0     C 1270   0.920  -0.845   6.262  0.4024  0.3205 -0.3550
  768MOL0     C 1271   0.803  -0.847   6.343  0.0110 -0.4262 -0.0100
  768MOL0     C 1272   0.688  -0.917   6.303  0.1503  0.0377  0.0389
  768MOL0     C 1273   0.559  -0.923   6.386 -0.6171 -0.2126 -0.8509
  768MOL0     O 1274   0.450  -0.974   6.332  0.0250  0.6808  0.9699
  768MOL0     C 1275   0.342  -0.984   6.416  0.3911 -0.8375 -0.0562
  768MOL0     C 1276   0.227  -0.910   6.393 -0.3452  0.0054 -0.1582
  768MOL0     C 1277   0.114  -0.921   6.480 -1.3605  0.4767 -0.2089
  768MOL0     C 1278   0.108  -1.021   6.579 -0.6404  0.0706  0.3308
  768MOL0     O 1279  -0.008  -1.018   6.652 -0.2889  0.3379  0.6605
  768MOL0     C 1280  -0.003  -1.108   6.756  0.0548  0.3615 -0.2656
  768MOL0     C 1281  -0.145  -1.097   6.820  0.5024 -0.6964 -1.1005
  768MOL0     C 1282  -0.252  -1.181   6.753  0.0264 -0.4220 -0.3963
  768MOL0     C 1283  -0.384  -1.148   6.815 -0.7292 -0.4421  0.4173
  768MOL0     C 1284  -0.500  -1.245   6.769  0.1432  0.4499  0.7009
  768MOL0     C 1285  -0.643  -1.205   6.784  0.0338 -0.5929  0.7029
  768MOL0     C 1286  -0.746  -1.310   6.739 -0.2809 -0.2635 -0.3798
  768MOL0     C 1287  -0.888  -1.273   6.796 -0.1336 -0.3877  0.0054
  768MOL0    Cl 1288  -1.013  -1.367   6.705  0.3350 -0.1663 -0.3748
  768MOL0     C 1289   0.229  -1.097   6.603  0.4184 -0.4822 -0.0606
  768MOL0     C 1290   0.340  -1.078   6.521  0.1656  0.6317  0.0343
  768MOL0     O 1291   0.567  -0.875   6.503  0.0346 -0.5173  0.4050
  768MOL0     C 1292   0.690  -0.960   6.172 -0.4319  0.2641  0.3095
  768MOL0     C 1293   0.804  -0.959   6.090  0.3609 -1.6413 -0.8273
  768MOL0     N 1294   1.480  -0.613   5.983  0.1843 -0.0877 -0.3868
  768MOL0     N 1295   1.549  -0.517   5.938 -0.3077 -0.0802 -0.8254
  768MOL0     C 1296   1.950   0.302   5.298  0.8258  0.4519 -0.4939
  768MOL0     C 1297   2.065   0.375   5.341 -0.0845 -0.4352  0.0547
  768MOL0     C 1298   2.476   0.542   5.393 -0.5510 -0.0254  0.0484
  768MOL0     C 1299   2.573   0.444   5.425 -0.2420 -0.3827 -0.3237
  768MOL0     C 1300   2.697   0.484   5.468  0.0504  0.0843  0.1215
  768MOL0     C 1301   2.722   0.623   5.490 -0.4787  0.1830 -0.6846
  768MOL0     O 1302   2.833   0.662   5.566 -0.3746 -0.2696  0.0060
  768MOL0     C 1303   2.868   0.595   5.685 -0.2265  0.4809  0.6838
  768MOL0     C 1304   2.952   0.675   5.790 -0.1395  0.0001  0.3684
  768MOL0     C 1305   2.883   0.802   5.825 -0.3922  0.0223  0.2684
  768MOL0     C 1306   2.970   0.905   5.892 -0.0745 -0.0829  0.2565
  768MOL0     C 1307   2.987   0.867   6.030 -0.2530 -0.0107  0.8314
  768MOL0     C 1308   3.020   0.848   6.141  0.6366  0.4120 -0.2443
  768MOL0     C 1309   2.622   0.715   5.467  0.2122  0.3901  0.1714
  768MOL0     C 1310   2.501   0.679   5.414  0.2389 -0.6591 -0.1990
  768MOL0     H 1311   2.298   0.165   5.226 -0.4269  0.7423 -1.0581
  768MOL0     H 1312   2.088   0.027   5.159  0.6576  0.9019 -1.1369
  768MOL0     H 1313   1.673   0.226   5.209 -0.8682  0.9397  1.0072
  768MOL0     H 1314   1.731   0.159   5.367 -0.7180 -3.2601  0.5551
  768MOL0     H 1315   1.601   0.010   5.143 -0.3812  1.4973  0.5233
  768MOL0     H 1316   1.514   0.071   5.286 -0.8731 -0.3865  0.0739
  768MOL0     H 1317   1.635  -0.064   5.447  3.8929 -3.6727  0.7725
  768MOL0     H 1318   1.743  -0.120   5.321  1.2238  0.8194 -0.4405
  768MOL0     H 1319   1.453  -0.191   5.366 -0.0733  0.7274 -1.8114
  768MOL0     H 1320   1.529  -0.206   5.211 -0.0788  0.8628  0.4563
  768MOL0     H 1321   1.671  -0.389   5.309  0.9467  0.0158  0.3724
  768MOL0     H 1322   1.508  -0.413   5.360 -0.5681  0.8377 -0.0234
  768MOL0     H 1323   1.571  -0.267   5.568 -0.8020 -0.8285 -0.6397
  768MOL0     H 1324   1.746  -0.303   5.518  0.5394  0.3582  1.8297
  768MOL0     H 1325   1.527  -0.524   5.585  0.2839 -1.8032 -1.8525
  768MOL0     H 1326   1.694  -0.548   5.530  2.1222  2.7969 -1.1077
  768MOL0     H 1327   1.674  -0.362   5.763 -0.7655  0.7786 -0.0331
  768MOL0     H 1328   1.786  -0.485   5.743  0.2771  1.2096 -0.8307
  768MOL0     H 1329   1.605  -0.746   5.713  0.4019  1.4468 -2.0366
  768MOL0     H 1330   1.456  -0.912   6.020 -2.1709 -1.3643 -0.2105
  768MOL0     H 1331   1.484  -0.927   5.846 -1.3836  1.7398 -1.8296
  768MOL0     H 1332   1.267  -0.827   5.807 -1.0804 -1.7619 -0.0877
  768MOL0     H 1333   1.251  -0.782   5.978  0.5537 -0.4082  0.8387
  768MOL0     H 1334   1.235  -1.060   5.852 -1.7717  0.3210 -1.0744
  768MOL0     H 1335   1.271  -1.037   6.016  0.0909  1.2131 -0.8741
  768MOL0     H 1336   1.013  -1.078   5.967 -0.5930  0.3719 -0.3665
  768MOL0     H 1337   1.033  -0.928   5.872 -1.5811 -0.3880 -0.7776
  768MOL0     H 1338   1.005  -0.800   6.313  0.8471 -0.5029 -0.3474
  768MOL0     H 1339   0.808  -0.807   6.444  1.2925  0.2611 -0.3188
  768MOL0     H 1340   0.220  -0.835   6.315 -0.4494  0.0400 -0.1158
  768MOL0     H 1341   0.035  -0.850   6.458 -1.4423  0.3985 -0.1688
  768MOL0     H 1342   0.072  -1.078   6.829 -0.8411 -0.9967  1.3002
  768MOL0     H 1343   0.011  -1.214   6.732 -1.2903  0.2240 -0.5701
  768MOL0     H 1344  -0.191  -0.998   6.813 -0.3805 -0.9136  0.8744
  768MOL0     H 1345  -0.138  -1.127   6.925  1.9601  0.2329 -0.9073
  768MOL0     H 1346  -0.221  -1.286   6.758  0.8574 -0.3427 -2.5296
  768MOL0     H 1347  -0.257  -1.156   6.646 -0.9030 -1.3859 -0.6016
  768MOL0     H 1348  -0.377  -1.151   6.924  0.1721  1.6771  0.4597
  768MOL0     H 1349  -0.426  -1.050   6.792 -0.4823 -0.0786  1.4612
  768MOL0     H 1350  -0.499  -1.329   6.840 -0.9527  2.2024  2.8972
  768MOL0     H 1351  -0.469  -1.284   6.672  2.0384  1.0178  1.0227
  768MOL0     H 1352  -0.659  -1.120   6.718  0.9385 -2.4976 -2.1726
  768MOL0     H 1353  -0.657  -1.182   6.890  0.1533 -1.1071  0.8317
  768MOL0     H 1354  -0.750  -1.317   6.630 -1.1233  0.2779 -0.3925
  768MOL0     H 1355  -0.721  -1.408   6.780 -0.8810  0.0006  0.6589
  768MOL0     H 1356  -0.909  -1.167   6.779 -0.9922 -0.8310 -1.8801
  768MOL0     H 1357  -0.886  -1.297   6.903  5.3159  1.3090  0.6173
  768MOL0     H 1358   0.238  -1.162   6.689 -1.8191  0.3131  0.8303
  768MOL0     H 1359   0.437  -1.125   6.538  0.2650  0.1481 -1.6646
  768MOL0     H 1360   0.606  -1.010   6.125 -0.9739  2.5889 -1.3433
  768MOL0     H 1361   0.791  -0.994   5.988 -0.1095 -3.6605 -0.1234
  768MOL0     H 1362   1.849   0.340   5.311 -0.8679 -2.3874 -3.5689
  768MOL0     H 1363   2.045   0.471   5.389 -1.0664 -1.4406  1.7784
  768MOL0     H 1364   2.546   0.340   5.410  1.0951 -1.3054  2.9403
  768MOL0     H 1365   2.771   0.408   5.491 -0.3105 -0.9311 -1.9350
  768MOL0     H 1366   2.927   0.506   5.660  1.9845  1.8350  0.8022
  768MOL0     H 1367   2.775   0.574   5.738  0.6382 -1.5511  1.4991
  768MOL0     H 1368   2.983   0.617   5.878 -0.8100 -0.1791  0.4961
  768MOL0     H 1369   3.046   0.696   5.739 -0.7380  1.5532 -0.1310
  768MOL0     H 1370   2.793   0.782   5.883 -1.4615  2.1348 -0.5351
  768MOL0     H 1371   2.845   0.847   5.733 -0.4369 -0.3693  0.0924
  768MOL0     H 1372   3.069   0.920   5.849  0.1909  1.2262  1.2576
  768MOL0     H 1373   2.908   0.995   5.881 -1.4642 -1.0329  0.0339
  768MOL0     H 1374   3.051   0.849   6.243 -0.5768 -1.3118  0.1798
  768MOL0     H 1375   2.646   0.818   5.491  0.5007  0.2568  0.4747
  768MOL0     H 1376   2.426   0.757   5.401  0.1869 -0.9165 -1.5739
  769MOL0     O 1377   0.853   8.185   8.353  0.1052  0.1191 -0.2350
  769MOL0     C 1378   0.867   8.243   8.243  0.1960  1.1885  0.1885
  769MOL0     O 1379   0.774   8.252   8.136 -0.3637 -0.2436 -0.0288
  769MOL0     C 1380   0.649   8.188   8.138 -0.1638  0.1310  0.3773
  769MOL0     C 1381   0.623   8.062   8.198 -0.0754  0.2109 -0.0002
  769MOL0     C 1382   0.512   7.985   8.166  0.8305  0.8493  0.0009
  769MOL0     C 1383   0.422   8.021   8.065 -0.5681 -0.6468 -0.0667
  769MOL0     O 1384   0.319   7.931   8.049  0.4666 -0.3445 -0.7628
  769MOL0     C 1385   0.213   7.971   7.971  1.0591  0.5166  0.2175
  769MOL0     C 1386   0.100   7.873   7.989 -0.5155  0.3666  0.0688
  769MOL0     C 1387   0.009   7.935   8.104  0.6893 -0.5947 -0.0761
  769MOL0     C 1388  -0.085   8.033   8.042 -0.4615  0.6554 -0.5861
  769MOL0     C 1389  -0.186   8.077   8.150  0.1688 -0.0804  0.2654
  769MOL0     C 1390  -0.300   8.158   8.084  0.1807  0.3227 -0.2595
  769MOL0     C 1391  -0.410   8.209   8.172 -0.5435  0.1234  0.2982
  769MOL0     C 1392  -0.517   8.098   8.201 -0.6514  0.2975  0.4815
  769MOL0     N 1393  -0.599   8.150   8.315  0.6434 -0.4262 -0.1076
  769MOL0     C 1394  -0.701   8.243   8.316 -0.5258 -0.1604  0.2825
  769MOL0     C 1395  -0.768   8.223   8.426  0.0481  0.2783 -0.1777
  769MOL0     C 1396  -0.902   8.297   8.470 -0.6645  0.1587 -0.0788
  769MOL0     C 1397  -1.026   8.226   8.419  0.3247  0.5121  0.5310
  769MOL0     C 1398  -1.008   8.075   8.465  0.1662 -0.3791 -0.4418
  769MOL0     C 1399  -1.140   7.997   8.462 -0.2122  0.3374 -0.5792
  769MOL0     O 1400  -1.218   8.040   8.573  0.3547  0.0669  0.3586
  769MOL0     C 1401  -1.333   7.963   8.604  0.2686 -0.7198 -0.2222
  769MOL0     C 1402  -1.413   8.034   8.693  0.5379 -0.1460  0.1749
  769MOL0     C 1403  -1.527   7.967   8.743  0.4745 -0.5113  0.2403
  769MOL0     C 1404  -1.574   7.842   8.696  1.0420  0.1548  0.7253
  769MOL0     C 1405  -1.698   7.775   8.742 -0.2618  0.2831  0.1513
  769MOL0     O 1406  -1.699   7.639   8.713  0.4885 -0.2581  0.0547
  769MOL0     C 1407  -1.812   7.567   8.735 -0.0423  0.7503 -0.5302
  769MOL0     C 1408  -1.947   7.604   8.730 -0.3338  0.6724 -0.2219
  769MOL0     C 1409  -2.057   7.517   8.766 -0.3937  0.5503  0.3747
  769MOL0     C 1410  -2.031   7.383   8.800  0.9698 -0.1417  0.0911
  769MOL0     O 1411  -2.139   7.301   8.823 -0.8398 -0.5839 -0.2332
  769MOL0     C 1412  -2.135   7.255   8.959  0.1134  0.2263 -0.2539
  769MOL0     C 1413  -2.251   7.162   9.003 -0.5526  1.5043 -0.4864
  769MOL0     C 1414  -2.390   7.223   8.990 -0.3985 -0.0514  0.0004
  769MOL0     C 1415  -2.503   7.130   8.965  0.6827  0.3783 -0.3707
  769MOL0     C 1416  -2.644   7.183   9.000  0.3941  0.4595 -0.2718
  769MOL0     C 1417  -2.746   7.073   9.005 -0.8432  0.2463 -0.5151
  769MOL0     C 1418  -2.886   7.130   9.009 -0.5629 -0.2521 -0.2771
  769MOL0     C 1419  -2.985   7.021   9.025  0.5310  1.0857  0.1120
  769MOL0    Cl 1420  -3.152   7.084   9.018 -0.4155 -0.1120  0.2017
  769MOL0     C 1421  -1.897   7.341   8.797  0.6474 -0.4053 -0.1854
  769MOL0     C 1422  -1.793   7.434   8.767  0.1499  0.5464 -0.1678
  769MOL0     O 1423  -1.783   7.841   8.796  0.6406  0.2396 -0.4775
  769MOL0     C 1424  -1.482   7.778   8.607 -0.0573  0.5107  0.7379
  769MOL0     C 1425  -1.363   7.832   8.563 -0.2974 -0.1525 -0.5773
  769MOL0     N 1426  -0.707   8.129   8.499  0.2481  0.0913  0.6257
  769MOL0     N 1427  -0.611   8.082   8.431  0.2492 -0.4921  0.4694
  769MOL0     C 1428   0.442   8.150   8.006  0.0019 -0.5237 -0.5118
  769MOL0     C 1429   0.553   8.232   8.048 -0.4742  0.4471  0.5354
  769MOL0     C 1430   1.003   8.294   8.221 -0.5338 -0.7895  0.2827
  769MOL0     C 1431   1.111   8.242   8.290  0.3598  0.7119  0.1772
  769MOL0     C 1432   1.240   8.278   8.254  1.3903 -0.3375 -0.4669
  769MOL0     C 1433   1.263   8.368   8.152 -0.6532  0.0123  0.3343
  769MOL0     O 1434   1.392   8.398   8.117  0.4856 -0.2498 -0.0030
  769MOL0     C 1435   1.501   8.325   8.178  0.3272 -0.6134  0.8787
  769MOL0     C 1436   1.623   8.327   8.083 -0.2025 -0.8550 -0.3342
  769MOL0     C 1437   1.690   8.469   8.072  0.4880  0.2598  0.4056
  769MOL0     C 1438   1.788   8.489   7.948 -0.0255 -0.4014 -0.0048
  769MOL0     C 1439   1.932   8.443   7.965 -0.6452  0.7942  0.7183
  769MOL0     C 1440   2.053   8.414   7.969  0.0015  0.4148  0.3321
  769MOL0     C 1441   1.158   8.427   8.093 -0.3706  0.4986  0.1617
  769MOL0     C 1442   1.031   8.391   8.125 -0.0464  0.3420  0.5345
  769MOL0     H 1443   0.696   8.023   8.268  0.7200 -1.0250 -1.4494
  769MOL0     H 1444   0.500   7.889   8.214 -0.0941 -0.2270 -2.2686
  769MOL0     H 1445   0.243   7.965   7.866  1.1219 -1.3771  0.3034
  769MOL0     H 1446   0.187   8.072   8.002 -0.5027 -0.4080  2.1377
  769MOL0     H 1447   0.145   7.780   8.025  0.1915  0.6109 -0.1705
  769MOL0     H 1448   0.050   7.849   7.895 -1.1952  0.7265  0.3272
  769MOL0     H 1449   0.068   7.979   8.185 -0.9186  1.7134 -0.0671
  769MOL0     H 1450  -0.056   7.856   8.143 -0.3428  0.0692 -0.4156
  769MOL0     H 1451  -0.028   8.121   8.011  0.6660  1.6022  3.5721
  769MOL0     H 1452  -0.131   7.989   7.953  0.7647 -1.3061 -0.3013
  769MOL0     H 1453  -0.133   8.135   8.227 -2.0628 -0.9863  2.6453
  769MOL0     H 1454  -0.233   7.991   8.200 -1.2120 -0.8769 -2.2097
  769MOL0     H 1455  -0.343   8.102   8.001  0.7475 -2.0452  0.9548
  769MOL0     H 1456  -0.251   8.247   8.044  3.2548 -0.4477  1.4386
  769MOL0     H 1457  -0.377   8.264   8.260 -3.0784  2.5300 -0.0894
  769MOL0     H 1458  -0.461   8.289   8.117  2.3647  1.1036 -1.1536
  769MOL0     H 1459  -0.484   7.997   8.229 -3.2598 -0.9683 -0.6190
  769MOL0     H 1460  -0.574   8.078   8.110  0.8357  2.4996 -1.0335
  769MOL0     H 1461  -0.723   8.304   8.230  1.6370 -0.4621 -0.5631
  769MOL0     H 1462  -0.907   8.398   8.429  0.0889  0.0299 -0.4989
  769MOL0     H 1463  -0.909   8.306   8.579  0.3646  1.0466 -0.0637
  769MOL0     H 1464  -1.034   8.236   8.311  1.0167  2.8035  0.6369
  769MOL0     H 1465  -1.111   8.279   8.464 -1.3073 -0.0004 -1.7631
  769MOL0     H 1466  -0.937   8.017   8.404 -1.9233 -1.7593 -1.6798
  769MOL0     H 1467  -0.966   8.073   8.566  0.7630  0.4763 -0.6659
  769MOL0     H 1468  -1.113   7.894   8.483 -2.1220  0.0357  0.7198
  769MOL0     H 1469  -1.185   8.003   8.363 -0.8657  0.1275 -0.3015
  769MOL0     H 1470  -1.370   8.123   8.736 -1.9304  0.8012  0.8746
  769MOL0     H 1471  -1.591   8.029   8.806 -1.1441 -0.2976 -1.5391
  769MOL0     H 1472  -1.981   7.706   8.711 -2.2014  0.6022  2.2660
  769MOL0     H 1473  -2.156   7.560   8.771 -1.0360 -0.9739  2.5396
  769MOL0     H 1474  -2.144   7.346   9.018 -3.1920 -0.7103  0.9161
  769MOL0     H 1475  -2.044   7.199   8.981 -0.5417  0.0467  2.3297
  769MOL0     H 1476  -2.237   7.125   9.105 -0.4023 -1.4080 -1.4586
  769MOL0     H 1477  -2.229   7.072   8.944  0.0573  1.7982 -0.7191
  769MOL0     H 1478  -2.385   7.300   8.912 -2.1140  1.5949  1.4174
  769MOL0     H 1479  -2.414   7.278   9.082 -2.5530 -0.5714 -0.1975
  769MOL0     H 1480  -2.497   7.116   8.857  0.0938  2.4381 -0.7125
  769MOL0     H 1481  -2.496   7.032   9.013  0.1893  1.6008  2.3852
  769MOL0     H 1482  -2.671   7.242   8.913  0.0859  0.0688 -0.4418
  769MOL0     H 1483  -2.632   7.255   9.082  2.3631 -0.9902  0.8036
  769MOL0     H 1484  -2.725   7.026   9.102  0.9534  2.5927  0.3165
  769MOL0     H 1485  -2.734   7.001   8.923 -1.4948  0.7716 -1.0776
  769MOL0     H 1486  -2.900   7.193   9.097 -2.0662 -0.6348 -0.2169
  769MOL0     H 1487  -2.911   7.188   8.920 -0.9850  1.4717  0.9076
  769MOL0     H 1488  -2.962   6.958   9.112  0.8422 -1.1069 -1.4590
  769MOL0     H 1489  -2.974   6.952   8.941  4.7697 -3.0313  3.4381
  769MOL0     H 1490  -1.873   7.237   8.818  2.3347 -0.2003 -0.9232
  769MOL0     H 1491  -1.696   7.389   8.749 -1.1265 -2.4433 -0.1865
  769MOL0     H 1492  -1.492   7.679   8.564  1.5362  0.6318  0.0052
  769MOL0     H 1493  -1.297   7.768   8.506 -0.0976 -0.8847  0.4585
  769MOL0     H 1494   0.382   8.195   7.928  0.4552  1.8247  0.4023
  769MOL0     H 1495   0.580   8.323   7.995  0.1702 -1.3635 -2.5159
  769MOL0     H 1496   1.101   8.176   8.375 -2.9675  0.3255 -0.3816
  769MOL0     H 1497   1.314   8.227   8.315  1.1515  2.0294  1.9747
  769MOL0     H 1498   1.473   8.221   8.194  1.8918 -1.6982 -2.4206
  769MOL0     H 1499   1.528   8.379   8.269 -0.0545  1.3824 -0.1089
  769MOL0     H 1500   1.705   8.269   8.128  1.2778 -0.7400 -2.7456
  769MOL0     H 1501   1.595   8.288   7.985  0.9016 -1.4719 -0.4248
  769MOL0     H 1502   1.741   8.492   8.166  0.0386  3.2273  0.0087
  769MOL0     H 1503   1.614   8.547   8.067  0.4306  0.1604 -0.5065
  769MOL0     H 1504   1.752   8.441   7.856  1.7097 -0.9597 -0.4359
  769MOL0     H 1505   1.796   8.595   7.920 -0.6880  0.2226  1.9917
  769MOL0     H 1506   2.155   8.384   7.962 -0.6925 -2.1643  0.3912
  769MOL0     H 1507   1.164   8.501   8.014 -2.0641  0.1473 -0.3379
  769MOL0     H 1508   0.948   8.440   8.076 -0.6149 -0.0154  1.1133
  770MOL0     O 1509   3.123  10.052   4.465 -0.1713  0.1122  0.2353
  770MOL0     C 1510   3.192  10.102   4.559  0.0462 -0.4652 -0.0303
  770MOL0     O 1511   3.156  10.219   4.613  0.0181  0.7948  0.1707
  770MOL0     C 1512   3.072  10.301   4.552  0.7532 -0.3110  0.7411
  770MOL0     C 1513   2.936  10.316   4.592 -0.2746 -0.8678 -1.0631
  770MOL0     C 1514   2.858  10.412   4.527  0.3649 -0.5973  0.0246
  770MOL0     C 1515   2.918  10.497   4.435  0.2415  0.8940  0.5540
  770MOL0     O 1516   2.843  10.596   4.379 -1.5516  0.1807 -0.2137
  770MOL0     C 1517   2.879  10.727   4.428 -1.0198  0.6624 -0.6148
  770MOL0     C 1518   2.764  10.819   4.421  0.3881  0.3493 -0.5078
  770MOL0     C 1519   2.795  10.956   4.482  0.0745  0.4724 -0.1010
  770MOL0     C 1520   2.701  11.066   4.430 -0.3515  0.5957 -0.1709
  770MOL0     C 1521   2.717  11.197   4.504  0.7400  0.4858  0.6064
  770MOL0     C 1522   2.665  11.330   4.432 -0.1585  0.3994 -0.4876
  770MOL0     C 1523   2.515  11.330   4.404  0.0939 -0.2819 -0.5397
  770MOL0     C 1524   2.462  11.463   4.335 -0.0704  1.0823  0.2059
  770MOL0     N 1525   2.321  11.452   4.301 -0.1077  0.5372  0.1536
  770MOL0     C 1526   2.262  11.447   4.181 -0.3904  0.1774 -0.0454
  770MOL0     C 1527   2.132  11.456   4.206  0.0283  0.7645  0.3047
  770MOL0     C 1528   2.029  11.447   4.098  0.4582 -0.0780  0.6072
  770MOL0     C 1529   1.992  11.303   4.076 -0.3992 -0.1499  0.1052
  770MOL0     C 1530   1.911  11.294   3.949  0.2452  0.2026 -0.0114
  770MOL0     C 1531   1.877  11.150   3.938 -0.2538 -0.4636  0.0058
  770MOL0     O 1532   1.762  11.147   3.857  0.1421 -0.3306 -0.5773
  770MOL0     C 1533   1.707  11.020   3.837  0.1288  0.3626  0.2462
  770MOL0     C 1534   1.764  10.892   3.862  0.2891  0.1261 -0.2089
  770MOL0     C 1535   1.686  10.777   3.843  0.3759 -0.8472 -0.4267
  770MOL0     C 1536   1.551  10.783   3.812 -0.6290 -0.0015 -1.3794
  770MOL0     C 1537   1.469  10.664   3.804  0.7038 -0.4524  0.6195
  770MOL0     O 1538   1.532  10.550   3.772 -0.0085 -0.0373 -0.7094
  770MOL0     C 1539   1.461  10.440   3.739 -0.2421 -0.2831 -1.0017
  770MOL0     C 1540   1.492  10.323   3.811  0.4617 -0.0624  0.5691
  770MOL0     C 1541   1.421  10.202   3.795 -0.2252 -0.2814  0.1778
  770MOL0     C 1542   1.321  10.201   3.700  0.5532  0.2175 -0.0456
  770MOL0     O 1543   1.232  10.091   3.677 -0.1139  0.0015  0.2720
  770MOL0     C 1544   1.239   9.983   3.771 -0.4477  0.2120 -0.4429
  770MOL0     C 1545   1.142   9.872   3.734  0.5591  0.0136 -0.5092
  770MOL0     C 1546   0.996   9.930   3.740 -0.0574  0.1242  0.0222
  770MOL0     C 1547   0.893   9.823   3.707  0.1772 -0.0221  0.7802
  770MOL0     C 1548   0.745   9.862   3.722 -0.1876  0.9490  0.1179
  770MOL0     C 1549   0.716   9.883   3.868  0.3717 -0.2354  0.0623
  770MOL0     C 1550   0.562   9.914   3.881 -0.9902 -0.8573  0.5071
  770MOL0     C 1551   0.556  10.057   3.959  1.0735  0.4246  0.6744
  770MOL0    Cl 1552   0.605  10.191   3.853  0.1567 -0.1208 -0.1686
  770MOL0     C 1553   1.302  10.310   3.617 -0.3032  0.4549  0.7692
  770MOL0     C 1554   1.368  10.434   3.633 -0.3144  0.3775  0.4733
  770MOL0     O 1555   1.346  10.670   3.828 -0.9689 -0.4929 -0.2134
  770MOL0     C 1556   1.486  10.909   3.812 -0.0699  0.0596  0.1888
  770MOL0     C 1557   1.569  11.025   3.807 -0.0127 -0.6493  0.8522
  770MOL0     N 1558   2.119  11.435   4.345  0.1763 -0.7408  0.6676
  770MOL0     N 1559   2.232  11.443   4.399 -0.3295 -0.2667  0.3973
  770MOL0     C 1560   3.054  10.483   4.396  1.2256  1.0537  0.3484
  770MOL0     C 1561   3.127  10.384   4.452 -0.3866 -0.4432  0.2335
  770MOL0     C 1562   3.307  10.015   4.619 -1.0559  0.1020 -0.2636
  770MOL0     C 1563   3.387  10.073   4.725  0.7428 -0.3479  0.8105
  770MOL0     C 1564   3.495  10.002   4.778 -0.1025  0.4937 -0.0802
  770MOL0     C 1565   3.517   9.868   4.736 -1.0302  0.3546  0.4510
  770MOL0     O 1566   3.623   9.785   4.786  0.1374 -0.1827 -0.2456
  770MOL0     C 1567   3.730   9.847   4.859 -0.2198 -0.2584 -0.1982
  770MOL0     C 1568   3.850   9.867   4.770  0.4961 -0.1363 -0.5852
  770MOL0     C 1569   3.895   9.740   4.705  0.2712 -0.9006 -0.1949
  770MOL0     C 1570   3.955   9.648   4.811 -0.2443  0.3809  0.0729
  770MOL0     C 1571   4.097   9.632   4.792  0.2459 -0.3669  0.7124
  770MOL0     C 1572   4.217   9.635   4.798 -0.0405 -0.3113  0.7342
  770MOL0     C 1573   3.440   9.809   4.637 -0.1947 -0.0292  0.5849
  770MOL0     C 1574   3.337   9.883   4.573  0.2576 -0.2307 -0.1747
  770MOL0     H 1575   2.898  10.260   4.677  1.4436  1.3317  1.3175
  770MOL0     H 1576   2.754  10.431   4.551 -0.1909 -1.3002 -1.6673
  770MOL0     H 1577   2.962  10.766   4.369 -0.3082  0.8927  0.5023
  770MOL0     H 1578   2.915  10.726   4.532 -0.3826 -0.0755 -0.8342
  770MOL0     H 1579   2.680  10.767   4.470  1.0772 -3.0955 -2.6820
  770MOL0     H 1580   2.732  10.845   4.320 -0.0951  1.1092 -0.1699
  770MOL0     H 1581   2.899  10.984   4.462 -0.4948  1.7651 -1.3925
  770MOL0     H 1582   2.791  10.943   4.591 -0.2564  0.5709 -0.1014
  770MOL0     H 1583   2.715  11.076   4.322  1.6442 -2.1604 -0.2752
  770MOL0     H 1584   2.606  11.016   4.449  0.2273  0.2898  2.3613
  770MOL0     H 1585   2.826  11.209   4.504  0.6076  1.9385 -0.3359
  770MOL0     H 1586   2.674  11.182   4.604 -1.8128  1.3973 -0.2648
  770MOL0     H 1587   2.711  11.343   4.334 -1.8173  1.7359 -1.1246
  770MOL0     H 1588   2.694  11.419   4.489  0.1075 -0.7303  1.2209
  770MOL0     H 1589   2.494  11.248   4.334 -0.4388 -2.8015  2.3182
  770MOL0     H 1590   2.457  11.324   4.497  0.9335  1.6703  0.1442
  770MOL0     H 1591   2.517  11.490   4.244  3.7283  1.7564  2.4703
  770MOL0     H 1592   2.480  11.546   4.404  0.0680  1.8859 -0.7636
  770MOL0     H 1593   2.304  11.438   4.081 -1.1415  1.3864 -0.4887
  770MOL0     H 1594   2.075  11.484   4.006 -0.7231 -0.5336 -0.1768
  770MOL0     H 1595   1.947  11.512   4.129  1.5787  1.2816  0.8613
  770MOL0     H 1596   1.937  11.267   4.164  0.0106 -4.2163 -1.0794
  770MOL0     H 1597   2.084  11.243   4.074 -1.3678 -1.6676 -1.6551
  770MOL0     H 1598   1.822  11.352   3.972  1.2625  1.0782  1.9654
  770MOL0     H 1599   1.964  11.339   3.865 -0.0889  0.9202  0.1592
  770MOL0     H 1600   1.856  11.101   4.033  1.8364 -1.5438 -0.0360
  770MOL0     H 1601   1.960  11.092   3.895 -0.0723  0.9198 -1.6051
  770MOL0     H 1602   1.864  10.871   3.899  0.3363 -1.5149 -1.1740
  770MOL0     H 1603   1.752  10.691   3.843  1.7696  0.1080 -3.1740
  770MOL0     H 1604   1.574  10.326   3.882  0.5558 -1.1439  0.5246
  770MOL0     H 1605   1.451  10.123   3.862 -0.8510  0.2430  1.0994
  770MOL0     H 1606   1.218  10.023   3.870  2.3066  2.4238 -0.6550
  770MOL0     H 1607   1.339   9.939   3.763  0.6213  2.3712  0.2990
  770MOL0     H 1608   1.152   9.792   3.808 -0.3689  1.1277  0.8836
  770MOL0     H 1609   1.166   9.818   3.643  2.0631 -1.1826  0.5510
  770MOL0     H 1610   0.973  10.012   3.672 -1.7737  0.4104  0.8997
  770MOL0     H 1611   0.984   9.970   3.841  1.6162  1.4573 -0.2638
  770MOL0     H 1612   0.904   9.797   3.601 -0.7272  0.1507  0.6419
  770MOL0     H 1613   0.904   9.739   3.776 -0.0025 -0.6034  0.1136
  770MOL0     H 1614   0.678   9.788   3.678  1.2700  0.4021 -1.2688
  770MOL0     H 1615   0.729   9.954   3.665 -1.4204  0.7105  0.0702
  770MOL0     H 1616   0.777   9.957   3.921 -2.3633  0.9411  1.7757
  770MOL0     H 1617   0.726   9.792   3.928 -0.4807 -0.0086  0.5695
  770MOL0     H 1618   0.521   9.932   3.781 -0.2434  0.2907  0.3815
  770MOL0     H 1619   0.511   9.832   3.932  0.5367 -0.0849  3.5063
  770MOL0     H 1620   0.606  10.043   4.056 -0.9143  1.4283  1.9068
  770MOL0     H 1621   0.455  10.090   3.987  0.8726 -0.3037  0.8488
  770MOL0     H 1622   1.228  10.281   3.543  2.2881 -3.4800 -0.6002
  770MOL0     H 1623   1.340  10.514   3.565  1.0852 -0.4105 -1.1187
  770MOL0     H 1624   1.380  10.922   3.798 -0.1054 -1.0221 -0.6125
  770MOL0     H 1625   1.523  11.124   3.804 -2.1289 -1.5266  2.2463
  770MOL0     H 1626   3.093  10.551   4.322  2.8648  0.3615  0.5286
  770MOL0     H 1627   3.232  10.386   4.424 -1.5043  0.6802 -4.9564
  770MOL0     H 1628   3.373  10.178   4.746  3.2725  1.0056 -3.0368
  770MOL0     H 1629   3.564  10.052   4.845 -0.7030 -1.2056  1.9335
  770MOL0     H 1630   3.760   9.767   4.927  0.5633 -3.1941 -3.6794
  770MOL0     H 1631   3.713   9.940   4.913  2.3387 -0.8926  1.8876
  770MOL0     H 1632   3.824   9.933   4.687 -1.0344 -3.5377 -3.0445
  770MOL0     H 1633   3.934   9.913   4.823  0.3993 -0.6019 -0.0219
  770MOL0     H 1634   3.953   9.755   4.614 -1.5973 -0.8960 -1.4521
  770MOL0     H 1635   3.803   9.690   4.671 -0.1441 -1.1531  1.2126
  770MOL0     H 1636   3.941   9.679   4.915  0.1498  1.6845 -0.2470
  770MOL0     H 1637   3.906   9.550   4.811  0.6134 -0.1014 -1.8342
  770MOL0     H 1638   4.323   9.637   4.813  0.2011  1.1721 -0.9184
  770MOL0     H 1639   3.466   9.704   4.623 -1.2754 -0.3101  0.5799
  770MOL0     H 1640   3.273   9.828   4.504  0.9821  0.7972 -1.7372
  771MOL0     O 1641   4.339   6.951   2.255  0.5105 -0.3935  0.2452
  771MOL0     C 1642   4.423   7.030   2.295 -0.3659 -0.4422 -0.3350
  771MOL0     O 1643   4.406   7.144   2.365  0.9556 -0.1675  0.7464
  771MOL0     C 1644   4.272   7.169   2.401 -0.2334 -0.3974 -0.6411
  771MOL0     C 1645   4.187   7.233   2.313  0.4161 -1.0135 -0.2734
  771MOL0     C 1646   4.053   7.248   2.343 -0.3867 -0.2135  0.4601
  771MOL0     C 1647   4.008   7.204   2.467 -0.2900 -0.4433 -0.2230
  771MOL0     O 1648   3.870   7.217   2.490  0.3209  0.1711 -0.1455
  771MOL0     C 1649   3.824   7.189   2.624 -0.7765 -0.2769  0.1093
  771MOL0     C 1650   3.675   7.238   2.623 -0.5112 -0.1011 -0.1755
  771MOL0     C 1651   3.622   7.231   2.768 -0.0579  0.0039 -0.5259
  771MOL0     C 1652   3.469   7.251   2.779  0.4119  0.0023  0.1046
  771MOL0     C 1653   3.419   7.253   2.921  0.3360 -0.5282 -0.4109
  771MOL0     C 1654   3.394   7.117   2.986 -0.1474  0.0853 -0.4608
  771MOL0     C 1655   3.341   7.011   2.888  0.4928 -0.0272 -1.0809
  771MOL0     C 1656   3.193   7.011   2.850 -0.7361 -0.2449  0.1081
  771MOL0     N 1657   3.106   7.033   2.963 -0.1620 -0.2339 -1.1408
  771MOL0     C 1658   3.053   7.152   3.004 -0.1971 -0.2679 -0.2136
  771MOL0     C 1659   2.944   7.122   3.078 -0.1083 -0.2620 -0.5563
  771MOL0     C 1660   2.841   7.218   3.145  0.1069  0.1985  0.2165
  771MOL0     C 1661   2.867   7.248   3.294  0.2702 -0.0478 -0.0159
  771MOL0     C 1662   2.878   7.123   3.378  0.2800  0.2958  0.0013
  771MOL0     C 1663   2.767   7.021   3.360 -0.0671  0.3463  0.1802
  771MOL0     O 1664   2.635   7.084   3.371 -0.0829 -0.4590 -0.5202
  771MOL0     C 1665   2.531   6.994   3.347 -0.8207  0.5294 -0.4763
  771MOL0     C 1666   2.404   7.034   3.370 -0.3923 -0.6933  0.3096
  771MOL0     C 1667   2.293   6.964   3.360 -0.0910 -0.1883 -0.6540
  771MOL0     C 1668   2.293   6.842   3.302 -0.2253 -0.2725 -0.6424
  771MOL0     C 1669   2.163   6.770   3.278 -0.2929 -0.1632  0.4377
  771MOL0     O 1670   2.047   6.823   3.342 -0.8204 -0.2349 -0.2728
  771MOL0     C 1671   1.924   6.768   3.329 -0.0689 -0.4304 -0.0310
  771MOL0     C 1672   1.903   6.631   3.353 -0.5451  0.2058  0.4390
  771MOL0     C 1673   1.778   6.566   3.352  0.1904 -0.0870  0.4328
  771MOL0     C 1674   1.666   6.641   3.312  0.0722 -0.1711 -0.7144
  771MOL0     O 1675   1.551   6.572   3.293 -0.2836  0.2971  0.0093
  771MOL0     C 1676   1.435   6.637   3.347 -0.8486  0.5354 -0.0127
  771MOL0     C 1677   1.319   6.545   3.378 -0.6784 -0.5607  0.2932
  771MOL0     C 1678   1.221   6.547   3.262  0.3860 -0.5903 -0.4008
  771MOL0     C 1679   1.123   6.434   3.291  0.1899  0.5868  1.0740
  771MOL0     C 1680   0.989   6.456   3.218  0.1660 -0.6889  1.5025
  771MOL0     C 1681   0.889   6.334   3.233 -0.1238  0.0468  0.2010
  771MOL0     C 1682   0.744   6.372   3.218  0.1979 -0.6700 -0.1578
  771MOL0     C 1683   0.661   6.241   3.197  0.4166 -0.1409  0.5893
  771MOL0    Cl 1684   0.488   6.282   3.185  0.1590  0.1479  0.3198
  771MOL0     C 1685   1.682   6.780   3.290 -0.4231 -0.9036 -1.1910
  771MOL0     C 1686   1.810   6.842   3.304  0.1168 -0.3705 -0.0186
  771MOL0     O 1687   2.163   6.673   3.201  1.4462  0.1372  0.5539
  771MOL0     C 1688   2.422   6.780   3.278 -0.1399 -0.5532 -0.4815
  771MOL0     C 1689   2.541   6.855   3.306 -0.4214 -0.3396  0.0467
  771MOL0     N 1690   2.928   6.994   3.074  0.1209  0.0169  0.1260
  771MOL0     N 1691   3.029   6.933   3.022 -1.3189 -0.1344  0.2817
  771MOL0     C 1692   4.098   7.158   2.565  1.1714 -0.7690  0.6196
  771MOL0     C 1693   4.225   7.132   2.526  0.2654  0.0370  0.9895
  771MOL0     C 1694   4.563   6.992   2.276 -0.2214  0.3302 -0.6777
  771MOL0     C 1695   4.601   6.902   2.177 -0.5812  0.7142  0.1660
  771MOL0     C 1696   4.733   6.869   2.164 -0.7936  1.5116  0.3892
  771MOL0     C 1697   4.834   6.922   2.247  0.6990  0.2974  0.0554
  771MOL0     O 1698   4.969   6.894   2.240  0.1612  0.0338 -0.1462
  771MOL0     C 1699   5.013   6.811   2.132 -0.2425  0.9646 -0.7141
  771MOL0     C 1700   5.167   6.849   2.098  0.4873  0.4567 -0.6060
  771MOL0     C 1701   5.263   6.800   2.213 -0.7907 -0.7678  0.2048
  771MOL0     C 1702   5.401   6.873   2.200 -0.7210  0.2038  0.4323
  771MOL0     C 1703   5.485   6.846   2.076  0.3061 -0.0337 -0.3552
  771MOL0     C 1704   5.552   6.817   1.979 -0.0472 -0.8272  0.6650
  771MOL0     C 1705   4.797   7.017   2.338  0.7060 -0.4917 -0.5324
  771MOL0     C 1706   4.669   7.053   2.358  0.1689 -1.1739  0.1511
  771MOL0     H 1707   4.225   7.271   2.218 -0.2179  0.9874  0.2246
  771MOL0     H 1708   3.996   7.295   2.264 -0.9956 -1.6081  0.0526
  771MOL0     H 1709   3.881   7.251   2.694  1.1238  0.1596 -1.7339
  771MOL0     H 1710   3.832   7.082   2.644 -2.0806 -0.4243 -0.0816
  771MOL0     H 1711   3.628   7.178   2.544  1.8589 -0.0859 -1.7174
  771MOL0     H 1712   3.666   7.338   2.578  2.9007 -1.1257 -3.7162
  771MOL0     H 1713   3.674   7.298   2.836 -3.1333  1.8038  0.2369
  771MOL0     H 1714   3.649   7.131   2.805  2.9551  1.6786  2.2926
  771MOL0     H 1715   3.447   7.353   2.745 -0.9577  0.4341  2.0817
  771MOL0     H 1716   3.418   7.181   2.712  0.7062 -1.1763  1.0846
  771MOL0     H 1717   3.320   7.299   2.914  0.5872  0.2485  0.8721
  771MOL0     H 1718   3.486   7.307   2.988 -0.9479  0.0709  0.4097
  771MOL0     H 1719   3.322   7.134   3.067  0.6463  1.7016 -0.0478
  771MOL0     H 1720   3.488   7.083   3.030  0.9431  4.8110  1.4574
  771MOL0     H 1721   3.404   6.995   2.800  1.0087  0.4871 -0.8088
  771MOL0     H 1722   3.355   6.916   2.940 -3.0403 -0.0946  0.0386
  771MOL0     H 1723   3.168   6.919   2.797 -0.7758  0.7719 -1.7189
  771MOL0     H 1724   3.175   7.091   2.777  4.1886  2.9871  1.8582
  771MOL0     H 1725   3.094   7.251   2.989 -0.5091  0.0165  0.7090
  771MOL0     H 1726   2.738   7.181   3.139 -1.2667  3.6409  0.3255
  771MOL0     H 1727   2.857   7.315   3.098  0.5740  0.9882  1.9383
  771MOL0     H 1728   2.783   7.308   3.331  0.2865  0.0726 -0.1711
  771MOL0     H 1729   2.959   7.307   3.304 -0.5222  1.7172 -2.2566
  771MOL0     H 1730   2.976   7.077   3.359 -0.1579 -0.0852 -1.5187
  771MOL0     H 1731   2.872   7.151   3.483 -0.9407  1.0803 -0.2579
  771MOL0     H 1732   2.767   6.941   3.435  0.9272 -0.2639 -0.4566
  771MOL0     H 1733   2.764   6.971   3.263 -0.8230  0.8681 -0.0712
  771MOL0     H 1734   2.376   7.138   3.384 -3.3185 -1.4805  1.0761
  771MOL0     H 1735   2.196   7.008   3.378 -1.9406 -3.6467 -1.1693
  771MOL0     H 1736   1.998   6.578   3.359 -0.5015 -0.1575 -2.1896
  771MOL0     H 1737   1.779   6.458   3.358  1.3688 -0.0795  0.5343
  771MOL0     H 1738   1.403   6.728   3.295 -1.0706  0.0533 -0.7248
  771MOL0     H 1739   1.472   6.663   3.447  2.1859 -2.2509 -0.2336
  771MOL0     H 1740   1.270   6.581   3.468  1.0870 -1.4049  1.6538
  771MOL0     H 1741   1.344   6.440   3.397  1.6035  0.3735  2.9024
  771MOL0     H 1742   1.269   6.543   3.164 -0.2135  2.0491 -0.8643
  771MOL0     H 1743   1.161   6.638   3.265 -2.3454 -2.1933 -2.3906
  771MOL0     H 1744   1.175   6.347   3.250  0.2150  2.0157 -2.1599
  771MOL0     H 1745   1.097   6.413   3.395 -1.0461  1.4685  0.9597
  771MOL0     H 1746   1.009   6.479   3.113 -1.1862  2.3430  1.8213
  771MOL0     H 1747   0.937   6.539   3.267  2.0177  0.5924  1.3912
  771MOL0     H 1748   0.890   6.286   3.331 -2.9838  1.3113  0.9457
  771MOL0     H 1749   0.911   6.248   3.168 -1.7709 -2.3156  2.5580
  771MOL0     H 1750   0.705   6.424   3.307 -0.2530  0.1365 -0.8117
  771MOL0     H 1751   0.737   6.429   3.125  1.6420 -0.5387 -0.2053
  771MOL0     H 1752   0.668   6.177   3.286  0.1702  1.6841  1.9748
  771MOL0     H 1753   0.709   6.195   3.110 -2.3536 -2.6762  0.2295
  771MOL0     H 1754   1.594   6.840   3.271  0.2812 -0.2132 -2.3646
  771MOL0     H 1755   1.804   6.948   3.281  1.0351 -0.1970  0.5096
  771MOL0     H 1756   2.423   6.682   3.232 -1.2515 -2.4260  3.1167
  771MOL0     H 1757   2.630   6.796   3.290 -0.9408 -0.7064 -1.8321
  771MOL0     H 1758   4.064   7.140   2.666 -0.6663  0.5795  0.2941
  771MOL0     H 1759   4.293   7.069   2.584 -1.5852 -1.6816  1.4097
  771MOL0     H 1760   4.535   6.851   2.107  0.3042 -0.1121 -0.0836
  771MOL0     H 1761   4.755   6.799   2.084  2.7373  0.4033  2.1370
  771MOL0     H 1762   4.959   6.839   2.041 -1.7364  1.8228  0.3938
  771MOL0     H 1763   4.997   6.704   2.144  0.3547  0.5884 -2.8312
  771MOL0     H 1764   5.191   6.806   2.001 -0.9135  1.3918 -1.3996
  771MOL0     H 1765   5.168   6.958   2.084  1.2656  0.3351 -1.5930
  771MOL0     H 1766   5.281   6.692   2.203  1.5596 -0.2198 -2.6060
  771MOL0     H 1767   5.218   6.817   2.311 -0.1203 -0.3412  0.4446
  771MOL0     H 1768   5.384   6.981   2.203  1.4128  0.6412 -1.2481
  771MOL0     H 1769   5.462   6.848   2.287 -1.5886 -0.0693  0.9794
  771MOL0     H 1770   5.611   6.793   1.892  0.1339  1.4179  0.1083
  771MOL0     H 1771   4.869   7.067   2.401  1.4597 -0.7435 -1.1837
  771MOL0     H 1772   4.652   7.127   2.435 -0.3363 -0.8611 -0.2558
  772MOL0     O 1773   6.308   9.169   2.735 -0.6997  0.4515 -0.3129
  772MOL0     C 1774   6.405   9.106   2.768 -0.4160  0.1518  0.0884
  772MOL0     O 1775   6.422   9.060   2.895  0.0868 -0.3104  0.2324
  772MOL0     C 1776   6.333   9.104   2.990  0.0185  0.1894  0.4513
  772MOL0     C 1777   6.236   9.010   3.047  0.2569 -0.7243 -0.1753
  772MOL0     C 1778   6.135   9.057   3.139 -0.4972  0.0605  0.4584
  772MOL0     C 1779   6.125   9.193   3.166 -0.1200  0.7293  0.0678
  772MOL0     O 1780   6.041   9.242   3.266 -0.7893 -0.5797 -0.3969
  772MOL0     C 1781   6.110   9.290   3.387  0.9402  0.8581 -1.1835
  772MOL0     C 1782   6.035   9.404   3.468  0.1273 -0.2572  0.4216
  772MOL0     C 1783   6.010   9.529   3.381 -0.0173  0.3097 -0.2962
  772MOL0     C 1784   5.950   9.648   3.456  0.4627 -0.1446  0.7086
  772MOL0     C 1785   6.059   9.744   3.509 -1.0244 -0.6923 -0.9738
  772MOL0     C 1786   6.133   9.678   3.622  0.6364  0.4227 -0.2007
  772MOL0     C 1787   6.227   9.781   3.686 -0.0084 -0.7224  0.6996
  772MOL0     C 1788   6.158   9.861   3.792  0.6017  0.2493 -0.7570
  772MOL0     N 1789   6.244   9.968   3.843 -0.5237 -0.2495 -0.0949
  772MOL0     C 1790   6.312  10.056   3.758  0.9374 -0.5104  0.1402
  772MOL0     C 1791   6.409  10.116   3.828 -0.0307 -0.8561  0.1221
  772MOL0     C 1792   6.494  10.233   3.784  0.1578  0.7792 -0.4719
  772MOL0     C 1793   6.464  10.362   3.863  0.6197 -0.1389 -0.0506
  772MOL0     C 1794   6.397  10.472   3.785 -0.1351  0.3406  0.1829
  772MOL0     C 1795   6.246  10.433   3.775  0.5018 -0.8921 -0.2820
  772MOL0     O 1796   6.179  10.528   3.690  0.1096 -0.3705 -0.4372
  772MOL0     C 1797   6.047  10.534   3.684  0.6503  0.4332 -0.4349
  772MOL0     C 1798   5.959  10.447   3.743  0.0250 -0.6788  0.4889
  772MOL0     C 1799   5.818  10.461   3.724 -0.1649  0.6660  0.2832
  772MOL0     C 1800   5.761  10.563   3.640  0.6424  0.2240 -0.3914
  772MOL0     C 1801   5.621  10.564   3.614 -0.4174  0.3549 -0.6093
  772MOL0     O 1802   5.577  10.681   3.545 -0.2325 -0.2091 -0.3712
  772MOL0     C 1803   5.444  10.696   3.524 -0.1510  0.4659 -0.9931
  772MOL0     C 1804   5.344  10.669   3.616  0.4122 -0.2895  0.8028
  772MOL0     C 1805   5.206  10.685   3.587  0.3915  0.0079  0.2403
  772MOL0     C 1806   5.164  10.729   3.465  0.2680 -0.0999 -0.1423
  772MOL0     O 1807   5.029  10.759   3.439 -0.2117 -0.5125  0.0945
  772MOL0     C 1808   4.936  10.776   3.547 -0.7105  0.2591 -0.3158
  772MOL0     C 1809   4.818  10.852   3.477  0.1037  0.3831 -0.3789
  772MOL0     C 1810   4.700  10.833   3.577 -0.1399 -0.0448  0.8715
  772MOL0     C 1811   4.586  10.923   3.535  0.1109  0.1096  0.2639
  772MOL0     C 1812   4.455  10.919   3.614 -0.4575 -0.8188  0.2178
  772MOL0     C 1813   4.365  11.030   3.569  0.2179  0.1397  0.5093
  772MOL0     C 1814   4.248  11.044   3.660 -0.2190 -0.0076 -0.6982
  772MOL0     C 1815   4.235  11.186   3.710  0.0098 -0.7238 -0.2572
  772MOL0    Cl 1816   4.087  11.191   3.810  0.4568  0.1033 -0.4104
  772MOL0     C 1817   5.264  10.766   3.376  0.3788 -0.9576 -0.2523
  772MOL0     C 1818   5.399  10.748   3.404 -0.9560  1.1942 -0.2270
  772MOL0     O 1819   5.546  10.476   3.652  0.7071  0.0865 -0.3333
  772MOL0     C 1820   5.850  10.654   3.588  0.3253 -0.2109 -0.1731
  772MOL0     C 1821   5.986  10.639   3.609  0.8707 -0.2980  0.0954
  772MOL0     N 1822   6.401  10.063   3.954  0.0389 -0.2569 -0.4078
  772MOL0     N 1823   6.305   9.979   3.959  0.5574 -0.6153 -0.2149
  772MOL0     C 1824   6.217   9.291   3.109 -0.1067 -0.0199 -0.5441
  772MOL0     C 1825   6.315   9.241   3.019  0.0798 -0.4680  0.0330
  772MOL0     C 1826   6.505   9.073   2.670 -0.3058  1.0340 -0.1629
  772MOL0     C 1827   6.632   9.040   2.714  0.5139 -0.8215 -0.3605
  772MOL0     C 1828   6.737   9.026   2.616 -0.3423  0.3346 -0.4588
  772MOL0     C 1829   6.709   9.032   2.475  0.1332  0.4580 -0.5599
  772MOL0     O 1830   6.790   9.002   2.371  0.2555  0.5507  0.0893
  772MOL0     C 1831   6.900   8.916   2.407  0.3046  0.5555 -0.3072
  772MOL0     C 1832   7.010   8.918   2.301 -0.2890  0.0036 -0.4066
  772MOL0     C 1833   7.072   9.051   2.269  0.7065 -0.1816 -0.5030
  772MOL0     C 1834   7.211   9.030   2.185  0.3790 -0.6083  0.1974
  772MOL0     C 1835   7.198   8.988   2.046  0.6007 -0.4648 -0.8453
  772MOL0     C 1836   7.199   8.957   1.928 -0.8753 -0.2284 -0.2721
  772MOL0     C 1837   6.578   9.067   2.440  0.0031 -1.0568 -0.9921
  772MOL0     C 1838   6.478   9.088   2.532  0.4129  0.3597  0.9129
  772MOL0     H 1839   6.245   8.903   3.032  0.3242 -0.4182 -2.6118
  772MOL0     H 1840   6.071   8.989   3.194  0.3546 -2.3681 -1.3806
  772MOL0     H 1841   6.206   9.341   3.371  2.1893 -0.8187  0.5576
  772MOL0     H 1842   6.130   9.200   3.446  0.5205  0.2456 -1.9570
  772MOL0     H 1843   6.102   9.429   3.551  2.4817  0.5067 -1.5718
  772MOL0     H 1844   5.937   9.363   3.495  0.1283  1.9053  4.4519
  772MOL0     H 1845   5.935   9.493   3.309 -0.7559 -2.6157  1.7469
  772MOL0     H 1846   6.099   9.562   3.327 -0.6374  1.8597 -0.4226
  772MOL0     H 1847   5.878   9.705   3.396  1.5765 -1.1867 -1.7295
  772MOL0     H 1848   5.890   9.604   3.536 -1.4224  1.2729  0.1525
  772MOL0     H 1849   6.019   9.842   3.539 -2.4220 -1.9498  1.6193
  772MOL0     H 1850   6.134   9.750   3.430  0.2320 -2.2809  0.0491
  772MOL0     H 1851   6.184   9.597   3.569 -1.7435 -1.2415 -0.1040
  772MOL0     H 1852   6.069   9.631   3.698 -0.0199  0.0130 -1.0001
  772MOL0     H 1853   6.314   9.740   3.738  1.3462  2.0575  0.8031
  772MOL0     H 1854   6.259   9.841   3.600  0.5731 -0.7213  0.9157
  772MOL0     H 1855   6.126   9.795   3.873  4.1443 -0.4628  0.2662
  772MOL0     H 1856   6.069   9.910   3.753  1.5460  2.1447 -0.6536
  772MOL0     H 1857   6.285  10.075   3.655  1.0956 -1.7505 -0.1450
  772MOL0     H 1858   6.492  10.257   3.677  1.9502 -1.8705 -1.1973
  772MOL0     H 1859   6.593  10.189   3.795 -1.3876 -2.6412  1.3204
  772MOL0     H 1860   6.558  10.408   3.895  0.7798  1.5701 -2.6821
  772MOL0     H 1861   6.404  10.338   3.952  1.2498  0.3363  0.5105
  772MOL0     H 1862   6.409  10.568   3.837 -0.8698  0.1458  0.7351
  772MOL0     H 1863   6.444  10.479   3.687 -1.3977 -1.1985 -0.5778
  772MOL0     H 1864   6.196  10.432   3.872  0.2766 -2.4291 -0.3888
  772MOL0     H 1865   6.226  10.332   3.736 -2.3560 -0.6229  0.2871
  772MOL0     H 1866   6.001  10.371   3.808  1.6550  0.5570  0.9702
  772MOL0     H 1867   5.745  10.402   3.779  0.2755 -0.5949 -0.4460
  772MOL0     H 1868   5.381  10.644   3.715 -1.6290  1.9965  2.2652
  772MOL0     H 1869   5.133  10.668   3.666  0.6505 -1.6329  0.1761
  772MOL0     H 1870   4.992  10.827   3.625  2.7125 -0.0865 -2.2885
  772MOL0     H 1871   4.905  10.676   3.581  0.8232 -0.2155 -0.2139
  772MOL0     H 1872   4.780  10.806   3.386 -0.5379  0.8715 -0.3667
  772MOL0     H 1873   4.853  10.955   3.470  0.3277  0.6524  3.0573
  772MOL0     H 1874   4.733  10.868   3.675 -0.2567  1.1219  0.5045
  772MOL0     H 1875   4.673  10.728   3.594  1.0544 -0.4227  0.5019
  772MOL0     H 1876   4.629  11.024   3.534  0.2697  0.0374 -0.8096
  772MOL0     H 1877   4.549  10.899   3.435  1.0820 -0.4556  0.0292
  772MOL0     H 1878   4.480  10.942   3.717  0.6606 -1.3722  0.0819
  772MOL0     H 1879   4.405  10.822   3.604 -0.5800 -0.9724  2.0988
  772MOL0     H 1880   4.323  11.005   3.471 -0.9225  0.7366  0.8307
  772MOL0     H 1881   4.420  11.122   3.550  1.3447 -1.2276 -4.3104
  772MOL0     H 1882   4.167  10.997   3.605  0.3472 -0.4971 -1.1297
  772MOL0     H 1883   4.258  10.982   3.750 -1.1580  0.6842 -0.1071
  772MOL0     H 1884   4.221  11.262   3.633  1.2545  0.1667  0.3644
  772MOL0     H 1885   4.324  11.211   3.769 -0.3752  2.4018 -0.8509
  772MOL0     H 1886   5.233  10.810   3.282 -0.8905  3.2872  1.8949
  772MOL0     H 1887   5.468  10.766   3.323  0.0474 -1.3955 -0.0533
  772MOL0     H 1888   5.815  10.739   3.531  2.4976  0.5194 -0.5455
  772MOL0     H 1889   6.064  10.706   3.574 -0.5907  2.6591  2.0428
  772MOL0     H 1890   6.199   9.395   3.131 -1.3761 -0.4814  0.7095
  772MOL0     H 1891   6.377   9.309   2.961  0.4828  0.8884  1.9490
  772MOL0     H 1892   6.647   9.024   2.820 -2.3863  1.0778  0.4646
  772MOL0     H 1893   6.838   9.012   2.655  0.0054  0.2204 -1.3803
  772MOL0     H 1894   6.866   8.812   2.405  1.4376  0.1466 -2.7444
  772MOL0     H 1895   6.943   8.943   2.504  1.8635 -1.4110 -0.3843
  772MOL0     H 1896   7.089   8.849   2.332  0.8493  1.8363  1.0188
  772MOL0     H 1897   6.978   8.876   2.205  1.3230 -0.0514 -0.9462
  772MOL0     H 1898   7.099   9.096   2.365  1.0101 -0.6316 -0.3719
  772MOL0     H 1899   7.002   9.112   2.211 -0.8299 -0.6822  0.7227
  772MOL0     H 1900   7.253   9.130   2.182 -2.4142  0.6547 -2.3375
  772MOL0     H 1901   7.282   8.958   2.226  3.4369  1.9076 -0.3568
  772MOL0     H 1902   7.204   8.949   1.822 -2.4223  0.5128 -0.4297
  772MOL0     H 1903   6.555   9.072   2.334 -1.5772  1.1433 -0.6144
  772MOL0     H 1904   6.378   9.123   2.509 -0.2899 -1.0542  1.6661
  773MOL0     O 1905   1.996   6.536   0.350 -0.4662  0.3845  0.0001
  773MOL0     C 1906   2.069   6.638   0.346 -0.2061  0.2353  0.3849
  773MOL0     O 1907   2.023   6.757   0.298 -0.5816 -0.4037 -0.4518
  773MOL0     C 1908   1.891   6.766   0.260  1.0227  0.0255  0.1757
  773MOL0     C 1909   1.803   6.842   0.336  0.5276 -0.3686  0.0065
  773MOL0     C 1910   1.670   6.868   0.296 -0.2582 -0.7418  0.6646
  773MOL0     C 1911   1.624   6.818   0.175  0.2297  0.1513  0.6127
  773MOL0     O 1912   1.499   6.815   0.117  0.7602  0.5622 -1.2845
  773MOL0     C 1913   1.389   6.851   0.205  0.1519 -0.0792 -0.2603
  773MOL0     C 1914   1.256   6.787   0.143 -0.7843 -0.7964 -0.2245
  773MOL0     C 1915   1.135   6.800   0.237 -0.0246 -0.8173 -0.0760
  773MOL0     C 1916   1.131   6.948   0.288  0.4435  0.5651  0.0539
  773MOL0     C 1917   1.007   6.976   0.371 -0.1039  0.1017 -1.0472
  773MOL0     C 1918   0.982   7.121   0.416  0.2137  0.6649 -0.3518
  773MOL0     C 1919   0.861   7.129   0.507 -0.4046 -0.3861 -0.3422
  773MOL0     C 1920   0.804   7.274   0.532  0.7965  0.1112  0.0183
  773MOL0     N 1921   0.683   7.255   0.627 -0.0226  0.2857 -0.2935
  773MOL0     C 1922   0.703   7.237   0.770  0.2585  0.2873  0.0284
  773MOL0     C 1923   0.572   7.214   0.815 -1.0627 -0.8486  0.4943
  773MOL0     C 1924   0.536   7.185   0.962 -0.4451  0.1425 -0.6246
  773MOL0     C 1925   0.481   7.043   0.980  0.0580 -0.2444 -0.5965
  773MOL0     C 1926   0.393   7.041   1.100  0.6623 -0.3904 -0.5448
  773MOL0     C 1927   0.245   7.060   1.069  0.0799  0.2675 -0.0385
  773MOL0     O 1928   0.162   7.057   1.185 -0.1674  0.2451 -0.0312
  773MOL0     C 1929   0.026   7.062   1.165  0.5212 -0.1841 -0.2480
  773MOL0     C 1930  -0.053   7.063   1.280 -0.0961  0.6609 -0.3950
  773MOL0     C 1931  -0.192   7.073   1.268  0.6810 -1.1071 -0.4910
  773MOL0     C 1932  -0.255   7.081   1.139 -0.2104 -0.2953  0.0020
  773MOL0     C 1933  -0.399   7.088   1.143 -0.1841  0.6402 -0.1782
  773MOL0     O 1934  -0.467   7.105   1.259 -0.7398 -0.1735  0.2230
  773MOL0     C 1935  -0.604   7.096   1.255 -0.4052 -0.2887  0.1361
  773MOL0     C 1936  -0.694   7.181   1.181  0.3937 -0.1725 -0.4895
  773MOL0     C 1937  -0.831   7.174   1.201 -0.4712 -0.2364 -0.5662
  773MOL0     C 1938  -0.888   7.078   1.292 -0.1730 -0.0236 -0.4387
  773MOL0     O 1939  -1.023   7.059   1.323 -0.5854  0.5872  0.6621
  773MOL0     C 1940  -1.109   7.055   1.208  0.1631  0.1003 -0.3332
  773MOL0     C 1941  -1.250   7.049   1.264  0.2499 -0.2502  0.8524
  773MOL0     C 1942  -1.351   7.018   1.143 -1.0130  0.5461  0.0051
  773MOL0     C 1943  -1.325   6.870   1.107 -0.1903  0.2883  0.0528
  773MOL0     C 1944  -1.457   6.798   1.074 -0.0589  0.5750  0.2238
  773MOL0     C 1945  -1.536   6.767   1.207 -0.4479 -0.5339 -0.4037
  773MOL0     C 1946  -1.660   6.697   1.177 -0.0674  0.1419  0.6087
  773MOL0     C 1947  -1.719   6.636   1.305  0.4503  0.8342  0.1048
  773MOL0    Cl 1948  -1.870   6.541   1.287 -0.3590 -0.2318 -0.4840
  773MOL0     C 1949  -0.793   7.009   1.367  0.0719 -0.0718 -0.3849
  773MOL0     C 1950  -0.656   7.013   1.352  0.5784 -0.7740  0.0872
  773MOL0     O 1951  -0.461   7.077   1.036 -0.8292  0.6034 -0.2961
  773MOL0     C 1952  -0.178   7.073   1.027  0.5253 -0.1195  0.1825
  773MOL0     C 1953  -0.038   7.065   1.037 -0.9218  0.1763  0.0147
  773MOL0     N 1954   0.484   7.203   0.706 -0.2077 -0.3158 -0.2865
  773MOL0     N 1955   0.548   7.218   0.596  0.2329 -0.0137 -0.6077
  773MOL0     C 1956   1.713   6.741   0.102 -0.2431  0.1943 -0.0084
  773MOL0     C 1957   1.844   6.713   0.142  0.6319  1.6363 -0.7582
  773MOL0     C 1958   2.203   6.638   0.394 -0.2803  0.6626  0.9005
  773MOL0     C 1959   2.263   6.755   0.443  0.5209  0.1192  0.1626
  773MOL0     C 1960   2.388   6.740   0.504  0.1855 -0.2198 -0.1728
  773MOL0     C 1961   2.452   6.617   0.517  0.1945  0.2144 -0.7046
  773MOL0     O 1962   2.565   6.618   0.592 -0.3605  0.1589  0.0599
  773MOL0     C 1963   2.682   6.548   0.547  1.5054  0.2790  0.3077
  773MOL0     C 1964   2.745   6.619   0.420 -0.1962  0.2563  0.4300
  773MOL0     C 1965   2.750   6.769   0.413  0.1529  0.6534 -0.1435
  773MOL0     C 1966   2.886   6.817   0.351 -0.6456  0.0800 -0.1665
  773MOL0     C 1967   2.913   6.962   0.375  0.6493 -0.2375  0.1053
  773MOL0     C 1968   2.923   7.082   0.392 -0.2664 -0.1233 -0.6338
  773MOL0     C 1969   2.399   6.506   0.458 -0.2140  0.4259 -0.5069
  773MOL0     C 1970   2.276   6.517   0.393  1.2372  0.4099  0.6807
  773MOL0     H 1971   1.832   6.856   0.439 -2.7673 -2.3860  1.3832
  773MOL0     H 1972   1.598   6.911   0.366 -0.4998 -2.2270  1.3664
  773MOL0     H 1973   1.373   6.959   0.205  0.7577  0.0196 -0.9192
  773MOL0     H 1974   1.405   6.819   0.308 -1.6700 -1.5086 -0.3699
  773MOL0     H 1975   1.273   6.680   0.124  0.3249 -0.7418  0.3690
  773MOL0     H 1976   1.234   6.830   0.045  1.0615 -3.9887 -2.2193
  773MOL0     H 1977   1.156   6.729   0.317  2.8031 -1.4713 -1.2469
  773MOL0     H 1978   1.051   6.767   0.175  0.4831 -2.0604 -0.1387
  773MOL0     H 1979   1.220   6.963   0.351  0.1313 -0.0008  0.6405
  773MOL0     H 1980   1.130   7.023   0.208  1.4800  1.5913  0.9673
  773MOL0     H 1981   1.014   6.911   0.459  1.2390  3.4932  1.6120
  773MOL0     H 1982   0.923   6.942   0.310 -0.7137 -0.2289 -0.0537
  773MOL0     H 1983   0.961   7.185   0.330 -3.7358  0.9307  0.6304
  773MOL0     H 1984   1.073   7.156   0.466  0.0588  0.2115  0.2644
  773MOL0     H 1985   0.776   7.080   0.459 -0.3240 -1.8760  0.9568
  773MOL0     H 1986   0.890   7.079   0.600  2.1426  2.5693  0.6234
  773MOL0     H 1987   0.763   7.324   0.444  1.0763  1.9978  0.8970
  773MOL0     H 1988   0.878   7.346   0.569 -1.6652  3.2144 -0.6406
  773MOL0     H 1989   0.796   7.233   0.826  0.2695  0.8111  0.0548
  773MOL0     H 1990   0.461   7.260   0.989 -0.1394  0.7691 -1.4727
  773MOL0     H 1991   0.624   7.194   1.026 -1.9239  1.0615  1.4031
  773MOL0     H 1992   0.560   6.974   1.009 -0.2099  0.5319  2.2986
  773MOL0     H 1993   0.438   7.005   0.887  1.7359 -0.7488 -1.1840
  773MOL0     H 1994   0.410   6.946   1.150  2.4546  1.5115  2.8673
  773MOL0     H 1995   0.433   7.110   1.175 -1.9532  1.6998 -0.9030
  773MOL0     H 1996   0.213   6.983   0.998 -0.7751  3.7214 -3.7264
  773MOL0     H 1997   0.221   7.154   1.019 -2.6374  0.7804  2.0010
  773MOL0     H 1998  -0.017   7.057   1.382 -1.1677 -0.9285 -0.0628
  773MOL0     H 1999  -0.249   7.076   1.360  0.6454  0.8317 -0.5455
  773MOL0     H 2000  -0.657   7.251   1.107 -1.1764 -1.8671 -3.0380
  773MOL0     H 2001  -0.904   7.240   1.155 -1.1996 -0.0320  0.8182
  773MOL0     H 2002  -1.088   6.965   1.150 -2.0458 -0.4651 -0.3375
  773MOL0     H 2003  -1.098   7.144   1.146 -2.5424 -0.2518 -1.4537
  773MOL0     H 2004  -1.276   7.150   1.299  1.6230  0.5934 -0.4067
  773MOL0     H 2005  -1.263   6.976   1.345  2.5460 -2.1564 -0.3809
  773MOL0     H 2006  -1.335   7.075   1.051 -1.2770 -1.4853 -1.3538
  773MOL0     H 2007  -1.454   7.033   1.179 -0.6636  1.1337  0.8020
  773MOL0     H 2008  -1.258   6.881   1.021  2.0832  2.8683  1.9703
  773MOL0     H 2009  -1.273   6.827   1.192 -0.8822  1.4578  1.1026
  773MOL0     H 2010  -1.435   6.708   1.015 -2.5503 -1.0682  1.6486
  773MOL0     H 2011  -1.522   6.857   1.009 -0.1865 -0.1623 -0.3269
  773MOL0     H 2012  -1.559   6.864   1.252  0.6666  0.8632 -2.7204
  773MOL0     H 2013  -1.484   6.696   1.272  0.2605 -1.5818 -2.0521
  773MOL0     H 2014  -1.730   6.768   1.132 -1.1038  0.5498  2.7299
  773MOL0     H 2015  -1.640   6.617   1.105 -0.5563  0.3478  0.2408
  773MOL0     H 2016  -1.730   6.702   1.391 -3.2439 -1.3291  1.5042
  773MOL0     H 2017  -1.654   6.552   1.332 -0.1131 -0.2461 -1.7220
  773MOL0     H 2018  -0.827   6.945   1.448  0.3576 -3.2001 -2.5798
  773MOL0     H 2019  -0.592   6.953   1.416  0.3608 -0.3038  0.7612
  773MOL0     H 2020  -0.223   7.067   0.928  0.4026 -1.1419  0.2876
  773MOL0     H 2021   0.009   7.045   0.942 -2.2389  0.9420 -0.8269
  773MOL0     H 2022   1.686   6.694   0.008  0.5943 -0.3070 -0.0041
  773MOL0     H 2023   1.907   6.660   0.071  1.7398  0.6955  0.8664
  773MOL0     H 2024   2.206   6.847   0.433  0.0447 -0.3727 -2.0709
  773MOL0     H 2025   2.435   6.831   0.540  0.6231 -0.1927 -0.8038
  773MOL0     H 2026   2.670   6.443   0.520  0.2426  0.4546  0.1186
  773MOL0     H 2027   2.753   6.551   0.630  0.8353 -0.9751  0.9586
  773MOL0     H 2028   2.845   6.576   0.405 -1.3537 -2.5501  0.1310
  773MOL0     H 2029   2.691   6.585   0.331  1.4099  1.1190 -0.9544
  773MOL0     H 2030   2.715   6.809   0.508  1.5953  0.9824  0.2839
  773MOL0     H 2031   2.660   6.800   0.360 -0.2786  0.5089  0.4959
  773MOL0     H 2032   2.968   6.765   0.401 -1.3200  0.0552  0.9488
  773MOL0     H 2033   2.898   6.787   0.246  1.1522 -0.4638  0.1478
  773MOL0     H 2034   2.931   7.188   0.403  0.6275 -0.2807  0.4350
  773MOL0     H 2035   2.446   6.409   0.473 -1.4779 -0.1357 -0.0324
  773MOL0     H 2036   2.229   6.426   0.357 -0.0307  1.8040 -1.4254
  774MOL0     O 2037   3.357   8.942   7.196 -0.3301  0.6331 -0.5668
  774MOL0     C 2038   3.404   9.032   7.123 -0.5845  0.6158 -0.2428
  774MOL0     O 2039   3.329   9.120   7.056 -0.2205 -0.9493 -0.1474
  774MOL0     C 2040   3.194   9.085   7.032  0.0344 -0.4249 -0.4012
  774MOL0     C 2041   3.162   8.976   6.944  0.2605 -0.0411  0.2956
  774MOL0     C 2042   3.024   8.943   6.928 -0.4316 -0.1350  0.6282
  774MOL0     C 2043   2.920   9.009   6.993 -0.4263 -0.2883  0.3714
  774MOL0     O 2044   2.793   8.968   6.975  0.0891  0.0115 -0.0905
  774MOL0     C 2045   2.680   9.027   7.038 -0.3404  0.0503 -0.3331
  774MOL0     C 2046   2.547   8.993   6.959 -0.7201  0.2503 -0.2371
  774MOL0     C 2047   2.439   9.093   7.018  0.1190 -0.0856 -1.0464
  774MOL0     C 2048   2.309   9.075   6.954  0.4516  1.0758  0.7001
  774MOL0     C 2049   2.192   9.171   6.989 -0.1453 -0.8115  0.5782
  774MOL0     C 2050   2.104   9.134   7.115  0.5554 -0.5658  0.1991
  774MOL0     C 2051   1.988   9.229   7.137  0.5889  0.3024  0.0455
  774MOL0     C 2052   1.905   9.196   7.263  0.5090 -0.4381  0.0417
  774MOL0     N 2053   1.789   9.292   7.275  0.4035 -0.2576 -0.7033
  774MOL0     C 2054   1.767   9.395   7.189 -0.2011 -0.8762 -0.6712
  774MOL0     C 2055   1.643   9.444   7.229 -0.6055  0.3875  0.0889
  774MOL0     C 2056   1.573   9.550   7.161 -0.0007 -1.0022  0.8715
  774MOL0     C 2057   1.494   9.487   7.052  0.6778 -0.1311  0.0893
  774MOL0     C 2058   1.410   9.598   6.975 -0.4307  0.4089  0.1535
  774MOL0     C 2059   1.487   9.648   6.851 -0.2235 -0.1065  0.2313
  774MOL0     O 2060   1.517   9.551   6.754 -0.8832  0.1244  0.3778
  774MOL0     C 2061   1.590   9.585   6.650 -0.5082  0.0280  0.7768
  774MOL0     C 2062   1.630   9.716   6.615 -0.1402  0.3600 -0.3287
  774MOL0     C 2063   1.708   9.741   6.503 -0.3592  1.1583 -0.0285
  774MOL0     C 2064   1.739   9.631   6.415 -0.0427 -0.4723  0.1492
  774MOL0     C 2065   1.805   9.649   6.288 -0.0719 -0.5432 -0.4921
  774MOL0     O 2066   1.801   9.775   6.233 -0.2374  0.1086 -0.0348
  774MOL0     C 2067   1.855   9.795   6.112 -0.4536 -0.1292  1.0233
  774MOL0     C 2068   1.832   9.713   5.991 -0.3537  0.3479  0.1430
  774MOL0     C 2069   1.905   9.747   5.872  0.4088 -0.2820 -0.3317
  774MOL0     C 2070   2.000   9.852   5.863 -0.4875 -0.6052 -0.0816
  774MOL0     O 2071   2.058   9.872   5.739  0.3195 -0.1987  0.3423
  774MOL0     C 2072   2.161   9.974   5.725  0.6363  0.7297 -0.1043
  774MOL0     C 2073   2.202   9.985   5.582 -0.1701  0.2720 -1.2777
  774MOL0     C 2074   2.296  10.102   5.554  0.0524 -0.0086 -0.2054
  774MOL0     C 2075   2.309  10.128   5.402 -0.1420  0.8317 -0.0045
  774MOL0     C 2076   2.419  10.225   5.362  0.4406  0.0987 -0.0543
  774MOL0     C 2077   2.374  10.366   5.402  0.4934  0.6895  0.6966
  774MOL0     C 2078   2.472  10.471   5.357 -0.7387  0.3588  0.6773
  774MOL0     C 2079   2.487  10.587   5.441  0.0534 -0.3056 -0.2538
  774MOL0    Cl 2080   2.335  10.673   5.424 -0.0421  0.1091  0.0231
  774MOL0     C 2081   2.016   9.928   5.982 -0.0243 -0.2410 -0.2562
  774MOL0     C 2082   1.948   9.901   6.101 -1.2049  0.0241 -0.2466
  774MOL0     O 2083   1.848   9.543   6.236 -0.1563 -0.7237 -0.2019
  774MOL0     C 2084   1.696   9.500   6.452  0.6216  0.1506 -1.2167
  774MOL0     C 2085   1.628   9.481   6.569  0.3824 -0.4231  0.1998
  774MOL0     N 2086   1.591   9.346   7.321 -0.0586  0.5282 -0.3024
  774MOL0     N 2087   1.689   9.269   7.359  0.0017 -0.9082 -0.1792
  774MOL0     C 2088   2.956   9.127   7.064 -0.0330 -0.5670 -0.2689
  774MOL0     C 2089   3.090   9.166   7.083  0.3638  0.0507 -0.1541
  774MOL0     C 2090   3.547   9.044   7.106 -0.2903  0.1060 -0.5441
  774MOL0     C 2091   3.630   8.988   7.200  0.2239  0.3852 -0.2003
  774MOL0     C 2092   3.768   8.998   7.183 -0.4243 -0.8979  0.5264
  774MOL0     C 2093   3.831   9.058   7.069  0.6476  0.0695  0.4359
  774MOL0     O 2094   3.969   9.075   7.053 -0.0057  0.5155  0.0991
  774MOL0     C 2095   4.049   9.022   7.163  0.4632 -0.8203 -0.1423
  774MOL0     C 2096   4.193   9.004   7.126  0.6235  0.2115 -0.4519
  774MOL0     C 2097   4.286   8.978   7.247 -0.1432 -0.0322 -0.6574
  774MOL0     C 2098   4.290   8.837   7.314 -0.2020 -0.6669 -0.0870
  774MOL0     C 2099   4.302   8.742   7.213  0.0278  0.6058  0.9987
  774MOL0     C 2100   4.317   8.652   7.131 -0.2685  0.1828 -0.0774
  774MOL0     C 2101   3.736   9.109   6.972 -0.2722  0.1994  0.1179
  774MOL0     C 2102   3.593   9.101   6.990  0.1438  0.0658  0.1755
  774MOL0     H 2103   3.245   8.924   6.896  2.1907  3.1578 -0.1710
  774MOL0     H 2104   2.988   8.868   6.858  2.6179 -0.6352 -0.5971
  774MOL0     H 2105   2.680   9.136   7.048 -1.0300 -0.0998  1.9359
  774MOL0     H 2106   2.679   8.989   7.141 -0.3640 -0.8159 -0.6422
  774MOL0     H 2107   2.534   8.885   6.972 -0.1824  0.3268  1.0769
  774MOL0     H 2108   2.569   9.016   6.854 -0.2392 -0.7852 -0.3731
  774MOL0     H 2109   2.487   9.189   6.999  1.2948 -0.0341  1.7309
  774MOL0     H 2110   2.434   9.088   7.127 -2.6540  1.9709 -0.9693
  774MOL0     H 2111   2.318   9.072   6.845 -1.6094  2.6271  0.4333
  774MOL0     H 2112   2.272   8.974   6.974  1.6394  0.2060 -1.1295
  774MOL0     H 2113   2.126   9.176   6.902 -1.9869 -0.1234  1.9439
  774MOL0     H 2114   2.231   9.272   7.004 -0.2936 -0.9376  1.9311
  774MOL0     H 2115   2.166   9.124   7.204 -1.8343  1.5070  2.2725
  774MOL0     H 2116   2.053   9.038   7.103 -0.0696  0.0231 -2.4331
  774MOL0     H 2117   2.030   9.328   7.157  0.5388  0.1631  0.8427
  774MOL0     H 2118   1.925   9.230   7.047  1.9663  0.7922 -0.9496
  774MOL0     H 2119   1.959   9.213   7.356 -1.5846 -0.8034  1.3995
  774MOL0     H 2120   1.871   9.094   7.283  0.6367 -0.3238  0.8582
  774MOL0     H 2121   1.834   9.435   7.113  1.1558 -0.0154  0.9138
  774MOL0     H 2122   1.641   9.626   7.122 -2.6232  1.8730  1.5059
  774MOL0     H 2123   1.499   9.598   7.227  0.9292  1.3935  0.2691
  774MOL0     H 2124   1.429   9.410   7.094  0.4209 -1.1700 -2.0721
  774MOL0     H 2125   1.552   9.427   6.980  0.1883 -1.7286  0.9953
  774MOL0     H 2126   1.311   9.558   6.951 -0.7967  1.4461 -0.1202
  774MOL0     H 2127   1.393   9.680   7.045 -0.4648 -1.2177  2.1616
  774MOL0     H 2128   1.585   9.689   6.877  0.9041 -1.7870 -1.1345
  774MOL0     H 2129   1.418   9.723   6.811 -2.3209 -1.5090  1.0586
  774MOL0     H 2130   1.603   9.800   6.678  1.7746  1.1248 -0.4781
  774MOL0     H 2131   1.755   9.838   6.490 -1.0481  1.7306  1.4829
  774MOL0     H 2132   1.770   9.624   5.992 -1.0220  0.8056 -0.1211
  774MOL0     H 2133   1.873   9.686   5.788 -0.7257  0.6736 -0.6149
  774MOL0     H 2134   2.248   9.955   5.788  0.6401 -0.5318 -0.4657
  774MOL0     H 2135   2.122  10.073   5.754 -2.1318  0.6977 -3.0981
  774MOL0     H 2136   2.116   9.988   5.515 -1.0661 -2.8649 -0.4523
  774MOL0     H 2137   2.260   9.893   5.563  0.8194  0.4270  0.6945
  774MOL0     H 2138   2.395  10.082   5.596 -0.9502 -0.2614  2.2031
  774MOL0     H 2139   2.265  10.194   5.605  0.6922  1.7325 -2.7558
  774MOL0     H 2140   2.335  10.029   5.364 -1.1455  1.5596 -2.7952
  774MOL0     H 2141   2.217  10.157   5.352 -0.9116 -1.2738  0.1055
  774MOL0     H 2142   2.435  10.222   5.254 -1.6892  3.7751 -0.6493
  774MOL0     H 2143   2.511  10.196   5.413  1.5138  0.4903 -1.7146
  774MOL0     H 2144   2.362  10.370   5.511  0.8096  0.9828  0.7233
  774MOL0     H 2145   2.278  10.387   5.355  1.2605  0.8197 -0.9033
  774MOL0     H 2146   2.570  10.423   5.351 -0.3915  1.0688  0.6812
  774MOL0     H 2147   2.445  10.492   5.254 -0.9777 -0.8379  0.4762
  774MOL0     H 2148   2.569  10.642   5.393 -0.1789  0.1978 -0.0818
  774MOL0     H 2149   2.518  10.547   5.538 -0.8978 -1.2122 -0.3041
  774MOL0     H 2150   2.092  10.005   5.986  0.2148 -0.4916  2.5929
  774MOL0     H 2151   1.955   9.971   6.183  0.3858 -2.7454  2.1647
  774MOL0     H 2152   1.712   9.415   6.386  1.9918 -0.3030 -0.3383
  774MOL0     H 2153   1.598   9.382   6.600 -2.4183  0.6332  1.1575
  774MOL0     H 2154   2.875   9.188   7.103 -1.3275 -0.9154 -2.2419
  774MOL0     H 2155   3.124   9.249   7.144  1.2854  0.0985 -0.7003
  774MOL0     H 2156   3.595   8.939   7.290  0.7298 -2.5004 -1.4793
  774MOL0     H 2157   3.832   8.962   7.262  0.0565  1.2925  1.1902
  774MOL0     H 2158   4.012   8.924   7.195 -4.1570  1.2202  1.6936
  774MOL0     H 2159   4.038   9.093   7.246 -0.5484  0.6023 -1.4259
  774MOL0     H 2160   4.211   8.937   7.042  2.4631 -1.4523  1.1530
  774MOL0     H 2161   4.233   9.099   7.088 -2.0596  0.1862 -3.7412
  774MOL0     H 2162   4.256   9.048   7.325  1.5762  2.2508 -1.9197
  774MOL0     H 2163   4.389   9.004   7.223  0.2465 -0.8705  0.0128
  774MOL0     H 2164   4.364   8.828   7.393  0.1150  0.3898 -0.2419
  774MOL0     H 2165   4.197   8.826   7.371  0.3517  3.4875  1.9782
  774MOL0     H 2166   4.333   8.575   7.058  1.4898  0.6122 -0.1812
  774MOL0     H 2167   3.765   9.144   6.874 -0.8562 -1.8950 -0.8473
  774MOL0     H 2168   3.527   9.139   6.912  3.0141  0.9288 -2.0081
  775MOL0     O 2169   1.993   1.346   5.735 -0.4060 -0.0688  0.3270
  775MOL0     C 2170   2.039   1.316   5.624  0.4003 -0.0424 -0.1164
  775MOL0     O 2171   1.971   1.259   5.519  0.6062 -0.5413  0.0491
  775MOL0     C 2172   1.860   1.178   5.553 -0.6100 -0.9850 -0.7536
  775MOL0     C 2173   1.742   1.210   5.487  0.5363 -0.6018  0.5897
  775MOL0     C 2174   1.628   1.127   5.501  0.7968 -0.1397 -0.1842
  775MOL0     C 2175   1.629   1.020   5.592 -0.3950  0.3502  0.2543
  775MOL0     O 2176   1.530   0.929   5.610 -0.7088  0.5779  0.4318
  775MOL0     C 2177   1.418   0.923   5.523 -0.6586  0.2461  0.5382
  775MOL0     C 2178   1.330   0.798   5.544  0.1799 -0.6862  0.0468
  775MOL0     C 2179   1.233   0.837   5.669  0.1156  0.0293 -0.5200
  775MOL0     C 2180   1.166   0.709   5.711 -1.1258  0.2939  0.3826
  775MOL0     C 2181   1.043   0.734   5.792 -0.7806  0.1685 -0.5497
  775MOL0     C 2182   0.959   0.610   5.816  0.2712 -0.5088  0.8806
  775MOL0     C 2183   0.819   0.614   5.882  0.1260  0.0207  0.0822
  775MOL0     C 2184   0.723   0.704   5.806 -0.7653  0.4139 -0.1223
  775MOL0     N 2185   0.596   0.723   5.875  0.2016 -0.0768  0.3388
  775MOL0     C 2186   0.475   0.677   5.839 -0.8227 -0.0756 -0.3044
  775MOL0     C 2187   0.384   0.708   5.942 -0.1711 -0.1095  0.1077
  775MOL0     C 2188   0.245   0.648   5.943 -0.8048 -1.3686  0.1498
  775MOL0     C 2189   0.172   0.669   6.072 -0.7522 -1.2129 -0.1668
  775MOL0     C 2190   0.023   0.635   6.062 -0.6239  0.1955 -0.2485
  775MOL0     C 2191  -0.057   0.672   6.189  0.0724  0.2338  0.1746
  775MOL0     O 2192  -0.188   0.626   6.168 -0.1857  0.2204 -0.4846
  775MOL0     C 2193  -0.279   0.659   6.267 -0.5200 -0.4769 -0.0199
  775MOL0     C 2194  -0.412   0.640   6.250  0.1419  0.7322  0.3138
  775MOL0     C 2195  -0.500   0.666   6.348 -0.0155  0.2740 -1.0953
  775MOL0     C 2196  -0.465   0.713   6.475  0.0966  0.0086 -0.4879
  775MOL0     C 2197  -0.561   0.731   6.587  0.1417  1.0525  0.7289
  775MOL0     O 2198  -0.686   0.671   6.566  0.0154 -0.2357  0.3639
  775MOL0     C 2199  -0.761   0.630   6.672 -0.3374 -0.2965  0.0354
  775MOL0     C 2200  -0.894   0.606   6.639  0.1389 -0.6457 -0.3827
  775MOL0     C 2201  -0.988   0.567   6.740 -0.1804  0.0925  0.3831
  775MOL0     C 2202  -0.943   0.553   6.871 -0.2393  0.2245  0.4685
  775MOL0     O 2203  -1.017   0.503   6.971  0.3724  0.4649  0.2433
  775MOL0     C 2204  -1.141   0.426   6.937 -0.5083  0.3741 -0.4042
  775MOL0     C 2205  -1.193   0.356   7.063 -0.3504  0.2927 -0.5623
  775MOL0     C 2206  -1.275   0.229   7.038  0.1417 -0.5380  0.3611
  775MOL0     C 2207  -1.415   0.268   6.988 -0.3796  0.3389 -0.6244
  775MOL0     C 2208  -1.497   0.145   6.960 -0.0358  0.1243  0.1612
  775MOL0     C 2209  -1.631   0.199   6.907  0.1307  0.1875 -0.2872
  775MOL0     C 2210  -1.731   0.080   6.889  0.0522  0.6295  0.3476
  775MOL0     C 2211  -1.872   0.126   6.851  0.4786  0.2523  0.1745
  775MOL0    Cl 2212  -1.950   0.221   6.994 -0.2432  0.4651  0.1661
  775MOL0     C 2213  -0.803   0.565   6.897  0.2924  0.3663  0.1789
  775MOL0     C 2214  -0.710   0.607   6.798 -0.3435  0.1189 -0.2065
  775MOL0     O 2215  -0.519   0.794   6.687  0.1692 -0.2615 -0.1335
  775MOL0     C 2216  -0.332   0.733   6.492 -0.6128 -0.1679  0.2701
  775MOL0     C 2217  -0.239   0.710   6.397 -0.0045  0.4366  1.2747
  775MOL0     N 2218   0.452   0.772   6.045  0.1351  0.4863  0.1954
  775MOL0     N 2219   0.581   0.772   6.002 -0.1176  0.2212 -0.6237
  775MOL0     C 2220   1.749   0.996   5.658 -0.2008 -0.9756  0.0879
  775MOL0     C 2221   1.867   1.070   5.639 -0.3334  0.0553  0.6774
  775MOL0     C 2222   2.177   1.367   5.590  0.0678  0.7735  0.0384
  775MOL0     C 2223   2.221   1.375   5.454 -0.3544  0.8209 -0.5931
  775MOL0     C 2224   2.350   1.423   5.437 -1.0693 -0.4101  0.2964
  775MOL0     C 2225   2.435   1.481   5.537 -0.1619 -0.2776 -0.4422
  775MOL0     O 2226   2.556   1.532   5.510  0.0002 -0.1926 -0.1454
  775MOL0     C 2227   2.560   1.642   5.416 -0.3356  0.3188  0.7523
  775MOL0     C 2228   2.675   1.602   5.327  0.6098 -0.2651  0.5916
  775MOL0     C 2229   2.642   1.485   5.236 -0.4413  0.5059 -0.0589
  775MOL0     C 2230   2.735   1.471   5.110 -0.0317 -1.2184 -0.5363
  775MOL0     C 2231   2.670   1.379   5.026 -0.2583  0.3681  0.1950
  775MOL0     C 2232   2.627   1.304   4.939  0.0053  0.0604 -0.2345
  775MOL0     C 2233   2.379   1.480   5.666 -0.6792  0.1634  0.2571
  775MOL0     C 2234   2.250   1.436   5.688  1.0382  0.3656  0.1863
  775MOL0     H 2235   1.733   1.300   5.427 -0.2866 -2.2320 -1.8416
  775MOL0     H 2236   1.540   1.152   5.442  0.7558  0.6300  0.1938
  775MOL0     H 2237   1.456   0.915   5.420 -2.4861  0.3505 -0.1840
  775MOL0     H 2238   1.361   1.015   5.536  0.5121  0.9038  1.2030
  775MOL0     H 2239   1.388   0.707   5.564 -0.7704 -1.7648 -1.8831
  775MOL0     H 2240   1.261   0.786   5.460 -1.2156  1.1256  0.8708
  775MOL0     H 2241   1.169   0.919   5.635  1.7535  0.7975 -1.8505
  775MOL0     H 2242   1.298   0.862   5.754  2.9505 -2.9962 -1.5751
  775MOL0     H 2243   1.137   0.659   5.618 -0.1431  0.8096 -0.2099
  775MOL0     H 2244   1.236   0.647   5.766  1.1217  0.3382 -2.2220
  775MOL0     H 2245   0.988   0.810   5.736  0.9740  1.5830 -0.4745
  775MOL0     H 2246   1.073   0.768   5.892 -1.8326 -0.9546  0.1787
  775MOL0     H 2247   1.017   0.540   5.876  1.6926  0.3659  0.5866
  775MOL0     H 2248   0.940   0.570   5.716 -0.1287 -0.5072  0.9542
  775MOL0     H 2249   0.774   0.515   5.878 -1.8283  0.8792 -0.5000
  775MOL0     H 2250   0.822   0.648   5.986 -2.1990 -0.0690  0.2104
  775MOL0     H 2251   0.711   0.666   5.704 -0.9470 -1.3112  0.5098
  775MOL0     H 2252   0.768   0.803   5.790 -2.3753  0.8327 -2.6115
  775MOL0     H 2253   0.442   0.630   5.747  0.3765 -0.9637 -0.3022
  775MOL0     H 2254   0.257   0.542   5.923  1.4134 -1.1590  0.0550
  775MOL0     H 2255   0.185   0.694   5.864 -2.0669 -0.5412  1.5350
  775MOL0     H 2256   0.190   0.774   6.098  4.0851 -1.8226 -0.1148
  775MOL0     H 2257   0.218   0.613   6.154  1.5467  1.3223  0.4239
  775MOL0     H 2258  -0.021   0.687   5.977 -0.4482  1.0047  0.1494
  775MOL0     H 2259   0.019   0.526   6.054  1.9201 -0.1207  1.3338
  775MOL0     H 2260  -0.067   0.781   6.201 -0.4882  0.2414 -0.2957
  775MOL0     H 2261  -0.008   0.622   6.272  1.5716  0.0353 -0.7825
  775MOL0     H 2262  -0.449   0.611   6.152  0.4833  0.0777  0.3713
  775MOL0     H 2263  -0.608   0.653   6.339 -0.3852  0.9719  1.3981
  775MOL0     H 2264  -0.917   0.631   6.536  2.2777  0.3152 -0.6804
  775MOL0     H 2265  -1.091   0.571   6.707  0.0132  1.5713 -0.1000
  775MOL0     H 2266  -1.115   0.354   6.859 -1.7702  0.5164 -0.9830
  775MOL0     H 2267  -1.224   0.491   6.906 -1.9784 -0.3539  1.7538
  775MOL0     H 2268  -1.248   0.431   7.121 -0.5750 -0.4796  0.2455
  775MOL0     H 2269  -1.106   0.326   7.122  1.0938  0.4443 -2.5399
  775MOL0     H 2270  -1.286   0.177   7.134 -1.8477 -2.1280 -0.6676
  775MOL0     H 2271  -1.223   0.167   6.965 -1.9574 -0.6528 -1.1034
  775MOL0     H 2272  -1.467   0.331   7.061  1.4193  2.4829 -1.0839
  775MOL0     H 2273  -1.395   0.316   6.891  0.4974  0.0995 -0.5693
  775MOL0     H 2274  -1.513   0.082   7.048  1.7575 -0.4254  0.1320
  775MOL0     H 2275  -1.440   0.080   6.893 -1.1084 -1.7399  0.9843
  775MOL0     H 2276  -1.616   0.224   6.802 -2.0033 -1.1688 -0.9679
  775MOL0     H 2277  -1.681   0.274   6.969  0.4045  0.4119 -0.3321
  775MOL0     H 2278  -1.679   0.016   6.818 -0.3577 -0.7844  1.2708
  775MOL0     H 2279  -1.745   0.016   6.977  0.9380 -0.5801 -0.3569
  775MOL0     H 2280  -1.937   0.040   6.834  1.6804 -0.5246 -0.6662
  775MOL0     H 2281  -1.866   0.185   6.759 -1.2076  0.2306  0.0153
  775MOL0     H 2282  -0.775   0.554   7.001 -1.0631  0.6845  0.5947
  775MOL0     H 2283  -0.603   0.616   6.816 -0.2201 -0.8335 -0.4355
  775MOL0     H 2284  -0.307   0.786   6.583 -1.1208  0.5480 -0.0045
  775MOL0     H 2285  -0.136   0.734   6.420  0.0058  2.8027 -0.7514
  775MOL0     H 2286   1.753   0.913   5.728  0.6232 -0.1704  1.0177
  775MOL0     H 2287   1.965   1.054   5.683 -0.1524  0.8056  0.5599
  775MOL0     H 2288   2.161   1.346   5.368  1.2981 -0.1771 -1.4584
  775MOL0     H 2289   2.383   1.424   5.334 -3.2788 -1.8769 -0.4889
  775MOL0     H 2290   2.583   1.734   5.470  0.8906  1.6785 -1.9136
  775MOL0     H 2291   2.469   1.658   5.358 -0.5561  1.0106  1.2739
  775MOL0     H 2292   2.705   1.686   5.263  1.8500 -2.2813 -1.6241
  775MOL0     H 2293   2.769   1.578   5.378  2.1152  0.9039 -1.4855
  775MOL0     H 2294   2.540   1.505   5.203 -2.0127  0.3168  4.1408
  775MOL0     H 2295   2.636   1.394   5.297  0.5441  0.3900 -0.1095
  775MOL0     H 2296   2.742   1.569   5.062  0.1994 -0.2836  1.2984
  775MOL0     H 2297   2.835   1.437   5.138 -0.3260 -1.0843  0.7702
  775MOL0     H 2298   2.601   1.230   4.866 -1.0329  0.0848  0.0915
  775MOL0     H 2299   2.437   1.506   5.754 -1.8134  0.9419  0.7987
  775MOL0     H 2300   2.209   1.430   5.789 -1.0504 -1.1589 -0.6718
  776MOL0     O 2301  10.968   3.800  11.178 -0.2339 -0.3299 -0.9430
  776MOL0     C 2302  11.069   3.739  11.143  1.2623 -0.0556 -0.0544
  776MOL0     O 2303  11.074   3.611  11.114  0.1125 -0.3171  0.1504
  776MOL0     C 2304  10.962   3.537  11.097 -0.6245 -0.2094  0.0613
  776MOL0     C 2305  10.852   3.589  11.031 -0.8983 -0.4500 -0.1553
  776MOL0     C 2306  10.736   3.510  10.993 -0.9668  1.1454  0.1854
  776MOL0     C 2307  10.727   3.379  11.050  0.8312 -0.7373  0.1725
  776MOL0     O 2308  10.618   3.298  11.041  0.2615 -0.7454  0.0280
  776MOL0     C 2309  10.495   3.363  11.020 -0.5741  0.2533 -0.6093
  776MOL0     C 2310  10.378   3.262  11.045 -0.8495  0.1062  0.4984
  776MOL0     C 2311  10.387   3.203  11.182 -0.1305  0.8505 -0.3768
  776MOL0     C 2312  10.268   3.110  11.202 -0.0549  0.2777 -0.1714
  776MOL0     C 2313  10.280   3.018  11.328  0.7932 -0.6606 -0.0593
  776MOL0     C 2314  10.137   2.966  11.383 -0.6894 -0.2472  0.0357
  776MOL0     C 2315  10.156   2.882  11.509 -0.4182  0.2881 -0.1905
  776MOL0     C 2316  10.026   2.846  11.591  0.3305 -0.2443  0.1682
  776MOL0     N 2317   9.903   2.831  11.507  0.4261 -0.9502  0.3891
  776MOL0     C 2318   9.897   2.751  11.401 -0.6121  0.5294  0.3544
  776MOL0     C 2319   9.772   2.767  11.345  0.8281  0.7246  0.2582
  776MOL0     C 2320   9.744   2.720  11.198 -0.1392  0.2276 -0.7225
  776MOL0     C 2321   9.635   2.613  11.201 -0.5826  0.6039 -0.3538
  776MOL0     C 2322   9.669   2.525  11.082 -0.0551 -0.0264 -0.2782
  776MOL0     C 2323   9.556   2.429  11.059 -0.6612  0.1054 -0.2791
  776MOL0     O 2324   9.442   2.497  11.014 -0.0485 -0.7612  0.8378
  776MOL0     C 2325   9.318   2.435  11.011  0.3127  0.0749 -1.0190
  776MOL0     C 2326   9.206   2.493  10.953 -0.6322 -0.8523 -0.3682
  776MOL0     C 2327   9.084   2.434  10.941  0.9102  0.0535  0.2912
  776MOL0     C 2328   9.060   2.311  11.004 -0.6004 -0.0568  0.7154
  776MOL0     C 2329   8.931   2.242  11.012  0.5489 -0.3845 -0.3757
  776MOL0     O 2330   8.919   2.142  11.103 -0.6271 -0.0124  0.1198
  776MOL0     C 2331   8.804   2.079  11.133  0.8027  0.3163 -0.1254
  776MOL0     C 2332   8.816   1.949  11.187  0.0177  0.3622 -0.6614
  776MOL0     C 2333   8.706   1.863  11.221  0.5002 -0.1843  0.8181
  776MOL0     C 2334   8.573   1.906  11.200 -0.0756  0.0363  0.8564
  776MOL0     O 2335   8.475   1.805  11.205  0.0045  0.1127  0.1718
  776MOL0     C 2336   8.349   1.841  11.264  0.3214 -0.2370  0.1092
  776MOL0     C 2337   8.270   1.710  11.273  0.2211 -0.7009  0.4676
  776MOL0     C 2338   8.160   1.723  11.375  0.3864  0.0995 -0.2283
  776MOL0     C 2339   8.048   1.613  11.368 -0.0069  0.6194 -0.4004
  776MOL0     C 2340   7.925   1.654  11.291 -0.6262 -0.2995  0.2362
  776MOL0     C 2341   7.941   1.709  11.146  0.2138 -0.2903  0.3442
  776MOL0     C 2342   7.804   1.753  11.082  0.5057 -0.1437  0.4110
  776MOL0     C 2343   7.815   1.772  10.932 -0.0983  0.1140 -0.4229
  776MOL0    Cl 2344   7.656   1.822  10.873  0.0116 -0.1126 -0.3272
  776MOL0     C 2345   8.553   2.040  11.141 -0.0790  0.3968  0.2899
  776MOL0     C 2346   8.665   2.117  11.115  0.4557 -0.7264  0.1191
  776MOL0     O 2347   8.832   2.285  10.947  0.4603 -0.0341 -0.1466
  776MOL0     C 2348   9.172   2.244  11.067  0.2477  0.0023  0.2243
  776MOL0     C 2349   9.297   2.303  11.063  0.5904  0.5827  0.0674
  776MOL0     N 2350   9.712   2.869  11.416  0.6361  0.2688  0.0469
  776MOL0     N 2351   9.788   2.908  11.512 -0.0147  0.9408  0.3036
  776MOL0     C 2352  10.847   3.321  11.102  0.9749  0.7490 -0.9919
  776MOL0     C 2353  10.964   3.399  11.116  0.7406  0.1085  0.0878
  776MOL0     C 2354  11.194   3.822  11.145  0.9691  0.5940 -0.0597
  776MOL0     C 2355  11.203   3.965  11.169  0.1038 -0.8975  0.1376
  776MOL0     C 2356  11.327   4.033  11.189  0.3312  0.2682 -0.5120
  776MOL0     C 2357  11.442   3.962  11.174 -0.4558  0.1651 -0.3806
  776MOL0     O 2358  11.562   4.028  11.192  0.3556  0.0748  0.1213
  776MOL0     C 2359  11.688   3.979  11.147 -0.0115  0.2174  0.9665
  776MOL0     C 2360  11.783   4.093  11.155  0.5708 -0.1277 -0.2386
  776MOL0     C 2361  11.919   4.072  11.086 -0.2500 -0.5550  0.2640
  776MOL0     C 2362  12.001   3.955  11.151  0.1236  0.4701 -0.0463
  776MOL0     C 2363  12.119   3.932  11.066  0.1317  0.3004  0.1110
  776MOL0     C 2364  12.210   3.881  11.004 -0.8791 -0.3948  0.3393
  776MOL0     C 2365  11.441   3.827  11.148  0.8563  0.0530 -0.2741
  776MOL0     C 2366  11.323   3.759  11.123  0.2752 -0.0414  0.2860
  776MOL0     H 2367  10.861   3.691  10.995  0.0163  0.0393  1.3799
  776MOL0     H 2368  10.657   3.551  10.931 -0.8880  0.7309 -0.1892
  776MOL0     H 2369  10.500   3.394  10.915  2.2705 -1.6651 -1.1776
  776MOL0     H 2370  10.489   3.446  11.091 -2.8476 -1.3233  1.2122
  776MOL0     H 2371  10.388   3.185  10.968 -0.7419  0.7986 -0.1968
  776MOL0     H 2372  10.284   3.314  11.026  0.9977  3.0390 -1.4585
  776MOL0     H 2373  10.399   3.274  11.265  2.2064  2.1886 -1.7516
  776MOL0     H 2374  10.479   3.143  11.188  0.4541  1.6201 -1.3975
  776MOL0     H 2375  10.185   3.180  11.217  0.9248  0.9532  2.7405
  776MOL0     H 2376  10.250   3.028  11.133 -0.3373 -1.7094  2.1252
  776MOL0     H 2377  10.311   3.092  11.402  1.1949  2.8235 -3.4145
  776MOL0     H 2378  10.350   2.937  11.307 -0.8136 -1.8370 -1.1269
  776MOL0     H 2379  10.084   2.911  11.306 -0.4876 -1.0261  0.4385
  776MOL0     H 2380  10.075   3.051  11.413  0.9600  0.1153  2.7732
  776MOL0     H 2381  10.204   2.790  11.477  0.5936  1.8696 -3.6583
  776MOL0     H 2382  10.227   2.930  11.577  0.9861  0.0298 -1.4389
  776MOL0     H 2383  10.015   2.938  11.649  1.6601  0.9315 -1.3426
  776MOL0     H 2384  10.044   2.756  11.652 -2.6363 -2.2730 -1.6883
  776MOL0     H 2385   9.971   2.679  11.366  0.5053  2.7672 -2.1941
  776MOL0     H 2386   9.842   2.698  11.154  0.8953  2.8284  0.1308
  776MOL0     H 2387   9.704   2.800  11.135 -0.5031  0.4434 -0.2212
  776MOL0     H 2388   9.541   2.667  11.186  0.2775  2.6034  1.0205
  776MOL0     H 2389   9.631   2.552  11.292 -0.4753  1.2313  0.0761
  776MOL0     H 2390   9.672   2.582  10.988  0.0313 -0.1721 -0.3641
  776MOL0     H 2391   9.768   2.482  11.102  0.3494  0.5113 -1.0585
  776MOL0     H 2392   9.541   2.378  11.155  2.3582 -0.6231 -0.0870
  776MOL0     H 2393   9.579   2.340  11.001  0.4519 -1.5512  2.4932
  776MOL0     H 2394   9.206   2.590  10.905  2.2904 -0.7442 -0.2839
  776MOL0     H 2395   9.007   2.483  10.881  0.0423 -1.0473  0.4742
  776MOL0     H 2396   8.915   1.909  11.209  0.3644 -0.5789 -3.4527
  776MOL0     H 2397   8.721   1.761  11.256  1.3536 -0.2427  0.3169
  776MOL0     H 2398   8.296   1.911  11.198  0.8114 -0.5823 -0.6655
  776MOL0     H 2399   8.367   1.881  11.364  0.3498 -3.4764  1.5218
  776MOL0     H 2400   8.328   1.631  11.321 -0.3405 -0.7640  1.0612
  776MOL0     H 2401   8.236   1.692  11.171  1.6989  1.3302 -0.4393
  776MOL0     H 2402   8.111   1.820  11.362  2.9542  1.5759  0.3421
  776MOL0     H 2403   8.202   1.738  11.475 -0.6285  1.7406 -0.0037
  776MOL0     H 2404   8.088   1.521  11.324 -0.3490  0.3714 -0.2073
  776MOL0     H 2405   8.014   1.588  11.469  0.7637  0.6987 -0.1143
  776MOL0     H 2406   7.870   1.734  11.342  0.9609  0.4415  0.8324
  776MOL0     H 2407   7.864   1.563  11.291  0.4087 -1.0102 -1.0858
  776MOL0     H 2408   7.993   1.639  11.081  2.1559  1.3059  0.0769
  776MOL0     H 2409   8.005   1.798  11.153 -0.6263  0.6321 -2.4525
  776MOL0     H 2410   7.730   1.674  11.100 -1.3468  1.6329  1.0152
  776MOL0     H 2411   7.776   1.849  11.125  0.7618 -0.1148  0.5139
  776MOL0     H 2412   7.847   1.677  10.887 -2.2426 -1.1807  0.6086
  776MOL0     H 2413   7.890   1.850  10.919  2.0244 -1.5027  1.1488
  776MOL0     H 2414   8.451   2.072  11.123 -0.1888 -0.2767 -0.3114
  776MOL0     H 2415   8.645   2.218  11.082  0.4916 -0.2553  1.4915
  776MOL0     H 2416   9.159   2.152  11.123 -2.3696  1.7936  2.9179
  776MOL0     H 2417   9.377   2.250  11.113  0.3788  0.1448 -0.0568
  776MOL0     H 2418  10.833   3.220  11.139  1.3783  0.5837 -1.2832
  776MOL0     H 2419  11.056   3.348  11.145  0.9294 -0.3417 -1.2356
  776MOL0     H 2420  11.112   4.023  11.176  0.6109  0.3227 -2.3641
  776MOL0     H 2421  11.332   4.138  11.216  0.2157  0.2039 -0.2407
  776MOL0     H 2422  11.674   3.951  11.042 -1.3028  1.7138  0.6979
  776MOL0     H 2423  11.716   3.896  11.212 -0.8544  0.0203  1.0953
  776MOL0     H 2424  11.745   4.181  11.103  1.0221  1.0312  1.3106
  776MOL0     H 2425  11.799   4.104  11.262  1.7692  0.5294 -0.4684
  776MOL0     H 2426  11.982   4.161  11.076 -1.2941  0.3167  1.2291
  776MOL0     H 2427  11.900   4.044  10.981 -0.4678  1.4152 -0.2504
  776MOL0     H 2428  12.031   3.972  11.254 -0.5027 -2.7690  0.7625
  776MOL0     H 2429  11.935   3.868  11.150  1.8049 -1.0767  3.9599
  776MOL0     H 2430  12.279   3.822  10.946 -0.4515  0.4831 -0.0744
  776MOL0     H 2431  11.536   3.775  11.143  1.1936  0.6839 -0.5011
  776MOL0     H 2432  11.329   3.655  11.093  1.5014 -0.0206  0.3922
  777MOL0     O 2433   5.245   3.979   7.612  0.1183 -0.1758 -0.0150
  777MOL0     C 2434   5.227   3.901   7.515  0.3865 -0.0243 -0.5435
  777MOL0     O 2435   5.109   3.823   7.498 -0.9268  0.8160 -0.1509
  777MOL0     C 2436   5.014   3.846   7.594  0.3272 -0.3926 -0.0999
  777MOL0     C 2437   4.930   3.955   7.562  0.2149 -0.0732 -0.9071
  777MOL0     C 2438   4.851   4.006   7.671 -0.5310  0.0022  0.2010
  777MOL0     C 2439   4.830   3.929   7.787  0.1225  0.3010 -0.7643
  777MOL0     O 2440   4.732   3.969   7.881  0.0473 -0.4750 -0.7853
  777MOL0     C 2441   4.666   3.873   7.960 -0.4044  1.2679 -0.1036
  777MOL0     C 2442   4.580   3.939   8.071 -0.7962 -0.4160  0.0746
  777MOL0     C 2443   4.510   3.842   8.156  0.3697 -0.2834 -0.6244
  777MOL0     C 2444   4.417   3.920   8.250  0.2343 -0.7324  0.1276
  777MOL0     C 2445   4.332   3.841   8.346  0.0137 -0.5164 -0.2641
  777MOL0     C 2446   4.212   3.923   8.385  0.4081 -0.1688 -0.0195
  777MOL0     C 2447   4.125   3.831   8.473  0.1884  0.2656  0.2732
  777MOL0     C 2448   4.024   3.916   8.546  0.2435  0.4664  0.6183
  777MOL0     N 2449   3.951   3.846   8.654 -0.1112 -1.1608 -0.0576
  777MOL0     C 2450   3.814   3.844   8.669  0.1910 -0.7699  0.1785
  777MOL0     C 2451   3.796   3.793   8.797  0.5464 -0.0633  0.0330
  777MOL0     C 2452   3.664   3.789   8.872  0.8565 -0.2059 -0.5793
  777MOL0     C 2453   3.594   3.926   8.859  0.0261 -0.3928  0.2684
  777MOL0     C 2454   3.485   3.960   8.962  0.3243 -0.6716  0.1482
  777MOL0     C 2455   3.384   3.845   8.990 -0.1087  0.0876 -0.6468
  777MOL0     O 2456   3.303   3.874   9.105 -0.8520 -0.1954 -0.6646
  777MOL0     C 2457   3.199   3.788   9.092  0.3473 -0.2972  0.2823
  777MOL0     C 2458   3.204   3.681   9.170  0.2439  0.5070  1.0917
  777MOL0     C 2459   3.095   3.593   9.173 -0.4855 -1.2198  0.1048
  777MOL0     C 2460   2.972   3.621   9.096 -0.2795  0.0381 -1.0121
  777MOL0     C 2461   2.853   3.534   9.118  0.3160 -0.3767  0.5746
  777MOL0     O 2462   2.739   3.575   9.066 -0.1888  0.6771  0.1777
  777MOL0     C 2463   2.623   3.513   9.098 -0.1345 -0.7893 -0.3770
  777MOL0     C 2464   2.607   3.373   9.105 -0.3203 -0.0978  0.5632
  777MOL0     C 2465   2.481   3.311   9.103 -0.7555 -0.9818 -0.6919
  777MOL0     C 2466   2.366   3.385   9.108 -0.4312  0.7330  0.2034
  777MOL0     O 2467   2.243   3.338   9.115 -1.2297 -1.0525  0.0037
  777MOL0     C 2468   2.188   3.262   9.000 -0.3116 -0.4910 -1.0179
  777MOL0     C 2469   2.083   3.173   9.062  0.1092  0.6707  0.7486
  777MOL0     C 2470   1.976   3.108   8.972 -0.1071 -0.5809  0.1707
  777MOL0     C 2471   2.046   3.006   8.882  0.4723  0.2147 -0.4519
  777MOL0     C 2472   1.927   2.928   8.829 -0.9658 -0.3234 -0.5047
  777MOL0     C 2473   1.851   3.002   8.713  0.2099 -0.0824 -0.3350
  777MOL0     C 2474   1.719   2.938   8.671  0.7272 -0.1836 -0.2185
  777MOL0     C 2475   1.670   3.014   8.545 -0.1453 -0.0722 -0.3070
  777MOL0    Cl 2476   1.515   2.935   8.495  0.1653  0.0421  0.0156
  777MOL0     C 2477   2.378   3.523   9.099  0.2443  0.2672 -0.2434
  777MOL0     C 2478   2.504   3.586   9.093 -0.5309  0.8389  0.8673
  777MOL0     O 2479   2.879   3.426   9.180 -0.6631  0.3619  0.2007
  777MOL0     C 2480   2.971   3.737   9.018  0.3738 -0.7020 -0.5762
  777MOL0     C 2481   3.084   3.819   9.016 -0.2959 -0.0813  0.2365
  777MOL0     N 2482   3.921   3.775   8.860  0.0023 -0.1580 -0.0617
  777MOL0     N 2483   4.011   3.807   8.773  0.3707  0.6357 -0.3050
  777MOL0     C 2484   4.903   3.810   7.802 -0.9440  0.1657 -0.0172
  777MOL0     C 2485   5.004   3.774   7.712 -0.1011  0.0620  0.5206
  777MOL0     C 2486   5.317   3.904   7.400 -0.1220 -0.3204  0.6936
  777MOL0     C 2487   5.402   4.023   7.379 -0.0175  1.2905 -0.3929
  777MOL0     C 2488   5.492   4.039   7.274 -0.5457 -0.6152 -0.3089
  777MOL0     C 2489   5.509   3.927   7.184  0.6912 -0.4579 -0.2360
  777MOL0     O 2490   5.607   3.944   7.095  0.2334  0.7551 -0.6012
  777MOL0     C 2491   5.615   3.855   6.977  0.3508 -0.0630  0.0924
  777MOL0     C 2492   5.533   3.921   6.865 -0.5616  0.1104 -0.4861
  777MOL0     C 2493   5.539   3.839   6.723  0.3282 -0.0069 -0.4413
  777MOL0     C 2494   5.445   3.910   6.621  0.6169  0.1193 -0.6050
  777MOL0     C 2495   5.294   3.912   6.649  0.1236  0.2554 -0.5335
  777MOL0     C 2496   5.176   3.936   6.680 -0.8352  0.3042  0.3149
  777MOL0     C 2497   5.419   3.815   7.194  0.3154 -0.1968 -0.0016
  777MOL0     C 2498   5.326   3.807   7.298  0.3804  0.3212 -0.0954
  777MOL0     H 2499   4.941   4.011   7.470 -1.2954  2.9096  0.5722
  777MOL0     H 2500   4.799   4.100   7.652  0.9408  0.8080  0.0186
  777MOL0     H 2501   4.742   3.814   8.012 -2.1290 -0.6810  0.3370
  777MOL0     H 2502   4.604   3.804   7.903 -1.7222  2.2706  0.0794
  777MOL0     H 2503   4.516   4.011   8.020 -0.6726 -0.0617  0.4154
  777MOL0     H 2504   4.657   3.996   8.124  0.1010  1.0493 -2.6087
  777MOL0     H 2505   4.576   3.774   8.211  0.9706  0.1298 -0.8224
  777MOL0     H 2506   4.444   3.773   8.101  2.2927 -2.7952  0.0338
  777MOL0     H 2507   4.478   3.988   8.310  0.1893 -0.2278 -0.3935
  777MOL0     H 2508   4.346   3.978   8.191  1.3060  1.6536  1.0667
  777MOL0     H 2509   4.383   3.813   8.438 -1.1374  0.3696  0.6662
  777MOL0     H 2510   4.303   3.752   8.289  0.6480 -0.6704 -0.3545
  777MOL0     H 2511   4.150   3.946   8.298  0.5028 -2.8874 -0.8932
  777MOL0     H 2512   4.239   4.012   8.444 -0.3840  1.4341 -1.9555
  777MOL0     H 2513   4.074   3.752   8.418 -1.7167  0.4014  1.7432
  777MOL0     H 2514   4.185   3.780   8.549 -1.2841  0.0773  1.3474
  777MOL0     H 2515   3.953   3.946   8.467  3.6689  0.4910 -2.7618
  777MOL0     H 2516   4.073   4.003   8.590 -0.2135  0.5773  0.9086
  777MOL0     H 2517   3.728   3.880   8.613 -0.9947  0.9032  2.8677
  777MOL0     H 2518   3.655   3.737   8.968  1.7212  0.8787  0.1193
  777MOL0     H 2519   3.601   3.723   8.813 -2.0346  2.0159 -0.2270
  777MOL0     H 2520   3.563   3.954   8.758  0.4360  4.9484  1.3146
  777MOL0     H 2521   3.673   4.000   8.877 -0.4701  0.6193 -1.5070
  777MOL0     H 2522   3.528   4.001   9.054 -1.5277  1.7557  0.0332
  777MOL0     H 2523   3.424   4.045   8.930 -0.3695 -0.5759  1.6579
  777MOL0     H 2524   3.420   3.742   9.003 -1.0599  0.1126  3.4467
  777MOL0     H 2525   3.316   3.849   8.904 -0.3976  1.0196 -0.3831
  777MOL0     H 2526   3.295   3.663   9.228  0.9863 -3.1252 -0.9263
  777MOL0     H 2527   3.106   3.497   9.223 -0.0748 -1.7969 -1.0595
  777MOL0     H 2528   2.687   3.300   9.106 -0.5661 -0.3891 -0.2730
  777MOL0     H 2529   2.464   3.204   9.097 -5.0769 -0.4007 -1.5674
  777MOL0     H 2530   2.266   3.199   8.957  1.3616 -0.7200  2.0908
  777MOL0     H 2531   2.134   3.330   8.934 -1.3595 -0.2152  0.0827
  777MOL0     H 2532   2.027   3.224   9.140  1.7280  0.8140  1.8544
  777MOL0     H 2533   2.133   3.096   9.121 -2.0940  0.0090  1.8709
  777MOL0     H 2534   1.931   3.182   8.905  1.1606  0.4319  0.4061
  777MOL0     H 2535   1.895   3.062   9.029 -0.7622 -0.6770 -0.8142
  777MOL0     H 2536   2.093   3.063   8.802  1.0022 -2.7808 -2.4260
  777MOL0     H 2537   2.122   2.944   8.931  0.5827  0.3078 -0.5058
  777MOL0     H 2538   1.859   2.888   8.904  0.6427 -0.6675  0.8385
  777MOL0     H 2539   1.970   2.837   8.786  0.3471  0.1563 -0.2487
  777MOL0     H 2540   1.923   3.014   8.632  2.8138 -0.8795  1.7100
  777MOL0     H 2541   1.825   3.099   8.755  1.8102 -0.3006  1.2757
  777MOL0     H 2542   1.740   2.837   8.635  2.9377  0.0679  0.2501
  777MOL0     H 2543   1.648   2.940   8.754  0.7379 -1.0668 -0.1811
  777MOL0     H 2544   1.744   2.996   8.466 -0.0136 -1.8461  0.1798
  777MOL0     H 2545   1.673   3.120   8.572  2.2458 -0.2864  0.5075
  777MOL0     H 2546   2.292   3.589   9.104 -0.6398 -0.8924  0.3437
  777MOL0     H 2547   2.506   3.693   9.113  2.3199  0.8550  0.8765
  777MOL0     H 2548   2.881   3.757   8.961 -0.6813 -0.1530  1.2050
  777MOL0     H 2549   3.081   3.919   8.975 -1.3981  0.0797  0.6646
  777MOL0     H 2550   4.889   3.749   7.891  0.1937 -1.2259 -0.7384
  777MOL0     H 2551   5.066   3.687   7.728 -1.7088 -1.8818 -2.6951
  777MOL0     H 2552   5.396   4.105   7.450  2.6313  1.7935 -0.6404
  777MOL0     H 2553   5.546   4.133   7.278 -1.9187  0.1682  0.4067
  777MOL0     H 2554   5.580   3.751   6.986  1.4469 -0.3771  0.9208
  777MOL0     H 2555   5.712   3.841   6.930 -1.5210  0.2658 -4.4057
  777MOL0     H 2556   5.431   3.915   6.903  0.2954 -3.7562  1.7492
  777MOL0     H 2557   5.561   4.026   6.862  0.7017 -0.0774  2.1328
  777MOL0     H 2558   5.506   3.735   6.734 -3.5336  1.0578 -0.6206
  777MOL0     H 2559   5.639   3.840   6.680  0.6168  4.1157  0.0215
  777MOL0     H 2560   5.477   4.014   6.623  0.9099  0.0547  2.1563
  777MOL0     H 2561   5.459   3.858   6.526  2.4034  0.1383 -0.3791
  777MOL0     H 2562   5.071   3.956   6.692 -0.7997 -0.1312  1.4887
  777MOL0     H 2563   5.429   3.723   7.136  2.7285  1.1167 -1.8491
  777MOL0     H 2564   5.269   3.717   7.314  1.9307 -0.7185 -0.2348
  778MOL0     O 2565   9.318   1.322   1.808 -0.1412 -0.3274 -0.2438
  778MOL0     C 2566   9.382   1.278   1.898 -0.0499  0.5955 -0.1635
  778MOL0     O 2567   9.366   1.165   1.969  0.4525 -0.0784 -0.1810
  778MOL0     C 2568   9.268   1.067   1.945 -1.4180 -0.0928  0.1097
  778MOL0     C 2569   9.196   1.019   2.055 -0.0335  0.0977 -0.6483
  778MOL0     C 2570   9.107   0.914   2.042 -0.6973  0.8552 -0.3275
  778MOL0     C 2571   9.089   0.857   1.913  0.4882 -0.2925 -0.8639
  778MOL0     O 2572   8.998   0.755   1.902 -0.2510 -0.0335  0.1487
  778MOL0     C 2573   8.975   0.693   1.771  0.3614 -0.0358  0.3634
  778MOL0     C 2574   8.882   0.573   1.790  0.0363  0.2417 -0.6071
  778MOL0     C 2575   8.940   0.441   1.829 -0.2287  0.3258 -0.5832
  778MOL0     C 2576   9.001   0.462   1.977 -0.1640  0.7972 -1.0622
  778MOL0     C 2577   8.902   0.477   2.102 -0.0660  0.2261 -0.5234
  778MOL0     C 2578   8.794   0.358   2.104 -0.0159  0.4264 -0.0246
  778MOL0     C 2579   8.846   0.212   2.126  0.0872 -0.7140  0.6684
  778MOL0     C 2580   8.730   0.115   2.122 -0.1313 -0.5720  0.2264
  778MOL0     N 2581   8.675   0.107   1.984 -0.2652 -0.2161 -0.3032
  778MOL0     C 2582   8.565   0.179   1.941 -0.6959 -0.3373 -0.0367
  778MOL0     C 2583   8.575   0.197   1.809  0.0655  0.3220 -0.7094
  778MOL0     C 2584   8.497   0.297   1.723  0.0121  0.7531 -0.9304
  778MOL0     C 2585   8.594   0.378   1.627  0.3810  0.5213 -0.4971
  778MOL0     C 2586   8.505   0.487   1.560  0.3815  0.4099  0.4642
  778MOL0     C 2587   8.554   0.533   1.420 -0.1509  0.0613  0.3767
  778MOL0     O 2588   8.538   0.676   1.408  0.3899  0.5655  0.1349
  778MOL0     C 2589   8.634   0.749   1.342  1.0455  0.2611  0.3309
  778MOL0     C 2590   8.739   0.696   1.258 -0.2115  0.1161 -1.1719
  778MOL0     C 2591   8.828   0.779   1.197  0.4681 -0.0142 -0.0886
  778MOL0     C 2592   8.820   0.915   1.209  0.7251 -0.4824  0.1747
  778MOL0     C 2593   8.921   1.007   1.149 -0.2028 -0.3530 -0.4862
  778MOL0     O 2594   9.035   0.963   1.076 -0.9657  0.5754  0.5047
  778MOL0     C 2595   9.129   1.065   1.041  1.3441 -0.2279  0.8756
  778MOL0     C 2596   9.138   1.115   0.911  1.3138 -0.0443  0.5869
  778MOL0     C 2597   9.246   1.200   0.873 -1.4437  1.0012  1.0044
  778MOL0     C 2598   9.343   1.231   0.964 -0.8200 -0.0858 -0.3098
  778MOL0     O 2599   9.451   1.310   0.943 -0.7710  0.0792  0.3079
  778MOL0     C 2600   9.501   1.348   0.813  0.0310  0.5933  0.3082
  778MOL0     C 2601   9.549   1.491   0.803  0.3231  0.4689 -0.4087
  778MOL0     C 2602   9.693   1.522   0.848 -0.2124  0.7587 -0.2947
  778MOL0     C 2603   9.710   1.667   0.874 -0.0372 -0.4315  0.1866
  778MOL0     C 2604   9.838   1.696   0.959  0.8901  0.2756  0.5132
  778MOL0     C 2605   9.865   1.849   0.951  0.8287  0.3974  0.9227
  778MOL0     C 2606   9.965   1.895   1.055  0.8656  0.1133 -0.1664
  778MOL0     C 2607   9.911   1.999   1.152  0.3390  0.6363  0.0093
  778MOL0    Cl 2608   9.868   2.156   1.068  0.0733 -0.0325 -0.1674
  778MOL0     C 2609   9.327   1.188   1.097 -0.6684  0.0052  0.4157
  778MOL0     C 2610   9.224   1.105   1.136  0.1459  0.2242 -0.3000
  778MOL0     O 2611   8.900   1.124   1.180 -0.1876 -0.2968 -0.2614
  778MOL0     C 2612   8.719   0.967   1.291 -0.0227  0.1934  0.3298
  778MOL0     C 2613   8.626   0.884   1.355  0.5964  0.2838  0.2247
  778MOL0     N 2614   8.686   0.131   1.771 -0.8541 -0.2678  0.4716
  778MOL0     N 2615   8.740   0.067   1.875  0.5610 -0.3187  0.9915
  778MOL0     C 2616   9.161   0.904   1.802  0.8918 -0.6347 -0.0782
  778MOL0     C 2617   9.256   1.003   1.819 -0.2840 -0.3421  1.5957
  778MOL0     C 2618   9.484   1.364   1.951  0.1304 -0.7059 -0.3622
  778MOL0     C 2619   9.495   1.501   1.913 -0.3830  0.7763 -0.2115
  778MOL0     C 2620   9.588   1.584   1.980  1.3673 -0.3065  0.3516
  778MOL0     C 2621   9.672   1.533   2.076  0.3167  0.6721 -0.2269
  778MOL0     O 2622   9.757   1.610   2.147  0.4784 -0.1875 -0.1230
  778MOL0     C 2623   9.768   1.745   2.111 -0.0978  0.1592 -1.0649
  778MOL0     C 2624   9.857   1.819   2.215 -0.3898 -0.1016  0.6575
  778MOL0     C 2625   9.881   1.962   2.161  0.5320  1.0417 -0.8039
  778MOL0     C 2626   9.978   1.964   2.039 -0.6692 -0.2563 -0.1084
  778MOL0     C 2627   9.970   2.099   1.974 -0.1725 -0.0249 -0.5629
  778MOL0     C 2628   9.984   2.200   1.908 -1.3782 -0.2804 -0.5026
  778MOL0     C 2629   9.661   1.394   2.111  0.0581  0.4457 -0.7988
  778MOL0     C 2630   9.570   1.315   2.049 -0.1423  0.1112  0.1064
  778MOL0     H 2631   9.203   1.067   2.152 -0.5773 -0.6507 -0.2342
  778MOL0     H 2632   9.043   0.877   2.122  0.0782  0.1113 -0.0345
  778MOL0     H 2633   9.070   0.659   1.730 -0.1255 -0.1707 -0.6728
  778MOL0     H 2634   8.935   0.765   1.699  4.3008  0.2103 -1.8768
  778MOL0     H 2635   8.837   0.557   1.692  0.5820 -0.2380 -0.7889
  778MOL0     H 2636   8.798   0.595   1.856  1.1443  3.5044 -0.1074
  778MOL0     H 2637   9.018   0.404   1.763  0.4910  0.2850  0.2800
  778MOL0     H 2638   8.864   0.362   1.830  0.1925 -0.0878 -0.9801
  778MOL0     H 2639   9.078   0.386   1.995  1.1011  2.2149 -0.2688
  778MOL0     H 2640   9.068   0.548   1.970  4.3715 -2.3212 -0.3824
  778MOL0     H 2641   8.849   0.573   2.103  2.2420  1.5777 -0.9295
  778MOL0     H 2642   8.960   0.481   2.194  2.6074  1.8796 -2.1441
  778MOL0     H 2643   8.739   0.382   2.012 -0.1390  1.6875  0.3616
  778MOL0     H 2644   8.732   0.371   2.193 -0.7542 -0.4015 -0.4000
  778MOL0     H 2645   8.914   0.192   2.043 -0.8317  0.0751 -0.3018
  778MOL0     H 2646   8.905   0.194   2.216  2.8636 -3.1421 -1.4507
  778MOL0     H 2647   8.643   0.147   2.180 -0.9036 -0.0975 -1.1365
  778MOL0     H 2648   8.752   0.011   2.147  0.0579 -0.5204  0.2727
  778MOL0     H 2649   8.497   0.232   2.007 -0.4683 -0.1215  0.0269
  778MOL0     H 2650   8.435   0.363   1.785  0.6121 -0.2685  0.8255
  778MOL0     H 2651   8.414   0.253   1.665 -3.7326  2.4706  2.5893
  778MOL0     H 2652   8.618   0.299   1.556 -0.2140  0.7607 -0.9774
  778MOL0     H 2653   8.683   0.422   1.673 -0.1616 -0.0624  1.1890
  778MOL0     H 2654   8.405   0.447   1.540  1.4660 -1.9769 -0.6024
  778MOL0     H 2655   8.497   0.565   1.636  1.2188  0.3803  0.5861
  778MOL0     H 2656   8.497   0.495   1.335 -2.9785  0.8909  1.7775
  778MOL0     H 2657   8.657   0.499   1.403 -0.6455 -0.5740 -1.7212
  778MOL0     H 2658   8.745   0.587   1.252  1.2282  0.0860  0.1611
  778MOL0     H 2659   8.912   0.744   1.137 -0.1655 -1.7498 -0.0263
  778MOL0     H 2660   9.060   1.084   0.842  1.4636  1.4922 -0.3310
  778MOL0     H 2661   9.254   1.242   0.773  0.2537 -2.0186 -0.2381
  778MOL0     H 2662   9.423   1.333   0.738 -2.1017  0.4991  2.3923
  778MOL0     H 2663   9.591   1.286   0.805 -1.0289 -0.7681 -1.8747
  778MOL0     H 2664   9.471   1.552   0.850 -0.5814 -0.3009 -0.8647
  778MOL0     H 2665   9.539   1.528   0.700  1.1770  1.2108 -0.2414
  778MOL0     H 2666   9.768   1.485   0.778  0.3998 -1.4475  1.3980
  778MOL0     H 2667   9.714   1.461   0.937  4.2953  1.8321 -0.3975
  778MOL0     H 2668   9.722   1.717   0.778 -1.7889 -0.2669  0.0268
  778MOL0     H 2669   9.623   1.700   0.932 -0.3464 -1.9858  0.6724
  778MOL0     H 2670   9.930   1.655   0.916  1.5629 -0.3106  2.4455
  778MOL0     H 2671   9.831   1.651   1.058 -0.6017  0.6867  0.6147
  778MOL0     H 2672   9.763   1.887   0.962 -0.0106 -0.0234 -3.4526
  778MOL0     H 2673   9.896   1.872   0.848  2.1328 -0.9250  0.9866
  778MOL0     H 2674  10.000   1.817   1.123  0.2451  1.1392  1.3824
  778MOL0     H 2675  10.054   1.930   1.001 -0.3902  1.8386 -1.2384
  778MOL0     H 2676   9.991   2.021   1.224  0.4650 -0.1270  0.1067
  778MOL0     H 2677   9.833   1.961   1.219  0.8790 -0.2553  0.1538
  778MOL0     H 2678   9.406   1.222   1.163 -1.0417  1.5054  0.1356
  778MOL0     H 2679   9.222   1.073   1.240 -0.1087 -0.8828 -0.6286
  778MOL0     H 2680   8.713   1.073   1.315 -2.9791 -0.3719  2.7649
  778MOL0     H 2681   8.563   0.919   1.437 -0.1861  2.0416 -1.0533
  778MOL0     H 2682   9.144   0.866   1.702  1.8860  0.3302 -0.6366
  778MOL0     H 2683   9.310   1.033   1.730  2.9416 -2.7420  2.5508
  778MOL0     H 2684   9.415   1.552   1.861 -0.4852  3.0015  1.9321
  778MOL0     H 2685   9.570   1.686   1.948 -0.6730 -0.2501  1.4440
  778MOL0     H 2686   9.668   1.790   2.109 -0.4582 -0.5524  0.0118
  778MOL0     H 2687   9.806   1.758   2.009 -0.7327 -1.2154 -1.4973
  778MOL0     H 2688   9.805   1.823   2.311  0.9578  1.4323  1.3710
  778MOL0     H 2689   9.953   1.768   2.229  0.0370  0.6881  0.7117
  778MOL0     H 2690   9.918   2.021   2.246  2.3527  2.4603 -2.4782
  778MOL0     H 2691   9.782   2.000   2.133 -0.0933 -0.6382 -0.9585
  778MOL0     H 2692  10.072   1.931   2.083 -1.2738 -2.1833 -0.2014
  778MOL0     H 2693   9.951   1.892   1.961  2.0228  0.5137 -1.8910
  778MOL0     H 2694   9.995   2.298   1.866  0.6510  0.1437  0.8782
  778MOL0     H 2695   9.727   1.353   2.187 -0.6373  1.2135  0.2562
  778MOL0     H 2696   9.571   1.211   2.082  1.7601  0.6588  1.9959
  779MOL0     O 2697   2.593   4.520   3.396  0.0864 -0.3282  0.7495
  779MOL0     C 2698   2.647   4.427   3.448 -0.7122 -1.0923  0.0303
  779MOL0     O 2699   2.589   4.320   3.512  0.4800 -0.0230  0.2031
  779MOL0     C 2700   2.451   4.308   3.540 -0.2147  0.2954 -0.8080
  779MOL0     C 2701   2.411   4.203   3.638  0.0263 -0.2486 -0.1164
  779MOL0     C 2702   2.280   4.184   3.675 -0.0784 -1.5006 -1.1397
  779MOL0     C 2703   2.178   4.266   3.612 -0.3667  0.5613 -0.0801
  779MOL0     O 2704   2.042   4.256   3.633  0.4962  0.6650 -0.1422
  779MOL0     C 2705   1.994   4.179   3.744  0.2325  0.4407  0.7496
  779MOL0     C 2706   1.853   4.155   3.712 -0.2754 -0.2346 -0.4984
  779MOL0     C 2707   1.789   4.109   3.837 -0.0525 -0.4390 -0.0940
  779MOL0     C 2708   1.766   4.227   3.934  0.4281 -0.2491 -0.6895
  779MOL0     C 2709   1.666   4.200   4.052 -0.1795  1.3804 -0.7433
  779MOL0     C 2710   1.523   4.219   3.988 -0.1171  0.2259 -0.5498
  779MOL0     C 2711   1.405   4.179   4.083  0.6836 -0.2916  0.6382
  779MOL0     C 2712   1.267   4.204   4.023 -1.2803 -0.5505  0.0472
  779MOL0     N 2713   1.161   4.148   4.104 -1.0425 -0.1535 -0.0989
  779MOL0     C 2714   1.080   4.204   4.204 -0.3738 -0.4914  0.2429
  779MOL0     C 2715   0.983   4.122   4.227  0.5202  0.4481  0.0802
  779MOL0     C 2716   0.872   4.137   4.330 -0.6815  1.0883 -0.3342
  779MOL0     C 2717   0.923   4.094   4.467  0.5399 -0.4124 -0.6434
  779MOL0     C 2718   0.827   4.115   4.583 -1.2218  0.4401  0.1360
  779MOL0     C 2719   0.686   4.059   4.577  0.0095 -0.9027 -0.0091
  779MOL0     O 2720   0.609   4.089   4.695 -0.1779 -0.6793 -0.4592
  779MOL0     C 2721   0.486   4.016   4.703  0.4764  0.1411 -0.0985
  779MOL0     C 2722   0.441   3.904   4.630  0.2204  0.1199  0.5877
  779MOL0     C 2723   0.316   3.856   4.658 -0.1906 -0.1933  0.4834
  779MOL0     C 2724   0.226   3.918   4.748  0.3707 -0.4292 -0.0958
  779MOL0     C 2725   0.090   3.875   4.761  0.1525 -1.0194  0.3690
  779MOL0     O 2726  -0.016   3.977   4.756 -0.4559 -0.2024  0.0319
  779MOL0     C 2727  -0.141   3.931   4.775 -0.8359  0.4898 -1.0741
  779MOL0     C 2728  -0.174   3.851   4.887 -0.4398 -0.2823 -0.0708
  779MOL0     C 2729  -0.316   3.834   4.911 -0.0029 -0.3988 -0.5025
  779MOL0     C 2730  -0.420   3.888   4.833 -0.3589  0.2147 -0.2336
  779MOL0     O 2731  -0.554   3.866   4.857  0.1514 -0.1815  0.1506
  779MOL0     C 2732  -0.591   3.798   4.975  0.0944  1.3712 -0.5007
  779MOL0     C 2733  -0.745   3.798   4.960  0.2428 -0.6379 -0.2531
  779MOL0     C 2734  -0.806   3.717   5.075 -0.9317 -0.0412 -0.4717
  779MOL0     C 2735  -0.958   3.751   5.072 -0.7643  0.1028 -0.9596
  779MOL0     C 2736  -1.031   3.673   5.177  0.5356  0.1052 -0.5681
  779MOL0     C 2737  -1.183   3.691   5.160  0.9078  0.3510 -0.9549
  779MOL0     C 2738  -1.263   3.684   5.298 -0.4894  0.7120 -0.1462
  779MOL0     C 2739  -1.234   3.552   5.369  0.7777 -0.4402  0.0177
  779MOL0    Cl 2740  -1.329   3.558   5.518 -0.0555  0.1651 -0.3829
  779MOL0     C 2741  -0.377   3.963   4.729 -0.4608 -0.5248 -0.3818
  779MOL0     C 2742  -0.241   3.991   4.703  0.0897 -0.3123 -0.3394
  779MOL0     O 2743   0.072   3.757   4.749 -0.7523 -0.1034 -0.5663
  779MOL0     C 2744   0.267   4.029   4.821 -0.4263  0.0637 -0.5924
  779MOL0     C 2745   0.401   4.078   4.798 -0.4952  0.6613  0.7299
  779MOL0     N 2746   0.999   4.015   4.143 -0.1132  0.4401  0.0293
  779MOL0     N 2747   1.106   4.030   4.078 -1.1334  0.4275  0.2377
  779MOL0     C 2748   2.213   4.359   3.521 -0.2606 -0.4108  0.1394
  779MOL0     C 2749   2.342   4.390   3.485 -0.6967  0.0011  0.0021
  779MOL0     C 2750   2.791   4.413   3.417  0.3375  0.4091  0.6003
  779MOL0     C 2751   2.874   4.504   3.345 -0.5129  0.5544 -0.7641
  779MOL0     C 2752   3.013   4.482   3.339 -1.0610  0.1597  0.6435
  779MOL0     C 2753   3.068   4.362   3.380  0.5393  0.3208  0.7145
  779MOL0     O 2754   3.202   4.335   3.369  0.2775 -0.5958 -0.3881
  779MOL0     C 2755   3.291   4.437   3.316  0.3022  0.1650  0.2222
  779MOL0     C 2756   3.417   4.366   3.265 -0.0039  0.4252  0.0368
  779MOL0     C 2757   3.523   4.471   3.243  0.0250  0.1051 -0.3892
  779MOL0     C 2758   3.643   4.410   3.183  1.0365  1.1673  0.8477
  779MOL0     C 2759   3.743   4.510   3.164  0.0800 -0.4608 -0.2957
  779MOL0     C 2760   3.823   4.598   3.139 -0.0076  0.4958 -0.2134
  779MOL0     C 2761   2.985   4.264   3.432 -0.6266  0.3973 -0.5472
  779MOL0     C 2762   2.850   4.297   3.460 -0.4142  0.2262 -0.0416
  779MOL0     H 2763   2.496   4.148   3.677  0.9489  0.5023 -1.0255
  779MOL0     H 2764   2.250   4.120   3.757  0.4677 -1.7950 -1.1686
  779MOL0     H 2765   2.010   4.239   3.833  1.0113  0.1237  0.8287
  779MOL0     H 2766   2.046   4.084   3.757  0.4769  0.0685 -2.1694
  779MOL0     H 2767   1.843   4.074   3.639 -0.2156 -1.6743  1.0367
  779MOL0     H 2768   1.808   4.247   3.672 -0.8696 -0.8765 -1.3429
  779MOL0     H 2769   1.833   4.020   3.884  0.5606  1.1646  2.6178
  779MOL0     H 2770   1.687   4.082   3.808 -1.0323  0.7644  1.9630
  779MOL0     H 2771   1.860   4.243   3.986 -0.9313  0.5115  1.6873
  779MOL0     H 2772   1.724   4.317   3.889 -0.6026 -0.4262 -0.1175
  779MOL0     H 2773   1.675   4.272   4.133 -1.8890  0.2229  0.5489
  779MOL0     H 2774   1.664   4.096   4.087  0.3972  1.8787  0.8485
  779MOL0     H 2775   1.515   4.163   3.895  0.3481  3.4070 -2.6374
  779MOL0     H 2776   1.512   4.326   3.970  1.0671  0.3151 -0.8352
  779MOL0     H 2777   1.403   4.072   4.106 -0.6452 -0.2080  0.9824
  779MOL0     H 2778   1.418   4.239   4.174 -1.9628  0.1804  0.7875
  779MOL0     H 2779   1.271   4.164   3.921  0.1963 -0.2253 -0.0456
  779MOL0     H 2780   1.252   4.312   4.011  0.3774 -0.1485  1.2146
  779MOL0     H 2781   1.091   4.299   4.255 -0.2521  0.1338 -0.9083
  779MOL0     H 2782   0.790   4.072   4.298  0.3376  0.4219 -1.6804
  779MOL0     H 2783   0.823   4.235   4.339 -1.3903  0.6025  1.5994
  779MOL0     H 2784   1.016   4.152   4.477  0.4998 -0.6208  1.2880
  779MOL0     H 2785   0.944   3.987   4.461 -2.3086 -1.0699 -0.0442
  779MOL0     H 2786   0.871   4.083   4.678 -2.7428 -2.2984  0.0161
  779MOL0     H 2787   0.815   4.222   4.602  0.9993  0.3454  2.6903
  779MOL0     H 2788   0.702   3.953   4.559  0.7921 -0.7796 -0.0904
  779MOL0     H 2789   0.643   4.115   4.494  0.2849 -1.1018 -0.2874
  779MOL0     H 2790   0.500   3.851   4.556 -1.1111 -4.5829  2.4810
  779MOL0     H 2791   0.274   3.785   4.588 -0.6686 -0.7715  1.3411
  779MOL0     H 2792  -0.105   3.805   4.957  3.1295  1.5509 -2.0912
  779MOL0     H 2793  -0.333   3.769   4.996 -1.2264 -0.2820 -0.6369
  779MOL0     H 2794  -0.571   3.852   5.068 -1.2074 -0.7685  1.1216
  779MOL0     H 2795  -0.553   3.699   5.002  0.4726  1.8085  0.6468
  779MOL0     H 2796  -0.775   3.766   4.859 -1.0473  0.0194 -0.0897
  779MOL0     H 2797  -0.777   3.902   4.968 -1.5105 -1.2646  1.7401
  779MOL0     H 2798  -0.758   3.759   5.165  0.6701 -0.8514 -0.8998
  779MOL0     H 2799  -0.779   3.611   5.067 -0.8971  0.0658 -1.9113
  779MOL0     H 2800  -0.975   3.859   5.070  1.1217  0.4813  0.3315
  779MOL0     H 2801  -0.996   3.717   4.975 -0.3532 -0.6836 -0.8496
  779MOL0     H 2802  -1.020   3.717   5.277 -1.4110  1.6890 -0.9875
  779MOL0     H 2803  -1.010   3.565   5.177  1.4171  0.2268  1.4072
  779MOL0     H 2804  -1.218   3.614   5.091 -1.5648 -0.4906  1.0554
  779MOL0     H 2805  -1.200   3.791   5.120 -2.6471  0.1308 -0.3577
  779MOL0     H 2806  -1.234   3.765   5.365  3.1659 -1.1288  0.7287
  779MOL0     H 2807  -1.370   3.695   5.276 -0.6195  0.3531  0.2852
  779MOL0     H 2808  -1.128   3.534   5.388  0.8455 -0.4063 -0.3275
  779MOL0     H 2809  -1.271   3.472   5.304 -1.1068 -0.5022  1.0826
  779MOL0     H 2810  -0.449   4.002   4.658 -1.5115 -1.2963  0.2193
  779MOL0     H 2811  -0.225   4.060   4.621 -3.2096  0.2320 -0.6351
  779MOL0     H 2812   0.206   4.094   4.882  0.2933 -0.1622  0.3761
  779MOL0     H 2813   0.437   4.170   4.842 -0.3189  0.2696  1.4146
  779MOL0     H 2814   2.140   4.428   3.480 -1.3688 -2.0175 -0.6872
  779MOL0     H 2815   2.362   4.467   3.412  1.0935 -0.4629 -0.0470
  779MOL0     H 2816   2.826   4.596   3.311  1.0889  1.0533 -1.8160
  779MOL0     H 2817   3.070   4.561   3.293  1.0414 -2.9759 -2.6563
  779MOL0     H 2818   3.312   4.500   3.403  0.0416 -0.0351  0.4348
  779MOL0     H 2819   3.252   4.489   3.229 -0.6251 -0.5675  0.1818
  779MOL0     H 2820   3.470   4.293   3.325 -0.7165 -0.2382 -0.1216
  779MOL0     H 2821   3.390   4.318   3.170  1.4350 -0.0038 -0.1702
  779MOL0     H 2822   3.546   4.523   3.337 -2.8016  0.0699  0.4351
  779MOL0     H 2823   3.490   4.543   3.168  0.6326  1.6037  0.7123
  779MOL0     H 2824   3.687   4.333   3.247  1.1464  1.2439  0.8654
  779MOL0     H 2825   3.622   4.363   3.086  1.6289  0.3191  1.1265
  779MOL0     H 2826   3.878   4.686   3.113  0.3181  0.2175 -0.4727
  779MOL0     H 2827   3.031   4.168   3.451 -2.4170 -0.4758 -0.3600
  779MOL0     H 2828   2.802   4.217   3.515 -1.8201  0.9052 -0.2396
  780MOL0     O 2829   7.251   5.103   4.194 -0.9291  0.7272  0.2600
  780MOL0     C 2830   7.250   5.220   4.221  0.5362 -0.0443 -0.1682
  780MOL0     O 2831   7.134   5.293   4.256 -0.0487  0.9073  0.0253
  780MOL0     C 2832   7.014   5.239   4.225 -0.4399 -0.6495 -0.3455
  780MOL0     C 2833   6.904   5.237   4.323 -0.0420 -0.1583 -0.8612
  780MOL0     C 2834   6.782   5.170   4.292  0.3304 -0.5476 -1.0297
  780MOL0     C 2835   6.759   5.110   4.170  0.3163 -0.3031  0.3759
  780MOL0     O 2836   6.638   5.046   4.142  0.3430 -0.1942  0.0233
  780MOL0     C 2837   6.595   5.038   4.000  0.3510  0.1811 -0.3100
  780MOL0     C 2838   6.441   5.006   4.005  0.2312 -0.1887 -0.6312
  780MOL0     C 2839   6.399   4.863   4.042  0.0609 -0.2830  0.2222
  780MOL0     C 2840   6.262   4.863   4.118  0.4593 -0.5872 -0.6229
  780MOL0     C 2841   6.197   4.725   4.132  0.7614 -0.3278 -0.1898
  780MOL0     C 2842   6.048   4.739   4.157  0.5274  0.0444  0.2872
  780MOL0     C 2843   5.967   4.758   4.023 -0.2263 -0.1800  0.0430
  780MOL0     C 2844   5.926   4.905   4.008  0.5033 -0.4105 -0.7638
  780MOL0     N 2845   5.775   4.936   4.021 -0.0717 -0.3392  0.0545
  780MOL0     C 2846   5.696   4.962   3.915  0.8088 -0.2065 -0.1144
  780MOL0     C 2847   5.579   4.973   3.974 -0.4643 -0.3369  0.0183
  780MOL0     C 2848   5.454   5.016   3.908 -0.3809 -0.1039  0.1374
  780MOL0     C 2849   5.330   4.987   3.994 -0.0213  0.2859 -0.8101
  780MOL0     C 2850   5.197   5.024   3.921 -0.4702  0.3634 -0.2218
  780MOL0     C 2851   5.085   5.012   4.022  0.1886 -0.3910 -0.7689
  780MOL0     O 2852   4.973   4.973   3.942  0.1690 -0.4330 -0.3082
  780MOL0     C 2853   4.859   4.941   4.009 -0.4308  0.0593 -0.1397
  780MOL0     C 2854   4.830   4.982   4.140  0.5117  0.5407 -0.3580
  780MOL0     C 2855   4.705   4.949   4.190  0.3250 -0.7515  0.5688
  780MOL0     C 2856   4.607   4.880   4.119 -0.0105 -0.3829 -0.3713
  780MOL0     C 2857   4.478   4.846   4.182 -0.8507  0.8650 -0.4590
  780MOL0     O 2858   4.371   4.829   4.101  0.1644 -0.2378  0.2133
  780MOL0     C 2859   4.244   4.845   4.156 -0.7081 -0.2977 -0.2898
  780MOL0     C 2860   4.153   4.739   4.139 -0.4183  0.0793 -0.1514
  780MOL0     C 2861   4.020   4.757   4.182 -0.7461 -0.5477 -0.0305
  780MOL0     C 2862   3.990   4.876   4.247 -0.1349 -0.7470 -0.5772
  780MOL0     O 2863   3.861   4.906   4.293 -0.6729 -0.4381  0.3805
  780MOL0     C 2864   3.752   4.811   4.285  0.1180  0.2682 -0.9347
  780MOL0     C 2865   3.646   4.845   4.391 -0.7779  0.7590  0.2308
  780MOL0     C 2866   3.513   4.866   4.317  0.0343 -0.0613 -0.6328
  780MOL0     C 2867   3.400   4.892   4.414 -0.4829  0.5618  0.4621
  780MOL0     C 2868   3.274   4.923   4.336  0.0020 -0.0216 -0.6191
  780MOL0     C 2869   3.185   5.005   4.430 -0.5018  1.1056 -0.2103
  780MOL0     C 2870   3.049   5.051   4.369 -0.4729 -0.5257  0.1905
  780MOL0     C 2871   2.956   5.080   4.484  0.5497  0.4454  0.4888
  780MOL0    Cl 2872   2.799   5.138   4.420  0.0758 -0.0207  0.0513
  780MOL0     C 2873   4.085   4.974   4.266  0.1267 -1.2674 -0.2406
  780MOL0     C 2874   4.217   4.965   4.224  0.3320 -0.4751  0.2174
  780MOL0     O 2875   4.483   4.847   4.302  0.8246 -0.6099  0.2899
  780MOL0     C 2876   4.639   4.845   3.989 -0.0139 -0.1143  0.0504
  780MOL0     C 2877   4.766   4.873   3.940  0.4232  0.7542 -0.0775
  780MOL0     N 2878   5.583   4.948   4.107 -0.2453 -0.3668 -0.0674
  780MOL0     N 2879   5.706   4.936   4.139 -0.4089  0.8273  0.1349
  780MOL0     C 2880   6.855   5.127   4.069  0.4040 -0.1492  0.1449
  780MOL0     C 2881   6.979   5.185   4.099  0.2000  0.8239  0.0309
  780MOL0     C 2882   7.377   5.298   4.212 -0.5333  0.1815  0.9920
  780MOL0     C 2883   7.504   5.243   4.164  0.3032  0.0702 -0.8634
  780MOL0     C 2884   7.614   5.321   4.151 -0.4728 -0.0566  0.4384
  780MOL0     C 2885   7.619   5.462   4.192  0.2133 -0.8162  0.0646
  780MOL0     O 2886   7.722   5.550   4.178 -0.0323  0.6801 -0.8502
  780MOL0     C 2887   7.855   5.500   4.178 -0.7024 -0.9964 -0.0120
  780MOL0     C 2888   7.912   5.506   4.323 -0.0013  0.6708  1.0964
  780MOL0     C 2889   8.039   5.422   4.341 -0.5968 -0.2269  0.5303
  780MOL0     C 2890   8.097   5.456   4.473 -0.4911 -0.1225 -0.2104
  780MOL0     C 2891   8.011   5.418   4.588  0.7766 -0.0079  0.3869
  780MOL0     C 2892   7.944   5.389   4.687 -0.8031 -0.6663 -0.4613
  780MOL0     C 2893   7.504   5.509   4.245  0.6157  0.0499  0.5756
  780MOL0     C 2894   7.385   5.434   4.249 -0.3233  0.4021  0.0496
  780MOL0     H 2895   6.905   5.284   4.421 -0.5575  2.3491 -1.9573
  780MOL0     H 2896   6.722   5.168   4.382 -0.4742  0.4131 -1.5218
  780MOL0     H 2897   6.644   4.951   3.956 -4.2619 -3.3529  0.7778
  780MOL0     H 2898   6.615   5.123   3.934  1.3220 -2.8227 -4.2572
  780MOL0     H 2899   6.393   5.036   3.912  1.0312  1.3748 -0.5705
  780MOL0     H 2900   6.400   5.077   4.077  1.2313  0.6867 -0.9004
  780MOL0     H 2901   6.474   4.813   4.106  0.1241  2.6943  2.7028
  780MOL0     H 2902   6.395   4.809   3.947 -1.7148  1.5496 -0.8290
  780MOL0     H 2903   6.263   4.921   4.211  0.2779  4.3106 -3.2959
  780MOL0     H 2904   6.197   4.930   4.061 -1.2593 -0.7966  0.9728
  780MOL0     H 2905   6.238   4.671   4.218  0.7867  0.7262  0.4762
  780MOL0     H 2906   6.218   4.673   4.038  0.3340 -0.6453 -0.1150
  780MOL0     H 2907   6.035   4.825   4.223 -0.0307  1.8265 -2.0195
  780MOL0     H 2908   6.012   4.647   4.205  0.0840 -1.2486 -2.3322
  780MOL0     H 2909   6.016   4.732   3.929 -3.4127  0.4342 -1.9262
  780MOL0     H 2910   5.876   4.699   4.033  0.0630 -0.5591  0.5140
  780MOL0     H 2911   5.950   4.917   3.902 -0.3777  0.1297 -0.9096
  780MOL0     H 2912   5.981   4.978   4.068 -0.3571  1.6617 -2.3680
  780MOL0     H 2913   5.709   4.982   3.809  0.3959 -1.5588 -0.4543
  780MOL0     H 2914   5.443   4.961   3.814  2.3875  0.2025 -0.4602
  780MOL0     H 2915   5.460   5.124   3.888  2.3266 -0.1343  0.3922
  780MOL0     H 2916   5.343   5.056   4.078  1.0579  2.0716 -2.3724
  780MOL0     H 2917   5.330   4.883   4.028  1.2359  0.0354 -1.5368
  780MOL0     H 2918   5.184   5.127   3.887  1.1050  0.1482 -1.6632
  780MOL0     H 2919   5.195   4.949   3.841 -1.6513 -0.4074  0.4960
  780MOL0     H 2920   5.082   5.102   4.084 -0.7991 -1.9734  1.6424
  780MOL0     H 2921   5.105   4.936   4.098 -1.1992  1.3113  1.3886
  780MOL0     H 2922   4.902   5.044   4.193  1.3979 -0.6392 -0.1464
  780MOL0     H 2923   4.699   4.986   4.292  1.1293  0.1909  0.2816
  780MOL0     H 2924   4.171   4.645   4.088 -2.6414 -0.1499 -0.6223
  780MOL0     H 2925   3.949   4.681   4.152  0.3660 -0.3832 -3.5422
  780MOL0     H 2926   3.791   4.709   4.293  1.6948  0.8432 -1.0171
  780MOL0     H 2927   3.712   4.825   4.184 -1.4016 -0.0746 -0.4174
  780MOL0     H 2928   3.680   4.917   4.466 -0.2057 -0.1249  0.8407
  780MOL0     H 2929   3.643   4.753   4.450  1.9894  3.1028  4.5231
  780MOL0     H 2930   3.481   4.773   4.269 -2.0525  0.2713 -0.0102
  780MOL0     H 2931   3.519   4.942   4.239  0.2776 -0.2796 -0.8275
  780MOL0     H 2932   3.394   4.796   4.467  1.0036 -0.8382 -1.7218
  780MOL0     H 2933   3.426   4.972   4.484  1.6341  0.9462 -0.6773
  780MOL0     H 2934   3.214   4.836   4.311  2.2221 -1.9961  0.5494
  780MOL0     H 2935   3.311   4.987   4.255 -0.0221 -0.1144 -0.7033
  780MOL0     H 2936   3.239   5.093   4.466 -1.0163  1.5051 -0.3868
  780MOL0     H 2937   3.170   4.942   4.518  1.2182 -0.8108 -1.2082
  780MOL0     H 2938   3.070   5.134   4.301  1.0796 -1.8043 -0.9674
  780MOL0     H 2939   2.998   4.968   4.319 -0.5772  0.0449 -0.6558
  780MOL0     H 2940   3.000   5.161   4.543  1.8766 -1.0661  1.6503
  780MOL0     H 2941   2.942   5.003   4.559 -0.4189  1.6043  1.5345
  780MOL0     H 2942   4.054   5.064   4.317  3.3301  0.0602 -0.3903
  780MOL0     H 2943   4.287   5.047   4.235 -0.9462  1.5822 -4.5380
  780MOL0     H 2944   4.573   4.796   3.918 -0.2211 -1.2162  0.9789
  780MOL0     H 2945   4.792   4.848   3.838 -0.4189  2.4116 -0.7391
  780MOL0     H 2946   6.845   5.103   3.964  0.4396 -0.7769  0.2761
  780MOL0     H 2947   7.053   5.172   4.020  2.0477 -2.7276  2.0588
  780MOL0     H 2948   7.497   5.140   4.130  0.7234  0.0861 -0.9997
  780MOL0     H 2949   7.702   5.269   4.116  2.0149  3.1285  1.4020
  780MOL0     H 2950   7.930   5.563   4.129  0.5192 -0.1251  2.7675
  780MOL0     H 2951   7.857   5.397   4.142 -1.5060 -0.6000 -1.2215
  780MOL0     H 2952   7.920   5.615   4.333 -1.0898  0.8382  0.3275
  780MOL0     H 2953   7.835   5.466   4.390 -2.2523  0.2998 -1.5294
  780MOL0     H 2954   8.119   5.448   4.271 -0.1421 -0.3197  1.0068
  780MOL0     H 2955   8.008   5.317   4.333  2.7580 -1.3753  0.7895
  780MOL0     H 2956   8.190   5.399   4.484 -0.0905  0.1866 -1.6929
  780MOL0     H 2957   8.135   5.558   4.486 -1.6089  0.3209 -0.3493
  780MOL0     H 2958   7.893   5.370   4.779 -2.7842  3.9453 -0.3688
  780MOL0     H 2959   7.504   5.616   4.260  0.8550  0.2632 -0.8184
  780MOL0     H 2960   7.289   5.476   4.276 -1.3467 -1.4489 -0.5329
  781MOL0     O 2961   7.181   5.422   7.231  0.4189 -0.0767  0.6148
  781MOL0     C 2962   7.216   5.516   7.170 -0.0656 -0.6542 -0.7877
  781MOL0     O 2963   7.140   5.595   7.082  0.2526 -0.2813 -0.4415
  781MOL0     C 2964   7.008   5.585   7.063  0.5531 -0.0712 -0.0328
  781MOL0     C 2965   6.960   5.634   6.939 -0.0748  0.1944 -0.4589
  781MOL0     C 2966   6.833   5.616   6.893  0.5163 -0.4123 -0.0842
  781MOL0     C 2967   6.733   5.554   6.971 -0.1443  0.0132 -0.9871
  781MOL0     O 2968   6.606   5.534   6.923  0.0527 -0.5254  0.2665
  781MOL0     C 2969   6.516   5.459   6.989  1.4002  0.6993 -0.2972
  781MOL0     C 2970   6.374   5.503   6.957 -0.0680 -0.5211  0.9449
  781MOL0     C 2971   6.261   5.399   6.983  0.1211 -0.2370 -0.2507
  781MOL0     C 2972   6.128   5.434   6.907  0.4303  0.6517 -0.2224
  781MOL0     C 2973   6.007   5.349   6.961 -0.7041 -0.6100  0.7298
  781MOL0     C 2974   5.945   5.409   7.097 -0.5713  1.0973  1.2360
  781MOL0     C 2975   5.807   5.364   7.153 -0.3798  0.1351 -0.0678
  781MOL0     C 2976   5.808   5.249   7.257 -0.0928  0.1027  0.2590
  781MOL0     N 2977   5.676   5.219   7.313 -0.0993  0.0171 -0.2592
  781MOL0     C 2978   5.642   5.246   7.444  0.0128  0.8872 -0.3156
  781MOL0     C 2979   5.509   5.232   7.456 -0.4875 -0.0882  0.4573
  781MOL0     C 2980   5.420   5.223   7.580 -0.7496 -0.1280  0.0384
  781MOL0     C 2981   5.325   5.346   7.592  0.0217 -0.5551 -0.1756
  781MOL0     C 2982   5.221   5.370   7.485 -1.0041  0.4926 -0.2686
  781MOL0     C 2983   5.147   5.248   7.449 -0.4048  0.2332 -0.5168
  781MOL0     O 2984   5.073   5.198   7.566  0.2220 -0.0904 -0.1346
  781MOL0     C 2985   4.953   5.253   7.616 -0.5026 -0.1021 -0.3743
  781MOL0     C 2986   4.889   5.359   7.559 -0.5493  0.1072  0.1726
  781MOL0     C 2987   4.805   5.439   7.640  0.4272 -0.4968  0.2728
  781MOL0     C 2988   4.778   5.410   7.775 -0.0871 -0.1182 -0.2564
  781MOL0     C 2989   4.681   5.492   7.850 -0.4793 -0.9590  0.2350
  781MOL0     O 2990   4.648   5.461   7.970  0.2549  0.0627  0.2545
  781MOL0     C 2991   4.521   5.500   8.009 -0.8977 -0.2950  0.5490
  781MOL0     C 2992   4.504   5.623   8.072 -0.0050 -0.5160 -0.6566
  781MOL0     C 2993   4.368   5.668   8.097 -0.6375 -0.1767 -1.0228
  781MOL0     C 2994   4.255   5.589   8.079  0.4027 -0.0907 -0.4358
  781MOL0     O 2995   4.112   5.615   8.101 -0.3378  0.3965  0.0726
  781MOL0     C 2996   4.086   5.727   8.184  0.8550  0.8157 -0.4276
  781MOL0     C 2997   3.941   5.749   8.219  0.0746  0.5687  0.1288
  781MOL0     C 2998   3.876   5.603   8.244 -0.7673 -0.8738 -0.3293
  781MOL0     C 2999   3.763   5.620   8.342  0.4388 -0.4804 -0.2806
  781MOL0     C 3000   3.697   5.490   8.374 -0.0793 -0.7441  0.1101
  781MOL0     C 3001   3.572   5.516   8.463 -0.3011 -0.4520 -0.7734
  781MOL0     C 3002   3.449   5.562   8.375 -0.1904 -0.5326 -0.2290
  781MOL0     C 3003   3.322   5.580   8.458 -1.2568 -0.8682 -0.1269
  781MOL0    Cl 3004   3.259   5.436   8.520  0.0477  0.2549 -0.2944
  781MOL0     C 3005   4.282   5.460   8.025 -0.3960 -0.1525 -0.2719
  781MOL0     C 3006   4.410   5.419   7.987  0.5393  0.1586  0.5150
  781MOL0     O 3007   4.639   5.591   7.781  0.1695 -0.2604 -0.3663
  781MOL0     C 3008   4.827   5.296   7.828 -0.1720 -0.2732 -0.8254
  781MOL0     C 3009   4.911   5.221   7.749  0.4965  0.2028  0.2098
  781MOL0     N 3010   5.462   5.194   7.331 -0.4219  0.1118  0.3099
  781MOL0     N 3011   5.566   5.188   7.243  0.4809  0.4062  0.2137
  781MOL0     C 3012   6.774   5.508   7.099  0.4120  0.0256  0.2269
  781MOL0     C 3013   6.910   5.524   7.144  0.0580  0.0251  0.0865
  781MOL0     C 3014   7.357   5.561   7.189  0.5804 -0.2683 -0.3609
  781MOL0     C 3015   7.393   5.685   7.127 -1.1876 -0.0104  0.5124
  781MOL0     C 3016   7.530   5.721   7.144 -1.0511  0.3497 -0.2681
  781MOL0     C 3017   7.630   5.642   7.208  0.0778  0.3504 -0.6857
  781MOL0     O 3018   7.766   5.659   7.208 -0.6271 -1.0937 -0.2550
  781MOL0     C 3019   7.821   5.781   7.151 -0.1839  1.2006  0.1281
  781MOL0     C 3020   7.965   5.748   7.111 -0.4487  0.1925 -0.3600
  781MOL0     C 3021   7.975   5.667   6.985  0.0566 -0.1250  0.6800
  781MOL0     C 3022   8.103   5.685   6.913 -0.1465 -0.4913  0.6480
  781MOL0     C 3023   8.121   5.572   6.821  0.2068  0.3393  0.4970
  781MOL0     C 3024   8.114   5.462   6.777  0.7054  0.5800  0.2840
  781MOL0     C 3025   7.582   5.539   7.280  0.2951  0.2724 -0.4523
  781MOL0     C 3026   7.445   5.493   7.265 -0.6858 -0.5896 -0.5254
  781MOL0     H 3027   7.019   5.698   6.875  1.2858  2.5410  2.8527
  781MOL0     H 3028   6.796   5.651   6.797  1.6263  0.8674 -0.0764
  781MOL0     H 3029   6.519   5.462   7.099 -1.2050 -2.3580  0.0318
  781MOL0     H 3030   6.522   5.354   6.959  0.6421 -0.3404  2.8320
  781MOL0     H 3031   6.368   5.535   6.852  0.7622 -0.1472  1.0037
  781MOL0     H 3032   6.357   5.595   7.014 -0.5398 -0.2283  0.3436
  781MOL0     H 3033   6.236   5.410   7.089  1.3031  1.6901 -0.1148
  781MOL0     H 3034   6.302   5.305   6.945  0.7351  0.1664 -0.5896
  781MOL0     H 3035   6.103   5.539   6.921 -2.8953  0.1788 -1.6747
  781MOL0     H 3036   6.145   5.405   6.803 -0.5491 -2.1822  0.3244
  781MOL0     H 3037   6.036   5.244   6.974  0.9968 -0.4284 -1.1113
  781MOL0     H 3038   5.932   5.357   6.881 -1.7622 -1.6460  1.5818
  781MOL0     H 3039   5.926   5.515   7.080  1.9812  1.5541  0.8499
  781MOL0     H 3040   6.026   5.397   7.170  1.6632 -1.3284 -1.4175
  781MOL0     H 3041   5.759   5.451   7.198 -1.9807 -1.1977  0.9046
  781MOL0     H 3042   5.741   5.339   7.069  1.0437  3.2663 -2.2988
  781MOL0     H 3043   5.871   5.281   7.341  1.5448  1.5636 -1.4339
  781MOL0     H 3044   5.851   5.160   7.212  0.4954  1.0749 -1.1843
  781MOL0     H 3045   5.718   5.270   7.517 -0.5004  2.7105 -0.3271
  781MOL0     H 3046   5.478   5.220   7.672 -2.6386  1.2297  1.3597
  781MOL0     H 3047   5.364   5.129   7.575 -1.6988  0.4774 -1.7044
  781MOL0     H 3048   5.388   5.433   7.609 -1.9027  1.4744 -2.6299
  781MOL0     H 3049   5.273   5.336   7.688  0.6734 -1.5038  0.0994
  781MOL0     H 3050   5.156   5.456   7.505 -1.0461  0.9073 -2.0056
  781MOL0     H 3051   5.282   5.398   7.398  0.7724 -2.0637  0.0298
  781MOL0     H 3052   5.211   5.165   7.416  1.0751  0.8807  0.6125
  781MOL0     H 3053   5.078   5.267   7.367 -0.6627  1.2202 -0.0809
  781MOL0     H 3054   4.913   5.398   7.461 -4.2543 -1.0767 -1.3742
  781MOL0     H 3055   4.777   5.528   7.586  0.1611 -0.0900  1.0629
  781MOL0     H 3056   4.590   5.680   8.106 -0.2651 -0.9645  0.8347
  781MOL0     H 3057   4.358   5.768   8.139 -0.7126  0.1780 -1.8444
  781MOL0     H 3058   4.129   5.819   8.142 -0.0512  1.5185  0.1610
  781MOL0     H 3059   4.140   5.702   8.275 -3.2932 -0.4169  1.9196
  781MOL0     H 3060   3.899   5.800   8.132 -1.6225  1.9414  1.6744
  781MOL0     H 3061   3.943   5.810   8.310 -1.7895 -0.3307  0.8240
  781MOL0     H 3062   3.950   5.543   8.297 -0.2662  0.6127  0.7213
  781MOL0     H 3063   3.835   5.562   8.151  0.2653 -0.8307 -0.8123
  781MOL0     H 3064   3.797   5.671   8.433 -0.4671 -0.5450  0.1036
  781MOL0     H 3065   3.687   5.687   8.302  0.2023 -2.4244 -3.3795
  781MOL0     H 3066   3.762   5.428   8.437 -1.3849 -0.9439  1.2952
  781MOL0     H 3067   3.682   5.436   8.281  1.7759 -0.0958 -0.6292
  781MOL0     H 3068   3.584   5.584   8.547 -2.2265 -1.3451  0.3049
  781MOL0     H 3069   3.546   5.423   8.515  0.1518 -0.2150 -0.1107
  781MOL0     H 3070   3.467   5.657   8.325  0.4776 -1.3306 -1.5817
  781MOL0     H 3071   3.432   5.487   8.297  1.3405 -1.1745  0.0143
  781MOL0     H 3072   3.245   5.624   8.394 -1.0619  0.1831  0.3480
  781MOL0     H 3073   3.331   5.644   8.546  1.0151  0.2752 -1.1118
  781MOL0     H 3074   4.200   5.391   8.011 -1.4677  1.5017 -2.8363
  781MOL0     H 3075   4.417   5.323   7.936 -0.5172  1.0786 -1.5153
  781MOL0     H 3076   4.812   5.267   7.931  0.3162 -0.1566 -0.7146
  781MOL0     H 3077   4.952   5.131   7.793 -1.0039  0.5213  2.3955
  781MOL0     H 3078   6.706   5.462   7.171  0.5234  0.3043  0.5158
  781MOL0     H 3079   6.933   5.482   7.242 -0.8175 -2.2399 -0.6077
  781MOL0     H 3080   7.335   5.756   7.069  0.5009  1.3892  0.4540
  781MOL0     H 3081   7.555   5.815   7.097  0.9744  1.3910  2.6090
  781MOL0     H 3082   7.810   5.870   7.214 -0.6848  1.3171 -0.1191
  781MOL0     H 3083   7.757   5.798   7.064 -0.6187 -0.3735  0.1144
  781MOL0     H 3084   8.008   5.847   7.090  0.4619 -0.0491  0.2952
  781MOL0     H 3085   8.025   5.703   7.191 -1.1680  2.1042  1.3484
  781MOL0     H 3086   7.892   5.695   6.919  0.1210  0.7188  0.9450
  781MOL0     H 3087   7.963   5.561   7.010 -1.1971 -0.1015  0.2614
  781MOL0     H 3088   8.107   5.784   6.866 -2.4235 -1.2415 -1.2816
  781MOL0     H 3089   8.181   5.682   6.990 -0.1328 -3.5124  0.6440
  781MOL0     H 3090   8.105   5.364   6.734 -2.9046 -0.0874  2.1557
  781MOL0     H 3091   7.653   5.488   7.344 -0.2676  0.0888  0.0376
  781MOL0     H 3092   7.412   5.409   7.325  1.1282 -0.5661  0.5966
  782MOL0     O 3093   4.459   9.159   0.311  1.0043 -0.0940 -0.6711
  782MOL0     C 3094   4.437   9.048   0.358 -0.3404  0.9486  0.2998
  782MOL0     O 3095   4.338   9.010   0.444  0.2344  0.3361 -0.7290
  782MOL0     C 3096   4.264   9.110   0.504 -0.1839 -0.8436 -0.6314
  782MOL0     C 3097   4.314   9.231   0.555 -0.3728  1.1716 -0.1167
  782MOL0     C 3098   4.232   9.317   0.626 -0.5246 -0.2771 -0.1866
  782MOL0     C 3099   4.094   9.294   0.643  0.4012 -0.7948 -0.3295
  782MOL0     O 3100   4.025   9.396   0.698 -0.4175 -0.5030 -0.4301
  782MOL0     C 3101   3.880   9.400   0.694  0.2765  0.0514  0.7629
  782MOL0     C 3102   3.840   9.531   0.761 -0.0827 -0.1629 -0.1112
  782MOL0     C 3103   3.695   9.528   0.817 -0.1251 -0.0534  0.7330
  782MOL0     C 3104   3.655   9.655   0.891 -0.3909 -0.3744  0.2784
  782MOL0     C 3105   3.503   9.679   0.923  0.1932  0.0748 -0.3409
  782MOL0     C 3106   3.446   9.577   1.032  0.1106  0.8160 -0.3280
  782MOL0     C 3107   3.296   9.590   1.034  0.6118 -0.9434  0.3845
  782MOL0     C 3108   3.254   9.720   1.105 -0.2962 -0.0749 -1.3262
  782MOL0     N 3109   3.109   9.711   1.134 -0.0187 -0.1530 -0.4008
  782MOL0     C 3110   3.052   9.630   1.235  0.2403 -0.1267 -0.1277
  782MOL0     C 3111   2.916   9.646   1.220  0.4574  0.2837  0.2532
  782MOL0     C 3112   2.804   9.579   1.290 -0.5918 -0.6590  0.2724
  782MOL0     C 3113   2.793   9.615   1.437  0.2627 -0.4215 -0.0916
  782MOL0     C 3114   2.809   9.765   1.477  0.5433 -0.0197  0.8765
  782MOL0     C 3115   2.728   9.874   1.404 -0.4065  0.6618 -0.1893
  782MOL0     O 3116   2.613   9.892   1.471  0.9829 -0.6805  0.2345
  782MOL0     C 3117   2.497   9.844   1.417 -0.2626  0.7823 -0.4499
  782MOL0     C 3118   2.387   9.835   1.507 -0.0928  0.5791 -0.1939
  782MOL0     C 3119   2.264   9.781   1.475 -0.3958 -0.1446  0.6158
  782MOL0     C 3120   2.241   9.738   1.345 -0.7268 -0.1124  0.1723
  782MOL0     C 3121   2.113   9.688   1.299  0.4309 -0.3990 -0.2821
  782MOL0     O 3122   1.998   9.733   1.367 -0.6131  0.3433  0.1463
  782MOL0     C 3123   1.867   9.700   1.330  0.1591 -0.4343 -0.6585
  782MOL0     C 3124   1.820   9.698   1.201 -0.2323 -0.3044 -0.4375
  782MOL0     C 3125   1.694   9.670   1.164  0.3222  1.3070 -0.4954
  782MOL0     C 3126   1.599   9.642   1.262  0.9918  0.0295 -0.1777
  782MOL0     O 3127   1.462   9.619   1.242 -0.4060 -0.0357 -0.2221
  782MOL0     C 3128   1.445   9.524   1.135  0.8631 -0.2896 -0.3092
  782MOL0     C 3129   1.290   9.518   1.110 -1.0861  0.0448 -0.7793
  782MOL0     C 3130   1.227   9.415   1.214 -0.4487 -0.6931  0.1214
  782MOL0     C 3131   1.247   9.273   1.164  0.2824  0.0931 -0.1364
  782MOL0     C 3132   1.198   9.169   1.265 -0.3290  0.6829 -0.2456
  782MOL0     C 3133   1.283   9.142   1.390  0.9508 -0.3564  0.3950
  782MOL0     C 3134   1.219   9.044   1.495 -0.0190  0.4983  0.0202
  782MOL0     C 3135   1.327   8.938   1.553  0.0194 -0.1148 -0.0791
  782MOL0    Cl 3136   1.481   9.017   1.593  0.5265  0.2806  0.5147
  782MOL0     C 3137   1.639   9.660   1.397 -0.3104  1.0329  1.1644
  782MOL0     C 3138   1.770   9.692   1.432 -0.7324 -0.5486 -0.8095
  782MOL0     O 3139   2.106   9.627   1.190 -0.5948  0.1621  0.2566
  782MOL0     C 3140   2.347   9.741   1.251  0.4980 -0.2425 -0.0641
  782MOL0     C 3141   2.474   9.796   1.289  0.0144  0.1195 -0.0693
  782MOL0     N 3142   2.897   9.740   1.117 -0.9221 -0.3972  0.0745
  782MOL0     N 3143   3.012   9.781   1.075 -0.2663 -0.0041 -0.4008
  782MOL0     C 3144   4.039   9.174   0.601 -0.3555  0.1526 -1.2457
  782MOL0     C 3145   4.127   9.082   0.532 -0.6360 -0.9008 -0.5546
  782MOL0     C 3146   4.547   8.952   0.319  0.4288 -1.6716  0.7240
  782MOL0     C 3147   4.521   8.815   0.332 -0.0829 -0.8408 -0.2403
  782MOL0     C 3148   4.627   8.721   0.302  1.3619  0.5524  0.7089
  782MOL0     C 3149   4.754   8.760   0.261 -0.0070 -0.1209 -0.4088
  782MOL0     O 3150   4.847   8.667   0.223  0.5488  0.1328 -0.4996
  782MOL0     C 3151   4.818   8.530   0.258 -0.1438 -0.2621  0.2026
  782MOL0     C 3152   4.954   8.450   0.233  0.7471 -0.1249  0.0225
  782MOL0     C 3153   4.923   8.304   0.230  0.6777 -0.4070 -0.7373
  782MOL0     C 3154   5.056   8.238   0.272 -0.4532 -0.0037  0.7233
  782MOL0     C 3155   5.051   8.096   0.263 -0.3933  0.4311 -1.1828
  782MOL0     C 3156   5.034   7.979   0.260  0.5038 -0.2828  0.1605
  782MOL0     C 3157   4.781   8.899   0.260  0.5689 -0.6782 -0.5328
  782MOL0     C 3158   4.676   8.996   0.278 -0.1434 -0.1913  0.7587
  782MOL0     H 3159   4.421   9.242   0.539  0.1567 -1.0943  1.3821
  782MOL0     H 3160   4.277   9.413   0.648 -0.5443 -0.0851 -0.9453
  782MOL0     H 3161   3.837   9.310   0.738 -3.3338  0.1367 -2.0868
  782MOL0     H 3162   3.835   9.424   0.597  1.7055  0.8889  0.2770
  782MOL0     H 3163   3.845   9.611   0.686 -0.8358 -1.1981 -1.3055
  782MOL0     H 3164   3.908   9.555   0.843 -1.6795  2.5916  0.5535
  782MOL0     H 3165   3.685   9.441   0.882 -1.5641  0.0299  0.6504
  782MOL0     H 3166   3.620   9.506   0.740  0.8088 -1.5595  0.2044
  782MOL0     H 3167   3.715   9.675   0.980  3.0599  2.6654 -2.4113
  782MOL0     H 3168   3.683   9.739   0.826  0.1731  0.1834  1.2023
  782MOL0     H 3169   3.442   9.660   0.834 -2.7226 -2.2067  1.9247
  782MOL0     H 3170   3.491   9.783   0.957 -2.4241 -0.9485  2.3395
  782MOL0     H 3171   3.490   9.591   1.131  1.3896 -2.2863 -0.3512
  782MOL0     H 3172   3.472   9.475   1.003  1.7586  1.4666 -1.2002
  782MOL0     H 3173   3.256   9.597   0.932  0.3565  1.3965  0.5956
  782MOL0     H 3174   3.255   9.499   1.078  0.4309 -0.3450  1.4788
  782MOL0     H 3175   3.260   9.815   1.051  0.0494  1.0624  0.6422
  782MOL0     H 3176   3.308   9.733   1.199 -0.3316 -0.0022 -1.3154
  782MOL0     H 3177   3.099   9.559   1.303 -1.5175 -1.3910 -0.1642
  782MOL0     H 3178   2.824   9.471   1.283  0.5377 -0.4597  0.3284
  782MOL0     H 3179   2.715   9.611   1.234  0.8997  2.1368 -0.6841
  782MOL0     H 3180   2.864   9.564   1.502  0.6614  2.1990  1.6720
  782MOL0     H 3181   2.691   9.587   1.465  0.7326 -2.0925  0.0531
  782MOL0     H 3182   2.785   9.769   1.584 -0.7022 -1.8799  0.7063
  782MOL0     H 3183   2.912   9.794   1.455 -0.1023  1.7941  0.1249
  782MOL0     H 3184   2.711   9.857   1.297 -5.3337  2.9082 -0.0190
  782MOL0     H 3185   2.788   9.965   1.410  0.7352  0.2853 -3.8123
  782MOL0     H 3186   2.392   9.877   1.607 -1.3702 -3.8486  2.0025
  782MOL0     H 3187   2.195   9.774   1.558 -0.5520 -1.5704  0.3867
  782MOL0     H 3188   1.889   9.737   1.128  0.3642  1.0321  0.7940
  782MOL0     H 3189   1.669   9.678   1.058  0.5761  0.5331 -0.6166
  782MOL0     H 3190   1.481   9.423   1.156  0.1082 -0.8690 -1.6665
  782MOL0     H 3191   1.486   9.558   1.040 -2.9566 -0.3000 -2.1680
  782MOL0     H 3192   1.270   9.485   1.008 -2.2170 -0.9126 -0.2671
  782MOL0     H 3193   1.259   9.622   1.129  2.8593  1.2271 -0.0346
  782MOL0     H 3194   1.121   9.439   1.225 -0.5396 -0.9297 -0.2395
  782MOL0     H 3195   1.270   9.439   1.312 -1.1343  2.6074 -0.2778
  782MOL0     H 3196   1.193   9.254   1.071  0.7805 -1.5221 -0.1295
  782MOL0     H 3197   1.355   9.261   1.152  1.0016  3.7585  1.2452
  782MOL0     H 3198   1.174   9.073   1.219  2.0037  0.1174 -0.4371
  782MOL0     H 3199   1.103   9.211   1.299 -1.3016  0.6065 -2.7286
  782MOL0     H 3200   1.304   9.241   1.433 -0.5070  1.4089 -2.6107
  782MOL0     H 3201   1.376   9.097   1.354 -0.1272 -3.5057  1.2418
  782MOL0     H 3202   1.173   9.092   1.582 -2.8249 -2.8922  0.6444
  782MOL0     H 3203   1.132   8.990   1.457  0.5164 -0.8407  0.6521
  782MOL0     H 3204   1.347   8.858   1.482  2.2715 -0.3773  0.7709
  782MOL0     H 3205   1.290   8.888   1.643 -0.6406  2.2028  1.0179
  782MOL0     H 3206   1.557   9.651   1.468 -1.0661  3.2721  0.6424
  782MOL0     H 3207   1.790   9.708   1.537 -2.8275 -0.3769 -0.3937
  782MOL0     H 3208   2.338   9.700   1.151 -0.7746  1.6867 -0.8032
  782MOL0     H 3209   2.558   9.780   1.222  0.0451 -0.6949  0.1533
  782MOL0     H 3210   3.933   9.153   0.604 -0.9411  2.6694 -1.7569
  782MOL0     H 3211   4.080   8.991   0.498 -0.6382 -0.2952 -2.2400
  782MOL0     H 3212   4.425   8.769   0.357 -1.1839 -0.0718 -2.6626
  782MOL0     H 3213   4.590   8.619   0.297 -1.5388  1.2980  3.5501
  782MOL0     H 3214   4.742   8.491   0.190  1.8988 -1.1096 -1.7314
  782MOL0     H 3215   4.786   8.515   0.361 -0.9754  0.5207  0.0663
  782MOL0     H 3216   4.995   8.477   0.136  2.8441  4.7487  1.9232
  782MOL0     H 3217   5.029   8.487   0.303  0.8804 -1.2423  0.5025
  782MOL0     H 3218   4.886   8.275   0.132 -1.7853 -0.0983  0.0496
  782MOL0     H 3219   4.847   8.275   0.304  2.1413  0.3430  1.1673
  782MOL0     H 3220   5.131   8.276   0.202  1.4536  1.5695  3.4650
  782MOL0     H 3221   5.093   8.267   0.370 -0.1397 -1.5274  1.0811
  782MOL0     H 3222   5.013   7.874   0.259  2.6192 -0.7810  1.1490
  782MOL0     H 3223   4.878   8.939   0.233 -0.5679  1.5346 -1.6336
  782MOL0     H 3224   4.699   9.101   0.265 -0.7232 -0.2624 -1.1472
  783MOL0     O 3225   7.835   7.682   2.778  0.2634  0.2085  0.2636
  783MOL0     C 3226   7.844   7.644   2.894 -0.6453  0.0549  0.1838
  783MOL0     O 3227   7.747   7.644   2.995 -0.2267  0.4053 -0.2172
  783MOL0     C 3228   7.614   7.681   2.971  0.5495  0.0247 -0.1007
  783MOL0     C 3229   7.576   7.788   2.893 -0.8863  0.1116  0.4571
  783MOL0     C 3230   7.440   7.826   2.883  0.3144 -0.4962 -0.5740
  783MOL0     C 3231   7.345   7.761   2.955  0.0344  0.4031 -0.2068
  783MOL0     O 3232   7.216   7.804   2.941  0.5065 -0.8525  0.1155
  783MOL0     C 3233   7.130   7.716   2.865 -0.0370  0.4042 -0.3700
  783MOL0     C 3234   6.988   7.778   2.880  1.3901 -0.3052 -0.5480
  783MOL0     C 3235   6.878   7.686   2.806 -0.0663  0.3361  0.0043
  783MOL0     C 3236   6.743   7.748   2.789 -0.8257  0.6031 -0.2593
  783MOL0     C 3237   6.735   7.860   2.688  0.0186 -0.4487  0.0368
  783MOL0     C 3238   6.589   7.905   2.663 -0.5716 -0.0958 -0.6950
  783MOL0     C 3239   6.491   7.795   2.627 -0.0457  0.2339  0.3379
  783MOL0     C 3240   6.361   7.864   2.581 -0.2776 -0.1492  0.6537
  783MOL0     N 3241   6.282   7.774   2.490 -0.0062 -0.4563  0.0512
  783MOL0     C 3242   6.203   7.661   2.512  0.0886 -0.2070  0.4006
  783MOL0     C 3243   6.157   7.629   2.386  0.3310  1.1366  0.2187
  783MOL0     C 3244   6.076   7.501   2.352  0.1604  0.4678 -0.5348
  783MOL0     C 3245   5.922   7.510   2.384  0.6418 -0.2083 -0.4490
  783MOL0     C 3246   5.895   7.505   2.537 -0.2088 -0.8390  0.2065
  783MOL0     C 3247   5.746   7.502   2.570 -0.8041  0.9995 -0.3819
  783MOL0     O 3248   5.680   7.615   2.521  0.3757  0.2757 -0.3806
  783MOL0     C 3249   5.542   7.616   2.495 -0.0913 -0.6303  0.3623
  783MOL0     C 3250   5.485   7.722   2.415  0.1618  0.1300 -0.3139
  783MOL0     C 3251   5.341   7.729   2.395 -1.0621  0.1108  0.2797
  783MOL0     C 3252   5.260   7.637   2.456  0.0273  0.4324  0.5561
  783MOL0     C 3253   5.110   7.645   2.445 -1.1394  0.2685  0.7471
  783MOL0     O 3254   5.039   7.580   2.540 -0.0781  0.1250 -0.6253
  783MOL0     C 3255   4.903   7.592   2.526  0.4170  0.9312 -0.3175
  783MOL0     C 3256   4.829   7.695   2.592 -0.2319  0.0667  0.2003
  783MOL0     C 3257   4.697   7.713   2.577 -0.1396  0.3585  0.0455
  783MOL0     C 3258   4.621   7.616   2.510 -0.0923  0.8355  0.2293
  783MOL0     O 3259   4.482   7.618   2.507  0.0101 -0.0362 -0.4562
  783MOL0     C 3260   4.416   7.492   2.490 -0.3504 -0.3846  0.2263
  783MOL0     C 3261   4.275   7.497   2.556 -0.5114  0.7344  0.1370
  783MOL0     C 3262   4.174   7.575   2.476  0.2291 -0.2734  0.2289
  783MOL0     C 3263   4.061   7.598   2.579 -0.5438 -1.0130  0.0203
  783MOL0     C 3264   3.938   7.656   2.509 -0.3105  0.1560  0.2149
  783MOL0     C 3265   3.826   7.720   2.599 -0.2602  0.5938 -0.0698
  783MOL0     C 3266   3.794   7.644   2.728 -0.5549 -0.1880  0.5427
  783MOL0     C 3267   3.704   7.732   2.821 -0.4014 -0.0836  0.6758
  783MOL0    Cl 3268   3.631   7.633   2.957  0.0099 -0.0091 -0.0762
  783MOL0     C 3269   4.694   7.517   2.443  0.2408  0.7377 -0.2091
  783MOL0     C 3270   4.830   7.502   2.444 -0.7419 -1.6026 -0.6139
  783MOL0     O 3271   5.077   7.715   2.347  0.8819  0.2497  0.2778
  783MOL0     C 3272   5.319   7.531   2.529  0.6817 -0.2837  0.9841
  783MOL0     C 3273   5.455   7.528   2.551 -0.6271  0.4472 -0.4742
  783MOL0     N 3274   6.195   7.723   2.298 -0.1467 -0.0761  1.2771
  783MOL0     N 3275   6.267   7.815   2.364 -0.2374 -0.0477 -0.7171
  783MOL0     C 3276   7.378   7.657   3.041 -0.5839  0.4901  0.5679
  783MOL0     C 3277   7.514   7.613   3.049 -0.3622 -0.6205  0.4773
  783MOL0     C 3278   7.968   7.578   2.945 -0.2678  0.3536  0.5302
  783MOL0     C 3279   8.074   7.559   2.852  0.5235 -0.4080  0.1013
  783MOL0     C 3280   8.196   7.498   2.885 -0.0165 -0.9309 -0.3609
  783MOL0     C 3281   8.218   7.461   3.015  0.4035  0.0713 -0.0926
  783MOL0     O 3282   8.333   7.410   3.063 -0.0990 -0.5783 -0.1715
  783MOL0     C 3283   8.424   7.353   2.967  0.1034 -0.1075  0.3318
  783MOL0     C 3284   8.548   7.299   3.035  0.3673 -0.9430 -0.4452
  783MOL0     C 3285   8.626   7.424   3.088  0.6590  0.7789 -0.1518
  783MOL0     C 3286   8.771   7.389   3.135 -0.1425 -0.1463  0.6224
  783MOL0     C 3287   8.837   7.519   3.154 -1.1155  0.0776  0.3800
  783MOL0     C 3288   8.914   7.610   3.158 -0.5970  0.0816  0.2335
  783MOL0     C 3289   8.115   7.484   3.108  0.2329  0.4173  0.4400
  783MOL0     C 3290   7.987   7.537   3.072 -0.0336 -0.7042 -1.1310
  783MOL0     H 3291   7.648   7.849   2.840 -0.5236 -0.9446 -0.2889
  783MOL0     H 3292   7.408   7.906   2.817  0.4867  0.0031 -0.0516
  783MOL0     H 3293   7.128   7.615   2.905 -1.4023 -0.9727 -3.5313
  783MOL0     H 3294   7.155   7.722   2.759 -1.4700 -2.9970 -1.0200
  783MOL0     H 3295   6.996   7.881   2.845  3.1424 -0.0193  0.5844
  783MOL0     H 3296   6.955   7.784   2.984 -0.0336 -2.1579 -0.8304
  783MOL0     H 3297   6.876   7.597   2.869 -0.3871  1.9387  2.3835
  783MOL0     H 3298   6.901   7.662   2.702  1.4319  4.4474 -0.8146
  783MOL0     H 3299   6.677   7.669   2.754 -0.3712  0.1291 -0.0482
  783MOL0     H 3300   6.716   7.789   2.887  0.2435  2.6091 -0.7461
  783MOL0     H 3301   6.772   7.824   2.591 -1.6658  2.4881 -1.8342
  783MOL0     H 3302   6.794   7.949   2.712 -0.4019  0.5846 -2.4741
  783MOL0     H 3303   6.587   7.982   2.585 -1.6413 -1.8354 -2.4760
  783MOL0     H 3304   6.554   7.954   2.754  0.4792 -2.5588  1.1569
  783MOL0     H 3305   6.536   7.730   2.552  0.4708 -0.1413  0.9735
  783MOL0     H 3306   6.476   7.730   2.713 -0.3303 -2.2310 -1.4824
  783MOL0     H 3307   6.383   7.955   2.526 -1.0280  0.3692  1.1975
  783MOL0     H 3308   6.295   7.895   2.662 -2.2309 -1.4069 -0.3689
  783MOL0     H 3309   6.174   7.611   2.604  1.0284 -1.3721  0.0855
  783MOL0     H 3310   6.119   7.418   2.409 -0.6286  0.5529  0.2152
  783MOL0     H 3311   6.103   7.475   2.249  0.5022  2.3624 -0.9554
  783MOL0     H 3312   5.871   7.433   2.326  0.5686 -0.7631  0.3281
  783MOL0     H 3313   5.876   7.602   2.348  1.1836  0.3615  0.2795
  783MOL0     H 3314   5.944   7.414   2.571  0.5434 -0.7719 -0.6625
  783MOL0     H 3315   5.938   7.587   2.595 -0.4281 -2.0536  2.1593
  783MOL0     H 3316   5.732   7.507   2.678 -1.9834  0.7096 -0.5003
  783MOL0     H 3317   5.706   7.410   2.526 -3.8207 -0.0769  3.9597
  783MOL0     H 3318   5.561   7.773   2.357  0.1437 -1.2910 -1.6449
  783MOL0     H 3319   5.300   7.810   2.335  2.7283  2.2750  0.3505
  783MOL0     H 3320   4.879   7.774   2.648 -0.6495  1.1999 -0.9671
  783MOL0     H 3321   4.641   7.794   2.623 -0.6965  0.4407 -0.7649
  783MOL0     H 3322   4.459   7.416   2.555 -0.3594  0.1985  0.9214
  783MOL0     H 3323   4.424   7.460   2.385  1.9187  0.5240  0.0506
  783MOL0     H 3324   4.298   7.542   2.652  3.5603  0.6749 -0.6426
  783MOL0     H 3325   4.239   7.395   2.573  3.3215 -0.9005 -0.4681
  783MOL0     H 3326   4.136   7.519   2.391 -2.0270 -1.2766  1.7998
  783MOL0     H 3327   4.210   7.672   2.440  1.0124  0.7786  3.4620
  783MOL0     H 3328   4.028   7.509   2.634  0.5357 -2.1777 -1.1547
  783MOL0     H 3329   4.085   7.682   2.646  0.8588 -0.6910 -0.8565
  783MOL0     H 3330   3.887   7.589   2.439  1.6418  0.5000 -1.6308
  783MOL0     H 3331   3.981   7.739   2.451  1.7958  1.1788  3.0573
  783MOL0     H 3332   3.732   7.729   2.544 -1.2166 -3.0523  0.7111
  783MOL0     H 3333   3.864   7.816   2.636  1.0526  0.1587 -0.2359
  783MOL0     H 3334   3.743   7.551   2.699  0.2434 -0.6097  0.4817
  783MOL0     H 3335   3.887   7.627   2.783  0.5094  4.1522  0.3991
  783MOL0     H 3336   3.618   7.772   2.767  0.5121  0.3818 -0.4722
  783MOL0     H 3337   3.765   7.815   2.858  1.2024 -1.8975  2.3556
  783MOL0     H 3338   4.638   7.442   2.388  0.6169  1.1462 -1.1640
  783MOL0     H 3339   4.886   7.421   2.398 -0.4076 -1.5714 -0.2733
  783MOL0     H 3340   5.251   7.453   2.561  0.6849 -0.0752  1.4975
  783MOL0     H 3341   5.491   7.446   2.613  0.9305  0.4294 -1.3451
  783MOL0     H 3342   7.299   7.618   3.104 -1.3705  3.2139  1.4058
  783MOL0     H 3343   7.540   7.524   3.107 -0.3011 -0.1454  1.1853
  783MOL0     H 3344   8.072   7.583   2.747  1.5478 -1.3459 -0.1400
  783MOL0     H 3345   8.275   7.505   2.811 -0.4213 -1.5346 -0.8602
  783MOL0     H 3346   8.448   7.413   2.879  0.1716 -0.8423 -0.1633
  783MOL0     H 3347   8.373   7.266   2.926 -2.1966  1.8734 -1.2692
  783MOL0     H 3348   8.522   7.233   3.118  1.9646 -0.2239  0.6834
  783MOL0     H 3349   8.609   7.247   2.960 -0.3455 -2.2436 -0.1617
  783MOL0     H 3350   8.575   7.465   3.176 -1.1672 -1.7687  0.1030
  783MOL0     H 3351   8.632   7.493   3.004 -1.6935  2.3777  0.8923
  783MOL0     H 3352   8.770   7.327   3.225  0.6684 -0.9557  0.1024
  783MOL0     H 3353   8.820   7.318   3.067  0.7670  2.1697 -1.2676
  783MOL0     H 3354   8.994   7.679   3.141 -1.8632  0.9195 -3.0605
  783MOL0     H 3355   8.128   7.455   3.212 -2.0329 -0.9106  0.4163
  783MOL0     H 3356   7.914   7.562   3.149  0.5844  0.1794 -0.8106
  784MOL0     O 3357   6.388   4.356   6.739  0.7835 -0.6780 -0.8029
  784MOL0     C 3358   6.417   4.404   6.632 -0.4829 -0.9926  0.0802
  784MOL0     O 3359   6.326   4.463   6.547 -1.0024  0.2689  0.3316
  784MOL0     C 3360   6.197   4.457   6.581 -0.4378 -1.1917 -0.0064
  784MOL0     C 3361   6.133   4.581   6.605  0.3047  0.5768  0.2734
  784MOL0     C 3362   5.997   4.582   6.639  0.3951 -0.8430 -0.0109
  784MOL0     C 3363   5.923   4.465   6.658 -0.3216 -0.2278 -1.2474
  784MOL0     O 3364   5.790   4.438   6.686 -0.2718 -0.4315  0.8714
  784MOL0     C 3365   5.719   4.557   6.725 -0.3593  0.3369  0.1351
  784MOL0     C 3366   5.572   4.554   6.698  0.3518  0.4708 -0.0823
  784MOL0     C 3367   5.508   4.418   6.737 -0.1661  0.3345  0.1736
  784MOL0     C 3368   5.512   4.387   6.891 -0.1883  0.3757  0.2936
  784MOL0     C 3369   5.448   4.501   6.969 -0.8750 -0.4707 -0.1855
  784MOL0     C 3370   5.409   4.463   7.113 -0.9948 -0.2224 -0.3722
  784MOL0     C 3371   5.327   4.569   7.169  0.8620 -0.6781  0.2872
  784MOL0     C 3372   5.283   4.543   7.314  0.4942  0.3970 -0.2772
  784MOL0     N 3373   5.171   4.443   7.314  0.5672 -0.1321  0.0148
  784MOL0     C 3374   5.049   4.456   7.258 -0.4974 -0.3405 -0.6804
  784MOL0     C 3375   4.976   4.351   7.305  0.1600  0.1008 -0.0334
  784MOL0     C 3376   4.829   4.337   7.265 -0.6062 -0.2233  0.1305
  784MOL0     C 3377   4.759   4.231   7.349 -0.1634  0.7050  0.8401
  784MOL0     C 3378   4.612   4.203   7.302 -0.1265 -0.7244 -0.2599
  784MOL0     C 3379   4.563   4.080   7.375  0.0191 -0.1498 -1.6215
  784MOL0     O 3380   4.541   4.110   7.517 -0.3151  0.3439  0.1861
  784MOL0     C 3381   4.418   4.148   7.568 -0.4649 -0.1077 -0.2528
  784MOL0     C 3382   4.300   4.174   7.491 -1.4245  0.2284  0.0774
  784MOL0     C 3383   4.178   4.200   7.548 -0.1559 -0.5660 -0.2070
  784MOL0     C 3384   4.167   4.198   7.693  0.9542  0.2609 -0.2204
  784MOL0     C 3385   4.032   4.197   7.759 -0.3306 -0.0583 -0.1320
  784MOL0     O 3386   3.928   4.247   7.687  0.0988  0.3357  0.2488
  784MOL0     C 3387   3.794   4.233   7.730  0.3275  0.1302 -0.0810
  784MOL0     C 3388   3.698   4.326   7.675 -0.2400 -0.7271  0.4207
  784MOL0     C 3389   3.557   4.312   7.695 -0.0413  0.6472  0.5352
  784MOL0     C 3390   3.512   4.208   7.783 -0.0135  0.4932  0.5499
  784MOL0     O 3391   3.379   4.188   7.828 -0.2032  0.0343 -0.6427
  784MOL0     C 3392   3.280   4.230   7.736  0.4229  0.1670 -0.0677
  784MOL0     C 3393   3.143   4.245   7.803 -0.7399  0.2196 -0.4295
  784MOL0     C 3394   3.034   4.246   7.701  0.2749 -0.9374 -0.1300
  784MOL0     C 3395   2.894   4.243   7.768  0.0311  0.4721  0.5637
  784MOL0     C 3396   2.788   4.229   7.655 -0.2296 -0.3307 -0.5079
  784MOL0     C 3397   2.653   4.207   7.715 -0.5311  0.4987 -0.4844
  784MOL0     C 3398   2.553   4.177   7.606 -0.8245  0.1068 -0.5959
  784MOL0     C 3399   2.484   4.042   7.633  0.2291 -0.2419  0.8606
  784MOL0    Cl 3400   2.401   4.052   7.781 -0.0931  0.2507  0.2777
  784MOL0     C 3401   3.607   4.121   7.839 -1.0892 -0.2658 -0.2047
  784MOL0     C 3402   3.744   4.138   7.818  0.0324  0.1571  1.3314
  784MOL0     O 3403   4.027   4.159   7.874 -0.3505  0.5080  0.4623
  784MOL0     C 3404   4.287   4.165   7.772  0.6681  0.3978 -0.4100
  784MOL0     C 3405   4.407   4.143   7.708  0.0095 -0.1325 -0.1865
  784MOL0     N 3406   5.058   4.270   7.388  0.1826  0.2678  0.3989
  784MOL0     N 3407   5.176   4.324   7.382 -0.2796 -0.7279 -0.7886
  784MOL0     C 3408   5.989   4.350   6.637 -0.3068 -0.0950 -0.7207
  784MOL0     C 3409   6.122   4.343   6.597 -0.3339 -0.4774  0.3381
  784MOL0     C 3410   6.552   4.416   6.585 -0.1690 -0.1225  0.0272
  784MOL0     C 3411   6.660   4.371   6.662  0.9321  0.2834  0.3230
  784MOL0     C 3412   6.784   4.369   6.597  0.0642 -0.8917 -0.6550
  784MOL0     C 3413   6.812   4.424   6.475 -0.2453  0.5779  0.1770
  784MOL0     O 3414   6.946   4.430   6.438 -0.5320 -0.1843  0.3011
  784MOL0     C 3415   6.971   4.492   6.308  0.0874  1.0325 -0.3474
  784MOL0     C 3416   7.111   4.460   6.266  0.3332 -0.2187  0.6392
  784MOL0     C 3417   7.216   4.447   6.378 -0.1950 -0.2982  1.0479
  784MOL0     C 3418   7.227   4.580   6.447 -0.3215  0.3578  0.0382
  784MOL0     C 3419   7.317   4.581   6.565 -0.7331  0.2918 -0.6544
  784MOL0     C 3420   7.405   4.600   6.648 -0.1411  0.1917 -1.1228
  784MOL0     C 3421   6.708   4.475   6.406 -0.4901  0.1019  0.9299
  784MOL0     C 3422   6.578   4.464   6.459 -0.0097  1.0997  0.8706
  784MOL0     H 3423   6.191   4.671   6.588  0.9693  0.5352  2.0831
  784MOL0     H 3424   5.951   4.679   6.660 -0.2232 -1.2895  0.7619
  784MOL0     H 3425   5.751   4.647   6.671  0.0556  0.9949  1.4280
  784MOL0     H 3426   5.747   4.576   6.830  1.3651 -2.5988  0.3113
  784MOL0     H 3427   5.545   4.564   6.592 -3.3346 -1.3374  0.4884
  784MOL0     H 3428   5.519   4.632   6.754 -1.4308 -0.4271 -0.4322
  784MOL0     H 3429   5.568   4.340   6.688 -1.8507  0.2526 -1.9089
  784MOL0     H 3430   5.410   4.415   6.689 -0.2859 -0.3394  0.4505
  784MOL0     H 3431   5.466   4.289   6.909  0.6747 -0.7581 -2.9837
  784MOL0     H 3432   5.610   4.381   6.940 -1.6351  2.5229  3.9042
  784MOL0     H 3433   5.352   4.523   6.920 -0.2401 -1.1304 -1.7617
  784MOL0     H 3434   5.511   4.588   6.987 -0.8640 -0.7744  1.3634
  784MOL0     H 3435   5.495   4.453   7.179 -2.2805  2.6336  1.9397
  784MOL0     H 3436   5.344   4.374   7.114 -2.6846  0.9602 -0.4601
  784MOL0     H 3437   5.393   4.655   7.184  4.7052 -3.5871  1.7937
  784MOL0     H 3438   5.242   4.588   7.103  0.6698 -0.1252  0.6834
  784MOL0     H 3439   5.256   4.630   7.374  1.4013  0.1931  0.4549
  784MOL0     H 3440   5.363   4.485   7.360  0.1778  1.8520  2.3254
  784MOL0     H 3441   5.009   4.542   7.207  1.0157  0.1227 -1.1359
  784MOL0     H 3442   4.828   4.308   7.159  2.0776 -2.7842  0.6868
  784MOL0     H 3443   4.786   4.438   7.273  3.7400  1.8712 -0.1822
  784MOL0     H 3444   4.757   4.262   7.454  1.9767 -2.2509  1.8956
  784MOL0     H 3445   4.816   4.137   7.344 -2.6893 -0.8507 -0.4196
  784MOL0     H 3446   4.549   4.290   7.322 -0.1177 -0.1197 -2.5736
  784MOL0     H 3447   4.615   4.185   7.194 -1.2956  1.5125 -0.7273
  784MOL0     H 3448   4.636   3.999   7.367 -0.3239 -0.5225 -1.0403
  784MOL0     H 3449   4.471   4.048   7.326  0.1320 -0.1837 -1.8153
  784MOL0     H 3450   4.300   4.172   7.382  0.7293  3.1057 -0.1123
  784MOL0     H 3451   4.096   4.215   7.479  2.3919 -0.1991 -3.4342
  784MOL0     H 3452   3.726   4.404   7.605 -1.6252 -0.8525 -0.3094
  784MOL0     H 3453   3.491   4.384   7.647 -0.1803  0.0792 -0.1351
  784MOL0     H 3454   3.259   4.149   7.665  2.6145 -1.3206  0.8628
  784MOL0     H 3455   3.308   4.322   7.684  3.1852 -0.8867 -0.5874
  784MOL0     H 3456   3.145   4.336   7.864 -1.2036  1.4813 -2.2280
  784MOL0     H 3457   3.138   4.154   7.863  1.4805 -0.4916 -1.2304
  784MOL0     H 3458   3.048   4.159   7.636 -2.6708 -0.8901 -0.9883
  784MOL0     H 3459   3.039   4.331   7.632 -0.3889  0.5579  1.5865
  784MOL0     H 3460   2.886   4.161   7.840  0.0107  0.2528  0.3120
  784MOL0     H 3461   2.871   4.329   7.831 -1.8821  0.9270 -0.6761
  784MOL0     H 3462   2.806   4.148   7.584 -0.9463  0.9186 -2.1686
  784MOL0     H 3463   2.784   4.320   7.595  1.2395 -1.3860 -2.3166
  784MOL0     H 3464   2.625   4.300   7.764 -0.5944 -0.2880  1.0363
  784MOL0     H 3465   2.652   4.126   7.789 -0.4244  1.5078  0.6521
  784MOL0     H 3466   2.481   4.258   7.602 -1.2395 -0.2486 -0.4187
  784MOL0     H 3467   2.604   4.187   7.510 -0.2787  3.2471 -0.0703
  784MOL0     H 3468   2.556   3.960   7.640  1.1386  0.3722 -0.8358
  784MOL0     H 3469   2.411   4.027   7.553 -2.6957  1.0120  3.0745
  784MOL0     H 3470   3.572   4.040   7.902  2.3621 -1.5189  0.3251
  784MOL0     H 3471   3.813   4.068   7.863  0.0726 -0.1130  0.8573
  784MOL0     H 3472   4.280   4.159   7.880  3.7701  0.4655 -0.1315
  784MOL0     H 3473   4.492   4.121   7.772  1.4421  0.4105 -1.8152
  784MOL0     H 3474   5.943   4.252   6.648  1.1948 -0.6828  0.5730
  784MOL0     H 3475   6.168   4.246   6.582  1.6638  0.5380 -0.4558
  784MOL0     H 3476   6.639   4.328   6.760  1.9291  0.4988  0.6508
  784MOL0     H 3477   6.868   4.329   6.653  0.0405  1.2070  1.0081
  784MOL0     H 3478   6.957   4.600   6.324 -3.5143  0.5152  1.0450
  784MOL0     H 3479   6.896   4.464   6.233  1.3393  1.1531 -1.6819
  784MOL0     H 3480   7.104   4.365   6.211 -0.4160  0.8276 -1.1556
  784MOL0     H 3481   7.132   4.521   6.177 -2.6515  1.3918  0.8825
  784MOL0     H 3482   7.315   4.413   6.348 -0.1976  0.7068 -0.1779
  784MOL0     H 3483   7.170   4.380   6.452 -2.5546  0.9863  0.8560
  784MOL0     H 3484   7.258   4.658   6.377 -1.0934  0.4759 -0.1763
  784MOL0     H 3485   7.131   4.614   6.486 -0.3019  0.2500  0.1827
  784MOL0     H 3486   7.483   4.616   6.720 -0.9142  0.5940 -0.3526
  784MOL0     H 3487   6.717   4.500   6.300  1.0102 -0.9844  0.7633
  784MOL0     H 3488   6.495   4.489   6.395  1.2696 -0.3869 -1.5040
  785MOL0     O 3489   2.745   5.991   0.509  0.3659 -0.2312  0.1375
  785MOL0     C 3490   2.784   6.097   0.462  0.3042 -0.4822  0.4264
  785MOL0     O 3491   2.696   6.189   0.409 -0.1176  0.1757 -0.0522
  785MOL0     C 3492   2.563   6.172   0.414  0.1602  0.6865 -0.3598
  785MOL0     C 3493   2.491   6.202   0.299  0.3342  0.2616  0.7301
  785MOL0     C 3494   2.356   6.186   0.283  0.9413 -0.0073 -0.8571
  785MOL0     C 3495   2.277   6.148   0.399  0.2329  0.3487  0.5338
  785MOL0     O 3496   2.143   6.156   0.388 -0.0259 -0.7853  0.1240
  785MOL0     C 3497   2.053   6.178   0.498  0.0156  0.2609 -0.8131
  785MOL0     C 3498   1.901   6.187   0.452  0.0141 -0.8265 -0.0459
  785MOL0     C 3499   1.802   6.188   0.564  0.7888 -0.0884 -0.0496
  785MOL0     C 3500   1.746   6.046   0.591  0.3241  0.5655  0.2467
  785MOL0     C 3501   1.637   6.054   0.689 -0.0336 -1.0192 -0.3046
  785MOL0     C 3502   1.602   5.920   0.753 -0.3081  0.9627  0.1741
  785MOL0     C 3503   1.484   5.918   0.853 -0.3772 -0.4563 -0.2543
  785MOL0     C 3504   1.450   5.774   0.879  0.0009  0.3353 -0.3810
  785MOL0     N 3505   1.342   5.757   0.975 -0.4416 -0.3082 -0.4531
  785MOL0     C 3506   1.342   5.784   1.108 -0.1479  0.5980  1.0042
  785MOL0     C 3507   1.213   5.780   1.149 -0.7386  0.0763  0.8652
  785MOL0     C 3508   1.170   5.802   1.290  0.4270  0.8159 -0.1798
  785MOL0     C 3509   1.031   5.861   1.290  0.8543 -0.6640  1.2948
  785MOL0     C 3510   0.978   5.875   1.431  0.2689  0.4807  0.4799
  785MOL0     C 3511   0.846   5.944   1.426  1.1759  0.0187  0.1691
  785MOL0     O 3512   0.798   5.954   1.556 -0.4783  0.4322 -0.4904
  785MOL0     C 3513   0.686   6.030   1.571  0.1975  0.2957 -0.4421
  785MOL0     C 3514   0.605   6.083   1.468  0.1506 -0.1687  0.0943
  785MOL0     C 3515   0.506   6.177   1.497 -0.5656 -0.3228  0.1548
  785MOL0     C 3516   0.493   6.231   1.627 -0.7795 -0.7417  0.3715
  785MOL0     C 3517   0.394   6.330   1.653  0.0408 -0.3036  0.5658
  785MOL0     O 3518   0.397   6.375   1.781  0.1941  0.7938 -0.3996
  785MOL0     C 3519   0.290   6.439   1.848  0.1724  0.0804  0.0017
  785MOL0     C 3520   0.321   6.500   1.974 -0.4008  0.2292  0.2807
  785MOL0     C 3521   0.226   6.579   2.036  0.0834  0.3943  0.3436
  785MOL0     C 3522   0.093   6.594   1.991  0.6872  0.1837  0.0079
  785MOL0     O 3523   0.004   6.677   2.061  0.2253  0.7672  0.1934
  785MOL0     C 3524  -0.139   6.675   2.021  0.8537 -0.8959  0.8183
  785MOL0     C 3525  -0.209   6.807   2.066 -0.1217  0.2894 -0.2135
  785MOL0     C 3526  -0.363   6.784   2.058 -0.9688  0.3557  0.4287
  785MOL0     C 3527  -0.446   6.893   2.119 -0.2839 -0.9828 -0.1137
  785MOL0     C 3528  -0.581   6.895   2.064  0.2656 -0.3125 -0.5121
  785MOL0     C 3529  -0.669   6.991   2.149  1.1508  0.9916  0.2154
  785MOL0     C 3530  -0.819   6.980   2.117  0.9506 -0.6024  0.0654
  785MOL0     C 3531  -0.888   7.077   2.204  0.0961 -0.4995  0.3733
  785MOL0    Cl 3532  -0.878   7.034   2.376 -0.0110 -0.3274 -0.0951
  785MOL0     C 3533   0.061   6.537   1.869  0.3607 -0.6921 -0.6005
  785MOL0     C 3534   0.162   6.452   1.802  0.5724 -0.1896 -0.1814
  785MOL0     O 3535   0.317   6.371   1.566 -0.4490  0.3590  0.0454
  785MOL0     C 3536   0.575   6.179   1.727 -0.1095 -0.2720 -0.7369
  785MOL0     C 3537   0.670   6.081   1.698 -0.9728 -1.0292  1.2273
  785MOL0     N 3538   1.128   5.756   1.034 -0.6669 -0.4749 -0.0096
  785MOL0     N 3539   1.209   5.745   0.937  0.1886  0.1799 -0.1634
  785MOL0     C 3540   2.344   6.121   0.520 -1.2554  0.2299  1.1738
  785MOL0     C 3541   2.482   6.144   0.528 -0.2317 -0.7569  0.2701
  785MOL0     C 3542   2.928   6.134   0.474 -0.0464 -0.5475  0.1785
  785MOL0     C 3543   3.018   6.031   0.516 -0.6803 -0.7829 -0.3736
  785MOL0     C 3544   3.153   6.064   0.538 -0.3266 -0.2656 -0.4233
  785MOL0     C 3545   3.201   6.195   0.533  0.1917  0.3893 -0.0321
  785MOL0     O 3546   3.327   6.236   0.568 -0.5574 -0.4457 -0.4449
  785MOL0     C 3547   3.341   6.298   0.700  0.0274  0.6829  0.0272
  785MOL0     C 3548   3.481   6.362   0.727  1.0770 -0.7840  0.2004
  785MOL0     C 3549   3.591   6.267   0.703  0.2725 -0.7760  0.9903
  785MOL0     C 3550   3.733   6.316   0.737 -0.0086  0.5985  0.2397
  785MOL0     C 3551   3.832   6.224   0.689 -0.0262 -0.2481  0.0067
  785MOL0     C 3552   3.918   6.152   0.642  0.2628  1.2007 -0.2295
  785MOL0     C 3553   3.097   6.291   0.508  0.2913  0.3251  0.7132
  785MOL0     C 3554   2.967   6.267   0.477  0.0976 -0.0832 -0.3840
  785MOL0     H 3555   2.557   6.242   0.223 -0.2017 -0.0510  0.0879
  785MOL0     H 3556   2.311   6.200   0.186  0.2221 -1.7897 -0.8311
  785MOL0     H 3557   2.071   6.278   0.540 -1.4959  0.3952 -0.4557
  785MOL0     H 3558   2.071   6.106   0.579  1.8550  2.0707  0.5005
  785MOL0     H 3559   1.878   6.114   0.373  1.8914 -2.5869  0.9315
  785MOL0     H 3560   1.881   6.282   0.402 -0.6717 -0.8124  0.2432
  785MOL0     H 3561   1.719   6.246   0.522  0.8107  0.3409  0.4809
  785MOL0     H 3562   1.849   6.229   0.654  0.7624 -1.2831  0.5373
  785MOL0     H 3563   1.703   5.998   0.503 -0.4397  2.4785 -0.4784
  785MOL0     H 3564   1.831   5.993   0.634  1.5262  1.6913 -0.6513
  785MOL0     H 3565   1.556   6.124   0.664  1.4522  0.8831 -0.0220
  785MOL0     H 3566   1.674   6.120   0.767 -0.2037 -1.0616 -0.1852
  785MOL0     H 3567   1.683   5.889   0.819  1.7379  0.5522 -2.3453
  785MOL0     H 3568   1.578   5.848   0.673 -1.0583  2.7255 -1.2757
  785MOL0     H 3569   1.523   5.974   0.939  1.4279 -1.0180 -0.6869
  785MOL0     H 3570   1.387   5.960   0.824 -0.3996 -0.4318 -0.1474
  785MOL0     H 3571   1.543   5.738   0.923 -0.2275 -0.3703 -0.4676
  785MOL0     H 3572   1.417   5.717   0.792 -2.1980  0.2632  0.4478
  785MOL0     H 3573   1.418   5.810   1.181 -0.4993  0.3622  1.4551
  785MOL0     H 3574   1.235   5.870   1.346 -0.1463  0.6070  0.7536
  785MOL0     H 3575   1.168   5.705   1.340 -0.8645  1.5425  1.2619
  785MOL0     H 3576   0.960   5.796   1.238  1.0719 -0.5615  0.8732
  785MOL0     H 3577   1.034   5.957   1.239 -0.8791 -0.9758  0.5140
  785MOL0     H 3578   0.977   5.775   1.475 -3.2018 -0.7554 -2.0421
  785MOL0     H 3579   1.060   5.929   1.480  2.4316  0.2897 -2.6683
  785MOL0     H 3580   0.768   5.897   1.365  0.1728  2.3317 -0.4410
  785MOL0     H 3581   0.866   6.042   1.382  1.2835 -1.0407 -2.2928
  785MOL0     H 3582   0.617   6.051   1.365 -1.4878 -0.2225 -0.1084
  785MOL0     H 3583   0.453   6.210   1.408  2.1519  1.2886 -0.9815
  785MOL0     H 3584   0.425   6.489   2.004 -0.0349 -1.3221 -1.4306
  785MOL0     H 3585   0.250   6.635   2.126 -0.7958  2.1561 -0.4738
  785MOL0     H 3586  -0.192   6.589   2.063 -0.2885  0.3558  2.0352
  785MOL0     H 3587  -0.155   6.683   1.913  0.8330 -0.5924  0.8432
  785MOL0     H 3588  -0.175   6.893   2.008  0.8224  2.7885  3.6894
  785MOL0     H 3589  -0.181   6.827   2.169 -0.1549 -0.0141 -0.1441
  785MOL0     H 3590  -0.390   6.690   2.107  0.7217  0.4848  1.7279
  785MOL0     H 3591  -0.388   6.769   1.953  0.3306 -1.8921  0.3648
  785MOL0     H 3592  -0.454   6.881   2.228 -1.1005  0.3349 -0.0085
  785MOL0     H 3593  -0.397   6.989   2.099 -1.7327 -0.2189 -0.1117
  785MOL0     H 3594  -0.620   6.792   2.060  2.3701 -1.3482  2.1717
  785MOL0     H 3595  -0.569   6.928   1.961  0.3298  2.4128  0.3000
  785MOL0     H 3596  -0.638   7.093   2.121 -2.3491  1.9430 -0.7979
  785MOL0     H 3597  -0.665   6.974   2.256 -0.3195 -0.0869  0.1237
  785MOL0     H 3598  -0.814   7.007   2.012  2.3017  0.8862  0.4755
  785MOL0     H 3599  -0.855   6.876   2.116  1.0772 -0.6501  0.2781
  785MOL0     H 3600  -0.994   7.067   2.178 -0.5240  1.8738  1.7154
  785MOL0     H 3601  -0.867   7.181   2.178 -0.6488  0.1318  2.1168
  785MOL0     H 3602  -0.033   6.559   1.820 -0.1592 -0.7115  0.3578
  785MOL0     H 3603   0.131   6.412   1.706 -0.9522 -3.5245  1.5379
  785MOL0     H 3604   0.590   6.231   1.821 -0.6873  0.8383 -1.2498
  785MOL0     H 3605   0.746   6.063   1.773  1.6372 -2.1403 -1.4879
  785MOL0     H 3606   2.296   6.080   0.608  1.8687 -2.4665  1.7794
  785MOL0     H 3607   2.531   6.123   0.622  0.7348 -0.9142 -0.2504
  785MOL0     H 3608   2.983   5.928   0.525  0.3320 -1.2447 -1.3326
  785MOL0     H 3609   3.224   5.987   0.568  0.7117  0.1874 -1.6101
  785MOL0     H 3610   3.320   6.220   0.774  0.7426  1.9222  1.5933
  785MOL0     H 3611   3.259   6.371   0.706 -0.1629  0.8067 -2.7271
  785MOL0     H 3612   3.490   6.452   0.664 -1.1515 -0.5827  0.0625
  785MOL0     H 3613   3.483   6.398   0.830  1.5519 -1.1270  0.3115
  785MOL0     H 3614   3.595   6.253   0.595  1.6718  0.9274  0.7699
  785MOL0     H 3615   3.580   6.169   0.751  0.1977 -1.4546 -0.3804
  785MOL0     H 3616   3.735   6.414   0.689 -0.8051 -0.4456 -2.0864
  785MOL0     H 3617   3.737   6.316   0.846  0.7759 -0.3770  0.2304
  785MOL0     H 3618   3.998   6.100   0.593 -0.6912 -2.0734  1.4097
  785MOL0     H 3619   3.114   6.399   0.507 -2.2651  0.8336 -1.6948
  785MOL0     H 3620   2.911   6.351   0.438  0.0858 -0.1573 -0.5272
  786MOL0     O 3621  10.427   8.303   0.256 -0.5954 -0.5120 -0.0854
  786MOL0     C 3622  10.514   8.224   0.276 -0.5644  0.3676 -0.1652
  786MOL0     O 3623  10.505   8.121   0.367 -0.2020 -0.6949 -0.1282
  786MOL0     C 3624  10.394   8.111   0.449 -0.4594 -0.0541  0.1291
  786MOL0     C 3625  10.265   8.090   0.401  0.1141  0.5674  0.2464
  786MOL0     C 3626  10.163   8.073   0.493 -0.2971 -0.0092 -0.0948
  786MOL0     C 3627  10.178   8.091   0.629  0.6505 -0.1064 -0.9393
  786MOL0     O 3628  10.065   8.063   0.709 -1.1754  0.2353 -0.0526
  786MOL0     C 3629  10.092   8.033   0.848  0.3855 -0.0552  1.1948
  786MOL0     C 3630   9.980   7.932   0.886  0.1939  0.8687  0.3230
  786MOL0     C 3631   9.841   7.968   0.829 -0.5877 -0.3480  0.3320
  786MOL0     C 3632   9.731   7.876   0.866  0.3614 -0.1823  0.3390
  786MOL0     C 3633   9.663   7.807   0.752 -0.6072  0.6356 -0.2835
  786MOL0     C 3634   9.763   7.710   0.676  0.5354  0.1239 -0.2000
  786MOL0     C 3635   9.689   7.632   0.569 -0.4967 -0.3709 -0.0123
  786MOL0     C 3636   9.782   7.529   0.501  0.1086  0.2357  0.6893
  786MOL0     N 3637   9.876   7.597   0.404  0.7201  0.2489  0.6940
  786MOL0     C 3638   9.989   7.665   0.430  0.0451  0.1120  0.8488
  786MOL0     C 3639  10.049   7.681   0.309 -0.2343 -0.6622 -0.3239
  786MOL0     C 3640  10.169   7.765   0.298 -0.9863  0.2651  0.1833
  786MOL0     C 3641  10.256   7.714   0.188 -0.1019 -0.7106  0.2416
  786MOL0     C 3642  10.384   7.814   0.159 -0.5168 -0.2098 -0.8664
  786MOL0     C 3643  10.473   7.764   0.045  0.4082 -0.4582  0.8481
  786MOL0     O 3644  10.385   7.720  -0.067  0.1318  0.1666  0.0765
  786MOL0     C 3645  10.426   7.739  -0.202  0.7253 -0.1035  0.1401
  786MOL0     C 3646  10.334   7.761  -0.300 -0.1946  0.3808  0.3870
  786MOL0     C 3647  10.364   7.775  -0.428 -0.5007 -0.2883 -0.5372
  786MOL0     C 3648  10.498   7.785  -0.468 -0.7034  0.4848  0.8154
  786MOL0     C 3649  10.520   7.796  -0.613 -0.3359  0.5197 -0.8826
  786MOL0     O 3650  10.411   7.790  -0.693 -0.2191 -0.2845  0.2776
  786MOL0     C 3651  10.420   7.774  -0.835 -0.4236  0.1220 -0.1767
  786MOL0     C 3652  10.334   7.835  -0.919 -0.1292  0.0857  0.4021
  786MOL0     C 3653  10.345   7.815  -1.053 -0.3664 -0.9668  0.4589
  786MOL0     C 3654  10.448   7.742  -1.111 -0.0227 -0.6101  0.6615
  786MOL0     O 3655  10.446   7.725  -1.248  0.1574  0.9944  0.0507
  786MOL0     C 3656  10.568   7.718  -1.330 -0.1942  0.4060 -0.6975
  786MOL0     C 3657  10.514   7.764  -1.467 -0.7167 -0.1470 -0.8982
  786MOL0     C 3658  10.625   7.778  -1.555  0.1820 -0.0033  0.7600
  786MOL0     C 3659  10.580   7.822  -1.696 -0.0894 -0.3659  0.0127
  786MOL0     C 3660  10.661   7.741  -1.798 -0.9124  0.0189  0.1357
  786MOL0     C 3661  10.633   7.798  -1.938 -0.1975  0.3606  0.0627
  786MOL0     C 3662  10.741   7.748  -2.042 -0.5186  0.4703  0.4037
  786MOL0     C 3663  10.856   7.849  -2.067  0.0369 -0.1876 -0.0437
  786MOL0    Cl 3664  10.984   7.790  -2.175  0.1038  0.2198 -0.1683
  786MOL0     C 3665  10.540   7.679  -1.031 -0.4552 -0.8371 -0.5572
  786MOL0     C 3666  10.523   7.690  -0.888 -1.0798  0.0305  0.1274
  786MOL0     O 3667  10.636   7.807  -0.653  0.4866  1.0617  0.0673
  786MOL0     C 3668  10.597   7.781  -0.373 -1.2944 -0.0981  0.6246
  786MOL0     C 3669  10.562   7.750  -0.241 -0.2824  0.1379 -0.2383
  786MOL0     N 3670   9.970   7.623   0.220 -0.2387  0.6009  0.2426
  786MOL0     N 3671   9.867   7.578   0.272 -0.2137  0.2435 -0.6593
  786MOL0     C 3672  10.305   8.140   0.676  0.0862  0.2408  1.1967
  786MOL0     C 3673  10.412   8.140   0.585 -0.3654 -0.4194 -0.5290
  786MOL0     C 3674  10.650   8.256   0.222 -0.0521  0.9237 -0.1182
  786MOL0     C 3675  10.689   8.382   0.189 -0.2397 -0.9258 -1.2199
  786MOL0     C 3676  10.812   8.405   0.131 -0.0314  0.3106 -0.2304
  786MOL0     C 3677  10.904   8.306   0.105 -0.2058 -0.3056 -0.2835
  786MOL0     O 3678  11.026   8.309   0.055  0.4186  0.1115  0.2831
  786MOL0     C 3679  11.080   8.442   0.043 -0.3078 -1.4506 -0.6909
  786MOL0     C 3680  11.228   8.448   0.064 -0.0639  0.5068 -0.4840
  786MOL0     C 3681  11.283   8.598   0.061 -1.0198 -0.6710 -0.6998
  786MOL0     C 3682  11.431   8.587   0.115  0.6426  0.6207  0.5806
  786MOL0     C 3683  11.487   8.724   0.132 -0.5755 -1.0698  0.7982
  786MOL0     C 3684  11.556   8.826   0.142 -0.3231  0.2062 -0.0755
  786MOL0     C 3685  10.871   8.179   0.145  0.3651  0.6938  0.6543
  786MOL0     C 3686  10.740   8.148   0.199 -0.3314  0.0558 -0.2750
  786MOL0     H 3687  10.249   8.072   0.295  0.3248  0.1438  0.2874
  786MOL0     H 3688  10.066   8.032   0.466 -0.5145  0.9718 -0.8624
  786MOL0     H 3689  10.091   8.121   0.912  0.3088  0.2607  0.7605
  786MOL0     H 3690  10.188   7.985   0.871 -0.1305 -1.1416  1.1725
  786MOL0     H 3691   9.985   7.908   0.992  1.3873 -1.6625 -0.2178
  786MOL0     H 3692  10.000   7.835   0.839 -4.4465 -0.6910  1.0104
  786MOL0     H 3693   9.847   7.986   0.722  2.2450 -0.4234  0.3977
  786MOL0     H 3694   9.815   8.058   0.887 -0.5914 -1.6874  2.5428
  786MOL0     H 3695   9.775   7.805   0.937 -1.5111  1.1644  3.0157
  786MOL0     H 3696   9.649   7.926   0.917 -0.4218 -1.1167  0.0220
  786MOL0     H 3697   9.620   7.882   0.684 -0.2885  1.7084  0.6634
  786MOL0     H 3698   9.581   7.750   0.796  2.0069 -1.9598  1.5595
  786MOL0     H 3699   9.820   7.657   0.752 -0.1734  1.6006  1.4438
  786MOL0     H 3700   9.839   7.770   0.625 -0.3535  0.8202 -0.7572
  786MOL0     H 3701   9.606   7.577   0.614  0.9985 -0.3625  3.0571
  786MOL0     H 3702   9.646   7.693   0.489 -1.6192 -0.2161  0.6846
  786MOL0     H 3703   9.720   7.453   0.453 -2.0254  2.8858 -1.0719
  786MOL0     H 3704   9.839   7.480   0.581 -0.6981  0.7588  1.6178
  786MOL0     H 3705  10.018   7.694   0.530 -0.3313 -1.5227  1.4618
  786MOL0     H 3706  10.226   7.752   0.390  0.0720 -1.0865 -0.6132
  786MOL0     H 3707  10.151   7.871   0.280 -1.1297  0.1053 -0.6755
  786MOL0     H 3708  10.198   7.705   0.096  4.9086 -0.4020 -3.4056
  786MOL0     H 3709  10.287   7.612   0.211 -4.8991 -2.3775  0.3866
  786MOL0     H 3710  10.356   7.919   0.151 -2.4390 -0.6645 -0.6246
  786MOL0     H 3711  10.443   7.817   0.251 -2.1280 -0.5305  0.2249
  786MOL0     H 3712  10.520   7.671   0.078  1.3764  0.1029  1.0782
  786MOL0     H 3713  10.553   7.833   0.017  0.3750 -1.1497 -1.0885
  786MOL0     H 3714  10.228   7.754  -0.276 -0.4147 -1.3273 -0.8926
  786MOL0     H 3715  10.282   7.786  -0.498 -1.4784 -0.6438  0.5180
  786MOL0     H 3716  10.256   7.892  -0.869  0.5340  1.3066  0.0847
  786MOL0     H 3717  10.280   7.872  -1.118  1.2010  0.3790  0.0065
  786MOL0     H 3718  10.609   7.616  -1.336 -2.5749 -0.5857 -1.4284
  786MOL0     H 3719  10.645   7.789  -1.299 -1.3074  0.7979  1.3440
  786MOL0     H 3720  10.468   7.863  -1.458  2.4080  1.2423  1.4278
  786MOL0     H 3721  10.444   7.689  -1.506  0.6913 -1.9734 -0.0268
  786MOL0     H 3722  10.676   7.682  -1.561 -3.2133 -1.8675 -1.0332
  786MOL0     H 3723  10.700   7.852  -1.526  0.4060  0.0056  0.1684
  786MOL0     H 3724  10.474   7.797  -1.706 -0.2249 -1.5079  3.1337
  786MOL0     H 3725  10.606   7.923  -1.727 -1.5407 -0.9811 -3.7899
  786MOL0     H 3726  10.641   7.634  -1.789  0.5176 -0.4149 -1.2134
  786MOL0     H 3727  10.767   7.752  -1.775 -1.2585  0.0034  1.8384
  786MOL0     H 3728  10.630   7.907  -1.940  0.9652  0.4797  2.1109
  786MOL0     H 3729  10.532   7.764  -1.964 -1.3526  5.1714 -3.0296
  786MOL0     H 3730  10.786   7.653  -2.013  0.4179  1.5585  2.8516
  786MOL0     H 3731  10.686   7.732  -2.135  0.0525 -0.0833  0.1585
  786MOL0     H 3732  10.897   7.881  -1.971  0.7613  1.6363 -0.9146
  786MOL0     H 3733  10.812   7.936  -2.117 -0.3986 -1.6304 -2.3567
  786MOL0     H 3734  10.620   7.618  -1.073  0.6458 -0.8002  1.3528
  786MOL0     H 3735  10.604   7.642  -0.834  0.1302  1.6442 -0.1364
  786MOL0     H 3736  10.700   7.806  -0.395 -0.3562 -3.1585  1.1112
  786MOL0     H 3737  10.646   7.731  -0.174 -0.6072  0.2588  0.2055
  786MOL0     H 3738  10.323   8.163   0.781 -1.3506 -2.9173  2.2612
  786MOL0     H 3739  10.512   8.160   0.622 -0.0350 -1.9999 -0.5113
  786MOL0     H 3740  10.633   8.472   0.211  1.4209 -0.3931  1.3487
  786MOL0     H 3741  10.837   8.510   0.116  1.4615 -0.4325 -3.8517
  786MOL0     H 3742  11.049   8.503   0.128  2.1909 -0.7583 -0.1989
  786MOL0     H 3743  11.044   8.503  -0.040  0.0132 -0.1068  0.1193
  786MOL0     H 3744  11.261   8.402   0.157 -0.8140 -0.0177 -0.4733
  786MOL0     H 3745  11.268   8.390  -0.020 -0.1924  1.9407 -1.5774
  786MOL0     H 3746  11.224   8.656   0.131  0.4413 -0.9359  0.8185
  786MOL0     H 3747  11.277   8.639  -0.040 -2.0687  0.5859 -0.1490
  786MOL0     H 3748  11.433   8.534   0.211 -1.0891  2.3256  1.6251
  786MOL0     H 3749  11.485   8.531   0.038 -3.3196 -1.8350 -0.7193
  786MOL0     H 3750  11.613   8.914   0.160  1.7098 -1.4263  2.1353
  786MOL0     H 3751  10.944   8.102   0.120 -0.6120 -1.3176  3.4994
  786MOL0     H 3752  10.718   8.048   0.233  1.9778 -0.0034  1.2944
  787MOL0     O 3753   7.017   0.808  10.575 -0.5829 -0.8578  0.2421
  787MOL0     C 3754   7.028   0.806  10.454 -0.4852 -0.2418  0.1616
  787MOL0     O 3755   6.926   0.836  10.363 -0.3870  0.1491 -0.2996
  787MOL0     C 3756   6.796   0.814  10.402 -0.0108 -0.6931 -0.2340
  787MOL0     C 3757   6.697   0.754  10.317 -0.1898 -0.1843 -0.3897
  787MOL0     C 3758   6.559   0.751  10.354  0.1885 -1.2756 -0.6692
  787MOL0     C 3759   6.523   0.814  10.473 -0.2697 -0.3550 -0.5337
  787MOL0     O 3760   6.398   0.809  10.522 -0.3030 -0.1948  0.0132
  787MOL0     C 3761   6.306   0.706  10.490 -0.6048 -0.0082 -0.5384
  787MOL0     C 3762   6.178   0.725  10.566 -0.1993  0.0860  0.5810
  787MOL0     C 3763   6.077   0.623  10.522  0.1073 -0.1817 -0.2758
  787MOL0     C 3764   5.934   0.638  10.587 -0.2980  0.6324  0.7205
  787MOL0     C 3765   5.841   0.526  10.524 -0.4032 -0.8941 -0.2254
  787MOL0     C 3766   5.698   0.549  10.555  0.1814  0.7207 -0.1359
  787MOL0     C 3767   5.605   0.453  10.479  0.2963 -0.3634 -0.0627
  787MOL0     C 3768   5.460   0.498  10.503  0.5645  0.2340  0.4171
  787MOL0     N 3769   5.375   0.390  10.438 -0.0805 -0.0718 -0.6014
  787MOL0     C 3770   5.347   0.261  10.485 -1.1504 -0.6413 -0.6315
  787MOL0     C 3771   5.276   0.200  10.389  1.0038 -0.2393 -1.0156
  787MOL0     C 3772   5.221   0.060  10.392 -0.0535  0.2625 -0.7342
  787MOL0     C 3773   5.085   0.067  10.471 -1.0064  0.1614 -0.3624
  787MOL0     C 3774   5.006  -0.063  10.444  0.3615 -0.3416 -0.0257
  787MOL0     C 3775   4.864  -0.051  10.495  0.0796 -0.2071  0.3462
  787MOL0     O 3776   4.862  -0.056  10.636 -0.0954 -0.2935 -0.1945
  787MOL0     C 3777   4.738  -0.084  10.700 -0.8657  0.7402 -0.2948
  787MOL0     C 3778   4.742  -0.158  10.815  0.2465 -0.7779 -0.0846
  787MOL0     C 3779   4.635  -0.179  10.891  0.3119 -0.4184 -0.1204
  787MOL0     C 3780   4.514  -0.113  10.856  0.9364 -0.1024 -0.6069
  787MOL0     C 3781   4.391  -0.122  10.947 -0.4472  0.6092 -0.5462
  787MOL0     O 3782   4.284  -0.055  10.907  0.3566 -0.6803 -0.1516
  787MOL0     C 3783   4.180  -0.064  10.994  0.2633 -0.0866  0.0620
  787MOL0     C 3784   4.171   0.023  11.094 -0.3044  0.3516 -0.6117
  787MOL0     C 3785   4.069   0.039  11.178 -0.4411 -1.1921  0.4083
  787MOL0     C 3786   3.963  -0.051  11.166  0.7165  0.6714  0.4422
  787MOL0     O 3787   3.846  -0.040  11.245 -0.1083  0.0159 -0.5966
  787MOL0     C 3788   3.727  -0.121  11.227  0.6680 -0.0530 -0.1065
  787MOL0     C 3789   3.636  -0.116  11.352  0.2943  0.2044  0.0381
  787MOL0     C 3790   3.489  -0.158  11.316 -0.1152 -0.5349 -0.3046
  787MOL0     C 3791   3.398  -0.204  11.434  0.1499  0.1830  0.3313
  787MOL0     C 3792   3.275  -0.287  11.395  0.3333 -0.3699 -0.6083
  787MOL0     C 3793   3.171  -0.216  11.307 -0.8276 -0.2598 -0.1088
  787MOL0     C 3794   3.035  -0.279  11.324  1.5104 -0.3131 -0.1982
  787MOL0     C 3795   2.928  -0.234  11.217 -0.4414  0.0167  0.3491
  787MOL0    Cl 3796   2.785  -0.341  11.236 -0.0798 -0.2022 -0.4227
  787MOL0     C 3797   3.969  -0.150  11.058  0.8285  0.3188  0.1836
  787MOL0     C 3798   4.073  -0.151  10.972 -0.6917  0.2631 -0.5775
  787MOL0     O 3799   4.406  -0.184  11.057  0.1436 -0.8477  0.0014
  787MOL0     C 3800   4.505  -0.045  10.736 -0.5389 -0.1698 -0.3237
  787MOL0     C 3801   4.620  -0.034  10.657  0.9611 -0.1465  0.1267
  787MOL0     N 3802   5.254   0.288  10.289 -0.2671  0.2811 -0.0825
  787MOL0     N 3803   5.322   0.390  10.311 -0.0189  0.3959  0.2657
  787MOL0     C 3804   6.612   0.876  10.553  0.1582 -0.3739  0.9917
  787MOL0     C 3805   6.743   0.887  10.514  0.2645  0.8154 -0.5233
  787MOL0     C 3806   7.159   0.755  10.400  0.5557 -0.9221  0.2091
  787MOL0     C 3807   7.273   0.754  10.483 -1.2157 -0.5947 -0.7582
  787MOL0     C 3808   7.407   0.709  10.452  0.1401 -0.0070 -0.2825
  787MOL0     C 3809   7.411   0.636  10.327 -0.4770 -0.7164 -0.4245
  787MOL0     O 3810   7.544   0.596  10.300 -0.0866  0.1054 -0.5215
  787MOL0     C 3811   7.558   0.530  10.177 -0.7292 -0.3264  0.7574
  787MOL0     C 3812   7.706   0.512  10.128 -0.8877 -0.1111 -0.3311
  787MOL0     C 3813   7.802   0.439  10.239 -0.5638 -0.9441  0.1405
  787MOL0     C 3814   7.948   0.504  10.242  0.0572  0.5925 -0.4101
  787MOL0     C 3815   8.019   0.446  10.134  0.4319  0.2716 -0.1017
  787MOL0     C 3816   8.077   0.407  10.036  0.5078  0.0946 -0.3932
  787MOL0     C 3817   7.305   0.636  10.236 -0.0491 -0.2360  0.4569
  787MOL0     C 3818   7.172   0.694  10.272  0.0108  0.6175  0.0567
  787MOL0     H 3819   6.736   0.711  10.226  0.7048 -0.3398  0.0542
  787MOL0     H 3820   6.483   0.691  10.303 -1.4975  0.3160 -0.1520
  787MOL0     H 3821   6.359   0.615  10.520  2.0127  1.8597  0.9220
  787MOL0     H 3822   6.290   0.711  10.382  0.4901  2.6361 -0.6538
  787MOL0     H 3823   6.146   0.828  10.551  0.8893  0.2034 -1.2523
  787MOL0     H 3824   6.213   0.716  10.670  2.8415  0.4712 -0.3275
  787MOL0     H 3825   6.110   0.521  10.541 -3.7116 -1.3839  0.9486
  787MOL0     H 3826   6.061   0.641  10.415 -3.1234  1.5080  0.3245
  787MOL0     H 3827   5.942   0.632  10.696 -0.5158  3.0852  0.9160
  787MOL0     H 3828   5.898   0.738  10.562  0.1560  0.7391  0.4861
  787MOL0     H 3829   5.876   0.436  10.575  0.0461 -1.3298 -1.2799
  787MOL0     H 3830   5.861   0.539  10.417 -2.6593  0.5850 -0.5451
  787MOL0     H 3831   5.677   0.652  10.525 -0.8485  0.8388  0.9090
  787MOL0     H 3832   5.683   0.529  10.661  0.0436 -0.0452 -0.2938
  787MOL0     H 3833   5.618   0.458  10.371 -0.8627 -1.5107 -0.2849
  787MOL0     H 3834   5.621   0.350  10.512 -0.1347 -0.0899  1.0465
  787MOL0     H 3835   5.427   0.595  10.466 -0.7487  0.7368  2.6903
  787MOL0     H 3836   5.438   0.507  10.610  0.4886  1.3106  0.3179
  787MOL0     H 3837   5.380   0.215  10.578  0.4403 -0.2655 -0.9733
  787MOL0     H 3838   5.292  -0.010  10.437 -1.7900  0.3861  2.4575
  787MOL0     H 3839   5.202   0.029  10.289  2.0740  0.6284 -1.2707
  787MOL0     H 3840   5.022   0.146  10.430 -2.8311 -0.4255  1.1616
  787MOL0     H 3841   5.101   0.076  10.579 -1.4544  0.7156 -0.3381
  787MOL0     H 3842   5.010  -0.072  10.336 -0.5233 -0.9877 -0.0106
  787MOL0     H 3843   5.061  -0.151  10.479  0.0137 -1.0366 -1.2105
  787MOL0     H 3844   4.795  -0.117  10.442  2.2959 -1.5771 -1.0293
  787MOL0     H 3845   4.823   0.045  10.463  3.5617  1.2963 -0.0543
  787MOL0     H 3846   4.838  -0.203  10.842 -0.1671 -1.0111  1.0735
  787MOL0     H 3847   4.641  -0.238  10.982  2.1370 -0.8036 -0.4573
  787MOL0     H 3848   4.257   0.088  11.100 -2.8081  4.0632 -1.3294
  787MOL0     H 3849   4.071   0.117  11.253  1.7068  0.2199 -0.9913
  787MOL0     H 3850   3.754  -0.225  11.208 -1.5046  0.0003 -4.7683
  787MOL0     H 3851   3.673  -0.086  11.139 -0.2094 -0.7545  0.1333
  787MOL0     H 3852   3.637  -0.015  11.396 -2.8666  0.0022  0.8185
  787MOL0     H 3853   3.674  -0.177  11.435 -0.5051  1.0618  1.0757
  787MOL0     H 3854   3.502  -0.243  11.248 -0.7453 -0.8115 -0.0911
  787MOL0     H 3855   3.442  -0.084  11.250 -1.7767 -0.4935  0.8619
  787MOL0     H 3856   3.452  -0.275  11.498 -0.4405 -0.6020 -0.0188
  787MOL0     H 3857   3.380  -0.117  11.498 -3.0209 -1.5560  2.0422
  787MOL0     H 3858   3.219  -0.310  11.487  0.0874 -0.3213 -0.7456
  787MOL0     H 3859   3.307  -0.375  11.340 -1.2471  0.5837 -3.2106
  787MOL0     H 3860   3.205  -0.221  11.202  0.4448  1.6370  0.1446
  787MOL0     H 3861   3.171  -0.109  11.328 -0.5081  0.3496 -2.7400
  787MOL0     H 3862   3.031  -0.388  11.329 -3.3817 -0.2952  1.4881
  787MOL0     H 3863   2.996  -0.252  11.422 -2.6030  0.0324 -1.7492
  787MOL0     H 3864   2.975  -0.236  11.119  0.3032  1.1938  0.6699
  787MOL0     H 3865   2.892  -0.131  11.230 -2.8890 -0.6927 -0.3569
  787MOL0     H 3866   3.894  -0.226  11.039  6.0912 -5.5113 -0.4242
  787MOL0     H 3867   4.080  -0.215  10.884 -1.9776  1.4850 -1.6109
  787MOL0     H 3868   4.409  -0.008  10.701 -2.2536 -1.5267  2.5884
  787MOL0     H 3869   4.613   0.023  10.565  0.7330 -0.1525  0.1413
  787MOL0     H 3870   6.566   0.919  10.641 -1.7573 -2.8909  1.3561
  787MOL0     H 3871   6.808   0.955  10.567 -0.3896  2.1950 -1.4188
  787MOL0     H 3872   7.256   0.780  10.587 -0.8130 -3.8272  0.2284
  787MOL0     H 3873   7.498   0.719  10.510 -1.1049 -0.7321  1.9100
  787MOL0     H 3874   7.516   0.587  10.093  0.9481 -0.0284  0.0910
  787MOL0     H 3875   7.500   0.438  10.189  1.3436 -1.8957 -0.5388
  787MOL0     H 3876   7.716   0.451  10.038 -0.8841 -2.0323  0.9068
  787MOL0     H 3877   7.748   0.612  10.112 -0.6265 -0.2853 -0.7444
  787MOL0     H 3878   7.814   0.333  10.213  0.7087 -0.4034 -1.6806
  787MOL0     H 3879   7.770   0.449  10.343  1.7531 -2.7869  1.1428
  787MOL0     H 3880   7.939   0.613  10.238  2.0431  0.7660 -1.2531
  787MOL0     H 3881   8.005   0.475  10.331  0.5979  2.6382 -0.0484
  787MOL0     H 3882   8.120   0.377   9.942  1.2308 -1.0216  0.2570
  787MOL0     H 3883   7.309   0.590  10.138  1.2550  0.1666  0.3030
  787MOL0     H 3884   7.085   0.684  10.208 -0.1509  0.3511  0.3134
  788MOL0     O 3885   6.861   1.275   7.680 -0.1367 -0.4514  0.0418
  788MOL0     C 3886   6.906   1.214   7.774 -0.0717  0.8242 -0.2458
  788MOL0     O 3887   6.901   1.075   7.796 -0.2193 -0.6158 -0.2737
  788MOL0     C 3888   6.841   0.994   7.707  0.2309  0.3318 -0.2277
  788MOL0     C 3889   6.902   0.868   7.678  0.8138 -0.5714  0.1193
  788MOL0     C 3890   6.830   0.777   7.608  0.1270  0.9670  0.4134
  788MOL0     C 3891   6.700   0.804   7.564  0.3257  0.1620 -0.9188
  788MOL0     O 3892   6.628   0.713   7.486 -0.1006 -0.0044 -0.5913
  788MOL0     C 3893   6.484   0.716   7.482  0.2681 -0.5728 -0.0707
  788MOL0     C 3894   6.441   0.600   7.387 -0.1600 -0.0815 -0.5551
  788MOL0     C 3895   6.288   0.599   7.386 -0.6619 -0.1279 -0.1030
  788MOL0     C 3896   6.235   0.515   7.285  0.0258  0.6854  0.7556
  788MOL0     C 3897   6.083   0.525   7.260 -0.9077 -0.8029 -0.3250
  788MOL0     C 3898   6.029   0.422   7.150 -0.2941 -0.1691 -0.1930
  788MOL0     C 3899   5.887   0.427   7.118  1.4182 -0.9161  0.0750
  788MOL0     C 3900   5.832   0.564   7.075 -0.1854 -0.7243 -0.4673
  788MOL0     N 3901   5.728   0.561   6.976  0.0773 -0.0424  0.2542
  788MOL0     C 3902   5.734   0.603   6.841 -0.2141 -0.2276 -0.2287
  788MOL0     C 3903   5.605   0.575   6.794  0.6318 -0.0399  0.0149
  788MOL0     C 3904   5.564   0.585   6.650 -0.5060 -0.2003  0.3532
  788MOL0     C 3905   5.479   0.718   6.627  0.6365  0.3700 -0.0333
  788MOL0     C 3906   5.539   0.859   6.664 -0.0896  0.2978 -0.1893
  788MOL0     C 3907   5.632   0.916   6.564 -0.5848  0.1319  0.6128
  788MOL0     O 3908   5.733   0.825   6.518 -0.7583 -0.2863  0.1623
  788MOL0     C 3909   5.824   0.888   6.436  0.9650  0.2533 -0.6103
  788MOL0     C 3910   5.814   1.020   6.389 -0.8439 -0.4992 -0.1165
  788MOL0     C 3911   5.921   1.080   6.321 -0.9743  0.7167 -0.0150
  788MOL0     C 3912   6.047   1.011   6.310 -0.1623  0.1293 -0.4084
  788MOL0     C 3913   6.162   1.071   6.241  0.7043 -0.3869 -0.5201
  788MOL0     O 3914   6.152   1.188   6.168  0.0569 -0.3145  0.3108
  788MOL0     C 3915   6.254   1.235   6.083 -0.8606  0.3288 -0.7169
  788MOL0     C 3916   6.267   1.370   6.074  0.5554 -0.2537  0.2246
  788MOL0     C 3917   6.361   1.428   5.996  0.1562 -0.1881  0.6828
  788MOL0     C 3918   6.461   1.351   5.944 -0.9125 -0.3404  0.2312
  788MOL0     O 3919   6.555   1.420   5.857  0.2772 -0.1622 -1.2160
  788MOL0     C 3920   6.668   1.342   5.812 -0.2110  0.4302  0.8411
  788MOL0     C 3921   6.773   1.429   5.735  0.2866 -0.1266  0.2639
  788MOL0     C 3922   6.725   1.481   5.605 -0.8283  0.0747  0.5781
  788MOL0     C 3923   6.844   1.554   5.533 -0.3761 -0.5023 -0.0324
  788MOL0     C 3924   6.864   1.703   5.565 -0.7790  0.3102  0.0574
  788MOL0     C 3925   6.764   1.801   5.516 -0.1833  0.3357 -0.5102
  788MOL0     C 3926   6.815   1.945   5.532  0.4381  0.4128 -0.1457
  788MOL0     C 3927   6.754   2.055   5.446 -0.5747 -0.0684 -0.4530
  788MOL0    Cl 3928   6.581   2.067   5.480 -0.1016 -0.2528  0.5217
  788MOL0     C 3929   6.456   1.208   5.952 -0.1774  0.5945 -0.2421
  788MOL0     C 3930   6.349   1.157   6.019  0.0236  0.6837 -0.4116
  788MOL0     O 3931   6.266   1.014   6.264 -0.5109  0.5919  0.8051
  788MOL0     C 3932   6.046   0.878   6.357  0.0381  0.0744 -0.7681
  788MOL0     C 3933   5.940   0.818   6.420  0.4697 -0.8169 -0.1290
  788MOL0     N 3934   5.529   0.522   6.897  0.6109 -0.0744 -0.8474
  788MOL0     N 3935   5.603   0.518   7.011 -0.8462 -0.3930  0.4465
  788MOL0     C 3936   6.631   0.928   7.593 -0.6064  0.3920  0.0802
  788MOL0     C 3937   6.707   1.022   7.665 -0.1480  0.0747  0.3013
  788MOL0     C 3938   6.972   1.286   7.879  0.5514 -0.5272  0.7802
  788MOL0     C 3939   6.942   1.422   7.901  0.1914 -0.4571  0.7878
  788MOL0     C 3940   7.005   1.497   8.003  0.3598 -0.1458  0.2314
  788MOL0     C 3941   7.100   1.436   8.082 -0.2088 -0.5190  0.3447
  788MOL0     O 3942   7.161   1.532   8.162 -0.0081  0.2275 -0.0420
  788MOL0     C 3943   7.279   1.503   8.241 -0.3292  0.2092  0.1138
  788MOL0     C 3944   7.409   1.561   8.176 -0.3093  0.7918 -0.1685
  788MOL0     C 3945   7.538   1.478   8.221 -0.1487 -0.3065 -0.4108
  788MOL0     C 3946   7.665   1.542   8.160 -0.1955  0.0850 -0.5720
  788MOL0     C 3947   7.706   1.662   8.230  0.3092  0.9461 -0.2255
  788MOL0     C 3948   7.746   1.749   8.310  0.1743 -0.2844  0.6195
  788MOL0     C 3949   7.131   1.300   8.063  0.1986  0.0702  0.7915
  788MOL0     C 3950   7.060   1.230   7.970  0.7173 -0.0855  0.4076
  788MOL0     H 3951   7.001   0.834   7.705  2.2441  1.4863 -2.1018
  788MOL0     H 3952   6.877   0.682   7.587  0.2552  1.2862 -0.8226
  788MOL0     H 3953   6.458   0.809   7.431  1.9632  0.0286  0.0714
  788MOL0     H 3954   6.446   0.708   7.584  1.7812  1.0454  0.6711
  788MOL0     H 3955   6.479   0.504   7.423 -3.8383 -1.6979 -0.5486
  788MOL0     H 3956   6.469   0.630   7.286  0.9818  2.9084  0.5272
  788MOL0     H 3957   6.252   0.701   7.366  2.8472  1.0740 -1.0700
  788MOL0     H 3958   6.254   0.567   7.484 -0.3627  1.3878  0.5266
  788MOL0     H 3959   6.282   0.525   7.187 -0.6679  1.1615  0.4679
  788MOL0     H 3960   6.252   0.413   7.321 -0.5465  0.4651  0.4039
  788MOL0     H 3961   6.052   0.626   7.233 -2.2560 -1.3984 -1.1246
  788MOL0     H 3962   6.035   0.494   7.354 -1.8254 -0.0013 -0.5147
  788MOL0     H 3963   6.051   0.318   7.177 -2.1390 -1.7572 -4.0338
  788MOL0     H 3964   6.075   0.445   7.054 -1.1902  1.1856 -0.3310
  788MOL0     H 3965   5.859   0.367   7.031  1.0535  0.7923 -1.0187
  788MOL0     H 3966   5.834   0.397   7.209  0.8594 -0.9395 -0.2586
  788MOL0     H 3967   5.912   0.632   7.044  0.4162 -1.3957 -0.4181
  788MOL0     H 3968   5.799   0.608   7.170  3.7197 -1.1869  1.2951
  788MOL0     H 3969   5.825   0.641   6.795  0.7892 -1.8184  0.3334
  788MOL0     H 3970   5.498   0.502   6.626 -1.5565  1.4940 -3.2988
  788MOL0     H 3971   5.650   0.591   6.582 -0.1417 -1.7268  0.6465
  788MOL0     H 3972   5.390   0.691   6.684  2.0865  0.2145  2.3153
  788MOL0     H 3973   5.454   0.726   6.521  1.2777 -0.8010 -0.2929
  788MOL0     H 3974   5.457   0.930   6.671 -0.3956 -0.2212  2.5973
  788MOL0     H 3975   5.582   0.845   6.764 -0.8376  1.3282  0.2883
  788MOL0     H 3976   5.685   1.003   6.603 -0.4432  0.2633  0.1400
  788MOL0     H 3977   5.578   0.937   6.471  0.5880  1.2300  0.1508
  788MOL0     H 3978   5.735   1.093   6.410 -0.1415  1.1812 -2.8160
  788MOL0     H 3979   5.906   1.182   6.287  2.2270 -0.1566 -5.2728
  788MOL0     H 3980   6.187   1.417   6.129  0.3044  0.8395 -1.0142
  788MOL0     H 3981   6.363   1.536   5.980 -0.3823 -0.2255  0.3234
  788MOL0     H 3982   6.628   1.259   5.753 -3.1782 -0.1320  3.3419
  788MOL0     H 3983   6.719   1.292   5.896  1.0899  0.6639  0.2188
  788MOL0     H 3984   6.861   1.365   5.717  1.7689  1.8537  0.1119
  788MOL0     H 3985   6.810   1.516   5.789  0.1403 -0.4649  0.9160
  788MOL0     H 3986   6.642   1.550   5.622 -2.8416 -1.7524 -1.1326
  788MOL0     H 3987   6.684   1.406   5.536 -0.7142  1.8759 -1.5634
  788MOL0     H 3988   6.938   1.505   5.561 -0.0022  0.6603  0.7963
  788MOL0     H 3989   6.833   1.540   5.425 -3.5968  4.1744 -0.6244
  788MOL0     H 3990   6.958   1.737   5.520  0.1939 -2.5834 -0.2635
  788MOL0     H 3991   6.869   1.717   5.674 -1.8807  0.2107  0.1391
  788MOL0     H 3992   6.669   1.791   5.568  0.0013  0.7890 -0.0772
  788MOL0     H 3993   6.746   1.788   5.408 -1.7387  1.7348 -0.4565
  788MOL0     H 3994   6.798   1.968   5.637 -0.0443  1.1864 -0.3881
  788MOL0     H 3995   6.923   1.943   5.519  0.5914  2.4158  0.5225
  788MOL0     H 3996   6.766   2.039   5.338 -2.3285  0.4159 -0.7677
  788MOL0     H 3997   6.796   2.154   5.464  0.5825 -0.6541  0.1696
  788MOL0     H 3998   6.516   1.143   5.888 -2.6164 -1.1746 -0.8781
  788MOL0     H 3999   6.335   1.050   6.010  0.0710  0.5288  1.1265
  788MOL0     H 4000   6.144   0.831   6.352  0.1888  0.3851 -0.7496
  788MOL0     H 4001   5.937   0.716   6.459 -1.3596 -1.3165 -1.4772
  788MOL0     H 4002   6.535   0.955   7.549 -0.2110  2.4468  0.4111
  788MOL0     H 4003   6.665   1.111   7.709  2.7761  0.4047  2.7692
  788MOL0     H 4004   6.870   1.472   7.836  0.4168 -0.3345  0.6324
  788MOL0     H 4005   6.977   1.602   8.013 -1.0752 -0.4541 -0.2509
  788MOL0     H 4006   7.291   1.394   8.242  2.7426  0.3723 -2.5437
  788MOL0     H 4007   7.260   1.548   8.339 -1.1230  2.2299 -0.9159
  788MOL0     H 4008   7.401   1.563   8.067  2.2339  0.3561 -0.4299
  788MOL0     H 4009   7.414   1.666   8.204 -1.2451  1.3487 -1.9195
  788MOL0     H 4010   7.517   1.380   8.177 -0.0485 -0.2565 -0.5704
  788MOL0     H 4011   7.546   1.473   8.330 -0.4041  0.9016 -0.3249
  788MOL0     H 4012   7.747   1.471   8.173  1.1037  1.2925 -1.9178
  788MOL0     H 4013   7.663   1.569   8.054 -2.7957 -0.3593 -0.7181
  788MOL0     H 4014   7.777   1.818   8.386  0.5625  0.7697 -0.4579
  788MOL0     H 4015   7.195   1.244   8.130  1.6029  2.0148  1.1954
  788MOL0     H 4016   7.091   1.126   7.967 -1.6403 -0.8724  0.9660
  789MOL0     O 4017   0.656   0.338   7.327  0.0953 -0.4055 -0.7374
  789MOL0     C 4018   0.727   0.281   7.406 -0.7472  0.2836  0.4668
  789MOL0     O 4019   0.694   0.232   7.530 -0.1409  0.4469 -0.2062
  789MOL0     C 4020   0.570   0.230   7.586  0.5223 -0.3249  0.1842
  789MOL0     C 4021   0.549   0.235   7.722 -0.1337  0.2884 -0.2274
  789MOL0     C 4022   0.418   0.216   7.778 -0.2969 -0.5855  0.2965
  789MOL0     C 4023   0.307   0.218   7.699 -0.0720 -0.3058  1.0546
  789MOL0     O 4024   0.179   0.205   7.746  0.3719 -0.1682 -0.4915
  789MOL0     C 4025   0.141   0.075   7.789  0.4390  0.1292  0.7934
  789MOL0     C 4026  -0.013   0.070   7.788 -0.3289  0.4951  0.4846
  789MOL0     C 4027  -0.074   0.079   7.640  0.9602 -0.5783  0.4608
  789MOL0     C 4028  -0.225   0.130   7.637  0.5901 -0.2931 -0.2419
  789MOL0     C 4029  -0.318   0.017   7.690  1.1075 -1.1675 -0.4840
  789MOL0     C 4030  -0.465   0.047   7.682  0.7126 -0.2461 -0.4044
  789MOL0     C 4031  -0.538  -0.084   7.716  0.4564 -0.0821 -0.3024
  789MOL0     C 4032  -0.681  -0.054   7.731  0.2136  0.0627 -0.2601
  789MOL0     N 4033  -0.773  -0.168   7.743  0.3044  0.4864  0.0059
  789MOL0     C 4034  -0.777  -0.254   7.853 -0.3634 -0.0749 -0.5970
  789MOL0     C 4035  -0.861  -0.351   7.824  0.0216 -0.4270  0.6915
  789MOL0     C 4036  -0.907  -0.457   7.924 -0.6259  0.1518  0.7046
  789MOL0     C 4037  -1.051  -0.443   7.975  0.0943  0.2631 -0.1594
  789MOL0     C 4038  -1.155  -0.496   7.875 -0.4320 -0.4204  0.0071
  789MOL0     C 4039  -1.297  -0.481   7.921  0.0238  0.2233 -0.1791
  789MOL0     O 4040  -1.377  -0.598   7.890 -0.0309  0.6226 -0.0020
  789MOL0     C 4041  -1.513  -0.593   7.903  0.7576  0.4523  0.0978
  789MOL0     C 4042  -1.590  -0.478   7.912 -0.1409 -0.5584 -0.6375
  789MOL0     C 4043  -1.728  -0.480   7.938 -0.0418  0.0436  0.2437
  789MOL0     C 4044  -1.795  -0.606   7.952 -0.3173 -0.4374 -0.1666
  789MOL0     C 4045  -1.933  -0.620   8.000  0.1524 -0.6169 -0.2704
  789MOL0     O 4046  -2.015  -0.507   8.003 -0.4624  0.0368 -0.9469
  789MOL0     C 4047  -2.137  -0.522   8.063  0.1363 -0.3250 -0.9217
  789MOL0     C 4048  -2.169  -0.446   8.181 -0.1220 -0.1070 -0.4536
  789MOL0     C 4049  -2.288  -0.460   8.253 -0.4918 -0.7968 -0.2113
  789MOL0     C 4050  -2.387  -0.540   8.202 -0.0291  0.0332 -0.7239
  789MOL0     O 4051  -2.500  -0.560   8.278  0.0317  0.1062 -0.0292
  789MOL0     C 4052  -2.624  -0.565   8.201  0.1893  0.5769 -0.5014
  789MOL0     C 4053  -2.743  -0.580   8.293 -0.8088  0.0258  0.0678
  789MOL0     C 4054  -2.761  -0.452   8.367 -0.3459  0.7393 -0.2086
  789MOL0     C 4055  -2.889  -0.444   8.452  0.4174  0.4803 -0.7296
  789MOL0     C 4056  -3.014  -0.443   8.373 -0.0207  0.3151 -1.0324
  789MOL0     C 4057  -3.129  -0.373   8.457 -0.5738 -0.0778 -1.1847
  789MOL0     C 4058  -3.260  -0.410   8.385  0.4147 -0.2264  0.2373
  789MOL0     C 4059  -3.380  -0.316   8.415 -0.3958 -0.3056 -0.4992
  789MOL0    Cl 4060  -3.529  -0.387   8.345  0.3353  0.0751  0.1805
  789MOL0     C 4061  -2.358  -0.615   8.080  0.2648 -0.0661  0.0937
  789MOL0     C 4062  -2.241  -0.596   8.010  0.7670  0.4325  0.0275
  789MOL0     O 4063  -1.983  -0.734   8.022 -0.2219  0.1795  0.2938
  789MOL0     C 4064  -1.722  -0.719   7.922 -0.4532 -0.2928 -0.0426
  789MOL0     C 4065  -1.585  -0.710   7.899 -0.0868  0.3181  0.1201
  789MOL0     N 4066  -0.895  -0.343   7.694  0.3530  0.6304 -0.1764
  789MOL0     N 4067  -0.855  -0.232   7.644  0.0150  0.1611 -0.3377
  789MOL0     C 4068   0.332   0.212   7.560  0.4658  0.1513 -0.4697
  789MOL0     C 4069   0.460   0.213   7.503  0.0077 -0.2739  0.3249
  789MOL0     C 4070   0.876   0.287   7.376 -0.3490  1.8221 -0.0636
  789MOL0     C 4071   0.930   0.285   7.248 -0.6986 -0.8037  0.1233
  789MOL0     C 4072   1.071   0.285   7.228  0.1273  0.3966 -0.7175
  789MOL0     C 4073   1.162   0.276   7.336 -0.0016 -0.6255  0.4994
  789MOL0     O 4074   1.298   0.300   7.337 -0.1797  0.5273  1.1043
  789MOL0     C 4075   1.373   0.298   7.213 -0.0372 -0.0832  0.3651
  789MOL0     C 4076   1.512   0.357   7.247  0.2082 -0.2561  0.2719
  789MOL0     C 4077   1.590   0.345   7.112  0.0852  0.9816 -0.6855
  789MOL0     C 4078   1.673   0.468   7.090 -0.2243 -0.3099  0.5330
  789MOL0     C 4079   1.772   0.493   7.197 -0.0267  0.6907 -0.4670
  789MOL0     C 4080   1.848   0.513   7.291 -0.6926  0.9644 -0.0053
  789MOL0     C 4081   1.103   0.276   7.467 -0.4715 -0.4592 -0.1947
  789MOL0     C 4082   0.965   0.269   7.485  0.6430 -1.3350  0.0159
  789MOL0     H 4083   0.632   0.249   7.791  0.1610  0.9888 -0.7140
  789MOL0     H 4084   0.398   0.188   7.881  3.1852 -1.6094  0.8423
  789MOL0     H 4085   0.183   0.051   7.887  0.6002 -2.3098  0.2030
  789MOL0     H 4086   0.182   0.002   7.718  0.0110  1.1803 -0.5821
  789MOL0     H 4087  -0.050   0.146   7.856 -0.8946  0.4563  0.2242
  789MOL0     H 4088  -0.051  -0.020   7.838 -1.8907  2.4503  3.0446
  789MOL0     H 4089  -0.074  -0.015   7.584  2.9808 -0.1492 -0.3440
  789MOL0     H 4090  -0.007   0.149   7.588 -0.9062 -1.0066 -2.8173
  789MOL0     H 4091  -0.230   0.217   7.703  0.9952 -0.2024 -0.3280
  789MOL0     H 4092  -0.261   0.149   7.536  3.0308 -0.9929 -1.3291
  789MOL0     H 4093  -0.283   0.009   7.794  1.1924  0.0036 -0.4079
  789MOL0     H 4094  -0.296  -0.076   7.637  0.6035 -2.1841  1.0181
  789MOL0     H 4095  -0.501   0.075   7.583  1.9075  1.1152 -0.4898
  789MOL0     H 4096  -0.502   0.125   7.750  0.3141 -1.1847  0.4979
  789MOL0     H 4097  -0.540  -0.156   7.633 -0.1703  0.0222 -0.3818
  789MOL0     H 4098  -0.506  -0.138   7.805 -1.0641  0.5042  0.6473
  789MOL0     H 4099  -0.725   0.013   7.657 -0.9122 -1.0949 -0.6895
  789MOL0     H 4100  -0.688   0.007   7.822  0.5433 -1.4380  0.8183
  789MOL0     H 4101  -0.720  -0.249   7.945 -0.2095 -2.5682 -0.4790
  789MOL0     H 4102  -0.832  -0.460   8.003  1.8725 -2.0061 -1.5367
  789MOL0     H 4103  -0.894  -0.561   7.892 -3.9420 -0.2639  0.2944
  789MOL0     H 4104  -1.064  -0.337   7.998 -1.0139 -0.1298  1.1673
  789MOL0     H 4105  -1.068  -0.506   8.063  0.7654  0.0632 -0.1659
  789MOL0     H 4106  -1.147  -0.450   7.777  1.1843  0.7284  0.6231
  789MOL0     H 4107  -1.133  -0.603   7.868 -2.6413 -0.8797 -0.5214
  789MOL0     H 4108  -1.335  -0.385   7.884  0.6382  0.3244 -0.5594
  789MOL0     H 4109  -1.294  -0.482   8.031  0.8907 -0.6530 -0.1976
  789MOL0     H 4110  -1.547  -0.379   7.903 -3.0911  0.8432 -0.7519
  789MOL0     H 4111  -1.792  -0.394   7.956 -0.4505 -0.3111  0.4807
  789MOL0     H 4112  -2.086  -0.379   8.200 -0.0995 -0.5466  1.1093
  789MOL0     H 4113  -2.309  -0.408   8.346  2.0724  1.6530 -0.8850
  789MOL0     H 4114  -2.613  -0.648   8.130  2.2516  1.7430 -1.6209
  789MOL0     H 4115  -2.639  -0.476   8.139  1.1512  2.7864  2.2509
  789MOL0     H 4116  -2.717  -0.654   8.370 -2.5028  1.2463  1.8953
  789MOL0     H 4117  -2.834  -0.614   8.243 -1.6098 -1.9048  2.6110
  789MOL0     H 4118  -2.757  -0.364   8.302  0.4225  0.6833 -0.2537
  789MOL0     H 4119  -2.677  -0.432   8.435 -0.6993  1.1750  0.1108
  789MOL0     H 4120  -2.879  -0.533   8.516  2.5716  0.8408 -0.4586
  789MOL0     H 4121  -2.887  -0.355   8.516 -0.5826 -0.6978  1.0199
  789MOL0     H 4122  -3.038  -0.547   8.348 -0.8750  0.4526 -0.8177
  789MOL0     H 4123  -3.003  -0.388   8.279 -1.1840  0.0909 -1.3212
  789MOL0     H 4124  -3.113  -0.265   8.450  3.1345 -0.5261 -1.5891
  789MOL0     H 4125  -3.132  -0.410   8.560  1.7991  0.1204 -0.9846
  789MOL0     H 4126  -3.238  -0.405   8.278  2.2228  2.2334  0.6161
  789MOL0     H 4127  -3.282  -0.516   8.396 -2.5578  0.2349 -0.3052
  789MOL0     H 4128  -3.369  -0.211   8.384 -3.8025  0.3308  0.0237
  789MOL0     H 4129  -3.404  -0.307   8.521 -0.7335  0.7230 -0.6438
  789MOL0     H 4130  -2.420  -0.690   8.032 -0.7741  0.5398  0.4644
  789MOL0     H 4131  -2.230  -0.653   7.918 -0.8281 -1.7318  1.1167
  789MOL0     H 4132  -1.761  -0.821   7.921  1.4858 -1.0885 -1.5128
  789MOL0     H 4133  -1.540  -0.808   7.884 -2.6695 -0.5643 -2.7549
  789MOL0     H 4134   0.249   0.191   7.492 -0.0221  0.2513  0.0884
  789MOL0     H 4135   0.477   0.192   7.398 -1.3221 -0.9361  0.2206
  789MOL0     H 4136   0.853   0.277   7.172 -0.5618 -0.7943 -0.0150
  789MOL0     H 4137   1.113   0.302   7.130 -0.0339  2.2362 -0.4976
  789MOL0     H 4138   1.320   0.359   7.140 -1.6791 -0.8745  0.8328
  789MOL0     H 4139   1.380   0.195   7.175  0.6581  0.0064  0.2428
  789MOL0     H 4140   1.492   0.462   7.265 -1.7522 -0.6288  0.4567
  789MOL0     H 4141   1.559   0.304   7.331 -0.6263 -2.7708 -0.7404
  789MOL0     H 4142   1.518   0.341   7.030 -1.7220 -3.3044  0.7879
  789MOL0     H 4143   1.656   0.258   7.112 -0.4535  0.5665 -1.0070
  789MOL0     H 4144   1.723   0.475   6.993  0.7138  2.0763  1.1093
  789MOL0     H 4145   1.613   0.559   7.099  0.2730 -0.1483  3.6314
  789MOL0     H 4146   1.925   0.536   7.361 -2.4236  3.6312  1.1833
  789MOL0     H 4147   1.163   0.257   7.555 -0.3552 -0.3752 -0.2558
  789MOL0     H 4148   0.924   0.262   7.585  0.7989  1.5709  0.3568
  790MOL0     O 4149   9.276   0.755   9.308 -0.0108  0.5712 -0.4774
  790MOL0     C 4150   9.346   0.668   9.357  0.2764 -0.4236 -0.0969
  790MOL0     O 4151   9.321   0.606   9.479 -0.0445 -0.6457  0.4877
  790MOL0     C 4152   9.212   0.647   9.557  0.4926 -0.0572 -0.5082
  790MOL0     C 4153   9.228   0.664   9.692  0.3478  0.4317  0.3115
  790MOL0     C 4154   9.120   0.713   9.768 -0.1264  0.0827  0.8711
  790MOL0     C 4155   9.003   0.757   9.708  0.6097 -0.1373  0.2259
  790MOL0     O 4156   8.908   0.807   9.791 -0.7021 -0.1995  0.6420
  790MOL0     C 4157   8.774   0.814   9.746 -0.1024  0.0559 -0.1075
  790MOL0     C 4158   8.679   0.838   9.853 -0.1585  0.9826 -0.7980
  790MOL0     C 4159   8.693   0.981   9.917  0.3217  0.2254 -0.3191
  790MOL0     C 4160   8.605   0.982  10.046  0.1163 -0.4791 -0.3601
  790MOL0     C 4161   8.586   1.121  10.118  0.2847 -0.2945  0.5313
  790MOL0     C 4162   8.567   1.107  10.274 -0.0086 -0.1000  0.6115
  790MOL0     C 4163   8.477   1.223  10.329  0.8255  0.9139  0.3593
  790MOL0     C 4164   8.550   1.353  10.334  0.9263 -0.0708  0.1668
  790MOL0     N 4165   8.661   1.354  10.434 -0.2819  0.1733 -0.2173
  790MOL0     C 4166   8.788   1.394  10.416  0.6775 -0.7483 -0.1674
  790MOL0     C 4167   8.842   1.400  10.543 -0.6958 -0.5424 -0.4803
  790MOL0     C 4168   8.979   1.456  10.598 -0.1458 -0.6531  0.4623
  790MOL0     C 4169   9.086   1.483  10.480  1.0268 -0.5525  0.4199
  790MOL0     C 4170   9.215   1.561  10.530  0.3511 -0.5336 -0.6539
  790MOL0     C 4171   9.337   1.535  10.444 -0.1134 -0.1896  0.2263
  790MOL0     O 4172   9.375   1.406  10.461 -0.0549  0.6112 -0.5307
  790MOL0     C 4173   9.490   1.367  10.396 -0.2228  0.2304  0.1975
  790MOL0     C 4174   9.570   1.454  10.323 -0.0599 -0.2927 -0.3814
  790MOL0     C 4175   9.700   1.410  10.274  0.8895  1.0368  0.0906
  790MOL0     C 4176   9.742   1.277  10.300  0.5835  0.0238  0.3063
  790MOL0     C 4177   9.878   1.232  10.252  0.6651  0.5955 -0.2279
  790MOL0     O 4178   9.948   1.315  10.187  0.4657  0.5748  0.2341
  790MOL0     C 4179  10.086   1.304  10.159 -0.2717 -0.3389 -0.0181
  790MOL0     C 4180  10.177   1.206  10.201 -0.0900 -0.8373  0.0992
  790MOL0     C 4181  10.310   1.202  10.180 -1.2293  0.5712  0.5043
  790MOL0     C 4182  10.375   1.309  10.112 -0.2833 -0.0010 -0.1508
  790MOL0     O 4183  10.512   1.325  10.090 -0.0577 -0.0675  0.0114
  790MOL0     C 4184  10.588   1.210  10.135  0.2536 -0.1806 -0.0586
  790MOL0     C 4185  10.736   1.214  10.100 -0.3811  0.3680  0.1608
  790MOL0     C 4186  10.797   1.329  10.184 -0.3687  0.1291 -0.2399
  790MOL0     C 4187  10.949   1.328  10.162  0.1151  0.2416  0.2188
  790MOL0     C 4188  11.026   1.453  10.210  0.7398  0.2385 -0.1638
  790MOL0     C 4189  11.005   1.482  10.360 -0.0871 -0.1095 -0.2222
  790MOL0     C 4190  11.069   1.615  10.407  0.0585 -0.1547  0.1120
  790MOL0     C 4191  11.096   1.603  10.553  0.0845 -0.1580 -1.0854
  790MOL0    Cl 4192  10.936   1.567  10.631  0.0345  0.1854 -0.3110
  790MOL0     C 4193  10.291   1.415  10.074 -0.4937  0.7208 -0.1659
  790MOL0     C 4194  10.152   1.411  10.094 -0.3393  0.3904  0.1675
  790MOL0     O 4195   9.913   1.116  10.268 -0.3649  0.3556 -1.2998
  790MOL0     C 4196   9.654   1.184  10.355  0.0389 -0.7556  0.8992
  790MOL0     C 4197   9.534   1.233  10.411  0.2529 -0.2441  0.1823
  790MOL0     N 4198   8.756   1.329  10.629  0.0799 -0.4635  0.9371
  790MOL0     N 4199   8.646   1.308  10.565  0.3746 -0.2144 -0.2522
  790MOL0     C 4200   8.989   0.735   9.572  0.6202  0.6581 -0.0715
  790MOL0     C 4201   9.087   0.666   9.500  0.1609 -0.0290 -0.6912
  790MOL0     C 4202   9.471   0.638   9.291  0.1356 -0.1039  0.3394
  790MOL0     C 4203   9.553   0.523   9.326 -0.4322 -0.5658 -0.4968
  790MOL0     C 4204   9.678   0.493   9.263  0.4064  0.9885  0.7423
  790MOL0     C 4205   9.725   0.578   9.167  0.4929 -0.2132  0.3769
  790MOL0     O 4206   9.830   0.536   9.093  0.2944 -0.7894  0.3904
  790MOL0     C 4207   9.952   0.534   9.161  0.5775 -0.5461  0.4966
  790MOL0     C 4208  10.071   0.541   9.066  0.1495 -0.7924  0.4899
  790MOL0     C 4209  10.199   0.523   9.143 -0.3327  0.6901  0.1517
  790MOL0     C 4210  10.327   0.551   9.058  0.5584 -0.3827  0.3432
  790MOL0     C 4211  10.336   0.475   8.936  0.4771 -0.4948  0.1109
  790MOL0     C 4212  10.350   0.419   8.831  0.0766 -0.3784 -0.3095
  790MOL0     C 4213   9.661   0.696   9.134 -0.7465 -1.0022  0.2052
  790MOL0     C 4214   9.539   0.722   9.195 -0.7121 -0.1105  0.7905
  790MOL0     H 4215   9.322   0.642   9.741  0.8479 -1.0117 -1.2289
  790MOL0     H 4216   9.151   0.731   9.870  0.0450 -1.4031  1.1079
  790MOL0     H 4217   8.749   0.721   9.693 -0.8001  0.6949 -0.9282
  790MOL0     H 4218   8.757   0.891   9.671 -2.2576 -0.2521  0.0094
  790MOL0     H 4219   8.705   0.757   9.921  0.2087  2.4871  0.9395
  790MOL0     H 4220   8.575   0.825   9.821 -0.0347 -0.5102 -0.6447
  790MOL0     H 4221   8.660   1.055   9.844 -0.0682  1.2513  0.8564
  790MOL0     H 4222   8.797   1.005   9.942  0.7439  1.2691 -2.7362
  790MOL0     H 4223   8.503   0.956  10.013 -0.2831 -0.3503  0.7343
  790MOL0     H 4224   8.643   0.905  10.113  0.7310  0.3805  0.2928
  790MOL0     H 4225   8.501   1.161  10.061  0.9515 -1.6467 -1.5569
  790MOL0     H 4226   8.671   1.189  10.109 -1.0097  1.3593  0.3660
  790MOL0     H 4227   8.663   1.110  10.326 -1.0163 -1.5755  2.6558
  790MOL0     H 4228   8.527   1.007  10.288 -1.1006  0.2329 -0.0190
  790MOL0     H 4229   8.394   1.234  10.259  0.3484  0.0183  0.7673
  790MOL0     H 4230   8.434   1.198  10.427 -0.8271 -0.2452 -0.6178
  790MOL0     H 4231   8.474   1.425  10.366  0.8620 -0.2179  0.3490
  790MOL0     H 4232   8.581   1.373  10.231 -0.2964 -0.0899 -0.2265
  790MOL0     H 4233   8.831   1.435  10.325 -2.4027  0.5060 -1.1916
  790MOL0     H 4234   9.017   1.381  10.668  0.2709 -0.6967  0.1966
  790MOL0     H 4235   8.952   1.544  10.656 -1.8677 -2.7440  3.0441
  790MOL0     H 4236   9.043   1.538  10.395  1.9137  1.9893  1.5133
  790MOL0     H 4237   9.110   1.387  10.434 -1.2714 -0.2227 -1.6467
  790MOL0     H 4238   9.200   1.669  10.534  4.1413  0.1953 -1.5555
  790MOL0     H 4239   9.240   1.518  10.627 -1.7249  1.2469  0.7421
  790MOL0     H 4240   9.412   1.608  10.475  0.7577 -1.3001  0.8276
  790MOL0     H 4241   9.304   1.553  10.341 -1.2880 -2.8289  0.0531
  790MOL0     H 4242   9.549   1.559  10.304  0.9823  0.2295  1.1653
  790MOL0     H 4243   9.755   1.482  10.214  0.9374 -0.2072 -1.3916
  790MOL0     H 4244  10.139   1.127  10.266 -2.8229  0.3538  0.1125
  790MOL0     H 4245  10.360   1.117  10.223  0.2091  0.8060 -0.6342
  790MOL0     H 4246  10.545   1.124  10.082 -0.8176 -2.0426  3.5022
  790MOL0     H 4247  10.562   1.191  10.239 -3.1416  1.7195 -0.4260
  790MOL0     H 4248  10.772   1.236   9.999  1.8104 -0.3138  0.7258
  790MOL0     H 4249  10.772   1.117  10.136 -0.4346  0.8566  1.6111
  790MOL0     H 4250  10.778   1.320  10.291 -1.6297  2.8500 -0.1447
  790MOL0     H 4251  10.754   1.427  10.160  0.3783  0.4056 -0.4837
  790MOL0     H 4252  11.007   1.251  10.214 -0.0774  0.0044  0.0823
  790MOL0     H 4253  10.969   1.304  10.058 -0.7449  0.0561  0.0944
  790MOL0     H 4254  10.994   1.542  10.155 -0.0022  0.5404  0.7327
  790MOL0     H 4255  11.131   1.444  10.182  0.9745 -0.6164  0.9499
  790MOL0     H 4256  11.034   1.392  10.415  0.1532 -0.2045 -0.5017
  790MOL0     H 4257  10.897   1.485  10.376 -0.0861  2.1595 -0.3128
  790MOL0     H 4258  11.159   1.637  10.348  0.6312 -1.3763  0.5012
  790MOL0     H 4259  10.996   1.696  10.394 -1.6606 -1.8605 -1.7421
  790MOL0     H 4260  11.130   1.698  10.595  2.0274 -0.2687 -2.2748
  790MOL0     H 4261  11.177   1.532  10.574 -0.9563 -0.5476  2.3364
  790MOL0     H 4262  10.336   1.503  10.030  1.8433  1.2351  2.8963
  790MOL0     H 4263  10.099   1.500  10.062 -2.3589 -0.7829  0.1275
  790MOL0     H 4264   9.679   1.079  10.352  1.1368 -0.4787 -1.6226
  790MOL0     H 4265   9.458   1.173  10.459 -1.4363  1.8701  0.2934
  790MOL0     H 4266   8.897   0.748   9.517  1.5287 -0.2267 -1.8775
  790MOL0     H 4267   9.057   0.636   9.400  3.4912  0.3134 -1.9040
  790MOL0     H 4268   9.513   0.450   9.396 -1.1647  1.0532  0.8263
  790MOL0     H 4269   9.727   0.402   9.298 -0.8908  0.1368  0.4169
  790MOL0     H 4270   9.954   0.438   9.214  1.3322  0.7178  2.9177
  790MOL0     H 4271   9.950   0.607   9.242 -1.9621 -0.9499  0.8660
  790MOL0     H 4272  10.065   0.463   8.990 -1.2116 -0.0659 -0.1808
  790MOL0     H 4273  10.065   0.641   9.022 -2.6179 -0.2516  1.8495
  790MOL0     H 4274  10.219   0.420   9.175  1.2098  0.6844 -0.7284
  790MOL0     H 4275  10.201   0.582   9.236  2.7736  0.0337  0.6367
  790MOL0     H 4276  10.318   0.658   9.038  1.1111 -0.4782 -0.4482
  790MOL0     H 4277  10.414   0.519   9.116  0.9856  1.4066  0.7370
  790MOL0     H 4278  10.367   0.378   8.733  3.6250 -0.2309  0.1170
  790MOL0     H 4279   9.698   0.777   9.071  0.5851 -0.1683  1.9679
  790MOL0     H 4280   9.496   0.817   9.164 -1.0112  0.2538  2.2284
  791MOL0     O 4281   4.500   8.551   3.015  0.6336 -0.3794 -0.7041
  791MOL0     C 4282   4.541   8.575   3.123  0.1545  0.2959  0.5099
  791MOL0     O 4283   4.477   8.643   3.217  0.8461 -0.0326 -0.6583
  791MOL0     C 4284   4.350   8.692   3.197 -0.3089 -0.0474  0.3266
  791MOL0     C 4285   4.330   8.781   3.087 -0.3102 -0.0003 -0.8529
  791MOL0     C 4286   4.205   8.837   3.082 -0.8694  0.1967  0.2071
  791MOL0     C 4287   4.109   8.833   3.189 -0.6675  0.2613  0.4118
  791MOL0     O 4288   3.992   8.907   3.158 -0.4137 -0.4451 -1.3011
  791MOL0     C 4289   3.893   8.905   3.260  0.2216  0.3064  0.3188
  791MOL0     C 4290   3.778   8.991   3.206  0.2201 -0.1041 -0.6994
  791MOL0     C 4291   3.649   8.935   3.268 -0.0775 -0.0783 -0.9499
  791MOL0     C 4292   3.531   9.029   3.227  0.2062  0.7288 -0.5805
  791MOL0     C 4293   3.397   8.969   3.266  0.1337  0.6044  0.2509
  791MOL0     C 4294   3.277   9.048   3.210  0.2784 -1.5553  0.0666
  791MOL0     C 4295   3.136   9.006   3.268 -0.6926 -0.2626 -0.7362
  791MOL0     C 4296   3.038   9.105   3.196  0.7511  0.2715  0.1981
  791MOL0     N 4297   2.901   9.063   3.211  0.0458 -0.3652  0.4919
  791MOL0     C 4298   2.815   9.024   3.109  0.1635  0.1546  0.8903
  791MOL0     C 4299   2.689   9.026   3.154  0.8047  0.2951 -0.3912
  791MOL0     C 4300   2.563   8.996   3.082  0.1485 -0.1768  0.4403
  791MOL0     C 4301   2.482   8.895   3.166  0.0877  0.3341  0.5272
  791MOL0     C 4302   2.347   8.859   3.093 -1.0927 -0.1458 -0.4000
  791MOL0     C 4303   2.379   8.763   2.981  0.3817 -0.0349  0.2962
  791MOL0     O 4304   2.411   8.834   2.858 -0.3831 -0.3756 -0.0154
  791MOL0     C 4305   2.308   8.894   2.790 -1.2782  0.3088  0.1594
  791MOL0     C 4306   2.348   8.987   2.693 -0.1956  0.1991  0.6351
  791MOL0     C 4307   2.255   9.066   2.620 -0.3741 -0.0286  0.1817
  791MOL0     C 4308   2.120   9.060   2.645  0.6878 -0.2055  0.1404
  791MOL0     C 4309   2.027   9.153   2.578  0.5631  0.8885 -0.7051
  791MOL0     O 4310   1.885   9.115   2.572 -0.4873  0.2195  0.4416
  791MOL0     C 4311   1.802   9.213   2.523  0.0877 -0.2225 -0.1038
  791MOL0     C 4312   1.792   9.337   2.573 -0.0320 -0.1648  0.6725
  791MOL0     C 4313   1.705   9.427   2.519 -0.9286 -0.4192  0.3805
  791MOL0     C 4314   1.636   9.401   2.397  0.7186 -0.0528  0.2200
  791MOL0     O 4315   1.546   9.494   2.361 -0.2392  0.3250 -1.0832
  791MOL0     C 4316   1.492   9.496   2.230 -0.8021 -0.0890  0.3397
  791MOL0     C 4317   1.400   9.615   2.228 -0.2176  0.1182  0.1936
  791MOL0     C 4318   1.335   9.613   2.087 -0.0510  0.5565  0.1730
  791MOL0     C 4319   1.232   9.719   2.070 -0.1284  0.6167  0.9342
  791MOL0     C 4320   1.161   9.710   1.936 -0.2777  0.1204 -0.3892
  791MOL0     C 4321   1.050   9.818   1.929 -0.8749  0.5579 -1.1735
  791MOL0     C 4322   0.944   9.783   1.834 -0.5313  0.1194  0.0349
  791MOL0     C 4323   0.817   9.869   1.848 -0.1757 -0.2331 -0.5722
  791MOL0    Cl 4324   0.854  10.037   1.790 -0.4557 -0.1386 -0.0252
  791MOL0     C 4325   1.640   9.277   2.345 -0.8051  0.8658 -0.8716
  791MOL0     C 4326   1.721   9.181   2.406  0.3387 -0.5774 -0.4197
  791MOL0     O 4327   2.079   9.252   2.532  0.2482 -0.1593 -0.5395
  791MOL0     C 4328   2.085   8.971   2.749  0.7319 -0.5731  0.2955
  791MOL0     C 4329   2.172   8.892   2.816 -0.2380 -0.1011 -0.2948
  791MOL0     N 4330   2.695   9.069   3.282 -0.1265  0.5777 -0.6586
  791MOL0     N 4331   2.818   9.093   3.316 -0.3267  0.1898  0.7006
  791MOL0     C 4332   4.131   8.746   3.296 -0.0339 -0.3262  0.2708
  791MOL0     C 4333   4.251   8.675   3.294  0.2219  0.6933 -0.4646
  791MOL0     C 4334   4.684   8.570   3.140 -0.1478  0.6491  0.2614
  791MOL0     C 4335   4.766   8.503   3.045 -0.0756 -0.5226 -0.0504
  791MOL0     C 4336   4.904   8.509   3.052 -0.6154 -0.2895 -0.0883
  791MOL0     C 4337   4.965   8.576   3.153  1.0064  0.7914  0.1952
  791MOL0     O 4338   5.098   8.595   3.151  0.3266  0.1831  0.0299
  791MOL0     C 4339   5.156   8.678   3.255 -0.6069  0.3849 -0.4874
  791MOL0     C 4340   5.308   8.680   3.247 -0.3158  0.6916  0.4429
  791MOL0     C 4341   5.386   8.761   3.349 -0.0121 -0.2535  0.1056
  791MOL0     C 4342   5.392   8.916   3.321  0.0062 -0.4565  0.3006
  791MOL0     C 4343   5.259   8.976   3.336 -0.9347  0.1074  0.1507
  791MOL0     C 4344   5.152   9.016   3.359 -0.4940 -0.2460  0.2173
  791MOL0     C 4345   4.886   8.641   3.251 -0.9831  0.5660  0.1002
  791MOL0     C 4346   4.746   8.644   3.240 -0.6546  0.6736  0.7471
  791MOL0     H 4347   4.402   8.809   3.011  3.0074 -0.6349  1.8194
  791MOL0     H 4348   4.184   8.891   2.990  1.8666  0.9998 -0.0353
  791MOL0     H 4349   3.921   8.939   3.360  0.9767  1.9708 -0.4325
  791MOL0     H 4350   3.854   8.803   3.274 -1.0853  0.8474  0.8229
  791MOL0     H 4351   3.773   9.008   3.098  1.1293  1.6533 -0.5017
  791MOL0     H 4352   3.786   9.093   3.244  0.9935 -0.3430 -0.2038
  791MOL0     H 4353   3.657   8.933   3.377  2.4607 -0.6404 -1.0790
  791MOL0     H 4354   3.634   8.834   3.230 -2.4578  0.2175 -0.9260
  791MOL0     H 4355   3.537   9.127   3.276 -1.7441 -0.1517  1.6592
  791MOL0     H 4356   3.539   9.039   3.119 -0.8932 -0.4552 -0.7913
  791MOL0     H 4357   3.388   8.967   3.375 -1.1787 -1.9095  0.1775
  791MOL0     H 4358   3.391   8.867   3.228 -0.8549  1.0669 -0.8984
  791MOL0     H 4359   3.282   9.044   3.101  3.5935 -1.2612  0.0991
  791MOL0     H 4360   3.298   9.148   3.246 -0.0488 -0.9418 -1.3670
  791MOL0     H 4361   3.107   8.905   3.239  1.9785 -1.2630 -0.2646
  791MOL0     H 4362   3.139   9.008   3.378  2.4875  1.1589 -0.7141
  791MOL0     H 4363   3.059   9.105   3.089  1.3235  1.2340  0.2984
  791MOL0     H 4364   3.054   9.207   3.231  2.0414  1.4303 -3.3688
  791MOL0     H 4365   2.843   8.996   3.008 -1.7739  2.4727 -0.3939
  791MOL0     H 4366   2.582   8.973   2.977 -1.8678 -0.7142  0.1408
  791MOL0     H 4367   2.513   9.090   3.057 -0.5820 -0.8444 -0.7059
  791MOL0     H 4368   2.444   8.938   3.259 -0.0090  0.9038  0.2293
  791MOL0     H 4369   2.538   8.804   3.188 -0.5114 -0.6269 -1.6759
  791MOL0     H 4370   2.274   8.814   3.160 -1.0077 -0.8519 -0.7756
  791MOL0     H 4371   2.307   8.953   3.054  2.4271  2.1534  0.9946
  791MOL0     H 4372   2.297   8.694   2.957  1.8790 -1.7947  0.0537
  791MOL0     H 4373   2.466   8.700   3.003 -0.0655 -0.5914  0.5044
  791MOL0     H 4374   2.455   8.992   2.671 -0.6293 -0.6196 -2.0774
  791MOL0     H 4375   2.295   9.130   2.541 -2.6749  0.4854 -0.6732
  791MOL0     H 4376   1.854   9.374   2.654 -1.1865  2.0084  0.6296
  791MOL0     H 4377   1.699   9.529   2.558  0.7793  1.4581 -3.6292
  791MOL0     H 4378   1.424   9.412   2.215 -3.2604  2.0187 -1.2829
  791MOL0     H 4379   1.568   9.505   2.153 -0.0613  1.5496  1.2068
  791MOL0     H 4380   1.454   9.710   2.234  0.1578 -0.0639 -0.3072
  791MOL0     H 4381   1.336   9.606   2.317  0.7050  3.2683  1.3214
  791MOL0     H 4382   1.281   9.518   2.076 -0.0607  0.4237  1.3307
  791MOL0     H 4383   1.406   9.620   2.004  0.3100 -0.5214  0.3687
  791MOL0     H 4384   1.160   9.706   2.151  1.3976 -0.8578  2.1343
  791MOL0     H 4385   1.271   9.820   2.088 -0.8993  0.9817  0.5864
  791MOL0     H 4386   1.125   9.607   1.931 -1.0064  0.3138  0.5489
  791MOL0     H 4387   1.225   9.724   1.848 -2.4732 -1.6218 -2.3958
  791MOL0     H 4388   1.100   9.912   1.906 -0.3276  0.1008 -1.8943
  791MOL0     H 4389   1.006   9.830   2.029 -1.1316  0.5167 -1.2804
  791MOL0     H 4390   0.972   9.789   1.729  1.9880 -0.2312  0.6301
  791MOL0     H 4391   0.919   9.678   1.854 -0.6717 -0.8534 -4.3270
  791MOL0     H 4392   0.781   9.870   1.951 -0.8846 -0.3264 -0.8160
  791MOL0     H 4393   0.731   9.823   1.797 -2.1651  1.4168  1.1185
  791MOL0     H 4394   1.573   9.242   2.268 -0.6239 -4.1432  0.8779
  791MOL0     H 4395   1.733   9.082   2.363  0.8515 -0.6470 -0.1175
  791MOL0     H 4396   1.981   8.977   2.779  0.5960  0.2614 -0.3124
  791MOL0     H 4397   2.130   8.820   2.885 -1.8498  0.8756 -0.1984
  791MOL0     H 4398   4.054   8.733   3.372  1.4195  0.2691  1.9060
  791MOL0     H 4399   4.263   8.598   3.369  0.5067 -0.4628 -1.6427
  791MOL0     H 4400   4.731   8.444   2.961 -2.0533 -1.2348  1.1985
  791MOL0     H 4401   4.961   8.459   2.974 -0.9299 -1.0206  0.1320
  791MOL0     H 4402   5.129   8.646   3.356 -0.6752 -2.0437 -1.2023
  791MOL0     H 4403   5.120   8.780   3.244 -0.4643  0.3718 -1.0795
  791MOL0     H 4404   5.341   8.576   3.250 -0.5699  0.6005  0.1355
  791MOL0     H 4405   5.342   8.701   3.145  0.3823 -0.4772  0.4165
  791MOL0     H 4406   5.485   8.716   3.358  1.2242  2.4251  1.1127
  791MOL0     H 4407   5.340   8.740   3.446  1.6262 -1.7945  0.5789
  791MOL0     H 4408   5.469   8.962   3.383  0.2935  0.3728 -0.6451
  791MOL0     H 4409   5.421   8.943   3.219 -0.0019  1.5377  0.7845
  791MOL0     H 4410   5.055   9.061   3.370 -1.6129 -2.0192 -1.8089
  791MOL0     H 4411   4.922   8.708   3.327 -2.6203  1.1096  0.4445
  791MOL0     H 4412   4.689   8.698   3.315 -2.5658 -0.1694 -0.0332
  792MOL0     O 4413   8.027   6.886   2.250  0.3818 -0.5657  0.0541
  792MOL0     C 4414   8.048   6.997   2.297 -0.2913  0.0413  0.2338
  792MOL0     O 4415   7.960   7.085   2.342  0.7560  0.0928  0.6719
  792MOL0     C 4416   7.819   7.065   2.315 -0.2168  0.4774  0.4959
  792MOL0     C 4417   7.749   7.173   2.254  0.1414 -0.3088 -1.1764
  792MOL0     C 4418   7.610   7.163   2.239  0.6329  0.4379  0.4216
  792MOL0     C 4419   7.546   7.048   2.285 -0.5428  0.4459  0.4883
  792MOL0     O 4420   7.402   7.038   2.260  0.0309 -0.2988  0.4815
  792MOL0     C 4421   7.336   7.164   2.228  0.1371  0.5774 -0.4724
  792MOL0     C 4422   7.189   7.138   2.231  0.2867  0.8632  0.2865
  792MOL0     C 4423   7.142   7.103   2.089  0.0634  0.1573 -0.5227
  792MOL0     C 4424   6.989   7.102   2.071  0.0241  0.1146  1.1813
  792MOL0     C 4425   6.950   7.099   1.918 -0.2243 -1.2152  0.3154
  792MOL0     C 4426   6.805   7.078   1.867 -0.3000  0.3782  1.0254
  792MOL0     C 4427   6.705   7.164   1.948  0.1359  0.8630 -0.1294
  792MOL0     C 4428   6.573   7.100   1.986 -0.6362 -0.0275  0.0477
  792MOL0     N 4429   6.536   7.111   2.124 -0.2425  0.3510  0.3208
  792MOL0     C 4430   6.508   7.000   2.202  0.1557 -0.2039  0.4837
  792MOL0     C 4431   6.448   7.056   2.309 -0.2895 -0.3130  0.3325
  792MOL0     C 4432   6.400   6.990   2.431  1.3005 -0.4123 -0.6821
  792MOL0     C 4433   6.350   6.853   2.392  0.1625 -0.3369 -0.5385
  792MOL0     C 4434   6.262   6.768   2.485 -0.0560  0.6445 -0.3745
  792MOL0     C 4435   6.318   6.777   2.628 -0.9509  0.4351  0.1359
  792MOL0     O 4436   6.238   6.710   2.723  0.6351 -0.1410  0.2577
  792MOL0     C 4437   6.107   6.744   2.754 -0.2878  0.5404 -0.2812
  792MOL0     C 4438   6.043   6.860   2.723  0.3434 -0.1994 -0.1708
  792MOL0     C 4439   5.904   6.884   2.761  0.3747  0.8598  0.8593
  792MOL0     C 4440   5.834   6.797   2.847  0.9578 -0.7066  0.3504
  792MOL0     C 4441   5.695   6.832   2.887 -0.1849 -0.0502  0.2667
  792MOL0     O 4442   5.636   6.760   2.991 -0.1773  0.4473 -0.1694
  792MOL0     C 4443   5.506   6.755   3.003  0.1574  0.8988 -0.5915
  792MOL0     C 4444   5.418   6.860   3.030 -0.6085 -0.0536  1.0352
  792MOL0     C 4445   5.276   6.838   3.050 -0.2099 -0.1168  0.8906
  792MOL0     C 4446   5.231   6.713   3.063  0.0650  0.3640 -0.8213
  792MOL0     O 4447   5.099   6.686   3.092 -0.1283 -0.0461 -0.6775
  792MOL0     C 4448   5.001   6.783   3.050  0.0137  0.2490 -0.4209
  792MOL0     C 4449   4.866   6.737   3.080  0.2719  0.3964 -0.5986
  792MOL0     C 4450   4.769   6.848   3.075  0.1435  0.2282 -0.5834
  792MOL0     C 4451   4.617   6.811   3.099 -0.4526 -0.0393  0.1846
  792MOL0     C 4452   4.540   6.941   3.131  0.0372  0.4294 -0.5534
  792MOL0     C 4453   4.391   6.933   3.123  0.5401 -0.3233 -0.0621
  792MOL0     C 4454   4.316   7.068   3.158 -0.1562 -0.3750  0.0771
  792MOL0     C 4455   4.345   7.147   3.288  0.0240  0.3640 -0.1451
  792MOL0    Cl 4456   4.365   7.047   3.431 -0.5367  0.3373 -0.5374
  792MOL0     C 4457   5.317   6.606   3.043  0.0973  0.5854 -0.8671
  792MOL0     C 4458   5.448   6.625   3.016  0.0919  0.0596 -0.5577
  792MOL0     O 4459   5.642   6.930   2.839 -0.0269  0.0558 -0.1619
  792MOL0     C 4460   5.905   6.686   2.880  0.1420  0.6363 -0.9358
  792MOL0     C 4461   6.036   6.653   2.832  0.2376 -0.3549  0.8736
  792MOL0     N 4462   6.441   7.189   2.289  1.0452  0.2881 -0.0366
  792MOL0     N 4463   6.497   7.225   2.178 -0.1462 -0.3842 -0.2114
  792MOL0     C 4464   7.614   6.937   2.317 -0.0024  0.3366  0.3015
  792MOL0     C 4465   7.746   6.942   2.334  0.6504 -0.2416 -0.2855
  792MOL0     C 4466   8.189   7.039   2.277  0.1676 -0.1433  1.0666
  792MOL0     C 4467   8.290   6.947   2.239 -0.1760 -0.4212 -0.0268
  792MOL0     C 4468   8.421   6.996   2.223  0.4899 -0.8498  0.3049
  792MOL0     C 4469   8.455   7.132   2.261  1.2720 -0.2627  0.5542
  792MOL0     O 4470   8.580   7.184   2.269 -0.2051  0.3614  0.3620
  792MOL0     C 4471   8.690   7.093   2.256  0.8568  0.7038  0.5405
  792MOL0     C 4472   8.813   7.192   2.264  0.7554 -0.5000  1.1860
  792MOL0     C 4473   8.940   7.136   2.216 -0.0181  0.4784 -0.0434
  792MOL0     C 4474   9.048   7.246   2.194 -0.2620 -0.0876 -0.3383
  792MOL0     C 4475   9.184   7.190   2.169  0.5372  0.1123  0.0557
  792MOL0     C 4476   9.288   7.132   2.149 -0.3356  0.6777 -0.3520
  792MOL0     C 4477   8.351   7.218   2.298  0.4851  0.9148 -0.3390
  792MOL0     C 4478   8.216   7.175   2.301  0.4270  1.2144 -0.1225
  792MOL0     H 4479   7.799   7.263   2.220 -0.4526  0.5796  0.1980
  792MOL0     H 4480   7.560   7.250   2.197 -1.0349 -0.3419  0.7081
  792MOL0     H 4481   7.363   7.194   2.126 -0.6569 -0.7727 -1.1133
  792MOL0     H 4482   7.350   7.251   2.292 -0.2971 -1.3570  2.4492
  792MOL0     H 4483   7.138   7.229   2.263  2.8553  3.0144 -1.4185
  792MOL0     H 4484   7.165   7.064   2.309 -0.9592  1.0986  0.1565
  792MOL0     H 4485   7.190   7.011   2.054  1.8473  1.4678 -1.7024
  792MOL0     H 4486   7.180   7.178   2.019 -0.4803  1.4766  0.5408
  792MOL0     H 4487   6.950   7.012   2.121  0.4558 -1.8026 -1.6941
  792MOL0     H 4488   6.947   7.191   2.119 -0.2012  0.0036  1.1929
  792MOL0     H 4489   7.020   7.025   1.877  1.0122 -0.4324  0.9456
  792MOL0     H 4490   6.986   7.196   1.882  0.8422 -1.4855  0.6067
  792MOL0     H 4491   6.778   6.972   1.863 -0.7977  0.5413 -1.7027
  792MOL0     H 4492   6.789   7.106   1.763 -0.4974  1.8160  1.4205
  792MOL0     H 4493   6.751   7.215   2.034  2.1786  2.9821 -2.3374
  792MOL0     H 4494   6.681   7.247   1.882 -0.3035  0.1122 -0.9401
  792MOL0     H 4495   6.568   6.997   1.950 -3.2327  0.0199  0.1150
  792MOL0     H 4496   6.500   7.161   1.933  0.9610  0.0814 -2.1882
  792MOL0     H 4497   6.532   6.896   2.181  3.2645  0.8327 -1.8806
  792MOL0     H 4498   6.319   7.049   2.477  0.0438 -2.6107  0.0917
  792MOL0     H 4499   6.474   6.982   2.511 -0.0040 -1.7944  0.4631
  792MOL0     H 4500   6.446   6.803   2.374 -0.0721 -0.8867 -0.2951
  792MOL0     H 4501   6.300   6.859   2.295 -1.2279  0.8648  0.2253
  792MOL0     H 4502   6.159   6.804   2.492  1.2768  4.6327  1.5827
  792MOL0     H 4503   6.253   6.665   2.449  2.2067  0.2276  0.1147
  792MOL0     H 4504   6.340   6.878   2.663  0.1722 -0.2383  1.4504
  792MOL0     H 4505   6.415   6.727   2.637  0.0800  2.5850  2.0096
  792MOL0     H 4506   6.087   6.941   2.666 -0.9531 -0.2961 -1.3671
  792MOL0     H 4507   5.856   6.976   2.727  1.9410  1.3086 -0.2836
  792MOL0     H 4508   5.451   6.964   3.027  0.1139 -0.2934 -1.1579
  792MOL0     H 4509   5.228   6.930   3.083  0.1515 -0.3411  2.1291
  792MOL0     H 4510   4.997   6.809   2.944 -3.5795  2.5851  0.1304
  792MOL0     H 4511   5.022   6.878   3.100  0.3488  2.1319 -3.8550
  792MOL0     H 4512   4.864   6.692   3.179  0.2059  0.4239 -0.5880
  792MOL0     H 4513   4.835   6.653   3.017  0.5999  0.2736 -0.6017
  792MOL0     H 4514   4.768   6.906   2.983 -2.3155 -0.8908 -1.3543
  792MOL0     H 4515   4.796   6.922   3.151  2.6787  0.4136 -1.5926
  792MOL0     H 4516   4.578   6.745   3.022 -0.7718 -0.4306  0.6715
  792MOL0     H 4517   4.608   6.741   3.184  0.8941 -0.0712  0.3195
  792MOL0     H 4518   4.565   7.020   3.061  0.6296  0.8322  0.1031
  792MOL0     H 4519   4.564   6.958   3.237  0.5635 -0.9650 -0.4165
  792MOL0     H 4520   4.357   6.858   3.195  0.7019  2.2773  2.9282
  792MOL0     H 4521   4.363   6.907   3.020 -2.2529 -0.6274  0.6895
  792MOL0     H 4522   4.321   7.136   3.073  2.4175 -2.2088 -1.3730
  792MOL0     H 4523   4.209   7.045   3.165 -0.9598  2.9049  0.3757
  792MOL0     H 4524   4.266   7.220   3.309  0.6420  0.8141  0.6756
  792MOL0     H 4525   4.432   7.209   3.267  0.2552 -0.1676 -0.7804
  792MOL0     H 4526   5.287   6.504   3.065  1.1935  0.5031  0.3169
  792MOL0     H 4527   5.494   6.527   3.022 -3.2078 -1.5515  2.2181
  792MOL0     H 4528   5.866   6.617   2.955  1.4815 -0.5342 -1.2734
  792MOL0     H 4529   6.087   6.559   2.854  1.1014  0.0060  0.4525
  792MOL0     H 4530   7.545   6.855   2.333 -1.5494  0.8273 -2.9217
  792MOL0     H 4531   7.792   6.853   2.374 -0.4784 -0.9741 -0.5846
  792MOL0     H 4532   8.264   6.842   2.224  1.1008 -1.6482  4.6206
  792MOL0     H 4533   8.503   6.935   2.187  0.1280 -0.4304 -1.2959
  792MOL0     H 4534   8.683   7.048   2.156 -1.4060  2.9892 -0.4654
  792MOL0     H 4535   8.688   7.008   2.325 -2.2488  1.6698  1.8185
  792MOL0     H 4536   8.798   7.278   2.199  2.8668 -0.2933  0.9010
  792MOL0     H 4537   8.824   7.235   2.364 -2.3380 -1.1321  1.9101
  792MOL0     H 4538   8.927   7.075   2.126 -0.2888 -0.3807  0.5773
  792MOL0     H 4539   8.971   7.073   2.299  1.3401  1.2084  0.0354
  792MOL0     H 4540   9.028   7.302   2.102 -1.0909 -1.4106 -0.9947
  792MOL0     H 4541   9.047   7.301   2.288  2.4188 -0.6508  0.1116
  792MOL0     H 4542   9.380   7.077   2.143 -1.0310 -0.4623 -0.7338
  792MOL0     H 4543   8.385   7.317   2.327 -0.6714  0.9263  1.1194
  792MOL0     H 4544   8.148   7.252   2.336  1.9399  2.4170  0.2812
  793MOL0     O 4545  10.453   0.206   0.771  0.1502 -0.4773  0.7552
  793MOL0     C 4546  10.408   0.317   0.813 -1.0161  0.4632  0.2371
  793MOL0     O 4547  10.490   0.432   0.836 -0.0019 -0.2857  0.2368
  793MOL0     C 4548  10.623   0.431   0.827  0.1639  0.5555 -0.1126
  793MOL0     C 4549  10.687   0.493   0.926  0.7077 -0.1854 -0.7487
  793MOL0     C 4550  10.826   0.505   0.922 -0.5917 -0.1052  0.3961
  793MOL0     C 4551  10.896   0.451   0.814 -0.6225  0.2068 -0.8368
  793MOL0     O 4552  11.031   0.469   0.799 -0.0266  0.6126  0.3548
  793MOL0     C 4553  11.094   0.598   0.838  1.5349 -0.4634 -0.5781
  793MOL0     C 4554  11.238   0.597   0.792 -0.8407  0.2736 -0.4633
  793MOL0     C 4555  11.326   0.716   0.844 -0.3096 -0.0258  0.1364
  793MOL0     C 4556  11.474   0.699   0.808 -0.1268  0.3257 -0.5418
  793MOL0     C 4557  11.558   0.822   0.868  0.1482  0.4283  0.5125
  793MOL0     C 4558  11.702   0.810   0.830 -0.2320 -0.6627 -0.7364
  793MOL0     C 4559  11.791   0.937   0.850  1.0366  0.2496  0.0926
  793MOL0     C 4560  11.939   0.902   0.821 -0.4949 -0.2632 -0.1277
  793MOL0     N 4561  12.032   1.014   0.827 -0.6049 -0.0452  0.0651
  793MOL0     C 4562  12.050   1.103   0.939  0.8486  0.4159  0.6323
  793MOL0     C 4563  12.148   1.184   0.903 -0.5798  0.1446 -0.0973
  793MOL0     C 4564  12.214   1.297   0.990  0.1797  0.7603 -0.5587
  793MOL0     C 4565  12.134   1.426   0.958  0.4299  0.3905 -0.1774
  793MOL0     C 4566  11.983   1.405   0.975  0.6724 -0.2822 -0.3094
  793MOL0     C 4567  11.919   1.540   0.997 -0.8616 -0.1154 -0.0715
  793MOL0     O 4568  11.925   1.624   0.880 -0.0294 -0.2740 -0.3023
  793MOL0     C 4569  11.824   1.598   0.787 -0.4793 -0.8652 -0.4223
  793MOL0     C 4570  11.814   1.692   0.685  0.3707 -0.0572 -0.0393
  793MOL0     C 4571  11.720   1.681   0.577 -0.5065 -0.1550 -0.8197
  793MOL0     C 4572  11.627   1.578   0.580  0.2307 -0.0863 -0.2627
  793MOL0     C 4573  11.526   1.556   0.479  0.4560  0.9331  0.6879
  793MOL0     O 4574  11.475   1.428   0.465  0.0988  0.4448  0.3157
  793MOL0     C 4575  11.348   1.404   0.414 -0.3875  0.0860  0.4223
  793MOL0     C 4576  11.310   1.271   0.383  0.9307  0.8773  0.1654
  793MOL0     C 4577  11.181   1.235   0.341 -0.2374  0.2997  0.4274
  793MOL0     C 4578  11.080   1.336   0.342  0.0262 -0.3672 -0.6518
  793MOL0     O 4579  10.951   1.317   0.314 -0.3618 -0.0605  0.1001
  793MOL0     C 4580  10.908   1.185   0.289 -0.3401  0.4244  0.5632
  793MOL0     C 4581  10.750   1.177   0.272 -0.5404  0.1574  0.1708
  793MOL0     C 4582  10.704   1.058   0.190 -0.1293 -0.4839  0.7232
  793MOL0     C 4583  10.548   1.053   0.192  0.5617 -0.5590 -0.0888
  793MOL0     C 4584  10.503   0.920   0.130  0.7324  0.1720 -0.8562
  793MOL0     C 4585  10.346   0.919   0.125  0.0622 -0.1618 -0.4753
  793MOL0     C 4586  10.290   0.778   0.105 -0.0901 -0.2923  0.3087
  793MOL0     C 4587  10.141   0.765   0.128  0.0818 -0.2598  0.0229
  793MOL0    Cl 4588  10.087   0.594   0.102  0.2161  0.0597  0.2034
  793MOL0     C 4589  11.120   1.476   0.363  0.2842 -0.2950 -0.2319
  793MOL0     C 4590  11.250   1.504   0.399  0.2370 -0.0481  0.1216
  793MOL0     O 4591  11.498   1.643   0.404  0.0722  0.1905  0.2403
  793MOL0     C 4592  11.632   1.485   0.690 -0.2516  0.2396  0.0457
  793MOL0     C 4593  11.730   1.495   0.793  0.5458 -0.0727  0.1993
  793MOL0     N 4594  12.189   1.142   0.785 -0.7291  0.3860 -0.1070
  793MOL0     N 4595  12.138   1.034   0.746 -0.3615 -0.7786 -0.2479
  793MOL0     C 4596  10.827   0.395   0.707  0.1932  0.1974  0.1204
  793MOL0     C 4597  10.684   0.390   0.713 -0.1615  0.0890 -0.6340
  793MOL0     C 4598  10.268   0.327   0.849 -0.0277 -0.2657 -0.4109
  793MOL0     C 4599  10.223   0.443   0.919 -0.4402  0.1386 -0.7917
  793MOL0     C 4600  10.082   0.465   0.946 -0.0760 -0.3137  0.1955
  793MOL0     C 4601   9.990   0.377   0.901 -0.2557  0.4193 -0.9087
  793MOL0     O 4602   9.852   0.383   0.919 -0.0515  0.5044  0.6959
  793MOL0     C 4603   9.787   0.504   0.962  0.3383  0.1610  0.7176
  793MOL0     C 4604   9.631   0.474   0.990 -0.1762  0.3297 -0.9762
  793MOL0     C 4605   9.556   0.396   0.878 -0.3785  0.1251  1.1249
  793MOL0     C 4606   9.416   0.365   0.929  0.3897  0.5799  0.1899
  793MOL0     C 4607   9.331   0.318   0.815  0.2499  0.0976  0.1571
  793MOL0     C 4608   9.257   0.283   0.715  0.1446 -0.2315 -0.4109
  793MOL0     C 4609  10.037   0.260   0.832 -0.5387  0.2784 -0.0733
  793MOL0     C 4610  10.172   0.234   0.811 -0.3911  0.0338  0.3375
  793MOL0     H 4611  10.632   0.534   1.011  0.4652  3.0418 -2.3325
  793MOL0     H 4612  10.871   0.562   1.002 -0.5553 -0.6373  0.7599
  793MOL0     H 4613  11.087   0.613   0.946  2.0397 -0.4473 -0.5478
  793MOL0     H 4614  11.052   0.681   0.781  0.1102  1.6111  3.1466
  793MOL0     H 4615  11.234   0.597   0.683  2.5714 -1.7642 -0.7204
  793MOL0     H 4616  11.284   0.503   0.820  3.6384  2.3783  0.0826
  793MOL0     H 4617  11.326   0.723   0.954 -0.1140  2.3293  0.0230
  793MOL0     H 4618  11.286   0.813   0.814 -2.6147 -0.3134  1.9206
  793MOL0     H 4619  11.516   0.609   0.855 -0.1560  1.0068  0.8511
  793MOL0     H 4620  11.493   0.697   0.701 -0.8277  0.7733 -0.6781
  793MOL0     H 4621  11.540   0.831   0.975  0.7843  0.5550  0.6105
  793MOL0     H 4622  11.511   0.907   0.818 -0.5109  0.2635  0.8368
  793MOL0     H 4623  11.710   0.782   0.724  1.1781 -0.2024 -0.7832
  793MOL0     H 4624  11.739   0.733   0.897 -4.1751  2.1775  5.6530
  793MOL0     H 4625  11.754   1.021   0.791 -2.6901 -0.6073  0.8903
  793MOL0     H 4626  11.799   0.953   0.958 -1.2683  2.5705  0.0208
  793MOL0     H 4627  11.955   0.844   0.729  2.1519  2.2392 -1.3916
  793MOL0     H 4628  11.979   0.835   0.897  3.5721 -0.9853 -2.5742
  793MOL0     H 4629  11.999   1.112   1.035 -0.0195 -2.0245  0.4686
  793MOL0     H 4630  12.317   1.323   0.964  0.2424  0.0919 -1.0166
  793MOL0     H 4631  12.199   1.281   1.097  0.5485  1.4540 -0.4006
  793MOL0     H 4632  12.152   1.466   0.857 -2.1703  0.2567 -0.7494
  793MOL0     H 4633  12.177   1.502   1.024  1.1176 -2.2590  2.6431
  793MOL0     H 4634  11.948   1.342   0.893 -0.2421 -0.5819  0.3025
  793MOL0     H 4635  11.954   1.355   1.068 -0.8042  2.7918  0.9929
  793MOL0     H 4636  11.982   1.586   1.074 -1.3191  1.0658 -0.3811
  793MOL0     H 4637  11.817   1.534   1.036 -0.6446  2.4759  1.1009
  793MOL0     H 4638  11.890   1.769   0.683 -0.1534  0.4540 -0.4575
  793MOL0     H 4639  11.724   1.748   0.491 -1.3365 -1.7829 -2.1772
  793MOL0     H 4640  11.372   1.182   0.392 -1.0046 -0.6367 -0.5710
  793MOL0     H 4641  11.163   1.129   0.325  0.5649  0.1691  0.3275
  793MOL0     H 4642  10.937   1.124   0.374 -0.6946 -1.3896 -0.5601
  793MOL0     H 4643  10.943   1.154   0.190 -1.2158  2.6656 -0.5156
  793MOL0     H 4644  10.713   1.268   0.225 -2.6229 -0.8328 -0.2616
  793MOL0     H 4645  10.706   1.177   0.372  0.7716  1.9129  0.7957
  793MOL0     H 4646  10.745   0.966   0.232 -0.1536 -1.1217 -0.6012
  793MOL0     H 4647  10.735   1.071   0.086  0.3750 -0.2781  0.8971
  793MOL0     H 4648  10.520   1.052   0.298 -0.7632  1.2567 -0.3704
  793MOL0     H 4649  10.493   1.129   0.136 -0.9680 -1.2388  0.4299
  793MOL0     H 4650  10.549   0.839   0.187 -0.3551  0.7707  0.9801
  793MOL0     H 4651  10.538   0.899   0.029  0.4804 -0.1135 -0.8864
  793MOL0     H 4652  10.297   0.990   0.058 -0.2701  1.1022  1.0318
  793MOL0     H 4653  10.309   0.945   0.225  0.0817  0.1167 -0.5393
  793MOL0     H 4654  10.313   0.754   0.001 -2.7783 -1.9124 -0.0175
  793MOL0     H 4655  10.338   0.708   0.174 -0.9559  0.2683  1.5130
  793MOL0     H 4656  10.077   0.834   0.073  0.2342 -2.2540 -2.8698
  793MOL0     H 4657  10.128   0.789   0.234 -2.5095 -1.1088 -0.0394
  793MOL0     H 4658  11.050   1.559   0.367  1.4581  0.8215 -1.7411
  793MOL0     H 4659  11.270   1.607   0.429  1.6956 -0.5278  0.8316
  793MOL0     H 4660  11.554   1.413   0.711 -1.3434  0.4142 -2.9022
  793MOL0     H 4661  11.722   1.419   0.871 -0.5910 -3.0760 -2.5706
  793MOL0     H 4662  10.883   0.363   0.620  0.0161 -0.0043  0.0825
  793MOL0     H 4663  10.626   0.352   0.629  2.1842  1.4449 -3.0029
  793MOL0     H 4664  10.288   0.523   0.952 -2.1066  1.6524 -1.0386
  793MOL0     H 4665  10.058   0.558   0.998  1.0461  0.9494 -1.4529
  793MOL0     H 4666   9.779   0.567   0.873 -3.7774  0.0747  0.8479
  793MOL0     H 4667   9.835   0.554   1.046 -0.9918  1.7017  0.5956
  793MOL0     H 4668   9.626   0.418   1.083 -1.4360 -0.4567 -1.4933
  793MOL0     H 4669   9.585   0.573   1.000 -4.2234 -1.4075 -0.5861
  793MOL0     H 4670   9.605   0.301   0.855  1.1235  0.9290  0.8566
  793MOL0     H 4671   9.560   0.461   0.791  0.1528 -2.8685 -1.2562
  793MOL0     H 4672   9.424   0.293   1.011 -0.2506  1.5913  1.1817
  793MOL0     H 4673   9.379   0.452   0.984  0.5233 -0.3405  1.8005
  793MOL0     H 4674   9.186   0.266   0.637 -1.6407  0.0933  1.0944
  793MOL0     H 4675   9.969   0.185   0.792 -0.1425  0.8973 -2.0118
  793MOL0     H 4676  10.200   0.150   0.748  1.0524 -0.6764  1.8660
  794MOL0     O 4677   8.701   8.152   4.244  0.8776  0.2310 -0.2639
  794MOL0     C 4678   8.738   8.125   4.131  0.6297  0.4663  0.4258
  794MOL0     O 4679   8.655   8.102   4.023 -0.0768 -0.6019 -0.6266
  794MOL0     C 4680   8.533   8.050   4.056  0.1972 -0.0404 -0.3837
  794MOL0     C 4681   8.516   7.916   4.030 -0.6744  0.4543 -0.2133
  794MOL0     C 4682   8.390   7.856   4.047  0.0760  0.3149 -0.2836
  794MOL0     C 4683   8.283   7.926   4.099  0.9698  0.1882 -0.2364
  794MOL0     O 4684   8.156   7.871   4.120 -0.1951  0.4842 -0.6136
  794MOL0     C 4685   8.158   7.778   4.226  0.4667  0.2181  0.0257
  794MOL0     C 4686   8.062   7.654   4.204  0.3274  0.4336 -0.3373
  794MOL0     C 4687   8.093   7.554   4.310 -0.1767  1.0491  0.1083
  794MOL0     C 4688   8.011   7.426   4.304 -0.2130 -0.2004  0.0350
  794MOL0     C 4689   8.059   7.331   4.401  0.3925 -0.6056 -0.1233
  794MOL0     C 4690   7.986   7.196   4.389  0.1841  0.0468  0.5420
  794MOL0     C 4691   8.055   7.089   4.478  0.2636 -0.1495  0.3519
  794MOL0     C 4692   8.047   7.126   4.622 -0.5988  0.7677 -0.0706
  794MOL0     N 4693   7.908   7.143   4.672 -0.3208  0.5068 -0.1138
  794MOL0     C 4694   7.800   7.061   4.656 -0.8191 -0.4399  0.4216
  794MOL0     C 4695   7.695   7.112   4.724  0.4180 -0.8452  0.1880
  794MOL0     C 4696   7.563   7.043   4.733  0.2983 -0.1073 -1.0238
  794MOL0     C 4697   7.526   6.987   4.869 -0.6643 -0.2326  0.1872
  794MOL0     C 4698   7.447   7.090   4.950 -0.2495  0.9431 -0.4214
  794MOL0     C 4699   7.294   7.071   4.947 -0.3360 -0.1515  0.6994
  794MOL0     O 4700   7.236   7.044   4.816 -0.2067 -0.1827  0.4210
  794MOL0     C 4701   7.109   6.988   4.822 -0.1530  0.0425  0.0387
  794MOL0     C 4702   7.007   7.004   4.925  0.2518  0.1012  0.3524
  794MOL0     C 4703   6.885   6.946   4.906  0.5493 -0.0118 -0.3819
  794MOL0     C 4704   6.854   6.862   4.801  0.3096 -0.5161 -0.3092
  794MOL0     C 4705   6.716   6.808   4.776 -0.2939  0.3731 -0.0526
  794MOL0     O 4706   6.635   6.808   4.881  0.9175 -0.3944 -0.2281
  794MOL0     C 4707   6.506   6.773   4.882 -0.3798  0.2402  0.3231
  794MOL0     C 4708   6.430   6.821   4.983 -0.7966  0.0428 -0.1886
  794MOL0     C 4709   6.295   6.791   5.005  0.1372 -0.6558 -0.5276
  794MOL0     C 4710   6.235   6.700   4.912  0.6113 -0.2331 -0.3417
  794MOL0     O 4711   6.099   6.658   4.916  0.2381 -0.3307  0.0271
  794MOL0     C 4712   6.014   6.705   5.027 -0.0976  0.5382  0.8934
  794MOL0     C 4713   6.029   6.615   5.150  0.2495 -0.3950 -0.9598
  794MOL0     C 4714   5.953   6.668   5.277 -0.4067  0.6772 -0.3926
  794MOL0     C 4715   5.922   6.548   5.370 -0.2776 -0.5580 -0.1614
  794MOL0     C 4716   5.834   6.612   5.487 -0.4873  0.6939  0.1025
  794MOL0     C 4717   5.705   6.529   5.500 -0.4839 -0.1390  0.2941
  794MOL0     C 4718   5.722   6.373   5.537 -0.1944 -0.8082  0.4868
  794MOL0     C 4719   5.788   6.350   5.673  0.2779 -0.1958 -0.5472
  794MOL0    Cl 4720   5.673   6.413   5.799 -0.0032 -0.1237  0.0008
  794MOL0     C 4721   6.302   6.641   4.810 -0.1878 -0.1762  0.7914
  794MOL0     C 4722   6.436   6.684   4.796  0.2278 -0.4361 -0.1842
  794MOL0     O 4723   6.682   6.784   4.661 -0.0163 -0.0057  0.0109
  794MOL0     C 4724   6.958   6.835   4.711  0.2814  0.3031  0.0969
  794MOL0     C 4725   7.083   6.887   4.717 -0.9438  0.6712  0.8587
  794MOL0     N 4726   7.737   7.229   4.789 -1.1113  0.1435  0.1256
  794MOL0     N 4727   7.865   7.246   4.751  0.0108  0.5289 -0.8641
  794MOL0     C 4728   8.300   8.061   4.120  0.2250 -0.5697 -0.1904
  794MOL0     C 4729   8.426   8.124   4.107  0.3174 -0.5225  0.5137
  794MOL0     C 4730   8.884   8.122   4.103  0.2459 -0.1182  0.1558
  794MOL0     C 4731   8.936   8.080   3.980  0.1295  0.9576  0.6761
  794MOL0     C 4732   9.077   8.079   3.960 -0.1585  0.2191 -0.4664
  794MOL0     C 4733   9.165   8.130   4.056  1.1254  0.0798  0.1538
  794MOL0     O 4734   9.297   8.133   4.020  0.0759 -0.2722 -0.3729
  794MOL0     C 4735   9.390   8.193   4.111 -0.3807 -0.1050 -0.5172
  794MOL0     C 4736   9.530   8.178   4.051  0.5020  0.2204 -0.1144
  794MOL0     C 4737   9.631   8.245   4.131  0.6025  0.6648  0.5847
  794MOL0     C 4738   9.769   8.232   4.065 -0.1773 -0.2547 -0.0057
  794MOL0     C 4739   9.820   8.092   4.084  1.0918  0.2506  1.0066
  794MOL0     C 4740   9.883   7.996   4.100 -0.9887  0.4763 -0.1056
  794MOL0     C 4741   9.115   8.171   4.177  0.3889 -0.2117  0.2473
  794MOL0     C 4742   8.973   8.177   4.198 -0.6611  0.0421 -0.6008
  794MOL0     H 4743   8.596   7.854   3.989 -2.3014 -0.6059 -1.9568
  794MOL0     H 4744   8.370   7.755   4.013 -0.3591 -0.0644  1.0388
  794MOL0     H 4745   8.113   7.815   4.319 -1.9838 -0.9105 -0.6030
  794MOL0     H 4746   8.258   7.741   4.251 -0.7059 -3.3871 -0.0716
  794MOL0     H 4747   8.082   7.599   4.112 -0.5073 -2.2181  0.9616
  794MOL0     H 4748   7.958   7.685   4.221  0.4327  0.3298  0.5382
  794MOL0     H 4749   8.088   7.593   4.412  1.9750 -0.9550  1.0807
  794MOL0     H 4750   8.198   7.523   4.299 -0.2199  0.9938 -0.1505
  794MOL0     H 4751   7.908   7.453   4.332 -1.6210  0.6900 -4.9996
  794MOL0     H 4752   8.001   7.384   4.204  0.9633  1.1532 -0.6852
  794MOL0     H 4753   8.064   7.376   4.501 -1.5500 -4.2866  1.8268
  794MOL0     H 4754   8.163   7.312   4.371  0.8489 -0.4781  1.2972
  794MOL0     H 4755   7.997   7.172   4.283  1.7328  0.3311  0.6149
  794MOL0     H 4756   7.878   7.207   4.404  0.2106 -0.3351  1.0264
  794MOL0     H 4757   7.999   6.996   4.469  0.0281 -0.3773  3.2211
  794MOL0     H 4758   8.159   7.065   4.456 -0.1134 -0.7946 -0.7866
  794MOL0     H 4759   8.113   7.213   4.630 -3.5276  3.4856 -2.7860
  794MOL0     H 4760   8.090   7.039   4.672  1.5471  0.9138 -1.5051
  794MOL0     H 4761   7.798   6.974   4.591  1.6490  0.6484 -1.2705
  794MOL0     H 4762   7.569   6.964   4.658  0.1469 -0.5880 -0.5308
  794MOL0     H 4763   7.480   7.106   4.699  0.3969  0.6624  0.1093
  794MOL0     H 4764   7.624   6.957   4.906  0.3316  0.9146 -1.3990
  794MOL0     H 4765   7.465   6.897   4.862 -1.5385  0.3225  0.5142
  794MOL0     H 4766   7.479   7.087   5.055  2.2266  0.3056 -1.1383
  794MOL0     H 4767   7.473   7.190   4.913  1.4384  0.9224  0.5730
  794MOL0     H 4768   7.249   7.164   4.984  2.3539  1.8237 -0.6731
  794MOL0     H 4769   7.267   6.986   5.010  1.0991  0.0107  1.5833
  794MOL0     H 4770   7.017   7.075   5.006 -1.1880  0.4465  0.2546
  794MOL0     H 4771   6.808   6.976   4.977  1.5049  1.3168  0.1398
  794MOL0     H 4772   6.477   6.898   5.042  0.7735 -0.5584 -0.6138
  794MOL0     H 4773   6.232   6.843   5.076 -0.9139 -0.3098 -1.6910
  794MOL0     H 4774   5.914   6.688   4.986  0.2391  3.2695 -1.3401
  794MOL0     H 4775   6.029   6.812   5.048 -0.3324  1.1358 -1.6334
  794MOL0     H 4776   6.133   6.604   5.180 -0.0756 -0.5721  0.1466
  794MOL0     H 4777   5.988   6.517   5.122 -3.1392  0.7601 -0.4939
  794MOL0     H 4778   5.855   6.705   5.245 -0.4461 -1.3271 -2.8624
  794MOL0     H 4779   6.017   6.740   5.329 -0.8719 -0.9508  2.6968
  794MOL0     H 4780   5.882   6.463   5.314 -1.0267 -1.5079  1.7468
  794MOL0     H 4781   6.014   6.515   5.418 -1.5023 -3.9218  0.1220
  794MOL0     H 4782   5.805   6.710   5.448  1.0750  0.5032 -1.6609
  794MOL0     H 4783   5.893   6.613   5.580  1.7168  1.1568 -1.2300
  794MOL0     H 4784   5.659   6.543   5.402  0.7304 -1.9301 -0.5753
  794MOL0     H 4785   5.640   6.571   5.578  0.8060  0.7263  0.9233
  794MOL0     H 4786   5.627   6.319   5.534 -0.7251  0.1246 -0.7533
  794MOL0     H 4787   5.783   6.332   5.456 -0.6450  2.8851 -1.9599
  794MOL0     H 4788   5.867   6.425   5.687 -1.4149  1.7142 -0.6574
  794MOL0     H 4789   5.811   6.243   5.678  0.9959 -0.0384 -0.3727
  794MOL0     H 4790   6.246   6.574   4.745  0.3671  0.7922 -0.7274
  794MOL0     H 4791   6.479   6.648   4.703 -1.7021 -0.1394 -1.2269
  794MOL0     H 4792   6.940   6.770   4.626  1.7308 -0.8125  0.5969
  794MOL0     H 4793   7.157   6.878   4.638 -1.7191  2.8775 -0.2262
  794MOL0     H 4794   8.221   8.117   4.170 -0.9999 -1.3429 -1.2029
  794MOL0     H 4795   8.437   8.225   4.148  1.4296 -0.4069 -0.0400
  794MOL0     H 4796   8.874   8.055   3.894 -2.5146  1.8556  2.2224
  794MOL0     H 4797   9.113   8.063   3.859  2.1034  0.5411  0.2196
  794MOL0     H 4798   9.380   8.144   4.208 -1.1629 -0.3674 -0.7152
  794MOL0     H 4799   9.372   8.300   4.126 -1.1907 -0.4584  1.3352
  794MOL0     H 4800   9.542   8.070   4.046 -2.6776 -0.2579  0.4592
  794MOL0     H 4801   9.537   8.218   3.949  4.0136 -0.8437 -0.4075
  794MOL0     H 4802   9.641   8.213   4.235  0.1643  0.3087  0.5196
  794MOL0     H 4803   9.604   8.351   4.132 -2.7408  0.0155 -2.0236
  794MOL0     H 4804   9.771   8.261   3.960  0.1692 -0.0100  0.0684
  794MOL0     H 4805   9.828   8.307   4.118  1.3143 -0.6135 -1.1178
  794MOL0     H 4806   9.956   7.917   4.110  1.2322  2.2569 -1.2547
  794MOL0     H 4807   9.178   8.214   4.254  0.8200  0.8168 -0.6493
  794MOL0     H 4808   8.942   8.223   4.291  2.7178  1.0660  0.1927
  795MOL0     O 4809   0.569   6.238   5.722 -0.3277 -0.1466 -0.4653
  795MOL0     C 4810   0.645   6.196   5.806  0.6452 -0.2558 -0.0138
  795MOL0     O 4811   0.608   6.147   5.924 -0.1165 -0.0631 -0.8007
  795MOL0     C 4812   0.471   6.138   5.953  0.3271 -0.0476  0.5269
  795MOL0     C 4813   0.376   6.076   5.876 -0.2113  0.2000 -0.0083
  795MOL0     C 4814   0.239   6.082   5.912  0.4769  0.6809 -0.4430
  795MOL0     C 4815   0.194   6.150   6.017  0.6421 -0.9535  0.7817
  795MOL0     O 4816   0.056   6.169   6.025 -0.4302  0.5320 -0.1035
  795MOL0     C 4817  -0.001   6.274   6.101 -0.9282  0.4327  0.6246
  795MOL0     C 4818  -0.140   6.284   6.056  0.4592 -0.8292 -0.1468
  795MOL0     C 4819  -0.213   6.412   6.092  0.4322  0.4000  0.1705
  795MOL0     C 4820  -0.365   6.406   6.061 -0.3204  0.4843 -0.4481
  795MOL0     C 4821  -0.442   6.394   6.193  0.5385  0.6638 -0.2608
  795MOL0     C 4822  -0.588   6.397   6.163 -0.1197  0.4551  0.2462
  795MOL0     C 4823  -0.680   6.391   6.286 -0.4592  0.3162  0.5872
  795MOL0     C 4824  -0.815   6.338   6.241 -0.4009 -0.0067 -0.2050
  795MOL0     N 4825  -0.919   6.413   6.323 -0.6536  0.1392 -0.6449
  795MOL0     C 4826  -0.941   6.550   6.313  0.2117  0.1659 -0.4412
  795MOL0     C 4827  -1.026   6.572   6.415  0.4063  0.1651 -0.2524
  795MOL0     C 4828  -1.060   6.706   6.471  0.2134 -0.1114  0.2863
  795MOL0     C 4829  -1.201   6.748   6.444 -0.0346 -0.3211  0.0562
  795MOL0     C 4830  -1.315   6.651   6.458 -0.3984  0.0844 -0.6325
  795MOL0     C 4831  -1.448   6.726   6.447 -0.5117  0.3279  0.7022
  795MOL0     O 4832  -1.544   6.625   6.419  0.2520 -0.1422 -0.2950
  795MOL0     C 4833  -1.671   6.673   6.383 -0.0713 -0.1051  1.0332
  795MOL0     C 4834  -1.770   6.576   6.359 -0.1964  0.3585  0.5321
  795MOL0     C 4835  -1.895   6.610   6.306 -0.0493  0.4067 -0.6443
  795MOL0     C 4836  -1.931   6.748   6.281 -0.4368 -0.1664  0.1954
  795MOL0     C 4837  -2.056   6.785   6.221  0.3178 -0.5957  0.1288
  795MOL0     O 4838  -2.075   6.919   6.207 -0.8200 -0.5745 -0.1354
  795MOL0     C 4839  -2.188   6.986   6.161  0.4036  0.0419  0.0761
  795MOL0     C 4840  -2.295   6.936   6.089 -1.1502  0.5334 -0.7297
  795MOL0     C 4841  -2.412   7.009   6.056  0.3513 -0.0667  0.4837
  795MOL0     C 4842  -2.417   7.145   6.096 -0.7441  0.6982  0.0866
  795MOL0     O 4843  -2.540   7.208   6.083 -0.4330  0.1580 -0.5001
  795MOL0     C 4844  -2.540   7.350   6.060 -0.1353  0.6211 -0.4183
  795MOL0     C 4845  -2.684   7.381   6.005 -0.1357 -0.1156  0.2974
  795MOL0     C 4846  -2.690   7.366   5.847 -0.1266  0.0095  0.1797
  795MOL0     C 4847  -2.837   7.341   5.799 -0.2996 -0.4340 -0.3414
  795MOL0     C 4848  -2.931   7.457   5.807  0.6796  0.0475  0.2500
  795MOL0     C 4849  -3.073   7.418   5.787 -0.1452 -0.2666 -0.5525
  795MOL0     C 4850  -3.156   7.546   5.742 -0.4672  0.6136  0.9480
  795MOL0     C 4851  -3.295   7.507   5.683 -0.3039 -0.1695  0.9315
  795MOL0    Cl 4852  -3.388   7.650   5.638 -0.4406 -0.0021  0.2348
  795MOL0     C 4853  -2.300   7.195   6.166  0.4263  0.0385 -0.3580
  795MOL0     C 4854  -2.193   7.114   6.195  0.6359  0.1855  0.1584
  795MOL0     O 4855  -2.128   6.695   6.181  0.2159 -0.4978  0.3984
  795MOL0     C 4856  -1.835   6.845   6.313 -0.2332 -0.4602  0.1696
  795MOL0     C 4857  -1.707   6.812   6.362 -0.6554  0.4264  0.5891
  795MOL0     N 4858  -1.078   6.450   6.463  0.0898  0.0580  1.0678
  795MOL0     N 4859  -1.012   6.354   6.403  0.3655  0.1257  0.2192
  795MOL0     C 4860   0.290   6.213   6.100 -0.1713  0.6558  0.3373
  795MOL0     C 4861   0.429   6.204   6.066 -0.3252 -0.1553  0.1187
  795MOL0     C 4862   0.789   6.199   5.782  0.5708  0.4721 -0.0435
  795MOL0     C 4863   0.848   6.243   5.661 -1.1710 -1.0091 -0.5163
  795MOL0     C 4864   0.988   6.243   5.641  0.7658  0.3319 -1.7290
  795MOL0     C 4865   1.071   6.191   5.742  0.3083  0.4316  0.1043
  795MOL0     O 4866   1.203   6.188   5.716  0.3670  0.1961  0.2480
  795MOL0     C 4867   1.289   6.137   5.819  0.9628  0.2647  0.7251
  795MOL0     C 4868   1.433   6.140   5.770 -0.2369  0.0357  0.6789
  795MOL0     C 4869   1.524   6.093   5.888  1.2545  0.4389  0.2880
  795MOL0     C 4870   1.653   6.030   5.838 -0.1958  0.0843 -0.5660
  795MOL0     C 4871   1.748   6.137   5.796 -0.6957  0.2631  0.4004
  795MOL0     C 4872   1.814   6.217   5.748  0.2642 -0.0306  0.0482
  795MOL0     C 4873   1.011   6.146   5.867 -0.1009 -0.0243 -0.0458
  795MOL0     C 4874   0.871   6.148   5.888 -0.6559 -0.4902  0.2879
  795MOL0     H 4875   0.411   6.020   5.790  0.3897 -2.7073  2.0109
  795MOL0     H 4876   0.177   6.011   5.857 -0.7525  1.1894  0.2457
  795MOL0     H 4877   0.048   6.370   6.081  0.2555 -0.0538  1.0965
  795MOL0     H 4878   0.008   6.263   6.209 -0.6481 -0.4515  0.5159
  795MOL0     H 4879  -0.196   6.200   6.097  1.6047 -0.6306  1.9136
  795MOL0     H 4880  -0.142   6.272   5.947  2.6880  1.3900 -0.5363
  795MOL0     H 4881  -0.163   6.495   6.040 -0.6691  2.0591  1.6671
  795MOL0     H 4882  -0.197   6.434   6.198  0.7055  1.0706 -0.0054
  795MOL0     H 4883  -0.399   6.497   6.009  0.0145  1.3537  0.8132
  795MOL0     H 4884  -0.380   6.322   5.992 -1.8731 -2.2466  2.9255
  795MOL0     H 4885  -0.419   6.481   6.256 -3.8119  1.1146  1.0437
  795MOL0     H 4886  -0.419   6.306   6.253 -1.0270  0.0460 -0.5255
  795MOL0     H 4887  -0.602   6.307   6.102 -3.1856  0.4387  0.8109
  795MOL0     H 4888  -0.615   6.477   6.094  0.9919  0.5307 -0.1272
  795MOL0     H 4889  -0.637   6.329   6.366  1.6352  2.5281  1.3177
  795MOL0     H 4890  -0.694   6.493   6.323 -1.1023  0.2274  0.6048
  795MOL0     H 4891  -0.823   6.229   6.250  0.3143  0.0469  1.2896
  795MOL0     H 4892  -0.837   6.364   6.137  1.9430 -2.4503 -1.4492
  795MOL0     H 4893  -0.887   6.611   6.242  1.5180 -3.0705 -2.4485
  795MOL0     H 4894  -0.989   6.777   6.428 -0.8118  0.7495 -0.0530
  795MOL0     H 4895  -1.034   6.712   6.577 -0.9719  0.1126  0.5883
  795MOL0     H 4896  -1.197   6.792   6.344  2.1042  1.6759  0.9205
  795MOL0     H 4897  -1.221   6.831   6.513  0.8678 -2.1630  2.6660
  795MOL0     H 4898  -1.309   6.589   6.368 -2.8648 -0.7032 -0.3223
  795MOL0     H 4899  -1.315   6.588   6.547 -1.0040  1.0160  0.0509
  795MOL0     H 4900  -1.437   6.793   6.362 -1.6018 -1.7922 -1.2152
  795MOL0     H 4901  -1.468   6.789   6.535  0.0115 -1.2070  1.9769
  795MOL0     H 4902  -1.737   6.477   6.388 -3.0733 -0.3421  1.7935
  795MOL0     H 4903  -1.959   6.528   6.276  0.9078 -1.0978  1.2074
  795MOL0     H 4904  -2.295   6.832   6.060 -2.3004  0.1260  0.6289
  795MOL0     H 4905  -2.507   6.965   6.026  0.4815 -0.0236  0.0143
  795MOL0     H 4906  -2.469   7.386   5.986 -0.8960  1.2079 -0.8751
  795MOL0     H 4907  -2.510   7.407   6.149 -0.7133  3.0972 -1.6967
  795MOL0     H 4908  -2.698   7.489   6.020 -0.0287 -0.1428  0.6156
  795MOL0     H 4909  -2.761   7.333   6.066 -0.4920  0.3349  0.2056
  795MOL0     H 4910  -2.630   7.277   5.826  0.7658  0.5606  0.3292
  795MOL0     H 4911  -2.641   7.456   5.808 -1.4008  1.0662  0.9634
  795MOL0     H 4912  -2.831   7.303   5.697 -0.6261  0.9773 -0.9135
  795MOL0     H 4913  -2.869   7.257   5.862  0.4520 -1.6560 -1.5472
  795MOL0     H 4914  -2.911   7.536   5.734 -0.9797  0.2635 -0.0080
  795MOL0     H 4915  -2.920   7.511   5.902  0.6305  0.0809  0.2372
  795MOL0     H 4916  -3.114   7.382   5.882  0.4395 -0.5033 -0.3842
  795MOL0     H 4917  -3.080   7.337   5.714  0.5217 -0.3495 -0.5264
  795MOL0     H 4918  -3.157   7.614   5.827  1.2231 -0.4426  1.8800
  795MOL0     H 4919  -3.089   7.593   5.670  0.2555 -1.5205  0.1372
  795MOL0     H 4920  -3.346   7.452   5.762 -0.2450 -0.8095  0.5385
  795MOL0     H 4921  -3.300   7.435   5.601  1.2344  1.2309 -0.4784
  795MOL0     H 4922  -2.297   7.298   6.200  0.2365 -0.0493 -0.0737
  795MOL0     H 4923  -2.108   7.157   6.248  1.4387  0.8516 -1.5809
  795MOL0     H 4924  -1.851   6.952   6.305 -0.1490 -0.2409  2.3039
  795MOL0     H 4925  -1.635   6.887   6.392  0.9277 -0.2316 -1.3012
  795MOL0     H 4926   0.255   6.277   6.181  0.2782  1.0075  0.2620
  795MOL0     H 4927   0.508   6.259   6.117  0.6343 -1.3359 -0.0452
  795MOL0     H 4928   0.777   6.278   5.586  0.4458  0.3587 -1.4618
  795MOL0     H 4929   1.020   6.293   5.550 -1.3610 -0.3583 -2.9124
  795MOL0     H 4930   1.260   6.034   5.844 -0.2928  0.6260  0.8559
  795MOL0     H 4931   1.277   6.185   5.917 -0.9326 -0.4132  0.8621
  795MOL0     H 4932   1.451   6.067   5.690 -0.7203  1.9878 -1.2988
  795MOL0     H 4933   1.461   6.237   5.730  0.2849 -0.2847  0.2504
  795MOL0     H 4934   1.469   6.016   5.943  1.1758 -0.2979 -0.7806
  795MOL0     H 4935   1.553   6.169   5.960 -0.4897 -1.2643  2.9584
  795MOL0     H 4936   1.700   5.978   5.921 -1.2566 -2.5773 -1.5400
  795MOL0     H 4937   1.632   5.958   5.758 -2.4113 -2.5760  2.1774
  795MOL0     H 4938   1.877   6.282   5.690  1.9794 -2.0579 -0.4960
  795MOL0     H 4939   1.063   6.091   5.944 -2.8914 -2.8960  0.0341
  795MOL0     H 4940   0.830   6.119   5.984 -1.2415  0.8076  0.4557
  796MOL0     O 4941   0.227   6.404   0.146  0.5087  0.1024  0.4055
  796MOL0     C 4942   0.186   6.304   0.209  0.2556  0.1793  0.3424
  796MOL0     O 4943   0.261   6.194   0.248 -0.1921 -0.2878 -0.4372
  796MOL0     C 4944   0.389   6.182   0.198  0.1401  0.6474 -0.0659
  796MOL0     C 4945   0.482   6.135   0.290 -0.3466  0.4383 -0.4651
  796MOL0     C 4946   0.615   6.110   0.259  0.5595 -0.8272  0.2087
  796MOL0     C 4947   0.660   6.126   0.125 -0.1443  0.2898  0.3342
  796MOL0     O 4948   0.795   6.120   0.098  0.2281 -0.0771 -0.4289
  796MOL0     C 4949   0.851   5.994   0.108 -0.4431  0.7597 -0.7700
  796MOL0     C 4950   0.942   5.967  -0.012  0.0954  0.0186  0.2905
  796MOL0     C 4951   1.085   6.037  -0.013 -0.3405 -0.1362 -0.2804
  796MOL0     C 4952   1.180   5.960  -0.110  0.7717  0.6913 -0.3021
  796MOL0     C 4953   1.233   5.828  -0.051  0.9102 -0.1697 -0.2033
  796MOL0     C 4954   1.332   5.766  -0.148 -0.3261 -0.3166  0.1706
  796MOL0     C 4955   1.433   5.673  -0.079 -0.2628  0.5404 -0.2834
  796MOL0     C 4956   1.375   5.523  -0.051  0.5235 -0.0329 -0.2538
  796MOL0     N 4957   1.274   5.509   0.060  0.8416 -0.3599  0.5709
  796MOL0     C 4958   1.311   5.513   0.189 -0.0342 -0.0248 -0.4408
  796MOL0     C 4959   1.200   5.499   0.255  0.2530  0.0755  0.9476
  796MOL0     C 4960   1.188   5.496   0.399 -0.1437 -1.0623  0.7086
  796MOL0     C 4961   1.276   5.385   0.471  0.1020  0.4232 -0.3007
  796MOL0     C 4962   1.287   5.250   0.393  0.1618  0.5784  0.0115
  796MOL0     C 4963   1.352   5.138   0.489 -0.8777 -0.1040  0.1647
  796MOL0     O 4964   1.462   5.192   0.558  0.2435  0.1754  0.6383
  796MOL0     C 4965   1.582   5.193   0.499 -1.0525  0.8466  0.1521
  796MOL0     C 4966   1.625   5.095   0.401  0.5829  0.5765 -0.5515
  796MOL0     C 4967   1.759   5.102   0.353 -0.0051  0.8370  0.7536
  796MOL0     C 4968   1.849   5.199   0.409 -0.2245 -0.0892  0.4970
  796MOL0     C 4969   1.990   5.209   0.358  0.4431 -1.6640 -0.4854
  796MOL0     O 4970   2.056   5.330   0.383 -0.1857 -0.7485 -0.5644
  796MOL0     C 4971   2.187   5.336   0.342  0.3058 -0.0110 -0.1836
  796MOL0     C 4972   2.226   5.439   0.262 -0.0779 -0.1447 -0.5131
  796MOL0     C 4973   2.363   5.465   0.237  0.4235  0.8429  0.2170
  796MOL0     C 4974   2.458   5.383   0.296  0.3292 -0.4713 -0.0843
  796MOL0     O 4975   2.601   5.402   0.283  1.0171 -0.1376 -0.4719
  796MOL0     C 4976   2.658   5.511   0.209 -0.6294 -0.3559 -0.0006
  796MOL0     C 4977   2.806   5.487   0.192  0.4155  1.9457 -0.0941
  796MOL0     C 4978   2.890   5.484   0.322  0.4592 -0.1091  0.5943
  796MOL0     C 4979   3.040   5.476   0.297 -0.0547 -0.3618  0.1849
  796MOL0     C 4980   3.118   5.485   0.434 -0.9158  0.1261  0.1369
  796MOL0     C 4981   3.266   5.483   0.412  0.0956  0.4468 -0.3753
  796MOL0     C 4982   3.323   5.334   0.399 -0.0037 -0.2032  0.0993
  796MOL0     C 4983   3.475   5.340   0.393  0.1712 -0.4362  0.2589
  796MOL0    Cl 4984   3.532   5.431   0.245 -0.0025  0.1503  0.4846
  796MOL0     C 4985   2.413   5.267   0.368 -0.2635  0.3207 -0.2216
  796MOL0     C 4986   2.277   5.244   0.388 -0.2531  0.5829  0.1401
  796MOL0     O 4987   2.026   5.127   0.274 -0.4981 -0.4752 -0.1399
  796MOL0     C 4988   1.800   5.302   0.497  0.1614  0.0509  0.1536
  796MOL0     C 4989   1.665   5.296   0.542 -0.3130  0.6271  0.0560
  796MOL0     N 4990   1.089   5.482   0.172  0.0836  0.2645  0.0475
  796MOL0     N 4991   1.137   5.473   0.052 -0.7744  0.0479  0.5444
  796MOL0     C 4992   0.564   6.170   0.026 -1.5490  1.0364 -0.6381
  796MOL0     C 4993   0.438   6.194   0.065  0.0471 -0.5849 -0.1527
  796MOL0     C 4994   0.042   6.288   0.212 -0.0726 -0.4631  0.0852
  796MOL0     C 4995  -0.038   6.405   0.198 -0.5333  0.1786 -0.4764
  796MOL0     C 4996  -0.180   6.397   0.197  0.3722 -0.2059 -0.5058
  796MOL0     C 4997  -0.245   6.269   0.223 -0.5193 -0.0481  0.6962
  796MOL0     O 4998  -0.379   6.265   0.203  0.8043  0.1668 -0.4965
  796MOL0     C 4999  -0.433   6.135   0.252  0.7109 -1.1231 -0.8919
  796MOL0     C 5000  -0.423   6.128   0.407  0.0416 -0.1234 -0.2510
  796MOL0     C 5001  -0.494   6.002   0.466 -0.0691 -0.3096 -0.0145
  796MOL0     C 5002  -0.517   6.038   0.610 -0.1223 -0.6454 -0.0337
  796MOL0     C 5003  -0.594   5.936   0.681 -0.1504 -0.2760  0.0656
  796MOL0     C 5004  -0.653   5.837   0.724  0.0089 -0.1818 -0.1216
  796MOL0     C 5005  -0.160   6.154   0.235 -0.8808  0.6813  0.3269
  796MOL0     C 5006  -0.021   6.161   0.234 -0.0709  0.5841 -0.7343
  796MOL0     H 5007   0.453   6.120   0.393  1.9436  2.5910  0.6011
  796MOL0     H 5008   0.685   6.063   0.328  2.0555 -2.8691 -2.4896
  796MOL0     H 5009   0.776   5.914   0.110 -1.3821  1.6329 -0.5085
  796MOL0     H 5010   0.904   5.980   0.203 -1.9829  1.5775  0.2628
  796MOL0     H 5011   0.882   5.989  -0.101 -1.5460  1.1620  1.6098
  796MOL0     H 5012   0.961   5.859  -0.010  2.0739  0.2407 -2.0671
  796MOL0     H 5013   1.129   6.039   0.087  3.3368 -1.4103 -1.7023
  796MOL0     H 5014   1.075   6.143  -0.039  0.8271 -0.2819 -1.3963
  796MOL0     H 5015   1.121   5.940  -0.201  0.4339  2.2891 -0.4566
  796MOL0     H 5016   1.267   6.019  -0.140  3.3859 -2.3862  0.6199
  796MOL0     H 5017   1.153   5.759  -0.022  0.1951  1.6428  2.6033
  796MOL0     H 5018   1.284   5.850   0.044  3.4447  2.1393 -1.9370
  796MOL0     H 5019   1.395   5.843  -0.195 -1.7591  1.6167  1.2731
  796MOL0     H 5020   1.290   5.713  -0.234 -0.8857 -1.2829  1.0210
  796MOL0     H 5021   1.523   5.674  -0.141 -0.2314  0.9817 -0.2342
  796MOL0     H 5022   1.468   5.709   0.018 -0.2123 -1.9628  0.7078
  796MOL0     H 5023   1.457   5.454  -0.028 -1.3513 -1.3098  3.6192
  796MOL0     H 5024   1.324   5.493  -0.143  1.0838 -2.2017  0.0958
  796MOL0     H 5025   1.411   5.526   0.229 -1.0590  0.5760  2.1083
  796MOL0     H 5026   1.085   5.476   0.430 -0.5191 -0.8563 -0.3527
  796MOL0     H 5027   1.208   5.597   0.437 -0.6498 -1.2695  1.5528
  796MOL0     H 5028   1.240   5.368   0.572  2.2646  1.4941  0.7192
  796MOL0     H 5029   1.379   5.423   0.479  0.3587 -0.5853  1.4923
  796MOL0     H 5030   1.187   5.224   0.358  0.5217  0.6493 -1.1093
  796MOL0     H 5031   1.350   5.268   0.305 -0.8202 -0.6335 -0.9977
  796MOL0     H 5032   1.367   5.041   0.442  0.1302  0.8357 -1.5947
  796MOL0     H 5033   1.275   5.122   0.565 -1.0904 -2.2191 -0.4414
  796MOL0     H 5034   1.551   5.022   0.371  0.4939  1.0806 -1.6133
  796MOL0     H 5035   1.786   5.037   0.270 -0.5530  1.0691  0.3869
  796MOL0     H 5036   2.150   5.502   0.218 -0.6468 -0.5842 -0.1752
  796MOL0     H 5037   2.379   5.552   0.175  1.1196  1.5980  1.4153
  796MOL0     H 5038   2.642   5.610   0.251  0.2713 -0.2429  0.1087
  796MOL0     H 5039   2.632   5.509   0.103  3.3041  2.0428 -1.2498
  796MOL0     H 5040   2.856   5.560   0.129  3.1818  0.6201  0.4186
  796MOL0     H 5041   2.812   5.388   0.144 -1.6695  1.3321  0.7585
  796MOL0     H 5042   2.871   5.402   0.392  0.7725  1.1889  2.2926
  796MOL0     H 5043   2.868   5.577   0.376 -0.3673 -0.5747  1.0857
  796MOL0     H 5044   3.062   5.383   0.245  0.9242  0.9379 -1.8997
  796MOL0     H 5045   3.068   5.560   0.232 -0.4178 -0.4712 -0.1149
  796MOL0     H 5046   3.086   5.410   0.507 -1.4649 -0.1928 -0.4129
  796MOL0     H 5047   3.094   5.576   0.489  1.7559 -1.3933  4.2352
  796MOL0     H 5048   3.312   5.528   0.501 -1.7752 -0.3704  1.0522
  796MOL0     H 5049   3.291   5.534   0.318  0.9937 -2.1100 -1.6136
  796MOL0     H 5050   3.288   5.280   0.487  0.0722  0.4706  0.5509
  796MOL0     H 5051   3.274   5.285   0.314 -1.4921 -0.0568  0.8416
  796MOL0     H 5052   3.508   5.236   0.403 -0.9064 -0.7415  0.8527
  796MOL0     H 5053   3.519   5.391   0.479  0.2527 -0.5681  0.2961
  796MOL0     H 5054   2.497   5.203   0.394  1.7934  1.1092 -4.0880
  796MOL0     H 5055   2.247   5.157   0.447 -0.0799  1.4406  1.5427
  796MOL0     H 5056   1.857   5.384   0.538 -0.8306  0.5901  0.4836
  796MOL0     H 5057   1.623   5.369   0.612 -1.1236 -1.6032  2.0242
  796MOL0     H 5058   0.589   6.183  -0.078 -1.6337 -0.8203 -0.9316
  796MOL0     H 5059   0.364   6.225  -0.007  0.6730  0.3937 -0.3841
  796MOL0     H 5060   0.006   6.503   0.188  1.7109 -0.6037  1.0357
  796MOL0     H 5061  -0.242   6.485   0.184  1.7196  0.4933 -2.6855
  796MOL0     H 5062  -0.386   6.049   0.204 -1.1086 -1.8490 -1.4484
  796MOL0     H 5063  -0.540   6.146   0.230  1.0134  3.1712 -1.0328
  796MOL0     H 5064  -0.318   6.127   0.437 -0.3465  2.0705  1.4973
  796MOL0     H 5065  -0.460   6.224   0.445  0.8404  0.0134  0.2043
  796MOL0     H 5066  -0.429   5.914   0.453 -0.9887 -0.7652 -2.0724
  796MOL0     H 5067  -0.589   5.978   0.417  0.7267 -0.3036 -1.6312
  796MOL0     H 5068  -0.418   6.049   0.657 -0.8303  0.8050  1.2106
  796MOL0     H 5069  -0.568   6.134   0.621 -1.4775 -1.2615 -0.6811
  796MOL0     H 5070  -0.715   5.755   0.752 -0.4830 -0.9492 -3.0551
  796MOL0     H 5071  -0.189   6.054   0.265  3.0839 -0.8095 -0.1046
  796MOL0     H 5072   0.044   6.075   0.248 -0.8146  0.2236  0.7039
  797MOL0     O 5073   7.512   9.356   6.704 -0.5194 -0.2677  0.2483
  797MOL0     C 5074   7.549   9.336   6.584 -0.2609  0.1448 -0.2391
  797MOL0     O 5075   7.465   9.333   6.479  0.3379  0.0712 -0.0985
  797MOL0     C 5076   7.334   9.340   6.511  0.4347  0.0317  1.0962
  797MOL0     C 5077   7.266   9.223   6.521 -0.2338 -0.0124  0.8061
  797MOL0     C 5078   7.129   9.224   6.522  0.2390  0.0316  0.4895
  797MOL0     C 5079   7.059   9.345   6.535 -0.0066  0.3425  0.3574
  797MOL0     O 5080   6.924   9.335   6.574  0.1244 -0.2659  0.0451
  797MOL0     C 5081   6.862   9.454   6.633  0.9929  0.6678 -0.1888
  797MOL0     C 5082   6.743   9.413   6.720 -0.3726 -0.0419  0.0902
  797MOL0     C 5083   6.616   9.371   6.643  0.7668 -0.7006 -0.2078
  797MOL0     C 5084   6.498   9.353   6.726 -0.0737  0.0868 -0.4407
  797MOL0     C 5085   6.373   9.325   6.643 -0.2882 -0.2051 -0.2498
  797MOL0     C 5086   6.243   9.339   6.716  0.8591  0.4413 -0.0695
  797MOL0     C 5087   6.120   9.324   6.617 -0.1997  0.6513 -1.1193
  797MOL0     C 5088   5.984   9.343   6.696 -0.2533  0.5749  0.1183
  797MOL0     N 5089   5.870   9.331   6.609 -0.5609  0.2971 -0.1937
  797MOL0     C 5090   5.809   9.210   6.587 -0.6993 -0.4177  0.5240
  797MOL0     C 5091   5.699   9.246   6.512 -1.1406 -0.0633 -0.3252
  797MOL0     C 5092   5.604   9.148   6.465 -0.2811 -0.1600  0.2930
  797MOL0     C 5093   5.581   9.043   6.567 -0.1436  0.3415  0.8556
  797MOL0     C 5094   5.443   8.963   6.553 -0.0477 -0.1353 -0.3267
  797MOL0     C 5095   5.387   8.926   6.415  0.4596 -0.1609 -1.2262
  797MOL0     O 5096   5.308   8.801   6.425  0.4111  0.2668 -0.2276
  797MOL0     C 5097   5.173   8.816   6.464  0.5318  0.2898 -0.7347
  797MOL0     C 5098   5.095   8.929   6.477 -0.0746 -0.0708  0.4117
  797MOL0     C 5099   4.954   8.921   6.484 -0.7072  0.1213  0.0878
  797MOL0     C 5100   4.882   8.804   6.478 -0.5373  0.3396  0.1117
  797MOL0     C 5101   4.740   8.801   6.476 -0.0907 -1.0486 -0.2886
  797MOL0     O 5102   4.683   8.686   6.448  1.7761 -0.1594  0.3093
  797MOL0     C 5103   4.550   8.668   6.402  0.2887 -0.4653 -0.2238
  797MOL0     C 5104   4.471   8.768   6.350  0.5843 -0.6481 -0.1890
  797MOL0     C 5105   4.336   8.740   6.315  0.2191  0.7181  0.4158
  797MOL0     C 5106   4.285   8.611   6.323 -0.6218  0.4008 -0.1760
  797MOL0     O 5107   4.161   8.563   6.297 -0.1157 -0.2390  0.5891
  797MOL0     C 5108   4.064   8.650   6.348  1.1149 -0.2791  0.1191
  797MOL0     C 5109   3.931   8.570   6.356  0.9648  0.2158 -0.5957
  797MOL0     C 5110   3.807   8.656   6.387 -0.1619  0.0914  0.1129
  797MOL0     C 5111   3.683   8.568   6.374 -0.0125 -0.4783  0.3787
  797MOL0     C 5112   3.554   8.639   6.398 -0.3029  0.1946 -0.1304
  797MOL0     C 5113   3.524   8.637   6.547 -0.6278 -0.6426  0.3762
  797MOL0     C 5114   3.392   8.702   6.567  1.0008 -0.0234 -0.5667
  797MOL0     C 5115   3.340   8.697   6.712 -0.5418  0.4329  0.2824
  797MOL0    Cl 5116   3.476   8.711   6.822 -0.2033 -0.1901 -0.2340
  797MOL0     C 5117   4.363   8.513   6.373 -0.5291 -0.4439 -0.0850
  797MOL0     C 5118   4.495   8.540   6.420 -0.1863  0.9531 -0.5178
  797MOL0     O 5119   4.676   8.909   6.497 -0.8046 -0.4889  0.1051
  797MOL0     C 5120   4.965   8.682   6.485  0.4533 -1.0813  0.4721
  797MOL0     C 5121   5.110   8.695   6.471  0.3387  0.0443 -0.3848
  797MOL0     N 5122   5.701   9.381   6.486  0.0493  0.4867  0.3301
  797MOL0     N 5123   5.803   9.432   6.548 -0.2670 -0.9004  0.6027
  797MOL0     C 5124   7.138   9.465   6.537  0.9738 -0.2129  0.3700
  797MOL0     C 5125   7.275   9.466   6.522 -0.3215  0.6772  0.3465
  797MOL0     C 5126   7.693   9.319   6.556 -0.1382  0.1573  0.2203
  797MOL0     C 5127   7.801   9.323   6.652 -0.6350  0.5327 -1.0759
  797MOL0     C 5128   7.937   9.322   6.618 -0.5858 -0.3777 -0.0040
  797MOL0     C 5129   7.973   9.318   6.483  0.3602  0.2727 -0.3639
  797MOL0     O 5130   8.107   9.331   6.453 -0.2614  0.3029 -0.1400
  797MOL0     C 5131   8.165   9.198   6.439 -0.0562 -0.2760  0.2660
  797MOL0     C 5132   8.311   9.205   6.374  0.5522 -0.7879  0.0918
  797MOL0     C 5133   8.368   9.064   6.354 -0.0320 -0.4550  0.7964
  797MOL0     C 5134   8.307   8.992   6.227  0.2660  1.2332  0.4786
  797MOL0     C 5135   8.347   8.853   6.237 -0.6615  0.2894  0.0138
  797MOL0     C 5136   8.395   8.742   6.249 -0.1863  0.0607 -0.4480
  797MOL0     C 5137   7.869   9.300   6.390 -0.0151  0.1635  0.2363
  797MOL0     C 5138   7.729   9.308   6.417  0.5529 -0.3655 -0.5321
  797MOL0     H 5139   7.318   9.130   6.497 -2.5850 -0.9842 -0.8787
  797MOL0     H 5140   7.078   9.129   6.527  0.3743 -0.2753 -2.3930
  797MOL0     H 5141   6.824   9.518   6.553  0.1800 -1.2839 -1.4238
  797MOL0     H 5142   6.928   9.503   6.707 -1.7458  0.2524  2.7573
  797MOL0     H 5143   6.709   9.494   6.785  0.1286 -0.2390  0.6062
  797MOL0     H 5144   6.774   9.337   6.792 -0.1045  1.9082  2.1604
  797MOL0     H 5145   6.639   9.279   6.589 -1.0932 -0.8265 -0.8604
  797MOL0     H 5146   6.605   9.445   6.564  5.0576 -2.2920 -2.5902
  797MOL0     H 5147   6.512   9.285   6.811  1.9245  1.6047  0.5441
  797MOL0     H 5148   6.482   9.446   6.781 -1.9171 -0.8149  0.6466
  797MOL0     H 5149   6.379   9.223   6.603  2.5117 -0.2081 -0.0825
  797MOL0     H 5150   6.363   9.390   6.556  3.0842  1.7706  0.6641
  797MOL0     H 5151   6.232   9.445   6.740  0.7674  0.5081 -0.3984
  797MOL0     H 5152   6.236   9.278   6.806  2.4181  0.0004 -0.2156
  797MOL0     H 5153   6.127   9.405   6.544  0.4585  1.8265  0.1891
  797MOL0     H 5154   6.116   9.228   6.565 -0.5486 -0.0389  0.1562
  797MOL0     H 5155   5.989   9.435   6.755  2.5093 -0.3093  1.4977
  797MOL0     H 5156   5.983   9.261   6.768 -2.2889  0.9205  0.5383
  797MOL0     H 5157   5.843   9.117   6.632  1.4440  0.5238  1.0079
  797MOL0     H 5158   5.636   9.108   6.368 -2.3026 -0.6040 -0.2273
  797MOL0     H 5159   5.512   9.205   6.451  0.8157  2.1311  1.8606
  797MOL0     H 5160   5.589   9.080   6.670 -2.9267  2.7060  0.3511
  797MOL0     H 5161   5.658   8.967   6.555 -0.6981 -0.2273  0.8336
  797MOL0     H 5162   5.454   8.877   6.619  5.6482 -0.0732 -0.7545
  797MOL0     H 5163   5.358   9.020   6.592 -0.0040  0.5504 -1.2218
  797MOL0     H 5164   5.466   8.905   6.342  1.0270 -0.7331 -0.4628
  797MOL0     H 5165   5.332   9.011   6.375  2.7416  0.4644 -3.2720
  797MOL0     H 5166   5.141   9.027   6.470  0.0472 -0.2189 -1.0848
  797MOL0     H 5167   4.898   9.014   6.479 -3.1279 -1.1719  1.4253
  797MOL0     H 5168   4.505   8.869   6.334 -0.6736 -0.3192 -0.9460
  797MOL0     H 5169   4.288   8.814   6.252  0.8094  0.4464 -0.3733
  797MOL0     H 5170   4.055   8.741   6.289  1.5822 -1.4446 -1.8187
  797MOL0     H 5171   4.088   8.684   6.449  0.4753  0.2324  0.1002
  797MOL0     H 5172   3.946   8.486   6.425 -0.8857  2.6405  3.1045
  797MOL0     H 5173   3.916   8.523   6.258  5.1849 -0.5854 -1.0655
  797MOL0     H 5174   3.813   8.732   6.308 -1.9611  0.6074  0.4383
  797MOL0     H 5175   3.811   8.711   6.482 -0.6699 -1.0008  0.7823
  797MOL0     H 5176   3.682   8.535   6.270  1.8095 -0.5022  0.3249
  797MOL0     H 5177   3.683   8.473   6.429 -3.3763 -1.5701 -1.2533
  797MOL0     H 5178   3.483   8.579   6.341 -0.4480  0.7004 -0.4899
  797MOL0     H 5179   3.559   8.744   6.365 -0.5602 -0.7765 -3.6532
  797MOL0     H 5180   3.602   8.688   6.605 -0.2485 -0.9249  0.1192
  797MOL0     H 5181   3.512   8.533   6.578 -0.1976 -0.9310 -0.4052
  797MOL0     H 5182   3.400   8.807   6.537  2.4555 -0.2067 -0.8974
  797MOL0     H 5183   3.323   8.655   6.497  0.7236 -0.4228 -0.0299
  797MOL0     H 5184   3.282   8.604   6.718 -1.5929  0.9319 -1.4129
  797MOL0     H 5185   3.265   8.772   6.740 -1.4237 -1.1172  2.3718
  797MOL0     H 5186   4.305   8.422   6.387  2.5772 -2.2534  2.1750
  797MOL0     H 5187   4.554   8.470   6.477 -1.4750  2.2560  2.6475
  797MOL0     H 5188   4.920   8.583   6.487 -0.5069 -0.7072 -0.9533
  797MOL0     H 5189   5.163   8.600   6.465 -0.6750 -0.5750  0.0811
  797MOL0     H 5190   7.080   9.557   6.539  1.2192  0.2584 -4.2736
  797MOL0     H 5191   7.341   9.551   6.512 -1.5673  1.6965  0.4391
  797MOL0     H 5192   7.775   9.334   6.757  2.0870 -0.0864 -0.2485
  797MOL0     H 5193   8.021   9.324   6.688 -0.9830 -1.5663  0.5520
  797MOL0     H 5194   8.110   9.135   6.369  0.7434 -1.3760  0.6013
  797MOL0     H 5195   8.161   9.144   6.534 -0.2620 -2.0273 -0.6874
  797MOL0     H 5196   8.296   9.260   6.281 -1.9107 -0.4253  0.6393
  797MOL0     H 5197   8.375   9.263   6.442  0.8836  1.1571 -1.7602
  797MOL0     H 5198   8.333   9.008   6.441  0.8965 -2.2338  0.0657
  797MOL0     H 5199   8.475   9.057   6.336 -0.0129 -1.4527  1.1946
  797MOL0     H 5200   8.198   8.983   6.225  0.4910 -3.5180  0.1888
  797MOL0     H 5201   8.346   9.043   6.138  1.9690 -1.0089 -0.1407
  797MOL0     H 5202   8.431   8.643   6.267 -0.1638 -0.5996 -3.5544
  797MOL0     H 5203   7.903   9.302   6.287  1.1489 -0.3189  0.6032
  797MOL0     H 5204   7.661   9.308   6.332 -1.1158 -0.4997  0.7735
  798MOL0     O 5205   8.760   9.726   7.917  0.0075 -0.3295 -0.5148
  798MOL0     C 5206   8.785   9.752   7.799  0.8336  0.3433  0.4356
  798MOL0     O 5207   8.689   9.784   7.704 -0.6000  0.5055  0.3701
  798MOL0     C 5208   8.555   9.812   7.736 -0.3573  0.7462 -0.8979
  798MOL0     C 5209   8.450   9.747   7.684  1.6318  0.4796  0.0919
  798MOL0     C 5210   8.315   9.766   7.716 -0.6832  0.4276  0.2179
  798MOL0     C 5211   8.283   9.872   7.804  0.2452 -0.0754 -0.1044
  798MOL0     O 5212   8.155   9.907   7.837  0.0878 -0.1596 -0.0525
  798MOL0     C 5213   8.053   9.808   7.833  0.3398 -0.7585  0.6941
  798MOL0     C 5214   7.933   9.860   7.916 -0.2354 -0.5763 -0.7407
  798MOL0     C 5215   7.801   9.778   7.894 -0.7621 -0.4145 -0.4296
  798MOL0     C 5216   7.689   9.826   7.982  1.0289  0.2574 -0.4364
  798MOL0     C 5217   7.551   9.778   7.948 -0.5053  0.2861  1.3650
  798MOL0     C 5218   7.477   9.875   7.856 -0.0494  0.6260  0.5034
  798MOL0     C 5219   7.365   9.793   7.798 -0.6523 -0.8328  0.3729
  798MOL0     C 5220   7.233   9.826   7.871 -0.7261 -1.1882 -0.9499
  798MOL0     N 5221   7.127   9.736   7.824  0.0748  0.1123 -0.6386
  798MOL0     C 5222   7.022   9.764   7.734  0.8147  1.1399  0.7394
  798MOL0     C 5223   6.937   9.656   7.735 -0.9755 -1.1013 -0.4858
  798MOL0     C 5224   6.819   9.634   7.643  0.1307  0.0335 -0.2427
  798MOL0     C 5225   6.844   9.501   7.565 -0.7005  0.9194 -0.0024
  798MOL0     C 5226   6.774   9.386   7.625 -0.5178  0.2380 -0.0419
  798MOL0     C 5227   6.630   9.389   7.587  0.3483  0.6533 -0.6906
  798MOL0     O 5228   6.571   9.260   7.578 -0.8351  0.3713 -0.6776
  798MOL0     C 5229   6.441   9.238   7.538  0.6786  0.6382  0.7752
  798MOL0     C 5230   6.381   9.114   7.563 -0.1172  0.1916  0.4222
  798MOL0     C 5231   6.253   9.074   7.526  0.5795  0.1265 -0.0682
  798MOL0     C 5232   6.173   9.161   7.460 -0.7462  1.1903 -1.3382
  798MOL0     C 5233   6.038   9.120   7.423  0.2321  0.5543 -0.0407
  798MOL0     O 5234   5.967   9.052   7.520  0.2336 -0.1486 -0.6369
  798MOL0     C 5235   5.840   9.003   7.507  0.4542 -0.0463 -0.3129
  798MOL0     C 5236   5.761   9.004   7.620 -0.1897 -0.4231  0.0289
  798MOL0     C 5237   5.627   8.970   7.620  0.1656  0.0986  0.0236
  798MOL0     C 5238   5.572   8.937   7.498 -0.2856  0.4625  0.3145
  798MOL0     O 5239   5.435   8.918   7.483 -0.4840 -0.1332  0.4732
  798MOL0     C 5240   5.353   8.909   7.605  1.2043  0.0146  0.3900
  798MOL0     C 5241   5.205   8.894   7.567 -0.0074 -0.5402 -0.5202
  798MOL0     C 5242   5.112   8.894   7.688  0.1846 -0.5962 -0.4503
  798MOL0     C 5243   4.962   8.889   7.647  0.3001  0.2699 -0.1722
  798MOL0     C 5244   4.864   8.916   7.772 -0.8708  0.1211  0.2027
  798MOL0     C 5245   4.729   8.914   7.716  1.3720 -0.1893  0.0922
  798MOL0     C 5246   4.631   8.991   7.798 -0.5281 -0.8772 -0.1751
  798MOL0     C 5247   4.487   9.001   7.738 -0.4682 -0.2232  0.6377
  798MOL0    Cl 5248   4.468   9.124   7.602 -0.2336  0.1353  0.0086
  798MOL0     C 5249   5.653   8.906   7.382  0.0688  0.0102 -0.1459
  798MOL0     C 5250   5.786   8.943   7.388  0.4455  0.8048  0.1275
  798MOL0     O 5251   6.003   9.141   7.307 -0.2905  0.1502 -0.1073
  798MOL0     C 5252   6.222   9.287   7.419 -0.6235  0.3291 -0.4842
  798MOL0     C 5253   6.354   9.323   7.463  0.3095  0.2052  0.4900
  798MOL0     N 5254   6.983   9.573   7.832 -0.2874  0.1805  0.0972
  798MOL0     N 5255   7.090   9.621   7.882 -0.2270 -0.4772  0.4468
  798MOL0     C 5256   8.390   9.942   7.866 -0.2340 -0.3384 -0.0138
  798MOL0     C 5257   8.522   9.909   7.840 -0.3699  0.4731  0.2354
  798MOL0     C 5258   8.920   9.705   7.756  0.1363 -0.4779  0.0531
  798MOL0     C 5259   9.027   9.681   7.847  1.0325 -0.1013 -0.3574
  798MOL0     C 5260   9.156   9.652   7.810 -0.1448 -0.2144 -0.2838
  798MOL0     C 5261   9.179   9.645   7.672 -0.2498 -0.1270  0.4974
  798MOL0     O 5262   9.306   9.625   7.633  0.2852  0.0382  0.2134
  798MOL0     C 5263   9.346   9.629   7.491 -0.6020 -0.5044 -0.4601
  798MOL0     C 5264   9.484   9.572   7.491 -0.5593 -0.2593 -0.2357
  798MOL0     C 5265   9.520   9.515   7.355  0.9166 -0.3426  0.3228
  798MOL0     C 5266   9.656   9.453   7.342 -0.1849 -0.7319 -0.9894
  798MOL0     C 5267   9.764   9.552   7.384  0.6735  0.3477  0.7561
  798MOL0     C 5268   9.836   9.631   7.432  0.2019  0.2232 -0.6410
  798MOL0     C 5269   9.077   9.671   7.578 -0.1198  0.0288 -0.3523
  798MOL0     C 5270   8.941   9.698   7.621 -0.5902  0.6901  0.4821
  798MOL0     H 5271   8.471   9.664   7.617  0.4003 -0.9718  1.4287
  798MOL0     H 5272   8.240   9.707   7.664 -0.6203  1.4161 -1.0358
  798MOL0     H 5273   8.091   9.712   7.868 -0.8916 -1.7998 -0.7123
  798MOL0     H 5274   8.029   9.799   7.727  3.6693 -0.3803 -0.1980
  798MOL0     H 5275   7.920   9.968   7.907 -0.5682 -0.7204 -2.4922
  798MOL0     H 5276   7.952   9.845   8.022 -1.3719  0.4200 -0.3771
  798MOL0     H 5277   7.828   9.676   7.921  0.8828  0.9592  3.7827
  798MOL0     H 5278   7.774   9.769   7.788 -1.4159 -0.0914 -0.2992
  798MOL0     H 5279   7.701   9.790   8.085  1.9925 -0.5198 -0.7987
  798MOL0     H 5280   7.694   9.934   7.994  0.9157  0.0529  2.1528
  798MOL0     H 5281   7.494   9.772   8.041 -1.3286  0.3145  0.8705
  798MOL0     H 5282   7.563   9.679   7.904  2.3083  0.8970  0.5941
  798MOL0     H 5283   7.538   9.910   7.773  0.3327  0.9870  0.9323
  798MOL0     H 5284   7.447   9.960   7.917  1.6266 -0.5237  3.1359
  798MOL0     H 5285   7.354   9.817   7.692  3.2930  0.3576  0.0456
  798MOL0     H 5286   7.374   9.684   7.801 -1.3802 -0.8669  1.7113
  798MOL0     H 5287   7.205   9.932   7.868 -3.8652 -1.8544  0.9083
  798MOL0     H 5288   7.244   9.802   7.977  2.1425 -0.3693 -0.9675
  798MOL0     H 5289   7.012   9.849   7.667  0.9233 -0.8375 -1.9565
  798MOL0     H 5290   6.811   9.723   7.579 -1.7025  0.2649  0.2537
  798MOL0     H 5291   6.727   9.631   7.701  1.7501  0.3303  2.5000
  798MOL0     H 5292   6.951   9.484   7.574 -0.7323  1.2640  1.2736
  798MOL0     H 5293   6.810   9.518   7.462 -1.0518 -1.6785 -0.3808
  798MOL0     H 5294   6.827   9.300   7.581 -0.2011  1.9190 -3.2728
  798MOL0     H 5295   6.783   9.374   7.733  0.3953 -0.7764 -0.2096
  798MOL0     H 5296   6.633   9.430   7.486 -0.4003  1.1278 -0.5334
  798MOL0     H 5297   6.569   9.460   7.644  1.4794  1.6028 -0.6393
  798MOL0     H 5298   6.444   9.046   7.620 -0.7313 -0.4110  0.3934
  798MOL0     H 5299   6.230   8.972   7.553  0.3351  0.8399  2.7748
  798MOL0     H 5300   5.802   9.039   7.714  2.5897 -1.6287 -0.6239
  798MOL0     H 5301   5.571   8.977   7.713 -0.7195 -1.9605 -0.2964
  798MOL0     H 5302   5.365   9.004   7.658  0.3688  0.6975 -0.6130
  798MOL0     H 5303   5.393   8.833   7.674  3.1886 -0.1243 -0.8333
  798MOL0     H 5304   5.190   8.811   7.497 -0.1014  0.0001 -1.1458
  798MOL0     H 5305   5.176   8.983   7.510 -0.3991 -1.8525 -2.4450
  798MOL0     H 5306   5.130   8.982   7.750 -3.8022 -1.0237  1.6477
  798MOL0     H 5307   5.140   8.809   7.753  0.0210  1.3986  2.4227
  798MOL0     H 5308   4.945   8.956   7.562 -1.2530  1.4521  1.0207
  798MOL0     H 5309   4.938   8.787   7.614 -0.2994  0.3988 -0.1317
  798MOL0     H 5310   4.887   9.018   7.805  1.0883  0.0233 -0.7062
  798MOL0     H 5311   4.878   8.845   7.855  2.5452  1.4990  1.0159
  798MOL0     H 5312   4.689   8.812   7.708  0.8873  0.1478 -2.8745
  798MOL0     H 5313   4.730   8.948   7.612  1.1315 -1.3918 -0.3182
  798MOL0     H 5314   4.617   8.948   7.898 -1.4819  4.3458  2.2868
  798MOL0     H 5315   4.685   9.085   7.813 -0.4507 -1.1444  1.4165
  798MOL0     H 5316   4.418   9.031   7.817  2.1473  1.2594  2.4888
  798MOL0     H 5317   4.468   8.899   7.704 -3.6061 -0.5888  3.0497
  798MOL0     H 5318   5.613   8.870   7.288 -0.5326  1.7444 -0.5767
  798MOL0     H 5319   5.843   8.933   7.297  2.0066  2.5897  0.8268
  798MOL0     H 5320   6.160   9.363   7.372  0.0290 -0.8276 -3.3948
  798MOL0     H 5321   6.395   9.420   7.435 -0.1399  0.1857 -0.2804
  798MOL0     H 5322   8.368  10.019   7.939  0.5552  1.0890 -1.2220
  798MOL0     H 5323   8.599   9.973   7.882 -1.0272  1.7217 -0.3881
  798MOL0     H 5324   9.006   9.686   7.953  0.4526  2.9811 -0.5242
  798MOL0     H 5325   9.237   9.650   7.883  0.8036 -1.7311 -1.3419
  798MOL0     H 5326   9.344   9.732   7.453 -0.3253  0.3421  1.6923
  798MOL0     H 5327   9.283   9.563   7.431  1.3123 -1.9959 -0.9301
  798MOL0     H 5328   9.558   9.648   7.519 -0.1800 -0.6515 -0.1456
  798MOL0     H 5329   9.491   9.489   7.562  2.4972  0.0504 -0.0228
  798MOL0     H 5330   9.506   9.599   7.286  1.1910 -0.6539 -0.1124
  798MOL0     H 5331   9.455   9.436   7.318  2.8377 -1.7694 -0.1542
  798MOL0     H 5332   9.646   9.367   7.409 -2.2155 -1.4100 -2.0704
  798MOL0     H 5333   9.690   9.415   7.245  0.1624 -0.0939 -1.1242
  798MOL0     H 5334   9.904   9.705   7.469  1.7700 -0.9234 -1.1624
  798MOL0     H 5335   9.107   9.685   7.475  1.8108  1.1057  0.3221
  798MOL0     H 5336   8.859   9.714   7.551 -1.8194 -0.0885  1.6731
  799MOL0     O 5337   7.632   3.855   3.221 -0.2136 -0.5369  0.7536
  799MOL0     C 5338   7.610   3.787   3.324 -0.7022 -0.1936  0.2032
  799MOL0     O 5339   7.712   3.756   3.410  0.9233 -0.2786 -0.5468
  799MOL0     C 5340   7.837   3.822   3.397  0.1450 -0.0249  0.0072
  799MOL0     C 5341   7.867   3.915   3.491 -0.3903 -0.7689 -0.6733
  799MOL0     C 5342   7.977   3.997   3.478  0.5464 -0.2107 -0.3878
  799MOL0     C 5343   8.063   3.988   3.364 -0.1707 -0.6630 -0.4493
  799MOL0     O 5344   8.182   4.057   3.343 -0.4111  0.4720 -0.7600
  799MOL0     C 5345   8.202   4.176   3.424 -0.3876  0.6958  0.3111
  799MOL0     C 5346   8.324   4.259   3.385  0.1348  0.5107 -0.9871
  799MOL0     C 5347   8.446   4.172   3.404 -0.2123 -0.4879  0.6100
  799MOL0     C 5348   8.575   4.244   3.379 -0.1467 -0.3305 -0.2099
  799MOL0     C 5349   8.685   4.160   3.434 -0.6159 -0.5019 -0.1063
  799MOL0     C 5350   8.802   4.247   3.464 -0.2485  0.3337  0.3847
  799MOL0     C 5351   8.914   4.166   3.534  0.5030  0.7602 -0.4611
  799MOL0     C 5352   9.052   4.239   3.512  0.7530  0.8633 -0.2753
  799MOL0     N 5353   9.148   4.197   3.618  0.4878 -0.3926 -0.6362
  799MOL0     C 5354   9.213   4.077   3.625 -0.1679 -0.2863  0.2181
  799MOL0     C 5355   9.291   4.082   3.738  0.4965  0.8499 -0.5556
  799MOL0     C 5356   9.390   3.981   3.778 -0.2066 -0.3998 -0.2355
  799MOL0     C 5357   9.502   3.947   3.679 -0.2677 -0.5556  0.0642
  799MOL0     C 5358   9.575   3.811   3.712 -0.5295  0.1064  0.3180
  799MOL0     C 5359   9.683   3.785   3.602 -0.4615  0.0304 -0.0076
  799MOL0     O 5360   9.768   3.678   3.648 -0.2604  0.3671 -0.3213
  799MOL0     C 5361   9.733   3.546   3.630 -1.0165 -0.2675 -0.2599
  799MOL0     C 5362   9.792   3.455   3.716  0.2619 -0.3882 -0.4963
  799MOL0     C 5363   9.757   3.317   3.717  1.0994 -0.0195  1.4621
  799MOL0     C 5364   9.654   3.273   3.627  0.3154  0.1851  0.5465
  799MOL0     C 5365   9.606   3.132   3.606  0.0904  0.6277 -0.3838
  799MOL0     O 5366   9.516   3.097   3.505 -0.1750 -0.1019  0.7161
  799MOL0     C 5367   9.460   2.972   3.505  0.0194  0.6196  0.0333
  799MOL0     C 5368   9.541   2.864   3.465 -0.2474  0.6279  0.0263
  799MOL0     C 5369   9.485   2.738   3.443 -0.1867  0.8896  0.1450
  799MOL0     C 5370   9.357   2.705   3.472  0.4162 -0.3479  0.3798
  799MOL0     O 5371   9.293   2.583   3.450  0.2083 -0.3862  0.1050
  799MOL0     C 5372   9.361   2.461   3.428  0.5467  0.2822 -0.1335
  799MOL0     C 5373   9.269   2.343   3.452 -0.8387 -0.3725 -0.2005
  799MOL0     C 5374   9.135   2.359   3.383 -0.2108  0.3431 -0.2150
  799MOL0     C 5375   9.017   2.260   3.438  1.1514  0.2452 -0.1496
  799MOL0     C 5376   8.879   2.282   3.366  0.3693 -0.9143 -0.4766
  799MOL0     C 5377   8.784   2.158   3.391 -0.1838 -0.5462  0.8134
  799MOL0     C 5378   8.671   2.153   3.289 -0.0283 -0.8230 -0.2110
  799MOL0     C 5379   8.605   2.015   3.259  0.4384 -0.4651  0.4341
  799MOL0    Cl 5380   8.446   2.038   3.179  0.3210 -0.0877  0.4005
  799MOL0     C 5381   9.280   2.810   3.532  0.4405 -0.8091  0.0683
  799MOL0     C 5382   9.330   2.944   3.546 -0.2504  0.4397  1.0316
  799MOL0     O 5383   9.662   3.050   3.688 -0.3539 -0.7081  0.2836
  799MOL0     C 5384   9.598   3.369   3.545 -0.0085  0.3090  1.5778
  799MOL0     C 5385   9.639   3.499   3.537  0.0214  0.6491 -0.4411
  799MOL0     N 5386   9.264   4.195   3.802  0.1736 -0.9038 -0.7768
  799MOL0     N 5387   9.190   4.266   3.723 -0.3706  0.1811 -0.6732
  799MOL0     C 5388   8.035   3.886   3.272 -1.1507 -0.4290 -0.5022
  799MOL0     C 5389   7.934   3.792   3.298 -0.3715  0.3804  0.1712
  799MOL0     C 5390   7.475   3.726   3.349 -0.1545  0.2040 -0.3755
  799MOL0     C 5391   7.354   3.786   3.301  0.2622 -0.1064 -0.6248
  799MOL0     C 5392   7.233   3.712   3.330  0.2385 -1.1073  0.4322
  799MOL0     C 5393   7.230   3.591   3.387  0.2305  0.6849 -0.7815
  799MOL0     O 5394   7.097   3.541   3.413 -0.1893  0.0862  0.1228
  799MOL0     C 5395   7.084   3.410   3.465 -0.1055  0.3121 -0.6995
  799MOL0     C 5396   7.085   3.297   3.356  0.4324 -0.9518 -0.1722
  799MOL0     C 5397   7.105   3.156   3.427 -0.4231  0.3635  0.6305
  799MOL0     C 5398   7.145   3.052   3.318 -0.3455  0.3871 -0.2776
  799MOL0     C 5399   7.265   3.075   3.243  0.3618  0.5533 -0.5974
  799MOL0     C 5400   7.370   3.086   3.181 -0.0440  0.4010  0.1802
  799MOL0     C 5401   7.353   3.530   3.431  0.0550  0.5628  0.8055
  799MOL0     C 5402   7.471   3.600   3.406  0.3469  0.8340 -0.2990
  799MOL0     H 5403   7.811   3.925   3.584  1.8730  0.6698  0.6517
  799MOL0     H 5404   7.992   4.065   3.562  0.3698 -0.2125 -0.3542
  799MOL0     H 5405   8.223   4.146   3.528  1.7350 -0.3105 -0.3272
  799MOL0     H 5406   8.120   4.247   3.418 -0.5126  0.4106 -2.2853
  799MOL0     H 5407   8.323   4.354   3.439 -0.0147  0.1951 -0.4223
  799MOL0     H 5408   8.314   4.291   3.281 -1.3737  0.5886 -0.8446
  799MOL0     H 5409   8.448   4.090   3.331 -0.4982  1.4649 -1.7201
  799MOL0     H 5410   8.443   4.126   3.503  0.5107  1.2388  1.4615
  799MOL0     H 5411   8.585   4.263   3.272 -2.0580 -0.3707 -0.4367
  799MOL0     H 5412   8.573   4.333   3.442  0.4020 -2.2776  2.7651
  799MOL0     H 5413   8.724   4.082   3.368  1.1453 -0.7986  1.2012
  799MOL0     H 5414   8.649   4.108   3.523  0.2011 -0.3542  0.3260
  799MOL0     H 5415   8.778   4.331   3.531 -3.5263 -1.2626  1.4227
  799MOL0     H 5416   8.837   4.290   3.370  0.4767  0.1303  0.5585
  799MOL0     H 5417   8.893   4.149   3.641  2.5798 -2.7819 -0.4581
  799MOL0     H 5418   8.913   4.067   3.488 -3.3038  1.1288 -1.4741
  799MOL0     H 5419   9.040   4.346   3.531 -1.1992  0.3996  1.4615
  799MOL0     H 5420   9.088   4.226   3.409  1.6971  0.2786  0.1124
  799MOL0     H 5421   9.234   4.007   3.545  3.8250 -1.2649  1.8310
  799MOL0     H 5422   9.337   3.888   3.803 -0.0116 -0.3961  0.1909
  799MOL0     H 5423   9.446   4.022   3.862  0.0705  0.7072 -0.9395
  799MOL0     H 5424   9.565   4.036   3.668 -0.6400  0.2531  3.3912
  799MOL0     H 5425   9.453   3.946   3.581  0.1122  1.2771 -0.1775
  799MOL0     H 5426   9.616   3.819   3.813 -2.2234  2.0848  0.9296
  799MOL0     H 5427   9.497   3.735   3.709 -1.7492  1.2101  2.2572
  799MOL0     H 5428   9.746   3.875   3.606  1.0754 -0.9827 -0.5399
  799MOL0     H 5429   9.650   3.765   3.500  1.3282  2.0726 -1.0543
  799MOL0     H 5430   9.857   3.506   3.788  3.1380 -0.6550 -2.7034
  799MOL0     H 5431   9.814   3.254   3.785  1.6010 -1.1094  0.1044
  799MOL0     H 5432   9.649   2.862   3.454 -0.3569  0.4297 -1.2562
  799MOL0     H 5433   9.549   2.657   3.409 -2.3150 -1.3103  1.0672
  799MOL0     H 5434   9.442   2.456   3.500 -0.3799 -1.5998  0.8550
  799MOL0     H 5435   9.398   2.448   3.326  2.1638 -0.5267  0.5337
  799MOL0     H 5436   9.251   2.329   3.559  0.9558  2.2584  0.5499
  799MOL0     H 5437   9.331   2.257   3.428  2.7767  2.1689 -0.8006
  799MOL0     H 5438   9.131   2.359   3.273  1.3621  1.3754 -0.3088
  799MOL0     H 5439   9.100   2.454   3.424 -0.4427  0.7200 -1.2404
  799MOL0     H 5440   9.057   2.160   3.419  0.8283 -0.0181  0.5223
  799MOL0     H 5441   8.999   2.273   3.545  0.1563  3.1907 -0.5680
  799MOL0     H 5442   8.898   2.281   3.258  1.4671  0.5135 -0.3351
  799MOL0     H 5443   8.833   2.376   3.397  1.5856 -0.2314 -0.6601
  799MOL0     H 5444   8.745   2.163   3.493  1.3796 -1.4971  1.4856
  799MOL0     H 5445   8.834   2.063   3.373 -0.3327 -0.2554 -1.4021
  799MOL0     H 5446   8.593   2.215   3.334 -1.2014 -0.8445 -2.0879
  799MOL0     H 5447   8.706   2.193   3.193  0.0342  0.3080  0.2634
  799MOL0     H 5448   8.592   1.955   3.350 -0.4943 -0.0034  0.6249
  799MOL0     H 5449   8.660   1.953   3.188 -1.5120 -1.7219 -0.0628
  799MOL0     H 5450   9.182   2.792   3.575 -0.5963 -1.2137 -2.3024
  799MOL0     H 5451   9.270   3.027   3.583 -1.2932  2.6446 -4.6900
  799MOL0     H 5452   9.516   3.338   3.481  0.5600  1.0692  0.4289
  799MOL0     H 5453   9.588   3.552   3.457 -0.9919  1.2862  0.6033
  799MOL0     H 5454   8.096   3.865   3.185 -0.6606  0.0689 -0.2811
  799MOL0     H 5455   7.918   3.722   3.217 -0.0895  1.6495 -1.0255
  799MOL0     H 5456   7.361   3.880   3.248  0.7939 -0.4373 -1.1640
  799MOL0     H 5457   7.145   3.771   3.308  0.7186 -0.0888  1.1604
  799MOL0     H 5458   6.986   3.402   3.514  0.9667 -0.0572  1.5140
  799MOL0     H 5459   7.157   3.387   3.543 -1.0926 -0.6783 -0.0268
  799MOL0     H 5460   6.985   3.305   3.313  0.7673  0.4895 -0.7226
  799MOL0     H 5461   7.165   3.308   3.283  1.3818 -0.3098  0.9225
  799MOL0     H 5462   7.011   3.127   3.476  1.2971 -0.4116  3.7829
  799MOL0     H 5463   7.184   3.166   3.502  0.0762 -2.3615  0.5552
  799MOL0     H 5464   7.153   2.959   3.374 -1.6946  2.3875  3.5676
  799MOL0     H 5465   7.062   3.047   3.246 -0.5487  2.0562 -0.2030
  799MOL0     H 5466   7.462   3.108   3.131 -0.5924  0.9028 -0.6365
  799MOL0     H 5467   7.347   3.440   3.491 -0.1972  0.9175  1.3255
  799MOL0     H 5468   7.567   3.555   3.431  0.7219  2.0246  0.5080
  800MOL0     O 5469   1.093   9.637   3.252  0.2849  0.4084  0.3633
  800MOL0     C 5470   1.085   9.745   3.307 -0.7916 -0.9903  0.4346
  800MOL0     O 5471   0.974   9.822   3.325  0.0296 -0.0925 -0.5842
  800MOL0     C 5472   0.847   9.776   3.309 -0.6448 -0.5049 -0.0593
  800MOL0     C 5473   0.804   9.662   3.383 -1.3869 -0.3810 -0.2890
  800MOL0     C 5474   0.685   9.598   3.361 -0.1081 -0.2484 -0.7368
  800MOL0     C 5475   0.601   9.650   3.263  1.1930  0.5446  0.1072
  800MOL0     O 5476   0.482   9.592   3.224  0.0523 -0.1413 -0.8088
  800MOL0     C 5477   0.469   9.457   3.254  0.1902  0.1059  0.5584
  800MOL0     C 5478   0.359   9.380   3.170 -0.0448  0.7817  0.2187
  800MOL0     C 5479   0.210   9.432   3.179 -0.3579 -0.3846 -0.4756
  800MOL0     C 5480   0.128   9.379   3.063  0.0808 -0.2250  0.1531
  800MOL0     C 5481  -0.018   9.407   3.101 -0.2408  0.6115 -0.6371
  800MOL0     C 5482  -0.113   9.316   3.017  0.1437 -0.8417  0.0948
  800MOL0     C 5483  -0.263   9.331   3.052 -0.2858  0.1731  0.2364
  800MOL0     C 5484  -0.297   9.466   3.116  0.5844 -0.9062 -0.1455
  800MOL0     N 5485  -0.444   9.496   3.132  0.7055  0.3433  0.5863
  800MOL0     C 5486  -0.519   9.499   3.247 -0.1012 -0.1852  0.7440
  800MOL0     C 5487  -0.644   9.530   3.205  0.0914  0.4622  0.2037
  800MOL0     C 5488  -0.755   9.584   3.288 -0.4152  0.2643  0.1902
  800MOL0     C 5489  -0.885   9.502   3.275 -0.1390  0.4525  0.0879
  800MOL0     C 5490  -0.998   9.568   3.355  0.2303  0.5704  0.1569
  800MOL0     C 5491  -1.118   9.484   3.383 -0.3498  0.0993 -0.4656
  800MOL0     O 5492  -1.245   9.558   3.360 -0.1814  0.1994  0.5285
  800MOL0     C 5493  -1.363   9.493   3.389 -0.1668 -0.2884 -0.3957
  800MOL0     C 5494  -1.475   9.572   3.396 -0.1329  0.0699 -0.1044
  800MOL0     C 5495  -1.600   9.529   3.433 -0.6339 -0.2634  0.2544
  800MOL0     C 5496  -1.611   9.390   3.446 -0.0031 -0.1411  0.5423
  800MOL0     C 5497  -1.750   9.339   3.474  0.4815 -0.3089  0.8792
  800MOL0     O 5498  -1.848   9.424   3.487  0.1610 -0.4126 -0.5487
  800MOL0     C 5499  -1.981   9.392   3.489 -0.1454  0.0630 -0.0714
  800MOL0     C 5500  -2.034   9.262   3.476  0.2768 -0.6222 -0.5201
  800MOL0     C 5501  -2.169   9.233   3.476  0.3439  0.1628 -0.2405
  800MOL0     C 5502  -2.260   9.343   3.487 -0.0473 -0.1876 -0.1538
  800MOL0     O 5503  -2.397   9.329   3.475 -0.0748 -0.5370  0.1592
  800MOL0     C 5504  -2.457   9.212   3.429 -0.6843  0.1392 -0.4216
  800MOL0     C 5505  -2.603   9.223   3.452  0.0597 -0.5589 -0.0761
  800MOL0     C 5506  -2.685   9.104   3.405 -0.1336 -0.6433 -1.0107
  800MOL0     C 5507  -2.837   9.134   3.438  0.7284 -0.1379  0.6238
  800MOL0     C 5508  -2.947   9.032   3.378 -1.1067  0.6483 -0.1747
  800MOL0     C 5509  -2.999   8.948   3.486  0.3153 -0.0091  0.1785
  800MOL0     C 5510  -3.070   8.825   3.425 -0.1632  0.0135  0.5305
  800MOL0     C 5511  -3.213   8.856   3.369  0.0251  0.0247  0.4977
  800MOL0    Cl 5512  -3.325   8.930   3.485  0.0600 -0.2504 -0.0752
  800MOL0     C 5513  -2.206   9.469   3.505 -0.2522  0.3347  0.4079
  800MOL0     C 5514  -2.070   9.489   3.497 -0.4915 -0.3570  0.4951
  800MOL0     O 5515  -1.757   9.218   3.482  0.4054 -0.5316 -1.0533
  800MOL0     C 5516  -1.498   9.304   3.429 -0.1329 -0.0295 -0.5922
  800MOL0     C 5517  -1.370   9.358   3.414 -0.1208  0.7069 -0.3990
  800MOL0     N 5518  -0.645   9.508   3.066 -0.2913 -0.3058  0.0139
  800MOL0     N 5519  -0.524   9.497   3.023  0.3822  0.2090 -0.3371
  800MOL0     C 5520   0.627   9.776   3.199  0.4256 -0.0861 -0.0574
  800MOL0     C 5521   0.752   9.833   3.225 -0.2849  0.2278  0.8910
  800MOL0     C 5522   1.209   9.815   3.339  0.1093  0.4808 -0.1625
  800MOL0     C 5523   1.221   9.947   3.374 -0.4987  0.0256  0.2729
  800MOL0     C 5524   1.338  10.013   3.391  0.0801 -0.2664 -0.2578
  800MOL0     C 5525   1.456   9.947   3.370  0.0686  1.1963 -0.5357
  800MOL0     O 5526   1.581  10.002   3.389  0.4674  0.1533 -0.9871
  800MOL0     C 5527   1.590  10.136   3.436 -0.4699  0.0284  0.0552
  800MOL0     C 5528   1.740  10.157   3.486  0.2719  0.4121 -0.5695
  800MOL0     C 5529   1.775  10.074   3.604  0.0263  0.3107  0.8471
  800MOL0     C 5530   1.927  10.107   3.636 -0.1018  0.2946  0.3756
  800MOL0     C 5531   2.011  10.023   3.552  0.5246 -0.6337 -0.0112
  800MOL0     C 5532   2.081   9.948   3.483 -0.8518  0.4642  0.1798
  800MOL0     C 5533   1.452   9.803   3.340  0.1548 -0.5824  0.3102
  800MOL0     C 5534   1.330   9.742   3.322  0.0260 -0.3137 -0.0742
  800MOL0     H 5535   0.886   9.620   3.440  0.8333  2.6806 -0.9888
  800MOL0     H 5536   0.675   9.504   3.414 -0.5847 -0.1087 -0.5724
  800MOL0     H 5537   0.431   9.464   3.357  0.2828 -0.7188  0.6573
  800MOL0     H 5538   0.562   9.401   3.237 -0.3995 -0.2897 -1.5606
  800MOL0     H 5539   0.368   9.276   3.201  0.2418  0.6054 -0.4391
  800MOL0     H 5540   0.380   9.378   3.062 -0.0671  1.5347  0.1939
  800MOL0     H 5541   0.205   9.540   3.199  0.7544 -0.7434  2.1271
  800MOL0     H 5542   0.169   9.389   3.271 -0.6552  0.5499 -0.1618
  800MOL0     H 5543   0.161   9.434   2.975 -2.0623  1.5677  0.3646
  800MOL0     H 5544   0.144   9.272   3.051  4.2827  0.4516 -2.0080
  800MOL0     H 5545  -0.039   9.514   3.102  0.3094  0.8128  2.8974
  800MOL0     H 5546  -0.038   9.379   3.205 -0.3066 -0.5177 -0.9402
  800MOL0     H 5547  -0.076   9.214   3.025  0.8117 -0.4613  2.4744
  800MOL0     H 5548  -0.091   9.349   2.915  1.7847 -1.3070  0.2795
  800MOL0     H 5549  -0.313   9.310   2.957  3.0197 -1.5618 -1.2926
  800MOL0     H 5550  -0.297   9.253   3.122 -0.7302 -2.1215 -2.3522
  800MOL0     H 5551  -0.264   9.555   3.060 -1.1148  0.6924  1.2603
  800MOL0     H 5552  -0.252   9.485   3.214 -1.4153  0.3976  0.5856
  800MOL0     H 5553  -0.475   9.508   3.346 -2.0938  4.9958  1.4596
  800MOL0     H 5554  -0.778   9.687   3.257 -2.0548  0.5686  2.1980
  800MOL0     H 5555  -0.713   9.582   3.388  0.1287  1.7115  0.0173
  800MOL0     H 5556  -0.873   9.396   3.298 -0.1573  0.3850 -0.2125
  800MOL0     H 5557  -0.919   9.509   3.171  2.1450  1.2749 -0.6664
  800MOL0     H 5558  -0.959   9.613   3.447 -1.9723  2.6518  0.1907
  800MOL0     H 5559  -1.033   9.657   3.302 -2.8688 -0.2152  0.6581
  800MOL0     H 5560  -1.119   9.454   3.489  0.0963  2.1992  0.1945
  800MOL0     H 5561  -1.096   9.405   3.311  4.1362  1.2927 -0.7480
  800MOL0     H 5562  -1.467   9.676   3.366 -1.2506  0.1406 -0.2178
  800MOL0     H 5563  -1.691   9.588   3.431  0.4916  1.5256  0.2086
  800MOL0     H 5564  -1.975   9.171   3.469  0.6808 -0.3173 -1.2931
  800MOL0     H 5565  -2.201   9.131   3.459  0.9869  0.1077 -1.2307
  800MOL0     H 5566  -2.432   9.115   3.473  1.7693  0.3475 -1.2139
  800MOL0     H 5567  -2.432   9.196   3.323 -1.1835 -3.0479 -0.1589
  800MOL0     H 5568  -2.634   9.308   3.391 -1.4905  1.2948  3.0331
  800MOL0     H 5569  -2.636   9.243   3.555 -0.1147 -0.7687 -0.0906
  800MOL0     H 5570  -2.645   9.013   3.452  0.6469  0.7620  1.1640
  800MOL0     H 5571  -2.673   9.088   3.297  1.3589  2.3893 -1.4044
  800MOL0     H 5572  -2.849   9.148   3.546 -1.4290  0.9813  0.2922
  800MOL0     H 5573  -2.869   9.230   3.398 -1.6507 -0.3173  1.9068
  800MOL0     H 5574  -2.914   8.968   3.296 -1.0050 -1.1953  1.2432
  800MOL0     H 5575  -3.024   9.098   3.338 -0.4681  1.7136  0.2918
  800MOL0     H 5576  -3.072   9.009   3.540 -0.2165  0.1528 -0.7096
  800MOL0     H 5577  -2.923   8.917   3.558 -0.1926  0.1312  0.7838
  800MOL0     H 5578  -3.012   8.795   3.337 -1.3419  0.0961 -0.2937
  800MOL0     H 5579  -3.079   8.741   3.494 -1.4847  1.0204  1.6405
  800MOL0     H 5580  -3.258   8.762   3.337  3.0382 -0.4971 -2.7282
  800MOL0     H 5581  -3.215   8.909   3.273  0.5756 -0.9899 -0.0832
  800MOL0     H 5582  -2.284   9.544   3.505 -1.1253 -0.5414  1.1159
  800MOL0     H 5583  -2.034   9.591   3.507 -0.0565 -0.5013  0.3761
  800MOL0     H 5584  -1.520   9.198   3.430 -2.4214  0.3810  1.3389
  800MOL0     H 5585  -1.286   9.291   3.402 -2.8001 -2.9231 -0.7778
  800MOL0     H 5586   0.560   9.815   3.123  1.4702 -2.5147 -2.3589
  800MOL0     H 5587   0.784   9.915   3.163 -4.1260  0.3000 -1.2891
  800MOL0     H 5588   1.135  10.000   3.414  0.3261 -0.0232  2.2004
  800MOL0     H 5589   1.336  10.114   3.431 -1.7394 -0.2938 -0.2007
  800MOL0     H 5590   1.526  10.156   3.522 -2.3507 -0.0369 -1.2763
  800MOL0     H 5591   1.567  10.210   3.360 -3.9864 -2.2132 -1.3328
  800MOL0     H 5592   1.808  10.138   3.403 -0.1091 -0.2270 -0.7402
  800MOL0     H 5593   1.755  10.262   3.512  1.0322  0.6054 -1.7220
  800MOL0     H 5594   1.769   9.968   3.575 -0.0475  0.5012  0.1447
  800MOL0     H 5595   1.715  10.089   3.694 -2.0683 -0.9292 -0.2761
  800MOL0     H 5596   1.950  10.213   3.630  2.0400 -0.1703 -0.7704
  800MOL0     H 5597   1.956  10.079   3.737  0.7266 -0.0456  0.0575
  800MOL0     H 5598   2.137   9.885   3.417  1.6016  1.6581  1.0224
  800MOL0     H 5599   1.541   9.744   3.326 -0.8846 -1.5813 -3.1873
  800MOL0     H 5600   1.330   9.636   3.298 -2.6089 -0.4604  0.3229
  801MOL0     O 5601   2.529  10.110   5.921 -0.4370  0.0104 -0.5006
  801MOL0     C 5602   2.607  10.163   5.997 -0.3591 -0.3644 -0.6319
  801MOL0     O 5603   2.571  10.259   6.098 -0.1484 -0.3840 -0.1269
  801MOL0     C 5604   2.447  10.304   6.097  0.2923  0.1350  0.5785
  801MOL0     C 5605   2.433  10.443   6.088 -0.2964  0.3023  0.3059
  801MOL0     C 5606   2.308  10.492   6.094  0.3896 -0.2268  0.3026
  801MOL0     C 5607   2.192  10.419   6.119  0.5561  0.3040  0.8166
  801MOL0     O 5608   2.071  10.469   6.151 -0.2097 -0.2445  0.3774
  801MOL0     C 5609   2.041  10.608   6.150  0.6752  0.1039 -0.3631
  801MOL0     C 5610   1.889  10.630   6.163 -0.7510  0.5691 -0.8103
  801MOL0     C 5611   1.833  10.585   6.299  0.5013 -0.3667 -0.7133
  801MOL0     C 5612   1.673  10.593   6.296  0.3379  0.1570  0.2026
  801MOL0     C 5613   1.602  10.590   6.432 -0.6887  0.2713  0.5032
  801MOL0     C 5614   1.566  10.443   6.470  0.3038  0.6792 -0.6071
  801MOL0     C 5615   1.488  10.367   6.359 -0.0646 -0.2248  0.7779
  801MOL0     C 5616   1.351  10.428   6.322 -0.7347  0.2627  0.5724
  801MOL0     N 5617   1.261  10.403   6.436  0.7782  0.4476 -1.1443
  801MOL0     C 5618   1.189  10.290   6.469 -0.6166 -0.0678 -0.0824
  801MOL0     C 5619   1.134  10.312   6.591  0.6346 -0.0712  0.0983
  801MOL0     C 5620   1.047  10.216   6.652  0.5657 -0.6474 -0.2888
  801MOL0     C 5621   1.024  10.231   6.800 -0.0643 -0.3167  0.4753
  801MOL0     C 5622   0.890  10.181   6.843 -0.3443 -0.2569 -0.9665
  801MOL0     C 5623   0.872  10.192   6.993  0.5330  0.2080 -0.6879
  801MOL0     O 5624   0.746  10.127   7.028 -0.3042  0.0629  0.0237
  801MOL0     C 5625   0.623  10.185   7.011  0.7662  0.0489  0.4755
  801MOL0     C 5626   0.609  10.324   6.982 -0.0768 -1.3106  0.1451
  801MOL0     C 5627   0.481  10.378   6.983 -0.6124 -0.0048 -0.3577
  801MOL0     C 5628   0.361  10.301   7.005  0.3290  1.1622  0.2829
  801MOL0     C 5629   0.227  10.362   7.007 -0.4517  0.0098 -0.2323
  801MOL0     O 5630   0.132  10.301   7.062  1.2774  0.2777 -0.3826
  801MOL0     C 5631  -0.004  10.336   7.067  0.1272 -0.8652 -0.6459
  801MOL0     C 5632  -0.066  10.453   7.011 -0.5701  0.0884 -0.6333
  801MOL0     C 5633  -0.208  10.465   7.021 -0.0273  0.0204  0.0418
  801MOL0     C 5634  -0.286  10.367   7.094  0.4078 -0.1041  0.1716
  801MOL0     O 5635  -0.417  10.388   7.112  0.2785 -0.0156 -0.1734
  801MOL0     C 5636  -0.483  10.508   7.077  0.7353 -0.4593  0.1949
  801MOL0     C 5637  -0.626  10.515   7.140  0.4888  0.1652 -0.6401
  801MOL0     C 5638  -0.683  10.654   7.096 -0.4643 -0.2750  0.1214
  801MOL0     C 5639  -0.831  10.676   7.119  0.1256 -0.6553  0.3868
  801MOL0     C 5640  -0.910  10.572   7.038 -0.8427  0.1172  0.2015
  801MOL0     C 5641  -1.063  10.599   7.041 -0.7460  0.1459 -0.2204
  801MOL0     C 5642  -1.124  10.478   6.973  0.2314  0.0166  0.4543
  801MOL0     C 5643  -1.268  10.507   6.945  0.0294 -0.2306 -0.3019
  801MOL0    Cl 5644  -1.357  10.591   7.075 -0.6200  0.2113  0.7071
  801MOL0     C 5645  -0.220  10.265   7.165 -0.3580 -0.1303  0.1746
  801MOL0     C 5646  -0.076  10.250   7.148 -0.5418  0.0746  0.0892
  801MOL0     O 5647   0.219  10.460   6.937 -0.0677  0.5346 -0.0949
  801MOL0     C 5648   0.387  10.166   7.037  1.4796 -0.7630 -0.7007
  801MOL0     C 5649   0.506  10.107   7.038 -0.2702  0.0824  0.8701
  801MOL0     N 5650   1.160  10.440   6.628  0.8468 -0.1193  0.3101
  801MOL0     N 5651   1.223  10.494   6.529 -0.1598 -0.0121  0.1070
  801MOL0     C 5652   2.214  10.284   6.123  1.6946  0.3484  0.0090
  801MOL0     C 5653   2.336  10.222   6.110  0.0034 -0.8765 -0.4217
  801MOL0     C 5654   2.756  10.128   5.996  0.1388  0.6753  0.3837
  801MOL0     C 5655   2.850  10.206   6.070 -0.3733  1.8260 -0.0559
  801MOL0     C 5656   2.988  10.187   6.057  0.3461 -0.0292  0.0094
  801MOL0     C 5657   3.042  10.095   5.972 -1.0925 -0.1137  0.0925
  801MOL0     O 5658   3.180  10.079   5.960 -0.9790 -0.3508  0.1888
  801MOL0     C 5659   3.225  10.023   5.835 -0.1374 -0.0047  0.4562
  801MOL0     C 5660   3.193  10.132   5.722 -0.1884 -0.2446 -0.1425
  801MOL0     C 5661   3.279  10.256   5.733  0.4544  0.3336  0.3179
  801MOL0     C 5662   3.238  10.357   5.634  0.1046 -0.6794 -0.8273
  801MOL0     C 5663   3.347  10.450   5.597  0.2604 -0.5641 -0.4607
  801MOL0     C 5664   3.436  10.527   5.560 -0.6701 -0.2072 -1.3950
  801MOL0     C 5665   2.944  10.016   5.901  0.2597 -0.2874  0.5305
  801MOL0     C 5666   2.806  10.035   5.894  0.0320 -0.4566  0.9950
  801MOL0     H 5667   2.521  10.503   6.110  0.1224 -0.7567  1.6467
  801MOL0     H 5668   2.307  10.600   6.089 -0.9076 -0.2637 -0.5917
  801MOL0     H 5669   2.075  10.650   6.055 -0.6948  0.2905 -0.7908
  801MOL0     H 5670   2.086  10.659   6.235 -0.5393 -0.6333  0.7639
  801MOL0     H 5671   1.842  10.576   6.080  0.9466  2.1630 -2.9101
  801MOL0     H 5672   1.859  10.733   6.139 -0.3780  0.0723 -3.8811
  801MOL0     H 5673   1.877  10.633   6.386  0.8357  0.2536 -1.2135
  801MOL0     H 5674   1.865  10.481   6.313  3.3522  0.5927  0.5777
  801MOL0     H 5675   1.635  10.686   6.252  0.8280  0.2832  0.0383
  801MOL0     H 5676   1.642  10.511   6.231  1.8623 -0.3116  0.0217
  801MOL0     H 5677   1.513  10.651   6.446  0.3194  1.2927  3.3324
  801MOL0     H 5678   1.671  10.637   6.503  0.7211 -1.5069  0.4256
  801MOL0     H 5679   1.512  10.445   6.565  3.0263 -0.6084  1.0902
  801MOL0     H 5680   1.656  10.385   6.491  1.0243  2.0449  0.2659
  801MOL0     H 5681   1.538  10.362   6.262 -1.7235 -2.9537 -0.0519
  801MOL0     H 5682   1.466  10.263   6.386  0.9487 -1.5257 -2.8403
  801MOL0     H 5683   1.323  10.383   6.227 -1.1266  1.6369  0.0166
  801MOL0     H 5684   1.360  10.533   6.293  2.0520 -0.1230 -0.2133
  801MOL0     H 5685   1.190  10.210   6.396 -0.9486 -1.3558  1.2598
  801MOL0     H 5686   1.077  10.118   6.614 -1.4571 -1.6523  0.5877
  801MOL0     H 5687   0.953  10.245   6.603  0.8721  3.0534  0.9963
  801MOL0     H 5688   1.041  10.335   6.832  1.2045 -0.9344  1.9474
  801MOL0     H 5689   1.099  10.179   6.860 -0.6988  0.3593  1.9209
  801MOL0     H 5690   0.807  10.227   6.790  0.5897  1.6496 -0.8469
  801MOL0     H 5691   0.888  10.072   6.834  1.1524 -0.3103 -0.9644
  801MOL0     H 5692   0.879  10.296   7.028  0.7209 -0.2616  0.7088
  801MOL0     H 5693   0.949  10.132   7.041 -0.0099  1.6948  2.2836
  801MOL0     H 5694   0.689  10.397   6.969 -2.1440  1.0046 -0.3755
  801MOL0     H 5695   0.472  10.486   6.983  0.3648  0.1564  2.6576
  801MOL0     H 5696   0.006  10.519   6.963  1.2796 -0.8100  0.7843
  801MOL0     H 5697  -0.246  10.556   6.975  2.6512  0.1742 -2.0751
  801MOL0     H 5698  -0.484  10.516   6.968  1.8226 -0.2731  0.1873
  801MOL0     H 5699  -0.419  10.584   7.124  0.5320  0.6296 -1.2327
  801MOL0     H 5700  -0.625  10.505   7.249 -2.3665 -0.1367 -0.5784
  801MOL0     H 5701  -0.677  10.425   7.102  0.6462 -0.0538 -0.3397
  801MOL0     H 5702  -0.674  10.666   6.988 -1.6345 -2.9803 -0.3717
  801MOL0     H 5703  -0.623  10.737   7.132 -0.1398 -0.6125  0.3695
  801MOL0     H 5704  -0.865  10.656   7.221 -2.3161 -1.5975 -0.5289
  801MOL0     H 5705  -0.862  10.778   7.097  0.6384 -0.3210  1.2077
  801MOL0     H 5706  -0.894  10.475   7.086 -1.2782  0.0497  0.2167
  801MOL0     H 5707  -0.884  10.583   6.932 -4.2746 -0.8525 -0.8724
  801MOL0     H 5708  -1.075  10.695   6.988 -0.2057  1.0085  1.1607
  801MOL0     H 5709  -1.091  10.611   7.146 -0.3065  1.9287 -0.2620
  801MOL0     H 5710  -1.076  10.461   6.876  1.5708  2.9285  0.5185
  801MOL0     H 5711  -1.124  10.389   7.037 -2.8068  0.9824  2.0028
  801MOL0     H 5712  -1.323  10.414   6.931 -1.6767  0.5116  1.1084
  801MOL0     H 5713  -1.278  10.568   6.855  2.5861 -1.0698 -1.2381
  801MOL0     H 5714  -0.279  10.191   7.218 -2.1931  2.5997  2.2021
  801MOL0     H 5715  -0.028  10.161   7.188  0.4091  1.0066  1.0915
  801MOL0     H 5716   0.302  10.104   7.062  0.0653  1.2739 -0.2218
  801MOL0     H 5717   0.517  10.003   7.067  3.7764  0.1318  0.0636
  801MOL0     H 5718   2.124  10.226   6.141  2.1729 -0.6843 -0.7999
  801MOL0     H 5719   2.339  10.114   6.113 -3.1359 -1.0634 -0.1704
  801MOL0     H 5720   2.808  10.271   6.146 -1.5813  1.1719 -0.1461
  801MOL0     H 5721   3.049  10.258   6.113  0.1234  1.5010 -1.5867
  801MOL0     H 5722   3.192   9.923   5.805  4.7613 -2.6699  2.8765
  801MOL0     H 5723   3.332  10.014   5.851 -0.3589 -0.2101  1.9106
  801MOL0     H 5724   3.226  10.084   5.629  0.2346  0.6649 -0.4698
  801MOL0     H 5725   3.086  10.152   5.714 -0.0386  0.2507 -1.0530
  801MOL0     H 5726   3.383  10.229   5.709  1.3812  2.6445  1.4092
  801MOL0     H 5727   3.280  10.297   5.835  0.6510 -0.7321  0.7717
  801MOL0     H 5728   3.204  10.298   5.548 -2.3302 -1.4195  0.5367
  801MOL0     H 5729   3.147  10.403   5.674 -1.5782 -0.9991 -3.9501
  801MOL0     H 5730   3.502  10.607   5.537 -0.8945  0.9291  1.4282
  801MOL0     H 5731   2.975   9.940   5.829 -0.8012 -1.9737  1.7604
  801MOL0     H 5732   2.739   9.983   5.827  0.6138 -0.5365  0.4696
  802MOL0     O 5733   8.773   7.253   2.688 -0.1641 -0.0335  1.2062
  802MOL0     C 5734   8.797   7.134   2.655 -0.2955  0.0918 -0.4542
  802MOL0     O 5735   8.708   7.034   2.654  0.0854  0.4056 -0.4517
  802MOL0     C 5736   8.574   7.054   2.690 -0.1857  0.2882 -0.4763
  802MOL0     C 5737   8.507   6.964   2.781  0.3940 -0.1825  0.7133
  802MOL0     C 5738   8.365   6.985   2.793  0.5338  0.1354  0.1630
  802MOL0     C 5739   8.301   7.087   2.721  0.7954  0.2101  0.2703
  802MOL0     O 5740   8.161   7.089   2.718 -0.8054  0.7137 -0.2064
  802MOL0     C 5741   8.088   7.212   2.691  0.0786 -0.4322 -0.3403
  802MOL0     C 5742   7.937   7.183   2.715 -0.1642  0.5802 -0.4267
  802MOL0     C 5743   7.858   7.285   2.627  1.1398 -0.5917 -0.4822
  802MOL0     C 5744   7.709   7.261   2.630  0.0381 -0.7000  0.3458
  802MOL0     C 5745   7.649   7.313   2.757 -0.1803  0.0929 -1.1301
  802MOL0     C 5746   7.507   7.274   2.792  0.4374  0.4877  0.6747
  802MOL0     C 5747   7.405   7.318   2.685 -0.1993 -0.2918  0.5104
  802MOL0     C 5748   7.269   7.284   2.740  1.0291  0.0368  0.1760
  802MOL0     N 5749   7.167   7.298   2.631  0.0158 -0.7369  0.7287
  802MOL0     C 5750   7.140   7.405   2.555 -0.2488 -0.2972  1.1003
  802MOL0     C 5751   7.034   7.365   2.477  0.5904  0.6615 -0.1847
  802MOL0     C 5752   6.952   7.458   2.387 -0.6498  0.3906 -0.5079
  802MOL0     C 5753   6.802   7.446   2.383  0.4802 -0.4752 -0.1549
  802MOL0     C 5754   6.726   7.495   2.508  0.1392 -0.3706 -0.2154
  802MOL0     C 5755   6.585   7.427   2.525 -0.4952 -0.7408  1.0293
  802MOL0     O 5756   6.536   7.471   2.649 -0.2059  0.7233 -0.0112
  802MOL0     C 5757   6.405   7.430   2.678  0.0230 -0.1244 -0.5644
  802MOL0     C 5758   6.355   7.465   2.807  0.3482  0.0716 -0.0099
  802MOL0     C 5759   6.231   7.403   2.852  0.7508  0.7863 -0.0021
  802MOL0     C 5760   6.153   7.331   2.765  0.0432 -0.3505 -0.2081
  802MOL0     C 5761   6.012   7.291   2.802 -0.3308  0.1319  0.5814
  802MOL0     O 5762   5.967   7.336   2.927 -0.0835  0.9032  0.4325
  802MOL0     C 5763   5.830   7.350   2.951  0.4140 -0.5354 -0.3612
  802MOL0     C 5764   5.728   7.252   2.933 -0.0420 -0.3156  0.1103
  802MOL0     C 5765   5.595   7.278   2.960  0.6693  0.4828 -0.3881
  802MOL0     C 5766   5.547   7.409   2.989 -0.9831 -0.0074  0.6200
  802MOL0     O 5767   5.428   7.442   3.011  0.1122 -0.3773  0.0560
  802MOL0     C 5768   5.326   7.342   3.007  0.4134 -0.2896 -0.4023
  802MOL0     C 5769   5.199   7.400   3.062  0.3519 -0.0705  0.4173
  802MOL0     C 5770   5.083   7.311   3.033  0.2638  1.1804  0.9644
  802MOL0     C 5771   4.955   7.339   3.111 -0.3272 -0.3709  0.2536
  802MOL0     C 5772   4.836   7.251   3.078  0.6066 -0.0154 -0.3124
  802MOL0     C 5773   4.711   7.288   3.154 -0.3079  0.3613 -0.3014
  802MOL0     C 5774   4.718   7.235   3.299  1.1210  0.2602  0.4494
  802MOL0     C 5775   4.709   7.352   3.397 -0.2641  0.5317  0.6470
  802MOL0    Cl 5776   4.693   7.288   3.570 -0.2845  0.0847 -0.4450
  802MOL0     C 5777   5.648   7.506   3.003 -0.2128 -0.0969 -0.3579
  802MOL0     C 5778   5.779   7.477   2.984 -0.5633 -0.3545  0.0178
  802MOL0     O 5779   5.945   7.221   2.727 -0.1601 -0.6464 -0.1814
  802MOL0     C 5780   6.199   7.300   2.634 -0.2446  0.0486  0.5280
  802MOL0     C 5781   6.329   7.338   2.595 -0.3512  0.9129  0.0903
  802MOL0     N 5782   7.003   7.232   2.503  0.1398  0.6481  0.1198
  802MOL0     N 5783   7.091   7.195   2.582  0.0567  0.2551  0.8128
  802MOL0     C 5784   8.371   7.174   2.641 -0.1827  0.0239  0.0637
  802MOL0     C 5785   8.506   7.161   2.620  0.5981  0.4286  0.3371
  802MOL0     C 5786   8.935   7.108   2.617 -0.1986 -0.9759  0.1935
  802MOL0     C 5787   8.991   6.977   2.631 -0.4014 -0.1118 -0.1920
  802MOL0     C 5788   9.125   6.952   2.591  1.5590  0.2382  0.1303
  802MOL0     C 5789   9.206   7.059   2.547  0.8104  0.0681 -0.6654
  802MOL0     O 5790   9.340   7.031   2.524  0.4801 -0.0093  0.2037
  802MOL0     C 5791   9.424   7.137   2.487 -0.3199 -0.2676 -0.2776
  802MOL0     C 5792   9.561   7.081   2.452 -0.0255 -0.1577 -0.7106
  802MOL0     C 5793   9.638   7.050   2.584  0.0173 -0.5123 -0.2245
  802MOL0     C 5794   9.769   6.985   2.553 -0.3019  0.1815 -0.1429
  802MOL0     C 5795   9.879   7.073   2.508 -1.3678 -0.5647 -0.5824
  802MOL0     C 5796   9.974   7.128   2.459 -0.8892  0.5725  0.9244
  802MOL0     C 5797   9.150   7.186   2.537 -0.1031 -0.1333  0.5696
  802MOL0     C 5798   9.020   7.211   2.569  0.1761 -0.0506 -0.0859
  802MOL0     H 5799   8.556   6.884   2.837  0.4221 -1.2654 -0.8155
  802MOL0     H 5800   8.308   6.917   2.854  1.6626  0.0009  1.0981
  802MOL0     H 5801   8.097   7.231   2.584  3.1513  0.1155 -0.0746
  802MOL0     H 5802   8.120   7.293   2.757 -1.0695 -0.3517  0.1381
  802MOL0     H 5803   7.914   7.186   2.822  3.6249  0.5578  0.5281
  802MOL0     H 5804   7.922   7.081   2.679  1.4553  0.4154 -0.7196
  802MOL0     H 5805   7.897   7.268   2.526  2.3741  1.5226 -0.4347
  802MOL0     H 5806   7.874   7.391   2.649 -0.4216 -0.6888  1.3562
  802MOL0     H 5807   7.661   7.308   2.544 -1.9531 -2.3752  0.4582
  802MOL0     H 5808   7.701   7.154   2.608 -0.5905 -0.5061 -0.4108
  802MOL0     H 5809   7.653   7.422   2.753  4.2339  0.1732 -0.0502
  802MOL0     H 5810   7.704   7.274   2.843  0.2262 -1.9410 -2.2459
  802MOL0     H 5811   7.471   7.309   2.889 -1.9647 -0.5524  0.2288
  802MOL0     H 5812   7.509   7.164   2.795  1.2978  0.4715 -0.0254
  802MOL0     H 5813   7.411   7.426   2.667 -0.7750 -0.1936  0.8566
  802MOL0     H 5814   7.409   7.263   2.591 -2.3075  0.4872 -0.0911
  802MOL0     H 5815   7.242   7.354   2.820 -2.0898 -2.3212  1.3807
  802MOL0     H 5816   7.273   7.188   2.793 -0.3600  0.9437  2.0692
  802MOL0     H 5817   7.177   7.507   2.561 -0.3542 -0.2693  1.2842
  802MOL0     H 5818   6.986   7.432   2.287  0.2431 -0.4497  0.0010
  802MOL0     H 5819   6.969   7.559   2.426 -1.8210  0.3937  0.0563
  802MOL0     H 5820   6.792   7.338   2.369  2.7926 -0.6041 -1.4277
  802MOL0     H 5821   6.767   7.481   2.285 -2.2385 -1.9406  0.2201
  802MOL0     H 5822   6.787   7.477   2.597  0.0702  1.0103  0.1338
  802MOL0     H 5823   6.717   7.604   2.507 -1.6746 -0.4676  0.8366
  802MOL0     H 5824   6.591   7.318   2.518 -1.7686 -0.7406 -3.3873
  802MOL0     H 5825   6.517   7.461   2.446 -2.7347 -2.0455  2.3043
  802MOL0     H 5826   6.416   7.527   2.871  0.1855  2.6463 -2.1686
  802MOL0     H 5827   6.192   7.425   2.951 -0.4526 -0.5607 -0.1522
  802MOL0     H 5828   5.757   7.149   2.916 -0.0964 -0.1644 -0.9408
  802MOL0     H 5829   5.520   7.200   2.954 -0.4412  1.6346 -4.8054
  802MOL0     H 5830   5.341   7.262   3.081  1.1973 -0.2405 -0.5095
  802MOL0     H 5831   5.315   7.307   2.904 -0.4519  2.1568 -1.2118
  802MOL0     H 5832   5.181   7.500   3.020 -1.2998 -1.4588 -2.5582
  802MOL0     H 5833   5.219   7.402   3.169 -1.4715 -1.4290  0.8370
  802MOL0     H 5834   5.105   7.204   3.040 -1.4450  0.5765 -1.4966
  802MOL0     H 5835   5.076   7.339   2.928  2.1236 -2.0150 -0.1545
  802MOL0     H 5836   4.983   7.327   3.216  1.1413  1.9278  0.1876
  802MOL0     H 5837   4.924   7.444   3.108  1.3813  0.1597  0.1902
  802MOL0     H 5838   4.851   7.146   3.102 -0.2688  0.0422  0.5262
  802MOL0     H 5839   4.803   7.244   2.973  1.3648 -2.2504 -0.4473
  802MOL0     H 5840   4.637   7.229   3.098  1.9282 -0.2380 -2.8566
  802MOL0     H 5841   4.689   7.395   3.146  1.2483  0.7319  0.1440
  802MOL0     H 5842   4.637   7.169   3.334  1.4097  0.2594  1.1459
  802MOL0     H 5843   4.806   7.171   3.310 -0.5010 -2.1859 -0.0581
  802MOL0     H 5844   4.628   7.421   3.375  0.3364  1.9449  2.5849
  802MOL0     H 5845   4.792   7.423   3.400  0.6846 -0.5263  3.7039
  802MOL0     H 5846   5.612   7.605   3.026  4.5578  2.1479 -1.4301
  802MOL0     H 5847   5.853   7.555   3.002 -0.1299 -0.6547 -0.4256
  802MOL0     H 5848   6.135   7.237   2.573  0.8197 -0.2434 -0.3038
  802MOL0     H 5849   6.369   7.282   2.511 -0.5285 -3.2109  2.4480
  802MOL0     H 5850   8.334   7.264   2.593 -0.5953 -0.5787 -0.7615
  802MOL0     H 5851   8.554   7.221   2.543  1.0893 -0.3331  0.0332
  802MOL0     H 5852   8.933   6.896   2.673 -1.7435  0.4443 -0.9003
  802MOL0     H 5853   9.164   6.854   2.616  0.7581 -0.7181 -2.1319
  802MOL0     H 5854   9.427   7.207   2.571  0.2031 -1.1809  0.4851
  802MOL0     H 5855   9.392   7.190   2.396  0.1555  0.3872 -0.0660
  802MOL0     H 5856   9.547   6.984   2.403  0.5082 -0.4653 -0.2729
  802MOL0     H 5857   9.619   7.145   2.386  1.8326 -1.3066 -0.2738
  802MOL0     H 5858   9.583   6.971   2.636 -0.7554  1.1632  1.6335
  802MOL0     H 5859   9.649   7.133   2.654  1.3651  0.9902 -2.1101
  802MOL0     H 5860   9.798   6.940   2.648 -2.8674 -2.8731 -0.6435
  802MOL0     H 5861   9.761   6.895   2.491  3.4822 -0.1462 -0.4266
  802MOL0     H 5862  10.058   7.172   2.409 -1.5454 -1.1444 -1.9097
  802MOL0     H 5863   9.213   7.268   2.504 -0.4690 -0.3587 -0.7608
  802MOL0     H 5864   8.972   7.307   2.549 -1.2736 -0.0315  2.9700
  803MOL0     O 5865   8.484   2.291   9.794 -0.3897  0.6500  0.6856
  803MOL0     C 5866   8.504   2.306   9.673 -0.1108  0.2845  0.4367
  803MOL0     O 5867   8.407   2.351   9.583  0.0125  0.5545  0.2054
  803MOL0     C 5868   8.272   2.356   9.618 -0.3505 -0.0257 -0.1633
  803MOL0     C 5869   8.180   2.251   9.652 -0.2315 -0.2109 -0.1265
  803MOL0     C 5870   8.053   2.280   9.702  0.1289 -0.0474  0.3529
  803MOL0     C 5871   8.012   2.417   9.716 -0.0960  0.3435  0.3898
  803MOL0     O 5872   7.894   2.464   9.771  0.0824 -0.1312 -0.3257
  803MOL0     C 5873   7.784   2.369   9.764  0.1689  0.0653 -0.6393
  803MOL0     C 5874   7.653   2.434   9.814  0.1086  0.0410  0.1449
  803MOL0     C 5875   7.645   2.425   9.967 -0.3164  0.2213  0.0417
  803MOL0     C 5876   7.516   2.495  10.016  0.7550 -0.3952  0.4789
  803MOL0     C 5877   7.514   2.539  10.161 -0.8156 -0.3876 -0.8019
  803MOL0     C 5878   7.547   2.439  10.272 -0.8625 -0.1904 -0.2175
  803MOL0     C 5879   7.448   2.317  10.265 -0.1629  0.1984 -0.1765
  803MOL0     C 5880   7.329   2.323  10.359  0.4157 -0.0294  0.4099
  803MOL0     N 5881   7.272   2.188  10.368  0.0739 -0.5976 -0.7690
  803MOL0     C 5882   7.175   2.127  10.279  0.1967 -0.6367  0.1829
  803MOL0     C 5883   7.156   2.008  10.332  0.1460  0.1283  0.6882
  803MOL0     C 5884   7.065   1.904  10.279  0.1029 -0.4717  0.4406
  803MOL0     C 5885   6.918   1.931  10.272 -0.2905 -0.3655 -0.2903
  803MOL0     C 5886   6.859   1.963  10.414  0.4269  0.4629 -0.0083
  803MOL0     C 5887   6.711   1.989  10.403 -0.0978  0.8672  0.3562
  803MOL0     O 5888   6.633   1.885  10.338 -0.3113 -0.3425  0.7816
  803MOL0     C 5889   6.495   1.906  10.326 -0.0719  0.0836  0.5610
  803MOL0     C 5890   6.432   2.021  10.374  1.0839 -0.9459  0.5555
  803MOL0     C 5891   6.289   2.036  10.359 -0.4668  0.0163 -0.0617
  803MOL0     C 5892   6.215   1.939  10.291  0.3876  0.2893  0.7247
  803MOL0     C 5893   6.068   1.957  10.261 -0.4055 -0.4602  0.5222
  803MOL0     O 5894   6.015   1.875  10.167  0.2059  0.2536 -0.1816
  803MOL0     C 5895   5.881   1.899  10.145 -0.2842 -0.2700 -0.2947
  803MOL0     C 5896   5.780   1.871  10.236  0.0670  0.4915  0.6824
  803MOL0     C 5897   5.644   1.899  10.201 -0.0333  0.1055 -0.1916
  803MOL0     C 5898   5.611   1.954  10.082 -0.2252  0.0174 -0.4175
  803MOL0     O 5899   5.484   2.000  10.057 -0.2032  0.0149  0.4250
  803MOL0     C 5900   5.390   2.001  10.166  0.0547  0.2004  0.2957
  803MOL0     C 5901   5.271   2.087  10.122  0.9102  0.1119  0.6734
  803MOL0     C 5902   5.187   2.008  10.014 -0.6331 -0.2526 -0.2315
  803MOL0     C 5903   5.119   1.877  10.069 -0.3409  0.6533 -0.0224
  803MOL0     C 5904   5.000   1.914  10.158 -0.6595 -0.2262  0.1526
  803MOL0     C 5905   4.904   1.810  10.177  0.6140 -0.4173  0.0313
  803MOL0     C 5906   4.791   1.841  10.280  0.5297  0.1608 -0.0324
  803MOL0     C 5907   4.694   1.728  10.276  0.4115 -0.2622 -0.1813
  803MOL0    Cl 5908   4.582   1.742  10.416  0.1011  0.4305  0.1029
  803MOL0     C 5909   5.714   1.984   9.991  0.2342 -0.1018  0.1571
  803MOL0     C 5910   5.848   1.963  10.023  0.2365  0.6325 -0.2795
  803MOL0     O 5911   6.003   2.043  10.325  0.7764  0.7102 -1.1831
  803MOL0     C 5912   6.284   1.826  10.250 -0.3965  0.1551 -0.0988
  803MOL0     C 5913   6.414   1.808  10.262  0.1213  0.0407  0.2916
  803MOL0     N 5914   7.241   1.993  10.447  0.7149 -0.1732  0.4742
  803MOL0     N 5915   7.300   2.102  10.474 -0.7813  0.2856  0.7690
  803MOL0     C 5916   8.105   2.516   9.680  0.5649  0.2578  0.0109
  803MOL0     C 5917   8.235   2.486   9.630  0.4769  0.1054  0.5719
  803MOL0     C 5918   8.638   2.282   9.620 -0.0106 -0.4741 -0.5165
  803MOL0     C 5919   8.671   2.323   9.488 -0.0258 -0.3747 -0.5745
  803MOL0     C 5920   8.788   2.280   9.428  0.1844 -0.5264 -1.2785
  803MOL0     C 5921   8.880   2.200   9.491  0.8860  0.3578 -0.1268
  803MOL0     O 5922   8.980   2.149   9.411  0.2085  0.0384 -0.1585
  803MOL0     C 5923   9.047   2.030   9.461  0.1559 -0.2867  0.3555
  803MOL0     C 5924   9.145   1.981   9.351  0.3596  1.1675  0.0015
  803MOL0     C 5925   9.261   2.082   9.336 -0.2533  0.7221 -0.2462
  803MOL0     C 5926   9.384   2.020   9.267 -0.4297 -0.4083  0.3819
  803MOL0     C 5927   9.373   2.015   9.122  0.0727 -0.5986  0.1910
  803MOL0     C 5928   9.360   1.989   9.005  0.1830  0.5608 -0.2125
  803MOL0     C 5929   8.848   2.158   9.626  0.0837 -0.2165  0.0805
  803MOL0     C 5930   8.731   2.205   9.692  0.0250 -0.1235  0.3273
  803MOL0     H 5931   8.202   2.147   9.631 -0.3031 -0.1009 -0.7884
  803MOL0     H 5932   8.000   2.189   9.729 -0.2568 -0.8217 -2.6443
  803MOL0     H 5933   7.807   2.278   9.819 -2.7518  0.3376  1.2395
  803MOL0     H 5934   7.769   2.341   9.659 -2.8056  0.7063 -0.4737
  803MOL0     H 5935   7.572   2.373   9.773 -0.5365  1.8989 -1.4841
  803MOL0     H 5936   7.654   2.538   9.780  0.9294 -0.6851 -2.2956
  803MOL0     H 5937   7.732   2.481  10.004  0.7869 -0.1533 -1.8907
  803MOL0     H 5938   7.658   2.324  10.008  0.1885  0.5000  0.5975
  803MOL0     H 5939   7.502   2.590   9.963 -1.8198 -0.7577  0.4088
  803MOL0     H 5940   7.431   2.428  10.001  1.0664 -0.9862  1.2566
  803MOL0     H 5941   7.415   2.583  10.178 -2.0335 -2.1517 -2.7960
  803MOL0     H 5942   7.574   2.630  10.175 -2.3019  0.7459 -1.4171
  803MOL0     H 5943   7.529   2.487  10.369 -2.1322  0.1471 -0.6013
  803MOL0     H 5944   7.651   2.408  10.262 -0.4380  1.3127 -0.8468
  803MOL0     H 5945   7.424   2.295  10.161  1.1354  0.2607 -0.5087
  803MOL0     H 5946   7.512   2.232  10.291  3.3033  2.4644 -0.5467
  803MOL0     H 5947   7.256   2.398  10.327 -1.0470 -1.7747 -0.4993
  803MOL0     H 5948   7.361   2.335  10.463 -0.5419  0.1448  0.6963
  803MOL0     H 5949   7.153   2.160  10.178  1.2390 -0.4664  0.0006
  803MOL0     H 5950   7.079   1.806  10.324  1.1252 -0.7983 -0.5433
  803MOL0     H 5951   7.100   1.898  10.175 -0.3127 -1.4631  0.3461
  803MOL0     H 5952   6.862   1.851  10.224  0.4014 -0.8929 -0.2402
  803MOL0     H 5953   6.896   2.015  10.205 -2.2443 -0.3299  0.3455
  803MOL0     H 5954   6.874   1.883  10.487 -0.6218  0.6348  0.4164
  803MOL0     H 5955   6.900   2.057  10.453  0.3688  0.8703 -0.9210
  803MOL0     H 5956   6.701   2.084  10.350  2.6633  0.4837 -1.0562
  803MOL0     H 5957   6.671   2.000  10.504  0.7305  0.9296  0.6891
  803MOL0     H 5958   6.482   2.098  10.431  1.2009 -0.2980 -0.3997
  803MOL0     H 5959   6.236   2.127  10.387  1.1945  0.6174  1.3197
  803MOL0     H 5960   5.804   1.835  10.336  4.4874 -0.3126 -0.4860
  803MOL0     H 5961   5.576   1.889  10.285 -1.7354  4.8189 -0.7269
  803MOL0     H 5962   5.432   2.054  10.253  1.1067 -0.7511  0.3835
  803MOL0     H 5963   5.369   1.902  10.207 -0.0249  0.4579  0.8955
  803MOL0     H 5964   5.300   2.186  10.086  1.9206 -0.6535 -0.6969
  803MOL0     H 5965   5.209   2.105  10.211  1.3906  1.1698  0.8100
  803MOL0     H 5966   5.259   1.982   9.936 -0.4357 -1.6881  0.4023
  803MOL0     H 5967   5.116   2.075   9.964 -2.1261 -0.6165  1.3286
  803MOL0     H 5968   5.079   1.825   9.981 -0.4245  0.0596  0.3635
  803MOL0     H 5969   5.192   1.811  10.116  0.7464 -0.2431 -2.7946
  803MOL0     H 5970   4.950   2.001  10.115  0.8501  0.1770 -0.8834
  803MOL0     H 5971   5.032   1.952  10.256 -2.4856  1.3273  0.2114
  803MOL0     H 5972   4.952   1.726  10.228  0.6581  1.0441  2.5938
  803MOL0     H 5973   4.870   1.782  10.077  2.0705 -0.1093 -0.5734
  803MOL0     H 5974   4.835   1.857  10.379 -0.8398 -0.6416  0.7419
  803MOL0     H 5975   4.730   1.928  10.253 -1.2420 -0.9859  0.1537
  803MOL0     H 5976   4.753   1.637  10.289  0.0039 -0.5581 -0.3666
  803MOL0     H 5977   4.652   1.737  10.176  0.4552  2.1783 -0.0397
  803MOL0     H 5978   5.698   2.026   9.893  3.1635 -1.8708 -1.2083
  803MOL0     H 5979   5.928   1.981   9.952  2.1415 -2.1479  0.9727
  803MOL0     H 5980   6.231   1.751  10.193  0.2625  1.3901 -2.4742
  803MOL0     H 5981   6.457   1.727  10.205 -0.4970 -0.4111  0.4590
  803MOL0     H 5982   8.073   2.617   9.705  0.1768  0.2124 -0.3009
  803MOL0     H 5983   8.305   2.568   9.619  1.2442  0.2127  4.7665
  803MOL0     H 5984   8.599   2.380   9.431 -2.4250 -0.8315  1.8210
  803MOL0     H 5985   8.800   2.309   9.324 -0.9001  0.6865 -1.0888
  803MOL0     H 5986   8.973   1.951   9.475 -0.9686  0.5101 -0.8334
  803MOL0     H 5987   9.109   2.052   9.548  1.8202  0.0319 -0.8714
  803MOL0     H 5988   9.180   1.882   9.383 -1.2969 -0.0236 -1.6714
  803MOL0     H 5989   9.094   1.967   9.256 -2.0796 -1.8957  1.5779
  803MOL0     H 5990   9.279   2.115   9.438  2.4007 -2.7168  0.6097
  803MOL0     H 5991   9.234   2.165   9.270 -0.8842 -1.2826 -2.6651
  803MOL0     H 5992   9.474   2.077   9.292 -0.5267 -0.0454 -0.0808
  803MOL0     H 5993   9.413   1.922   9.307  0.4019 -1.0600 -1.6889
  803MOL0     H 5994   9.342   1.965   8.902 -0.0811 -1.8792  0.3419
  803MOL0     H 5995   8.916   2.094   9.680 -1.2703  0.1504  2.3654
  803MOL0     H 5996   8.711   2.166   9.791 -2.6466 -0.8513 -0.4087
  804MOL0     O 5997   9.665   5.281   1.329 -0.5345 -0.0054  0.2373
  804MOL0     C 5998   9.758   5.364   1.356  0.8529  0.2706 -0.5550
  804MOL0     O 5999   9.744   5.471   1.436  0.0057 -0.7132  0.5461
  804MOL0     C 6000   9.627   5.476   1.508  0.7583  0.1269 -0.3105
  804MOL0     C 6001   9.509   5.534   1.458 -0.4551 -0.1893  0.5223
  804MOL0     C 6002   9.388   5.544   1.537 -0.7634  0.1721 -1.7276
  804MOL0     C 6003   9.394   5.526   1.677  0.4071  0.7647  0.1313
  804MOL0     O 6004   9.277   5.551   1.745  0.1483  0.3560  0.1464
  804MOL0     C 6005   9.305   5.600   1.878  0.1415  0.3543 -0.1684
  804MOL0     C 6006   9.177   5.670   1.914  0.1393 -0.4071  0.5782
  804MOL0     C 6007   9.057   5.578   1.940 -0.2827  1.0579  0.6822
  804MOL0     C 6008   8.982   5.544   1.807  0.5127  0.0525 -0.8638
  804MOL0     C 6009   8.861   5.456   1.845  0.6445 -0.2171 -0.3761
  804MOL0     C 6010   8.785   5.403   1.723 -0.0387  0.6751  0.1372
  804MOL0     C 6011   8.663   5.313   1.771 -0.2312 -0.2975  0.2337
  804MOL0     C 6012   8.540   5.398   1.816 -0.3717 -0.3152  0.6257
  804MOL0     N 6013   8.473   5.473   1.705 -0.6118 -0.4716 -0.4298
  804MOL0     C 6014   8.417   5.411   1.591 -0.1305  0.4712  0.0986
  804MOL0     C 6015   8.329   5.501   1.550  0.8619 -0.0794  0.6420
  804MOL0     C 6016   8.231   5.462   1.441 -0.7809  0.2712  0.8159
  804MOL0     C 6017   8.147   5.343   1.484 -0.2925  0.8731 -0.4354
  804MOL0     C 6018   8.017   5.332   1.406 -0.5058 -0.2634  0.1363
  804MOL0     C 6019   7.945   5.211   1.460 -0.4207 -0.8764  0.2091
  804MOL0     O 6020   7.812   5.246   1.409 -0.5182  0.2250 -0.3411
  804MOL0     C 6021   7.715   5.153   1.401 -0.5398  0.2807 -0.1539
  804MOL0     C 6022   7.702   5.050   1.496  0.3835  0.4772  0.2536
  804MOL0     C 6023   7.599   4.957   1.485 -0.3414  0.0069  0.2705
  804MOL0     C 6024   7.506   4.969   1.379  0.2189 -0.1117 -0.1485
  804MOL0     C 6025   7.391   4.877   1.368  0.2267 -0.8970  0.5528
  804MOL0     O 6026   7.309   4.914   1.262 -0.2398  0.0799 -0.3139
  804MOL0     C 6027   7.187   4.846   1.232 -1.5645 -0.1400 -0.2245
  804MOL0     C 6028   7.121   4.743   1.306 -0.4848  0.6889  0.0969
  804MOL0     C 6029   7.014   4.681   1.253 -0.5161 -0.2123 -0.2552
  804MOL0     C 6030   6.960   4.729   1.134  0.2981 -0.0335  0.0558
  804MOL0     O 6031   6.844   4.688   1.072 -0.2926  0.3835  0.4900
  804MOL0     C 6032   6.752   4.609   1.157  0.2630  0.1592 -0.2216
  804MOL0     C 6033   6.617   4.596   1.088  0.4422  0.7015  0.1615
  804MOL0     C 6034   6.610   4.515   0.966 -0.2335 -0.3082  0.2338
  804MOL0     C 6035   6.467   4.495   0.919 -0.4056 -0.3091 -0.1913
  804MOL0     C 6036   6.469   4.394   0.807 -0.6858  0.3513  0.0552
  804MOL0     C 6037   6.334   4.388   0.737  0.1483  0.3298 -0.0575
  804MOL0     C 6038   6.329   4.280   0.628 -0.7856  0.2343  0.1320
  804MOL0     C 6039   6.407   4.147   0.653 -0.1649  0.2191  0.4320
  804MOL0    Cl 6040   6.344   4.051   0.518 -0.4035 -0.0115 -0.2683
  804MOL0     C 6041   7.024   4.826   1.062  0.4053 -0.6008 -0.8805
  804MOL0     C 6042   7.141   4.883   1.104  0.4486 -0.1629  0.1566
  804MOL0     O 6043   7.389   4.781   1.438  0.4432  0.4403  0.7182
  804MOL0     C 6044   7.523   5.078   1.289 -0.4201 -0.0088  0.6752
  804MOL0     C 6045   7.620   5.174   1.303  0.5745  0.2127  0.2158
  804MOL0     N 6046   8.338   5.615   1.622 -0.2857  0.2264 -0.2168
  804MOL0     N 6047   8.418   5.595   1.716  0.4421  0.0717  0.5599
  804MOL0     C 6048   9.518   5.493   1.734 -0.2750  0.2857 -0.3083
  804MOL0     C 6049   9.637   5.471   1.653 -0.1443  0.7721  0.5047
  804MOL0     C 6050   9.881   5.349   1.281  0.2028  1.1083  0.5063
  804MOL0     C 6051   9.916   5.223   1.233  0.2029  0.5606 -0.1603
  804MOL0     C 6052  10.040   5.211   1.168 -0.0439  0.3097  0.1402
  804MOL0     C 6053  10.132   5.314   1.157  0.3834  0.5282  0.2358
  804MOL0     O 6054  10.261   5.308   1.104 -0.3050 -0.3749  0.3113
  804MOL0     C 6055  10.300   5.190   1.043 -0.5820 -0.5847  0.5686
  804MOL0     C 6056  10.316   5.080   1.144  0.2044  0.3754  0.3124
  804MOL0     C 6057  10.321   4.936   1.083  0.4590  0.2946  1.1584
  804MOL0     C 6058  10.381   4.831   1.172 -0.6794  0.7970 -0.0712
  804MOL0     C 6059  10.292   4.811   1.280  0.0858  0.9190 -0.6798
  804MOL0     C 6060  10.213   4.775   1.366  0.1604  0.0969  0.8023
  804MOL0     C 6061  10.092   5.437   1.212 -0.2431  0.1003 -0.2204
  804MOL0     C 6062   9.971   5.454   1.277 -0.2954  0.0970 -0.2739
  804MOL0     H 6063   9.503   5.564   1.354 -1.9104 -0.1188  0.6106
  804MOL0     H 6064   9.299   5.578   1.487  0.1298  1.1640 -2.7012
  804MOL0     H 6065   9.390   5.669   1.873 -0.0940  0.7254  0.6506
  804MOL0     H 6066   9.326   5.520   1.949 -0.9502 -0.0467 -0.2741
  804MOL0     H 6067   9.153   5.745   1.838  1.7788 -1.3161 -0.9224
  804MOL0     H 6068   9.200   5.730   2.002  1.5337  0.7665 -0.5312
  804MOL0     H 6069   8.979   5.616   2.007 -0.9951  1.8719 -0.5657
  804MOL0     H 6070   9.099   5.481   1.970 -0.7233  0.5123 -0.4011
  804MOL0     H 6071   8.933   5.628   1.758  1.9313  0.4126 -1.7465
  804MOL0     H 6072   9.034   5.501   1.720 -0.5370  1.4029 -2.2200
  804MOL0     H 6073   8.787   5.509   1.906  0.7469 -2.4021  1.7582
  804MOL0     H 6074   8.896   5.377   1.912  1.2191 -0.2034 -0.6588
  804MOL0     H 6075   8.850   5.347   1.655  1.6368  4.1402 -1.3281
  804MOL0     H 6076   8.751   5.489   1.665  1.8866  0.5750 -1.2135
  804MOL0     H 6077   8.649   5.231   1.700 -1.3600 -0.7980  1.0156
  804MOL0     H 6078   8.693   5.260   1.862  1.0932 -3.1591 -1.7400
  804MOL0     H 6079   8.549   5.452   1.910 -3.1919  1.0481  0.2211
  804MOL0     H 6080   8.467   5.320   1.839  1.4268 -1.8349  1.3539
  804MOL0     H 6081   8.438   5.313   1.549 -0.5700 -0.4646  1.9525
  804MOL0     H 6082   8.279   5.432   1.348  1.8695  3.2762  1.0296
  804MOL0     H 6083   8.168   5.548   1.416 -1.7655 -1.1092 -1.8564
  804MOL0     H 6084   8.126   5.364   1.589 -3.2659  1.9871 -1.1556
  804MOL0     H 6085   8.206   5.251   1.476 -0.7177  0.6932 -1.8102
  804MOL0     H 6086   7.946   5.413   1.426  1.8624  2.0489 -0.2304
  804MOL0     H 6087   8.037   5.325   1.298  0.2920 -0.7478  0.3105
  804MOL0     H 6088   7.946   5.210   1.570 -0.1983  1.7728  0.2873
  804MOL0     H 6089   7.997   5.122   1.423  1.5063  0.6177 -0.8822
  804MOL0     H 6090   7.778   5.054   1.573 -0.0451 -0.0907  0.7189
  804MOL0     H 6091   7.589   4.874   1.555  3.8418 -2.1225 -1.3236
  804MOL0     H 6092   7.158   4.701   1.398 -1.4733 -0.4359 -0.0006
  804MOL0     H 6093   6.980   4.597   1.313  1.9344 -1.7772 -0.9470
  804MOL0     H 6094   6.732   4.661   1.252  0.3132 -1.0386  0.4638
  804MOL0     H 6095   6.788   4.507   1.174 -0.4524 -0.4609 -2.1585
  804MOL0     H 6096   6.565   4.690   1.063 -0.4727  0.2274  0.2241
  804MOL0     H 6097   6.546   4.554   1.160  1.1667  1.2852  1.2444
  804MOL0     H 6098   6.664   4.420   0.974 -2.0850 -1.4692 -0.4731
  804MOL0     H 6099   6.657   4.564   0.881 -2.4528  0.1649 -0.7924
  804MOL0     H 6100   6.395   4.458   0.992 -0.4272  0.9725  0.4617
  804MOL0     H 6101   6.430   4.586   0.871 -3.1187 -0.9280  0.5606
  804MOL0     H 6102   6.507   4.299   0.844  1.0499  1.3140  0.8857
  804MOL0     H 6103   6.539   4.428   0.730  2.0793 -3.0935  0.8185
  804MOL0     H 6104   6.314   4.486   0.693  0.1605  1.2137  1.8168
  804MOL0     H 6105   6.259   4.366   0.813  1.2495 -0.5009  0.8207
  804MOL0     H 6106   6.230   4.251   0.592 -0.1703 -1.2704 -0.4508
  804MOL0     H 6107   6.379   4.321   0.539  1.0171 -1.8246  0.0954
  804MOL0     H 6108   6.381   4.113   0.754 -1.0141 -0.2200  0.0691
  804MOL0     H 6109   6.514   4.170   0.649  0.0569 -0.5040  1.6602
  804MOL0     H 6110   6.975   4.876   0.978 -0.4768  1.0254  0.5327
  804MOL0     H 6111   7.183   4.968   1.051 -0.9906  0.5633  0.1293
  804MOL0     H 6112   7.456   5.087   1.203  0.8465 -0.9299 -0.4483
  804MOL0     H 6113   7.642   5.258   1.238 -0.5857  0.6019  0.3056
  804MOL0     H 6114   9.520   5.479   1.841 -0.0723 -0.2443 -0.3775
  804MOL0     H 6115   9.727   5.442   1.706  0.6345 -1.0384 -1.6705
  804MOL0     H 6116   9.849   5.138   1.230 -0.0239  0.7573 -1.3925
  804MOL0     H 6117  10.050   5.112   1.124 -2.8535 -0.2532  0.6139
  804MOL0     H 6118  10.403   5.197   1.007  0.6376 -1.7083  3.5716
  804MOL0     H 6119  10.227   5.177   0.963 -1.9973 -0.1105  1.7337
  804MOL0     H 6120  10.411   5.107   1.193 -0.0576  0.2112  0.9201
  804MOL0     H 6121  10.243   5.080   1.225 -2.1341  1.8614 -1.6730
  804MOL0     H 6122  10.367   4.946   0.984 -3.4103  2.0302 -0.6725
  804MOL0     H 6123  10.225   4.898   1.049  0.5467  1.8089 -0.9964
  804MOL0     H 6124  10.396   4.735   1.124 -1.6377 -0.1745  1.4730
  804MOL0     H 6125  10.478   4.871   1.204  0.1991 -1.4421  0.1807
  804MOL0     H 6126  10.149   4.748   1.447  3.1733 -1.9672  2.6970
  804MOL0     H 6127  10.170   5.512   1.207 -0.0906 -0.0824 -0.6391
  804MOL0     H 6128   9.959   5.540   1.341  2.7698 -0.5916  1.4299
  805MOL0     O 6129   1.436   5.452   7.065 -0.3925 -0.3549  0.3740
  805MOL0     C 6130   1.399   5.490   6.954 -0.7952 -0.1370 -0.5135
  805MOL0     O 6131   1.483   5.534   6.860  0.4460  0.1177 -0.2711
  805MOL0     C 6132   1.621   5.536   6.875  0.3584  0.0084  0.3425
  805MOL0     C 6133   1.682   5.616   6.974 -0.2790  0.0596 -0.4819
  805MOL0     C 6134   1.821   5.602   6.986  0.1713 -0.5160 -0.2422
  805MOL0     C 6135   1.899   5.537   6.898  0.3188 -0.2097  0.0428
  805MOL0     O 6136   2.028   5.533   6.905 -0.0619  0.1509  0.4713
  805MOL0     C 6137   2.100   5.639   6.836  0.2819  0.5600  0.0898
  805MOL0     C 6138   2.242   5.596   6.825 -0.7038  0.6496  0.2847
  805MOL0     C 6139   2.342   5.710   6.810  0.5256  0.3152  1.0196
  805MOL0     C 6140   2.329   5.790   6.681  0.2853 -0.0218 -0.5761
  805MOL0     C 6141   2.426   5.914   6.683 -0.1210 -0.1680 -0.7958
  805MOL0     C 6142   2.435   5.979   6.543 -0.2094 -1.0475 -0.2476
  805MOL0     C 6143   2.480   6.125   6.548  0.0648  0.2146 -0.1584
  805MOL0     C 6144   2.491   6.181   6.403  0.2437  0.7034 -0.3309
  805MOL0     N 6145   2.365   6.161   6.333  0.2818 -0.2873  0.2133
  805MOL0     C 6146   2.243   6.226   6.356 -0.7740  0.7956 -0.1947
  805MOL0     C 6147   2.161   6.183   6.261 -0.1011  0.5364 -0.4040
  805MOL0     C 6148   2.019   6.215   6.242 -0.4730  0.0591  0.2933
  805MOL0     C 6149   2.002   6.328   6.134  0.1994 -0.5459 -0.3426
  805MOL0     C 6150   2.006   6.476   6.187  0.5786  0.1394  0.1577
  805MOL0     C 6151   1.864   6.528   6.224 -0.5208  0.6135  0.0303
  805MOL0     O 6152   1.768   6.514   6.114  0.8210  0.1921 -0.7275
  805MOL0     C 6153   1.645   6.474   6.158 -0.0358  0.8249 -0.2482
  805MOL0     C 6154   1.558   6.569   6.197  0.8940 -0.5075 -0.9931
  805MOL0     C 6155   1.427   6.531   6.237 -0.2863  0.6956  0.1182
  805MOL0     C 6156   1.388   6.394   6.237 -0.7845 -0.0673  0.2696
  805MOL0     C 6157   1.242   6.356   6.269  0.3402  0.7026 -0.1704
  805MOL0     O 6158   1.202   6.242   6.226  0.3638  0.1786 -0.6078
  805MOL0     C 6159   1.084   6.182   6.264 -0.2785 -0.5977 -0.7805
  805MOL0     C 6160   0.955   6.232   6.224  0.4779  0.7072 -0.5037
  805MOL0     C 6161   0.836   6.171   6.266  0.5337  1.0820  0.4736
  805MOL0     C 6162   0.839   6.051   6.346 -0.0055  0.2569 -1.3129
  805MOL0     O 6163   0.724   5.994   6.404  0.6618  0.5254  0.2542
  805MOL0     C 6164   0.599   6.034   6.341  0.3676  0.5685 -0.1108
  805MOL0     C 6165   0.498   5.951   6.428 -0.7809  0.2090  0.1651
  805MOL0     C 6166   0.356   6.009   6.408 -0.2226  0.2505  1.0753
  805MOL0     C 6167   0.261   5.984   6.529  0.2893 -0.1761  0.1933
  805MOL0     C 6168   0.117   6.015   6.480 -0.6336  0.5090 -0.2637
  805MOL0     C 6169   0.035   6.028   6.614 -0.0435  0.3424  0.3957
  805MOL0     C 6170  -0.109   6.048   6.588  0.4282 -0.2829 -0.0343
  805MOL0     C 6171  -0.136   6.185   6.517  0.2524  0.5811 -0.0382
  805MOL0    Cl 6172  -0.315   6.179   6.490 -0.3046 -0.0640  0.5108
  805MOL0     C 6173   0.969   6.010   6.391  0.5659 -1.4113 -0.7755
  805MOL0     C 6174   1.087   6.068   6.344 -0.0242  0.2680  0.5883
  805MOL0     O 6175   1.177   6.438   6.326  0.2798  0.5401  0.0112
  805MOL0     C 6176   1.486   6.302   6.200 -0.1828 -0.5450 -0.0437
  805MOL0     C 6177   1.614   6.339   6.162 -0.8818  0.1380 -0.2702
  805MOL0     N 6178   2.223   6.082   6.193 -0.5856  0.6953  0.2129
  805MOL0     N 6179   2.341   6.067   6.232 -0.0721 -0.1023  0.3535
  805MOL0     C 6180   1.834   5.462   6.805 -0.1633 -0.3165 -1.0015
  805MOL0     C 6181   1.697   5.458   6.794  0.3416 -0.7037  0.2702
  805MOL0     C 6182   1.254   5.482   6.935  0.0468 -0.0805 -0.4356
  805MOL0     C 6183   1.171   5.410   7.024  0.1909  0.0675  0.1713
  805MOL0     C 6184   1.023   5.424   7.006  0.2920  1.3802  0.3208
  805MOL0     C 6185   0.973   5.496   6.899  0.3763  0.3780 -0.7635
  805MOL0     O 6186   0.834   5.507   6.886  0.8448  0.7923 -0.1989
  805MOL0     C 6187   0.767   5.587   6.783  0.3208  0.6086 -0.0494
  805MOL0     C 6188   0.785   5.522   6.646 -0.1253 -0.5762 -0.0182
  805MOL0     C 6189   0.761   5.624   6.539 -0.3609 -0.2714  0.7844
  805MOL0     C 6190   0.819   5.582   6.398 -1.0575  0.2876  0.1104
  805MOL0     C 6191   0.966   5.568   6.400 -0.3287 -0.1964 -0.5178
  805MOL0     C 6192   1.074   5.520   6.428  0.2385  0.4114  0.3650
  805MOL0     C 6193   1.059   5.570   6.819  0.4848 -0.6243  1.2158
  805MOL0     C 6194   1.196   5.569   6.842  0.5767 -0.0633 -0.1241
  805MOL0     H 6195   1.625   5.681   7.039 -0.1532 -0.0479 -0.2610
  805MOL0     H 6196   1.864   5.643   7.077  0.2895  0.2180 -0.6282
  805MOL0     H 6197   2.081   5.729   6.896  0.5674  0.9117 -0.3384
  805MOL0     H 6198   2.049   5.654   6.741 -0.2544 -2.6464 -0.2252
  805MOL0     H 6199   2.261   5.534   6.737  1.8514 -2.7352  2.9364
  805MOL0     H 6200   2.262   5.545   6.919 -0.5350  1.0816  0.4850
  805MOL0     H 6201   2.444   5.671   6.800  0.7415  1.4925 -3.6507
  805MOL0     H 6202   2.331   5.778   6.895 -0.9235  1.6960 -0.2062
  805MOL0     H 6203   2.362   5.731   6.595  0.6775  0.5473 -0.8185
  805MOL0     H 6204   2.229   5.830   6.662 -0.7537 -2.0672  0.2566
  805MOL0     H 6205   2.523   5.895   6.730 -1.5301 -3.5684  1.1150
  805MOL0     H 6206   2.379   5.993   6.742 -0.9433 -0.8656 -0.4941
  805MOL0     H 6207   2.332   5.966   6.510 -0.5456 -1.0649  0.7763
  805MOL0     H 6208   2.504   5.929   6.474  3.5661  6.1782 -2.8189
  805MOL0     H 6209   2.402   6.184   6.597 -1.1039 -1.2102 -0.1952
  805MOL0     H 6210   2.573   6.139   6.604  0.5638  2.1437 -1.3740
  805MOL0     H 6211   2.572   6.129   6.351  0.5142  1.7516 -0.9948
  805MOL0     H 6212   2.530   6.283   6.407  1.9920  0.1879 -2.5441
  805MOL0     H 6213   2.213   6.291   6.437 -1.1283 -2.0599  2.1651
  805MOL0     H 6214   1.967   6.249   6.332  0.3246  0.0436  0.7715
  805MOL0     H 6215   1.966   6.125   6.211 -3.1114  1.3379  0.7801
  805MOL0     H 6216   1.903   6.307   6.091  0.0893 -1.6202  0.3816
  805MOL0     H 6217   2.083   6.320   6.061 -0.5778  0.7242 -1.3944
  805MOL0     H 6218   2.077   6.493   6.268 -1.0322  0.4689  1.5730
  805MOL0     H 6219   2.046   6.534   6.102  1.9901 -2.6472 -1.2117
  805MOL0     H 6220   1.892   6.628   6.259 -0.0012  0.7433 -0.7364
  805MOL0     H 6221   1.833   6.468   6.310  1.4492 -0.5698 -0.0283
  805MOL0     H 6222   1.579   6.676   6.191  2.1723 -0.7373 -0.7449
  805MOL0     H 6223   1.349   6.603   6.261 -3.8792 -2.7356 -0.1666
  805MOL0     H 6224   0.936   6.321   6.165 -1.3825 -0.2383 -1.4250
  805MOL0     H 6225   0.747   6.229   6.248  0.7662  1.7520  1.3860
  805MOL0     H 6226   0.591   6.020   6.232 -0.5943  1.4574 -0.1738
  805MOL0     H 6227   0.574   6.139   6.359 -3.0756 -0.2653  0.6988
  805MOL0     H 6228   0.528   5.957   6.532 -1.0981 -1.2597  0.3564
  805MOL0     H 6229   0.512   5.845   6.408  2.7018  0.0681  2.5154
  805MOL0     H 6230   0.322   5.953   6.320  0.2320 -2.9265  2.7474
  805MOL0     H 6231   0.358   6.114   6.379 -1.4605 -0.0850 -0.3294
  805MOL0     H 6232   0.276   5.882   6.565  1.3939 -0.1621 -0.2070
  805MOL0     H 6233   0.283   6.053   6.610  0.4421  1.5429 -1.2337
  805MOL0     H 6234   0.069   5.931   6.428  1.5219 -0.5962 -0.6061
  805MOL0     H 6235   0.113   6.101   6.412 -0.1834 -1.2272 -2.6548
  805MOL0     H 6236   0.064   6.109   6.681  1.1319 -1.3351  1.9926
  805MOL0     H 6237   0.045   5.929   6.661 -0.7886 -1.7981 -3.5148
  805MOL0     H 6238  -0.145   5.969   6.521  1.8850  0.4186 -1.7426
  805MOL0     H 6239  -0.166   6.039   6.681  1.3425  1.6829  0.7659
  805MOL0     H 6240  -0.080   6.198   6.423  0.8018  2.4002  0.4951
  805MOL0     H 6241  -0.108   6.263   6.588 -4.5491  3.2589 -0.6338
  805MOL0     H 6242   0.980   5.923   6.456 -0.6458 -0.2786  1.0401
  805MOL0     H 6243   1.181   6.017   6.364  1.0945  2.9277  2.7046
  805MOL0     H 6244   1.487   6.194   6.188  1.3143 -0.8270  1.9659
  805MOL0     H 6245   1.693   6.267   6.141  0.2140  1.1674  0.2219
  805MOL0     H 6246   1.889   5.403   6.733  0.5506  0.3954 -1.0569
  805MOL0     H 6247   1.659   5.397   6.713  2.0674 -0.7543 -0.5426
  805MOL0     H 6248   1.212   5.356   7.108 -0.3653 -1.0248 -0.2343
  805MOL0     H 6249   0.958   5.374   7.076  0.5689  0.9490  0.2743
  805MOL0     H 6250   0.818   5.684   6.790  1.1136  0.1434  1.0140
  805MOL0     H 6251   0.664   5.610   6.813 -0.5064 -0.8314 -1.6675
  805MOL0     H 6252   0.889   5.488   6.636  0.1575  0.2754 -0.0877
  805MOL0     H 6253   0.707   5.448   6.628 -0.6925 -0.8531  3.0249
  805MOL0     H 6254   0.817   5.715   6.562  2.8568 -1.3548 -1.9306
  805MOL0     H 6255   0.653   5.640   6.530 -0.4647 -1.9860 -2.0784
  805MOL0     H 6256   0.780   5.485   6.369  0.2953 -0.5134  0.8349
  805MOL0     H 6257   0.791   5.656   6.322 -2.9425 -0.9595 -0.4703
  805MOL0     H 6258   1.168   5.470   6.441 -0.4209 -0.7944  0.5949
  805MOL0     H 6259   1.039   5.625   6.727  1.9554  0.5928  1.5848
  805MOL0     H 6260   1.259   5.618   6.769  2.2623 -2.6629 -0.5770
  806MOL0     O 6261   7.810   4.758   3.232 -0.1766 -0.0156 -0.3980
  806MOL0     C 6262   7.882   4.699   3.315  0.2222 -0.6184 -0.1685
  806MOL0     O 6263   7.833   4.674   3.444  0.0855  0.1330  0.1501
  806MOL0     C 6264   7.691   4.657   3.458 -0.6752  0.4862  0.3410
  806MOL0     C 6265   7.626   4.716   3.569 -0.3399 -0.0403  0.7707
  806MOL0     C 6266   7.489   4.684   3.593  0.3035  0.0386  0.0182
  806MOL0     C 6267   7.414   4.602   3.506  0.5607 -0.9804  0.0682
  806MOL0     O 6268   7.282   4.578   3.520 -0.3149 -0.2852 -0.1240
  806MOL0     C 6269   7.203   4.615   3.634 -0.3418 -0.5031  0.0304
  806MOL0     C 6270   7.064   4.538   3.621 -0.0506  0.2537 -0.0028
  806MOL0     C 6271   6.980   4.569   3.490  0.0024  0.2875 -0.3693
  806MOL0     C 6272   6.949   4.720   3.465  0.6071 -0.1245 -0.2548
  806MOL0     C 6273   6.891   4.801   3.588 -0.8213 -0.3093 -0.2999
  806MOL0     C 6274   6.832   4.936   3.551 -0.0812  0.3842 -0.5586
  806MOL0     C 6275   6.929   5.050   3.524  0.0888  0.1146  0.0261
  806MOL0     C 6276   6.846   5.183   3.518 -0.1935 -0.1366  0.0243
  806MOL0     N 6277   6.931   5.285   3.580 -0.7063 -0.1264  0.1785
  806MOL0     C 6278   7.057   5.331   3.539 -0.2371  0.1603 -0.5392
  806MOL0     C 6279   7.092   5.419   3.642 -0.5199  0.8779  1.0775
  806MOL0     C 6280   7.199   5.523   3.640  0.1090  0.0828  0.7145
  806MOL0     C 6281   7.340   5.459   3.638  1.9035 -0.2602 -0.2674
  806MOL0     C 6282   7.440   5.568   3.628  0.2561 -0.0349 -0.1266
  806MOL0     C 6283   7.587   5.517   3.635 -0.5500  0.6369 -0.2508
  806MOL0     O 6284   7.625   5.460   3.766  0.0273 -0.5145  0.9129
  806MOL0     C 6285   7.762   5.439   3.783  0.1533  0.0976  0.4288
  806MOL0     C 6286   7.818   5.313   3.813  0.9369 -0.1000 -0.1467
  806MOL0     C 6287   7.953   5.292   3.845  0.7608 -0.4550  1.3552
  806MOL0     C 6288   8.039   5.397   3.855  0.3885  0.1430  0.3685
  806MOL0     C 6289   8.180   5.369   3.887  0.0857 -0.1489  0.1327
  806MOL0     O 6290   8.271   5.468   3.923 -0.0512 -1.1588  0.5660
  806MOL0     C 6291   8.388   5.440   3.979 -0.0354  0.8117 -0.7522
  806MOL0     C 6292   8.485   5.354   3.933  0.1064  0.1684 -0.1587
  806MOL0     C 6293   8.621   5.376   3.955  0.1840  0.9080  0.6153
  806MOL0     C 6294   8.662   5.474   4.044 -0.6685  0.4239 -0.4400
  806MOL0     O 6295   8.804   5.472   4.071  1.0667  0.1970 -0.6311
  806MOL0     C 6296   8.835   5.506   4.209 -0.8315 -0.1916 -0.0900
  806MOL0     C 6297   8.962   5.592   4.212 -0.9766 -0.6872 -0.4839
  806MOL0     C 6298   8.983   5.670   4.348 -0.1272  0.0061 -0.3177
  806MOL0     C 6299   9.119   5.737   4.352  0.0485 -0.0783 -0.4764
  806MOL0     C 6300   9.140   5.805   4.484  0.5494  0.3154 -0.0906
  806MOL0     C 6301   9.281   5.834   4.532 -0.1846 -0.2207 -0.0189
  806MOL0     C 6302   9.282   5.897   4.668  0.3931 -0.0402 -0.7389
  806MOL0     C 6303   9.416   5.908   4.726 -0.7105  0.7243 -0.2912
  806MOL0    Cl 6304   9.493   5.751   4.760  0.1150  0.2514 -0.4294
  806MOL0     C 6305   8.561   5.549   4.104 -1.0038 -0.0926  1.1217
  806MOL0     C 6306   8.427   5.539   4.066  0.2197  0.1977 -0.1628
  806MOL0     O 6307   8.208   5.251   3.891  0.5228 -0.3946  0.2499
  806MOL0     C 6308   7.983   5.525   3.834  0.2445  0.4328 -0.7830
  806MOL0     C 6309   7.854   5.545   3.789  1.0156 -0.1369  0.0455
  806MOL0     N 6310   6.991   5.417   3.736 -0.7189 -0.0334  0.0325
  806MOL0     N 6311   6.892   5.344   3.693 -0.0894 -0.0365 -0.4915
  806MOL0     C 6312   7.477   4.549   3.390  0.7100 -0.2948 -0.4239
  806MOL0     C 6313   7.617   4.575   3.373 -0.5367  0.3794  0.0711
  806MOL0     C 6314   8.028   4.693   3.284 -0.3459 -0.1711  0.1295
  806MOL0     C 6315   8.083   4.701   3.157  0.0712  0.4777 -0.5768
  806MOL0     C 6316   8.216   4.692   3.147  0.2432  0.4033 -0.4759
  806MOL0     C 6317   8.302   4.670   3.256  1.2940  0.2841 -0.2154
  806MOL0     O 6318   8.431   4.695   3.231 -0.7218 -0.6719 -0.7785
  806MOL0     C 6319   8.505   4.767   3.325  0.4079 -0.3365 -1.1543
  806MOL0     C 6320   8.650   4.748   3.286 -0.0784  0.0116 -0.4564
  806MOL0     C 6321   8.751   4.757   3.393  0.0453  0.2327  0.9283
  806MOL0     C 6322   8.756   4.644   3.504 -0.3619  0.3667 -0.0286
  806MOL0     C 6323   8.882   4.620   3.553 -0.2206 -0.2676 -0.0500
  806MOL0     C 6324   8.998   4.599   3.589 -0.8407  0.0473  0.6787
  806MOL0     C 6325   8.252   4.652   3.388 -0.1044 -0.1815 -1.0028
  806MOL0     C 6326   8.107   4.661   3.399  0.5973  0.1185  0.7520
  806MOL0     H 6327   7.673   4.784   3.639 -1.3284  1.7251 -0.1831
  806MOL0     H 6328   7.450   4.725   3.686  1.0144 -0.5920  0.6114
  806MOL0     H 6329   7.189   4.723   3.631  1.7714 -0.1659 -3.0803
  806MOL0     H 6330   7.248   4.591   3.731 -1.1714 -1.9576  0.0827
  806MOL0     H 6331   7.002   4.556   3.709  0.9014 -1.2544  1.0050
  806MOL0     H 6332   7.083   4.431   3.623 -1.9167 -0.1530 -1.0726
  806MOL0     H 6333   6.887   4.511   3.496 -1.4333  2.1248 -2.9996
  806MOL0     H 6334   7.028   4.532   3.399  0.7662  1.8113 -0.6193
  806MOL0     H 6335   7.046   4.758   3.432  1.2566  1.0373  2.6480
  806MOL0     H 6336   6.871   4.723   3.388  0.3288 -0.3208  0.0157
  806MOL0     H 6337   6.972   4.819   3.659 -0.2472  1.2958 -1.3000
  806MOL0     H 6338   6.813   4.742   3.637 -0.5882 -0.0782  0.3631
  806MOL0     H 6339   6.775   4.961   3.641 -1.6502  0.0444 -1.4240
  806MOL0     H 6340   6.766   4.912   3.467 -0.3104 -0.5404 -0.1161
  806MOL0     H 6341   7.009   5.046   3.599 -0.3172 -1.6836  0.3904
  806MOL0     H 6342   6.979   5.030   3.428 -0.5373 -1.6292  0.0327
  806MOL0     H 6343   6.753   5.165   3.573  0.1216 -0.3183  0.4984
  806MOL0     H 6344   6.829   5.217   3.415  2.5293  0.4180 -0.3146
  806MOL0     H 6345   7.112   5.315   3.446  0.4831  1.0768 -0.2887
  806MOL0     H 6346   7.181   5.592   3.723 -1.6278  2.0710 -1.1686
  806MOL0     H 6347   7.187   5.589   3.554 -1.9055  0.9484  1.5807
  806MOL0     H 6348   7.346   5.384   3.559  0.4663 -1.2008  0.4782
  806MOL0     H 6349   7.355   5.397   3.727  1.0077  1.1232  0.9047
  806MOL0     H 6350   7.433   5.618   3.531  0.5514 -0.1712 -0.2212
  806MOL0     H 6351   7.422   5.641   3.708  0.7409  0.2190 -0.2416
  806MOL0     H 6352   7.655   5.600   3.616 -0.2563  0.5296  0.3245
  806MOL0     H 6353   7.592   5.443   3.554  0.4491  0.6474 -0.2082
  806MOL0     H 6354   7.752   5.227   3.822  2.0706 -0.8279  2.3678
  806MOL0     H 6355   7.983   5.188   3.842  1.8106 -0.1350 -1.0698
  806MOL0     H 6356   8.457   5.286   3.854 -1.5283 -0.1845  0.6974
  806MOL0     H 6357   8.689   5.303   3.912  0.6832  1.7487 -0.0583
  806MOL0     H 6358   8.851   5.415   4.267 -1.0839  0.3362  0.8473
  806MOL0     H 6359   8.756   5.560   4.262  0.2402  0.4982  0.8646
  806MOL0     H 6360   8.958   5.672   4.137  0.7152 -0.9926 -0.9365
  806MOL0     H 6361   9.050   5.529   4.197 -1.0805 -1.4308  1.6585
  806MOL0     H 6362   8.965   5.606   4.435 -1.4626  2.6305  1.4778
  806MOL0     H 6363   8.903   5.744   4.362  0.6428  1.2063 -1.9690
  806MOL0     H 6364   9.199   5.666   4.328  1.7155  2.3774 -2.7125
  806MOL0     H 6365   9.127   5.811   4.273  1.2704  1.0486  0.6556
  806MOL0     H 6366   9.095   5.742   4.562 -1.6276  2.4424  0.4998
  806MOL0     H 6367   9.078   5.895   4.483 -0.9850 -0.6970 -0.5743
  806MOL0     H 6368   9.314   5.904   4.455 -1.7089  0.1805 -0.3446
  806MOL0     H 6369   9.335   5.740   4.537  2.1115  1.0097 -0.3383
  806MOL0     H 6370   9.247   6.000   4.658 -0.6994 -0.5077 -2.2435
  806MOL0     H 6371   9.214   5.841   4.732 -0.3678  0.6710 -0.9101
  806MOL0     H 6372   9.401   5.967   4.816 -1.3485  1.3696 -0.8084
  806MOL0     H 6373   9.481   5.957   4.653  1.8706 -0.9538  0.7346
  806MOL0     H 6374   8.593   5.634   4.164 -1.1866  1.2220 -0.5785
  806MOL0     H 6375   8.352   5.605   4.108  0.5085 -0.7341  1.9461
  806MOL0     H 6376   8.050   5.611   3.834 -1.1227  1.6783  2.5318
  806MOL0     H 6377   7.822   5.647   3.775 -0.9873 -0.8360 -0.9054
  806MOL0     H 6378   7.418   4.497   3.315 -2.4579  2.1766  0.1396
  806MOL0     H 6379   7.661   4.534   3.283  2.8002  4.2335 -0.3134
  806MOL0     H 6380   8.027   4.720   3.066  1.4589  2.8086 -1.0316
  806MOL0     H 6381   8.263   4.704   3.049  2.6987 -0.8029  0.4572
  806MOL0     H 6382   8.505   4.727   3.427  0.8859  3.0477  0.3031
  806MOL0     H 6383   8.479   4.873   3.331 -1.4343 -0.7979  0.0300
  806MOL0     H 6384   8.663   4.651   3.236  0.4684  0.0292 -0.3628
  806MOL0     H 6385   8.669   4.832   3.219  1.1372 -1.7653 -2.5003
  806MOL0     H 6386   8.742   4.859   3.432  1.3919  0.7413 -0.0173
  806MOL0     H 6387   8.847   4.758   3.342 -0.5724 -1.0822 -0.3223
  806MOL0     H 6388   8.689   4.659   3.589 -1.3148  0.5770 -0.7999
  806MOL0     H 6389   8.730   4.556   3.444  0.4152 -0.6306  1.0662
  806MOL0     H 6390   9.095   4.579   3.628 -1.4750 -1.7105  1.4542
  806MOL0     H 6391   8.313   4.620   3.471 -3.2926 -0.9902  1.2234
  806MOL0     H 6392   8.066   4.653   3.499 -0.7174  2.1582  0.4288
  807MOL0     O 6393   0.480   3.962   7.832  0.3976 -0.0204  0.1708
  807MOL0     C 6394   0.447   3.988   7.947 -0.0621  0.4166  0.2105
  807MOL0     O 6395   0.529   4.008   8.051 -1.1800  0.3050 -0.0162
  807MOL0     C 6396   0.668   4.005   8.019  0.6668  0.4484  0.6662
  807MOL0     C 6397   0.732   4.118   8.040  1.4515 -0.2707 -0.0451
  807MOL0     C 6398   0.871   4.132   8.009  0.1876 -0.8905 -0.0870
  807MOL0     C 6399   0.936   4.024   7.940  0.5702 -0.3388 -0.4833
  807MOL0     O 6400   1.063   4.023   7.901 -0.3716  0.2076 -0.4888
  807MOL0     C 6401   1.138   4.145   7.903  0.3765 -0.0915 -0.5597
  807MOL0     C 6402   1.267   4.130   7.818 -0.0653 -0.2501 -0.2961
  807MOL0     C 6403   1.351   4.010   7.857 -0.2682  0.1779 -0.5581
  807MOL0     C 6404   1.500   4.035   7.823  0.3642  0.1567  0.0383
  807MOL0     C 6405   1.578   3.908   7.856  0.5305 -0.4895 -0.7461
  807MOL0     C 6406   1.727   3.935   7.814 -0.0792  0.0955  0.5010
  807MOL0     C 6407   1.824   3.812   7.828 -0.4735 -1.0016  0.1167
  807MOL0     C 6408   1.965   3.849   7.786  0.6774  0.4654  0.2671
  807MOL0     N 6409   2.026   3.943   7.878  0.8012  0.3402 -0.0741
  807MOL0     C 6410   2.028   4.086   7.869 -0.2157 -0.2513 -0.2034
  807MOL0     C 6411   2.118   4.129   7.970 -0.2385  0.4510  0.2870
  807MOL0     C 6412   2.168   4.266   8.004 -0.5414 -0.2202  0.6138
  807MOL0     C 6413   2.273   4.323   7.906 -0.5179  0.4362 -0.9085
  807MOL0     C 6414   2.269   4.475   7.911 -0.0675  0.3881 -0.5338
  807MOL0     C 6415   2.382   4.538   7.836 -0.1145 -0.1314 -0.2300
  807MOL0     O 6416   2.504   4.547   7.914 -0.2704  1.0477  0.2027
  807MOL0     C 6417   2.619   4.571   7.840  0.3446  0.5476 -0.5494
  807MOL0     C 6418   2.639   4.584   7.702 -0.1250 -0.3174  0.1183
  807MOL0     C 6419   2.768   4.605   7.651  0.2159  0.3636  0.1551
  807MOL0     C 6420   2.881   4.611   7.735  0.2060 -0.1515 -0.2356
  807MOL0     C 6421   3.021   4.622   7.683 -0.1254 -0.6749  0.1801
  807MOL0     O 6422   3.114   4.655   7.774 -0.4842  0.2249  0.4156
  807MOL0     C 6423   3.249   4.668   7.748 -0.8178 -0.2078  0.3304
  807MOL0     C 6424   3.339   4.625   7.842 -0.2507  0.3955  0.5652
  807MOL0     C 6425   3.480   4.637   7.823 -0.7801 -0.0549  0.3592
  807MOL0     C 6426   3.532   4.693   7.708 -0.4101  0.7699  0.1460
  807MOL0     O 6427   3.666   4.685   7.669 -0.2855  0.0244  0.6248
  807MOL0     C 6428   3.753   4.726   7.775 -0.0571 -0.1625 -0.7622
  807MOL0     C 6429   3.892   4.758   7.723 -0.4360  0.3147  0.3547
  807MOL0     C 6430   3.965   4.646   7.645 -0.5694  0.1694 -0.7025
  807MOL0     C 6431   4.079   4.694   7.565 -0.4777 -0.3283  0.6989
  807MOL0     C 6432   4.179   4.585   7.532 -0.1317  0.9560  0.7212
  807MOL0     C 6433   4.299   4.648   7.469 -0.1206 -0.0905  0.2552
  807MOL0     C 6434   4.412   4.555   7.439 -0.1351 -0.5224 -0.1944
  807MOL0     C 6435   4.490   4.501   7.563  0.4199  0.5052 -0.6272
  807MOL0    Cl 6436   4.621   4.606   7.624  0.4329  0.5896 -0.1458
  807MOL0     C 6437   3.441   4.740   7.615 -0.0643 -0.0305  0.0040
  807MOL0     C 6438   3.302   4.727   7.633  0.2234  0.6733  0.4114
  807MOL0     O 6439   3.033   4.601   7.562  0.5511  0.6969  0.8994
  807MOL0     C 6440   2.857   4.611   7.872 -0.1280 -0.4013  0.5442
  807MOL0     C 6441   2.731   4.596   7.925  0.5745 -0.7359 -1.0571
  807MOL0     N 6442   2.152   4.012   8.038  0.0725 -0.0623 -0.3469
  807MOL0     N 6443   2.099   3.904   7.986 -0.4825 -0.8443 -0.9126
  807MOL0     C 6444   0.866   3.912   7.901 -0.0821 -0.8905 -0.4532
  807MOL0     C 6445   0.739   3.897   7.951  0.1949 -0.3344  0.5313
  807MOL0     C 6446   0.308   4.021   7.958 -0.1228 -0.3590  0.0227
  807MOL0     C 6447   0.257   4.069   8.083 -0.8629 -1.0172 -0.2685
  807MOL0     C 6448   0.131   4.114   8.104  0.1251  0.1183  0.5288
  807MOL0     C 6449   0.040   4.109   8.001 -0.6470  0.3695  0.2523
  807MOL0     O 6450  -0.090   4.161   8.021 -0.1058 -0.1129  0.1378
  807MOL0     C 6451  -0.183   4.167   7.909  0.3942  0.6428  0.1725
  807MOL0     C 6452  -0.127   4.278   7.824 -0.1552  0.1990 -0.1041
  807MOL0     C 6453  -0.213   4.323   7.700 -0.6034 -0.2343  0.3037
  807MOL0     C 6454  -0.124   4.424   7.616  0.5294  0.0744 -0.2031
  807MOL0     C 6455  -0.115   4.551   7.671 -0.0150 -1.0627  0.1005
  807MOL0     C 6456  -0.084   4.656   7.723 -0.8948  0.4165 -0.7498
  807MOL0     C 6457   0.079   4.052   7.885  0.7133 -0.1562 -0.0925
  807MOL0     C 6458   0.211   4.010   7.854 -0.8833 -0.8107  0.0060
  807MOL0     H 6459   0.680   4.195   8.095  3.1053  1.9336 -1.3937
  807MOL0     H 6460   0.920   4.228   8.025 -0.5578 -0.7189  1.3844
  807MOL0     H 6461   1.155   4.165   8.009 -1.2082  0.0056 -0.3024
  807MOL0     H 6462   1.096   4.239   7.867  2.3108  0.5218 -1.3800
  807MOL0     H 6463   1.324   4.222   7.835 -1.4538  0.4253  0.9572
  807MOL0     H 6464   1.247   4.122   7.711  1.1936 -4.0420 -0.3868
  807MOL0     H 6465   1.329   3.917   7.802  1.9287 -0.8790  0.2358
  807MOL0     H 6466   1.337   3.979   7.961  0.1073  1.5159 -0.0960
  807MOL0     H 6467   1.514   4.078   7.723  0.6685  0.1988  0.0969
  807MOL0     H 6468   1.532   4.111   7.894  0.5859  0.1850 -0.0899
  807MOL0     H 6469   1.547   3.823   7.794  0.6521  0.2658 -1.8634
  807MOL0     H 6470   1.568   3.877   7.960  4.3397 -0.4415 -0.2262
  807MOL0     H 6471   1.762   4.017   7.877 -2.4380  0.2772  1.6921
  807MOL0     H 6472   1.733   3.967   7.710 -2.0314 -0.2394  0.2509
  807MOL0     H 6473   1.827   3.789   7.935 -2.2323  1.9042  0.9159
  807MOL0     H 6474   1.785   3.731   7.766 -2.4906  0.3973 -0.5436
  807MOL0     H 6475   1.950   3.883   7.683  0.0316 -0.3002  0.0976
  807MOL0     H 6476   2.022   3.755   7.784 -0.8745 -0.5184 -1.9930
  807MOL0     H 6477   1.971   4.151   7.803 -0.7117 -0.0769  0.3832
  807MOL0     H 6478   2.203   4.264   8.107 -0.3260  1.2186  0.5845
  807MOL0     H 6479   2.078   4.327   7.994 -1.0291 -0.8992  0.7270
  807MOL0     H 6480   2.253   4.289   7.804 -0.5025  1.2321 -1.1892
  807MOL0     H 6481   2.374   4.297   7.941 -0.2362  2.5517  0.0267
  807MOL0     H 6482   2.177   4.510   7.863  0.8560  0.5870 -2.2444
  807MOL0     H 6483   2.276   4.508   8.015  0.2967 -0.5854 -0.2422
  807MOL0     H 6484   2.356   4.643   7.819 -2.3499 -0.7520 -0.9878
  807MOL0     H 6485   2.397   4.489   7.740 -1.3247  2.8687 -2.0617
  807MOL0     H 6486   2.562   4.586   7.625  0.2207  0.8044 -0.2238
  807MOL0     H 6487   2.786   4.621   7.545  3.1411 -1.5236  0.2510
  807MOL0     H 6488   3.308   4.584   7.938  0.4411  2.2510  1.6459
  807MOL0     H 6489   3.549   4.580   7.884 -0.7152 -1.3096 -0.8540
  807MOL0     H 6490   3.759   4.657   7.859 -1.0067  0.1823 -0.3932
  807MOL0     H 6491   3.717   4.821   7.816 -1.0079  0.0967 -2.1144
  807MOL0     H 6492   3.960   4.773   7.808  0.7132 -0.2181 -0.4508
  807MOL0     H 6493   3.906   4.848   7.662  1.4008  1.3954  2.2403
  807MOL0     H 6494   3.889   4.600   7.580 -1.6411 -1.0332  1.2922
  807MOL0     H 6495   3.985   4.558   7.708 -1.5734  0.3266 -0.1395
  807MOL0     H 6496   4.049   4.751   7.476 -3.0058 -1.8744  0.4611
  807MOL0     H 6497   4.129   4.772   7.623 -0.5838 -0.5771  1.1289
  807MOL0     H 6498   4.134   4.505   7.473  1.6514 -0.5302  1.2625
  807MOL0     H 6499   4.216   4.546   7.628 -1.2588 -1.7428  0.1508
  807MOL0     H 6500   4.340   4.722   7.538 -1.3309 -0.5104  1.4809
  807MOL0     H 6501   4.262   4.687   7.375  0.1614 -1.5184 -0.4830
  807MOL0     H 6502   4.364   4.482   7.373 -1.3034  0.5509 -0.5704
  807MOL0     H 6503   4.477   4.626   7.387  2.1208 -2.8686 -0.7264
  807MOL0     H 6504   4.525   4.402   7.534 -1.1398  0.0636 -1.0604
  807MOL0     H 6505   4.424   4.487   7.649  2.0290 -0.0614  0.5589
  807MOL0     H 6506   3.462   4.796   7.524 -0.5230 -1.0924 -0.7869
  807MOL0     H 6507   3.235   4.743   7.549  1.4743 -0.0024 -0.7656
  807MOL0     H 6508   2.933   4.631   7.947 -0.3700  0.0576  0.6695
  807MOL0     H 6509   2.720   4.608   8.032 -0.0974  4.5405 -1.4683
  807MOL0     H 6510   0.914   3.841   7.834  0.6762 -1.1858  0.3733
  807MOL0     H 6511   0.683   3.808   7.928  0.6577 -0.4981  0.0024
  807MOL0     H 6512   0.325   4.087   8.166 -2.1668  1.2360  0.4151
  807MOL0     H 6513   0.114   4.136   8.209  3.0716 -4.6989  2.3968
  807MOL0     H 6514  -0.288   4.183   7.934  0.4674  0.7751  0.3910
  807MOL0     H 6515  -0.177   4.070   7.858 -0.2824  0.5897  0.1837
  807MOL0     H 6516  -0.120   4.373   7.878  2.9158  1.5200 -2.5016
  807MOL0     H 6517  -0.025   4.252   7.794  0.9587  2.0277  1.8512
  807MOL0     H 6518  -0.308   4.369   7.730 -0.6260  1.4554 -2.0179
  807MOL0     H 6519  -0.240   4.241   7.632 -0.3709  1.6954 -2.2836
  807MOL0     H 6520  -0.024   4.383   7.602  0.0002 -1.0937 -0.6807
  807MOL0     H 6521  -0.180   4.443   7.524 -1.3446 -0.8917  0.6929
  807MOL0     H 6522  -0.068   4.759   7.746 -1.2435  0.3135  0.0010
  807MOL0     H 6523   0.002   4.027   7.812  0.5199 -1.6854  0.6097
  807MOL0     H 6524   0.231   3.963   7.758 -1.9693 -2.4903  0.5732
  808MOL0     O 6525   5.282   1.652   6.966 -0.4224 -1.0099 -0.3330
  808MOL0     C 6526   5.210   1.666   7.062 -0.1236  0.4991  0.2538
  808MOL0     O 6527   5.113   1.756   7.074  0.6356  0.2807 -0.5843
  808MOL0     C 6528   5.039   1.822   6.976  0.9020  0.1710  0.0306
  808MOL0     C 6529   5.082   1.875   6.858 -0.7997  0.0989  0.3157
  808MOL0     C 6530   5.006   1.950   6.772  0.4436 -0.2682  0.7902
  808MOL0     C 6531   4.873   1.972   6.810 -0.2018 -0.0660  0.4860
  808MOL0     O 6532   4.773   2.026   6.728 -0.5924 -0.4671  0.2907
  808MOL0     C 6533   4.805   2.152   6.668  0.4954  0.4413 -0.4005
  808MOL0     C 6534   4.682   2.232   6.638 -0.2407  0.3306 -0.0522
  808MOL0     C 6535   4.723   2.352   6.553  0.2652 -0.6503 -0.5841
  808MOL0     C 6536   4.601   2.453   6.542 -0.1024 -1.4166 -0.5453
  808MOL0     C 6537   4.597   2.547   6.670  0.0969  0.4724  0.8557
  808MOL0     C 6538   4.483   2.643   6.659  0.4381  0.6531 -0.2011
  808MOL0     C 6539   4.494   2.733   6.783 -0.3993 -0.8148 -0.4340
  808MOL0     C 6540   4.416   2.861   6.771 -0.2633  0.1178 -0.1269
  808MOL0     N 6541   4.402   2.922   6.899 -0.1856 -0.3157 -0.4779
  808MOL0     C 6542   4.351   2.876   7.017 -0.6120  0.4563 -0.0496
  808MOL0     C 6543   4.363   2.968   7.111 -0.6476  0.4006 -0.5232
  808MOL0     C 6544   4.328   2.943   7.256  0.4292  0.1222 -0.2591
  808MOL0     C 6545   4.185   2.900   7.273 -0.0563  0.0607 -0.3542
  808MOL0     C 6546   4.145   2.927   7.419  0.9011 -0.2092  0.4737
  808MOL0     C 6547   3.990   2.926   7.432  0.2064  0.6911 -0.2362
  808MOL0     O 6548   3.948   2.937   7.565 -0.2362 -0.0852  0.5516
  808MOL0     C 6549   3.811   2.933   7.586  0.4408 -0.1913 -1.5269
  808MOL0     C 6550   3.768   2.921   7.720  0.0765 -0.2325  0.8360
  808MOL0     C 6551   3.630   2.914   7.751  0.1527  0.6768  0.2613
  808MOL0     C 6552   3.531   2.932   7.647 -0.5519  0.5806  0.9706
  808MOL0     C 6553   3.388   2.912   7.675 -0.2033 -0.2470 -0.2417
  808MOL0     O 6554   3.351   2.952   7.798  0.5114 -0.2364 -0.4338
  808MOL0     C 6555   3.217   2.940   7.824  0.1261 -0.4760  0.1292
  808MOL0     C 6556   3.122   3.015   7.753  0.2840  0.9796  0.1673
  808MOL0     C 6557   2.984   2.992   7.776 -0.3827 -0.4311 -0.6284
  808MOL0     C 6558   2.948   2.902   7.871  1.2449  0.1424  0.6514
  808MOL0     O 6559   2.810   2.900   7.872 -0.9111  0.3209  0.2667
  808MOL0     C 6560   2.751   2.828   7.978 -0.4324  0.0271 -0.2301
  808MOL0     C 6561   2.603   2.874   7.952 -0.1002 -0.2071 -0.1705
  808MOL0     C 6562   2.504   2.787   8.027  0.5847 -0.3557 -0.1607
  808MOL0     C 6563   2.356   2.833   8.002  0.0087  0.5882  0.0777
  808MOL0     C 6564   2.335   2.957   8.081 -0.0159  0.1690  0.3197
  808MOL0     C 6565   2.189   2.997   8.081  0.7532  0.3350  0.4873
  808MOL0     C 6566   2.168   3.135   8.145  0.0030  0.1221 -0.0393
  808MOL0     C 6567   2.016   3.147   8.185  0.9649 -0.1090  0.4020
  808MOL0    Cl 6568   1.976   3.022   8.306 -0.2159 -0.1668 -0.1508
  808MOL0     C 6569   3.036   2.824   7.945  0.2992 -0.3850  0.3981
  808MOL0     C 6570   3.172   2.850   7.920 -0.2137 -0.2782  0.2705
  808MOL0     O 6571   3.314   2.881   7.583 -0.4024 -0.7915 -0.5151
  808MOL0     C 6572   3.576   2.942   7.513  0.4189 -0.7377  0.5481
  808MOL0     C 6573   3.715   2.942   7.485 -0.7817 -0.4237 -0.1131
  808MOL0     N 6574   4.415   3.084   7.046  0.5428 -0.8275 -0.1979
  808MOL0     N 6575   4.436   3.052   6.926  0.2316 -0.4537  0.4278
  808MOL0     C 6576   4.820   1.916   6.924 -0.4045 -0.1039  0.0177
  808MOL0     C 6577   4.907   1.843   7.007 -0.3443 -0.1651 -0.9315
  808MOL0     C 6578   5.218   1.559   7.170  0.0404  0.0342 -0.5964
  808MOL0     C 6579   5.329   1.483   7.182 -0.4960  0.2694  0.9971
  808MOL0     C 6580   5.351   1.373   7.280  0.2210 -0.6182  1.3549
  808MOL0     C 6581   5.247   1.342   7.369  0.4005  0.5440  0.4020
  808MOL0     O 6582   5.266   1.232   7.452  1.3666 -0.1474 -0.4990
  808MOL0     C 6583   5.201   1.241   7.578  0.0697 -0.1833 -0.6779
  808MOL0     C 6584   5.300   1.193   7.684  0.4070  0.3718  0.2324
  808MOL0     C 6585   5.303   1.038   7.690 -0.6841  0.6836 -0.7964
  808MOL0     C 6586   5.444   0.993   7.743  0.1218  0.3041  0.0339
  808MOL0     C 6587   5.440   1.010   7.894 -0.8446 -0.4446  0.1796
  808MOL0     C 6588   5.469   1.019   8.009  0.1862 -0.7835 -0.0289
  808MOL0     C 6589   5.131   1.421   7.357  0.0230  0.3480  0.1025
  808MOL0     C 6590   5.116   1.524   7.261 -0.0537 -0.5523  0.2981
  808MOL0     H 6591   5.184   1.848   6.831 -1.0114  0.0499 -0.4776
  808MOL0     H 6592   5.047   1.973   6.675  2.7434 -1.5602  1.3764
  808MOL0     H 6593   4.862   2.138   6.575  0.0611  1.4504 -0.8374
  808MOL0     H 6594   4.875   2.203   6.735  0.1022 -1.2480  1.3735
  808MOL0     H 6595   4.630   2.258   6.731  2.0882  1.4902  0.9942
  808MOL0     H 6596   4.610   2.180   6.575  0.1956  0.8411 -0.9889
  808MOL0     H 6597   4.733   2.312   6.452 -2.0437 -0.6640 -0.8650
  808MOL0     H 6598   4.810   2.412   6.583 -2.2228  2.4504  1.1510
  808MOL0     H 6599   4.625   2.516   6.456  0.7934 -0.9769  0.0023
  808MOL0     H 6600   4.503   2.406   6.532 -0.3375 -0.8041 -1.2078
  808MOL0     H 6601   4.695   2.592   6.686  0.8111 -0.6089 -0.3072
  808MOL0     H 6602   4.575   2.490   6.762  1.8946 -1.0607  0.3972
  808MOL0     H 6603   4.387   2.592   6.664 -1.0247  3.3004  0.1443
  808MOL0     H 6604   4.497   2.713   6.576  0.9609  0.3614 -0.3665
  808MOL0     H 6605   4.459   2.672   6.867  0.3821 -2.2785 -1.1428
  808MOL0     H 6606   4.596   2.762   6.810 -0.6858 -2.6055  3.2120
  808MOL0     H 6607   4.316   2.832   6.736 -0.5601  0.7258  0.1924
  808MOL0     H 6608   4.468   2.929   6.704 -1.2180  0.8796 -0.1198
  808MOL0     H 6609   4.316   2.775   7.038  0.3809  0.1005 -0.0206
  808MOL0     H 6610   4.340   3.042   7.301  1.7657 -1.1687  2.4226
  808MOL0     H 6611   4.405   2.882   7.304  1.2391  1.3824  0.0935
  808MOL0     H 6612   4.184   2.792   7.256  0.4093  0.1368 -0.9276
  808MOL0     H 6613   4.116   2.947   7.203 -2.3617 -2.1055  0.3209
  808MOL0     H 6614   4.184   2.842   7.476  0.6179  0.0034  0.9920
  808MOL0     H 6615   4.186   3.018   7.466  1.1712 -0.2849  0.3893
  808MOL0     H 6616   3.954   2.829   7.399  0.8505  0.2877  0.2116
  808MOL0     H 6617   3.945   3.008   7.376 -0.6698  1.5503  1.6353
  808MOL0     H 6618   3.845   2.905   7.795  1.1458  1.5928  0.1904
  808MOL0     H 6619   3.587   2.879   7.845 -1.7037 -0.3539 -0.9029
  808MOL0     H 6620   3.151   3.093   7.682  0.9888  0.9827  0.4564
  808MOL0     H 6621   2.908   3.040   7.715 -2.5326 -0.4370  1.8583
  808MOL0     H 6622   2.790   2.870   8.071  0.2181 -3.1082  1.0620
  808MOL0     H 6623   2.754   2.719   7.984 -3.5640 -0.1591 -0.4557
  808MOL0     H 6624   2.565   2.863   7.850 -1.9032 -0.2221  0.4640
  808MOL0     H 6625   2.590   2.979   7.982 -0.4423 -0.9236  2.4183
  808MOL0     H 6626   2.540   2.791   8.130  1.5969  1.4995 -0.5501
  808MOL0     H 6627   2.514   2.681   8.000  0.2928 -1.5318  3.6814
  808MOL0     H 6628   2.350   2.849   7.894  1.5882 -0.6106 -0.2110
  808MOL0     H 6629   2.281   2.757   8.027  1.8119 -1.4597 -0.5032
  808MOL0     H 6630   2.404   3.035   8.047  0.8842 -0.6432  0.2484
  808MOL0     H 6631   2.366   2.930   8.182 -1.2616  0.4820  0.8113
  808MOL0     H 6632   2.123   2.922   8.127 -1.5941  2.2862  0.4988
  808MOL0     H 6633   2.145   2.990   7.981 -0.0624 -2.6669  0.9275
  808MOL0     H 6634   2.234   3.138   8.232 -1.0847 -3.4714  1.1029
  808MOL0     H 6635   2.193   3.215   8.075  1.3593  0.5758  0.9196
  808MOL0     H 6636   1.950   3.142   8.099  1.8399  2.1573 -0.4828
  808MOL0     H 6637   2.001   3.246   8.229 -2.4372 -0.8537  1.1906
  808MOL0     H 6638   3.006   2.740   8.007 -1.2896 -2.6352 -3.0521
  808MOL0     H 6639   3.257   2.801   7.966  0.3250  0.8113  0.4610
  808MOL0     H 6640   3.507   2.933   7.429 -1.7284  2.8386  1.7240
  808MOL0     H 6641   3.741   2.957   7.380 -0.2580  1.6741  0.2679
  808MOL0     H 6642   4.716   1.929   6.950 -0.3619  0.2220  0.0252
  808MOL0     H 6643   4.876   1.807   7.104  3.4125  2.0965  1.3485
  808MOL0     H 6644   5.413   1.512   7.120 -1.2139  1.7503  0.6808
  808MOL0     H 6645   5.437   1.308   7.273  0.3824 -0.7217  3.5787
  808MOL0     H 6646   5.113   1.176   7.574  0.4387 -0.6491 -1.3640
  808MOL0     H 6647   5.177   1.344   7.604  3.0493 -0.2352  3.4150
  808MOL0     H 6648   5.400   1.228   7.656  0.4778  0.7121  0.8762
  808MOL0     H 6649   5.264   1.229   7.781  3.3549  2.2578  0.7629
  808MOL0     H 6650   5.303   1.010   7.584  1.1798 -1.4411 -0.3104
  808MOL0     H 6651   5.211   1.015   7.744 -0.3836  2.5243  0.6082
  808MOL0     H 6652   5.468   0.892   7.709  2.2614  0.8942 -0.3015
  808MOL0     H 6653   5.527   1.052   7.703  1.7858 -1.5587  0.6316
  808MOL0     H 6654   5.503   1.027   8.110 -1.9624  1.0918  0.6295
  808MOL0     H 6655   5.040   1.401   7.412  0.3075  0.7867  0.7462
  808MOL0     H 6656   5.022   1.578   7.246 -0.6598 -0.9336  2.4271
  809MOL0     O 6657   8.530   5.941   8.022  0.0384 -0.9426  0.2781
  809MOL0     C 6658   8.533   5.940   7.904 -0.5698  0.3560 -0.1978
  809MOL0     O 6659   8.625   6.007   7.834  0.0735 -0.0481  0.3608
  809MOL0     C 6660   8.736   6.058   7.889  0.3886  1.2732 -0.1056
  809MOL0     C 6661   8.849   6.010   7.824  0.1701 -0.1914 -0.4546
  809MOL0     C 6662   8.982   6.052   7.864 -0.9812 -0.4936  0.0588
  809MOL0     C 6663   8.994   6.141   7.975 -0.7289  0.3065  0.2429
  809MOL0     O 6664   9.113   6.178   8.025  0.0298 -0.0027  0.0093
  809MOL0     C 6665   9.214   6.078   8.050  0.1156  0.0861 -0.2863
  809MOL0     C 6666   9.294   6.108   8.180 -0.2328  0.2139  0.1723
  809MOL0     C 6667   9.219   6.133   8.312  0.6304  0.3252 -0.5408
  809MOL0     C 6668   9.135   6.018   8.371  0.4483 -0.2142 -0.0661
  809MOL0     C 6669   8.993   5.989   8.313  0.4314  0.1455 -0.1445
  809MOL0     C 6670   8.890   6.090   8.354 -0.3537 -0.3417  0.3963
  809MOL0     C 6671   8.833   6.070   8.494  0.2946  0.5371  0.3767
  809MOL0     C 6672   8.785   6.192   8.570  0.2316  0.3381 -0.7492
  809MOL0     N 6673   8.675   6.267   8.521  0.6871  0.2000  0.0445
  809MOL0     C 6674   8.548   6.243   8.576 -0.2896  0.3175  0.1773
  809MOL0     C 6675   8.460   6.299   8.485 -0.1444 -0.5204 -0.6088
  809MOL0     C 6676   8.316   6.287   8.494 -0.3523  0.1858 -0.1721
  809MOL0     C 6677   8.263   6.142   8.475  0.5082 -0.7780 -0.1315
  809MOL0     C 6678   8.286   6.088   8.334  0.3583 -0.1514  0.4525
  809MOL0     C 6679   8.206   5.964   8.311  0.0006  0.5049  0.1759
  809MOL0     O 6680   8.227   5.855   8.408 -0.4154  0.3998 -0.0934
  809MOL0     C 6681   8.353   5.819   8.436  0.2535 -1.2554  0.1138
  809MOL0     C 6682   8.386   5.780   8.561 -1.0315  1.0164  0.3835
  809MOL0     C 6683   8.518   5.745   8.593  0.4720  0.8670 -0.4396
  809MOL0     C 6684   8.618   5.733   8.494  0.6292 -0.9504  0.2342
  809MOL0     C 6685   8.752   5.693   8.529  0.8714  0.7119 -0.1798
  809MOL0     O 6686   8.781   5.658   8.656  0.1379 -0.3460  0.3644
  809MOL0     C 6687   8.907   5.618   8.688  0.5959  0.3159 -0.7827
  809MOL0     C 6688   9.021   5.692   8.658  0.3089 -0.5160  0.0760
  809MOL0     C 6689   9.150   5.663   8.702  0.8886 -0.0516 -0.0576
  809MOL0     C 6690   9.164   5.553   8.787 -0.1324 -0.3201  0.5374
  809MOL0     O 6691   9.287   5.503   8.830 -0.4405  0.1482 -0.9734
  809MOL0     C 6692   9.402   5.571   8.776 -0.8549  0.0578  0.0802
  809MOL0     C 6693   9.527   5.512   8.824  0.0361  0.3023  0.2978
  809MOL0     C 6694   9.640   5.538   8.723  0.6136  0.9052  0.6141
  809MOL0     C 6695   9.770   5.479   8.774  0.2539  0.3599  0.2630
  809MOL0     C 6696   9.874   5.489   8.659 -0.3876  0.1127 -0.1761
  809MOL0     C 6697  10.012   5.472   8.710  0.5574  0.2972 -1.0397
  809MOL0     C 6698  10.107   5.467   8.595 -0.0408 -0.3704  0.4241
  809MOL0     C 6699  10.258   5.447   8.629 -0.2475  0.4250 -0.8629
  809MOL0    Cl 6700  10.342   5.600   8.665 -0.6568 -0.2236  0.1729
  809MOL0     C 6701   9.054   5.469   8.809 -0.2395 -0.2624 -0.6811
  809MOL0     C 6702   8.926   5.503   8.760 -0.2471  1.1351 -0.6148
  809MOL0     O 6703   8.829   5.694   8.437  0.1308 -0.6599 -0.4610
  809MOL0     C 6704   8.588   5.778   8.364 -0.1260 -0.0798 -0.2358
  809MOL0     C 6705   8.457   5.814   8.336  0.0476 -0.0281  0.1443
  809MOL0     N 6706   8.531   6.340   8.378  0.2918 -0.3764 -0.2326
  809MOL0     N 6707   8.653   6.317   8.401 -0.4824  0.3356  0.4385
  809MOL0     C 6708   8.874   6.193   8.034  0.1472  0.5830  0.0625
  809MOL0     C 6709   8.746   6.146   8.000  0.1118 -0.0960 -0.2854
  809MOL0     C 6710   8.435   5.849   7.830 -0.2102  0.7793 -0.5123
  809MOL0     C 6711   8.332   5.787   7.903  0.7333  0.0511 -0.0577
  809MOL0     C 6712   8.244   5.704   7.836 -0.2257  0.7203  0.0911
  809MOL0     C 6713   8.260   5.673   7.703 -0.7980 -0.8353  0.4921
  809MOL0     O 6714   8.180   5.575   7.658  0.1478 -0.7702  0.1289
  809MOL0     C 6715   8.086   5.627   7.550 -0.4270 -0.5990  0.2568
  809MOL0     C 6716   7.961   5.542   7.536 -0.4522  0.3651  0.0822
  809MOL0     C 6717   8.002   5.395   7.515 -0.7395  1.0192 -0.3223
  809MOL0     C 6718   7.889   5.289   7.502  0.3002 -0.2363 -0.1135
  809MOL0     C 6719   7.765   5.323   7.570  0.4201 -0.6043 -0.1912
  809MOL0     C 6720   7.665   5.356   7.633  0.2624 -0.6093 -0.5635
  809MOL0     C 6721   8.372   5.724   7.629  0.3349  0.2963 -0.1271
  809MOL0     C 6722   8.457   5.808   7.700 -0.6112  0.3786 -0.4739
  809MOL0     H 6723   8.834   5.949   7.735  3.2595 -0.0128 -1.2353
  809MOL0     H 6724   9.069   6.004   7.820  0.0178 -0.1047  1.5369
  809MOL0     H 6725   9.284   6.066   7.967  0.9447 -0.8675  0.5012
  809MOL0     H 6726   9.175   5.980   8.081  1.7466 -0.0946  1.3796
  809MOL0     H 6727   9.344   6.204   8.165  1.1833 -0.1531  2.1248
  809MOL0     H 6728   9.363   6.024   8.193 -0.3453 -0.0983 -1.0741
  809MOL0     H 6729   9.175   6.233   8.306 -0.2251  0.0129  0.3167
  809MOL0     H 6730   9.296   6.152   8.388  0.0352  0.2470  0.0901
  809MOL0     H 6731   9.192   5.925   8.373  1.4008  0.2646 -2.2037
  809MOL0     H 6732   9.119   6.043   8.476 -0.7661 -3.6603  0.6912
  809MOL0     H 6733   8.953   5.889   8.333 -0.4308  0.3186 -0.9563
  809MOL0     H 6734   9.008   5.990   8.205 -1.2140 -2.0002 -0.4555
  809MOL0     H 6735   8.805   6.086   8.285 -1.7523  2.5465  1.7577
  809MOL0     H 6736   8.939   6.187   8.349  0.0000 -0.5059  0.6590
  809MOL0     H 6737   8.749   6.000   8.487  0.5073  0.4461 -2.3728
  809MOL0     H 6738   8.909   6.020   8.555 -3.1109 -1.9726  2.9699
  809MOL0     H 6739   8.875   6.251   8.591  0.8931 -1.9452  4.2250
  809MOL0     H 6740   8.748   6.158   8.667  0.8577  1.9198  0.0855
  809MOL0     H 6741   8.515   6.193   8.666 -1.2038  0.4573 -0.0701
  809MOL0     H 6742   8.269   6.353   8.421 -0.9888 -1.6831 -1.5116
  809MOL0     H 6743   8.275   6.314   8.592  2.1073 -0.5196  1.1268
  809MOL0     H 6744   8.156   6.148   8.497  0.3266  0.9505 -1.2609
  809MOL0     H 6745   8.304   6.079   8.554  0.4189 -1.1452 -0.3763
  809MOL0     H 6746   8.256   6.166   8.264  1.8384 -0.1892 -0.2632
  809MOL0     H 6747   8.392   6.068   8.316  0.4281  1.5785 -1.2861
  809MOL0     H 6748   8.239   5.918   8.218 -0.0940  1.0568 -0.1326
  809MOL0     H 6749   8.099   5.987   8.308 -0.7415 -2.4203  1.0287
  809MOL0     H 6750   8.308   5.784   8.637 -0.9617  1.5218  0.4371
  809MOL0     H 6751   8.529   5.731   8.700 -1.9788  0.0081 -0.2297
  809MOL0     H 6752   9.006   5.782   8.598  0.0968  0.4934  1.5772
  809MOL0     H 6753   9.229   5.722   8.656 -0.6725  0.2921 -2.4612
  809MOL0     H 6754   9.396   5.679   8.796 -3.4494  0.3882 -1.9150
  809MOL0     H 6755   9.391   5.561   8.667 -3.6895  0.7328  0.2056
  809MOL0     H 6756   9.523   5.404   8.838 -3.2079 -0.0269 -2.0650
  809MOL0     H 6757   9.547   5.550   8.925  0.3339 -1.0580  0.7691
  809MOL0     H 6758   9.654   5.645   8.711  1.6340  0.8029  0.8044
  809MOL0     H 6759   9.611   5.486   8.631  4.3381  0.2235 -0.3476
  809MOL0     H 6760   9.793   5.533   8.866 -0.4665  1.6295 -0.2688
  809MOL0     H 6761   9.747   5.374   8.794 -1.3740  0.7182  0.3893
  809MOL0     H 6762   9.869   5.590   8.617 -1.7523 -0.3781 -1.3008
  809MOL0     H 6763   9.851   5.410   8.587  0.4261 -3.0362  2.7331
  809MOL0     H 6764  10.018   5.380   8.768 -1.9518 -0.0752 -1.2662
  809MOL0     H 6765  10.037   5.556   8.776  2.1397  0.7264 -2.1231
  809MOL0     H 6766  10.086   5.371   8.547  0.7011 -1.6028  2.3938
  809MOL0     H 6767  10.101   5.549   8.524  2.6474 -0.5263 -0.0904
  809MOL0     H 6768  10.305   5.417   8.535  1.3373 -0.6307  0.2179
  809MOL0     H 6769  10.262   5.368   8.705  0.7625  1.4528  0.2036
  809MOL0     H 6770   9.075   5.380   8.867 -0.6402  0.0406 -0.0731
  809MOL0     H 6771   8.835   5.445   8.775  0.8162 -1.1309 -2.2612
  809MOL0     H 6772   8.660   5.781   8.282 -0.0905 -2.4676 -0.3853
  809MOL0     H 6773   8.438   5.831   8.230 -1.0852 -2.3087 -0.0863
  809MOL0     H 6774   8.902   6.264   8.111 -0.1397 -1.0638  1.7683
  809MOL0     H 6775   8.663   6.169   8.066  0.1451  0.8575 -0.5579
  809MOL0     H 6776   8.328   5.801   8.011  3.0344  3.0017 -0.2320
  809MOL0     H 6777   8.155   5.664   7.884  0.3282  1.9982  2.3588
  809MOL0     H 6778   8.144   5.636   7.458  1.2396 -0.9040  1.2228
  809MOL0     H 6779   8.038   5.719   7.583 -1.1142 -0.7722 -0.2492
  809MOL0     H 6780   7.905   5.548   7.630 -0.2363 -0.5613  0.2836
  809MOL0     H 6781   7.906   5.586   7.452  1.9140  0.1830 -1.6696
  809MOL0     H 6782   8.074   5.359   7.589  0.2403  0.1097 -1.6628
  809MOL0     H 6783   8.039   5.384   7.412  0.6781 -1.0206  0.3501
  809MOL0     H 6784   7.865   5.289   7.396 -1.7254 -0.5057  0.2961
  809MOL0     H 6785   7.930   5.193   7.535  1.0326 -0.5274 -1.8105
  809MOL0     H 6786   7.581   5.373   7.697  0.4377  2.2345 -0.9803
  809MOL0     H 6787   8.387   5.699   7.525  2.7495  0.3941  0.1500
  809MOL0     H 6788   8.545   5.840   7.645  0.3162 -2.4103 -0.7243
  810MOL0     O 6789   4.331   9.801   8.128  0.7381 -1.1180  0.2954
  810MOL0     C 6790   4.399   9.860   8.039  0.6936  0.6082  0.1295
  810MOL0     O 6791   4.360   9.940   7.936  0.1871  0.6361 -0.2408
  810MOL0     C 6792   4.229   9.938   7.902  0.9225  0.1378  0.7116
  810MOL0     C 6793   4.176   9.845   7.809  0.8051  0.1015 -0.6922
  810MOL0     C 6794   4.045   9.864   7.760  0.1867 -0.7293  0.6896
  810MOL0     C 6795   3.961   9.965   7.816  0.0244  0.0574  0.1922
  810MOL0     O 6796   3.829   9.967   7.773 -0.4929 -0.0873 -0.3988
  810MOL0     C 6797   3.724  10.000   7.870  0.7174 -0.2508 -0.1085
  810MOL0     C 6798   3.583   9.974   7.802 -0.4629  0.0473  0.1767
  810MOL0     C 6799   3.480   9.967   7.910  0.3564 -0.7980 -0.2139
  810MOL0     C 6800   3.343   9.945   7.853 -0.7663 -0.0176  0.2617
  810MOL0     C 6801   3.237   9.956   7.966 -0.7676 -0.5836  0.4136
  810MOL0     C 6802   3.093   9.956   7.904 -0.3990  0.3199 -0.5632
  810MOL0     C 6803   2.975   9.964   8.006  0.1319 -0.5742 -0.2358
  810MOL0     C 6804   2.964   9.839   8.090  0.1735  1.0535 -0.1368
  810MOL0     N 6805   2.826   9.829   8.159 -0.1709  0.6084 -0.5462
  810MOL0     C 6806   2.716   9.770   8.105  0.0797  0.3461 -0.1245
  810MOL0     C 6807   2.611   9.804   8.183  0.1658 -0.0670 -0.3817
  810MOL0     C 6808   2.468   9.765   8.167 -0.2770 -0.1813  0.3921
  810MOL0     C 6809   2.451   9.618   8.115 -0.3389  0.2118  0.9133
  810MOL0     C 6810   2.303   9.593   8.071 -0.2539 -0.6409  0.4024
  810MOL0     C 6811   2.274   9.491   7.958  0.4761  0.3150 -1.1177
  810MOL0     O 6812   2.213   9.373   8.016  0.3557 -0.1542 -0.3721
  810MOL0     C 6813   2.081   9.364   8.052 -0.4005 -0.7598 -0.2919
  810MOL0     C 6814   2.028   9.238   8.078 -0.1814  0.7823  0.4200
  810MOL0     C 6815   1.894   9.215   8.104  0.6594 -0.5177  0.0122
  810MOL0     C 6816   1.808   9.331   8.110  1.2476  0.2011  0.0529
  810MOL0     C 6817   1.663   9.308   8.150  0.3290 -0.1187 -0.3055
  810MOL0     O 6818   1.585   9.422   8.174 -0.3689  0.5982 -0.9327
  810MOL0     C 6819   1.458   9.410   8.226 -0.1494  0.2602 -0.2004
  810MOL0     C 6820   1.435   9.396   8.369  0.1478  0.3201  0.8867
  810MOL0     C 6821   1.307   9.376   8.415 -1.2056 -0.2045  0.1989
  810MOL0     C 6822   1.199   9.364   8.325 -0.1748  0.3526  0.3529
  810MOL0     O 6823   1.070   9.369   8.355 -0.3056 -0.2010  0.0194
  810MOL0     C 6824   1.037   9.282   8.462 -0.7830 -0.4001  0.1413
  810MOL0     C 6825   0.886   9.258   8.469 -0.6981 -0.0395  0.2558
  810MOL0     C 6826   0.823   9.216   8.330 -0.5315  0.2124 -0.8936
  810MOL0     C 6827   0.675   9.201   8.361  1.4139  0.8300 -0.0081
  810MOL0     C 6828   0.594   9.146   8.235  0.3505 -0.9068  0.3186
  810MOL0     C 6829   0.454   9.097   8.262  0.2586 -0.8954  0.2621
  810MOL0     C 6830   0.389   9.183   8.361 -0.1755 -0.1706 -0.9869
  810MOL0     C 6831   0.234   9.158   8.364  0.4589 -0.2737  0.2461
  810MOL0    Cl 6832   0.162   9.316   8.399  0.0656  0.4015 -0.0749
  810MOL0     C 6833   1.215   9.386   8.188  0.8467  0.0754 -1.0596
  810MOL0     C 6834   1.348   9.402   8.138 -0.7367 -0.0128  0.5168
  810MOL0     O 6835   1.631   9.194   8.175 -0.4212  0.4895 -0.0791
  810MOL0     C 6836   1.858   9.451   8.082  0.6111 -0.9043 -1.1192
  810MOL0     C 6837   1.994   9.476   8.051 -0.6163  0.1113 -0.4671
  810MOL0     N 6838   2.662   9.887   8.288 -0.2490 -0.1697 -0.0593
  810MOL0     N 6839   2.790   9.895   8.269 -0.0528  0.4161 -0.9144
  810MOL0     C 6840   4.015  10.057   7.907  0.1527  0.0607 -0.5109
  810MOL0     C 6841   4.159  10.050   7.940 -1.0666 -0.4497 -0.1268
  810MOL0     C 6842   4.541   9.830   8.054 -0.2000  0.5519 -0.5565
  810MOL0     C 6843   4.591   9.765   8.166  0.6852  1.0669 -0.2460
  810MOL0     C 6844   4.728   9.725   8.164  0.8298 -0.2803  0.0240
  810MOL0     C 6845   4.820   9.752   8.062  0.3581 -0.1126 -0.2280
  810MOL0     O 6846   4.942   9.696   8.076 -0.2956 -0.1948  0.3656
  810MOL0     C 6847   5.041   9.738   7.983  0.0886  0.2006 -0.0305
  810MOL0     C 6848   5.182   9.728   8.051 -0.6603 -0.4812 -0.3304
  810MOL0     C 6849   5.282   9.790   7.964 -0.8976  1.2622 -0.0512
  810MOL0     C 6850   5.426   9.807   8.033  0.5825  0.2107 -0.3208
  810MOL0     C 6851   5.489   9.693   8.084 -0.3973  0.8071 -0.0863
  810MOL0     C 6852   5.541   9.585   8.117 -0.2482  0.2798  0.0803
  810MOL0     C 6853   4.764   9.826   7.955 -0.5794  0.2704  0.0929
  810MOL0     C 6854   4.629   9.863   7.953  0.6179  0.0295  1.0283
  810MOL0     H 6855   4.229   9.756   7.775 -0.3244  0.2108 -2.8505
  810MOL0     H 6856   4.004   9.788   7.695  0.9435 -1.5084  1.0967
  810MOL0     H 6857   3.739  10.106   7.894 -2.1412  0.4287 -0.9714
  810MOL0     H 6858   3.737   9.947   7.965 -0.1025  1.8637  1.2506
  810MOL0     H 6859   3.568   9.877   7.754 -0.1478 -0.1207  0.4119
  810MOL0     H 6860   3.563  10.048   7.724 -2.7215 -1.0054 -0.3217
  810MOL0     H 6861   3.482  10.057   7.972  2.7614  0.7666 -2.3959
  810MOL0     H 6862   3.504   9.886   7.979  1.6543 -0.3543 -0.1187
  810MOL0     H 6863   3.315  10.021   7.781 -0.6800  0.3084  0.5689
  810MOL0     H 6864   3.339   9.843   7.814  2.6663 -1.9119  4.0822
  810MOL0     H 6865   3.248  10.049   8.022 -0.1888  0.5545 -1.5193
  810MOL0     H 6866   3.234   9.876   8.041 -1.5634 -0.7054  0.2592
  810MOL0     H 6867   3.084   9.859   7.854  0.7393  0.7751 -1.7038
  810MOL0     H 6868   3.083  10.032   7.826 -0.4665  0.1643 -0.7068
  810MOL0     H 6869   2.980  10.057   8.064 -0.0684 -0.6556 -0.0889
  810MOL0     H 6870   2.886   9.973   7.943  0.0544  1.1007  0.0744
  810MOL0     H 6871   3.037   9.840   8.171  0.4593  0.7732 -0.3885
  810MOL0     H 6872   2.969   9.756   8.019  0.8128  3.1697 -2.7119
  810MOL0     H 6873   2.706   9.710   8.015  0.5316 -2.0297  1.3136
  810MOL0     H 6874   2.424   9.834   8.094  1.6096  2.6745  1.7917
  810MOL0     H 6875   2.406   9.779   8.256 -1.3713  0.4725 -0.4377
  810MOL0     H 6876   2.488   9.546   8.188  1.7574 -0.1850 -0.4393
  810MOL0     H 6877   2.502   9.595   8.021 -3.4825  3.4876 -1.9001
  810MOL0     H 6878   2.241   9.573   8.159 -0.0096  1.0535  0.9817
  810MOL0     H 6879   2.273   9.692   8.036  2.1020 -0.1208 -0.2948
  810MOL0     H 6880   2.362   9.474   7.896  2.2694 -0.5511  1.4620
  810MOL0     H 6881   2.202   9.540   7.892 -0.6459 -2.1127 -1.7853
  810MOL0     H 6882   2.095   9.154   8.067  0.2885  1.4725 -2.8420
  810MOL0     H 6883   1.866   9.113   8.123  0.1067 -0.1654  1.1592
  810MOL0     H 6884   1.515   9.401   8.442 -1.0290  0.6401  2.2088
  810MOL0     H 6885   1.290   9.391   8.521  1.8484  1.1860  0.5849
  810MOL0     H 6886   1.061   9.331   8.556 -3.8745  2.9440 -0.5761
  810MOL0     H 6887   1.093   9.189   8.449  2.3707  1.6013 -2.3790
  810MOL0     H 6888   0.839   9.349   8.507  0.1863  1.0852 -1.2227
  810MOL0     H 6889   0.873   9.172   8.535  1.4096 -0.5042  0.1241
  810MOL0     H 6890   0.853   9.122   8.282 -2.2768  0.2828 -2.2061
  810MOL0     H 6891   0.838   9.303   8.266 -2.9048  1.7276  0.4973
  810MOL0     H 6892   0.672   9.120   8.435 -0.3055  0.5956 -0.3125
  810MOL0     H 6893   0.637   9.294   8.402  0.4268 -0.0067  1.0262
  810MOL0     H 6894   0.651   9.066   8.187 -2.8390 -2.6890 -0.8031
  810MOL0     H 6895   0.574   9.229   8.167 -1.2436  1.7695  3.7556
  810MOL0     H 6896   0.470   8.997   8.305 -0.8325 -1.1785  0.0221
  810MOL0     H 6897   0.391   9.095   8.173  0.0336 -0.0675  0.3955
  810MOL0     H 6898   0.443   9.171   8.455  2.0475 -0.0565 -2.1760
  810MOL0     H 6899   0.397   9.288   8.328 -0.0396 -0.5758 -2.2988
  810MOL0     H 6900   0.209   9.102   8.454  1.8587  0.3278  1.0395
  810MOL0     H 6901   0.188   9.117   8.273  0.6553 -0.7740  0.3709
  810MOL0     H 6902   1.136   9.404   8.117  1.9715  0.4008 -2.2766
  810MOL0     H 6903   1.355   9.409   8.030  1.1514  0.2549  0.6385
  810MOL0     H 6904   1.793   9.538   8.085 -0.2113 -1.5201 -0.0110
  810MOL0     H 6905   2.032   9.574   8.025  1.6136 -0.8783 -1.2066
  810MOL0     H 6906   3.956  10.142   7.939  0.0883  0.6321 -2.0808
  810MOL0     H 6907   4.219  10.127   7.985  0.7560 -0.0666 -2.9293
  810MOL0     H 6908   4.528   9.732   8.247  1.4565 -0.5394 -0.2531
  810MOL0     H 6909   4.764   9.669   8.250 -0.2650  2.3089  2.3270
  810MOL0     H 6910   5.026   9.844   7.962  1.3852  0.4921  0.4109
  810MOL0     H 6911   5.043   9.667   7.899  1.8178 -0.0311  0.1670
  810MOL0     H 6912   5.177   9.783   8.146  0.8857 -0.4990 -0.2170
  810MOL0     H 6913   5.202   9.624   8.075  0.4911 -0.1923  0.0124
  810MOL0     H 6914   5.259   9.884   7.913 -4.3120 -1.1204 -3.4786
  810MOL0     H 6915   5.307   9.720   7.884  1.8177 -1.5772  2.9262
  810MOL0     H 6916   5.483   9.843   7.946 -0.1264 -1.2999 -1.4576
  810MOL0     H 6917   5.431   9.884   8.111  1.2772 -0.5255  0.3815
  810MOL0     H 6918   5.577   9.491   8.154 -1.3522 -0.1670  0.0731
  810MOL0     H 6919   4.828   9.861   7.875 -1.2800 -0.2752 -0.7140
  810MOL0     H 6920   4.601   9.913   7.861  0.9033 -1.1951  0.2557
  811MOL0     O 6921   6.412  10.293   2.796 -0.6227  0.0572  0.0086
  811MOL0     C 6922   6.424  10.200   2.874  0.5830 -0.0959  0.4268
  811MOL0     O 6923   6.318  10.135   2.930  0.4355 -0.2195 -0.0759
  811MOL0     C 6924   6.190  10.167   2.905  0.7532 -0.1574 -0.0655
  811MOL0     C 6925   6.124  10.288   2.861 -0.8484  0.1668  0.0061
  811MOL0     C 6926   5.985  10.298   2.843  0.4969  0.1387 -0.6025
  811MOL0     C 6927   5.906  10.182   2.861 -0.0637 -0.8204  0.0714
  811MOL0     O 6928   5.772  10.175   2.823 -0.1812 -0.1543  0.7851
  811MOL0     C 6929   5.708  10.302   2.798  0.2915 -0.1680  0.0330
  811MOL0     C 6930   5.551  10.282   2.804 -1.3364 -0.0296  0.3858
  811MOL0     C 6931   5.494  10.227   2.677  0.0171 -0.8846 -0.5855
  811MOL0     C 6932   5.376  10.126   2.691  0.0914 -0.4057  0.2111
  811MOL0     C 6933   5.266  10.180   2.790 -0.5015  0.3617  0.5537
  811MOL0     C 6934   5.209  10.308   2.726  0.0701 -0.9512  0.4358
  811MOL0     C 6935   5.080  10.357   2.796 -0.5611 -0.6341 -0.5136
  811MOL0     C 6936   4.953  10.288   2.740 -0.5620 -0.2075  0.1228
  811MOL0     N 6937   4.837  10.352   2.792  0.1264 -0.1071  0.6881
  811MOL0     C 6938   4.750  10.433   2.710 -0.3016  0.2002 -0.6504
  811MOL0     C 6939   4.645  10.455   2.794 -0.1941  0.4260  0.8752
  811MOL0     C 6940   4.528  10.542   2.759  0.6903  0.4720  0.8168
  811MOL0     C 6941   4.464  10.519   2.622 -0.8666 -0.7631 -0.1357
  811MOL0     C 6942   4.371  10.403   2.614 -0.0565  0.1059 -0.0820
  811MOL0     C 6943   4.305  10.387   2.471 -0.4091 -0.1067 -0.6117
  811MOL0     O 6944   4.252  10.516   2.433  0.1323 -0.2888 -0.1811
  811MOL0     C 6945   4.156  10.576   2.512  0.2191 -0.5600  0.6304
  811MOL0     C 6946   4.114  10.701   2.473  0.8403  0.0747  0.2436
  811MOL0     C 6947   4.003  10.765   2.526  0.0121 -0.5973  0.4097
  811MOL0     C 6948   3.928  10.708   2.630 -0.4180 -0.1390 -0.3566
  811MOL0     C 6949   3.806  10.765   2.686 -0.4854 -0.3032 -0.9535
  811MOL0     O 6950   3.713  10.686   2.750  0.2606  0.5759  1.3771
  811MOL0     C 6951   3.591  10.742   2.792  0.1709 -0.4128 -0.0754
  811MOL0     C 6952   3.581  10.867   2.859  0.9952 -0.0519 -0.1638
  811MOL0     C 6953   3.454  10.911   2.900 -1.2849  0.0309 -0.4069
  811MOL0     C 6954   3.346  10.832   2.895  0.5216 -0.1177 -0.1201
  811MOL0     O 6955   3.226  10.892   2.933 -0.3442  0.2925  0.3826
  811MOL0     C 6956   3.131  10.912   2.827 -0.5231  0.1376  0.0776
  811MOL0     C 6957   3.152  11.049   2.763 -0.5737  0.0208 -0.1880
  811MOL0     C 6958   3.144  11.046   2.611  0.1883  0.9124  0.4923
  811MOL0     C 6959   3.009  10.988   2.561  0.7359 -0.1779  0.0236
  811MOL0     C 6960   2.891  11.070   2.623 -0.5050 -0.0314 -0.3049
  811MOL0     C 6961   2.756  11.027   2.569  0.3732  0.2200 -0.4900
  811MOL0     C 6962   2.633  11.086   2.650  0.2708 -0.0259  0.7603
  811MOL0     C 6963   2.500  11.033   2.608  0.5059 -1.0195 -0.0827
  811MOL0    Cl 6964   2.379  11.145   2.673  0.4291 -0.2391  0.0154
  811MOL0     C 6965   3.347  10.707   2.848 -1.1472  0.0321  0.9022
  811MOL0     C 6966   3.475  10.662   2.794  0.6495 -0.0987  0.2280
  811MOL0     O 6967   3.802  10.888   2.672 -0.4516 -0.0964 -0.1250
  811MOL0     C 6968   3.974  10.584   2.680  0.3128  0.3436  0.4363
  811MOL0     C 6969   4.081  10.515   2.617 -0.1346  0.5637 -0.3042
  811MOL0     N 6970   4.661  10.388   2.916 -0.0141  0.1646  0.3353
  811MOL0     N 6971   4.779  10.328   2.915 -0.1575  0.4923 -0.2070
  811MOL0     C 6972   5.971  10.065   2.902 -0.5688  0.6834  0.2435
  811MOL0     C 6973   6.107  10.061   2.924  0.0448  0.2980 -0.2105
  811MOL0     C 6974   6.556  10.178   2.927 -0.1421 -0.4325  1.0203
  811MOL0     C 6975   6.667  10.242   2.868  0.6706  0.3223 -0.3576
  811MOL0     C 6976   6.792  10.228   2.911  0.2911 -0.3244  0.9653
  811MOL0     C 6977   6.811  10.140   3.017 -0.5644 -0.0291 -0.6834
  811MOL0     O 6978   6.941  10.103   3.057 -0.0122 -0.7631 -0.1152
  811MOL0     C 6979   7.004  10.200   3.143  0.6974 -0.6730 -0.8973
  811MOL0     C 6980   7.152  10.223   3.086 -0.7684 -0.1714  0.0908
  811MOL0     C 6981   7.231  10.326   3.170  1.0204 -0.1671  0.1395
  811MOL0     C 6982   7.296  10.432   3.087 -0.0694  0.2982  0.2469
  811MOL0     C 6983   7.201  10.533   3.029  0.1596  0.2346  0.1603
  811MOL0     C 6984   7.109  10.597   2.993  0.3813 -0.2575  0.2835
  811MOL0     C 6985   6.711  10.075   3.090  0.0540  0.0787  0.7124
  811MOL0     C 6986   6.579  10.105   3.051  0.2686  0.6772 -0.0431
  811MOL0     H 6987   6.174  10.384   2.854  0.3730 -0.3835  0.8639
  811MOL0     H 6988   5.941  10.387   2.799 -0.7914 -0.5231 -0.6916
  811MOL0     H 6989   5.736  10.344   2.700  1.7745  1.1058  0.9600
  811MOL0     H 6990   5.730  10.380   2.871 -1.8359 -1.1697  1.8445
  811MOL0     H 6991   5.519  10.385   2.822  0.0378  0.7406 -1.1823
  811MOL0     H 6992   5.522  10.228   2.894  0.2126  2.9131  2.8667
  811MOL0     H 6993   5.575  10.181   2.620  1.1090  1.5499 -1.1296
  811MOL0     H 6994   5.465  10.319   2.626  1.1072 -0.6072 -0.7302
  811MOL0     H 6995   5.329  10.106   2.595  3.2264 -1.6560 -1.2178
  811MOL0     H 6996   5.410  10.029   2.729  1.4910  0.2035  0.5823
  811MOL0     H 6997   5.294  10.208   2.892 -0.6592  1.7149  0.2375
  811MOL0     H 6998   5.184  10.108   2.786 -2.0173  2.0357 -0.0380
  811MOL0     H 6999   5.188  10.291   2.620  2.1374  0.9429 -0.3430
  811MOL0     H 7000   5.289  10.383   2.726  0.2259 -1.1173  0.8758
  811MOL0     H 7001   5.075  10.334   2.903 -1.6689 -0.8735 -0.6063
  811MOL0     H 7002   5.075  10.466   2.782  0.8158 -0.6277 -1.0449
  811MOL0     H 7003   4.954  10.187   2.780 -0.1365  1.0589  3.6843
  811MOL0     H 7004   4.946  10.294   2.631 -2.0442  0.5028  0.2194
  811MOL0     H 7005   4.761  10.462   2.606 -1.1369 -0.2363 -0.8641
  811MOL0     H 7006   4.560  10.646   2.774  1.0495  0.2971  1.2935
  811MOL0     H 7007   4.457  10.526   2.841 -0.0949 -2.5300 -0.3271
  811MOL0     H 7008   4.545  10.496   2.552  1.0662  1.4400  1.2289
  811MOL0     H 7009   4.412  10.611   2.594 -0.1473 -1.0612 -2.6876
  811MOL0     H 7010   4.443  10.323   2.632  0.7000  0.5709 -0.9728
  811MOL0     H 7011   4.295  10.396   2.693 -1.2999  1.2970 -1.1359
  811MOL0     H 7012   4.218  10.322   2.479 -0.8765 -0.0650 -4.1298
  811MOL0     H 7013   4.379  10.356   2.397 -2.8083 -1.3104 -2.6285
  811MOL0     H 7014   4.171  10.752   2.397  1.2669 -0.2835  0.3185
  811MOL0     H 7015   3.983  10.868   2.495  3.6843  0.8374  2.2107
  811MOL0     H 7016   3.669  10.929   2.876  2.3267 -2.3587  2.0297
  811MOL0     H 7017   3.447  11.014   2.934 -0.0985 -0.1096  0.3643
  811MOL0     H 7018   3.029  10.927   2.863 -0.2023  3.1396  0.0394
  811MOL0     H 7019   3.132  10.831   2.754  1.4483  1.0443 -1.0020
  811MOL0     H 7020   3.252  11.082   2.791  0.8705 -2.3031 -2.2071
  811MOL0     H 7021   3.088  11.126   2.807 -1.9277 -1.5352  0.6741
  811MOL0     H 7022   3.219  10.984   2.561 -0.9008  1.0093 -1.3676
  811MOL0     H 7023   3.151  11.146   2.567  0.9217 -0.0167 -1.6400
  811MOL0     H 7024   2.998  11.004   2.453 -1.4942  1.3181  0.4068
  811MOL0     H 7025   2.997  10.883   2.586  1.7226 -0.7108 -1.5810
  811MOL0     H 7026   2.916  11.175   2.604  1.0197 -0.3880 -0.3704
  811MOL0     H 7027   2.876  11.058   2.730 -2.3249 -1.4207 -0.6651
  811MOL0     H 7028   2.744  10.918   2.570  0.0610  0.2623  0.2576
  811MOL0     H 7029   2.748  11.072   2.469 -0.9285 -0.9901 -0.9638
  811MOL0     H 7030   2.652  11.054   2.753  0.3279 -2.1404  0.1544
  811MOL0     H 7031   2.631  11.195   2.657 -0.7376 -0.0482  0.8843
  811MOL0     H 7032   2.488  10.935   2.655  1.6316 -0.8789  0.5413
  811MOL0     H 7033   2.492  11.020   2.500 -2.6431 -0.4147 -0.0103
  811MOL0     H 7034   3.260  10.642   2.855  0.8766 -3.1173 -0.6534
  811MOL0     H 7035   3.478  10.564   2.747 -0.1352 -0.0807  0.1316
  811MOL0     H 7036   3.932  10.524   2.760 -1.8929  0.2861 -0.6776
  811MOL0     H 7037   4.093  10.414   2.653  1.4409  0.9212  0.2631
  811MOL0     H 7038   5.913   9.975   2.921 -1.7883  0.5954 -3.0833
  811MOL0     H 7039   6.162   9.974   2.959 -0.6620 -0.2531 -0.4496
  811MOL0     H 7040   6.653  10.287   2.770  2.4048  1.0970 -0.2781
  811MOL0     H 7041   6.881  10.261   2.858 -0.6929  0.5160 -0.2005
  811MOL0     H 7042   7.005  10.152   3.241  1.2066  0.2963 -0.4178
  811MOL0     H 7043   6.955  10.298   3.146  2.6047  0.4493 -3.3251
  811MOL0     H 7044   7.209  10.131   3.101 -2.1147 -0.8503  1.3140
  811MOL0     H 7045   7.153  10.240   2.978  0.1535 -1.6858 -0.1831
  811MOL0     H 7046   7.309  10.275   3.227 -0.6969 -2.7238  0.3767
  811MOL0     H 7047   7.156  10.364   3.240 -1.7601 -1.6700 -1.8363
  811MOL0     H 7048   7.362  10.489   3.153  0.2475  1.5402 -1.1158
  811MOL0     H 7049   7.361  10.390   3.010  1.9023  0.3138  1.8068
  811MOL0     H 7050   7.032  10.660   2.954  0.0900  0.0386  1.2922
  811MOL0     H 7051   6.732  10.011   3.175  0.0232 -1.3632 -0.3326
  811MOL0     H 7052   6.499  10.057   3.107 -1.8373  2.8269 -0.9985
  812MOL0     O 7053   0.503  10.467   2.983  0.1217  0.1177  1.0829
  812MOL0     C 7054   0.489  10.570   2.918  0.3104 -0.6654 -0.4042
  812MOL0     O 7055   0.361  10.618   2.871  0.0079  0.2562 -0.0624
  812MOL0     C 7056   0.259  10.525   2.856  0.7536  0.9630  0.2845
  812MOL0     C 7057   0.130  10.567   2.880  0.3488 -0.4403  0.1455
  812MOL0     C 7058   0.019  10.489   2.843  0.5471 -0.3086 -0.0216
  812MOL0     C 7059   0.037  10.367   2.773 -0.0934  0.3082  0.0227
  812MOL0     O 7060  -0.058  10.293   2.714 -0.7355  0.0227 -1.1854
  812MOL0     C 7061  -0.192  10.338   2.731  0.9174 -0.7627  0.3038
  812MOL0     C 7062  -0.282  10.258   2.643 -0.1127 -0.7278  0.3140
  812MOL0     C 7063  -0.429  10.299   2.646 -0.6241 -0.2274 -0.1780
  812MOL0     C 7064  -0.516  10.179   2.605  0.4687 -0.0463  0.6561
  812MOL0     C 7065  -0.660  10.228   2.559  0.4075 -0.2149 -0.2749
  812MOL0     C 7066  -0.735  10.257   2.692  0.1399  0.3128  0.3595
  812MOL0     C 7067  -0.876  10.304   2.670 -0.3843  0.2007 -0.5799
  812MOL0     C 7068  -0.959  10.294   2.789  0.3827 -0.0293 -0.6648
  812MOL0     N 7069  -1.101  10.321   2.764 -0.1227  0.2796  0.2564
  812MOL0     C 7070  -1.198  10.225   2.750 -0.1092  0.2600  0.8991
  812MOL0     C 7071  -1.295  10.269   2.677  0.5298 -0.3670  0.3785
  812MOL0     C 7072  -1.418  10.180   2.656 -0.1976 -0.8844  0.7460
  812MOL0     C 7073  -1.376  10.038   2.634  0.6446  0.5224  0.4761
  812MOL0     C 7074  -1.294  10.007   2.499 -0.1091  1.1759 -0.3855
  812MOL0     C 7075  -1.390  10.023   2.382 -0.0958 -1.1103 -1.1770
  812MOL0     O 7076  -1.505   9.936   2.400 -0.4106  0.1476 -0.1308
  812MOL0     C 7077  -1.629   9.981   2.355  0.1956 -0.2634 -0.3807
  812MOL0     C 7078  -1.647  10.091   2.262  0.0891 -0.1302 -0.3238
  812MOL0     C 7079  -1.781  10.116   2.227 -0.2367 -0.1768 -0.1290
  812MOL0     C 7080  -1.889  10.038   2.278 -0.6353  0.0784  0.0886
  812MOL0     C 7081  -2.027  10.070   2.242 -0.4794 -0.0143  0.7555
  812MOL0     O 7082  -2.108   9.967   2.270  0.8826  0.3075 -0.0656
  812MOL0     C 7083  -2.251   9.970   2.245 -0.6930  0.2075  0.4976
  812MOL0     C 7084  -2.325  10.090   2.207 -0.6672  0.5666  0.1700
  812MOL0     C 7085  -2.457  10.079   2.170 -0.0930 -0.5647 -0.6407
  812MOL0     C 7086  -2.524   9.961   2.178  0.4615 -0.3262  0.4888
  812MOL0     O 7087  -2.649   9.956   2.124  0.7816  0.9247  0.1370
  812MOL0     C 7088  -2.713   9.826   2.111  0.3565 -0.1200  0.3325
  812MOL0     C 7089  -2.853   9.854   2.059 -0.0652 -0.4083  0.1618
  812MOL0     C 7090  -2.946   9.726   2.053 -0.4308 -0.6569  0.0509
  812MOL0     C 7091  -3.086   9.786   2.017 -0.0873 -0.4332  0.7204
  812MOL0     C 7092  -3.187   9.672   2.011  0.0234  0.3808 -0.9083
  812MOL0     C 7093  -3.327   9.738   1.988  0.2235  0.5261 -0.4046
  812MOL0     C 7094  -3.436   9.625   1.981 -0.3064 -0.5445 -0.5503
  812MOL0     C 7095  -3.556   9.697   1.917  0.2783  0.1948  0.1013
  812MOL0    Cl 7096  -3.704   9.602   1.938  0.4124  0.1625  0.2583
  812MOL0     C 7097  -2.456   9.846   2.223 -0.2092 -0.1495 -0.1998
  812MOL0     C 7098  -2.319   9.852   2.262  0.3564  0.4217  0.1529
  812MOL0     O 7099  -2.049  10.167   2.168  0.5346 -0.0097 -0.2320
  812MOL0     C 7100  -1.864   9.938   2.369 -0.1132  2.0480 -0.3573
  812MOL0     C 7101  -1.731   9.915   2.410  0.4859 -0.1510  0.2489
  812MOL0     N 7102  -1.264  10.402   2.645 -0.2245 -0.1004  0.9770
  812MOL0     N 7103  -1.150  10.429   2.702  0.1596 -0.8046  0.1153
  812MOL0     C 7104   0.169  10.323   2.744  0.2217  0.1830  0.3076
  812MOL0     C 7105   0.279  10.406   2.776  0.6936  0.3733 -0.1267
  812MOL0     C 7106   0.607  10.655   2.891 -0.4493 -0.4856 -0.0477
  812MOL0     C 7107   0.738  10.611   2.920  0.1149 -0.9111 -0.0416
  812MOL0     C 7108   0.844  10.705   2.909 -0.2093  0.4763  0.2394
  812MOL0     C 7109   0.826  10.839   2.863  0.2359 -0.0367  0.0631
  812MOL0     O 7110   0.929  10.936   2.850 -0.2627  0.2324 -0.5389
  812MOL0     C 7111   1.064  10.901   2.853 -0.4075  0.0997  0.3572
  812MOL0     C 7112   1.127  10.952   2.980  0.4777  0.1162  0.4529
  812MOL0     C 7113   1.283  10.958   2.965  0.3711  0.3794 -0.1330
  812MOL0     C 7114   1.348  10.841   2.886 -0.4348  0.4209 -0.4936
  812MOL0     C 7115   1.496  10.852   2.911  0.2196  0.1651 -0.0994
  812MOL0     C 7116   1.617  10.838   2.921  0.6465  0.1567 -1.0270
  812MOL0     C 7117   0.701  10.872   2.841  0.3276 -0.1812  0.0852
  812MOL0     C 7118   0.590  10.790   2.852  0.2644  0.4749 -0.2825
  812MOL0     H 7119   0.122  10.668   2.921 -2.0821 -0.7523  0.5973
  812MOL0     H 7120  -0.078  10.532   2.863  2.0179  2.3045  2.0837
  812MOL0     H 7121  -0.199  10.443   2.703  1.4532 -0.6569  0.5460
  812MOL0     H 7122  -0.232  10.324   2.832 -3.6501  1.7490 -0.9087
  812MOL0     H 7123  -0.276  10.156   2.681  3.0156  0.0090  2.2433
  812MOL0     H 7124  -0.246  10.267   2.541  0.3535 -3.1624  0.2057
  812MOL0     H 7125  -0.450  10.390   2.590 -1.5212 -0.3919 -0.1240
  812MOL0     H 7126  -0.456  10.332   2.747  0.0056  3.2850 -1.0214
  812MOL0     H 7127  -0.467  10.119   2.528  1.3442 -0.0840  1.2205
  812MOL0     H 7128  -0.520  10.111   2.690 -0.1514  0.3610  0.9580
  812MOL0     H 7129  -0.712  10.147   2.508 -4.8665  0.8131  2.7981
  812MOL0     H 7130  -0.661  10.312   2.489  3.0117 -0.4750 -0.7432
  812MOL0     H 7131  -0.699  10.343   2.750  0.2516  0.7329 -0.3281
  812MOL0     H 7132  -0.726  10.163   2.747  1.0894 -0.5859 -1.2692
  812MOL0     H 7133  -0.860  10.408   2.639  1.6134 -0.6875 -2.8649
  812MOL0     H 7134  -0.929  10.251   2.591 -1.3132 -1.1302  0.8879
  812MOL0     H 7135  -0.927  10.344   2.881 -0.8364 -2.6366  1.3104
  812MOL0     H 7136  -0.960  10.189   2.821 -1.5130  0.4268  1.0281
  812MOL0     H 7137  -1.194  10.128   2.798  1.2394  0.8302  2.0023
  812MOL0     H 7138  -1.489  10.218   2.582  2.2952  2.0661 -0.3791
  812MOL0     H 7139  -1.481  10.201   2.742 -1.8449  4.9289 -1.4104
  812MOL0     H 7140  -1.466   9.976   2.627  1.0102 -0.2278  1.9749
  812MOL0     H 7141  -1.319   9.999   2.719 -1.3195 -0.9061  1.2344
  812MOL0     H 7142  -1.201  10.063   2.496 -1.1214  3.0222  0.5290
  812MOL0     H 7143  -1.263   9.902   2.496 -0.3523  1.1071 -0.5564
  812MOL0     H 7144  -1.341  10.004   2.286  1.7087 -0.8768 -0.3456
  812MOL0     H 7145  -1.420  10.128   2.371  1.4303 -0.8050 -3.0966
  812MOL0     H 7146  -1.579  10.159   2.212 -1.1888  3.0614  1.9788
  812MOL0     H 7147  -1.796  10.196   2.156  0.7650  1.7377  1.7065
  812MOL0     H 7148  -2.283  10.189   2.194  3.5741 -0.9213  1.1684
  812MOL0     H 7149  -2.507  10.164   2.124  0.5209 -0.2626 -0.7522
  812MOL0     H 7150  -2.731   9.786   2.211 -0.4774 -1.2571 -0.2523
  812MOL0     H 7151  -2.658   9.756   2.047 -1.4354  0.5897 -2.1478
  812MOL0     H 7152  -2.829   9.898   1.962  2.7546  2.6436  2.0317
  812MOL0     H 7153  -2.898   9.933   2.120  0.7729  0.2758 -0.0845
  812MOL0     H 7154  -2.953   9.682   2.153  0.9732  0.4152  0.6479
  812MOL0     H 7155  -2.917   9.664   1.968 -1.8045  0.3468 -1.1914
  812MOL0     H 7156  -3.110   9.867   2.086 -0.3111 -1.2283  1.6024
  812MOL0     H 7157  -3.077   9.833   1.919 -1.1236 -1.0337  0.3196
  812MOL0     H 7158  -3.193   9.628   2.111  0.1930  1.6571 -0.3207
  812MOL0     H 7159  -3.156   9.604   1.931 -0.2210 -0.0614 -0.6293
  812MOL0     H 7160  -3.328   9.798   1.896  0.5723 -0.1545 -0.8589
  812MOL0     H 7161  -3.361   9.804   2.068 -0.5456  2.4172 -2.2073
  812MOL0     H 7162  -3.412   9.540   1.916 -0.9250  0.0498 -1.5891
  812MOL0     H 7163  -3.469   9.586   2.077 -1.5788 -0.1704 -0.8198
  812MOL0     H 7164  -3.541   9.702   1.809  3.0657 -3.5218  0.1131
  812MOL0     H 7165  -3.575   9.798   1.953 -0.8748  0.4278 -1.1051
  812MOL0     H 7166  -2.510   9.752   2.229  0.4062 -0.4326  1.4763
  812MOL0     H 7167  -2.279   9.760   2.302  0.3678  1.6234  3.1844
  812MOL0     H 7168  -1.940   9.879   2.418  0.3093 -0.2027 -2.2247
  812MOL0     H 7169  -1.713   9.839   2.486 -0.9926 -2.2301 -1.3763
  812MOL0     H 7170   0.184  10.230   2.690  0.8425 -0.4137  1.4766
  812MOL0     H 7171   0.379  10.379   2.745  1.2254  0.8246  1.1316
  812MOL0     H 7172   0.761  10.515   2.965  2.7902 -0.4793 -0.3644
  812MOL0     H 7173   0.944  10.680   2.942  0.7686  0.6345 -2.3769
  812MOL0     H 7174   1.107  10.950   2.765 -1.1054 -0.8564 -0.5456
  812MOL0     H 7175   1.073  10.793   2.840 -2.6467  0.0962 -2.2582
  812MOL0     H 7176   1.085  11.049   3.011  1.6952  0.0282  2.5897
  812MOL0     H 7177   1.103  10.889   3.066 -4.2085  0.0374 -0.6499
  812MOL0     H 7178   1.328  10.960   3.065  1.4813  0.1579 -0.6102
  812MOL0     H 7179   1.309  11.053   2.916 -0.1330  0.2016 -0.7688
  812MOL0     H 7180   1.309  10.745   2.921 -1.2043  0.5215 -1.0479
  812MOL0     H 7181   1.319  10.847   2.781  1.6291 -0.8456 -1.1973
  812MOL0     H 7182   1.723  10.830   2.936  0.8499 -0.6631 -2.7421
  812MOL0     H 7183   0.692  10.972   2.801  4.0072 -0.7268 -2.6339
  812MOL0     H 7184   0.492  10.835   2.839  0.6037  1.5011  0.5717
  813MOL0     O 7185   3.677   6.982   0.159  0.3392 -0.4205  0.2318
  813MOL0     C 7186   3.637   6.951   0.047  0.1015  0.0021 -0.7698
  813MOL0     O 7187   3.533   7.019  -0.020 -0.0276 -0.2597 -0.2644
  813MOL0     C 7188   3.459   7.111   0.054 -0.2343  0.1693  0.3773
  813MOL0     C 7189   3.420   7.231  -0.011 -0.3379  0.9560  0.5329
  813MOL0     C 7190   3.328   7.321   0.040 -0.5543 -0.2280 -0.3521
  813MOL0     C 7191   3.290   7.301   0.171 -0.1225 -0.2206  0.6562
  813MOL0     O 7192   3.197   7.392   0.230 -0.3907  0.9835  0.1924
  813MOL0     C 7193   3.158   7.514   0.170 -0.3913 -1.0637  0.4981
  813MOL0     C 7194   3.082   7.602   0.271  0.2651 -0.7198 -0.2364
  813MOL0     C 7195   2.945   7.552   0.305  0.3859 -0.6465 -0.8563
  813MOL0     C 7196   2.888   7.662   0.398 -0.3713 -0.8725 -0.4702
  813MOL0     C 7197   2.750   7.610   0.453 -0.1636  0.1356 -0.4589
  813MOL0     C 7198   2.656   7.723   0.509 -0.6832 -0.8724  0.1745
  813MOL0     C 7199   2.528   7.669   0.569  0.7488  0.7655 -0.4242
  813MOL0     C 7200   2.552   7.588   0.702  1.0181  0.0939  0.0004
  813MOL0     N 7201   2.443   7.609   0.801  0.7881  0.6247  0.9909
  813MOL0     C 7202   2.319   7.620   0.751  0.0463 -0.1524  0.7809
  813MOL0     C 7203   2.239   7.640   0.860  0.2328  0.0914 -0.4723
  813MOL0     C 7204   2.094   7.656   0.856  0.3182 -0.3010  0.2512
  813MOL0     C 7205   2.031   7.619   0.994 -0.3667 -0.3367 -0.0764
  813MOL0     C 7206   1.873   7.624   0.980 -1.4348 -0.6431  0.1013
  813MOL0     C 7207   1.821   7.759   0.933  0.6432 -0.0703 -0.2352
  813MOL0     O 7208   1.674   7.760   0.914 -0.7685  0.0381  0.6418
  813MOL0     C 7209   1.584   7.757   1.020 -0.5699  0.5085 -0.3986
  813MOL0     C 7210   1.456   7.751   0.982  0.6734 -0.1122 -0.1487
  813MOL0     C 7211   1.349   7.744   1.075 -0.6986  0.6134  0.1522
  813MOL0     C 7212   1.377   7.741   1.211  0.0866  1.0350 -0.4161
  813MOL0     C 7213   1.254   7.723   1.309 -0.3834 -1.1035 -0.0150
  813MOL0     O 7214   1.279   7.706   1.442 -0.2718  0.0650 -0.1853
  813MOL0     C 7215   1.182   7.644   1.522  0.0142  0.3611  0.0904
  813MOL0     C 7216   1.051   7.698   1.534 -0.9839 -0.1354 -0.1651
  813MOL0     C 7217   0.953   7.633   1.618 -0.3669  1.1617  0.4409
  813MOL0     C 7218   0.978   7.499   1.665 -1.2057 -0.1775 -0.6345
  813MOL0     O 7219   0.904   7.426   1.750  0.5699 -0.1780  0.0561
  813MOL0     C 7220   0.771   7.480   1.794  0.4874 -0.1059  0.3682
  813MOL0     C 7221   0.696   7.388   1.897 -0.0107  0.1747 -0.0418
  813MOL0     C 7222   0.563   7.446   1.950 -0.1439  0.1597 -0.8862
  813MOL0     C 7223   0.470   7.336   1.994  0.5061  0.2775  0.4482
  813MOL0     C 7224   0.325   7.380   2.025 -0.4671 -0.2291  0.2239
  813MOL0     C 7225   0.321   7.478   2.146  1.2887 -0.7823 -0.0480
  813MOL0     C 7226   0.175   7.487   2.197  0.5237 -0.4627  0.2927
  813MOL0     C 7227   0.075   7.535   2.087 -0.0323  0.5829 -0.4789
  813MOL0    Cl 7228  -0.072   7.583   2.181  0.1508  0.3853 -0.2750
  813MOL0     C 7229   1.101   7.446   1.632 -0.5303  0.7515  0.1438
  813MOL0     C 7230   1.208   7.512   1.568  0.0714 -0.6927  0.1140
  813MOL0     O 7231   1.148   7.693   1.250 -0.0672 -0.3529  0.6814
  813MOL0     C 7232   1.507   7.754   1.258  0.0732 -0.4322  0.3118
  813MOL0     C 7233   1.611   7.771   1.155  0.2667  0.3304 -1.3520
  813MOL0     N 7234   2.320   7.629   0.979  0.5503  0.5478  0.4267
  813MOL0     N 7235   2.444   7.613   0.935  0.7091 -0.0453 -0.1921
  813MOL0     C 7236   3.325   7.182   0.238 -0.7480 -0.4652  0.3038
  813MOL0     C 7237   3.402   7.082   0.179  0.5059  0.6991 -0.3783
  813MOL0     C 7238   3.702   6.837  -0.018 -0.0862  0.5798  0.3136
  813MOL0     C 7239   3.649   6.784  -0.144 -0.0748  0.2077 -0.1389
  813MOL0     C 7240   3.714   6.682  -0.203  0.0009  0.0747 -0.4077
  813MOL0     C 7241   3.818   6.615  -0.141 -0.1685 -0.3387  0.4704
  813MOL0     O 7242   3.874   6.516  -0.218 -1.1155 -0.2702 -0.9514
  813MOL0     C 7243   3.859   6.489  -0.353 -0.9605  0.2902  1.1215
  813MOL0     C 7244   3.949   6.366  -0.394 -0.4553 -0.4605  0.6062
  813MOL0     C 7245   3.939   6.318  -0.541 -0.0458 -0.0085 -0.4925
  813MOL0     C 7246   4.025   6.202  -0.566 -0.2501  0.6640  0.2378
  813MOL0     C 7247   4.166   6.234  -0.579 -0.5515  1.0101  0.0903
  813MOL0     C 7248   4.277   6.267  -0.607 -1.4973 -0.9976 -0.2140
  813MOL0     C 7249   3.861   6.662  -0.015  0.7313  0.0952 -1.0080
  813MOL0     C 7250   3.804   6.768   0.049  1.1659  0.0917  0.2878
  813MOL0     H 7251   3.458   7.245  -0.112  1.1151 -0.5706  0.8234
  813MOL0     H 7252   3.288   7.400  -0.023  0.2424 -2.2075 -3.5382
  813MOL0     H 7253   3.085   7.493   0.091  0.4115 -0.5640 -0.4162
  813MOL0     H 7254   3.234   7.578   0.123 -2.9505  2.5678  0.8266
  813MOL0     H 7255   3.072   7.705   0.236  0.5982 -0.5593  0.1257
  813MOL0     H 7256   3.153   7.606   0.355  0.9917  1.1023 -0.8746
  813MOL0     H 7257   2.947   7.454   0.354 -2.3866 -0.9041 -1.1248
  813MOL0     H 7258   2.882   7.546   0.216 -2.0437  2.8742  0.3847
  813MOL0     H 7259   2.955   7.682   0.483  0.2954 -0.0299 -1.1671
  813MOL0     H 7260   2.884   7.759   0.346  2.0044 -0.3782  0.1397
  813MOL0     H 7261   2.775   7.539   0.533 -3.5389 -0.9673 -0.2299
  813MOL0     H 7262   2.688   7.552   0.384 -0.6381 -1.6595  1.3929
  813MOL0     H 7263   2.640   7.792   0.426  3.0802  0.5628  0.4596
  813MOL0     H 7264   2.715   7.784   0.578  2.8184 -2.5049 -1.1521
  813MOL0     H 7265   2.463   7.754   0.591  1.0508  0.9919 -0.4043
  813MOL0     H 7266   2.486   7.602   0.493  4.3036 -0.4719 -1.4903
  813MOL0     H 7267   2.643   7.622   0.751  1.4025  3.1462 -2.5138
  813MOL0     H 7268   2.552   7.482   0.675 -1.2978 -0.1756  0.8243
  813MOL0     H 7269   2.292   7.636   0.647  0.7220  0.3428  0.6746
  813MOL0     H 7270   2.046   7.590   0.784  1.8377 -1.0532 -0.1067
  813MOL0     H 7271   2.076   7.763   0.844 -0.6872 -0.3381  1.2298
  813MOL0     H 7272   2.077   7.686   1.067 -0.7987  0.2482 -0.3320
  813MOL0     H 7273   2.062   7.521   1.031 -1.4062  0.4195  3.0906
  813MOL0     H 7274   1.841   7.544   0.913 -0.8704 -0.1321 -0.8097
  813MOL0     H 7275   1.824   7.605   1.076 -1.0018  0.5149  0.5766
  813MOL0     H 7276   1.866   7.786   0.837  2.0722  1.1623  0.7242
  813MOL0     H 7277   1.853   7.830   1.011  0.7279  1.7195 -1.8121
  813MOL0     H 7278   1.432   7.748   0.877  0.6916 -0.4967 -0.1445
  813MOL0     H 7279   1.250   7.722   1.036 -0.7909  1.2192  0.0366
  813MOL0     H 7280   1.015   7.796   1.505  0.1953 -0.1251 -1.6816
  813MOL0     H 7281   0.863   7.693   1.627 -0.6019  1.1989 -1.6138
  813MOL0     H 7282   0.693   7.491   1.718 -1.5151  2.8932  2.6080
  813MOL0     H 7283   0.786   7.582   1.831 -2.8830  1.2359 -1.4177
  813MOL0     H 7284   0.755   7.369   1.987 -0.2879 -2.6689 -0.3616
  813MOL0     H 7285   0.671   7.290   1.854 -2.4901 -0.7163  3.0532
  813MOL0     H 7286   0.509   7.507   1.876 -1.6957 -0.3286 -0.1821
  813MOL0     H 7287   0.576   7.506   2.041 -2.4169 -0.0384 -0.3773
  813MOL0     H 7288   0.461   7.251   1.926 -0.0362 -1.2537  2.3355
  813MOL0     H 7289   0.509   7.300   2.090 -0.7316 -2.4039  0.0456
  813MOL0     H 7290   0.260   7.295   2.042 -0.1793 -0.4065  0.4563
  813MOL0     H 7291   0.283   7.426   1.935 -2.9635 -1.3499  0.7403
  813MOL0     H 7292   0.349   7.581   2.122 -1.0567  0.8015  3.2214
  813MOL0     H 7293   0.382   7.447   2.232  0.6306 -0.6399  0.4842
  813MOL0     H 7294   0.143   7.385   2.219 -1.8651 -0.4435 -2.4788
  813MOL0     H 7295   0.157   7.533   2.294 -0.9424 -1.9276  0.7733
  813MOL0     H 7296   0.070   7.447   2.022  1.2397  0.1590 -0.0419
  813MOL0     H 7297   0.124   7.611   2.025  1.5993  0.5150  0.6482
  813MOL0     H 7298   1.110   7.339   1.651 -2.7431  0.0922 -2.0544
  813MOL0     H 7299   1.308   7.475   1.553 -0.1234 -1.9045  1.5399
  813MOL0     H 7300   1.523   7.770   1.364  0.2970 -1.7604  0.4935
  813MOL0     H 7301   1.711   7.786   1.195 -0.2049  0.2162 -0.0629
  813MOL0     H 7302   3.272   7.160   0.330 -1.4270 -0.0849  0.0124
  813MOL0     H 7303   3.420   6.985   0.226 -0.0739 -1.4354 -4.1191
  813MOL0     H 7304   3.568   6.832  -0.199  0.3186 -1.4270 -2.2742
  813MOL0     H 7305   3.671   6.651  -0.297  1.9000 -0.8440 -1.0396
  813MOL0     H 7306   3.884   6.577  -0.413 -0.6734  0.7575  1.9131
  813MOL0     H 7307   3.760   6.449  -0.378 -1.1158  1.2588  0.1064
  813MOL0     H 7308   4.047   6.414  -0.388 -2.0343  3.7042 -1.8333
  813MOL0     H 7309   3.947   6.284  -0.323 -0.3871 -0.1506  0.9702
  813MOL0     H 7310   3.980   6.398  -0.605 -0.3126 -0.1174 -0.8033
  813MOL0     H 7311   3.837   6.287  -0.561 -0.5371 -1.3781  3.3354
  813MOL0     H 7312   4.003   6.117  -0.500 -1.3248  0.2868 -0.5745
  813MOL0     H 7313   3.989   6.166  -0.663 -0.0089 -0.8599  0.6802
  813MOL0     H 7314   4.378   6.294  -0.633 -0.9311 -1.0070  1.8362
  813MOL0     H 7315   3.943   6.618   0.041 -2.2962 -3.6247  0.8957
  813MOL0     H 7316   3.844   6.793   0.146 -0.5991  1.4242  0.7190
  814MOL0     O 7317   2.392   7.372   2.530  0.4720  0.0503  0.1149
  814MOL0     C 7318   2.398   7.461   2.449 -0.4057  0.1373  0.2041
  814MOL0     O 7319   2.298   7.526   2.389 -0.4751  0.7789  0.3293
  814MOL0     C 7320   2.172   7.493   2.420 -0.8880 -0.7039  0.5123
  814MOL0     C 7321   2.106   7.390   2.368  0.2067 -0.1807  0.0260
  814MOL0     C 7322   1.970   7.362   2.408 -0.0644 -0.3869  0.3309
  814MOL0     C 7323   1.903   7.440   2.507 -0.0408 -0.9457  0.0118
  814MOL0     O 7324   1.773   7.402   2.532  0.2596 -0.1948  0.5702
  814MOL0     C 7325   1.724   7.450   2.655 -0.7461  1.2219 -0.1543
  814MOL0     C 7326   1.643   7.576   2.623 -0.1516 -0.0464 -0.7188
  814MOL0     C 7327   1.509   7.547   2.580 -0.2733 -0.0826  0.5935
  814MOL0     C 7328   1.427   7.680   2.580 -0.5566  0.5232 -0.4395
  814MOL0     C 7329   1.287   7.648   2.526 -0.1052 -0.0577  0.4897
  814MOL0     C 7330   1.186   7.575   2.623 -0.7028  0.0991 -0.3383
  814MOL0     C 7331   1.059   7.528   2.547  0.0615 -0.0682  0.1252
  814MOL0     C 7332   0.988   7.644   2.483 -0.5812  0.7472  1.0063
  814MOL0     N 7333   0.916   7.742   2.570 -0.5880  0.6132 -0.4724
  814MOL0     C 7334   0.797   7.731   2.642 -0.2325  0.6744 -0.6758
  814MOL0     C 7335   0.811   7.853   2.716  0.5076 -0.2531  0.3253
  814MOL0     C 7336   0.706   7.904   2.817  0.1567 -0.5865 -1.1676
  814MOL0     C 7337   0.560   7.923   2.777 -1.1034 -0.4842 -0.3001
  814MOL0     C 7338   0.522   8.049   2.696 -0.1684  0.2349 -0.5747
  814MOL0     C 7339   0.375   8.080   2.728 -0.2614  0.5159  0.4352
  814MOL0     O 7340   0.296   7.968   2.709  0.1595  0.1971  0.4094
  814MOL0     C 7341   0.199   7.961   2.802 -0.4938  0.4944  0.6014
  814MOL0     C 7342   0.083   8.030   2.789 -0.5381  0.0259 -0.7675
  814MOL0     C 7343  -0.020   8.017   2.882  0.5813 -0.9591 -0.3136
  814MOL0     C 7344  -0.003   7.931   2.991  0.7343  0.4768 -0.7499
  814MOL0     C 7345  -0.095   7.917   3.098  0.4509 -0.0864 -1.1906
  814MOL0     O 7346  -0.224   7.950   3.059 -0.2448  0.1879 -0.1145
  814MOL0     C 7347  -0.333   7.902   3.132 -0.3865  0.2078  0.4242
  814MOL0     C 7348  -0.358   7.770   3.160  0.4557 -0.3700  0.4370
  814MOL0     C 7349  -0.489   7.730   3.203 -0.7801 -0.2528  0.0616
  814MOL0     C 7350  -0.583   7.829   3.244  1.0895  0.1831 -0.1067
  814MOL0     O 7351  -0.700   7.780   3.290  0.4102 -0.2211  0.7529
  814MOL0     C 7352  -0.802   7.874   3.317  0.2106  0.2457  0.4526
  814MOL0     C 7353  -0.927   7.786   3.338 -0.0935 -0.4320  0.6761
  814MOL0     C 7354  -1.060   7.870   3.353 -0.2969 -0.1939  0.0401
  814MOL0     C 7355  -1.183   7.786   3.323  0.4835  0.8501 -0.4914
  814MOL0     C 7356  -1.312   7.868   3.331 -0.3468 -0.8019 -0.2736
  814MOL0     C 7357  -1.349   7.972   3.221  0.0307  1.3272 -0.1622
  814MOL0     C 7358  -1.485   8.009   3.238  0.3445  0.3499 -0.4639
  814MOL0     C 7359  -1.534   8.107   3.126  0.3598  0.5673 -0.7719
  814MOL0    Cl 7360  -1.637   8.032   3.007 -0.2224  0.0635  0.3212
  814MOL0     C 7361  -0.548   7.969   3.235  0.6267  0.3178  0.2645
  814MOL0     C 7362  -0.427   7.999   3.178  0.7926  0.0625  0.0333
  814MOL0     O 7363  -0.061   7.888   3.216  0.6442 -0.3728 -0.2896
  814MOL0     C 7364   0.116   7.858   3.006  1.0044 -0.6596  0.0658
  814MOL0     C 7365   0.212   7.881   2.915  0.5840 -0.2105  0.0049
  814MOL0     N 7366   0.924   7.919   2.693  0.2019 -0.1590 -0.0881
  814MOL0     N 7367   0.982   7.857   2.596  0.1545  0.0874 -0.6111
  814MOL0     C 7368   1.970   7.554   2.548 -0.2570 -0.0334 -0.7326
  814MOL0     C 7369   2.104   7.571   2.509 -0.0829 -0.0264 -0.8285
  814MOL0     C 7370   2.520   7.498   2.384 -0.2004 -0.0733 -0.0589
  814MOL0     C 7371   2.539   7.624   2.319 -1.0259  1.0573 -0.0728
  814MOL0     C 7372   2.666   7.663   2.269  0.9794  0.5118 -0.1613
  814MOL0     C 7373   2.774   7.567   2.257 -0.0056  0.2533  0.0477
  814MOL0     O 7374   2.896   7.580   2.188  0.3835 -0.4444 -0.1065
  814MOL0     C 7375   2.918   7.701   2.115 -0.5047 -0.2635  0.9630
  814MOL0     C 7376   2.945   7.824   2.199 -0.1014  1.4764  0.1743
  814MOL0     C 7377   2.889   7.954   2.151  0.7256  0.2933  0.3487
  814MOL0     C 7378   2.921   8.002   2.009  0.2236 -0.0935 -0.5323
  814MOL0     C 7379   3.067   8.017   2.005  0.3804 -0.5152 -0.3138
  814MOL0     C 7380   3.183   8.051   2.003  0.5617 -0.4666 -0.6579
  814MOL0     C 7381   2.752   7.442   2.324 -0.0996 -0.6025 -0.8376
  814MOL0     C 7382   2.632   7.406   2.386  0.3681 -0.8185 -0.3480
  814MOL0     H 7383   2.153   7.336   2.287  0.6145 -1.9893  1.4109
  814MOL0     H 7384   1.916   7.277   2.367 -2.5207  1.7423 -1.2246
  814MOL0     H 7385   1.806   7.474   2.723  0.3276  1.1430 -1.3765
  814MOL0     H 7386   1.656   7.379   2.702  0.8318  0.3984  0.9840
  814MOL0     H 7387   1.693   7.648   2.559 -0.1952  0.6837  0.0581
  814MOL0     H 7388   1.632   7.624   2.721 -2.2455 -3.8005  1.1248
  814MOL0     H 7389   1.466   7.476   2.652  0.8771  0.0361  1.4204
  814MOL0     H 7390   1.502   7.504   2.480 -0.4089 -0.9303  0.9540
  814MOL0     H 7391   1.412   7.705   2.686 -0.9715 -4.9727  1.1005
  814MOL0     H 7392   1.471   7.764   2.526 -0.7093  0.1330 -1.1740
  814MOL0     H 7393   1.287   7.606   2.425 -1.0026  0.8624  0.0890
  814MOL0     H 7394   1.242   7.747   2.515  0.5511  0.0088 -2.4928
  814MOL0     H 7395   1.155   7.638   2.707 -1.1177  0.6023 -0.8669
  814MOL0     H 7396   1.232   7.480   2.653 -1.2923  0.6550  2.6647
  814MOL0     H 7397   1.093   7.461   2.467 -0.9159 -1.4686  0.8383
  814MOL0     H 7398   0.987   7.481   2.614 -0.7633  0.8294 -0.1169
  814MOL0     H 7399   0.916   7.610   2.408  1.5755  3.1688 -2.5044
  814MOL0     H 7400   1.057   7.712   2.430  1.2118 -0.3470  1.8505
  814MOL0     H 7401   0.726   7.651   2.629 -0.2723  0.8220 -1.4521
  814MOL0     H 7402   0.747   7.994   2.865  0.4083 -1.4514  0.2968
  814MOL0     H 7403   0.695   7.823   2.889 -2.1045  0.9348  0.3492
  814MOL0     H 7404   0.507   7.921   2.872 -0.1073  0.3341  0.2895
  814MOL0     H 7405   0.523   7.830   2.731 -0.2175 -1.5717  1.0912
  814MOL0     H 7406   0.583   8.136   2.722 -1.5450  0.6037  1.6265
  814MOL0     H 7407   0.549   8.015   2.595  0.4591 -0.7842 -0.0820
  814MOL0     H 7408   0.339   8.156   2.658  0.5623 -0.3439 -0.9511
  814MOL0     H 7409   0.366   8.120   2.830  0.1020  0.8576  0.3361
  814MOL0     H 7410   0.084   8.100   2.706  1.1201  0.3888 -0.4825
  814MOL0     H 7411  -0.106   8.081   2.867  0.4463 -1.2343 -0.7087
  814MOL0     H 7412  -0.279   7.703   3.130 -0.0468 -1.0583  0.6184
  814MOL0     H 7413  -0.524   7.627   3.203  1.1676 -0.9574  0.5278
  814MOL0     H 7414  -0.812   7.946   3.235 -1.7184  2.2255  2.3178
  814MOL0     H 7415  -0.793   7.934   3.408  2.6232 -0.2464  0.6063
  814MOL0     H 7416  -0.927   7.729   3.431 -0.0903 -2.1052 -0.2918
  814MOL0     H 7417  -0.948   7.719   3.254 -2.3435  1.2833 -0.2510
  814MOL0     H 7418  -1.049   7.952   3.281  0.2245 -1.1208 -0.9630
  814MOL0     H 7419  -1.061   7.918   3.451  1.7741 -1.8861  0.9458
  814MOL0     H 7420  -1.167   7.744   3.223 -0.8129  0.1019 -0.4084
  814MOL0     H 7421  -1.169   7.702   3.392  5.0246  0.4709 -1.5546
  814MOL0     H 7422  -1.317   7.922   3.426  0.7743  1.2178 -1.2950
  814MOL0     H 7423  -1.389   7.790   3.333  1.9141 -3.1708  0.5295
  814MOL0     H 7424  -1.327   7.922   3.127  1.6436 -1.9234  1.7676
  814MOL0     H 7425  -1.280   8.057   3.226  0.3677  1.0098  1.0614
  814MOL0     H 7426  -1.548   7.920   3.244  3.3948 -1.9207  0.0881
  814MOL0     H 7427  -1.489   8.060   3.334  4.1240  0.1065 -0.0632
  814MOL0     H 7428  -1.449   8.149   3.072  1.6737 -1.0938 -0.0960
  814MOL0     H 7429  -1.583   8.186   3.183 -2.3183 -1.0309 -0.7070
  814MOL0     H 7430  -0.606   8.052   3.274 -0.6310 -1.3082  2.0186
  814MOL0     H 7431  -0.408   8.104   3.161 -2.1260  0.9501  1.5059
  814MOL0     H 7432   0.132   7.800   3.096 -2.7247  0.0367  1.3530
  814MOL0     H 7433   0.302   7.824   2.930 -0.4296 -1.2364  3.0826
  814MOL0     H 7434   1.913   7.610   2.622 -3.3055 -1.2433 -1.9686
  814MOL0     H 7435   2.159   7.651   2.559 -1.2522  0.9339 -1.0188
  814MOL0     H 7436   2.465   7.703   2.326  0.2868  2.1567  2.0757
  814MOL0     H 7437   2.676   7.768   2.244  1.2966  0.3024 -0.9313
  814MOL0     H 7438   2.825   7.709   2.058  1.3654 -2.7647 -2.9082
  814MOL0     H 7439   2.991   7.692   2.034 -0.4390  0.4537  0.9326
  814MOL0     H 7440   2.910   7.791   2.297 -0.3212  0.8663 -0.1028
  814MOL0     H 7441   3.050   7.831   2.228 -0.5102 -0.7521  2.4595
  814MOL0     H 7442   2.925   8.025   2.226  0.3083 -1.0007  1.8194
  814MOL0     H 7443   2.780   7.954   2.167  0.8526 -1.2004  1.3992
  814MOL0     H 7444   2.886   7.932   1.932 -3.5895 -0.5541  1.3730
  814MOL0     H 7445   2.873   8.099   1.997 -2.4601 -1.5668 -2.6142
  814MOL0     H 7446   3.284   8.085   2.013  0.6421 -0.6560 -0.8246
  814MOL0     H 7447   2.834   7.371   2.327  1.1106  0.7843 -0.0307
  814MOL0     H 7448   2.618   7.326   2.458 -3.0142  3.2857  4.2993
  815MOL0     O 7449   7.400   4.592   3.915  0.1108 -0.6165  0.6529
  815MOL0     C 7450   7.420   4.478   3.961 -0.1083 -0.0831  0.0940
  815MOL0     O 7451   7.543   4.424   3.994 -0.4206 -0.4384  0.6411
  815MOL0     C 7452   7.656   4.504   3.978 -0.8045  0.2261 -0.7234
  815MOL0     C 7453   7.748   4.471   4.082  0.2653  0.1368  0.4224
  815MOL0     C 7454   7.859   4.555   4.100 -0.1537  0.4451  0.3120
  815MOL0     C 7455   7.893   4.653   4.011  0.7028 -0.1092 -0.1734
  815MOL0     O 7456   8.006   4.722   4.005 -0.0079 -0.7395  0.4276
  815MOL0     C 7457   8.095   4.731   4.115 -0.0765  0.1449  0.2503
  815MOL0     C 7458   8.044   4.814   4.231  0.0466  0.3321 -0.6100
  815MOL0     C 7459   7.993   4.950   4.196  0.4105 -0.5537  0.0856
  815MOL0     C 7460   8.103   5.050   4.162 -0.3531 -0.7246 -0.9078
  815MOL0     C 7461   8.213   5.072   4.267 -0.6993  0.4431  1.0687
  815MOL0     C 7462   8.301   5.194   4.224  0.3073  0.3763  1.0045
  815MOL0     C 7463   8.406   5.228   4.323  0.2779  0.7022  0.1117
  815MOL0     C 7464   8.493   5.109   4.367  0.1771 -0.1226  1.1361
  815MOL0     N 7465   8.619   5.143   4.436  0.0833  0.0018 -0.6324
  815MOL0     C 7466   8.671   5.086   4.548 -1.4371  0.4123 -0.6035
  815MOL0     C 7467   8.776   5.161   4.584 -0.1256 -0.2885  0.9774
  815MOL0     C 7468   8.883   5.121   4.685  0.6119  1.1601 -0.1813
  815MOL0     C 7469   8.988   5.042   4.613 -0.0015  0.1873 -0.5196
  815MOL0     C 7470   8.995   4.897   4.656 -0.4509 -0.8466 -0.3447
  815MOL0     C 7471   8.873   4.816   4.619  0.0580  0.3597  0.6025
  815MOL0     O 7472   8.852   4.814   4.481  0.3401  0.2572  0.8243
  815MOL0     C 7473   8.741   4.748   4.426 -0.1554  0.2882  0.0374
  815MOL0     C 7474   8.636   4.694   4.496 -0.0198 -0.5752  0.0346
  815MOL0     C 7475   8.528   4.634   4.427 -0.5249 -0.3714 -0.1807
  815MOL0     C 7476   8.521   4.631   4.283 -0.2797  1.0604 -0.7094
  815MOL0     C 7477   8.410   4.566   4.214  0.2595  0.7931 -0.1659
  815MOL0     O 7478   8.405   4.573   4.072  0.1094 -0.3217  0.7303
  815MOL0     C 7479   8.312   4.515   3.993  0.0666 -0.0764  0.1467
  815MOL0     C 7480   8.283   4.592   3.880  0.0761  0.5083 -0.0784
  815MOL0     C 7481   8.200   4.534   3.774 -0.1125  0.1019  0.1961
  815MOL0     C 7482   8.139   4.406   3.791 -0.3928  0.0203 -0.6286
  815MOL0     O 7483   8.054   4.370   3.695 -0.8528 -0.2944  0.0438
  815MOL0     C 7484   7.936   4.305   3.733 -0.2288 -0.7975 -0.5782
  815MOL0     C 7485   7.836   4.310   3.621  0.9810  0.3768  0.1528
  815MOL0     C 7486   7.711   4.241   3.666  0.1632 -0.3093  0.7406
  815MOL0     C 7487   7.604   4.275   3.571  0.6220  0.0799  0.3649
  815MOL0     C 7488   7.483   4.190   3.587 -1.0941  0.3620  0.0289
  815MOL0     C 7489   7.344   4.250   3.549  0.0102  0.1191  0.4004
  815MOL0     C 7490   7.228   4.152   3.567 -0.1687 -0.2681 -0.2449
  815MOL0     C 7491   7.109   4.193   3.472  0.1839  0.8063 -0.1794
  815MOL0    Cl 7492   7.137   4.100   3.321 -0.0499 -0.3238  0.2209
  815MOL0     C 7493   8.172   4.337   3.908 -0.1645  0.3154  0.0374
  815MOL0     C 7494   8.250   4.394   4.009 -0.0900  0.3346  0.0143
  815MOL0     O 7495   8.331   4.501   4.282 -0.1099 -0.8050 -0.0145
  815MOL0     C 7496   8.631   4.678   4.219 -0.8479  0.4255 -0.3593
  815MOL0     C 7497   8.734   4.738   4.289 -0.6201  0.3501  0.4933
  815MOL0     N 7498   8.793   5.265   4.491 -0.3220  0.1006 -0.4356
  815MOL0     N 7499   8.694   5.254   4.410  0.2060 -0.4409 -0.2339
  815MOL0     C 7500   7.797   4.680   3.903 -0.4641 -0.9805 -1.5176
  815MOL0     C 7501   7.684   4.608   3.898  0.7164  0.6298  0.0990
  815MOL0     C 7502   7.307   4.381   3.963  0.3644 -0.6420 -0.0448
  815MOL0     C 7503   7.177   4.431   3.966  0.5269  0.0265 -0.0483
  815MOL0     C 7504   7.070   4.338   3.959  0.6052 -1.1519  1.0766
  815MOL0     C 7505   7.086   4.200   3.958  0.3286 -0.6559  0.5336
  815MOL0     O 7506   6.995   4.101   3.941 -0.2199  0.7605 -0.1506
  815MOL0     C 7507   6.870   4.142   3.897  0.0778  0.5130 -0.2557
  815MOL0     C 7508   6.780   4.023   3.851  0.9712  0.1103  0.1325
  815MOL0     C 7509   6.844   3.967   3.724 -0.2150 -0.0154  0.3084
  815MOL0     C 7510   6.768   3.855   3.673 -0.0005 -0.4033  0.2713
  815MOL0     C 7511   6.815   3.825   3.533 -0.2455 -0.5198 -0.2913
  815MOL0     C 7512   6.853   3.792   3.421  0.3436  0.3697 -0.1961
  815MOL0     C 7513   7.219   4.147   3.956 -0.1702 -0.0666 -0.5235
  815MOL0     C 7514   7.329   4.238   3.956 -0.1559 -0.7028  0.5728
  815MOL0     H 7515   7.731   4.389   4.150  1.3088  0.2143  0.7925
  815MOL0     H 7516   7.927   4.525   4.179  0.3150 -2.2594 -0.9847
  815MOL0     H 7517   8.192   4.764   4.080  0.1560 -2.2541 -1.6415
  815MOL0     H 7518   8.125   4.630   4.144  1.2903  0.3281 -0.4774
  815MOL0     H 7519   8.116   4.831   4.311  0.1196  0.3219 -0.6729
  815MOL0     H 7520   7.970   4.751   4.280  0.7058 -0.1652 -0.2394
  815MOL0     H 7521   7.930   4.993   4.275  2.3596 -0.1091  1.4913
  815MOL0     H 7522   7.922   4.945   4.114  2.8566  2.2241 -2.4154
  815MOL0     H 7523   8.150   5.026   4.066  0.1797 -0.1969 -0.7791
  815MOL0     H 7524   8.048   5.143   4.145 -1.2343 -0.9013  0.7813
  815MOL0     H 7525   8.275   4.981   4.271 -0.3975  0.5771 -0.2069
  815MOL0     H 7526   8.163   5.097   4.361 -2.5415  3.1534 -0.5010
  815MOL0     H 7527   8.235   5.278   4.205 -2.9211 -1.9057  1.3892
  815MOL0     H 7528   8.356   5.155   4.137  1.0838 -2.9880  2.7945
  815MOL0     H 7529   8.471   5.296   4.267 -0.4271  2.5309  1.4241
  815MOL0     H 7530   8.361   5.281   4.406 -0.0260  3.2033 -1.5465
  815MOL0     H 7531   8.524   5.058   4.276 -1.4996 -0.1685  0.5519
  815MOL0     H 7532   8.432   5.029   4.409 -1.0590 -1.7974 -3.3296
  815MOL0     H 7533   8.654   4.990   4.595  0.3029 -0.4797 -1.6784
  815MOL0     H 7534   8.839   5.064   4.767  3.8399 -3.3234 -1.1809
  815MOL0     H 7535   8.935   5.208   4.727 -3.1841  2.8120  1.5471
  815MOL0     H 7536   9.083   5.093   4.630  0.4210 -0.4675 -0.8693
  815MOL0     H 7537   8.969   5.044   4.505 -0.7016  2.5514 -0.4098
  815MOL0     H 7538   9.084   4.853   4.611  0.0797 -0.7154  0.5417
  815MOL0     H 7539   9.007   4.905   4.765  1.4350 -1.5701 -0.4635
  815MOL0     H 7540   8.787   4.844   4.681 -1.0037  0.1754 -0.7383
  815MOL0     H 7541   8.891   4.710   4.636 -0.8027  0.1821  0.4604
  815MOL0     H 7542   8.646   4.687   4.604  1.4775  0.5569  0.0152
  815MOL0     H 7543   8.437   4.595   4.473 -0.9306  1.8985  1.0784
  815MOL0     H 7544   8.322   4.694   3.878 -0.0763  0.5642 -0.2073
  815MOL0     H 7545   8.163   4.588   3.687 -2.2734  0.0020  0.9985
  815MOL0     H 7546   7.889   4.356   3.818 -0.4315 -1.2569 -0.4112
  815MOL0     H 7547   7.954   4.197   3.742 -5.7022 -2.2966 -3.3066
  815MOL0     H 7548   7.872   4.268   3.527  0.7396  1.8997 -0.6688
  815MOL0     H 7549   7.832   4.419   3.607  2.0635  0.4976  0.6758
  815MOL0     H 7550   7.682   4.280   3.763  0.1713  2.7111 -0.3715
  815MOL0     H 7551   7.734   4.134   3.662 -1.9693 -0.8608  1.9355
  815MOL0     H 7552   7.580   4.380   3.592 -0.4769 -0.2240  0.6817
  815MOL0     H 7553   7.648   4.280   3.471 -0.9527 -0.7742 -0.4001
  815MOL0     H 7554   7.479   4.180   3.695 -2.8110 -1.6079 -0.1603
  815MOL0     H 7555   7.503   4.091   3.545 -0.9093  0.2851  0.3033
  815MOL0     H 7556   7.344   4.290   3.447  1.1121  1.8587  1.0203
  815MOL0     H 7557   7.313   4.338   3.606 -3.7883 -1.3985  0.9248
  815MOL0     H 7558   7.264   4.052   3.544  0.1326  0.3971 -3.0159
  815MOL0     H 7559   7.196   4.163   3.671  1.1328 -0.5904  0.2103
  815MOL0     H 7560   7.123   4.298   3.446  0.5884  0.9081  0.4305
  815MOL0     H 7561   7.009   4.178   3.513  0.8487 -0.2682  1.1447
  815MOL0     H 7562   8.134   4.237   3.927 -0.3570  0.7782  2.4645
  815MOL0     H 7563   8.273   4.334   4.096 -0.2736  0.2561  0.0103
  815MOL0     H 7564   8.637   4.684   4.111  2.4723  1.5247 -0.2100
  815MOL0     H 7565   8.821   4.780   4.239  0.7660 -2.1399  0.6562
  815MOL0     H 7566   7.818   4.758   3.830  1.4889 -1.2552 -1.3052
  815MOL0     H 7567   7.621   4.614   3.810  0.0855  1.6151  0.5941
  815MOL0     H 7568   7.162   4.538   3.973 -0.1214  0.0389 -1.3107
  815MOL0     H 7569   6.973   4.385   3.944  1.7839  1.1964  0.3071
  815MOL0     H 7570   6.874   4.199   3.804 -2.0998 -0.4143 -0.9833
  815MOL0     H 7571   6.828   4.194   3.984  0.1469 -2.5596  1.7575
  815MOL0     H 7572   6.772   3.946   3.929 -1.3248  0.7111  0.5521
  815MOL0     H 7573   6.675   4.050   3.839  0.6231 -0.7736  0.9916
  815MOL0     H 7574   6.953   3.955   3.724 -0.2270 -0.2511 -0.8284
  815MOL0     H 7575   6.827   4.042   3.646  0.0616 -0.4954 -0.2218
  815MOL0     H 7576   6.786   3.774   3.744  1.3316  2.5446  3.6352
  815MOL0     H 7577   6.663   3.881   3.694 -0.3761 -2.3325  1.0261
  815MOL0     H 7578   6.888   3.761   3.325 -1.8376 -3.1682 -0.0200
  815MOL0     H 7579   7.230   4.039   3.954  0.6116  0.0193 -1.9990
  815MOL0     H 7580   7.430   4.199   3.943  1.4313  3.0089  0.5225
  816MOL0     O 7581   8.085   6.258   7.697 -0.9112  0.8626  0.6526
  816MOL0     C 7582   8.131   6.217   7.803 -0.1542  0.1544  0.0109
  816MOL0     O 7583   8.093   6.100   7.865  0.9385  0.2632 -0.7818
  816MOL0     C 7584   7.970   6.036   7.833 -0.2478  0.0125 -0.5660
  816MOL0     C 7585   7.865   6.034   7.925  0.9026 -0.5134 -0.1762
  816MOL0     C 7586   7.746   5.970   7.901 -0.5025 -0.3069  0.3866
  816MOL0     C 7587   7.731   5.899   7.778 -0.3477  0.2397  0.9123
  816MOL0     O 7588   7.606   5.843   7.751  0.0172  0.0520  0.2596
  816MOL0     C 7589   7.581   5.818   7.609  1.2729 -0.0890 -0.1056
  816MOL0     C 7590   7.432   5.773   7.584 -0.5392  0.5294  0.0055
  816MOL0     C 7591   7.390   5.638   7.642  0.4754 -0.8207  0.6310
  816MOL0     C 7592   7.237   5.626   7.618  0.5293 -0.5738 -0.1828
  816MOL0     C 7593   7.190   5.491   7.578  0.5854 -0.3272 -0.2604
  816MOL0     C 7594   7.194   5.400   7.700  0.2241 -0.1072  0.2610
  816MOL0     C 7595   7.177   5.252   7.664  0.0197 -0.1144 -0.2450
  816MOL0     C 7596   7.191   5.168   7.795 -0.2968 -0.2260 -0.6230
  816MOL0     N 7597   7.331   5.172   7.853  0.5568  0.4544 -0.1160
  816MOL0     C 7598   7.432   5.084   7.829 -0.4231 -0.1034 -0.1240
  816MOL0     C 7599   7.547   5.136   7.887  0.7053 -0.2090  0.8045
  816MOL0     C 7600   7.688   5.076   7.898  0.8658  0.6058  0.0909
  816MOL0     C 7601   7.711   4.948   7.815 -0.0740 -0.5699  0.0377
  816MOL0     C 7602   7.737   4.985   7.670  0.8433  0.2004  0.7336
  816MOL0     C 7603   7.724   4.858   7.578 -0.0337 -0.4665  0.0502
  816MOL0     O 7604   7.733   4.885   7.438 -0.7692 -0.0546 -0.4568
  816MOL0     C 7605   7.614   4.923   7.377 -0.4850 -0.2638  0.0169
  816MOL0     C 7606   7.612   5.039   7.308  0.2315  0.1303 -0.2630
  816MOL0     C 7607   7.502   5.083   7.240 -0.5167 -0.5684  0.9377
  816MOL0     C 7608   7.381   5.018   7.256  0.0261  0.7433  0.0755
  816MOL0     C 7609   7.250   5.068   7.210  0.0501 -0.0968 -0.9985
  816MOL0     O 7610   7.139   5.052   7.296  0.0834 -0.4477  0.3082
  816MOL0     C 7611   7.017   5.104   7.256 -0.8938  0.4249 -0.2102
  816MOL0     C 7612   6.952   5.067   7.135 -0.0176  0.1527  0.3878
  816MOL0     C 7613   6.819   5.093   7.118 -0.5545 -0.3478  0.2737
  816MOL0     C 7614   6.741   5.167   7.210 -0.0899 -0.5275  0.4046
  816MOL0     O 7615   6.606   5.176   7.174  0.2218 -0.0383  0.4096
  816MOL0     C 7616   6.516   5.112   7.262  0.6169 -1.0207 -0.0415
  816MOL0     C 7617   6.370   5.120   7.213  0.0885  0.2009 -0.6469
  816MOL0     C 7618   6.277   5.018   7.289  0.0790  0.0198  1.1227
  816MOL0     C 7619   6.133   5.006   7.241  0.2157  0.0628 -0.6411
  816MOL0     C 7620   6.067   4.892   7.321  0.4380  0.3628 -0.2254
  816MOL0     C 7621   5.906   4.891   7.305  0.8306 -0.3653 -1.0181
  816MOL0     C 7622   5.830   4.774   7.364 -0.4147 -0.0555  0.3867
  816MOL0     C 7623   5.678   4.800   7.361  0.5753 -0.1412  0.6525
  816MOL0    Cl 7624   5.602   4.662   7.443  0.1490 -0.0773  0.3880
  816MOL0     C 7625   6.804   5.198   7.331 -0.5199 -0.4373 -0.5600
  816MOL0     C 7626   6.943   5.176   7.351  0.4014 -0.2703  0.0619
  816MOL0     O 7627   7.246   5.138   7.110  0.3638  0.1828 -0.3699
  816MOL0     C 7628   7.372   4.892   7.317 -0.3742 -0.0057 -0.1887
  816MOL0     C 7629   7.496   4.842   7.370  0.1834 -0.1551 -0.2426
  816MOL0     N 7630   7.507   5.249   7.951 -0.0883  0.0570 -0.2077
  816MOL0     N 7631   7.383   5.273   7.926  0.1372 -0.1969 -0.9531
  816MOL0     C 7632   7.841   5.896   7.692  0.0834  0.3658 -0.2815
  816MOL0     C 7633   7.958   5.972   7.717  0.0592  0.5352 -0.1522
  816MOL0     C 7634   8.235   6.303   7.867  0.7088  0.3543 -0.3127
  816MOL0     C 7635   8.309   6.271   7.981 -0.8617 -0.6694  0.1983
  816MOL0     C 7636   8.404   6.359   8.042  0.1293  0.4381 -0.2791
  816MOL0     C 7637   8.434   6.482   7.984  0.6486  0.0499 -0.1894
  816MOL0     O 7638   8.532   6.577   8.017  0.0731  0.3211 -0.4992
  816MOL0     C 7639   8.608   6.546   8.133  0.4565 -0.4331  0.2935
  816MOL0     C 7640   8.722   6.651   8.140  0.5741  0.5439 -0.2344
  816MOL0     C 7641   8.806   6.624   8.267 -0.0497 -0.9289 -0.2694
  816MOL0     C 7642   8.916   6.526   8.274  0.7633 -0.8538 -0.4844
  816MOL0     C 7643   9.018   6.567   8.172  0.3005 -1.1027  0.0770
  816MOL0     C 7644   9.114   6.597   8.094 -0.3427  0.2263  0.3498
  816MOL0     C 7645   8.353   6.522   7.875  0.1221 -0.0866 -0.2713
  816MOL0     C 7646   8.263   6.433   7.819 -0.5097  0.0977 -0.4046
  816MOL0     H 7647   7.875   6.077   8.024 -3.1735 -1.2354  0.7487
  816MOL0     H 7648   7.662   5.975   7.969 -0.8610  0.1161 -0.0734
  816MOL0     H 7649   7.641   5.737   7.567  1.7172 -0.0527  0.4506
  816MOL0     H 7650   7.602   5.911   7.555 -0.1744  0.5485  0.3818
  816MOL0     H 7651   7.418   5.766   7.476  2.6110  1.6549 -0.5649
  816MOL0     H 7652   7.365   5.853   7.617 -3.1833 -2.2131  1.8245
  816MOL0     H 7653   7.399   5.640   7.751 -0.9963  1.6933  0.7761
  816MOL0     H 7654   7.453   5.561   7.595 -1.0573  0.1778 -3.5525
  816MOL0     H 7655   7.188   5.658   7.710 -1.0686  1.0308 -1.4997
  816MOL0     H 7656   7.206   5.694   7.537  1.2138  0.8433  0.7134
  816MOL0     H 7657   7.254   5.453   7.497  0.2003 -0.3969 -0.5368
  816MOL0     H 7658   7.087   5.490   7.541  0.3734 -2.6561  0.2498
  816MOL0     H 7659   7.111   5.430   7.765 -0.7317 -1.7463 -0.1554
  816MOL0     H 7660   7.287   5.417   7.755 -0.9016  1.4885  1.8018
  816MOL0     H 7661   7.083   5.237   7.609  0.0569  1.4492 -0.7673
  816MOL0     H 7662   7.261   5.234   7.596 -0.4239 -0.7767 -0.6356
  816MOL0     H 7663   7.165   5.064   7.773 -1.8712 -0.3658  1.6043
  816MOL0     H 7664   7.121   5.197   7.873  2.0342 -1.0291  1.9171
  816MOL0     H 7665   7.427   4.985   7.785  1.6333 -0.3680  0.1485
  816MOL0     H 7666   7.713   5.049   8.002  0.5360 -2.7716 -0.5743
  816MOL0     H 7667   7.757   5.154   7.865  2.8319 -1.1609 -0.2065
  816MOL0     H 7668   7.624   4.882   7.826  1.1980 -1.8372  4.3810
  816MOL0     H 7669   7.797   4.897   7.860  1.0362  1.4681  0.3306
  816MOL0     H 7670   7.659   5.054   7.638 -1.6186 -3.1075 -0.8553
  816MOL0     H 7671   7.837   5.027   7.653  0.7900 -0.3925 -1.2019
  816MOL0     H 7672   7.629   4.806   7.586  1.2586 -3.0975 -0.5277
  816MOL0     H 7673   7.801   4.787   7.610  0.0726 -0.0631  0.6908
  816MOL0     H 7674   7.694   5.110   7.315 -0.0035  0.5251 -1.3654
  816MOL0     H 7675   7.517   5.180   7.193  2.7284 -1.7334 -0.7180
  816MOL0     H 7676   7.006   5.011   7.059  0.4435 -0.9339  1.4887
  816MOL0     H 7677   6.781   5.050   7.026  0.4331  0.3583 -0.4907
  816MOL0     H 7678   6.511   5.157   7.362 -0.4970  0.2664 -0.6493
  816MOL0     H 7679   6.559   5.013   7.281  2.0062 -0.0481  2.4899
  816MOL0     H 7680   6.368   5.107   7.105  0.1054  0.2535 -0.6536
  816MOL0     H 7681   6.328   5.219   7.233 -0.9719 -0.3293 -0.1585
  816MOL0     H 7682   6.279   5.051   7.393  3.8881  3.4580  0.2093
  816MOL0     H 7683   6.313   4.916   7.276 -1.3958 -0.4274  0.3079
  816MOL0     H 7684   6.083   5.104   7.249  1.2225  0.5624 -0.3171
  816MOL0     H 7685   6.130   4.972   7.137  3.5205  0.2185 -0.8685
  816MOL0     H 7686   6.101   4.890   7.425  2.9178  0.2477 -0.9746
  816MOL0     H 7687   6.114   4.800   7.283  2.0217  1.3082 -0.6506
  816MOL0     H 7688   5.876   4.900   7.200 -2.0171  0.6640 -0.2156
  816MOL0     H 7689   5.870   4.979   7.358  2.3449 -0.9112  1.0166
  816MOL0     H 7690   5.855   4.682   7.311 -1.8629 -1.2155  1.6182
  816MOL0     H 7691   5.866   4.769   7.467 -0.4845  1.3550  0.4933
  816MOL0     H 7692   5.640   4.801   7.259  1.4947 -0.0762  0.3030
  816MOL0     H 7693   5.651   4.893   7.412  1.8892  0.2377  0.6807
  816MOL0     H 7694   6.745   5.247   7.408  0.7209 -0.1493  0.2305
  816MOL0     H 7695   6.983   5.221   7.442  1.6323 -2.1550  0.4921
  816MOL0     H 7696   7.278   4.839   7.323  0.1697 -0.9994 -0.1379
  816MOL0     H 7697   7.490   4.748   7.424 -2.3686  0.6434  1.0527
  816MOL0     H 7698   7.840   5.850   7.594  3.6320  0.7103 -0.6001
  816MOL0     H 7699   8.042   5.969   7.648 -0.4302 -3.1107 -0.7919
  816MOL0     H 7700   8.291   6.173   8.023 -0.3923 -1.7998 -2.0954
  816MOL0     H 7701   8.458   6.322   8.129 -1.7163 -0.1882  0.6619
  816MOL0     H 7702   8.648   6.447   8.108  3.1223  0.9706 -1.5615
  816MOL0     H 7703   8.547   6.544   8.224  0.7152  1.4317  0.5628
  816MOL0     H 7704   8.791   6.644   8.055  0.8617  1.7282 -0.1128
  816MOL0     H 7705   8.689   6.754   8.127 -0.3662  0.2289 -0.4086
  816MOL0     H 7706   8.733   6.605   8.346 -0.4141  0.5125 -0.2215
  816MOL0     H 7707   8.852   6.717   8.302 -0.6127 -0.4763 -0.6942
  816MOL0     H 7708   8.954   6.546   8.375 -1.7305  2.3477 -0.0172
  816MOL0     H 7709   8.880   6.423   8.264 -2.0811 -0.4328  3.0139
  816MOL0     H 7710   9.194   6.611   8.024 -1.0118  0.8940 -0.3028
  816MOL0     H 7711   8.374   6.614   7.821  2.8160 -0.9763 -0.9040
  816MOL0     H 7712   8.210   6.466   7.730 -1.6432 -0.4129  0.0558
  817MOL0     O 7713  11.199   4.800   4.951  1.2839 -0.4439  0.3996
  817MOL0     C 7714  11.202   4.922   4.925  0.8975 -0.0691 -0.4598
  817MOL0     O 7715  11.109   5.015   4.974 -0.1913  0.0396 -0.5027
  817MOL0     C 7716  10.980   4.992   4.994 -0.3309 -0.1494  0.6363
  817MOL0     C 7717  10.888   5.085   4.941  0.3846  0.0468 -0.2546
  817MOL0     C 7718  10.751   5.067   4.965  0.8449 -0.6638  0.3363
  817MOL0     C 7719  10.702   4.949   5.026  0.3665 -0.8321 -0.1461
  817MOL0     O 7720  10.570   4.918   5.045 -1.0065 -0.0575  0.3369
  817MOL0     C 7721  10.470   4.998   4.982  1.0511 -0.7963 -0.6888
  817MOL0     C 7722  10.333   4.931   4.992 -0.2104 -0.2773  0.6173
  817MOL0     C 7723  10.229   5.017   4.935  0.6863  0.0863 -0.5919
  817MOL0     C 7724  10.118   4.920   4.904  0.2611  0.1501  0.1268
  817MOL0     C 7725   9.981   4.968   4.881  0.6373 -0.5895  0.0563
  817MOL0     C 7726   9.932   5.050   5.005 -0.7817  0.7572 -0.9390
  817MOL0     C 7727   9.784   5.103   5.014 -0.6424 -0.2381 -0.9202
  817MOL0     C 7728   9.736   5.161   4.882  0.5246  1.0025  0.0389
  817MOL0     N 7729   9.593   5.178   4.891  0.4911  0.4188 -0.2728
  817MOL0     C 7730   9.532   5.293   4.864  0.2904  0.3356 -1.2801
  817MOL0     C 7731   9.404   5.263   4.825 -0.2780 -0.5200  0.6949
  817MOL0     C 7732   9.294   5.356   4.789 -0.2988 -0.4724  0.3290
  817MOL0     C 7733   9.270   5.461   4.897  0.0052  0.0829  0.0413
  817MOL0     C 7734   9.195   5.573   4.835  0.0207 -0.2633  0.9253
  817MOL0     C 7735   9.068   5.535   4.765  0.8485 -0.8387 -0.7966
  817MOL0     O 7736   8.976   5.652   4.772 -0.0285 -0.6550  0.6633
  817MOL0     C 7737   8.862   5.659   4.696  0.0269 -0.6649 -0.2050
  817MOL0     C 7738   8.802   5.555   4.626 -0.2103  0.1260  0.2221
  817MOL0     C 7739   8.678   5.562   4.568  0.5431  0.6790  0.4153
  817MOL0     C 7740   8.607   5.676   4.578  0.3421 -0.2048  1.1183
  817MOL0     C 7741   8.472   5.686   4.524  0.7738 -0.5876 -0.1116
  817MOL0     O 7742   8.405   5.809   4.551  0.4383 -0.1126  0.4088
  817MOL0     C 7743   8.289   5.826   4.483 -1.2150  0.5344  0.6290
  817MOL0     C 7744   8.277   5.808   4.348 -0.0313  0.6105 -0.1421
  817MOL0     C 7745   8.154   5.824   4.284  0.9513 -0.0291 -0.1247
  817MOL0     C 7746   8.038   5.854   4.356 -0.7376  0.0892 -0.1668
  817MOL0     O 7747   7.926   5.858   4.288 -0.1389 -0.0046 -0.6017
  817MOL0     C 7748   7.824   5.940   4.331 -0.4847  0.1421 -0.6477
  817MOL0     C 7749   7.696   5.862   4.361  0.7041  0.6662  0.2089
  817MOL0     C 7750   7.579   5.960   4.386  0.0620  0.6586 -1.0102
  817MOL0     C 7751   7.451   5.889   4.426 -0.6695  0.1991  0.0946
  817MOL0     C 7752   7.334   5.984   4.426 -0.3201  0.0587 -0.1469
  817MOL0     C 7753   7.196   5.938   4.473  0.8129 -0.2330  0.3002
  817MOL0     C 7754   7.118   5.852   4.366  0.1456 -0.9362  0.1107
  817MOL0     C 7755   7.039   5.748   4.440 -0.1424 -0.8031 -0.4983
  817MOL0    Cl 7756   7.142   5.602   4.469 -0.1067  0.4340  0.2544
  817MOL0     C 7757   8.048   5.869   4.492 -0.6637 -0.3278  0.2460
  817MOL0     C 7758   8.174   5.856   4.556 -0.1569 -1.0380  1.2171
  817MOL0     O 7759   8.428   5.585   4.467  0.4605 -0.2749  0.4738
  817MOL0     C 7760   8.671   5.797   4.624 -0.3795  0.1043 -1.1718
  817MOL0     C 7761   8.797   5.783   4.692  0.3381 -0.7354 -0.2662
  817MOL0     N 7762   9.398   5.127   4.808 -0.6838  0.4502 -0.4184
  817MOL0     N 7763   9.504   5.083   4.850  0.0061  0.0350  0.1677
  817MOL0     C 7764  10.791   4.861   5.065 -0.1621  0.1644 -0.4042
  817MOL0     C 7765  10.930   4.870   5.050 -0.2229 -0.4266 -0.1564
  817MOL0     C 7766  11.315   4.974   4.849 -0.9825 -0.9229 -0.6186
  817MOL0     C 7767  11.421   4.897   4.797  0.0004  0.0945 -0.1899
  817MOL0     C 7768  11.536   4.955   4.739 -0.1672  0.1322 -0.1436
  817MOL0     C 7769  11.540   5.092   4.722  1.3225 -0.6076 -0.4919
  817MOL0     O 7770  11.649   5.149   4.663 -0.1735  0.0344  0.8681
  817MOL0     C 7771  11.753   5.075   4.592  0.2559 -0.1662  0.5995
  817MOL0     C 7772  11.866   5.161   4.547 -0.1282 -0.1821  0.4225
  817MOL0     C 7773  11.921   5.242   4.663 -0.4673  0.0113  0.3328
  817MOL0     C 7774  12.024   5.351   4.623 -0.4486 -0.3642  0.0783
  817MOL0     C 7775  12.168   5.298   4.625  0.9755 -0.1506 -0.7121
  817MOL0     C 7776  12.283   5.268   4.628  0.3385  0.1045  0.1876
  817MOL0     C 7777  11.431   5.170   4.765 -0.1254 -0.4342 -1.0428
  817MOL0     C 7778  11.327   5.116   4.829  0.1355 -0.1229 -0.1884
  817MOL0     H 7779  10.924   5.176   4.893 -0.7975  1.2184  1.0041
  817MOL0     H 7780  10.682   5.140   4.923  0.4608 -1.0575  0.2747
  817MOL0     H 7781  10.491   5.010   4.875 -0.3641  3.7103 -0.6725
  817MOL0     H 7782  10.472   5.102   5.017 -1.4224 -1.4348  1.7641
  817MOL0     H 7783  10.322   4.925   5.100  0.8566 -0.8176  0.6990
  817MOL0     H 7784  10.349   4.843   4.929  3.4426  2.4684 -2.7980
  817MOL0     H 7785  10.256   5.065   4.840 -1.0601  1.0671 -0.6257
  817MOL0     H 7786  10.189   5.095   5.001 -4.4197 -1.5065 -1.4141
  817MOL0     H 7787  10.141   4.851   4.822 -2.1061  0.7553 -1.1367
  817MOL0     H 7788  10.107   4.869   5.000  0.7189 -2.6840 -1.2161
  817MOL0     H 7789   9.916   4.881   4.867  1.2315 -1.3050  1.5241
  817MOL0     H 7790   9.972   5.039   4.799  2.0031  0.9065  1.1403
  817MOL0     H 7791   9.998   5.137   5.016  0.8737 -0.4676 -0.9252
  817MOL0     H 7792   9.947   4.992   5.096  1.8503  2.2747 -0.2973
  817MOL0     H 7793   9.730   5.016   5.053  0.4227  0.9544  3.8632
  817MOL0     H 7794   9.780   5.174   5.097 -0.0131 -1.5990  0.3289
  817MOL0     H 7795   9.751   5.087   4.803 -1.8641  3.3271 -2.8809
  817MOL0     H 7796   9.790   5.252   4.851  0.0959  1.3748  0.3693
  817MOL0     H 7797   9.576   5.388   4.891 -0.2306 -0.3323  2.5539
  817MOL0     H 7798   9.206   5.293   4.771 -0.0709 -0.8901  0.6690
  817MOL0     H 7799   9.318   5.404   4.694  0.8480 -1.6921 -0.0188
  817MOL0     H 7800   9.362   5.494   4.945 -1.6101  2.3902  1.7314
  817MOL0     H 7801   9.210   5.414   4.975 -0.3135  1.1999  0.4852
  817MOL0     H 7802   9.173   5.646   4.913 -2.0444  1.5141 -1.2062
  817MOL0     H 7803   9.267   5.622   4.768 -2.5395 -0.9783 -2.6423
  817MOL0     H 7804   9.008   5.452   4.804 -2.1196 -0.1211 -3.3806
  817MOL0     H 7805   9.095   5.520   4.660  2.2082 -1.1146 -0.4216
  817MOL0     H 7806   8.845   5.455   4.624 -0.7042 -0.2642  3.2589
  817MOL0     H 7807   8.623   5.473   4.539 -1.5947  2.6173 -2.0022
  817MOL0     H 7808   8.363   5.793   4.283 -0.2088 -0.2753 -0.1796
  817MOL0     H 7809   8.151   5.817   4.175 -0.7736  0.6134 -0.1451
  817MOL0     H 7810   7.815   6.002   4.241  0.4387 -4.0269 -3.9510
  817MOL0     H 7811   7.850   5.999   4.419  1.0097 -0.0448 -0.9339
  817MOL0     H 7812   7.717   5.794   4.444 -1.5081  0.2753  0.5155
  817MOL0     H 7813   7.674   5.808   4.269 -0.0462  1.2081  0.0549
  817MOL0     H 7814   7.554   6.017   4.296 -0.9182 -1.9763 -2.4832
  817MOL0     H 7815   7.619   6.025   4.465  1.6429 -0.0739 -1.1825
  817MOL0     H 7816   7.422   5.808   4.358  0.6758  0.1699 -0.4647
  817MOL0     H 7817   7.465   5.841   4.523 -1.8202 -1.1927 -0.3799
  817MOL0     H 7818   7.331   6.037   4.330 -1.2366  1.7656  0.7893
  817MOL0     H 7819   7.363   6.062   4.497  0.4238  1.3292 -1.7853
  817MOL0     H 7820   7.126   6.019   4.495  0.5461  0.2023 -1.9323
  817MOL0     H 7821   7.208   5.874   4.561 -2.4419 -0.9990  0.3116
  817MOL0     H 7822   7.051   5.919   4.311 -0.4144  0.5209  2.3979
  817MOL0     H 7823   7.190   5.794   4.309 -0.4131 -2.5305  0.9540
  817MOL0     H 7824   6.958   5.726   4.370 -2.6142  0.3844  1.8071
  817MOL0     H 7825   7.000   5.791   4.533  0.6382 -2.1689  0.5005
  817MOL0     H 7826   7.970   5.890   4.565  2.2198  1.0393  3.1725
  817MOL0     H 7827   8.181   5.859   4.664  1.6895  1.2776  1.1016
  817MOL0     H 7828   8.624   5.892   4.600  0.4128  1.1365  1.1218
  817MOL0     H 7829   8.845   5.872   4.733  1.9907 -0.9022 -1.7249
  817MOL0     H 7830  10.744   4.772   5.105 -1.3699 -0.1339 -2.3775
  817MOL0     H 7831  10.999   4.791   5.077 -1.5394 -0.6555  2.9556
  817MOL0     H 7832  11.419   4.789   4.806 -1.9984 -0.0195 -1.3817
  817MOL0     H 7833  11.618   4.890   4.711 -1.6632 -0.8497 -2.5520
  817MOL0     H 7834  11.723   5.023   4.500  2.9341 -0.1966 -0.3541
  817MOL0     H 7835  11.791   4.999   4.661  0.0550 -1.1555 -0.3354
  817MOL0     H 7836  11.937   5.092   4.501  0.2139 -0.4930  1.4108
  817MOL0     H 7837  11.834   5.230   4.468 -0.6927 -0.3848  0.4635
  817MOL0     H 7838  11.972   5.172   4.729  1.1460  0.4827 -0.3631
  817MOL0     H 7839  11.842   5.296   4.716 -1.3035  0.7379 -1.5642
  817MOL0     H 7840  12.008   5.394   4.524 -1.6493 -1.9686 -0.4726
  817MOL0     H 7841  12.019   5.437   4.691  0.8150  1.4142 -1.9744
  817MOL0     H 7842  12.385   5.236   4.632  0.5022  0.6228  0.2610
  817MOL0     H 7843  11.434   5.277   4.752 -0.2923 -0.4761 -1.4408
  817MOL0     H 7844  11.246   5.181   4.860  3.1109  4.3360 -0.7249
  818MOL0     O 7845   4.441   9.692   9.167 -0.1284 -0.2518  0.2357
  818MOL0     C 7846   4.445   9.658   9.044  0.4473 -0.4305 -0.3827
  818MOL0     O 7847   4.342   9.630   8.964 -0.0581  0.4780 -0.6016
  818MOL0     C 7848   4.214   9.606   9.013  0.7914  0.1403  0.0396
  818MOL0     C 7849   4.106   9.688   8.975  0.2960 -0.6450 -0.1191
  818MOL0     C 7850   3.979   9.678   9.036 -0.1807  0.5610  0.3596
  818MOL0     C 7851   3.955   9.570   9.128  0.8805 -0.6352  0.6031
  818MOL0     O 7852   3.832   9.550   9.179  0.7243  0.3295 -0.0309
  818MOL0     C 7853   3.721   9.636   9.160  0.8262 -0.8517  0.3653
  818MOL0     C 7854   3.608   9.583   9.253  0.6293  0.5762  0.5620
  818MOL0     C 7855   3.473   9.657   9.252  1.2922 -0.3525  0.3357
  818MOL0     C 7856   3.364   9.598   9.351 -0.1936 -0.0802 -0.5326
  818MOL0     C 7857   3.235   9.678   9.347 -0.3019 -0.5038 -0.7804
  818MOL0     C 7858   3.263   9.814   9.409 -0.2401  0.4833 -0.4282
  818MOL0     C 7859   3.132   9.879   9.453  0.5897 -0.4535  0.0894
  818MOL0     C 7860   3.158   9.993   9.551  0.5493  0.0368 -0.1785
  818MOL0     N 7861   3.042  10.054   9.618 -1.0964 -0.1677  0.4407
  818MOL0     C 7862   2.990   9.995   9.737 -0.5250  0.5541 -0.9877
  818MOL0     C 7863   2.913  10.097   9.793 -0.6879  0.4605 -0.5089
  818MOL0     C 7864   2.837  10.082   9.919  0.7941  0.5981 -0.2408
  818MOL0     C 7865   2.698  10.151   9.908 -0.4152 -0.4019 -0.0931
  818MOL0     C 7866   2.618  10.148  10.035 -0.5374  0.1153  0.2815
  818MOL0     C 7867   2.478  10.203  10.013  0.5615 -0.2127 -0.5690
  818MOL0     O 7868   2.390  10.089  10.027  0.3015  0.4438 -0.2136
  818MOL0     C 7869   2.269  10.101   9.973  0.2707  0.7968 -0.0862
  818MOL0     C 7870   2.209  10.221   9.958  0.4965 -0.6089 -0.4369
  818MOL0     C 7871   2.080  10.229   9.899 -0.3615  0.2299  0.0057
  818MOL0     C 7872   2.015  10.113   9.861 -0.1954  0.1060  0.3012
  818MOL0     C 7873   1.880  10.110   9.803  0.6361  0.0474  0.4080
  818MOL0     O 7874   1.800  10.211   9.853  0.1426  0.3516 -0.3476
  818MOL0     C 7875   1.665  10.208   9.826  0.9136  0.4019 -1.6540
  818MOL0     C 7876   1.594  10.087   9.845  0.4927 -0.2554 -0.3860
  818MOL0     C 7877   1.458  10.083   9.833  0.9808  0.3314 -0.1680
  818MOL0     C 7878   1.379  10.197   9.809 -0.5200  0.6385  0.7235
  818MOL0     O 7879   1.242  10.206   9.801 -0.3241  0.5764  0.2271
  818MOL0     C 7880   1.161  10.089   9.848 -0.0955 -0.7037  0.1781
  818MOL0     C 7881   1.016  10.135   9.877  0.6556 -0.1401  0.3178
  818MOL0     C 7882   0.986  10.131  10.023  0.2131 -1.4750 -0.0293
  818MOL0     C 7883   0.837  10.168  10.046  0.2655 -0.3367 -0.4981
  818MOL0     C 7884   0.797  10.129  10.191 -0.0251  0.0573 -0.5317
  818MOL0     C 7885   0.676  10.200  10.252  0.2993 -0.1868 -0.1028
  818MOL0     C 7886   0.548  10.160  10.173  0.0497 -0.9463  0.0362
  818MOL0     C 7887   0.509  10.008  10.156 -1.0507  0.2462 -0.3616
  818MOL0    Cl 7888   0.369  10.001  10.054  0.5676  0.0221 -0.3630
  818MOL0     C 7889   1.451  10.316   9.799  0.2547 -0.5778 -0.0548
  818MOL0     C 7890   1.588  10.320   9.799  0.1793 -0.1645 -0.1629
  818MOL0     O 7891   1.848  10.021   9.721 -0.8516 -0.3610 -0.0727
  818MOL0     C 7892   2.072   9.987   9.881 -0.0420 -0.0235  0.2854
  818MOL0     C 7893   2.201   9.984   9.937  0.4353  0.3148  1.0836
  818MOL0     N 7894   2.915  10.202   9.696 -0.0506  0.2066 -0.1199
  818MOL0     N 7895   2.985  10.182   9.593  0.4395  0.3291  0.9075
  818MOL0     C 7896   4.062   9.494   9.168  0.0382  0.4509  0.6915
  818MOL0     C 7897   4.188   9.503   9.113 -0.3157 -1.1407  0.3193
  818MOL0     C 7898   4.576   9.628   8.983  0.9121  1.1361  0.6500
  818MOL0     C 7899   4.699   9.635   9.057  0.9096  0.7338  0.3635
  818MOL0     C 7900   4.814   9.585   8.998 -0.4252 -0.6598 -0.4640
  818MOL0     C 7901   4.821   9.531   8.868  0.7875 -0.0496 -0.1087
  818MOL0     O 7902   4.930   9.476   8.808  0.2044  0.1012 -0.3840
  818MOL0     C 7903   5.045   9.430   8.883 -0.0128 -0.0725 -0.8029
  818MOL0     C 7904   5.149   9.371   8.792  0.3121  0.4451 -0.4712
  818MOL0     C 7905   5.272   9.336   8.874  0.6616  0.4170  0.1205
  818MOL0     C 7906   5.246   9.226   8.978  0.1915  0.1330 -0.6042
  818MOL0     C 7907   5.374   9.187   9.034 -0.3089  0.1080  0.3141
  818MOL0     C 7908   5.489   9.164   9.079  0.1774  0.2429 -0.3018
  818MOL0     C 7909   4.700   9.525   8.802  0.2605 -0.4853  0.0149
  818MOL0     C 7910   4.582   9.584   8.855  0.0465  0.7173 -0.4389
  818MOL0     H 7911   4.135   9.765   8.903  3.0165 -0.5188  0.9588
  818MOL0     H 7912   3.892   9.736   9.005  0.3319  1.7980  1.1754
  818MOL0     H 7913   3.691   9.622   9.056 -1.8876 -1.9217  1.1817
  818MOL0     H 7914   3.739   9.743   9.171 -2.7516  0.1569 -1.8132
  818MOL0     H 7915   3.655   9.583   9.352  2.1886  0.9687 -0.1474
  818MOL0     H 7916   3.592   9.479   9.224  1.0894  0.5453  0.4062
  818MOL0     H 7917   3.426   9.652   9.154  0.6998  0.2659  0.5736
  818MOL0     H 7918   3.503   9.761   9.273 -0.0015  0.0211  0.3989
  818MOL0     H 7919   3.351   9.496   9.316  3.4473 -0.0938 -2.3805
  818MOL0     H 7920   3.407   9.593   9.452 -0.1515 -0.1128 -0.5527
  818MOL0     H 7921   3.170   9.620   9.413  2.5262 -0.2633  2.4878
  818MOL0     H 7922   3.189   9.691   9.248 -0.0087  0.5896 -0.7891
  818MOL0     H 7923   3.313   9.881   9.338 -3.3603 -0.0339 -3.3785
  818MOL0     H 7924   3.323   9.792   9.497 -2.0215 -0.7935  0.5228
  818MOL0     H 7925   3.092   9.919   9.360  1.3448 -1.5644 -0.7377
  818MOL0     H 7926   3.052   9.817   9.493 -0.4761  2.1422  2.3286
  818MOL0     H 7927   3.216  10.079   9.517 -0.6440  1.6840  1.6971
  818MOL0     H 7928   3.218   9.951   9.632 -1.3723 -0.1787  1.1907
  818MOL0     H 7929   3.019   9.900   9.781  1.8022  1.5631 -0.2102
  818MOL0     H 7930   2.901  10.137   9.989  1.6134  1.2610 -1.4633
  818MOL0     H 7931   2.824   9.976   9.944 -1.5311  0.6077 -1.1396
  818MOL0     H 7932   2.648  10.083   9.839  2.7714 -1.3410 -1.6179
  818MOL0     H 7933   2.712  10.254   9.874  1.7190  0.0548  1.8976
  818MOL0     H 7934   2.619  10.045  10.073  3.2109  0.9985  3.1768
  818MOL0     H 7935   2.660  10.207  10.117 -0.3769  0.0312  0.2601
  818MOL0     H 7936   2.460  10.252   9.916 -1.5010 -0.1639 -0.2168
  818MOL0     H 7937   2.460  10.277  10.092  0.1822 -0.6464 -0.2440
  818MOL0     H 7938   2.257  10.310   9.999 -1.7368  0.7395 -0.6291
  818MOL0     H 7939   2.026  10.322   9.889 -1.1638 -0.1586  0.6199
  818MOL0     H 7940   1.653  10.000   9.874  1.5919  1.9461  5.2861
  818MOL0     H 7941   1.405   9.990   9.819 -0.9663  0.1479  5.7030
  818MOL0     H 7942   1.200  10.046   9.941 -2.1874 -0.1709  1.3867
  818MOL0     H 7943   1.165  10.014   9.768  0.5722 -2.2043  1.5593
  818MOL0     H 7944   0.948  10.068   9.824 -2.1263  0.2384  3.1388
  818MOL0     H 7945   1.006  10.235   9.833  0.2887  0.0651  0.8692
  818MOL0     H 7946   1.046  10.205  10.076 -1.5307  1.4161 -1.8397
  818MOL0     H 7947   1.010  10.033  10.065  0.2593 -2.2467 -1.7712
  818MOL0     H 7948   0.812  10.275  10.048  0.3541 -0.3221  0.3881
  818MOL0     H 7949   0.783  10.120   9.964 -1.1014  0.1732  0.0707
  818MOL0     H 7950   0.883  10.155  10.254 -0.6745  1.8424 -0.3116
  818MOL0     H 7951   0.790  10.020  10.198  1.4995  0.0602  2.1910
  818MOL0     H 7952   0.681  10.309  10.250 -2.8950  0.0929  1.2459
  818MOL0     H 7953   0.667  10.171  10.357 -1.3523  0.1098 -0.1386
  818MOL0     H 7954   0.458  10.200  10.221 -0.4726 -2.7261  0.6341
  818MOL0     H 7955   0.551  10.203  10.073  0.6519  1.8170  1.1688
  818MOL0     H 7956   0.493   9.959  10.252  0.3964 -0.4513 -0.4545
  818MOL0     H 7957   0.587   9.951  10.105 -2.0574 -3.6426  2.0307
  818MOL0     H 7958   1.391  10.403   9.776 -0.4409 -1.9198 -4.0424
  818MOL0     H 7959   1.643  10.411   9.777 -1.2073  0.8540  0.4435
  818MOL0     H 7960   2.017   9.896   9.860 -0.8345  0.6557 -0.6924
  818MOL0     H 7961   2.242   9.889   9.968  1.2941  0.4031  0.2713
  818MOL0     H 7962   4.035   9.420   9.242 -0.7139 -0.5605 -0.5458
  818MOL0     H 7963   4.270   9.442   9.147  1.4311  0.7863 -0.2314
  818MOL0     H 7964   4.705   9.672   9.159  0.4416 -1.1389  1.1226
  818MOL0     H 7965   4.906   9.596   9.053  0.2159 -0.3062 -1.5796
  818MOL0     H 7966   5.012   9.359   8.959  0.2350  0.7627  0.1063
  818MOL0     H 7967   5.079   9.518   8.939  0.1694 -1.1863  0.9133
  818MOL0     H 7968   5.112   9.289   8.729  1.1917 -0.5830  0.3302
  818MOL0     H 7969   5.179   9.450   8.721  1.3490  1.2645  0.8390
  818MOL0     H 7970   5.314   9.428   8.914 -0.3111  0.1380  1.8688
  818MOL0     H 7971   5.354   9.299   8.811  0.5606 -0.7549  0.6427
  818MOL0     H 7972   5.195   9.262   9.068  2.2940 -0.9611  1.1201
  818MOL0     H 7973   5.191   9.142   8.937 -2.8600  2.1714 -1.0108
  818MOL0     H 7974   5.589   9.140   9.110  1.1407  0.2520 -3.1938
  818MOL0     H 7975   4.713   9.467   8.710  2.9572  1.9097 -1.2743
  818MOL0     H 7976   4.498   9.580   8.787 -0.7120  0.0738  0.5013
  819MOL0     O 7977   5.971   9.254  10.560  0.0329  1.0125  0.1478
  819MOL0     C 7978   5.995   9.371  10.536  0.3321 -0.9439 -0.1035
  819MOL0     O 7979   5.904   9.473  10.527  0.1618 -0.0724 -0.3006
  819MOL0     C 7980   5.781   9.459  10.584 -0.7594  0.4574 -0.0733
  819MOL0     C 7981   5.753   9.393  10.700 -0.6627  1.2087  0.1873
  819MOL0     C 7982   5.626   9.378  10.753 -0.1092  0.5227 -0.3662
  819MOL0     C 7983   5.523   9.429  10.683  0.3285  0.2714  0.6486
  819MOL0     O 7984   5.392   9.409  10.723 -0.3457  0.1909  0.6333
  819MOL0     C 7985   5.359   9.375  10.861  0.2253 -0.7825 -0.3715
  819MOL0     C 7986   5.219   9.340  10.888 -0.1233  0.2086 -0.8803
  819MOL0     C 7987   5.124   9.464  10.863 -0.5714 -0.4970  0.8632
  819MOL0     C 7988   4.983   9.418  10.850  0.5369  0.6145 -1.0406
  819MOL0     C 7989   4.882   9.537  10.837 -0.5240 -0.0053  0.1364
  819MOL0     C 7990   4.731   9.499  10.819 -0.2849 -0.4819 -0.2254
  819MOL0     C 7991   4.648   9.620  10.862  0.2812  0.0047  0.3179
  819MOL0     C 7992   4.496   9.593  10.860 -0.3679 -0.6618  0.4325
  819MOL0     N 7993   4.422   9.722  10.852 -0.5318  0.6927 -0.0811
  819MOL0     C 7994   4.292   9.728  10.811  0.4184  0.0999 -0.8912
  819MOL0     C 7995   4.258   9.861  10.810 -1.2432 -0.7018  0.6490
  819MOL0     C 7996   4.125   9.912  10.772  0.2740 -1.0787  0.4965
  819MOL0     C 7997   4.016   9.887  10.885  0.0129 -0.0816 -0.0464
  819MOL0     C 7998   4.069   9.920  11.026  0.2978 -0.0978  0.5636
  819MOL0     C 7999   3.961   9.869  11.122 -0.0616  0.5889 -0.8169
  819MOL0     O 8000   3.847   9.960  11.113 -0.0261  0.1568 -0.6434
  819MOL0     C 8001   3.723   9.928  11.156  0.2218 -0.2166 -0.2105
  819MOL0     C 8002   3.667   9.799  11.133 -0.6648 -0.4353  0.8416
  819MOL0     C 8003   3.539   9.765  11.189 -0.5371 -0.5303  0.5370
  819MOL0     C 8004   3.462   9.860  11.260  0.3867 -0.1360 -0.3611
  819MOL0     C 8005   3.319   9.841  11.303  0.2372  0.6536 -0.5059
  819MOL0     O 8006   3.273   9.912  11.410 -0.5173  0.0639 -0.4802
  819MOL0     C 8007   3.136   9.919  11.422  1.2458  0.1403  0.4801
  819MOL0     C 8008   3.066   9.840  11.509  0.4528 -0.2577  0.3848
  819MOL0     C 8009   2.925   9.832  11.501 -0.1689  0.1969 -0.5307
  819MOL0     C 8010   2.857   9.919  11.419  0.5220 -0.2185 -0.4009
  819MOL0     O 8011   2.722   9.935  11.413 -0.0806 -0.1318  0.3128
  819MOL0     C 8012   2.660   9.922  11.535 -1.1260  0.3144 -0.8683
  819MOL0     C 8013   2.513   9.915  11.512  0.0949 -0.6926  0.3797
  819MOL0     C 8014   2.432   9.902  11.643  0.3516 -0.2884 -0.1852
  819MOL0     C 8015   2.284   9.898  11.635 -0.9736  0.0001  0.5963
  819MOL0     C 8016   2.213   9.968  11.755  0.3620 -0.4012  0.3432
  819MOL0     C 8017   2.072   9.924  11.761 -0.8275 -0.1984 -0.9394
  819MOL0     C 8018   2.011  10.012  11.865  0.9212 -0.4476 -0.0766
  819MOL0     C 8019   1.864   9.970  11.874 -0.0385 -0.0429  0.6289
  819MOL0    Cl 8020   1.836   9.860  12.005  0.0015  0.1167  0.5484
  819MOL0     C 8021   2.927   9.998  11.336  0.3224 -0.3781 -0.0400
  819MOL0     C 8022   3.065   9.987  11.324 -0.2043 -0.4403  0.4188
  819MOL0     O 8023   3.256   9.772  11.230  0.1660  0.7058  0.2989
  819MOL0     C 8024   3.513   9.992  11.272  0.7075  1.2002 -0.7155
  819MOL0     C 8025   3.644  10.021  11.228 -0.1493  0.3625 -0.4598
  819MOL0     N 8026   4.378   9.926  10.834 -0.4070  0.9747  0.4613
  819MOL0     N 8027   4.473   9.844  10.852  0.2329  0.6087 -0.0882
  819MOL0     C 8028   5.546   9.489  10.560 -0.5106 -0.0528  0.1416
  819MOL0     C 8029   5.677   9.505  10.506  0.8259 -0.7308  0.0762
  819MOL0     C 8030   6.140   9.412  10.527 -0.0342 -0.0820  0.0109
  819MOL0     C 8031   6.169   9.542  10.556 -0.3341  0.3672 -0.2245
  819MOL0     C 8032   6.301   9.581  10.549  0.4830 -0.7140 -0.0867
  819MOL0     C 8033   6.404   9.496  10.515  0.1072  0.0232 -0.8925
  819MOL0     O 8034   6.529   9.549  10.520 -0.2201  0.1015 -0.5434
  819MOL0     C 8035   6.620   9.466  10.586 -0.0745  0.2806 -0.3628
  819MOL0     C 8036   6.731   9.552  10.629  0.2386 -0.5929  0.3561
  819MOL0     C 8037   6.697   9.642  10.747 -0.4021  0.3853 -0.5442
  819MOL0     C 8038   6.807   9.750  10.771  0.6740 -0.0832 -0.5199
  819MOL0     C 8039   6.939   9.679  10.781  0.1984  0.2344  0.2856
  819MOL0     C 8040   7.045   9.615  10.783 -0.2683 -0.1549  0.0774
  819MOL0     C 8041   6.372   9.359  10.489  0.1976 -0.1145  0.0344
  819MOL0     C 8042   6.237   9.317  10.492 -0.3545  0.3223  0.6697
  819MOL0     H 8043   5.836   9.359  10.762  0.2886  1.7641 -0.7465
  819MOL0     H 8044   5.626   9.321  10.845 -0.6305  0.0815 -0.6291
  819MOL0     H 8045   5.379   9.470  10.912  0.1794 -0.5871 -0.7170
  819MOL0     H 8046   5.419   9.293  10.902 -1.8919 -0.8238  3.0790
  819MOL0     H 8047   5.202   9.306  10.991  0.7304 -0.4727 -0.9470
  819MOL0     H 8048   5.180   9.259  10.827  0.4308 -0.8012  0.0689
  819MOL0     H 8049   5.148   9.517  10.771 -0.8623 -0.3139  0.8913
  819MOL0     H 8050   5.146   9.530  10.947 -0.0394 -1.7360  1.7440
  819MOL0     H 8051   4.973   9.344  10.770  1.0383 -0.9601  0.3159
  819MOL0     H 8052   4.963   9.367  10.944  1.1816 -0.7416 -1.6008
  819MOL0     H 8053   4.903   9.592  10.744  0.1750 -2.1023 -1.0002
  819MOL0     H 8054   4.891   9.602  10.925  2.6452 -0.5029  0.2661
  819MOL0     H 8055   4.706   9.421  10.891  0.1014  2.1536  2.9547
  819MOL0     H 8056   4.716   9.464  10.716 -1.3868  0.5070 -0.4329
  819MOL0     H 8057   4.678   9.653  10.962 -0.2724 -1.2233  0.9018
  819MOL0     H 8058   4.659   9.693  10.780 -0.2816 -1.9793 -1.6255
  819MOL0     H 8059   4.469   9.535  10.948  2.6491 -2.7184  0.1644
  819MOL0     H 8060   4.465   9.546  10.766 -0.1067 -4.6603  2.1276
  819MOL0     H 8061   4.229   9.649  10.771  1.7565 -0.2628 -2.3847
  819MOL0     H 8062   4.094   9.862  10.680 -1.2656 -1.2683  1.0932
  819MOL0     H 8063   4.132  10.021  10.758 -2.0335 -0.3651  3.6196
  819MOL0     H 8064   3.990   9.782  10.866 -2.1394  0.5359 -0.8129
  819MOL0     H 8065   3.929   9.945  10.855 -0.1261 -1.4767 -2.6604
  819MOL0     H 8066   4.163   9.868  11.047  0.6585  0.5290  0.5428
  819MOL0     H 8067   4.081  10.027  11.048 -0.6918  0.1218  0.0675
  819MOL0     H 8068   4.014   9.863  11.217 -0.4323 -0.2820 -0.6558
  819MOL0     H 8069   3.939   9.767  11.090  4.0849  0.2168 -3.2080
  819MOL0     H 8070   3.718   9.731  11.065 -0.2548  0.0796  0.6302
  819MOL0     H 8071   3.505   9.664  11.166 -0.9814 -0.2424 -0.0811
  819MOL0     H 8072   3.130   9.783  11.577 -1.9667 -1.9190  1.4205
  819MOL0     H 8073   2.875   9.756  11.559  0.8080  1.3144  1.8821
  819MOL0     H 8074   2.676  10.001  11.608 -0.2882 -2.8120  2.6790
  819MOL0     H 8075   2.687   9.834  11.594  3.7376  2.2017  0.1552
  819MOL0     H 8076   2.502   9.832  11.441 -0.7223  0.2252 -0.6051
  819MOL0     H 8077   2.483  10.009  11.465  0.1609  0.1048  1.8551
  819MOL0     H 8078   2.455   9.993  11.699 -0.0239 -1.7156  2.4341
  819MOL0     H 8079   2.461   9.811  11.696 -1.9342 -0.3565  1.0969
  819MOL0     H 8080   2.241   9.947  11.547 -1.1032  1.7364  1.5657
  819MOL0     H 8081   2.253   9.793  11.629  0.9502 -0.5413 -0.9516
  819MOL0     H 8082   2.214  10.076  11.739 -1.2970 -0.0505  2.1764
  819MOL0     H 8083   2.263   9.951  11.851  2.1634  1.9192 -0.0943
  819MOL0     H 8084   2.069   9.817  11.786 -1.3429 -0.2929 -1.3871
  819MOL0     H 8085   2.016   9.932  11.668 -1.7508  1.6934 -0.2634
  819MOL0     H 8086   2.056  10.014  11.965 -0.2238  3.0983  0.5175
  819MOL0     H 8087   2.010  10.119  11.841  1.0278 -0.7698 -1.5964
  819MOL0     H 8088   1.830   9.933  11.777 -0.1893 -2.0605  1.4086
  819MOL0     H 8089   1.790  10.049  11.889 -0.9024 -0.5388 -0.8303
  819MOL0     H 8090   2.875  10.073  11.278 -0.3292  0.8136  1.9608
  819MOL0     H 8091   3.119  10.033  11.242 -0.6544  0.4948  0.6323
  819MOL0     H 8092   3.457  10.063  11.332 -0.7664 -1.7753  1.6343
  819MOL0     H 8093   3.690  10.117  11.248 -2.8370  1.3922  1.4096
  819MOL0     H 8094   5.475   9.537  10.493  0.9592 -0.9204 -2.1911
  819MOL0     H 8095   5.681   9.557  10.411 -3.2794 -1.0225 -0.4239
  819MOL0     H 8096   6.095   9.611  10.594  0.6432 -0.2259  3.0941
  819MOL0     H 8097   6.332   9.679  10.584 -0.3311 -0.4746 -0.0029
  819MOL0     H 8098   6.643   9.377  10.526 -0.2806  0.3729 -0.5778
  819MOL0     H 8099   6.571   9.429  10.677  2.8141  0.7973  1.5397
  819MOL0     H 8100   6.820   9.492  10.646 -0.1699 -1.5312 -0.6934
  819MOL0     H 8101   6.751   9.625  10.550  1.3645 -0.7151  0.5189
  819MOL0     H 8102   6.683   9.577  10.834  0.1712  0.3079 -0.5054
  819MOL0     H 8103   6.598   9.688  10.733  0.3141  1.8005 -1.1920
  819MOL0     H 8104   6.804   9.830  10.697 -1.8457  3.6428  3.1378
  819MOL0     H 8105   6.787   9.796  10.868 -0.7904 -1.3115 -0.2030
  819MOL0     H 8106   7.130   9.550  10.785 -0.4386 -0.4585 -1.3217
  819MOL0     H 8107   6.446   9.282  10.470 -1.0597 -1.6703  1.1075
  819MOL0     H 8108   6.200   9.218  10.470 -0.1559  0.0758  1.4245
  820MOL0     O 8109   9.124   8.466   9.543 -0.4669 -0.4162  0.1046
  820MOL0     C 8110   9.203   8.423   9.623 -0.4686 -0.2558 -0.4679
  820MOL0     O 8111   9.198   8.300   9.688 -0.0655  0.2776 -1.1471
  820MOL0     C 8112   9.079   8.227   9.676  0.7286 -0.5711  0.3814
  820MOL0     C 8113   9.083   8.086   9.670 -0.7570  0.2652  0.1433
  820MOL0     C 8114   8.974   8.006   9.647 -0.1385  0.7666  0.2770
  820MOL0     C 8115   8.842   8.056   9.644 -1.2233 -0.8528  0.0343
  820MOL0     O 8116   8.733   7.985   9.617  0.0801  0.2456  0.2151
  820MOL0     C 8117   8.638   7.968   9.726 -0.8547  0.2974 -0.3930
  820MOL0     C 8118   8.582   7.824   9.729  0.3939 -0.1538 -0.3281
  820MOL0     C 8119   8.487   7.804   9.836 -0.1185 -0.0786 -0.4454
  820MOL0     C 8120   8.354   7.855   9.784  0.1320 -0.1709  0.3928
  820MOL0     C 8121   8.232   7.852   9.878 -0.5629 -0.3112 -0.5705
  820MOL0     C 8122   8.240   7.752  10.000 -1.2522 -0.6223  0.7951
  820MOL0     C 8123   8.111   7.738  10.076 -0.3154  1.4364 -0.2259
  820MOL0     C 8124   8.075   7.868  10.155 -0.1062  0.2853  0.9951
  820MOL0     N 8125   7.953   7.857  10.234  0.1971  0.0216 -0.1028
  820MOL0     C 8126   7.830   7.883  10.191  0.3176 -1.0108  0.0181
  820MOL0     C 8127   7.747   7.878  10.295  0.8359  0.4273 -0.3012
  820MOL0     C 8128   7.598   7.893  10.307  0.0145  1.2437  0.0372
  820MOL0     C 8129   7.531   7.882  10.166 -0.9418  0.0570 -0.1655
  820MOL0     C 8130   7.387   7.932  10.197 -0.3370  0.5272 -0.3130
  820MOL0     C 8131   7.301   7.955  10.078  0.1159  0.2225  0.4735
  820MOL0     O 8132   7.166   7.969  10.116  0.8914 -0.4246 -0.1526
  820MOL0     C 8133   7.074   8.029  10.037 -0.5723  0.4099 -0.2061
  820MOL0     C 8134   7.101   8.068   9.907  0.6335 -0.5646 -0.7227
  820MOL0     C 8135   7.008   8.133   9.830 -0.3287 -0.1887 -0.1562
  820MOL0     C 8136   6.880   8.150   9.872  1.5013 -0.2072 -0.0018
  820MOL0     C 8137   6.780   8.221   9.790 -0.4977 -0.3389 -0.4780
  820MOL0     O 8138   6.813   8.231   9.656  0.1691 -0.5208 -0.1949
  820MOL0     C 8139   6.720   8.299   9.587  0.2781 -0.5851 -0.1532
  820MOL0     C 8140   6.744   8.429   9.546 -0.5845  1.2202  0.1935
  820MOL0     C 8141   6.647   8.500   9.469  0.6973 -0.5689 -0.0764
  820MOL0     C 8142   6.523   8.440   9.436 -0.1244 -0.7217  0.2125
  820MOL0     O 8143   6.419   8.492   9.363 -0.1741  0.3797 -0.6835
  820MOL0     C 8144   6.388   8.626   9.382 -0.5338 -0.3562  0.2684
  820MOL0     C 8145   6.239   8.658   9.407  0.4772  0.8165  0.3546
  820MOL0     C 8146   6.160   8.622   9.276 -0.2145  0.1810 -0.2531
  820MOL0     C 8147   6.013   8.660   9.265  1.4743  0.7516  0.2136
  820MOL0     C 8148   5.976   8.660   9.113 -0.1431 -0.6420  0.6318
  820MOL0     C 8149   5.823   8.666   9.084 -0.2496  0.0529 -0.0320
  820MOL0     C 8150   5.741   8.735   9.190 -0.3255 -0.4331 -0.2797
  820MOL0     C 8151   5.589   8.779   9.154  0.3917 -0.2872 -0.3362
  820MOL0    Cl 8152   5.486   8.656   9.080 -0.0224  0.3907  0.0361
  820MOL0     C 8153   6.498   8.306   9.477 -0.5076 -0.8437  0.5472
  820MOL0     C 8154   6.597   8.234   9.553 -0.1126  0.0069 -0.3556
  820MOL0     O 8155   6.679   8.269   9.841  0.1934  0.3904  0.0378
  820MOL0     C 8156   6.852   8.099  10.002 -0.1609  1.0563  0.3103
  820MOL0     C 8157   6.952   8.048  10.087  0.3584  0.6179 -0.2312
  820MOL0     N 8158   7.820   7.834  10.398  0.1658  0.7244  0.3953
  820MOL0     N 8159   7.946   7.815  10.361  0.2881 -0.1838  0.4977
  820MOL0     C 8160   8.830   8.193   9.676  0.3412 -0.6848 -0.7939
  820MOL0     C 8161   8.947   8.282   9.687 -0.5762  0.2562 -0.1921
  820MOL0     C 8162   9.327   8.502   9.654 -0.5589  0.0589  0.6238
  820MOL0     C 8163   9.442   8.442   9.716  0.0956 -0.6409  0.2183
  820MOL0     C 8164   9.559   8.521   9.731 -0.5051 -0.4930 -1.1478
  820MOL0     C 8165   9.564   8.652   9.685  0.6945  0.4979  0.1733
  820MOL0     O 8166   9.673   8.739   9.692  0.3088  0.8263 -0.1754
  820MOL0     C 8167   9.799   8.684   9.733  0.0935 -0.2420 -0.3144
  820MOL0     C 8168   9.901   8.776   9.685 -0.6142  0.5123 -0.9259
  820MOL0     C 8169  10.038   8.707   9.699  0.2112  0.1313 -0.4219
  820MOL0     C 8170  10.133   8.808   9.646 -0.5373  0.2368 -0.1536
  820MOL0     C 8171  10.266   8.801   9.692  0.3995  0.5278  0.1551
  820MOL0     C 8172  10.379   8.793   9.736 -0.0034 -0.5644  0.6166
  820MOL0     C 8173   9.448   8.715   9.644  0.0788 -0.5070  1.3405
  820MOL0     C 8174   9.332   8.644   9.625 -0.1696  0.1147 -0.1885
  820MOL0     H 8175   9.183   8.045   9.661 -1.0623 -0.3838 -0.3254
  820MOL0     H 8176   8.996   7.900   9.637  0.4952  1.0125 -1.2605
  820MOL0     H 8177   8.547   8.028   9.713 -2.1051 -1.3502  0.3656
  820MOL0     H 8178   8.675   7.983   9.828 -1.4813  0.4362 -0.1774
  820MOL0     H 8179   8.660   7.750   9.747  0.1660 -0.6411 -1.2612
  820MOL0     H 8180   8.536   7.798   9.633 -3.5192  2.2150  0.6728
  820MOL0     H 8181   8.515   7.850   9.932  0.4018 -1.1813 -0.0529
  820MOL0     H 8182   8.481   7.697   9.859  3.1691 -1.1658 -3.6809
  820MOL0     H 8183   8.351   7.954   9.738  0.3334 -1.4591 -2.6222
  820MOL0     H 8184   8.327   7.795   9.697  1.2773  2.1561 -1.6779
  820MOL0     H 8185   8.139   7.841   9.821 -0.6986  0.5470 -0.5413
  820MOL0     H 8186   8.230   7.952   9.923  2.4443 -0.0630 -0.8081
  820MOL0     H 8187   8.315   7.792  10.069  0.6045  0.4993 -1.7255
  820MOL0     H 8188   8.277   7.657   9.959  0.7590  0.6847 -0.6225
  820MOL0     H 8189   8.020   7.710  10.021 -1.0631  0.8139  1.2553
  820MOL0     H 8190   8.132   7.655  10.145  0.5757  0.8943 -1.1270
  820MOL0     H 8191   8.061   7.955  10.090  0.6237  1.8926  2.9060
  820MOL0     H 8192   8.146   7.882  10.237 -3.0596  1.0976  3.6000
  820MOL0     H 8193   7.797   7.900  10.089  0.4577 -1.4471 -0.1030
  820MOL0     H 8194   7.592   7.997  10.343 -1.9225  1.4700 -0.7848
  820MOL0     H 8195   7.548   7.826  10.377  1.3491 -0.9863 -1.0436
  820MOL0     H 8196   7.539   7.777  10.138 -2.2935  0.1478 -1.0157
  820MOL0     H 8197   7.581   7.950  10.097  0.1088  0.2943  0.8058
  820MOL0     H 8198   7.340   7.856  10.260  2.1829  0.2607  1.3856
  820MOL0     H 8199   7.402   8.021  10.259  1.1455  0.4846 -0.5694
  820MOL0     H 8200   7.307   7.875  10.004  2.6983  1.3901 -0.7034
  820MOL0     H 8201   7.347   8.046  10.041 -0.9149  0.1346 -1.1115
  820MOL0     H 8202   7.200   8.053   9.864  0.8807  2.8585 -1.6586
  820MOL0     H 8203   7.039   8.171   9.733 -1.6542  0.9495 -0.1578
  820MOL0     H 8204   6.836   8.479   9.572  0.7644 -2.5860  4.0468
  820MOL0     H 8205   6.657   8.606   9.452 -1.3883 -0.2005  0.7270
  820MOL0     H 8206   6.423   8.666   9.286 -2.3977 -0.7349 -0.6055
  820MOL0     H 8207   6.443   8.675   9.463  1.6012  1.2671 -2.0020
  820MOL0     H 8208   6.225   8.764   9.433 -1.0399  0.9824 -0.9423
  820MOL0     H 8209   6.201   8.604   9.494  1.0151 -1.7686 -0.9299
  820MOL0     H 8210   6.176   8.515   9.258  0.0562  0.6561 -3.4416
  820MOL0     H 8211   6.213   8.654   9.186  1.6647  0.9498  1.0565
  820MOL0     H 8212   5.951   8.591   9.324 -0.8817 -0.8390 -3.7268
  820MOL0     H 8213   5.987   8.757   9.309 -1.6023 -0.4812  1.4121
  820MOL0     H 8214   5.999   8.567   9.059 -3.8365 -0.9580 -0.6648
  820MOL0     H 8215   6.021   8.750   9.070 -2.2361  0.6357  1.0094
  820MOL0     H 8216   5.788   8.562   9.074  1.5678 -0.6603  0.6536
  820MOL0     H 8217   5.806   8.720   8.990 -0.3497 -0.8527 -0.5545
  820MOL0     H 8218   5.730   8.673   9.280  1.3300 -2.9966 -1.7205
  820MOL0     H 8219   5.801   8.823   9.211 -2.7281  1.2729 -0.1546
  820MOL0     H 8220   5.588   8.858   9.078  0.0773 -0.0723 -0.1139
  820MOL0     H 8221   5.533   8.814   9.241  3.0539  0.7123  1.1093
  820MOL0     H 8222   6.405   8.256   9.450  0.6859 -2.2604 -1.2229
  820MOL0     H 8223   6.582   8.128   9.570  2.2167 -0.4290 -0.7303
  820MOL0     H 8224   6.750   8.104  10.039 -0.4288 -0.0754 -0.2491
  820MOL0     H 8225   6.936   8.011  10.188 -1.4865  1.6124 -0.1317
  820MOL0     H 8226   8.735   8.243   9.687  2.0969  3.6891 -2.9862
  820MOL0     H 8227   8.937   8.389   9.702  2.0520  0.1677  3.7483
  820MOL0     H 8228   9.444   8.336   9.741  1.1232 -0.5169  0.6925
  820MOL0     H 8229   9.650   8.485   9.778 -1.9196 -0.6135  1.6902
  820MOL0     H 8230   9.818   8.588   9.684 -0.9599 -0.3693 -0.4903
  820MOL0     H 8231   9.803   8.669   9.842 -0.9900 -3.8933 -0.6356
  820MOL0     H 8232   9.885   8.796   9.579 -0.5058 -1.6823 -1.3960
  820MOL0     H 8233   9.894   8.861   9.753 -1.9814 -1.9446  2.2641
  820MOL0     H 8234  10.050   8.617   9.638  2.0760  0.3305 -0.3953
  820MOL0     H 8235  10.069   8.680   9.800 -1.2015 -0.8411 -0.2158
  820MOL0     H 8236  10.131   8.790   9.538  2.6664 -0.6090 -0.1820
  820MOL0     H 8237  10.099   8.911   9.658 -0.3259  0.8487 -3.5973
  820MOL0     H 8238  10.477   8.777   9.776  0.4045 -0.1385 -0.1861
  820MOL0     H 8239   9.453   8.818   9.611  0.1362 -0.8662  0.1473
  820MOL0     H 8240   9.255   8.701   9.573 -0.4643 -1.3067 -1.3843
  821MOL0     O 8241   4.033  10.492   4.866 -0.3727  0.3365  0.7485
  821MOL0     C 8242   3.975  10.580   4.921 -0.7705 -0.4620  0.7154
  821MOL0     O 8243   4.020  10.646   5.024 -0.8779  0.3396 -0.1336
  821MOL0     C 8244   4.108  10.593   5.120  0.1462 -0.2112  0.9104
  821MOL0     C 8245   4.199  10.675   5.177  0.5249 -0.2755  0.5927
  821MOL0     C 8246   4.274  10.630   5.292  0.4722  0.0552 -0.1193
  821MOL0     C 8247   4.267  10.501   5.334  0.4605  0.0792  0.1069
  821MOL0     O 8248   4.349  10.469   5.437 -0.1583  0.7319  0.6921
  821MOL0     C 8249   4.301  10.387   5.552 -0.0098  0.0251  0.2438
  821MOL0     C 8250   4.357  10.243   5.569 -1.3677 -0.6838 -0.5572
  821MOL0     C 8251   4.293  10.161   5.679 -0.1012 -0.8688  1.2976
  821MOL0     C 8252   4.141  10.132   5.669 -0.2498 -0.4280 -0.4223
  821MOL0     C 8253   4.101  10.011   5.743 -0.5040  0.1316  0.1005
  821MOL0     C 8254   4.115  10.009   5.900  0.3495 -0.0260  0.5348
  821MOL0     C 8255   4.083   9.870   5.965 -0.2376 -0.1774 -0.2931
  821MOL0     C 8256   4.212   9.792   5.983 -0.4603 -0.6294  0.7958
  821MOL0     N 8257   4.177   9.658   6.033  0.3008  0.4043 -0.1768
  821MOL0     C 8258   4.252   9.542   6.021 -0.3461  0.4858  0.3465
  821MOL0     C 8259   4.187   9.445   6.082 -0.0559 -0.8090  0.5196
  821MOL0     C 8260   4.220   9.299   6.075 -0.7940 -0.3102  0.1719
  821MOL0     C 8261   4.100   9.214   6.046  0.3208  0.4490  0.4339
  821MOL0     C 8262   4.124   9.065   6.082  0.8722  0.5456 -0.1152
  821MOL0     C 8263   3.982   9.002   6.093 -1.0582 -0.2668 -0.0630
  821MOL0     O 8264   3.913   9.025   5.977 -0.1178 -0.4883  0.0764
  821MOL0     C 8265   3.784   9.056   5.983  0.0623  0.8500  0.5999
  821MOL0     C 8266   3.692   8.965   6.035 -0.1337  0.0632 -0.5940
  821MOL0     C 8267   3.566   8.996   6.061 -0.4377 -1.2439 -0.7611
  821MOL0     C 8268   3.518   9.118   6.026 -0.1648  0.2129  0.4105
  821MOL0     C 8269   3.377   9.159   6.056  0.4559  0.2132  1.1248
  821MOL0     O 8270   3.308   9.087   6.159 -0.6525  0.2838 -0.0855
  821MOL0     C 8271   3.183   9.131   6.194 -0.0462 -0.3062 -0.6700
  821MOL0     C 8272   3.066   9.081   6.141 -0.7543  0.5704 -0.5821
  821MOL0     C 8273   2.951   9.148   6.164  0.6477 -0.4390  0.2560
  821MOL0     C 8274   2.942   9.259   6.241  0.3259 -0.4124  0.4937
  821MOL0     O 8275   2.814   9.308   6.264  0.4084 -0.0283 -0.1240
  821MOL0     C 8276   2.795   9.448   6.242 -0.1775  0.0736  0.8663
  821MOL0     C 8277   2.645   9.482   6.249  0.5162  1.5247  0.2299
  821MOL0     C 8278   2.562   9.406   6.362 -0.8894  0.1053  0.2023
  821MOL0     C 8279   2.410   9.441   6.371  1.1666 -0.2765 -0.0890
  821MOL0     C 8280   2.346   9.407   6.508 -1.0779 -0.4587  0.3954
  821MOL0     C 8281   2.200   9.452   6.510  0.2897  0.0700  0.2480
  821MOL0     C 8282   2.133   9.399   6.637  0.5345  0.0235  0.0586
  821MOL0     C 8283   1.986   9.471   6.645  0.1547 -0.5842  0.2031
  821MOL0    Cl 8284   1.911   9.407   6.792  0.1572  0.1819  0.6090
  821MOL0     C 8285   3.056   9.312   6.306 -0.0940 -0.0642  0.0571
  821MOL0     C 8286   3.180   9.257   6.275 -0.8429 -0.3428  1.1400
  821MOL0     O 8287   3.328   9.248   5.992  0.4409  0.5600  0.5555
  821MOL0     C 8288   3.611   9.205   5.958  0.3966 -0.6913 -0.9521
  821MOL0     C 8289   3.739   9.177   5.930 -0.1112  0.5149  0.2884
  821MOL0     N 8290   4.084   9.503   6.159 -0.3259 -0.1592 -0.1662
  821MOL0     N 8291   4.079   9.628   6.132  0.7040 -0.2303 -0.2560
  821MOL0     C 8292   4.174  10.409   5.276  0.3924 -0.1644 -0.4122
  821MOL0     C 8293   4.103  10.454   5.162  0.3282 -0.6553  0.5482
  821MOL0     C 8294   3.848  10.632   4.859 -0.2627  0.3336 -0.2257
  821MOL0     C 8295   3.794  10.561   4.757 -0.1964  0.4532 -0.2366
  821MOL0     C 8296   3.676  10.606   4.695 -0.5301  0.6127 -0.2802
  821MOL0     C 8297   3.598  10.712   4.747 -0.0151  0.4702  0.5009
  821MOL0     O 8298   3.479  10.754   4.693  0.4176  0.4795 -0.2269
  821MOL0     C 8299   3.439  10.693   4.566  0.4137 -0.0864  0.3674
  821MOL0     C 8300   3.312  10.776   4.522  0.2485  0.0474 -0.3737
  821MOL0     C 8301   3.213  10.828   4.631 -0.3096 -0.1033 -0.0956
  821MOL0     C 8302   3.164  10.716   4.723  0.2884  0.0893 -0.3548
  821MOL0     C 8303   3.043  10.763   4.789 -0.1271 -0.5018 -0.0038
  821MOL0     C 8304   2.940  10.807   4.834 -0.2601 -1.3970 -0.4823
  821MOL0     C 8305   3.652  10.789   4.849 -0.2741 -0.1023 -0.2599
  821MOL0     C 8306   3.778  10.747   4.908  0.0243 -0.2074  1.3743
  821MOL0     H 8307   4.198  10.777   5.138 -0.7862 -0.7049 -0.5737
  821MOL0     H 8308   4.349  10.691   5.343  1.0183  0.1425 -1.0034
  821MOL0     H 8309   4.192  10.380   5.549 -0.0855  1.2254 -1.0743
  821MOL0     H 8310   4.325  10.447   5.640 -0.6928  0.5844  0.0603
  821MOL0     H 8311   4.465  10.257   5.584 -2.1166  3.7188  2.4334
  821MOL0     H 8312   4.346  10.180   5.480 -1.3834 -0.1168 -0.9632
  821MOL0     H 8313   4.322  10.195   5.779  1.2107  1.6943  0.1476
  821MOL0     H 8314   4.346  10.067   5.660 -0.4996 -1.4531  2.9176
  821MOL0     H 8315   4.091  10.225   5.700  0.5686  0.7495 -2.4361
  821MOL0     H 8316   4.119  10.127   5.562  1.8062 -2.1665 -0.8273
  821MOL0     H 8317   4.150   9.920   5.705 -0.5756 -0.2862  0.9901
  821MOL0     H 8318   3.993  10.004   5.727 -0.8933  3.4928  0.5628
  821MOL0     H 8319   4.044  10.076   5.949  0.5312 -0.5609  1.5627
  821MOL0     H 8320   4.214  10.045   5.929  0.7930  1.0710 -2.0318
  821MOL0     H 8321   4.053   9.881   6.070  0.2818 -1.4873  0.0109
  821MOL0     H 8322   4.007   9.811   5.912  0.1247  0.7503 -1.9175
  821MOL0     H 8323   4.286   9.841   6.047  3.3287 -3.3837 -1.0452
  821MOL0     H 8324   4.252   9.776   5.883 -0.7508 -0.0674  0.5843
  821MOL0     H 8325   4.338   9.523   5.959 -1.1347 -1.4377 -0.2544
  821MOL0     H 8326   4.273   9.259   6.162  0.9746  0.0438 -0.6955
  821MOL0     H 8327   4.291   9.294   5.992 -0.6719 -1.3712  0.3295
  821MOL0     H 8328   4.090   9.219   5.938  0.0060 -2.8596  0.2076
  821MOL0     H 8329   4.015   9.256   6.101 -1.6164 -1.9004 -0.5728
  821MOL0     H 8330   4.188   9.017   6.008  2.4662 -0.5811  1.8620
  821MOL0     H 8331   4.183   9.070   6.175  0.9963  1.5534 -0.2344
  821MOL0     H 8332   3.941   9.038   6.188 -1.2019 -2.6123  0.8400
  821MOL0     H 8333   3.997   8.894   6.104  2.2774  0.1254  0.2728
  821MOL0     H 8334   3.716   8.862   6.058 -3.9186 -1.0329 -0.8181
  821MOL0     H 8335   3.500   8.933   6.121 -2.6616  0.1874 -1.5605
  821MOL0     H 8336   3.060   8.987   6.086  0.6765  0.7236 -1.0395
  821MOL0     H 8337   2.858   9.105   6.127 -1.3699  1.3907  2.7929
  821MOL0     H 8338   2.841   9.480   6.148 -1.0832  0.4912  0.5500
  821MOL0     H 8339   2.849   9.508   6.316  2.0645  1.8959 -2.0242
  821MOL0     H 8340   2.596   9.456   6.155  1.4676 -2.9750  0.7711
  821MOL0     H 8341   2.630   9.590   6.256  0.7164  1.4129  3.7721
  821MOL0     H 8342   2.602   9.448   6.455 -1.3274  2.8193 -0.7559
  821MOL0     H 8343   2.578   9.298   6.360  0.4026  0.2849  0.0039
  821MOL0     H 8344   2.396   9.547   6.346 -0.8617 -0.7071 -1.0039
  821MOL0     H 8345   2.362   9.380   6.293  1.4450 -1.6436  0.7790
  821MOL0     H 8346   2.410   9.456   6.583  1.1326 -1.0730 -0.9829
  821MOL0     H 8347   2.349   9.299   6.518  1.3396 -0.5607 -0.7306
  821MOL0     H 8348   2.156   9.411   6.419 -0.1106 -0.9930  0.9117
  821MOL0     H 8349   2.197   9.561   6.499 -0.4003  0.2333  1.8977
  821MOL0     H 8350   2.116   9.291   6.636 -0.2709  0.1144  1.5231
  821MOL0     H 8351   2.195   9.427   6.722  0.9751  3.5899 -1.2363
  821MOL0     H 8352   1.936   9.447   6.551  1.0775  0.5885 -0.6177
  821MOL0     H 8353   2.007   9.578   6.646  1.0588 -0.7520  0.4892
  821MOL0     H 8354   3.047   9.406   6.359 -1.9643  1.1661 -2.2366
  821MOL0     H 8355   3.269   9.312   6.304  0.3927 -0.8823 -1.4206
  821MOL0     H 8356   3.579   9.303   5.923  3.7764  1.1893  0.6906
  821MOL0     H 8357   3.805   9.250   5.883 -0.4781  0.8543  0.2923
  821MOL0     H 8358   4.179  10.306   5.309  0.0371  0.1558  0.6964
  821MOL0     H 8359   4.035  10.377   5.126  0.7866 -2.1254  2.6769
  821MOL0     H 8360   3.839  10.470   4.719 -0.9840  0.5591 -1.4877
  821MOL0     H 8361   3.639  10.544   4.614 -1.3790 -0.3062  0.7841
  821MOL0     H 8362   3.423  10.585   4.573  2.7491 -0.4124  1.8329
  821MOL0     H 8363   3.513  10.710   4.488 -1.1451  2.7192 -0.6620
  821MOL0     H 8364   3.357  10.844   4.449 -0.4371 -0.4970 -1.3147
  821MOL0     H 8365   3.256  10.714   4.452  0.5417 -1.3890  0.6212
  821MOL0     H 8366   3.131  10.883   4.585 -2.4007 -1.4038  1.8364
  821MOL0     H 8367   3.270  10.890   4.700 -0.3807 -3.5209  3.3402
  821MOL0     H 8368   3.131  10.631   4.663 -1.4371 -0.2932  1.0555
  821MOL0     H 8369   3.238  10.686   4.799  0.8859 -0.2400 -1.0470
  821MOL0     H 8370   2.850  10.842   4.881  0.1833  1.8982 -1.8263
  821MOL0     H 8371   3.612  10.880   4.893 -1.2755  0.0901 -1.4839
  821MOL0     H 8372   3.817  10.808   4.989 -0.5709  0.8687  0.8647
  822MOL0     O 8373   7.927   3.250   6.871  0.4046 -0.3643  0.1243
  822MOL0     C 8374   8.037   3.210   6.833  0.6612  0.2003  0.0312
  822MOL0     O 8375   8.052   3.116   6.739  0.4923  0.0613 -0.8282
  822MOL0     C 8376   7.968   3.005   6.717 -0.3388 -0.7014 -0.7745
  822MOL0     C 8377   7.850   2.971   6.786  0.4175  0.4867  0.3400
  822MOL0     C 8378   7.778   2.851   6.761 -0.3777 -0.2146  0.5193
  822MOL0     C 8379   7.824   2.764   6.660 -0.4812  0.0079  0.2461
  822MOL0     O 8380   7.751   2.645   6.646 -0.2475 -0.0872  0.1751
  822MOL0     C 8381   7.717   2.612   6.513 -0.1745 -0.3208  0.6339
  822MOL0     C 8382   7.806   2.512   6.450 -0.3734 -0.0114  0.3206
  822MOL0     C 8383   7.747   2.451   6.321 -0.1189  0.4219  0.0476
  822MOL0     C 8384   7.822   2.327   6.277 -0.1923  0.1590 -0.5139
  822MOL0     C 8385   7.743   2.257   6.166 -0.1981  0.4892 -0.0158
  822MOL0     C 8386   7.821   2.125   6.124  0.6580  0.2863 -0.3466
  822MOL0     C 8387   7.750   2.049   6.015  0.1646  0.4596  0.8821
  822MOL0     C 8388   7.854   1.960   5.944  0.3134  0.1112  0.3270
  822MOL0     N 8389   7.903   2.016   5.810  0.3681 -0.1101  0.7032
  822MOL0     C 8390   7.829   2.015   5.693  0.3675  0.1479  0.8729
  822MOL0     C 8391   7.915   2.071   5.599  0.3558 -0.2301 -0.4176
  822MOL0     C 8392   7.895   2.091   5.450 -0.5269  0.0054 -1.0748
  822MOL0     C 8393   7.757   2.143   5.418 -0.7485  0.1705 -0.4088
  822MOL0     C 8394   7.727   2.124   5.272 -0.8288 -0.5204  0.4253
  822MOL0     C 8395   7.608   2.198   5.222  0.7604 -0.6569  0.3037
  822MOL0     O 8396   7.483   2.131   5.260 -1.0914 -0.4818 -0.1108
  822MOL0     C 8397   7.368   2.193   5.225  0.1005  0.0654  0.1999
  822MOL0     C 8398   7.356   2.318   5.162 -0.8048 -0.5014 -0.1331
  822MOL0     C 8399   7.230   2.377   5.136 -0.2499 -0.6372 -0.6707
  822MOL0     C 8400   7.114   2.311   5.182 -0.4368  0.0997 -0.3200
  822MOL0     C 8401   6.977   2.373   5.177 -0.4882  0.0937  0.4942
  822MOL0     O 8402   6.877   2.322   5.252 -0.3651 -0.5102 -0.1271
  822MOL0     C 8403   6.751   2.384   5.247 -0.7982  0.9613 -0.0533
  822MOL0     C 8404   6.663   2.382   5.136  0.3569 -0.2985 -0.2189
  822MOL0     C 8405   6.537   2.459   5.133 -0.6211  0.7312  0.1875
  822MOL0     C 8406   6.501   2.536   5.246  0.4826  0.0009 -0.5732
  822MOL0     O 8407   6.380   2.609   5.250 -0.9482 -0.4170  0.2351
  822MOL0     C 8408   6.260   2.590   5.176 -0.2703 -0.2862  0.0994
  822MOL0     C 8409   6.142   2.651   5.236 -0.0304 -0.1930 -0.2577
  822MOL0     C 8410   6.016   2.635   5.151  0.0825  0.1477  0.3294
  822MOL0     C 8411   6.019   2.721   5.023 -0.5415 -0.4153  0.0313
  822MOL0     C 8412   5.877   2.747   4.970 -0.4164  0.1955 -0.6447
  822MOL0     C 8413   5.804   2.623   4.932  0.1142  0.4366 -0.0645
  822MOL0     C 8414   5.872   2.540   4.819 -0.2743 -0.2435  0.1690
  822MOL0     C 8415   5.767   2.473   4.722  0.9101  0.4509 -0.4366
  822MOL0    Cl 8416   5.848   2.355   4.606  0.2693  0.2179  0.3141
  822MOL0     C 8417   6.594   2.541   5.354 -0.3365  0.4616  0.2044
  822MOL0     C 8418   6.709   2.455   5.356  0.0021  0.4362 -0.0681
  822MOL0     O 8419   6.966   2.462   5.093 -0.2748  0.0420 -0.1206
  822MOL0     C 8420   7.121   2.184   5.246 -0.3751  0.5952  0.5725
  822MOL0     C 8421   7.246   2.127   5.264  0.4225  0.1640  0.0917
  822MOL0     N 8422   8.038   2.093   5.663 -1.0615 -0.0180  0.6621
  822MOL0     N 8423   8.032   2.060   5.790 -0.3405  0.5480 -0.2820
  822MOL0     C 8424   7.936   2.801   6.582  0.6216  0.3914 -0.5954
  822MOL0     C 8425   8.004   2.920   6.613 -0.2803  0.2004 -0.0371
  822MOL0     C 8426   8.158   3.249   6.901 -0.0039  0.0308 -0.3296
  822MOL0     C 8427   8.171   3.362   6.994  0.2405 -0.0045 -0.0139
  822MOL0     C 8428   8.284   3.392   7.061 -0.3694 -0.8081  0.0974
  822MOL0     C 8429   8.405   3.323   7.032  1.1394  0.4423  1.3809
  822MOL0     O 8430   8.516   3.367   7.090 -0.3816  0.5182 -0.3082
  822MOL0     C 8431   8.639   3.324   7.043 -0.1777 -0.2551 -0.3866
  822MOL0     C 8432   8.745   3.433   7.062  0.3512  0.9553  0.2123
  822MOL0     C 8433   8.889   3.391   7.005 -0.3079  0.2391 -0.3670
  822MOL0     C 8434   8.990   3.503   7.020  0.1111  0.0103 -0.1035
  822MOL0     C 8435   9.120   3.461   6.972 -0.0298  0.3310  0.2701
  822MOL0     C 8436   9.230   3.419   6.945 -0.8996 -0.8033  0.3055
  822MOL0     C 8437   8.392   3.212   6.947 -0.8456 -0.6891 -0.4231
  822MOL0     C 8438   8.276   3.175   6.884  0.2133  0.2812  0.3193
  822MOL0     H 8439   7.807   3.042   6.856 -0.3342 -1.1054  1.5454
  822MOL0     H 8440   7.687   2.844   6.819 -0.0649  1.4882  1.3097
  822MOL0     H 8441   7.718   2.697   6.444  1.3152  0.3294  1.3852
  822MOL0     H 8442   7.616   2.570   6.509 -0.2005 -0.2251  0.2573
  822MOL0     H 8443   7.821   2.429   6.521 -0.8482 -0.8242 -0.5077
  822MOL0     H 8444   7.908   2.551   6.444 -1.0508  1.9716  1.0273
  822MOL0     H 8445   7.742   2.532   6.248  0.1411 -0.2318 -0.7155
  822MOL0     H 8446   7.645   2.424   6.348  0.3116 -1.1618  0.2373
  822MOL0     H 8447   7.923   2.348   6.241 -1.4246  2.1352 -3.2585
  822MOL0     H 8448   7.834   2.262   6.364  3.6643  1.7873  0.3754
  822MOL0     H 8449   7.740   2.322   6.078  0.3775 -1.0233 -1.2015
  822MOL0     H 8450   7.646   2.240   6.213 -0.3267  0.3500 -0.3262
  822MOL0     H 8451   7.822   2.059   6.212  2.1262  2.3962  1.3036
  822MOL0     H 8452   7.925   2.147   6.098  1.0331 -1.3398 -0.3496
  822MOL0     H 8453   7.670   1.985   6.053 -0.2093 -1.3616 -2.6016
  822MOL0     H 8454   7.703   2.118   5.944 -2.6662 -0.9785  1.2125
  822MOL0     H 8455   7.802   1.866   5.921 -3.1331  2.0211 -0.4421
  822MOL0     H 8456   7.940   1.954   6.010 -1.1743 -1.3117  2.2537
  822MOL0     H 8457   7.724   1.989   5.685 -0.3856  2.6756  1.5124
  822MOL0     H 8458   7.915   1.988   5.418 -1.4309 -2.0545  3.9876
  822MOL0     H 8459   7.970   2.158   5.409 -0.4858 -0.6763 -2.1344
  822MOL0     H 8460   7.747   2.248   5.444  0.3486 -0.1499  1.5178
  822MOL0     H 8461   7.685   2.083   5.476  0.5291 -2.0108 -0.9689
  822MOL0     H 8462   7.812   2.165   5.217  2.4238 -0.6838  4.8255
  822MOL0     H 8463   7.721   2.019   5.242  1.0267 -0.1743 -1.3325
  822MOL0     H 8464   7.621   2.197   5.113  0.4767 -1.7761  0.2660
  822MOL0     H 8465   7.601   2.305   5.244 -4.0245 -0.1327 -2.3021
  822MOL0     H 8466   7.447   2.366   5.126 -1.0819  2.6137  2.8287
  822MOL0     H 8467   7.218   2.471   5.084  0.0929 -0.8849 -1.2100
  822MOL0     H 8468   6.680   2.330   5.043 -0.4907 -0.7554 -0.1374
  822MOL0     H 8469   6.478   2.442   5.043 -2.3553 -0.3800  1.4809
  822MOL0     H 8470   6.239   2.485   5.154 -0.2057 -0.1152 -0.8544
  822MOL0     H 8471   6.269   2.629   5.074 -0.2886 -2.4166 -0.7588
  822MOL0     H 8472   6.165   2.756   5.252  0.9789 -0.7015  2.2062
  822MOL0     H 8473   6.116   2.607   5.334  2.2843  1.0787  1.0012
  822MOL0     H 8474   5.928   2.653   5.214  1.0879  1.6301  1.3615
  822MOL0     H 8475   6.020   2.529   5.123  2.0540  0.8360 -2.3285
  822MOL0     H 8476   6.057   2.819   5.052 -1.8143 -0.4942  2.1685
  822MOL0     H 8477   6.087   2.681   4.947  0.6466 -3.9477  2.6707
  822MOL0     H 8478   5.864   2.824   4.894 -2.2853 -0.7476 -1.3634
  822MOL0     H 8479   5.826   2.786   5.058 -2.4547  0.6312 -1.9473
  822MOL0     H 8480   5.700   2.641   4.904  0.5154 -0.7738 -2.6134
  822MOL0     H 8481   5.798   2.554   5.017 -1.0323  0.6544  0.0426
  822MOL0     H 8482   5.927   2.617   4.765 -2.1677  1.6255  0.7815
  822MOL0     H 8483   5.942   2.468   4.863  2.5267  0.4222 -2.8659
  822MOL0     H 8484   5.709   2.541   4.658 -0.0379 -1.7040 -1.9620
  822MOL0     H 8485   5.701   2.409   4.782  1.4902 -2.6823 -2.9274
  822MOL0     H 8486   6.568   2.609   5.435 -1.4160  1.0586 -0.6194
  822MOL0     H 8487   6.781   2.456   5.437  1.0127 -1.1747 -0.8996
  822MOL0     H 8488   7.035   2.135   5.291 -0.4788 -1.9513 -2.1428
  822MOL0     H 8489   7.245   2.027   5.307 -1.7904 -0.6099 -1.6045
  822MOL0     H 8490   7.971   2.732   6.506  0.4219  0.0885 -0.4147
  822MOL0     H 8491   8.091   2.924   6.550 -0.3437 -0.1881 -0.1532
  822MOL0     H 8492   8.082   3.417   7.024  0.4118  0.5765 -0.5465
  822MOL0     H 8493   8.293   3.470   7.136  2.2424 -1.3550  0.4562
  822MOL0     H 8494   8.649   3.297   6.937  3.7816  1.1329 -0.5120
  822MOL0     H 8495   8.668   3.248   7.116  1.0958  2.2338  1.8686
  822MOL0     H 8496   8.715   3.524   7.008 -1.2755  0.7322  0.6865
  822MOL0     H 8497   8.744   3.464   7.167 -1.1261 -0.0113  0.5073
  822MOL0     H 8498   8.868   3.375   6.899 -0.6997 -0.4546 -0.1898
  822MOL0     H 8499   8.921   3.299   7.056 -0.5293  0.7358  0.6891
  822MOL0     H 8500   8.954   3.592   6.967  2.8054  2.0071  1.1687
  822MOL0     H 8501   8.998   3.539   7.123  2.0502 -0.0092 -0.2170
  822MOL0     H 8502   9.330   3.384   6.930 -0.5801  0.1338  0.1906
  822MOL0     H 8503   8.476   3.144   6.944 -1.7673 -2.0203  1.7587
  822MOL0     H 8504   8.270   3.090   6.817 -3.3973  0.4434  0.2400
  823MOL0     O 8505  10.178   1.360   5.075 -1.0182 -0.4554  0.2425
  823MOL0     C 8506  10.203   1.439   5.165 -0.0166 -0.6046 -0.6589
  823MOL0     O 8507  10.115   1.508   5.245 -0.4410  0.1471 -0.2920
  823MOL0     C 8508   9.984   1.537   5.204  0.8599  0.2746 -0.4006
  823MOL0     C 8509   9.933   1.527   5.080  0.2183 -0.1499  0.6449
  823MOL0     C 8510   9.801   1.560   5.058 -0.0464  0.4689  0.4446
  823MOL0     C 8511   9.722   1.613   5.162 -0.1316  0.5439  0.8921
  823MOL0     O 8512   9.596   1.636   5.119 -0.1674 -0.7039 -0.1222
  823MOL0     C 8513   9.484   1.632   5.208  0.3349 -0.8409 -1.0372
  823MOL0     C 8514   9.360   1.648   5.132  0.7894 -0.1936  0.1140
  823MOL0     C 8515   9.232   1.686   5.213  0.2331 -0.2738 -0.5105
  823MOL0     C 8516   9.110   1.633   5.142  0.7934 -0.1876  0.0203
  823MOL0     C 8517   8.981   1.656   5.228  0.2493  0.5732 -0.0066
  823MOL0     C 8518   8.932   1.805   5.227 -0.3215  0.0322  0.3107
  823MOL0     C 8519   8.800   1.827   5.304  0.6625  0.1850  0.5688
  823MOL0     C 8520   8.788   1.766   5.451  0.6261 -0.2056 -0.6284
  823MOL0     N 8521   8.687   1.829   5.533  0.1557  0.5092 -0.3891
  823MOL0     C 8522   8.555   1.859   5.487  0.1378  0.7962 -1.0259
  823MOL0     C 8523   8.501   1.921   5.596 -0.5168  1.0669 -0.1273
  823MOL0     C 8524   8.367   1.989   5.594  0.0063  0.0487  0.7279
  823MOL0     C 8525   8.376   2.136   5.539 -0.5056  0.6006  0.0134
  823MOL0     C 8526   8.418   2.138   5.388 -0.6401 -1.1249  0.3405
  823MOL0     C 8527   8.296   2.132   5.296 -0.8273 -0.1568  0.7291
  823MOL0     O 8528   8.209   2.245   5.307  0.0597 -0.0722 -0.3055
  823MOL0     C 8529   8.119   2.278   5.211  0.2390 -0.5862 -0.8032
  823MOL0     C 8530   8.037   2.387   5.244 -0.2708  0.3560 -0.7976
  823MOL0     C 8531   7.932   2.429   5.165  0.4532  0.0975 -0.5462
  823MOL0     C 8532   7.902   2.353   5.054 -0.4409 -0.0183  0.7577
  823MOL0     C 8533   7.787   2.397   4.969  0.5339  0.5892  0.4680
  823MOL0     O 8534   7.793   2.392   4.832  0.1242  0.3793 -0.3550
  823MOL0     C 8535   7.681   2.412   4.752 -0.2478 -0.0997 -0.6108
  823MOL0     C 8536   7.687   2.485   4.632  0.5073  0.3988  0.3094
  823MOL0     C 8537   7.580   2.503   4.545 -0.4169  0.0810 -0.6358
  823MOL0     C 8538   7.458   2.443   4.581  0.4353  0.2383 -0.3298
  823MOL0     O 8539   7.352   2.465   4.485 -0.0608 -0.6499 -0.7116
  823MOL0     C 8540   7.236   2.385   4.487 -0.9509 -0.2950  0.2881
  823MOL0     C 8541   7.154   2.401   4.363  0.2014 -0.4693  0.8170
  823MOL0     C 8542   7.138   2.546   4.319 -0.5405 -0.2700  0.2352
  823MOL0     C 8543   7.025   2.562   4.217  0.6558  0.7803 -0.4421
  823MOL0     C 8544   7.053   2.678   4.126 -0.0910  0.0772 -0.2053
  823MOL0     C 8545   7.041   2.808   4.205  0.2251 -0.2972 -0.2371
  823MOL0     C 8546   7.081   2.931   4.115  0.1050  0.3368 -0.2155
  823MOL0     C 8547   7.044   3.063   4.175  1.0620  0.2084 -0.0330
  823MOL0    Cl 8548   6.864   3.101   4.142  0.0734 -0.4118  0.2259
  823MOL0     C 8549   7.446   2.373   4.702 -0.1350  0.1130 -0.4784
  823MOL0     C 8550   7.564   2.349   4.783 -0.2800 -0.0209  0.1242
  823MOL0     O 8551   7.695   2.452   5.030  0.3897  0.3369 -0.6507
  823MOL0     C 8552   7.984   2.237   5.016  0.1895  0.1749 -0.3271
  823MOL0     C 8553   8.093   2.208   5.094  0.1593  0.5752 -0.3205
  823MOL0     N 8554   8.585   1.913   5.702  0.4178 -0.5154 -0.1238
  823MOL0     N 8555   8.693   1.849   5.668  0.3909 -0.5430 -0.1353
  823MOL0     C 8556   9.773   1.624   5.289 -0.9471  0.7068  1.2583
  823MOL0     C 8557   9.905   1.577   5.309  1.0164 -0.1835  0.1578
  823MOL0     C 8558  10.345   1.463   5.195 -0.5955 -0.3268  0.3287
  823MOL0     C 8559  10.443   1.410   5.108  0.5265  0.1915 -0.6012
  823MOL0     C 8560  10.583   1.407   5.150  0.4078  0.0197  0.1734
  823MOL0     C 8561  10.627   1.491   5.252  0.8055 -0.0009  0.6255
  823MOL0     O 8562  10.759   1.520   5.291  1.0942  0.8506 -0.9843
  823MOL0     C 8563  10.861   1.489   5.196  0.2768  0.0332 -0.4398
  823MOL0     C 8564  10.954   1.607   5.182 -0.1108 -0.9667  0.2021
  823MOL0     C 8565  10.884   1.725   5.119 -0.0474 -0.3638  0.1560
  823MOL0     C 8566  10.987   1.842   5.115 -0.3391 -0.1740  0.6083
  823MOL0     C 8567  10.923   1.962   5.057 -0.9520  0.1182  0.8510
  823MOL0     C 8568  10.857   2.056   5.017  0.8520 -1.1866  0.5840
  823MOL0     C 8569  10.527   1.550   5.339 -0.1519 -0.3676 -0.2350
  823MOL0     C 8570  10.387   1.541   5.301  0.2794  0.3562 -0.4137
  823MOL0     H 8571   9.991   1.499   4.992  1.2358  2.5192  0.3567
  823MOL0     H 8572   9.753   1.549   4.962  1.5803  1.5904 -0.5460
  823MOL0     H 8573   9.494   1.709   5.285 -0.8324 -1.6900 -0.0079
  823MOL0     H 8574   9.468   1.538   5.260 -2.8493  0.8753  1.4498
  823MOL0     H 8575   9.338   1.565   5.065  1.4667 -1.5069  1.4645
  823MOL0     H 8576   9.374   1.742   5.078 -1.2247  0.4709  0.6613
  823MOL0     H 8577   9.217   1.794   5.226 -1.0205 -0.7034  2.7668
  823MOL0     H 8578   9.231   1.638   5.312  2.6686 -1.3323 -0.9399
  823MOL0     H 8579   9.096   1.678   5.043 -2.3865 -1.5474 -0.2656
  823MOL0     H 8580   9.129   1.526   5.132  2.1755  0.0444 -0.0982
  823MOL0     H 8581   9.001   1.619   5.329 -0.8560 -0.9591 -0.3012
  823MOL0     H 8582   8.899   1.594   5.189  0.8454 -1.8177  2.2024
  823MOL0     H 8583   8.921   1.842   5.124 -1.1664  0.2630  0.4763
  823MOL0     H 8584   9.009   1.871   5.269 -1.0913  2.6460 -2.0411
  823MOL0     H 8585   8.787   1.935   5.302  1.5724  0.3348  1.5249
  823MOL0     H 8586   8.719   1.790   5.241  1.4181  0.9146 -0.8861
  823MOL0     H 8587   8.882   1.779   5.505  0.2354  1.4876 -0.2993
  823MOL0     H 8588   8.766   1.659   5.444  2.1832 -0.6489  0.5643
  823MOL0     H 8589   8.516   1.822   5.393  1.1215 -3.1041 -0.0949
  823MOL0     H 8590   8.327   1.988   5.695 -3.2354  0.6029 -0.4485
  823MOL0     H 8591   8.305   1.930   5.526 -0.2650  1.5993 -0.4060
  823MOL0     H 8592   8.461   2.182   5.590 -1.4197  0.9118  1.3209
  823MOL0     H 8593   8.282   2.189   5.558 -1.9663 -1.8173 -0.0214
  823MOL0     H 8594   8.464   2.236   5.375 -2.8823  0.1982  1.7852
  823MOL0     H 8595   8.498   2.068   5.364  0.4114 -0.0971  0.7584
  823MOL0     H 8596   8.240   2.039   5.310 -0.6259 -0.1903  1.3509
  823MOL0     H 8597   8.327   2.130   5.191 -0.5596  0.3366  0.7940
  823MOL0     H 8598   8.062   2.433   5.340 -1.4033  0.0470 -0.3295
  823MOL0     H 8599   7.870   2.515   5.189  2.0149  1.4566 -1.1709
  823MOL0     H 8600   7.781   2.535   4.612  1.0060  0.1549  1.9229
  823MOL0     H 8601   7.601   2.564   4.457 -0.4780  1.7548  0.4569
  823MOL0     H 8602   7.175   2.417   4.572 -0.2759 -2.1460  1.5157
  823MOL0     H 8603   7.269   2.283   4.505  0.8891  0.1516 -0.3016
  823MOL0     H 8604   7.057   2.353   4.380  0.3775 -1.2801 -0.3513
  823MOL0     H 8605   7.199   2.346   4.279 -1.6416  0.2480 -0.7110
  823MOL0     H 8606   7.229   2.587   4.275  0.8312  0.5206  3.5249
  823MOL0     H 8607   7.116   2.603   4.410  0.5101 -1.4010  1.2359
  823MOL0     H 8608   7.019   2.470   4.158  1.8062  1.2344 -1.3109
  823MOL0     H 8609   6.936   2.564   4.280  0.8933 -1.3008  0.0302
  823MOL0     H 8610   6.978   2.680   4.046  0.7930  2.4234 -1.0636
  823MOL0     H 8611   7.150   2.669   4.075 -0.8171 -1.1874 -1.4388
  823MOL0     H 8612   7.097   2.810   4.298  0.2476 -0.5793 -0.2433
  823MOL0     H 8613   6.937   2.821   4.237 -0.0218 -0.0210 -1.1291
  823MOL0     H 8614   7.186   2.926   4.086 -0.1364 -1.1079 -0.9379
  823MOL0     H 8615   7.032   2.916   4.019  1.3744  0.6205 -0.9277
  823MOL0     H 8616   7.095   3.154   4.145  0.5673  0.2702 -0.7194
  823MOL0     H 8617   7.052   3.044   4.282 -1.6357 -0.5541  0.1254
  823MOL0     H 8618   7.349   2.335   4.734 -0.2591  0.4181 -0.4925
  823MOL0     H 8619   7.572   2.285   4.870 -3.3666 -1.6321 -0.6305
  823MOL0     H 8620   7.960   2.189   4.922 -0.8117  3.5497 -1.9455
  823MOL0     H 8621   8.164   2.133   5.061 -1.9938 -2.6915  1.8887
  823MOL0     H 8622   9.729   1.665   5.379 -1.3886  0.8618  0.9756
  823MOL0     H 8623   9.953   1.588   5.406  0.5325 -0.7818  0.4673
  823MOL0     H 8624  10.416   1.352   5.020 -0.0054  0.7729 -0.8271
  823MOL0     H 8625  10.642   1.341   5.087 -1.0962 -2.3813  1.1214
  823MOL0     H 8626  10.822   1.460   5.098 -2.7865  1.0091  0.3521
  823MOL0     H 8627  10.914   1.397   5.221  0.9774  0.2646 -1.0383
  823MOL0     H 8628  10.995   1.637   5.279 -3.5175  1.4138  1.0833
  823MOL0     H 8629  11.036   1.573   5.118 -2.3088 -0.8719 -2.8664
  823MOL0     H 8630  10.797   1.752   5.180  0.6170  0.9313  0.5850
  823MOL0     H 8631  10.857   1.708   5.014 -1.1456 -2.8048  0.7780
  823MOL0     H 8632  11.005   1.862   5.221  0.7293  1.4291  0.1443
  823MOL0     H 8633  11.083   1.821   5.068  0.1144  2.5897  0.1442
  823MOL0     H 8634  10.787   2.132   4.988  0.9521 -1.1298  0.4916
  823MOL0     H 8635  10.568   1.612   5.418 -0.7783 -1.2476  0.8176
  823MOL0     H 8636  10.311   1.587   5.363 -0.9756 -2.3094  0.2051
  824MOL0     O 8637  10.765   6.884   7.501 -0.1888 -0.5212 -0.5331
  824MOL0     C 8638  10.767   6.843   7.616  0.6783  0.6814 -1.2170
  824MOL0     O 8639  10.660   6.838   7.709 -0.6918  0.5749 -0.3618
  824MOL0     C 8640  10.541   6.852   7.663  0.9755  0.2199  0.3070
  824MOL0     C 8641  10.478   6.761   7.573  0.4782  0.5179 -0.3290
  824MOL0     C 8642  10.349   6.781   7.525  0.0395 -0.2565 -0.8582
  824MOL0     C 8643  10.273   6.889   7.563  0.1751 -0.4194  0.1731
  824MOL0     O 8644  10.141   6.907   7.526 -0.1436  0.1131 -0.3902
  824MOL0     C 8645  10.050   6.794   7.536 -1.4961 -0.3811  0.4207
  824MOL0     C 8646   9.985   6.774   7.400  0.7586  0.6627  0.1218
  824MOL0     C 8647   9.896   6.647   7.391 -0.1494 -0.4161  0.6598
  824MOL0     C 8648   9.804   6.652   7.270 -1.1472 -0.0838 -0.3842
  824MOL0     C 8649   9.701   6.540   7.277  0.3026 -0.0704  0.2244
  824MOL0     C 8650   9.615   6.535   7.154  0.0362  0.0367 -0.2959
  824MOL0     C 8651   9.474   6.475   7.175 -0.3721 -1.1714 -0.4290
  824MOL0     C 8652   9.423   6.417   7.047  0.0823 -0.9983  0.0061
  824MOL0     N 8653   9.278   6.385   7.052 -0.1338  0.5266  0.1589
  824MOL0     C 8654   9.224   6.272   7.100  0.4988  0.1460 -0.5257
  824MOL0     C 8655   9.096   6.277   7.059  0.0439  0.1161  0.0883
  824MOL0     C 8656   9.000   6.174   7.107  0.7507 -0.1053  0.6708
  824MOL0     C 8657   8.869   6.181   7.022  0.2328 -0.2305  0.2233
  824MOL0     C 8658   8.758   6.128   7.122 -0.1175  0.0063  0.0240
  824MOL0     C 8659   8.617   6.128   7.069  0.8027 -0.6485 -0.5368
  824MOL0     O 8660   8.597   6.076   6.934 -0.4254 -0.1533 -0.4498
  824MOL0     C 8661   8.461   6.063   6.901 -0.1239  0.5465 -0.1218
  824MOL0     C 8662   8.424   6.019   6.774 -0.1862  0.2742 -0.1084
  824MOL0     C 8663   8.291   5.992   6.737  0.6045 -0.0706  0.1898
  824MOL0     C 8664   8.186   6.034   6.822 -0.1574 -0.9039  0.7062
  824MOL0     C 8665   8.055   6.029   6.780  1.1288 -0.5572 -0.0546
  824MOL0     O 8666   7.954   6.071   6.876 -0.1875  0.0548 -0.3433
  824MOL0     C 8667   7.821   6.024   6.868  0.6363 -0.2207  0.0620
  824MOL0     C 8668   7.716   6.099   6.931  0.4255  0.5796 -1.0878
  824MOL0     C 8669   7.577   6.062   6.920 -1.1906 -0.1442 -0.0218
  824MOL0     C 8670   7.539   5.959   6.843  0.2036 -0.0795  0.1814
  824MOL0     O 8671   7.400   5.935   6.827 -0.6959 -0.4935  0.2128
  824MOL0     C 8672   7.376   5.842   6.714 -0.1434  0.5380  0.2662
  824MOL0     C 8673   7.238   5.849   6.672 -0.2266 -0.5181  0.6742
  824MOL0     C 8674   7.204   5.736   6.571  0.3373  0.4450  0.2807
  824MOL0     C 8675   7.074   5.772   6.488 -0.0649  0.4734 -0.3464
  824MOL0     C 8676   6.944   5.746   6.576 -0.1253  0.0604  0.5442
  824MOL0     C 8677   6.828   5.821   6.518 -0.0550 -0.1616  0.0415
  824MOL0     C 8678   6.694   5.796   6.591  0.1374  0.5373 -0.1891
  824MOL0     C 8679   6.572   5.870   6.527 -0.4982  0.2107 -0.6895
  824MOL0    Cl 8680   6.538   5.783   6.383  0.1465  0.6203  0.2166
  824MOL0     C 8681   7.643   5.875   6.793 -0.1138 -0.0744 -0.0057
  824MOL0     C 8682   7.778   5.911   6.796  0.9828 -0.6932 -0.5832
  824MOL0     O 8683   8.030   5.968   6.670 -0.1872 -0.0569 -0.0462
  824MOL0     C 8684   8.223   6.089   6.945  0.2429  0.4487 -0.5313
  824MOL0     C 8685   8.355   6.102   6.988 -0.4787  0.0110 -0.2104
  824MOL0     N 8686   9.080   6.403   7.003  0.6078  0.2310 -0.1827
  824MOL0     N 8687   9.184   6.471   7.009 -0.1835  0.2470  0.5424
  824MOL0     C 8688  10.345   6.997   7.627 -0.5140  0.2673  0.1256
  824MOL0     C 8689  10.472   6.976   7.673  0.0259 -0.4034 -1.1713
  824MOL0     C 8690  10.903   6.796   7.649 -0.4481 -0.1643 -0.6595
  824MOL0     C 8691  11.018   6.853   7.588  0.4091  0.9992  0.6413
  824MOL0     C 8692  11.151   6.810   7.616  1.0041 -0.0113  1.0528
  824MOL0     C 8693  11.172   6.709   7.709 -0.3289  0.2212 -0.1215
  824MOL0     O 8694  11.293   6.678   7.765 -0.1188 -0.1405  0.2636
  824MOL0     C 8695  11.411   6.731   7.695  0.1059  0.4148  0.6220
  824MOL0     C 8696  11.539   6.688   7.761  0.0642  0.3115 -0.6143
  824MOL0     C 8697  11.545   6.712   7.910 -0.3063 -0.0529 -0.3970
  824MOL0     C 8698  11.697   6.705   7.962  0.9848  0.1035 -0.8291
  824MOL0     C 8699  11.689   6.710   8.108 -0.7090 -0.6095  0.7909
  824MOL0     C 8700  11.685   6.735   8.228  0.4335 -0.2820  0.5631
  824MOL0     C 8701  11.060   6.659   7.775  0.4113  0.8195  0.9132
  824MOL0     C 8702  10.931   6.699   7.751  0.0703  0.0611  1.0835
  824MOL0     H 8703  10.530   6.668   7.553 -0.6783 -0.3838  0.7146
  824MOL0     H 8704  10.311   6.704   7.459  1.6137 -0.8567 -1.1121
  824MOL0     H 8705   9.979   6.815   7.617 -0.8618  2.9947  0.2738
  824MOL0     H 8706  10.110   6.716   7.583 -2.1829 -0.7809  0.6579
  824MOL0     H 8707  10.064   6.783   7.326 -1.9278  0.6893 -2.9648
  824MOL0     H 8708   9.922   6.863   7.385 -0.3660  0.0567  1.0602
  824MOL0     H 8709   9.820   6.648   7.470 -2.3287 -2.4551 -1.2346
  824MOL0     H 8710   9.946   6.550   7.389  1.3778  0.3636 -0.9419
  824MOL0     H 8711   9.756   6.750   7.270 -1.2787 -0.1467 -0.6126
  824MOL0     H 8712   9.867   6.644   7.180  0.4117 -0.8968  0.7285
  824MOL0     H 8713   9.640   6.572   7.362 -1.7818 -1.2565 -0.7373
  824MOL0     H 8714   9.752   6.445   7.290  2.5090  0.9054 -0.6862
  824MOL0     H 8715   9.663   6.464   7.087 -0.8134 -2.7953  1.9098
  824MOL0     H 8716   9.605   6.631   7.103 -0.9238 -1.0148 -2.1915
  824MOL0     H 8717   9.472   6.406   7.260  2.5669 -1.3671 -0.4106
  824MOL0     H 8718   9.410   6.558   7.204  0.0950 -1.8440  2.9651
  824MOL0     H 8719   9.470   6.320   7.030  1.6027 -0.1279 -0.9932
  824MOL0     H 8720   9.448   6.487   6.967 -1.1479 -1.1186 -0.5038
  824MOL0     H 8721   9.260   6.188   7.160 -2.3177 -0.9074 -0.1224
  824MOL0     H 8722   8.990   6.203   7.212 -1.2633 -0.5471  0.6329
  824MOL0     H 8723   9.036   6.071   7.115 -0.2407 -0.7665 -2.3130
  824MOL0     H 8724   8.877   6.131   6.925  0.2047  1.0485 -0.4734
  824MOL0     H 8725   8.849   6.288   7.006 -0.8894 -0.2591  1.3167
  824MOL0     H 8726   8.778   6.022   7.141  0.0813 -0.0535 -0.4859
  824MOL0     H 8727   8.771   6.181   7.216  5.2856  1.8171 -1.3556
  824MOL0     H 8728   8.583   6.232   7.065 -1.1333 -1.2139 -0.1240
  824MOL0     H 8729   8.566   6.069   7.146 -1.0037  1.0641 -0.3239
  824MOL0     H 8730   8.508   5.988   6.712  2.7913 -1.6186  4.3674
  824MOL0     H 8731   8.279   5.943   6.641 -2.3445  0.2277  0.3022
  824MOL0     H 8732   7.739   6.188   6.989  0.2748  1.5577 -2.4683
  824MOL0     H 8733   7.514   6.141   6.959 -0.2651  1.9656 -2.4641
  824MOL0     H 8734   7.386   5.742   6.758 -0.7405 -0.0292 -0.8356
  824MOL0     H 8735   7.445   5.844   6.630 -2.1212 -2.6453 -1.6277
  824MOL0     H 8736   7.226   5.950   6.631 -1.3270 -0.6613  0.6084
  824MOL0     H 8737   7.185   5.844   6.768  1.4462  2.0724  1.8517
  824MOL0     H 8738   7.191   5.642   6.627 -0.4689  2.6117  4.0891
  824MOL0     H 8739   7.279   5.729   6.492  1.4694 -3.3186  1.4447
  824MOL0     H 8740   7.080   5.876   6.455  2.4811  0.2822 -0.6708
  824MOL0     H 8741   7.066   5.705   6.402  1.2008 -0.0639 -0.0736
  824MOL0     H 8742   6.955   5.782   6.679  6.0607  0.5884  0.1108
  824MOL0     H 8743   6.918   5.640   6.567 -0.8094  0.1708  1.1385
  824MOL0     H 8744   6.808   5.786   6.416 -0.5076 -1.9068  0.6859
  824MOL0     H 8745   6.852   5.927   6.509  0.9805 -0.5452 -2.7711
  824MOL0     H 8746   6.674   5.688   6.592  3.0793 -0.1024 -0.8723
  824MOL0     H 8747   6.702   5.829   6.695  0.2520  0.4418 -0.1682
  824MOL0     H 8748   6.599   5.973   6.502 -0.2912  0.9434  2.1606
  824MOL0     H 8749   6.483   5.867   6.591 -1.6777  4.3482 -1.8230
  824MOL0     H 8750   7.618   5.784   6.740  0.5365 -0.5967  0.5610
  824MOL0     H 8751   7.855   5.852   6.746  1.1363 -0.4220 -0.6703
  824MOL0     H 8752   8.149   6.103   7.024 -0.2934 -3.2444 -0.1930
  824MOL0     H 8753   8.371   6.146   7.087 -1.3645 -0.4644  0.1583
  824MOL0     H 8754  10.296   7.090   7.656  0.9132  1.7435 -1.8617
  824MOL0     H 8755  10.521   7.057   7.727 -1.1226  0.9136 -2.0366
  824MOL0     H 8756  11.013   6.930   7.511 -0.0730  0.0323 -0.3281
  824MOL0     H 8757  11.225   6.862   7.556 -0.0222  3.7001  2.7061
  824MOL0     H 8758  11.405   6.840   7.687 -0.6979  0.2292 -3.5974
  824MOL0     H 8759  11.411   6.685   7.596 -2.3829  0.8800  0.3459
  824MOL0     H 8760  11.564   6.582   7.754  0.9603  0.2375  2.2330
  824MOL0     H 8761  11.617   6.752   7.717 -0.6121 -0.0702 -2.4119
  824MOL0     H 8762  11.502   6.628   7.965  2.6621 -0.5421  1.4314
  824MOL0     H 8763  11.497   6.807   7.935 -1.5905 -0.9475  0.7236
  824MOL0     H 8764  11.741   6.609   7.932  2.3338  0.1869  0.7708
  824MOL0     H 8765  11.761   6.785   7.923  2.0605  0.2963  1.2037
  824MOL0     H 8766  11.713   6.747   8.330  4.9689 -6.2092  0.5779
  824MOL0     H 8767  11.075   6.582   7.850 -2.0644 -0.7250 -0.0384
  824MOL0     H 8768  10.847   6.648   7.799 -1.6236 -0.1743 -1.9158
  825MOL0     O 8769   1.099   2.080   1.078 -0.1917 -0.0324 -0.0053
  825MOL0     C 8770   1.088   1.974   1.008  0.1091 -0.0691 -0.1748
  825MOL0     O 8771   1.020   1.968   0.887  0.4817  0.3701 -0.3010
  825MOL0     C 8772   0.947   2.074   0.838  0.5149 -0.1081  0.6199
  825MOL0     C 8773   0.950   2.199   0.876 -0.1371  0.0831  0.3360
  825MOL0     C 8774   0.866   2.297   0.820 -0.4271  0.6672 -0.4165
  825MOL0     C 8775   0.776   2.261   0.718 -0.0696  0.3234  0.5243
  825MOL0     O 8776   0.711   2.366   0.660  0.7201  0.6607  0.6122
  825MOL0     C 8777   0.616   2.421   0.750 -0.5481 -0.0292 -0.0290
  825MOL0     C 8778   0.495   2.473   0.676  0.7273  0.6119 -0.3029
  825MOL0     C 8779   0.433   2.366   0.576  0.5263 -0.5813 -0.0745
  825MOL0     C 8780   0.305   2.431   0.501  0.1681 -0.3032 -0.3784
  825MOL0     C 8781   0.337   2.509   0.372 -1.0656  0.0083 -0.2954
  825MOL0     C 8782   0.219   2.563   0.305 -0.0665  0.7743  0.2428
  825MOL0     C 8783   0.115   2.452   0.256 -0.2249 -0.3920  0.1859
  825MOL0     C 8784   0.014   2.494   0.150  0.8634  0.0887  0.2392
  825MOL0     N 8785  -0.099   2.580   0.191 -0.0394  0.0684 -0.1875
  825MOL0     C 8786  -0.216   2.593   0.129  0.7850 -0.4252 -0.0467
  825MOL0     C 8787  -0.285   2.681   0.211 -0.4232  0.2020  0.9233
  825MOL0     C 8788  -0.426   2.711   0.195 -0.8065  0.2585 -0.2535
  825MOL0     C 8789  -0.525   2.588   0.205 -0.9112 -0.3139 -0.7881
  825MOL0     C 8790  -0.584   2.559   0.071 -0.3530  0.3240 -0.2296
  825MOL0     C 8791  -0.707   2.464   0.061  0.0417 -0.3702  0.2200
  825MOL0     O 8792  -0.823   2.519   0.125 -0.1235 -0.5513  0.7916
  825MOL0     C 8793  -0.944   2.455   0.130 -0.5438  0.2527  0.4325
  825MOL0     C 8794  -0.974   2.351   0.038 -0.6661  0.4709 -0.1995
  825MOL0     C 8795  -1.100   2.287   0.025  0.1402 -0.4042 -0.4682
  825MOL0     C 8796  -1.207   2.329   0.116  0.4791  0.1639  0.4744
  825MOL0     C 8797  -1.340   2.270   0.093  0.1504  0.1351  0.4020
  825MOL0     O 8798  -1.426   2.279   0.204 -0.2009  0.5963  0.3954
  825MOL0     C 8799  -1.550   2.237   0.194 -0.0914 -0.1635  0.0091
  825MOL0     C 8800  -1.651   2.329   0.233 -0.0587  0.4300 -0.0119
  825MOL0     C 8801  -1.781   2.273   0.231  1.3131 -0.2677  0.2880
  825MOL0     C 8802  -1.815   2.140   0.197  0.0857 -0.1193  0.8674
  825MOL0     O 8803  -1.944   2.091   0.187 -0.7701 -0.6697  0.5303
  825MOL0     C 8804  -2.048   2.164   0.256  0.3548  0.0489 -0.0395
  825MOL0     C 8805  -2.176   2.082   0.268 -0.4830  0.8509 -0.0163
  825MOL0     C 8806  -2.168   1.961   0.363 -0.7157 -0.0862 -0.4614
  825MOL0     C 8807  -2.300   1.885   0.376 -0.3437  0.5753  0.8727
  825MOL0     C 8808  -2.416   1.969   0.430  0.1917  0.7188  1.2955
  825MOL0     C 8809  -2.516   1.881   0.492  0.3501  0.6021 -0.6614
  825MOL0     C 8810  -2.601   1.785   0.402  0.1765 -0.6701 -0.1462
  825MOL0     C 8811  -2.690   1.692   0.472  0.3384  0.6927  0.5730
  825MOL0    Cl 8812  -2.805   1.779   0.582 -0.3042  0.0969  0.3096
  825MOL0     C 8813  -1.714   2.062   0.150 -0.2993  0.8994 -0.5262
  825MOL0     C 8814  -1.582   2.102   0.160  0.5344 -0.1111 -0.1882
  825MOL0     O 8815  -1.378   2.219  -0.014  0.6421  0.7215  0.1026
  825MOL0     C 8816  -1.166   2.414   0.221 -0.1184  0.3859 -0.0057
  825MOL0     C 8817  -1.039   2.474   0.231  0.9523 -0.1641  0.2401
  825MOL0     N 8818  -0.201   2.724   0.309 -0.2196  0.3183 -0.3119
  825MOL0     N 8819  -0.086   2.664   0.299 -0.3464 -0.0666 -0.1599
  825MOL0     C 8820   0.776   2.124   0.671  0.3205  0.0369 -0.2003
  825MOL0     C 8821   0.859   2.039   0.732 -0.2967  0.4354 -0.6799
  825MOL0     C 8822   1.156   1.855   1.063 -0.9425 -0.3544  0.5051
  825MOL0     C 8823   1.263   1.853   1.156  0.8218  0.2168 -0.1162
  825MOL0     C 8824   1.332   1.736   1.187  0.0443 -0.2744  0.2975
  825MOL0     C 8825   1.315   1.620   1.103  0.0635 -0.2403  0.1211
  825MOL0     O 8826   1.374   1.492   1.112 -0.0097  0.3706  0.1081
  825MOL0     C 8827   1.487   1.481   1.196 -0.1353 -0.4217 -0.8269
  825MOL0     C 8828   1.571   1.354   1.181  0.7493 -0.1091 -0.0495
  825MOL0     C 8829   1.636   1.334   1.052 -0.8711 -0.3768  0.8255
  825MOL0     C 8830   1.745   1.218   1.061 -0.2229 -1.3464 -1.2071
  825MOL0     C 8831   1.758   1.170   0.921  0.1015 -0.1976  0.3065
  825MOL0     C 8832   1.792   1.117   0.817 -0.7085 -0.3991  0.4878
  825MOL0     C 8833   1.218   1.627   1.004 -0.2377 -0.8562  0.0183
  825MOL0     C 8834   1.144   1.743   0.982 -0.3268 -0.0721  0.5261
  825MOL0     H 8835   1.007   2.243   0.958 -1.4268 -0.9948  1.8908
  825MOL0     H 8836   0.873   2.398   0.861  3.1177 -0.4305  2.2426
  825MOL0     H 8837   0.655   2.503   0.812  0.4360 -1.1816  0.9433
  825MOL0     H 8838   0.585   2.346   0.823  1.7209 -0.4330  0.6175
  825MOL0     H 8839   0.522   2.565   0.625 -2.6360  3.5593  2.6790
  825MOL0     H 8840   0.425   2.507   0.753  0.2194 -0.1325 -0.4195
  825MOL0     H 8841   0.404   2.283   0.641  3.3758  0.0912  2.3029
  825MOL0     H 8842   0.510   2.330   0.507 -1.1790  1.3173 -3.2163
  825MOL0     H 8843   0.238   2.346   0.487 -0.2336 -0.3077  1.2942
  825MOL0     H 8844   0.246   2.498   0.566  1.4718 -0.3561  0.9167
  825MOL0     H 8845   0.399   2.445   0.309  3.7408  0.8042  3.0738
  825MOL0     H 8846   0.406   2.591   0.394 -1.4815 -0.4249  3.3816
  825MOL0     H 8847   0.257   2.621   0.220 -0.3689 -2.6120 -2.4381
  825MOL0     H 8848   0.165   2.628   0.375 -3.3243 -2.2113  0.7598
  825MOL0     H 8849   0.170   2.374   0.202 -0.4726 -0.7392  0.4235
  825MOL0     H 8850   0.065   2.401   0.339  0.2846 -2.4757 -0.7015
  825MOL0     H 8851  -0.033   2.408   0.103 -0.7463 -0.0973  2.0426
  825MOL0     H 8852   0.068   2.555   0.076  0.2077 -1.9261 -2.0096
  825MOL0     H 8853  -0.249   2.543   0.038 -2.5927  2.0974 -0.4105
  825MOL0     H 8854  -0.435   2.765   0.100  1.0991  0.0013 -0.6242
  825MOL0     H 8855  -0.456   2.776   0.277 -0.8691 -0.7038  0.5009
  825MOL0     H 8856  -0.602   2.615   0.278 -1.6610 -0.4729 -1.5091
  825MOL0     H 8857  -0.469   2.497   0.232  1.3034  0.4861 -2.3852
  825MOL0     H 8858  -0.605   2.644   0.005  1.2549 -2.0998 -4.1849
  825MOL0     H 8859  -0.501   2.521   0.011  0.5611  0.8989  0.6404
  825MOL0     H 8860  -0.689   2.367   0.107 -3.1149 -1.7251 -1.1386
  825MOL0     H 8861  -0.727   2.451  -0.045  1.3122 -0.9734  0.0317
  825MOL0     H 8862  -0.897   2.329  -0.035 -0.0789 -2.0446  1.0780
  825MOL0     H 8863  -1.112   2.212  -0.053  0.4158  0.9639 -1.8749
  825MOL0     H 8864  -1.657   2.431   0.270 -3.5235 -0.0820  1.1736
  825MOL0     H 8865  -1.865   2.339   0.250  3.1976  2.5358 -0.5181
  825MOL0     H 8866  -2.070   2.256   0.202 -1.8220 -0.2761  0.1806
  825MOL0     H 8867  -2.024   2.179   0.361 -0.5134  2.8965 -0.1626
  825MOL0     H 8868  -2.190   2.052   0.163  0.4869  0.5660 -0.0732
  825MOL0     H 8869  -2.253   2.154   0.297 -1.5553 -0.7985  1.4274
  825MOL0     H 8870  -2.146   2.004   0.461 -0.5538  0.1802 -0.6151
  825MOL0     H 8871  -2.088   1.889   0.346 -1.5864 -0.7553 -1.8879
  825MOL0     H 8872  -2.333   1.847   0.280  0.5161 -1.4081  1.3132
  825MOL0     H 8873  -2.283   1.786   0.418  0.4936  0.3772  0.0873
  825MOL0     H 8874  -2.467   2.018   0.346  1.8600 -0.6799 -0.6450
  825MOL0     H 8875  -2.385   2.038   0.509 -1.5828  2.2018  0.7518
  825MOL0     H 8876  -2.587   1.948   0.542 -2.3372 -2.6058  0.2222
  825MOL0     H 8877  -2.480   1.815   0.571 -1.5802 -0.6657 -0.7592
  825MOL0     H 8878  -2.664   1.853   0.343 -0.7660  1.0083  2.5806
  825MOL0     H 8879  -2.524   1.737   0.340  1.1237 -1.1520  1.3506
  825MOL0     H 8880  -2.619   1.627   0.524  2.0100  1.5367 -0.5705
  825MOL0     H 8881  -2.747   1.635   0.398 -1.1705  1.9267  0.7301
  825MOL0     H 8882  -1.741   1.961   0.121 -1.5963  0.8821  0.6539
  825MOL0     H 8883  -1.501   2.042   0.120 -1.9793 -3.5747 -0.4869
  825MOL0     H 8884  -1.245   2.431   0.293 -0.2724  1.2427 -0.3649
  825MOL0     H 8885  -1.008   2.540   0.312  0.3579 -0.7304  0.9497
  825MOL0     H 8886   0.709   2.080   0.597 -0.0506 -0.9172  0.6670
  825MOL0     H 8887   0.861   1.936   0.698  4.0533 -0.0399  0.3543
  825MOL0     H 8888   1.283   1.944   1.212  0.5394  0.3010 -0.1493
  825MOL0     H 8889   1.398   1.732   1.274 -1.3394  0.5835  1.4344
  825MOL0     H 8890   1.448   1.498   1.297  1.1029  2.0981 -0.6787
  825MOL0     H 8891   1.559   1.562   1.180  0.0501 -0.7531 -1.7118
  825MOL0     H 8892   1.648   1.349   1.258  2.1992 -1.1321 -1.5077
  825MOL0     H 8893   1.513   1.264   1.203  0.8508 -0.2748 -0.4468
  825MOL0     H 8894   1.686   1.428   1.027 -1.6465 -0.1600  0.0441
  825MOL0     H 8895   1.563   1.316   0.973 -1.5525 -1.0644  1.6072
  825MOL0     H 8896   1.840   1.263   1.093 -0.9754  0.7320 -1.7529
  825MOL0     H 8897   1.702   1.144   1.128 -1.4001  1.2569  1.1338
  825MOL0     H 8898   1.798   1.068   0.722 -0.8267 -1.3809  0.9667
  825MOL0     H 8899   1.191   1.544   0.940 -2.4757  0.2059 -0.5233
  825MOL0     H 8900   1.066   1.744   0.907 -0.0607  2.9081  0.1564
  826MOL0     O 8901   4.006  10.455   8.536 -0.3019  0.3593  0.2348
  826MOL0     C 8902   4.044  10.404   8.638 -0.3624  1.2229  0.4761
  826MOL0     O 8903   3.965  10.360   8.743  0.0365 -1.1906  0.3086
  826MOL0     C 8904   3.833  10.370   8.725  0.0283  0.2495 -1.0144
  826MOL0     C 8905   3.766  10.409   8.838  1.2259  0.4568  0.5220
  826MOL0     C 8906   3.624  10.417   8.845  0.5092 -0.3790 -0.1913
  826MOL0     C 8907   3.546  10.381   8.736  0.0208  0.1782  0.6946
  826MOL0     O 8908   3.412  10.407   8.739  0.1634  0.3377 -0.3177
  826MOL0     C 8909   3.341  10.299   8.680  0.8769 -0.5291 -0.1784
  826MOL0     C 8910   3.198  10.320   8.732  0.1786  0.2395  0.1174
  826MOL0     C 8911   3.185  10.289   8.881  0.2461 -0.2632  0.5851
  826MOL0     C 8912   3.037  10.309   8.940  0.4634  0.4584 -0.1940
  826MOL0     C 8913   3.034  10.253   9.082  0.2765 -0.0679 -0.7857
  826MOL0     C 8914   2.917  10.318   9.167 -0.2765  0.1222  0.3557
  826MOL0     C 8915   2.895  10.223   9.287  0.1093  0.3287 -0.4739
  826MOL0     C 8916   2.822  10.099   9.249  0.2587 -0.1121  0.1584
  826MOL0     N 8917   2.795  10.001   9.356 -0.8562  0.2101 -0.5402
  826MOL0     C 8918   2.720  10.028   9.467 -0.3673 -0.9721 -0.4039
  826MOL0     C 8919   2.696   9.903   9.513 -0.5772  0.2928  0.5679
  826MOL0     C 8920   2.626   9.871   9.637  0.4534 -0.5240  0.3460
  826MOL0     C 8921   2.494   9.937   9.673 -0.2626 -0.5897 -0.4614
  826MOL0     C 8922   2.376   9.912   9.573  0.7530  0.3721 -0.3121
  826MOL0     C 8923   2.363   9.762   9.540  0.6372 -0.9334 -1.0282
  826MOL0     O 8924   2.326   9.685   9.658  0.5809 -0.4516 -0.1651
  826MOL0     C 8925   2.190   9.671   9.688 -0.2927  1.0684  0.8511
  826MOL0     C 8926   2.157   9.605   9.799 -0.1753  0.0440  0.4688
  826MOL0     C 8927   2.018   9.589   9.833  0.3647  0.3333 -0.0829
  826MOL0     C 8928   1.915   9.651   9.760 -0.2298  0.3724 -0.5213
  826MOL0     C 8929   1.768   9.628   9.772 -0.7648  0.6448 -0.5289
  826MOL0     O 8930   1.684   9.704   9.707  0.2091  0.2263 -0.1194
  826MOL0     C 8931   1.555   9.728   9.746 -0.6296  0.1511 -0.3764
  826MOL0     C 8932   1.512   9.743   9.884 -0.5801 -0.7390  0.1529
  826MOL0     C 8933   1.374   9.757   9.911 -0.2008 -0.4518 -0.2308
  826MOL0     C 8934   1.282   9.750   9.807  0.3451 -0.1816  1.1640
  826MOL0     O 8935   1.147   9.754   9.818 -0.2140 -0.2993 -0.5820
  826MOL0     C 8936   1.083   9.670   9.915  0.7070  0.9998  0.7433
  826MOL0     C 8937   0.936   9.703   9.910 -0.4609  0.4975  0.0065
  826MOL0     C 8938   0.856   9.625  10.019 -0.6879  0.2925  0.4251
  826MOL0     C 8939   0.709   9.680  10.023  0.2425 -0.9277  0.5448
  826MOL0     C 8940   0.625   9.588  10.114  0.5124  0.3435  0.7422
  826MOL0     C 8941   0.473   9.609  10.094 -0.0348  0.3571 -0.2847
  826MOL0     C 8942   0.404   9.610  10.235  0.3788  0.0736  0.9135
  826MOL0     C 8943   0.264   9.676  10.228 -0.5515  0.0777  0.5063
  826MOL0    Cl 8944   0.165   9.561  10.123 -0.7009 -0.3752 -0.1969
  826MOL0     C 8945   1.326   9.755   9.673 -0.1755 -0.2185 -0.7941
  826MOL0     C 8946   1.457   9.734   9.648 -0.8970  1.5179 -0.1675
  826MOL0     O 8947   1.737   9.541   9.853 -0.0869  0.1581  0.0999
  826MOL0     C 8948   1.957   9.729   9.647  0.7836  0.1565 -0.0307
  826MOL0     C 8949   2.087   9.730   9.607 -0.3526 -0.1067  0.1786
  826MOL0     N 8950   2.761   9.807   9.434  0.3104  0.5098 -0.3394
  826MOL0     N 8951   2.820   9.869   9.339  0.2834 -0.4795  0.1499
  826MOL0     C 8952   3.618  10.335   8.621  0.2641 -0.2069  0.3886
  826MOL0     C 8953   3.760  10.330   8.616 -0.1524  0.6370 -0.0646
  826MOL0     C 8954   4.193  10.386   8.654  0.6223  0.3243 -0.1264
  826MOL0     C 8955   4.249  10.367   8.784 -0.6226  0.1408  0.0486
  826MOL0     C 8956   4.388  10.352   8.801 -1.2503 -0.2743 -0.2085
  826MOL0     C 8957   4.472  10.373   8.695  0.0300 -0.0620 -0.4201
  826MOL0     O 8958   4.608  10.364   8.729 -0.1221  0.3842  0.2561
  826MOL0     C 8959   4.690  10.328   8.622  0.4312  0.6054  1.1088
  826MOL0     C 8960   4.811  10.247   8.678  0.0125 -0.1897 -1.0361
  826MOL0     C 8961   4.914  10.197   8.583  0.1489 -0.4028  0.7790
  826MOL0     C 8962   4.993  10.310   8.532 -0.1788 -0.0621 -0.1477
  826MOL0     C 8963   5.098  10.255   8.441 -0.1447  0.1573 -0.0128
  826MOL0     C 8964   5.180  10.210   8.370  0.1443  0.2805 -0.0403
  826MOL0     C 8965   4.420  10.410   8.566  0.0508  0.5719 -0.4825
  826MOL0     C 8966   4.281  10.406   8.543  1.4112 -0.0829 -0.7570
  826MOL0     H 8967   3.823  10.424   8.929 -1.2112 -0.1687  2.2448
  826MOL0     H 8968   3.579  10.454   8.936  2.6582  3.7064 -0.5520
  826MOL0     H 8969   3.379  10.202   8.713  1.9309  0.3374  1.2865
  826MOL0     H 8970   3.347  10.309   8.572  0.3581 -1.6190 -0.3234
  826MOL0     H 8971   3.142  10.238   8.686  0.0930 -1.2027  2.6621
  826MOL0     H 8972   3.153  10.418   8.712  0.7475  0.5256  0.2259
  826MOL0     H 8973   3.261  10.342   8.940  1.2536 -0.8457 -0.1759
  826MOL0     H 8974   3.210  10.183   8.891 -0.9574 -0.7302 -0.9486
  826MOL0     H 8975   3.010  10.415   8.940 -2.4978 -0.2065 -0.8520
  826MOL0     H 8976   2.963  10.264   8.873  1.7076 -0.4888 -0.9737
  826MOL0     H 8977   3.126  10.260   9.140  1.9222 -4.0209 -2.5484
  826MOL0     H 8978   3.012  10.147   9.065 -1.8779 -0.3105  2.5569
  826MOL0     H 8979   2.822  10.314   9.113 -0.9399 -2.4637  1.5862
  826MOL0     H 8980   2.947  10.417   9.204 -0.5447  0.3287  0.0266
  826MOL0     H 8981   2.988  10.190   9.333 -0.5590 -0.7724  0.1091
  826MOL0     H 8982   2.825  10.273   9.354  0.4594  0.4808 -0.2243
  826MOL0     H 8983   2.880  10.051   9.169  1.0590  0.6779  0.2460
  826MOL0     H 8984   2.729  10.132   9.203  0.0290  0.0192  0.7151
  826MOL0     H 8985   2.690  10.120   9.517 -0.5367 -1.4868  0.4492
  826MOL0     H 8986   2.696   9.902   9.715  1.4036 -1.4724 -0.1067
  826MOL0     H 8987   2.613   9.763   9.647 -0.0193 -0.5032 -0.0124
  826MOL0     H 8988   2.507  10.045   9.685 -0.8254 -0.4610 -0.9756
  826MOL0     H 8989   2.459   9.905   9.772 -1.5666  2.0478  0.0351
  826MOL0     H 8990   2.280   9.944   9.614 -0.3820  0.4056 -2.8182
  826MOL0     H 8991   2.395   9.970   9.482 -3.1060  0.8716 -0.9476
  826MOL0     H 8992   2.462   9.727   9.510  0.1288 -1.5535 -1.9929
  826MOL0     H 8993   2.305   9.742   9.450  0.1564 -1.9806 -0.5037
  826MOL0     H 8994   2.237   9.577   9.866 -0.5356  1.0072  1.3231
  826MOL0     H 8995   1.996   9.530   9.921  0.1444 -1.0999 -1.0516
  826MOL0     H 8996   1.584   9.732   9.964 -0.0870 -0.5509 -0.2630
  826MOL0     H 8997   1.333   9.760  10.011 -0.7549 -2.5849 -0.3304
  826MOL0     H 8998   1.134   9.683  10.011  0.3699 -1.1644  1.2896
  826MOL0     H 8999   1.088   9.563   9.890 -2.1564  0.8240  0.5923
  826MOL0     H 9000   0.893   9.687   9.810  1.8164  0.2410 -0.9945
  826MOL0     H 9001   0.929   9.810   9.930 -0.6794  0.2289  1.4411
  826MOL0     H 9002   0.901   9.629  10.118 -1.0464  0.9935  0.5676
  826MOL0     H 9003   0.859   9.520   9.989 -1.5825  0.0517  1.1255
  826MOL0     H 9004   0.708   9.781  10.064  1.6572 -1.5192  2.1592
  826MOL0     H 9005   0.673   9.674   9.919  0.8395  0.9823  0.2002
  826MOL0     H 9006   0.659   9.598  10.218  2.1562 -2.2039  0.5506
  826MOL0     H 9007   0.638   9.485  10.078 -1.8751  0.4797 -0.7343
  826MOL0     H 9008   0.425   9.531  10.034  2.5384 -1.0955 -0.5916
  826MOL0     H 9009   0.467   9.712  10.059  0.9875  1.4241  2.4166
  826MOL0     H 9010   0.390   9.507  10.269 -0.5934 -0.6240 -1.4138
  826MOL0     H 9011   0.469   9.662  10.305  1.2874  0.4206 -0.1625
  826MOL0     H 9012   0.282   9.775  10.185  2.1544 -0.3535  0.4718
  826MOL0     H 9013   0.216   9.670  10.326  1.2574 -3.0711  1.3596
  826MOL0     H 9014   1.250   9.747   9.596 -1.7540 -1.2058  0.7908
  826MOL0     H 9015   1.486   9.722   9.544 -2.0029  1.1330 -0.4394
  826MOL0     H 9016   1.882   9.786   9.591  1.2741  0.9359  0.0951
  826MOL0     H 9017   2.106   9.799   9.525  1.8281  0.2337  0.8945
  826MOL0     H 9018   3.571  10.294   8.532  0.0347  1.5689 -0.3554
  826MOL0     H 9019   3.828  10.302   8.536  1.5000  1.9559  0.8333
  826MOL0     H 9020   4.186  10.360   8.873  0.6297 -0.1995  0.9402
  826MOL0     H 9021   4.430  10.338   8.900  2.7307  2.0039 -1.3286
  826MOL0     H 9022   4.724  10.416   8.567  0.7400  0.7184  1.4770
  826MOL0     H 9023   4.626  10.261   8.564  1.7237 -0.1893  0.5615
  826MOL0     H 9024   4.857  10.291   8.767 -3.1451  1.3247 -0.0076
  826MOL0     H 9025   4.774  10.161   8.734  1.1672  0.1122  0.2324
  826MOL0     H 9026   4.861  10.151   8.499 -0.0795 -0.8467  1.1608
  826MOL0     H 9027   4.976  10.123   8.634 -0.5572 -0.1670  2.0120
  826MOL0     H 9028   4.931  10.382   8.479  0.6075 -0.1986 -1.2992
  826MOL0     H 9029   5.039  10.371   8.609 -0.6367  3.1640 -2.2216
  826MOL0     H 9030   5.268  10.174   8.322 -0.4869  2.3423 -3.0286
  826MOL0     H 9031   4.490  10.432   8.485 -0.2093  1.5638 -0.4520
  826MOL0     H 9032   4.241  10.434   8.446 -2.9764 -1.1684  0.5176
  827MOL0     O 9033  10.331   2.776  10.187  0.5540 -0.1609 -0.0909
  827MOL0     C 9034  10.369   2.718  10.089  0.6201  0.4243  0.1750
  827MOL0     O 9035  10.296   2.703   9.971 -0.0796  0.0254  0.2518
  827MOL0     C 9036  10.163   2.696   9.966  0.1422  0.2404 -0.1133
  827MOL0     C 9037  10.082   2.664  10.082  0.1985  0.3829 -0.8766
  827MOL0     C 9038   9.943   2.636  10.062  0.7558  0.1088  0.2805
  827MOL0     C 9039   9.880   2.640   9.937  0.1055 -0.9561  0.4312
  827MOL0     O 9040   9.742   2.628   9.940 -0.8525  0.0249  0.1010
  827MOL0     C 9041   9.685   2.609   9.815  0.3973 -0.2180 -0.3873
  827MOL0     C 9042   9.537   2.572   9.848  0.2277  0.8386 -0.1751
  827MOL0     C 9043   9.456   2.684   9.908 -0.7264 -0.7844  0.4266
  827MOL0     C 9044   9.421   2.785   9.795  0.3541 -0.2951  0.3784
  827MOL0     C 9045   9.502   2.920   9.811 -0.0418 -0.6032 -0.2105
  827MOL0     C 9046   9.512   2.997   9.672  0.7275  0.5657 -0.7965
  827MOL0     C 9047   9.403   3.110   9.666 -0.7142  0.6068 -0.6964
  827MOL0     C 9048   9.399   3.147   9.517  0.5524  0.5183 -0.2137
  827MOL0     N 9049   9.296   3.250   9.519  0.0511 -0.7218 -0.7924
  827MOL0     C 9050   9.160   3.219   9.526 -0.1510 -0.3865  0.0553
  827MOL0     C 9051   9.100   3.342   9.550  0.5291  0.2906  0.1380
  827MOL0     C 9052   8.952   3.375   9.534  0.6572 -0.2092  0.1808
  827MOL0     C 9053   8.862   3.314   9.634  1.2454 -0.1536  0.1442
  827MOL0     C 9054   8.714   3.311   9.596 -0.0984 -0.0645 -0.7144
  827MOL0     C 9055   8.628   3.267   9.723  0.5122 -1.1938  0.8513
  827MOL0     O 9056   8.497   3.238   9.677  0.5883 -0.6499  0.0659
  827MOL0     C 9057   8.395   3.308   9.731  0.4273  0.1526 -0.0383
  827MOL0     C 9058   8.401   3.448   9.738  0.5530  0.5650 -0.0633
  827MOL0     C 9059   8.302   3.515   9.808 -1.0259  0.4373 -0.7259
  827MOL0     C 9060   8.195   3.442   9.865 -0.2428 -0.2046 -0.5317
  827MOL0     C 9061   8.095   3.516   9.948 -0.4879 -0.4575 -0.1726
  827MOL0     O 9062   7.963   3.462   9.956 -0.6160 -0.0984 -0.3025
  827MOL0     C 9063   7.855   3.534  10.017 -0.0798 -0.6080  0.4634
  827MOL0     C 9064   7.738   3.460  10.030  0.4779  0.0825 -0.7955
  827MOL0     C 9065   7.622   3.512  10.080 -0.1521  0.0595 -0.8667
  827MOL0     C 9066   7.613   3.648  10.102  0.2056 -0.1200  0.0319
  827MOL0     O 9067   7.495   3.707  10.144  0.5932 -0.2578  0.1210
  827MOL0     C 9068   7.503   3.835  10.216 -0.1649  0.7927 -1.0580
  827MOL0     C 9069   7.376   3.854  10.295 -0.2700 -0.0332  0.0103
  827MOL0     C 9070   7.249   3.842  10.215  0.1439  0.1066  0.1032
  827MOL0     C 9071   7.129   3.846  10.306 -0.7319 -0.3898  0.4401
  827MOL0     C 9072   6.999   3.867  10.219 -0.0683 -0.2178 -0.4393
  827MOL0     C 9073   6.879   3.850  10.298 -0.3499  0.1192  0.1655
  827MOL0     C 9074   6.765   3.912  10.222  0.1409 -0.0256 -0.4885
  827MOL0     C 9075   6.630   3.865  10.277 -0.3769  0.5940  0.5775
  827MOL0    Cl 9076   6.596   3.699  10.228  0.1504  0.1764  0.1396
  827MOL0     C 9077   7.725   3.731  10.077 -0.1695 -0.2465  1.4108
  827MOL0     C 9078   7.843   3.667  10.032  0.4088  0.1202 -0.1104
  827MOL0     O 9079   8.132   3.615  10.013 -0.1331 -0.3908  0.2452
  827MOL0     C 9080   8.184   3.302   9.850  0.6048  0.4411  0.9566
  827MOL0     C 9081   8.290   3.240   9.780  0.0104  0.6064  0.8053
  827MOL0     N 9082   9.199   3.443   9.541  0.2510  0.3957 -0.5514
  827MOL0     N 9083   9.308   3.382   9.529 -0.1956  0.6338  0.3882
  827MOL0     C 9084   9.960   2.681   9.831  0.2835  0.4958  0.8488
  827MOL0     C 9085  10.096   2.709   9.846 -1.1019  0.3428 -0.2178
  827MOL0     C 9086  10.495   2.651  10.096  0.0290  0.4928  0.5671
  827MOL0     C 9087  10.576   2.665  10.205  0.4039  0.0184 -0.3037
  827MOL0     C 9088  10.710   2.607  10.216  0.6631 -0.1215 -0.2774
  827MOL0     C 9089  10.764   2.531  10.113  0.1936  0.4463  1.0766
  827MOL0     O 9090  10.890   2.470  10.141  0.2679 -0.3662  0.0646
  827MOL0     C 9091  10.981   2.456  10.032  0.7837  0.2623 -0.2141
  827MOL0     C 9092  11.115   2.515  10.081  0.6207 -0.0057  0.1833
  827MOL0     C 9093  11.178   2.418  10.176  0.1474  0.5577  0.4004
  827MOL0     C 9094  11.331   2.443  10.176 -0.2617 -0.0630 -0.5327
  827MOL0     C 9095  11.399   2.331  10.247  0.4670 -0.4016 -0.3223
  827MOL0     C 9096  11.456   2.254  10.321  0.2007 -0.3189 -1.1018
  827MOL0     C 9097  10.684   2.509  10.000  0.1043 -0.3736 -0.5574
  827MOL0     C 9098  10.558   2.578   9.989  0.5655 -0.1321  0.1145
  827MOL0     H 9099  10.120   2.665  10.183  1.4966 -1.8016 -1.2756
  827MOL0     H 9100   9.885   2.616  10.152  2.2211  1.2853  1.5553
  827MOL0     H 9101   9.736   2.534   9.753 -1.2040 -1.4895 -0.2337
  827MOL0     H 9102   9.679   2.705   9.765  0.2984  1.3643  2.4559
  827MOL0     H 9103   9.535   2.494   9.925 -0.6226 -0.1979 -1.2192
  827MOL0     H 9104   9.489   2.541   9.755 -0.9430  1.6904  0.1182
  827MOL0     H 9105   9.516   2.735   9.984 -1.2367 -0.0568  0.3583
  827MOL0     H 9106   9.366   2.633   9.943 -0.5910 -0.5333  1.1588
  827MOL0     H 9107   9.449   2.751   9.695  0.4604  0.8883 -0.0020
  827MOL0     H 9108   9.314   2.801   9.785  0.5098 -0.3115 -1.5175
  827MOL0     H 9109   9.604   2.893   9.839  0.2098 -2.5688 -2.6942
  827MOL0     H 9110   9.472   2.981   9.897  0.5916 -0.6603  0.0532
  827MOL0     H 9111   9.511   2.937   9.580 -1.0093  1.6134 -1.5132
  827MOL0     H 9112   9.613   3.039   9.676  1.1028 -0.3649 -0.3873
  827MOL0     H 9113   9.307   3.070   9.699  0.4233 -0.7192  1.1923
  827MOL0     H 9114   9.438   3.196   9.724 -3.9499  0.7584  1.2718
  827MOL0     H 9115   9.389   3.069   9.440 -0.1142  1.0269 -0.6629
  827MOL0     H 9116   9.485   3.200   9.476  1.6668 -1.0274  0.0373
  827MOL0     H 9117   9.115   3.121   9.520  2.5523 -1.7887  1.3415
  827MOL0     H 9118   8.929   3.339   9.433 -0.6272  5.3518 -1.8909
  827MOL0     H 9119   8.928   3.482   9.534 -0.6748 -0.4903 -0.1451
  827MOL0     H 9120   8.861   3.370   9.728  1.0452 -0.2591  0.2059
  827MOL0     H 9121   8.898   3.213   9.657  0.5417 -1.2448 -2.9802
  827MOL0     H 9122   8.695   3.408   9.550  0.5203  0.0258 -0.7902
  827MOL0     H 9123   8.705   3.237   9.516 -1.0407  1.7163 -2.3311
  827MOL0     H 9124   8.635   3.350   9.794  3.0559  1.9705 -2.7020
  827MOL0     H 9125   8.662   3.169   9.758  0.5057 -1.8948 -0.9682
  827MOL0     H 9126   8.483   3.505   9.696  1.1669 -1.7849 -2.2799
  827MOL0     H 9127   8.311   3.621   9.834 -1.0820  0.4986 -0.9547
  827MOL0     H 9128   7.747   3.352  10.033  3.1428  0.2348 -0.2216
  827MOL0     H 9129   7.541   3.451  10.119  0.7041 -1.5094 -1.5096
  827MOL0     H 9130   7.513   3.914  10.141 -0.3416  0.5553 -1.3344
  827MOL0     H 9131   7.588   3.828  10.283  0.2120 -0.7464 -1.6349
  827MOL0     H 9132   7.387   3.954  10.339  1.9157  0.7347 -2.0440
  827MOL0     H 9133   7.364   3.782  10.376 -0.1965  0.5163  0.5177
  827MOL0     H 9134   7.252   3.749  10.157  0.9747  0.3711 -0.2992
  827MOL0     H 9135   7.244   3.931  10.153 -1.3962  1.5519  2.1449
  827MOL0     H 9136   7.110   3.759  10.369 -0.3038 -0.9509 -0.1872
  827MOL0     H 9137   7.143   3.930  10.375 -1.4304 -0.4362  0.6457
  827MOL0     H 9138   6.995   3.796  10.136 -4.7490  1.6771 -2.1739
  827MOL0     H 9139   7.005   3.962  10.164  2.1965  0.2854  0.5575
  827MOL0     H 9140   6.880   3.897  10.396  2.2712  1.5127 -0.4491
  827MOL0     H 9141   6.873   3.741  10.307  2.1561 -0.0542  0.1878
  827MOL0     H 9142   6.764   4.020  10.238 -0.3012  0.0800 -1.1516
  827MOL0     H 9143   6.779   3.894  10.115  0.6083 -0.1094 -0.4184
  827MOL0     H 9144   6.553   3.929  10.233 -1.2166 -1.8513 -1.8475
  827MOL0     H 9145   6.628   3.872  10.386  0.8876  1.9272  0.5329
  827MOL0     H 9146   7.736   3.837  10.097  0.6258  0.2238 -1.0892
  827MOL0     H 9147   7.929   3.732  10.022 -0.3715  1.0653 -0.8908
  827MOL0     H 9148   8.102   3.244   9.892  1.6422 -0.5300  1.6713
  827MOL0     H 9149   8.288   3.132   9.774 -0.1953  0.5174  2.0521
  827MOL0     H 9150   9.915   2.699   9.734  2.0909  1.7276  0.1870
  827MOL0     H 9151  10.157   2.738   9.760  0.1824  1.1753  0.9364
  827MOL0     H 9152  10.537   2.712  10.294 -2.0097 -2.7506  0.2665
  827MOL0     H 9153  10.756   2.625  10.312 -0.1981  1.3082 -0.1115
  827MOL0     H 9154  10.940   2.519   9.954  0.3983  1.1557  0.6883
  827MOL0     H 9155  10.986   2.350  10.006 -2.0284 -0.1246  0.4927
  827MOL0     H 9156  11.172   2.531   9.988 -1.4456  0.2643 -1.1146
  827MOL0     H 9157  11.092   2.610  10.131  1.4360  0.0519  0.4594
  827MOL0     H 9158  11.159   2.315  10.143  0.1222  0.3266  1.1132
  827MOL0     H 9159  11.143   2.417  10.280  0.1782 -1.7504  0.4494
  827MOL0     H 9160  11.374   2.462  10.078  0.4531  1.3368  0.0267
  827MOL0     H 9161  11.345   2.531  10.240 -1.8937  0.0360 -0.2639
  827MOL0     H 9162  11.484   2.174  10.386 -0.9044 -1.3887 -1.8786
  827MOL0     H 9163  10.718   2.449   9.917 -1.7135 -0.3074 -1.4029
  827MOL0     H 9164  10.498   2.565   9.900 -4.3106 -2.1872  3.2697
  828MOL0     O 9165  10.796   3.983   9.583 -0.1701 -0.3952 -0.2552
  828MOL0     C 9166  10.885   4.052   9.637  0.1498  0.1641 -0.3368
  828MOL0     O 9167  10.875   4.183   9.664  0.1339 -0.0177  0.2548
  828MOL0     C 9168  10.755   4.242   9.643  1.0213 -0.6239  0.0274
  828MOL0     C 9169  10.714   4.276   9.518 -0.0084 -0.8805  0.3595
  828MOL0     C 9170  10.607   4.353   9.502  0.3144 -0.9780  0.4924
  828MOL0     C 9171  10.517   4.392   9.611  0.1838 -0.4259  0.1011
  828MOL0     O 9172  10.414   4.475   9.568  0.6087  0.1276 -0.3808
  828MOL0     C 9173  10.322   4.522   9.671  0.2595  0.0936  0.6041
  828MOL0     C 9174  10.222   4.620   9.603  0.4364 -0.6407 -0.3473
  828MOL0     C 9175  10.110   4.656   9.696  0.2940  0.2176 -0.8621
  828MOL0     C 9176  10.009   4.541   9.723  0.1445  0.3113 -0.0982
  828MOL0     C 9177   9.890   4.608   9.795 -0.6437 -1.0844  0.1143
  828MOL0     C 9178   9.784   4.500   9.807 -0.2117  0.0226  0.9111
  828MOL0     C 9179   9.665   4.546   9.882 -0.5448 -0.7325 -0.1455
  828MOL0     C 9180   9.590   4.663   9.814 -0.5161 -0.3904  0.1856
  828MOL0     N 9181   9.515   4.625   9.689 -0.2742  0.2785  0.0061
  828MOL0     C 9182   9.402   4.544   9.692  0.7146  0.0100 -0.5967
  828MOL0     C 9183   9.347   4.556   9.564  0.0444  0.4383 -0.8186
  828MOL0     C 9184   9.226   4.491   9.513 -0.5881 -0.0494  0.3667
  828MOL0     C 9185   9.232   4.337   9.512 -0.2018 -0.2049 -0.2543
  828MOL0     C 9186   9.121   4.274   9.424 -0.5572  0.1936 -1.9400
  828MOL0     C 9187   8.976   4.321   9.451  0.0457  0.8598  0.4082
  828MOL0     O 9188   8.876   4.222   9.417  0.1753 -0.4659 -0.6098
  828MOL0     C 9189   8.749   4.266   9.409  1.0115 -0.2164  0.1869
  828MOL0     C 9190   8.658   4.165   9.386 -0.1587  1.1589  0.7794
  828MOL0     C 9191   8.522   4.193   9.378 -0.4518 -0.0247 -0.7635
  828MOL0     C 9192   8.473   4.319   9.410  0.3217 -0.1056  0.2869
  828MOL0     C 9193   8.330   4.342   9.431  0.0692 -0.1380  0.3001
  828MOL0     O 9194   8.283   4.470   9.451  0.2723  0.1442 -0.3061
  828MOL0     C 9195   8.150   4.504   9.456  0.1988  0.4981 -0.0406
  828MOL0     C 9196   8.041   4.423   9.413 -0.0936 -0.7099  0.6946
  828MOL0     C 9197   7.909   4.474   9.410  0.0926  0.8112 -0.2246
  828MOL0     C 9198   7.886   4.605   9.443  0.0604  0.5156 -0.7546
  828MOL0     O 9199   7.756   4.641   9.436  0.4927 -0.0929  0.3846
  828MOL0     C 9200   7.706   4.772   9.464 -0.0116 -0.5421 -0.5737
  828MOL0     C 9201   7.558   4.778   9.441 -0.0510 -0.7069 -0.1138
  828MOL0     C 9202   7.535   4.758   9.289 -0.6417 -1.2415 -0.2760
  828MOL0     C 9203   7.401   4.814   9.239 -0.3327  0.3157 -0.5352
  828MOL0     C 9204   7.291   4.728   9.290  0.1979 -0.0730  0.7452
  828MOL0     C 9205   7.154   4.780   9.229  0.5733 -0.0132  0.1936
  828MOL0     C 9206   7.126   4.928   9.215  0.5737 -0.0883 -0.2371
  828MOL0     C 9207   6.987   4.969   9.166 -0.0847  0.7145 -0.0190
  828MOL0    Cl 9208   6.963   4.893   9.001  0.3577 -0.3775 -0.0506
  828MOL0     C 9209   7.991   4.685   9.490 -0.1408  0.1512 -0.3281
  828MOL0     C 9210   8.119   4.634   9.493  1.2199  0.4326  0.7594
  828MOL0     O 9211   8.261   4.243   9.442  0.5606 -0.2964  0.2411
  828MOL0     C 9212   8.563   4.426   9.435 -1.0161  0.1778  0.1435
  828MOL0     C 9213   8.700   4.395   9.425  0.6346 -0.8718 -0.0231
  828MOL0     N 9214   9.428   4.640   9.496  0.5889 -0.6632 -0.0096
  828MOL0     N 9215   9.529   4.684   9.568  0.7016  0.2798  0.5647
  828MOL0     C 9216  10.555   4.347   9.737 -0.6295 -0.0884  0.1295
  828MOL0     C 9217  10.677   4.270   9.757 -0.2633 -0.0186 -0.0103
  828MOL0     C 9218  11.014   4.000   9.651 -0.8896  0.1197  0.2470
  828MOL0     C 9219  11.119   4.072   9.715 -0.3558  0.8336  0.3628
  828MOL0     C 9220  11.240   4.015   9.749  0.1840 -0.7481 -0.6593
  828MOL0     C 9221  11.246   3.878   9.739 -0.4735  0.4292  0.6014
  828MOL0     O 9222  11.354   3.804   9.783  0.0582 -0.1355  0.1415
  828MOL0     C 9223  11.473   3.859   9.723  0.6717  0.2304  1.1619
  828MOL0     C 9224  11.568   3.746   9.683 -0.1843 -0.0315 -0.2473
  828MOL0     C 9225  11.711   3.791   9.687 -0.2250  0.0350  0.7204
  828MOL0     C 9226  11.794   3.701   9.596 -0.1789  0.1841  0.5038
  828MOL0     C 9227  11.932   3.760   9.575  0.0102 -0.3865 -0.2813
  828MOL0     C 9228  12.036   3.813   9.563  0.1397  0.1568 -0.8515
  828MOL0     C 9229  11.152   3.803   9.674  0.5842 -0.0838  0.4140
  828MOL0     C 9230  11.034   3.866   9.630 -1.1175 -0.0938  0.6062
  828MOL0     H 9231  10.784   4.262   9.436 -0.4603  1.2476 -0.4497
  828MOL0     H 9232  10.599   4.402   9.406  1.5973  2.1873  1.8361
  828MOL0     H 9233  10.363   4.572   9.760 -1.9057 -0.2156  1.8571
  828MOL0     H 9234  10.270   4.444   9.727 -0.8605  0.9558  0.8196
  828MOL0     H 9235  10.191   4.569   9.511 -0.1629 -3.4882  1.3081
  828MOL0     H 9236  10.276   4.713   9.584 -0.5217 -0.1531 -0.7247
  828MOL0     H 9237  10.056   4.742   9.655  0.2055  1.1086  1.0176
  828MOL0     H 9238  10.151   4.684   9.793  0.5565  0.6599 -1.0997
  828MOL0     H 9239   9.973   4.500   9.628 -2.3871  0.4396  0.7333
  828MOL0     H 9240  10.053   4.464   9.788  1.8045 -1.3383 -2.9269
  828MOL0     H 9241   9.852   4.683   9.724  0.3427  0.1311  0.8454
  828MOL0     H 9242   9.918   4.649   9.892  1.7513  0.4959 -1.1568
  828MOL0     H 9243   9.822   4.407   9.852  0.4151 -0.3649 -0.3700
  828MOL0     H 9244   9.752   4.473   9.706  2.1993  0.4986 -0.0596
  828MOL0     H 9245   9.587   4.470   9.895 -0.7575 -0.5096 -0.1059
  828MOL0     H 9246   9.695   4.583   9.980  0.0750 -1.1599 -0.1742
  828MOL0     H 9247   9.654   4.750   9.799 -2.4401  0.8407 -1.5463
  828MOL0     H 9248   9.523   4.705   9.889  0.4308  3.5023 -0.9316
  828MOL0     H 9249   9.350   4.506   9.780 -2.7740  1.3329 -1.8951
  828MOL0     H 9250   9.209   4.516   9.408 -4.3915 -2.1077  0.3166
  828MOL0     H 9251   9.134   4.539   9.551 -1.4670 -1.3485 -0.0520
  828MOL0     H 9252   9.214   4.298   9.612 -2.0978  0.0225 -0.4791
  828MOL0     H 9253   9.330   4.302   9.478 -1.5837 -0.6085 -4.3954
  828MOL0     H 9254   9.137   4.282   9.316 -0.3058  1.8274 -1.8161
  828MOL0     H 9255   9.134   4.169   9.451 -1.5772  0.9782  2.3419
  828MOL0     H 9256   8.959   4.411   9.390 -0.6025  1.5964  1.6413
  828MOL0     H 9257   8.969   4.345   9.557 -1.9922  1.0287  0.2667
  828MOL0     H 9258   8.700   4.066   9.370  0.4131  1.0096  2.9643
  828MOL0     H 9259   8.461   4.108   9.348  0.7105 -0.6778 -1.3821
  828MOL0     H 9260   8.054   4.325   9.368 -0.8776  0.3676 -2.0803
  828MOL0     H 9261   7.836   4.399   9.379  0.7898  0.4769 -1.0845
  828MOL0     H 9262   7.755   4.845   9.399 -0.5174  0.0722 -0.2730
  828MOL0     H 9263   7.723   4.804   9.567 -0.1809  1.5232 -1.1399
  828MOL0     H 9264   7.509   4.873   9.464 -0.3259 -0.0005 -3.1638
  828MOL0     H 9265   7.499   4.704   9.496  0.5931  0.4208  2.2277
  828MOL0     H 9266   7.538   4.651   9.266 -2.3958 -1.6755  1.3364
  828MOL0     H 9267   7.614   4.818   9.243 -0.0952 -2.0601 -0.4322
  828MOL0     H 9268   7.384   4.917   9.272 -1.8367 -0.3648  1.0308
  828MOL0     H 9269   7.410   4.811   9.130  1.9608 -0.1726 -0.3792
  828MOL0     H 9270   7.282   4.738   9.399  1.0566 -1.0115  0.9127
  828MOL0     H 9271   7.315   4.623   9.274 -0.5349  0.0468 -1.5129
  828MOL0     H 9272   7.085   4.733   9.298 -0.9245  2.1301  0.2456
  828MOL0     H 9273   7.147   4.734   9.130  0.5133 -0.5438  0.4425
  828MOL0     H 9274   7.141   4.973   9.314 -0.7217 -1.3406  0.5869
  828MOL0     H 9275   7.199   4.966   9.144  0.4650 -1.2697 -0.9992
  828MOL0     H 9276   6.983   5.078   9.171  2.8816  0.8551  2.1160
  828MOL0     H 9277   6.917   4.935   9.244 -0.2789  0.7458 -0.1792
  828MOL0     H 9278   7.963   4.784   9.525  0.0802  0.1681 -0.2026
  828MOL0     H 9279   8.208   4.693   9.512  0.5390  1.1563  1.7638
  828MOL0     H 9280   8.534   4.526   9.464  0.7563  1.2685 -1.6293
  828MOL0     H 9281   8.762   4.478   9.459 -1.1614 -0.3200  2.1603
  828MOL0     H 9282  10.490   4.375   9.820 -0.5965  1.0262 -0.1997
  828MOL0     H 9283  10.711   4.232   9.853 -2.1530 -1.5761  0.1047
  828MOL0     H 9284  11.112   4.179   9.736 -0.2042  0.8490  0.3347
  828MOL0     H 9285  11.319   4.079   9.785 -2.9278  1.8491  2.1797
  828MOL0     H 9286  11.518   3.917   9.805  0.1481  1.5989  0.5182
  828MOL0     H 9287  11.460   3.932   9.642 -0.7178  1.4083  2.3804
  828MOL0     H 9288  11.553   3.671   9.761 -0.2376  1.8789  1.6936
  828MOL0     H 9289  11.545   3.712   9.582 -0.4717  3.0705 -1.3508
  828MOL0     H 9290  11.747   3.779   9.790  1.6539 -1.8854 -0.0611
  828MOL0     H 9291  11.721   3.895   9.655 -0.6614 -0.1948 -0.2007
  828MOL0     H 9292  11.811   3.604   9.645 -1.4591 -0.9739 -1.2066
  828MOL0     H 9293  11.759   3.687   9.493  0.8062  0.4067  0.1244
  828MOL0     H 9294  12.130   3.863   9.558 -0.9466  2.4888  0.3450
  828MOL0     H 9295  11.167   3.697   9.655  0.4422  0.2747 -2.1382
  828MOL0     H 9296  10.950   3.815   9.584 -1.7353 -0.8691  2.4875
  829MOL0     O 9297   0.231   0.586  10.585  0.4209 -0.4163  0.0279
  829MOL0     C 9298   0.203   0.671  10.668  0.1107 -0.5243  0.0831
  829MOL0     O 9299   0.088   0.674  10.751 -0.3065  0.4023 -0.5349
  829MOL0     C 9300  -0.007   0.571  10.744  0.3847 -0.4570 -0.1423
  829MOL0     C 9301  -0.073   0.552  10.626 -0.0285  0.5751  0.4442
  829MOL0     C 9302  -0.186   0.465  10.625 -0.1037  0.2187  0.3490
  829MOL0     C 9303  -0.232   0.401  10.742  0.7928 -0.2835  0.0555
  829MOL0     O 9304  -0.340   0.317  10.748 -0.3115 -0.3245  0.5052
  829MOL0     C 9305  -0.413   0.255  10.634  0.0040  0.2621 -0.4471
  829MOL0     C 9306  -0.336   0.132  10.581 -0.2886  0.3032 -0.2062
  829MOL0     C 9307  -0.435   0.027  10.517 -0.0797  0.6946  0.3696
  829MOL0     C 9308  -0.362  -0.089  10.454 -0.2397  0.2629 -0.5282
  829MOL0     C 9309  -0.468  -0.193  10.428 -0.0863 -0.6001  0.0661
  829MOL0     C 9310  -0.419  -0.327  10.373  0.5779 -0.2864  0.0356
  829MOL0     C 9311  -0.533  -0.428  10.391  0.1789 -0.2574 -0.2348
  829MOL0     C 9312  -0.508  -0.553  10.310  0.9345  0.8289  0.6144
  829MOL0     N 9313  -0.594  -0.661  10.364  0.1045  0.0679  0.1102
  829MOL0     C 9314  -0.733  -0.661  10.355  0.5129  0.2378  0.1525
  829MOL0     C 9315  -0.774  -0.731  10.464  0.5095 -0.6338  0.4527
  829MOL0     C 9316  -0.923  -0.754  10.519  0.2836  0.2510 -0.3554
  829MOL0     C 9317  -0.966  -0.887  10.459 -0.6280 -0.4371 -0.0778
  829MOL0     C 9318  -1.111  -0.913  10.512  0.4566 -0.3873 -0.2154
  829MOL0     C 9319  -1.204  -0.791  10.511  0.3712  0.2762  0.2281
  829MOL0     O 9320  -1.341  -0.845  10.524  0.6594 -0.4161 -0.5195
  829MOL0     C 9321  -1.421  -0.754  10.589  0.9752  0.7003 -0.2875
  829MOL0     C 9322  -1.416  -0.614  10.567  0.5751 -0.2654 -0.7193
  829MOL0     C 9323  -1.521  -0.531  10.623  0.4157  0.8671  0.6814
  829MOL0     C 9324  -1.634  -0.580  10.702 -0.0048  0.8498  1.1307
  829MOL0     C 9325  -1.743  -0.493  10.742  0.3409 -0.1653  0.2100
  829MOL0     O 9326  -1.761  -0.381  10.668  0.7904 -0.6105  0.1826
  829MOL0     C 9327  -1.883  -0.314  10.666  0.1304  0.2536 -0.0870
  829MOL0     C 9328  -1.893  -0.184  10.607 -0.8309 -0.6272 -0.2004
  829MOL0     C 9329  -2.008  -0.111  10.600 -0.3761  0.4161  0.0737
  829MOL0     C 9330  -2.135  -0.180  10.629 -0.4754 -0.4072  0.4642
  829MOL0     O 9331  -2.261  -0.128  10.631 -0.5234 -0.5919 -0.8504
  829MOL0     C 9332  -2.289  -0.012  10.559  0.0073  1.1393 -0.9591
  829MOL0     C 9333  -2.268  -0.020  10.408  0.6191 -0.1805  0.0140
  829MOL0     C 9334  -2.317   0.111  10.336 -0.4172  0.0394  0.3584
  829MOL0     C 9335  -2.206   0.224  10.341  0.5225 -0.5697  0.7838
  829MOL0     C 9336  -2.237   0.345  10.248 -0.2468  0.2544  1.1446
  829MOL0     C 9337  -2.159   0.354  10.114 -0.0564 -0.2296  0.1583
  829MOL0     C 9338  -2.160   0.501  10.053  0.2708 -0.3833  0.3185
  829MOL0     C 9339  -2.306   0.543  10.019 -0.2428  0.4021  0.0042
  829MOL0    Cl 9340  -2.375   0.468   9.867  0.0551 -0.0573 -0.0630
  829MOL0     C 9341  -2.129  -0.313  10.671 -0.8398 -0.5750  0.2474
  829MOL0     C 9342  -2.012  -0.382  10.689 -0.2731  0.2540  0.5140
  829MOL0     O 9343  -1.807  -0.540  10.836  0.0335 -0.1078 -0.3258
  829MOL0     C 9344  -1.619  -0.720  10.735 -0.2316  0.1577 -0.3865
  829MOL0     C 9345  -1.514  -0.807  10.678  0.2507  0.6189 -1.0287
  829MOL0     N 9346  -0.662  -0.764  10.536 -0.7110  0.8221  0.0673
  829MOL0     N 9347  -0.550  -0.716  10.478 -0.0570 -0.0075 -0.8088
  829MOL0     C 9348  -0.162   0.440  10.857 -0.5725  0.4921  1.3858
  829MOL0     C 9349  -0.049   0.519  10.863  0.1523 -0.1598  0.5702
  829MOL0     C 9350   0.307   0.777  10.698 -0.5967  1.1512 -0.7687
  829MOL0     C 9351   0.413   0.787  10.609  0.4626 -0.2509  0.3197
  829MOL0     C 9352   0.516   0.874  10.631  0.1965  0.6979 -0.7462
  829MOL0     C 9353   0.523   0.941  10.751 -0.1158  0.4238 -0.3817
  829MOL0     O 9354   0.630   1.031  10.778 -0.1418  0.4199  0.4173
  829MOL0     C 9355   0.614   1.153  10.697 -0.1629  0.6930  0.3173
  829MOL0     C 9356   0.707   1.265  10.737  0.2370  0.1391 -0.5740
  829MOL0     C 9357   0.635   1.369  10.823  0.0867  0.3247  0.3887
  829MOL0     C 9358   0.725   1.494  10.850  0.2411 -0.0726 -0.1140
  829MOL0     C 9359   0.651   1.593  10.929  0.5133  0.0242 -0.2598
  829MOL0     C 9360   0.601   1.670  11.011 -0.9777  0.0365 -0.3526
  829MOL0     C 9361   0.417   0.930  10.843 -0.2686  0.3909  0.4093
  829MOL0     C 9362   0.308   0.852  10.821  0.1555 -0.2250  0.0135
  829MOL0     H 9363  -0.049   0.604  10.535 -2.1288 -0.6175 -0.8720
  829MOL0     H 9364  -0.237   0.460  10.529  1.1242 -0.5345 -0.2990
  829MOL0     H 9365  -0.425   0.321  10.548  0.2552  0.4699 -0.3252
  829MOL0     H 9366  -0.511   0.224  10.669 -0.3214  2.2450  0.5604
  829MOL0     H 9367  -0.285   0.094  10.670  2.3299  2.6543 -0.5432
  829MOL0     H 9368  -0.257   0.153  10.508 -1.2091 -1.4969 -1.8342
  829MOL0     H 9369  -0.506   0.074  10.448 -0.6847 -0.6617  0.0415
  829MOL0     H 9370  -0.498  -0.017  10.595 -1.8166 -0.7730 -1.7405
  829MOL0     H 9371  -0.305  -0.066  10.363  2.0474  0.7123  0.9404
  829MOL0     H 9372  -0.299  -0.136  10.530 -3.2451  1.6191  3.0878
  829MOL0     H 9373  -0.535  -0.143  10.358  2.0042  1.3111 -0.7242
  829MOL0     H 9374  -0.519  -0.213  10.522  0.6097  0.6835  0.7572
  829MOL0     H 9375  -0.337  -0.372  10.429 -1.5152 -1.6706  2.2364
  829MOL0     H 9376  -0.386  -0.313  10.270  1.2601 -2.6452 -0.1132
  829MOL0     H 9377  -0.547  -0.451  10.497  1.7689  0.4287  0.1564
  829MOL0     H 9378  -0.626  -0.382  10.359 -1.2363 -1.1010  2.3914
  829MOL0     H 9379  -0.405  -0.589  10.319  0.5229 -0.9750 -1.3586
  829MOL0     H 9380  -0.532  -0.534  10.205  0.5050  0.4573  0.6444
  829MOL0     H 9381  -0.799  -0.613  10.284 -0.8298  0.8565  1.7454
  829MOL0     H 9382  -0.984  -0.672  10.480  1.1738  2.0834  1.8817
  829MOL0     H 9383  -0.935  -0.754  10.627 -1.5111  0.4934 -0.5352
  829MOL0     H 9384  -0.900  -0.973  10.473  0.2457  0.0986 -0.7315
  829MOL0     H 9385  -0.973  -0.873  10.350 -1.1544  0.7637  0.0890
  829MOL0     H 9386  -1.162  -0.997  10.464 -1.0844  0.8458 -0.8148
  829MOL0     H 9387  -1.102  -0.947  10.616  2.3894  0.0778 -0.2011
  829MOL0     H 9388  -1.197  -0.735  10.418 -0.2084  0.4255  0.2730
  829MOL0     H 9389  -1.169  -0.725  10.590  0.3836  0.5486 -0.0055
  829MOL0     H 9390  -1.346  -0.560  10.504  1.4335 -0.4314  0.0620
  829MOL0     H 9391  -1.514  -0.423  10.612 -2.5404  0.9261 -1.9573
  829MOL0     H 9392  -1.807  -0.128  10.573 -0.3571 -2.3270 -2.0366
  829MOL0     H 9393  -2.004  -0.004  10.580  1.2757  0.9062  2.5597
  829MOL0     H 9394  -2.226   0.072  10.590  0.1064  1.4036 -1.8425
  829MOL0     H 9395  -2.393   0.012  10.584  0.3323  3.3974 -1.4863
  829MOL0     H 9396  -2.311  -0.115  10.376  0.2620 -0.3197  0.8629
  829MOL0     H 9397  -2.161  -0.030  10.389  0.2708 -1.8364 -1.2946
  829MOL0     H 9398  -2.413   0.142  10.377 -1.6509 -0.3180 -2.0937
  829MOL0     H 9399  -2.327   0.092  10.228  1.7739 -1.1035  0.2842
  829MOL0     H 9400  -2.206   0.265  10.443 -0.7090  0.3466  0.4465
  829MOL0     H 9401  -2.113   0.174  10.315  1.4639  1.7190 -0.5583
  829MOL0     H 9402  -2.216   0.434  10.307 -0.5568  0.6158  0.7244
  829MOL0     H 9403  -2.342   0.334  10.219  0.3252 -0.7856 -0.7589
  829MOL0     H 9404  -2.208   0.281  10.050 -2.2429 -0.4868  1.9913
  829MOL0     H 9405  -2.053   0.328  10.124 -0.0175 -1.2974 -2.4068
  829MOL0     H 9406  -2.127   0.570  10.131 -2.3640  2.0438 -0.5347
  829MOL0     H 9407  -2.098   0.511   9.963  1.2067  0.3184  1.0198
  829MOL0     H 9408  -2.314   0.651  10.005 -0.2115  0.5464  1.0455
  829MOL0     H 9409  -2.370   0.511  10.102 -0.3816  0.3424 -0.1252
  829MOL0     H 9410  -2.223  -0.367  10.681 -1.6149  0.4705 -0.9519
  829MOL0     H 9411  -2.013  -0.485  10.725 -2.1433  1.4197  4.3578
  829MOL0     H 9412  -1.704  -0.756  10.791 -0.3551  1.3523  0.2075
  829MOL0     H 9413  -1.509  -0.913  10.703 -0.3461  1.3691  2.9916
  829MOL0     H 9414  -0.200   0.399  10.950 -1.5645 -0.2039  0.6880
  829MOL0     H 9415  -0.006   0.545  10.960 -2.1728 -0.1153  1.6505
  829MOL0     H 9416   0.417   0.723  10.522 -1.3668 -0.1246  0.1243
  829MOL0     H 9417   0.604   0.881  10.568 -0.5532  1.1915 -1.7660
  829MOL0     H 9418   0.513   1.196  10.700  0.6516  2.6307  1.6859
  829MOL0     H 9419   0.624   1.138  10.589 -1.0141  3.3146 -0.1950
  829MOL0     H 9420   0.790   1.223  10.795  0.4478 -1.1706 -1.7540
  829MOL0     H 9421   0.743   1.317  10.648 -1.5505  0.4797 -1.1464
  829MOL0     H 9422   0.597   1.331  10.918 -1.6757  3.1095  0.9180
  829MOL0     H 9423   0.536   1.395  10.785 -0.2123 -0.4276  0.6408
  829MOL0     H 9424   0.814   1.474  10.910  0.2070  0.9884  0.3157
  829MOL0     H 9425   0.762   1.541  10.758  2.0760  2.6330  1.8722
  829MOL0     H 9426   0.560   1.748  11.071  0.6444  0.0970  0.7278
  829MOL0     H 9427   0.428   0.978  10.940  0.7627  0.1186  0.4367
  829MOL0     H 9428   0.231   0.827  10.893 -2.3208  0.0654 -2.3308
  830MOL0     O 9429   1.962   4.969   0.800 -0.5348  0.8804 -0.3790
  830MOL0     C 9430   2.057   4.921   0.867  0.1853 -0.3276 -0.1505
  830MOL0     O 9431   2.040   4.825   0.966  0.0241  0.2960  0.5303
  830MOL0     C 9432   1.913   4.785   0.998 -0.4981 -0.5636  0.1664
  830MOL0     C 9433   1.879   4.646   0.987 -1.1251 -0.6766 -0.2133
  830MOL0     C 9434   1.753   4.601   1.029 -0.7014  0.5196 -0.2646
  830MOL0     C 9435   1.657   4.690   1.075 -0.3103  0.3968  0.1816
  830MOL0     O 9436   1.539   4.626   1.105  0.3623  0.6504 -0.7362
  830MOL0     C 9437   1.439   4.706   1.173 -0.4609  0.1878 -0.7976
  830MOL0     C 9438   1.333   4.615   1.232 -0.6990 -0.0101  0.2076
  830MOL0     C 9439   1.207   4.692   1.280 -0.9331  0.8231  0.5530
  830MOL0     C 9440   1.105   4.606   1.358 -0.1501  0.5652  0.3032
  830MOL0     C 9441   1.162   4.562   1.497 -0.6214  0.1679 -0.2719
  830MOL0     C 9442   1.067   4.457   1.555  0.7076  0.3935  0.6073
  830MOL0     C 9443   1.112   4.417   1.695  0.4876 -0.1376  0.7920
  830MOL0     C 9444   1.252   4.371   1.688 -0.4138  0.3628 -0.6944
  830MOL0     N 9445   1.279   4.271   1.791  0.9685 -0.9510  0.0615
  830MOL0     C 9446   1.238   4.261   1.929 -0.1186 -0.2743  0.4250
  830MOL0     C 9447   1.269   4.134   1.962  0.4697  0.3595 -0.0002
  830MOL0     C 9448   1.215   4.072   2.087 -0.0894 -0.2598 -0.2144
  830MOL0     C 9449   1.065   4.110   2.110 -0.3319 -0.8125  0.3675
  830MOL0     C 9450   1.017   4.028   2.234  0.2024 -0.4712 -0.0817
  830MOL0     C 9451   0.868   4.061   2.263 -0.2626 -0.0206  0.7817
  830MOL0     O 9452   0.812   4.010   2.380 -0.2895  0.1315 -0.3203
  830MOL0     C 9453   0.686   3.984   2.399 -0.5701 -0.0731  0.9986
  830MOL0     C 9454   0.642   3.918   2.517  0.9290 -0.2237  0.3570
  830MOL0     C 9455   0.510   3.882   2.543 -0.5283 -0.7015 -0.0554
  830MOL0     C 9456   0.411   3.917   2.449  0.1432  0.2711 -0.2040
  830MOL0     C 9457   0.272   3.865   2.463 -0.1129  0.7501 -0.3315
  830MOL0     O 9458   0.246   3.780   2.565  1.1161  0.0678  0.4627
  830MOL0     C 9459   0.126   3.711   2.568 -0.1643 -0.3722  1.1623
  830MOL0     C 9460   0.054   3.709   2.691 -0.3886 -0.1785 -0.2092
  830MOL0     C 9461  -0.061   3.628   2.706 -0.0535 -0.7875 -0.2115
  830MOL0     C 9462  -0.122   3.566   2.595 -0.4612  0.8915  0.7835
  830MOL0     O 9463  -0.242   3.501   2.627  0.0756 -0.1185 -0.2491
  830MOL0     C 9464  -0.305   3.433   2.517  0.0888  0.1709 -0.2173
  830MOL0     C 9465  -0.396   3.326   2.578  0.4071  0.1582  0.7657
  830MOL0     C 9466  -0.541   3.376   2.578  0.4625  0.6381 -0.3490
  830MOL0     C 9467  -0.626   3.279   2.650  0.6222  0.1365 -0.2591
  830MOL0     C 9468  -0.782   3.312   2.636  0.0219 -0.2354  0.2309
  830MOL0     C 9469  -0.867   3.222   2.726  0.3788  0.5437 -0.5547
  830MOL0     C 9470  -1.012   3.246   2.682 -0.3623  0.9569 -0.2766
  830MOL0     C 9471  -1.101   3.136   2.740  0.3615  0.2681  0.4489
  830MOL0    Cl 9472  -1.050   3.079   2.909 -0.0277 -0.1453 -0.3714
  830MOL0     C 9473  -0.056   3.571   2.471  0.7262 -0.7554  0.5292
  830MOL0     C 9474   0.066   3.641   2.462 -0.8076 -0.0564 -0.3784
  830MOL0     O 9475   0.194   3.887   2.365 -0.4188 -0.1943 -0.0258
  830MOL0     C 9476   0.456   3.983   2.338 -0.1883  0.7762 -0.2388
  830MOL0     C 9477   0.581   4.025   2.311  0.2347 -0.1575 -0.3497
  830MOL0     N 9478   1.322   4.068   1.849 -0.1008 -0.1161 -0.7892
  830MOL0     N 9479   1.331   4.154   1.756  0.4618  0.1542  0.3847
  830MOL0     C 9480   1.686   4.822   1.090 -0.1517 -0.1099 -0.2828
  830MOL0     C 9481   1.814   4.869   1.047 -0.4194 -0.4139 -0.3540
  830MOL0     C 9482   2.188   4.974   0.846  0.3823 -0.4863  0.0615
  830MOL0     C 9483   2.296   4.903   0.898  0.6612 -0.2769 -0.4273
  830MOL0     C 9484   2.425   4.945   0.882  0.2005 -0.5385 -0.1585
  830MOL0     C 9485   2.453   5.057   0.804 -0.3016  0.0740 -0.3144
  830MOL0     O 9486   2.580   5.112   0.809 -0.5976 -0.3373 -0.2126
  830MOL0     C 9487   2.601   5.236   0.746  0.0553  0.8412  0.3015
  830MOL0     C 9488   2.744   5.264   0.724 -0.2426  0.7075  0.9775
  830MOL0     C 9489   2.816   5.168   0.626 -1.4447 -0.0205 -0.1490
  830MOL0     C 9490   2.963   5.164   0.653 -0.7042  0.3835  0.2894
  830MOL0     C 9491   3.031   5.084   0.543  0.1104  0.1351 -0.1215
  830MOL0     C 9492   3.087   5.020   0.454  0.1531 -0.0149  0.2216
  830MOL0     C 9493   2.348   5.129   0.753  0.3963 -0.3682 -0.2479
  830MOL0     C 9494   2.217   5.088   0.770  0.1083  0.6976 -0.0328
  830MOL0     H 9495   1.959   4.575   0.964  0.6533  1.0090  0.4883
  830MOL0     H 9496   1.729   4.496   1.020 -0.3366  0.4228 -0.1411
  830MOL0     H 9497   1.392   4.781   1.108  0.1984  2.3400  1.0862
  830MOL0     H 9498   1.478   4.754   1.263 -3.2778  1.3483 -0.0675
  830MOL0     H 9499   1.376   4.554   1.312 -1.1415 -1.5808 -0.7096
  830MOL0     H 9500   1.316   4.545   1.149  0.5343  0.5255 -0.5234
  830MOL0     H 9501   1.149   4.739   1.201 -1.3000  1.5646  1.2454
  830MOL0     H 9502   1.252   4.763   1.350  0.8739  0.2961 -0.0147
  830MOL0     H 9503   1.011   4.661   1.369  1.0994  2.7641  0.5036
  830MOL0     H 9504   1.076   4.519   1.299 -2.1604  0.9686  0.6457
  830MOL0     H 9505   1.162   4.651   1.560 -0.9382 -0.9373  1.3406
  830MOL0     H 9506   1.264   4.524   1.487 -0.5084  0.2476  0.5551
  830MOL0     H 9507   1.060   4.365   1.496 -0.8491  1.4711 -0.9828
  830MOL0     H 9508   0.967   4.500   1.555  1.0479  1.2265 -0.2888
  830MOL0     H 9509   1.103   4.490   1.776  1.2418 -1.5471  2.2089
  830MOL0     H 9510   1.054   4.333   1.734  0.5635  0.4997  2.3801
  830MOL0     H 9511   1.323   4.452   1.704 -0.9055  0.8498 -0.9514
  830MOL0     H 9512   1.273   4.321   1.593  3.2560 -0.3773  0.3439
  830MOL0     H 9513   1.182   4.330   1.992 -1.0683 -1.4917  0.9619
  830MOL0     H 9514   1.275   4.112   2.169  0.5908  1.5311 -1.5323
  830MOL0     H 9515   1.227   3.964   2.084  0.4563 -0.3557  2.6832
  830MOL0     H 9516   1.011   4.068   2.025 -0.0676 -2.9710  1.2082
  830MOL0     H 9517   1.040   4.215   2.125 -1.2668 -0.7720 -1.2808
  830MOL0     H 9518   1.014   3.920   2.216 -0.4141 -1.0248  2.8202
  830MOL0     H 9519   1.085   4.049   2.317 -0.1074 -0.7877  0.2526
  830MOL0     H 9520   0.807   4.033   2.177 -1.3076 -2.3159  2.2022
  830MOL0     H 9521   0.855   4.169   2.273  0.4376  0.1660 -0.1185
  830MOL0     H 9522   0.714   3.888   2.593 -0.8458 -0.5513  1.9784
  830MOL0     H 9523   0.495   3.829   2.636 -0.6913  0.3595  0.5373
  830MOL0     H 9524   0.093   3.761   2.777 -1.3161 -1.2404  0.8955
  830MOL0     H 9525  -0.119   3.619   2.798  0.7018  0.0285  0.3576
  830MOL0     H 9526  -0.233   3.373   2.460  1.4815  0.7473  0.8616
  830MOL0     H 9527  -0.357   3.502   2.450  1.0331  1.3720  0.2409
  830MOL0     H 9528  -0.357   3.294   2.675 -0.1252  1.9323  1.5994
  830MOL0     H 9529  -0.408   3.239   2.512  0.4001  0.8127 -0.1191
  830MOL0     H 9530  -0.565   3.394   2.473  0.1985 -1.2652 -0.6437
  830MOL0     H 9531  -0.542   3.461   2.648 -1.3526 -0.6721  1.3293
  830MOL0     H 9532  -0.617   3.177   2.613  0.5758 -0.3538  1.0396
  830MOL0     H 9533  -0.599   3.269   2.756  0.5922 -2.0313 -0.4250
  830MOL0     H 9534  -0.809   3.305   2.531 -3.8448 -3.0752  1.1782
  830MOL0     H 9535  -0.798   3.417   2.662  1.1346 -0.2835  1.2136
  830MOL0     H 9536  -0.857   3.234   2.835 -0.2952  2.0580 -0.6316
  830MOL0     H 9537  -0.840   3.117   2.709  0.9192  0.7656 -1.0923
  830MOL0     H 9538  -1.041   3.340   2.730 -4.1195 -2.5906  5.6540
  830MOL0     H 9539  -1.025   3.253   2.574  1.7239  0.8057 -0.5820
  830MOL0     H 9540  -1.092   3.040   2.688 -0.5961  0.6875 -0.5377
  830MOL0     H 9541  -1.203   3.175   2.730 -0.4191 -1.7011  0.0713
  830MOL0     H 9542  -0.089   3.520   2.381 -2.4822  1.0127  0.5268
  830MOL0     H 9543   0.110   3.639   2.362 -0.9141 -2.4146 -0.4359
  830MOL0     H 9544   0.374   4.010   2.271 -0.1637  1.3604 -0.0357
  830MOL0     H 9545   0.592   4.082   2.219  2.6945  2.0638  1.1421
  830MOL0     H 9546   1.622   4.896   1.135  1.3988  0.5913  0.8551
  830MOL0     H 9547   1.839   4.974   1.055  0.3097 -0.6513  0.7291
  830MOL0     H 9548   2.284   4.822   0.970 -1.8239  0.8375  0.5372
  830MOL0     H 9549   2.504   4.895   0.937  0.6633  1.1054  0.7654
  830MOL0     H 9550   2.565   5.327   0.795  0.4245  1.8297 -1.1835
  830MOL0     H 9551   2.558   5.239   0.646 -0.5012  0.2757  0.5179
  830MOL0     H 9552   2.760   5.361   0.677  2.4645 -1.5580 -3.4907
  830MOL0     H 9553   2.786   5.258   0.825 -2.4478  0.1650  1.9183
  830MOL0     H 9554   2.804   5.210   0.525  0.0905  0.7823 -0.0256
  830MOL0     H 9555   2.782   5.064   0.622 -0.4122 -0.3375 -2.1250
  830MOL0     H 9556   2.990   5.270   0.643 -2.9842  0.9599 -0.2251
  830MOL0     H 9557   2.994   5.129   0.751  0.2870  2.3309  0.7265
  830MOL0     H 9558   3.128   4.945   0.390  0.3629 -0.8060  1.2608
  830MOL0     H 9559   2.357   5.224   0.702  0.8102 -0.5512 -0.5158
  830MOL0     H 9560   2.132   5.135   0.722  0.5006  0.1303 -1.3211
  831MOL0     O 9561   1.317   9.075   3.904  0.0292 -0.0121 -0.5080
  831MOL0     C 9562   1.274   9.129   4.008 -0.4416 -0.5492  0.1210
  831MOL0     O 9563   1.148   9.131   4.055  0.4762 -0.2507  0.4948
  831MOL0     C 9564   1.053   9.078   3.970 -0.7064  0.1098  0.3586
  831MOL0     C 9565   1.031   9.122   3.840 -0.4559 -0.4142  0.0277
  831MOL0     C 9566   0.934   9.062   3.769  0.8445 -0.5600  0.4292
  831MOL0     C 9567   0.850   8.964   3.814 -0.0852 -0.9483 -0.2661
  831MOL0     O 9568   0.745   8.913   3.745 -0.4792  0.0890  0.5445
  831MOL0     C 9569   0.764   8.778   3.715  0.1923  0.3999  0.2733
  831MOL0     C 9570   0.652   8.735   3.630 -0.5494  0.3761  0.2443
  831MOL0     C 9571   0.520   8.737   3.697 -0.2141 -0.2344  0.6018
  831MOL0     C 9572   0.412   8.702   3.586 -0.3174 -0.0899 -0.3606
  831MOL0     C 9573   0.274   8.684   3.645 -0.9304 -0.3768  0.1428
  831MOL0     C 9574   0.217   8.803   3.725  1.2408  0.3719 -0.5328
  831MOL0     C 9575   0.062   8.798   3.747 -0.4664 -0.6405 -0.8745
  831MOL0     C 9576   0.011   8.932   3.791  0.2547 -0.1184  0.0686
  831MOL0     N 9577  -0.134   8.947   3.821 -0.0284 -0.6938 -0.2133
  831MOL0     C 9578  -0.199   8.938   3.944  0.2875  0.0906 -0.6917
  831MOL0     C 9579  -0.319   9.001   3.935  0.1116 -0.2351  0.0908
  831MOL0     C 9580  -0.412   9.021   4.047 -0.5238  0.7941 -0.4130
  831MOL0     C 9581  -0.562   9.037   4.013 -0.0886 -0.2712 -0.5400
  831MOL0     C 9582  -0.639   9.103   4.136 -0.2043  0.2795  0.2012
  831MOL0     C 9583  -0.767   9.168   4.071 -0.2945  0.2227 -0.4297
  831MOL0     O 9584  -0.863   9.069   4.033 -0.9558  0.0373  0.1541
  831MOL0     C 9585  -0.994   9.103   4.027  0.7367  0.0298 -0.7793
  831MOL0     C 9586  -1.081   8.998   4.042  0.3786 -0.7145 -0.0900
  831MOL0     C 9587  -1.218   9.024   4.047  0.1111  0.4980  0.9689
  831MOL0     C 9588  -1.273   9.150   4.036  0.0994 -0.2379 -0.1637
  831MOL0     C 9589  -1.420   9.172   4.041 -0.7633 -0.4844  1.2565
  831MOL0     O 9590  -1.462   9.291   3.992 -0.2565  0.0025  0.7745
  831MOL0     C 9591  -1.594   9.331   3.993 -0.3861 -0.5267  0.1942
  831MOL0     C 9592  -1.682   9.329   3.882 -0.3257  0.4121 -0.6571
  831MOL0     C 9593  -1.815   9.375   3.891 -0.0362  0.2048  0.3807
  831MOL0     C 9594  -1.866   9.425   4.015 -0.5749  0.4268  0.2572
  831MOL0     O 9595  -1.994   9.470   4.036  0.1283 -0.2954  0.4563
  831MOL0     C 9596  -2.095   9.430   3.947  0.0449 -0.2132 -0.1320
  831MOL0     C 9597  -2.229   9.453   4.007 -0.4412  0.7124  0.7290
  831MOL0     C 9598  -2.264   9.360   4.121  0.3030 -0.3981 -0.1892
  831MOL0     C 9599  -2.297   9.211   4.090 -0.2711 -0.1529  0.0215
  831MOL0     C 9600  -2.371   9.148   4.216  0.3277 -0.0008 -0.4852
  831MOL0     C 9601  -2.497   9.063   4.168  0.7410 -0.2712 -0.2359
  831MOL0     C 9602  -2.526   8.944   4.256  0.0857 -0.3549  0.0661
  831MOL0     C 9603  -2.663   8.880   4.231 -1.2123  0.3135 -0.2197
  831MOL0    Cl 9604  -2.669   8.829   4.054  0.0482  0.1498 -0.2928
  831MOL0     C 9605  -1.784   9.417   4.125  0.6184  0.0874  0.1557
  831MOL0     C 9606  -1.646   9.374   4.116 -0.4234 -0.3484  0.6860
  831MOL0     O 9607  -1.492   9.088   4.099  0.7719 -0.6213  0.5051
  831MOL0     C 9608  -1.182   9.259   4.020 -0.2954  0.1087 -0.2082
  831MOL0     C 9609  -1.049   9.233   4.011  0.3791  0.2049  0.3402
  831MOL0     N 9610  -0.332   9.041   3.802 -0.3497 -0.3372 -1.8418
  831MOL0     N 9611  -0.220   9.012   3.738  0.5104 -0.0454 -0.0658
  831MOL0     C 9612   0.875   8.918   3.946  0.2535 -0.1410 -0.8824
  831MOL0     C 9613   0.979   8.969   4.027  0.4701  0.4879 -0.2144
  831MOL0     C 9614   1.362   9.229   4.078 -0.6103  0.1213  0.1082
  831MOL0     C 9615   1.466   9.294   4.006 -0.4380  0.1500  0.2793
  831MOL0     C 9616   1.539   9.397   4.063  0.2912 -0.0892 -0.5605
  831MOL0     C 9617   1.516   9.444   4.188 -0.3328 -0.8800 -0.1270
  831MOL0     O 9618   1.588   9.557   4.224 -0.1932  0.3562  0.2830
  831MOL0     C 9619   1.600   9.576   4.364 -0.7949 -0.8847 -0.5719
  831MOL0     C 9620   1.667   9.710   4.376 -0.4116 -0.5806  0.1745
  831MOL0     C 9621   1.721   9.746   4.512  0.8442 -0.4802 -0.5894
  831MOL0     C 9622   1.833   9.842   4.513 -0.4537 -0.7866 -0.2651
  831MOL0     C 9623   1.787   9.980   4.494 -0.4613 -0.7665 -0.8139
  831MOL0     C 9624   1.746  10.087   4.453  0.8045  0.6900  1.1919
  831MOL0     C 9625   1.409   9.379   4.269 -0.0088  0.1619  0.5798
  831MOL0     C 9626   1.332   9.276   4.207 -0.1887  1.1825  0.1813
  831MOL0     H 9627   1.091   9.201   3.796 -0.4409 -0.4530 -0.0206
  831MOL0     H 9628   0.927   9.076   3.661  0.0433 -2.6384  0.1722
  831MOL0     H 9629   0.755   8.719   3.807  0.2285 -1.4743 -0.8774
  831MOL0     H 9630   0.858   8.747   3.668  1.0750  3.8912 -0.5353
  831MOL0     H 9631   0.674   8.630   3.607 -0.1926  0.6698 -0.7907
  831MOL0     H 9632   0.649   8.791   3.536 -0.1098  2.1267  1.2270
  831MOL0     H 9633   0.512   8.839   3.735 -1.3941 -0.0461 -0.0730
  831MOL0     H 9634   0.533   8.667   3.780  1.8124  0.0710  0.5757
  831MOL0     H 9635   0.401   8.777   3.506  0.2119 -1.1737 -1.4754
  831MOL0     H 9636   0.446   8.611   3.535  0.3674 -0.3430  0.5289
  831MOL0     H 9637   0.289   8.602   3.716  1.4658 -0.3212 -0.2173
  831MOL0     H 9638   0.194   8.664   3.572 -1.1421  1.1996 -0.0781
  831MOL0     H 9639   0.235   8.891   3.663 -0.1528  3.6660  3.2853
  831MOL0     H 9640   0.262   8.805   3.825  1.3178  0.0842 -0.5631
  831MOL0     H 9641   0.000   8.752   3.669 -1.9036  0.9379 -0.6975
  831MOL0     H 9642   0.056   8.737   3.838  0.7287  0.8747  0.2830
  831MOL0     H 9643   0.028   8.988   3.699  1.1840  2.1541  1.5438
  831MOL0     H 9644   0.073   8.977   3.869 -0.7475  0.4026  0.5874
  831MOL0     H 9645  -0.159   8.900   4.037 -0.4773  1.0445  0.0531
  831MOL0     H 9646  -0.383   9.103   4.114  1.2177  0.0061 -0.1311
  831MOL0     H 9647  -0.401   8.941   4.121 -2.5346 -1.0708 -2.0093
  831MOL0     H 9648  -0.601   8.941   3.979  2.5250 -1.3097 -0.8196
  831MOL0     H 9649  -0.570   9.104   3.927  1.2369 -0.4550 -0.8240
  831MOL0     H 9650  -0.672   9.025   4.206 -0.6438  1.5776  1.4982
  831MOL0     H 9651  -0.590   9.182   4.193  0.6212 -1.4222  1.9981
  831MOL0     H 9652  -0.749   9.236   3.987  3.5526 -1.0516 -0.8363
  831MOL0     H 9653  -0.799   9.229   4.155 -4.5489 -1.9259 -0.2011
  831MOL0     H 9654  -1.050   8.895   4.052  0.3136 -0.9401 -1.8070
  831MOL0     H 9655  -1.287   8.940   4.057  1.1121 -0.7305 -1.4867
  831MOL0     H 9656  -1.634   9.295   3.792 -0.9379 -0.5467 -0.6351
  831MOL0     H 9657  -1.875   9.372   3.801  1.1639 -2.5299 -0.4313
  831MOL0     H 9658  -2.087   9.325   3.916 -0.5012  0.3392 -2.3111
  831MOL0     H 9659  -2.086   9.486   3.853 -1.6431 -1.8172 -1.3433
  831MOL0     H 9660  -2.298   9.454   3.922  0.2967 -0.7408  0.0808
  831MOL0     H 9661  -2.227   9.557   4.042  3.1771  1.0942 -0.1858
  831MOL0     H 9662  -2.355   9.407   4.160  0.4205  0.2074 -0.6459
  831MOL0     H 9663  -2.191   9.380   4.200 -0.9312 -0.2143  0.9460
  831MOL0     H 9664  -2.368   9.194   4.009 -1.0808 -3.9140  1.3308
  831MOL0     H 9665  -2.206   9.162   4.055 -0.6772 -0.5823 -0.4453
  831MOL0     H 9666  -2.409   9.225   4.283 -1.7687 -0.8057 -0.6742
  831MOL0     H 9667  -2.292   9.093   4.270 -1.3858 -0.2301  1.9463
  831MOL0     H 9668  -2.481   9.012   4.072 -3.7864 -2.7252  0.0707
  831MOL0     H 9669  -2.591   9.118   4.173  0.7895 -0.3198  1.8713
  831MOL0     H 9670  -2.449   8.869   4.237  3.3810  2.7737 -0.1475
  831MOL0     H 9671  -2.526   8.971   4.362  3.3405 -3.0628  0.9343
  831MOL0     H 9672  -2.744   8.949   4.256 -1.8658 -0.2444 -0.7676
  831MOL0     H 9673  -2.680   8.795   4.297  1.4169 -2.3889 -2.7387
  831MOL0     H 9674  -1.810   9.445   4.227  0.3168  0.9579 -0.1586
  831MOL0     H 9675  -1.585   9.359   4.204 -0.1529 -0.1863  0.5277
  831MOL0     H 9676  -1.221   9.361   4.016 -0.5845  0.0753  1.4193
  831MOL0     H 9677  -0.990   9.324   4.000  1.6015 -0.6628 -0.4428
  831MOL0     H 9678   0.822   8.832   3.985  4.0895 -2.2234  0.2193
  831MOL0     H 9679   0.988   8.931   4.128 -0.3552 -0.2247 -0.3985
  831MOL0     H 9680   1.479   9.279   3.900  0.5635  0.1091  0.3958
  831MOL0     H 9681   1.610   9.450   4.001  1.5485  1.5580  2.1070
  831MOL0     H 9682   1.666   9.499   4.405 -0.3437  0.4637  1.3685
  831MOL0     H 9683   1.511   9.563   4.426  0.9437 -1.3856  1.9680
  831MOL0     H 9684   1.753   9.707   4.309 -0.5656 -0.9448 -0.0119
  831MOL0     H 9685   1.595   9.786   4.344 -1.9762 -1.8741  0.4453
  831MOL0     H 9686   1.744   9.650   4.559 -1.0705  0.0505  1.6085
  831MOL0     H 9687   1.640   9.773   4.580  2.1414 -0.9220  1.1985
  831MOL0     H 9688   1.872   9.842   4.615 -0.0390 -0.1393 -0.4211
  831MOL0     H 9689   1.917   9.809   4.452 -0.8421 -3.0289  0.2965
  831MOL0     H 9690   1.714  10.183   4.418 -1.6714  0.3681  2.3389
  831MOL0     H 9691   1.381   9.406   4.370  2.0926  0.4962  1.1300
  831MOL0     H 9692   1.250   9.225   4.256 -0.0649 -1.0691 -1.7642
  832MOL0     O 9693  11.180   9.389   1.577 -0.2919 -1.2445 -0.1534
  832MOL0     C 9694  11.178   9.441   1.689 -0.1967  0.4786 -0.0146
  832MOL0     O 9695  11.071   9.434   1.777  0.2668 -0.6567 -0.2587
  832MOL0     C 9696  10.944   9.394   1.730  0.5594 -0.1833 -0.1798
  832MOL0     C 9697  10.921   9.255   1.717 -0.0332 -0.1951  0.4188
  832MOL0     C 9698  10.791   9.201   1.690  0.2791  0.0834 -0.4852
  832MOL0     C 9699  10.687   9.293   1.685  0.0592 -0.6042 -0.7436
  832MOL0     O 9700  10.565   9.266   1.629  0.1425  0.5864 -0.2394
  832MOL0     C 9701  10.473   9.195   1.723 -0.1883 -0.6951 -0.0694
  832MOL0     C 9702  10.449   9.041   1.698 -0.2739 -0.7208 -0.0725
  832MOL0     C 9703  10.329   8.981   1.775  0.2993 -0.9223 -0.4708
  832MOL0     C 9704  10.192   8.993   1.700 -0.1228  0.0611  0.1495
  832MOL0     C 9705  10.090   8.900   1.751  0.4189  0.0575  0.6491
  832MOL0     C 9706  10.002   8.856   1.635 -0.4413 -0.2673 -0.5344
  832MOL0     C 9707   9.907   8.958   1.573  0.4737 -0.5298  0.6029
  832MOL0     C 9708   9.817   8.904   1.465  0.5787  0.0809 -0.0646
  832MOL0     N 9709   9.702   8.818   1.507 -0.2356 -0.1502  0.3645
  832MOL0     C 9710   9.646   8.820   1.632 -0.2960  0.1548  0.5470
  832MOL0     C 9711   9.519   8.762   1.618  0.2195 -0.0849 -1.1512
  832MOL0     C 9712   9.409   8.771   1.719 -0.4116 -0.0641  0.7896
  832MOL0     C 9713   9.305   8.886   1.692  1.0765  0.3420 -0.2516
  832MOL0     C 9714   9.199   8.880   1.803  0.1039 -0.1731 -0.0810
  832MOL0     C 9715   9.064   8.941   1.749 -0.6805  0.2938  0.8339
  832MOL0     O 9716   9.002   8.855   1.648 -0.0794 -0.6005 -0.3735
  832MOL0     C 9717   8.865   8.864   1.624  0.1894  0.3146 -0.0043
  832MOL0     C 9718   8.764   8.942   1.686  0.4034 -0.2024  0.7879
  832MOL0     C 9719   8.629   8.940   1.643  0.2001  0.1904  0.0643
  832MOL0     C 9720   8.592   8.852   1.533  0.4505 -0.4614  0.4256
  832MOL0     C 9721   8.452   8.847   1.479 -0.0421  0.1700  0.7479
  832MOL0     O 9722   8.358   8.881   1.560 -0.2222 -0.8068 -0.5667
  832MOL0     C 9723   8.222   8.856   1.526  0.4923  0.2509  0.7127
  832MOL0     C 9724   8.137   8.965   1.513 -0.3299 -0.4788  0.1395
  832MOL0     C 9725   8.018   8.945   1.455 -0.6468 -0.4914 -0.5852
  832MOL0     C 9726   7.968   8.816   1.440  0.5679  0.0928 -0.1657
  832MOL0     O 9727   7.843   8.795   1.380  0.1035  0.1174 -0.6065
  832MOL0     C 9728   7.731   8.830   1.468 -0.7945  0.3754  0.2886
  832MOL0     C 9729   7.618   8.846   1.369  0.3567 -0.5709  0.3511
  832MOL0     C 9730   7.476   8.885   1.424 -0.1857  0.0487  0.0120
  832MOL0     C 9731   7.371   8.844   1.316  0.7864 -0.5225  0.5643
  832MOL0     C 9732   7.226   8.885   1.366 -1.2474 -0.2610  0.6356
  832MOL0     C 9733   7.131   8.818   1.274  0.2105 -0.0970  0.3642
  832MOL0     C 9734   7.002   8.896   1.278  0.6463  0.1512 -0.2464
  832MOL0     C 9735   6.892   8.819   1.201 -0.2951 -0.4503  0.4443
  832MOL0    Cl 9736   6.928   8.793   1.026 -0.4471  0.5273  0.2005
  832MOL0     C 9737   8.052   8.705   1.459 -0.3565  0.2928  0.6747
  832MOL0     C 9738   8.180   8.725   1.505 -0.2425  0.0882  0.0089
  832MOL0     O 9739   8.439   8.821   1.358 -0.1145  0.5311  0.1960
  832MOL0     C 9740   8.687   8.769   1.480 -0.1958  0.2404  0.7341
  832MOL0     C 9741   8.822   8.779   1.517  0.0694 -0.3625  0.4817
  832MOL0     N 9742   9.504   8.721   1.487  0.1661 -0.3393  0.1491
  832MOL0     N 9743   9.605   8.769   1.425  0.6150  0.2634  0.0162
  832MOL0     C 9744  10.709   9.431   1.699  0.0463 -0.5198  0.3804
  832MOL0     C 9745  10.837   9.485   1.732 -0.3329  0.0373 -0.0805
  832MOL0     C 9746  11.298   9.514   1.736 -0.8493 -0.2243  0.1817
  832MOL0     C 9747  11.406   9.538   1.646 -0.1904 -0.3558  0.4579
  832MOL0     C 9748  11.513   9.625   1.687  0.0790  0.8507 -0.1598
  832MOL0     C 9749  11.522   9.675   1.822  0.0512  0.0204 -0.6090
  832MOL0     O 9750  11.640   9.742   1.863  0.2058  0.6907 -0.5304
  832MOL0     C 9751  11.671   9.749   2.003  0.2709 -0.3625  0.1634
  832MOL0     C 9752  11.725   9.619   2.060 -0.0709  0.2152 -0.2424
  832MOL0     C 9753  11.853   9.570   1.984 -1.2974 -0.5788  0.1781
  832MOL0     C 9754  11.902   9.439   2.038  0.4883 -0.1961 -0.1781
  832MOL0     C 9755  12.046   9.417   2.010  0.0058 -0.3003 -0.1682
  832MOL0     C 9756  12.163   9.395   2.002  0.3545 -0.1454  0.2781
  832MOL0     C 9757  11.426   9.636   1.909  0.8572  0.0615 -0.1233
  832MOL0     C 9758  11.312   9.563   1.866 -0.4004 -0.5582  0.1732
  832MOL0     H 9759  11.018   9.206   1.722  1.2330  2.1304 -0.1837
  832MOL0     H 9760  10.784   9.098   1.656  0.6298  0.6606 -2.4655
  832MOL0     H 9761  10.375   9.244   1.724 -1.2450 -2.6446  2.2153
  832MOL0     H 9762  10.503   9.204   1.828  2.1441 -3.8130 -0.3315
  832MOL0     H 9763  10.539   8.989   1.729 -1.0283 -1.2006  1.4450
  832MOL0     H 9764  10.435   9.024   1.591  0.5817  0.0875 -0.3208
  832MOL0     H 9765  10.325   9.034   1.870  0.7496 -1.6288 -0.0541
  832MOL0     H 9766  10.354   8.876   1.790 -2.5600 -1.4630  1.3372
  832MOL0     H 9767  10.159   9.097   1.693  0.8542  0.3224 -0.8542
  832MOL0     H 9768  10.214   8.967   1.596 -3.0143 -0.8830 -0.3418
  832MOL0     H 9769  10.036   8.946   1.834  0.7136  1.1274  0.2677
  832MOL0     H 9770  10.143   8.808   1.778  0.2004 -0.6251 -1.1000
  832MOL0     H 9771   9.955   8.764   1.670  1.4516  0.0060  3.1947
  832MOL0     H 9772  10.066   8.811   1.558 -0.9645 -1.8149 -0.1058
  832MOL0     H 9773   9.846   9.008   1.650  1.8844 -0.7540  1.8991
  832MOL0     H 9774   9.962   9.040   1.526 -0.1690  0.6199  1.7908
  832MOL0     H 9775   9.881   8.846   1.398 -0.4594 -0.4241 -0.6319
  832MOL0     H 9776   9.775   8.988   1.409  1.4873  3.0060  3.2690
  832MOL0     H 9777   9.688   8.876   1.715 -1.6927  0.1782  1.2811
  832MOL0     H 9778   9.458   8.781   1.817  1.8674  0.2379 -0.3110
  832MOL0     H 9779   9.370   8.669   1.732  0.2656 -0.4333  0.0173
  832MOL0     H 9780   9.270   8.878   1.588  0.6786  0.2904 -0.1146
  832MOL0     H 9781   9.358   8.982   1.693  1.0101  0.3772  0.5938
  832MOL0     H 9782   9.180   8.775   1.827 -1.1565 -0.2690 -1.3969
  832MOL0     H 9783   9.239   8.923   1.895  1.0324 -0.3719 -0.3720
  832MOL0     H 9784   9.080   9.046   1.722  0.5801  0.6328  2.7588
  832MOL0     H 9785   8.996   8.944   1.834  1.9765  1.7317  3.0757
  832MOL0     H 9786   8.790   9.003   1.772  1.2424 -0.5431  0.7790
  832MOL0     H 9787   8.564   9.000   1.706  0.1598 -0.2675  0.4623
  832MOL0     H 9788   8.183   9.058   1.544  0.8060 -1.2661  0.9111
  832MOL0     H 9789   7.949   9.021   1.420 -1.4472 -1.6126 -1.5312
  832MOL0     H 9790   7.732   8.926   1.521  0.1911  1.6795 -1.9037
  832MOL0     H 9791   7.728   8.748   1.539 -0.1018 -0.5432 -0.7073
  832MOL0     H 9792   7.600   8.749   1.323 -0.9804 -0.1651 -0.0232
  832MOL0     H 9793   7.642   8.925   1.296 -0.7785 -0.4431  0.0986
  832MOL0     H 9794   7.466   8.991   1.450 -1.6329 -0.0877  0.1034
  832MOL0     H 9795   7.457   8.837   1.520  1.0406 -1.4527 -0.4601
  832MOL0     H 9796   7.396   8.896   1.223  1.2107  0.6089  1.2893
  832MOL0     H 9797   7.376   8.737   1.294  1.6837 -0.1527 -1.1647
  832MOL0     H 9798   7.218   8.994   1.363  0.7104 -0.0752 -2.0449
  832MOL0     H 9799   7.219   8.848   1.468  0.6606 -0.8384  0.5984
  832MOL0     H 9800   7.108   8.716   1.305 -1.5289 -0.0012 -0.4989
  832MOL0     H 9801   7.170   8.818   1.171  1.5418 -0.5365  0.8401
  832MOL0     H 9802   6.965   8.911   1.380  0.2923  0.6810 -0.4461
  832MOL0     H 9803   7.015   8.996   1.234 -2.4751  0.8171  0.0615
  832MOL0     H 9804   6.798   8.876   1.197  0.7684  1.4537  1.1902
  832MOL0     H 9805   6.888   8.721   1.248  1.9021 -1.5617 -1.5046
  832MOL0     H 9806   8.005   8.612   1.431  2.7078 -1.0808 -0.2689
  832MOL0     H 9807   8.253   8.647   1.523 -0.8974 -0.2408  1.3295
  832MOL0     H 9808   8.664   8.700   1.400  2.1495  0.9114 -0.5971
  832MOL0     H 9809   8.888   8.715   1.459 -1.6391 -2.1048  0.3260
  832MOL0     H 9810  10.625   9.499   1.691 -1.8791 -3.0284 -3.6069
  832MOL0     H 9811  10.835   9.589   1.765 -1.6245 -0.5862  1.9639
  832MOL0     H 9812  11.396   9.504   1.543 -0.2683 -0.4566  0.4986
  832MOL0     H 9813  11.590   9.648   1.614 -1.3068 -1.0942 -2.3797
  832MOL0     H 9814  11.580   9.776   2.057 -0.4813 -2.7941  0.2155
  832MOL0     H 9815  11.744   9.825   2.034 -0.1076 -0.5209  1.5025
  832MOL0     H 9816  11.766   9.640   2.160  0.6467 -0.6818 -0.3305
  832MOL0     H 9817  11.644   9.546   2.062 -1.0061  1.2307 -0.1210
  832MOL0     H 9818  11.932   9.645   1.994 -1.0122 -0.5853 -1.6086
  832MOL0     H 9819  11.818   9.558   1.881 -1.1133  0.0292  0.0409
  832MOL0     H 9820  11.895   9.439   2.147 -0.2830 -0.8574 -0.2148
  832MOL0     H 9821  11.840   9.359   1.996 -0.1490 -1.0025  2.1833
  832MOL0     H 9822  12.267   9.375   2.012 -0.2717 -2.9788  2.2636
  832MOL0     H 9823  11.421   9.662   2.014 -1.6986 -0.9282  0.0807
  832MOL0     H 9824  11.236   9.536   1.939 -0.7675 -0.5523 -0.2007
  833MOL0     O 9825   0.448   2.436  11.143 -0.7582 -0.4385  0.0075
  833MOL0     C 9826   0.465   2.527  11.060  0.8415 -0.4761 -0.3959
  833MOL0     O 9827   0.366   2.593  10.997 -0.3401 -0.2590 -0.8540
  833MOL0     C 9828   0.231   2.563  11.005 -0.9810 -0.1975  0.1185
  833MOL0     C 9829   0.136   2.663  11.022 -0.4375 -0.1053  0.0182
  833MOL0     C 9830  -0.001   2.622  11.014  0.2191 -0.6031 -0.1186
  833MOL0     C 9831  -0.042   2.498  10.979 -0.5905  0.2702  0.0956
  833MOL0     O 9832  -0.178   2.476  10.974 -0.2373  0.2905 -0.4928
  833MOL0     C 9833  -0.259   2.564  10.895  0.4212  0.4011 -0.4185
  833MOL0     C 9834  -0.394   2.495  10.864  0.9757  0.1434  0.3687
  833MOL0     C 9835  -0.506   2.594  10.813 -0.4520 -0.7632 -0.4719
  833MOL0     C 9836  -0.503   2.617  10.666  0.1765  0.0489  0.3534
  833MOL0     C 9837  -0.611   2.705  10.601  0.3412  0.5753  0.7318
  833MOL0     C 9838  -0.742   2.611  10.582  0.2855 -0.1864 -0.4099
  833MOL0     C 9839  -0.851   2.697  10.526  0.4531  0.2081  0.5214
  833MOL0     C 9840  -0.962   2.608  10.462  0.8137  1.6299  0.1361
  833MOL0     N 9841  -1.095   2.676  10.457 -0.6661 -0.4361  0.0922
  833MOL0     C 9842  -1.119   2.795  10.393 -0.2240 -0.0923 -1.2270
  833MOL0     C 9843  -1.252   2.811  10.428  0.3475 -0.0090  0.4408
  833MOL0     C 9844  -1.336   2.937  10.414  0.4129 -0.6973 -0.2462
  833MOL0     C 9845  -1.376   2.946  10.264  0.5821  0.1877  0.2146
  833MOL0     C 9846  -1.495   2.854  10.222 -0.6744 -0.3318  0.0692
  833MOL0     C 9847  -1.637   2.886  10.270 -1.3688 -0.1761 -0.3866
  833MOL0     O 9848  -1.656   2.851  10.410  0.1702  0.2814 -0.1802
  833MOL0     C 9849  -1.782   2.829  10.459  0.7551  0.4552  0.6052
  833MOL0     C 9850  -1.812   2.719  10.536 -0.0093 -0.6358 -0.9757
  833MOL0     C 9851  -1.938   2.687  10.584  0.3259 -0.5953  0.6304
  833MOL0     C 9852  -2.043   2.770  10.537 -0.4804 -0.0468  0.5489
  833MOL0     C 9853  -2.180   2.746  10.580  0.3279 -0.2908 -0.1260
  833MOL0     O 9854  -2.285   2.831  10.539  0.3180  0.2494  0.5897
  833MOL0     C 9855  -2.411   2.821  10.593 -0.1506 -0.0731  0.6035
  833MOL0     C 9856  -2.488   2.927  10.646 -0.5208  0.0358  0.4638
  833MOL0     C 9857  -2.621   2.898  10.692 -0.0800 -0.5265  0.5076
  833MOL0     C 9858  -2.691   2.773  10.680  0.7537  0.1859  0.5374
  833MOL0     O 9859  -2.823   2.748  10.708  0.1682 -1.0723 -0.5697
  833MOL0     C 9860  -2.856   2.810  10.837 -0.7290 -0.0128 -0.2447
  833MOL0     C 9861  -2.963   2.736  10.900  0.6967  0.5347 -0.7550
  833MOL0     C 9862  -3.098   2.765  10.828  0.5291 -0.4483  0.1308
  833MOL0     C 9863  -3.191   2.658  10.848  0.5776  0.1148 -0.0500
  833MOL0     C 9864  -3.337   2.689  10.809  0.0598 -0.5273 -0.5518
  833MOL0     C 9865  -3.447   2.577  10.822 -0.1865  0.4163  0.2273
  833MOL0     C 9866  -3.588   2.635  10.811 -0.5991 -0.4921 -0.0801
  833MOL0     C 9867  -3.685   2.522  10.827  0.6095  0.2809 -0.6162
  833MOL0    Cl 9868  -3.660   2.410  10.683 -0.1004  0.3534 -0.4730
  833MOL0     C 9869  -2.613   2.674  10.624 -0.0643  0.2899 -0.0036
  833MOL0     C 9870  -2.472   2.692  10.589 -0.0010 -0.3528 -0.0279
  833MOL0     O 9871  -2.198   2.645  10.647 -0.1401  1.0388 -0.2785
  833MOL0     C 9872  -2.018   2.879  10.452  0.7782 -0.4880  0.0798
  833MOL0     C 9873  -1.887   2.897  10.410  0.3351  0.2479  0.0762
  833MOL0     N 9874  -1.307   2.700  10.478 -0.1679  0.0630 -0.2706
  833MOL0     N 9875  -1.210   2.619  10.494  0.5700 -0.1804 -0.9167
  833MOL0     C 9876   0.053   2.395  10.985 -0.4777  0.6140  0.4709
  833MOL0     C 9877   0.190   2.427  10.987 -0.3377  0.0229 -0.3379
  833MOL0     C 9878   0.601   2.580  11.045  0.2639 -0.7441 -0.8974
  833MOL0     C 9879   0.703   2.522  11.123  0.5723 -0.0100  0.0482
  833MOL0     C 9880   0.834   2.559  11.099 -0.3603  0.0277  0.7307
  833MOL0     C 9881   0.870   2.664  11.017  0.0367 -0.3489 -0.0440
  833MOL0     O 9882   1.004   2.674  10.978  0.1131 -1.0355 -0.3240
  833MOL0     C 9883   1.056   2.809  10.947 -0.1706 -0.3690  0.7303
  833MOL0     C 9884   1.053   2.903  11.072  0.4612  0.4056  0.0756
  833MOL0     C 9885   1.125   2.839  11.193  0.2857 -1.2460 -0.3669
  833MOL0     C 9886   1.129   2.932  11.320 -0.3070  0.0760  0.3271
  833MOL0     C 9887   1.197   3.059  11.296 -0.4786 -1.2870  0.5274
  833MOL0     C 9888   1.249   3.170  11.287  0.0977  0.6924 -0.1626
  833MOL0     C 9889   0.767   2.728  10.949  0.0104 -0.4482  0.2789
  833MOL0     C 9890   0.628   2.692  10.962 -0.8036  0.2413 -0.4223
  833MOL0     H 9891   0.159   2.769  11.029 -0.6814 -0.1065  1.0707
  833MOL0     H 9892  -0.074   2.697  11.042 -0.3196 -0.7655 -1.0513
  833MOL0     H 9893  -0.210   2.591  10.801 -1.8460  0.5241 -1.6413
  833MOL0     H 9894  -0.281   2.656  10.950 -1.3487 -1.3247  1.9888
  833MOL0     H 9895  -0.428   2.445  10.956  0.2063  2.1341  1.2144
  833MOL0     H 9896  -0.386   2.419  10.785 -2.0707 -2.0434  1.9457
  833MOL0     H 9897  -0.484   2.693  10.854  0.1191  0.6934 -3.9748
  833MOL0     H 9898  -0.606   2.566  10.848 -0.3700  0.8152  1.1287
  833MOL0     H 9899  -0.408   2.666  10.642 -1.2886  1.3150 -4.0148
  833MOL0     H 9900  -0.512   2.523  10.611 -1.1164  0.1886  0.2969
  833MOL0     H 9901  -0.578   2.738  10.502 -2.0330 -0.7623 -0.5941
  833MOL0     H 9902  -0.627   2.784  10.674  2.2622  0.2047  1.6328
  833MOL0     H 9903  -0.771   2.581  10.683  1.6994  1.0689  0.4317
  833MOL0     H 9904  -0.722   2.526  10.517  0.5730  1.1328 -2.1222
  833MOL0     H 9905  -0.887   2.769  10.600  2.0487  1.9398 -0.2993
  833MOL0     H 9906  -0.807   2.758  10.447  0.8655 -0.0881  0.5132
  833MOL0     H 9907  -0.966   2.517  10.522  1.8037  1.5058  0.0290
  833MOL0     H 9908  -0.918   2.581  10.366  3.5056  1.9106  1.1763
  833MOL0     H 9909  -1.044   2.850  10.336 -0.2239 -0.4426 -1.5667
  833MOL0     H 9910  -1.273   3.023  10.439  1.3593 -2.1338  2.7975
  833MOL0     H 9911  -1.416   2.945  10.488  1.0777 -2.4167  0.7014
  833MOL0     H 9912  -1.286   2.920  10.208  1.2283 -0.0738  1.3643
  833MOL0     H 9913  -1.397   3.049  10.234  0.1163  0.5647  1.7595
  833MOL0     H 9914  -1.498   2.865  10.113  2.8207  0.9615 -0.0201
  833MOL0     H 9915  -1.476   2.747  10.236 -1.4916 -1.3687 -4.8533
  833MOL0     H 9916  -1.703   2.815  10.218  0.5012 -1.9015 -0.5529
  833MOL0     H 9917  -1.674   2.986  10.248 -2.3992 -0.2124  0.9981
  833MOL0     H 9918  -1.726   2.667  10.575  1.7517  0.4765 -3.1315
  833MOL0     H 9919  -1.948   2.614  10.663 -0.6350  0.3704  1.4098
  833MOL0     H 9920  -2.458   3.032  10.652  0.2771  0.0053 -1.8279
  833MOL0     H 9921  -2.678   2.972  10.747  1.5073 -0.0451  1.5855
  833MOL0     H 9922  -2.884   2.915  10.834 -0.9241 -0.0480  0.3217
  833MOL0     H 9923  -2.765   2.788  10.893  0.3475  1.5109 -1.3183
  833MOL0     H 9924  -2.967   2.757  11.008  0.4216 -2.0825 -0.1913
  833MOL0     H 9925  -2.938   2.630  10.890  1.7242  0.3139  2.6993
  833MOL0     H 9926  -3.076   2.769  10.721  1.0744 -0.2733  0.2459
  833MOL0     H 9927  -3.146   2.854  10.868  1.5580  0.4730 -0.6273
  833MOL0     H 9928  -3.156   2.566  10.800  2.9037  0.3591  1.0627
  833MOL0     H 9929  -3.194   2.628  10.953  0.3687 -0.2818 -0.1659
  833MOL0     H 9930  -3.332   2.714  10.703  1.1704  0.1455 -0.3491
  833MOL0     H 9931  -3.377   2.772  10.868 -1.4821 -0.0557 -2.1818
  833MOL0     H 9932  -3.441   2.520  10.915  1.6040 -0.8004 -0.5677
  833MOL0     H 9933  -3.425   2.515  10.735  0.9924 -0.4671  1.1179
  833MOL0     H 9934  -3.603   2.701  10.897 -0.1439  0.1378 -0.4725
  833MOL0     H 9935  -3.598   2.683  10.713  2.7722 -0.9843 -0.7712
  833MOL0     H 9936  -3.785   2.566  10.827 -0.3137 -1.7267 -0.6292
  833MOL0     H 9937  -3.665   2.479  10.926  2.1211 -3.8267 -2.4840
  833MOL0     H 9938  -2.658   2.576  10.613 -1.4498  1.1346 -2.6710
  833MOL0     H 9939  -2.423   2.607  10.541 -1.1697 -0.0867 -1.7609
  833MOL0     H 9940  -2.101   2.944  10.427  1.5016  2.2009  3.8710
  833MOL0     H 9941  -1.865   2.983  10.347 -1.5397  0.7535  0.0309
  833MOL0     H 9942   0.023   2.291  10.972 -2.5803  1.2889 -0.5069
  833MOL0     H 9943   0.261   2.346  10.973  0.2186  0.4338  0.0612
  833MOL0     H 9944   0.691   2.435  11.186  1.4071 -0.7865 -0.8180
  833MOL0     H 9945   0.919   2.503  11.137  0.4512 -0.1316 -1.1992
  833MOL0     H 9946   1.015   2.857  10.858  2.0429  0.3320  0.0386
  833MOL0     H 9947   1.163   2.790  10.933  0.1162 -0.0944  2.3200
  833MOL0     H 9948   1.104   2.997  11.047 -0.9171  1.9037  2.4793
  833MOL0     H 9949   0.949   2.924  11.100  0.8588  2.3678  0.2284
  833MOL0     H 9950   1.231   2.819  11.173  0.9809  2.3993 -1.1265
  833MOL0     H 9951   1.076   2.745  11.218  2.7374 -2.0043  2.0455
  833MOL0     H 9952   1.026   2.958  11.348  0.7194  1.7142  2.9320
  833MOL0     H 9953   1.177   2.879  11.402  0.1305 -1.4910 -0.9024
  833MOL0     H 9954   1.305   3.261  11.282 -0.6291  1.1425 -0.2250
  833MOL0     H 9955   0.794   2.805  10.877 -4.6504  1.2674  0.0044
  833MOL0     H 9956   0.557   2.744  10.899  0.3936 -0.3431 -2.3292
  834MOL0     O 9957   0.405  10.480   5.628 -0.1775 -0.4870  0.0709
  834MOL0     C 9958   0.393  10.432   5.519 -0.0589  0.6422 -0.2716
  834MOL0     O 9959   0.282  10.357   5.477  0.3479  0.3849 -0.3325
  834MOL0     C 9960   0.151  10.395   5.497  1.5319 -0.2499  0.1296
  834MOL0     C 9961   0.111  10.480   5.601  0.2243  0.6807 -0.8622
  834MOL0     C 9962  -0.024  10.503   5.620 -0.9157  0.4175  1.0508
  834MOL0     C 9963  -0.125  10.464   5.532  0.1971 -0.7963 -0.3330
  834MOL0     O 9964  -0.261  10.481   5.533 -0.1549 -0.6170 -0.5014
  834MOL0     C 9965  -0.309  10.581   5.628 -0.1678  0.4516 -0.3448
  834MOL0     C 9966  -0.453  10.619   5.583 -0.2891  0.1201 -0.1870
  834MOL0     C 9967  -0.518  10.711   5.686 -0.5407 -0.1953  0.1215
  834MOL0     C 9968  -0.665  10.712   5.665 -0.2793 -1.0163  0.0123
  834MOL0     C 9969  -0.756  10.790   5.761 -0.3648  0.3499  0.9370
  834MOL0     C 9970  -0.715  10.939   5.782  0.1141  0.0736 -0.6352
  834MOL0     C 9971  -0.814  11.010   5.868  0.8000 -0.2646 -0.4115
  834MOL0     C 9972  -0.939  11.072   5.794  0.9883 -0.4511  0.0559
  834MOL0     N 9973  -1.050  10.981   5.755  0.3257  0.2445  1.0097
  834MOL0     C 9974  -1.134  10.916   5.841  0.3435 -1.0606 -0.4485
  834MOL0     C 9975  -1.207  10.829   5.758 -0.8665  0.4146 -0.4733
  834MOL0     C 9976  -1.308  10.730   5.799 -0.0937 -0.1461  0.2734
  834MOL0     C 9977  -1.439  10.740   5.709  0.4797 -0.1743  0.0146
  834MOL0     C 9978  -1.530  10.621   5.731  0.4836  0.1540  0.0618
  834MOL0     C 9979  -1.668  10.645   5.660  0.1810  0.5530 -0.5136
  834MOL0     O 9980  -1.760  10.549   5.713  1.2416 -0.1124  0.0436
  834MOL0     C 9981  -1.884  10.567   5.671 -0.1279 -0.4583  0.1715
  834MOL0     C 9982  -1.973  10.481   5.741 -0.7744  0.0251  0.5651
  834MOL0     C 9983  -2.107  10.465   5.719  0.4934 -0.3798 -0.5663
  834MOL0     C 9984  -2.157  10.549   5.620  0.2428  0.3153 -0.4382
  834MOL0     C 9985  -2.306  10.550   5.603 -1.0421 -0.9599  0.4271
  834MOL0     O 9986  -2.375  10.477   5.692 -0.6551  0.7843  0.2946
  834MOL0     C 9987  -2.502  10.454   5.662  0.0810  0.0151  0.0066
  834MOL0     C 9988  -2.598  10.535   5.719  0.0868  0.7818 -0.9797
  834MOL0     C 9989  -2.733  10.517   5.687  0.0353 -0.8966  0.1130
  834MOL0     C 9990  -2.781  10.424   5.586 -0.3320  0.0144 -0.6553
  834MOL0     O 9991  -2.915  10.408   5.548 -0.5403  0.3489  0.0193
  834MOL0     C 9992  -3.016  10.418   5.655  0.3385  0.2384  0.1771
  834MOL0     C 9993  -3.148  10.402   5.589  0.6683  0.6959  0.2780
  834MOL0     C 9994  -3.159  10.253   5.523  0.7004 -0.0653  0.4354
  834MOL0     C 9995  -3.297  10.220   5.465  1.1819 -0.8070 -0.4654
  834MOL0     C 9996  -3.321  10.076   5.419  0.0416  0.1223  0.2107
  834MOL0     C 9997  -3.462  10.067   5.364 -0.2347  0.3233  0.7098
  834MOL0     C 9998  -3.492   9.915   5.338 -0.1404 -0.1175 -1.1060
  834MOL0     C 9999  -3.630   9.888   5.288 -0.0849  0.0968 -0.0503
  834MOL0    Cl10000  -3.665   9.714   5.308 -0.1133 -0.4706  0.1991
  834MOL0     C10001  -2.678  10.341   5.529 -0.6432 -0.1465  1.1478
  834MOL0     C10002  -2.541  10.360   5.557  0.0702  0.7180  0.4528
  834MOL0     O10003  -2.356  10.627   5.516  0.5644 -0.1133  0.0705
  834MOL0     C10004  -2.080  10.639   5.540  0.1453 -0.2024  0.2528
  834MOL0     C10005  -1.940  10.647   5.574  0.0310  0.4118  0.3063
  834MOL0     N10006  -1.163  10.853   5.627  0.5156 -0.2171 -0.0738
  834MOL0     N10007  -1.075  10.939   5.629  0.5610 -1.0146 -0.0432
  834MOL0     C10008  -0.087  10.378   5.427 -0.1832  0.4094  0.3141
  834MOL0     C10009   0.046  10.338   5.415  0.6163 -0.1921 -0.4055
  834MOL0     C10010   0.499  10.451   5.417 -0.0600  0.1558  0.0866
  834MOL0     C10011   0.496  10.373   5.294 -0.5439 -0.5621  0.3971
  834MOL0     C10012   0.593  10.388   5.188 -0.0592  0.3736 -0.3920
  834MOL0     C10013   0.694  10.483   5.212  0.3875 -0.4036  0.1725
  834MOL0     O10014   0.796  10.510   5.124  0.0724 -0.0283  0.2098
  834MOL0     C10015   0.799  10.439   4.997  0.5857 -0.2355  0.0384
  834MOL0     C10016   0.937  10.458   4.938  0.3208  0.3559  0.1419
  834MOL0     C10017   0.965  10.598   4.884  0.4473 -0.2853  0.0389
  834MOL0     C10018   1.110  10.600   4.835  0.2914 -0.5519  0.0680
  834MOL0     C10019   1.139  10.729   4.778 -1.0932 -1.4320 -0.1152
  834MOL0     C10020   1.162  10.836   4.732  0.0026  0.3063  0.5260
  834MOL0     C10021   0.708  10.550   5.333  0.2652  0.2634 -0.9489
  834MOL0     C10022   0.611  10.535   5.429  0.1771  0.1042  0.5621
  834MOL0     H10023   0.168  10.515   5.686 -1.3907 -1.8151  1.4308
  834MOL0     H10024  -0.062  10.563   5.702 -1.4001  0.3283  0.8937
  834MOL0     H10025  -0.241  10.667   5.620  1.5996 -0.9103 -0.4977
  834MOL0     H10026  -0.316  10.549   5.732  1.0789 -0.6818 -0.5769
  834MOL0     H10027  -0.508  10.527   5.566  1.8323 -0.6940 -3.6924
  834MOL0     H10028  -0.453  10.677   5.490  1.6968 -1.1208 -1.0315
  834MOL0     H10029  -0.460  10.803   5.679  0.5805 -0.6264  2.8706
  834MOL0     H10030  -0.510  10.669   5.787 -1.9343  0.0710  0.3688
  834MOL0     H10031  -0.692  10.751   5.566  0.5731  0.6647  0.4199
  834MOL0     H10032  -0.694  10.607   5.655  3.7796 -2.3852  0.7035
  834MOL0     H10033  -0.766  10.740   5.857 -0.7981  2.4185  2.0095
  834MOL0     H10034  -0.855  10.799   5.716 -0.6418  1.1661  1.6966
  834MOL0     H10035  -0.708  10.981   5.681  1.7807  2.1030  0.2527
  834MOL0     H10036  -0.616  10.940   5.830 -0.1605  0.6974 -0.0755
  834MOL0     H10037  -0.855  10.939   5.940  0.4911 -0.2862 -0.6097
  834MOL0     H10038  -0.768  11.079   5.940 -2.0802  0.8601  0.5115
  834MOL0     H10039  -0.897  11.125   5.709  2.3601  0.1256  1.0514
  834MOL0     H10040  -0.995  11.145   5.854 -0.1244 -1.7467  0.6588
  834MOL0     H10041  -1.147  10.944   5.945  0.5807  0.6067 -0.8250
  834MOL0     H10042  -1.345  10.741   5.901  1.2048  0.1901  0.7160
  834MOL0     H10043  -1.267  10.629   5.799  0.5348  0.1077  0.3908
  834MOL0     H10044  -1.424  10.746   5.601  0.9681 -0.2139  0.0810
  834MOL0     H10045  -1.486  10.834   5.740  1.3307 -0.1660  1.3328
  834MOL0     H10046  -1.484  10.531   5.689 -0.7490  0.1807 -1.4146
  834MOL0     H10047  -1.543  10.617   5.839  0.3741  0.5603  0.0661
  834MOL0     H10048  -1.664  10.639   5.551 -2.8282  1.1566 -0.7344
  834MOL0     H10049  -1.700  10.749   5.674  0.1548  0.5421 -0.4907
  834MOL0     H10050  -1.925  10.419   5.815 -0.8854  0.3020  0.8706
  834MOL0     H10051  -2.168  10.399   5.779  1.4993  0.1450  1.1253
  834MOL0     H10052  -2.563  10.606   5.794 -1.0340 -1.1672  1.5136
  834MOL0     H10053  -2.803  10.580   5.740 -2.4417 -2.5318 -1.0047
  834MOL0     H10054  -3.019  10.518   5.699 -3.3082  0.4289 -0.2442
  834MOL0     H10055  -2.995  10.340   5.729 -2.5219 -2.8058 -1.9713
  834MOL0     H10056  -3.165  10.481   5.515  2.3894  0.9867  0.1448
  834MOL0     H10057  -3.225  10.411   5.666  1.7410  1.6635  1.2641
  834MOL0     H10058  -3.125  10.183   5.600  3.1700 -1.2605 -1.5721
  834MOL0     H10059  -3.089  10.238   5.439  0.2301  0.4196 -0.0525
  834MOL0     H10060  -3.368  10.255   5.541  1.4711  2.5440 -1.5590
  834MOL0     H10061  -3.319  10.293   5.387  0.1517  0.8485  1.2637
  834MOL0     H10062  -3.304  10.012   5.506 -0.3525  1.0233  0.9807
  834MOL0     H10063  -3.245  10.040   5.350 -0.1173 -0.0830  0.1428
  834MOL0     H10064  -3.479  10.117   5.268 -1.8426 -1.6369 -0.0983
  834MOL0     H10065  -3.531  10.113   5.435 -0.0150 -1.4092  2.1243
  834MOL0     H10066  -3.417   9.864   5.276 -1.9437 -1.7948 -2.0462
  834MOL0     H10067  -3.481   9.860   5.432 -0.7408 -1.3914 -1.7545
  834MOL0     H10068  -3.636   9.920   5.183  2.3131 -0.3857 -0.4093
  834MOL0     H10069  -3.707   9.947   5.338 -2.5940 -0.2162 -3.2217
  834MOL0     H10070  -2.708  10.260   5.463  1.4896 -1.8330  2.1504
  834MOL0     H10071  -2.458  10.309   5.509  0.5703  0.4669  1.5759
  834MOL0     H10072  -2.129  10.697   5.462  1.9495 -0.0054 -0.7676
  834MOL0     H10073  -1.877  10.708   5.510 -0.9400  2.7586  1.4836
  834MOL0     H10074  -0.161  10.350   5.354 -2.9618  2.1436  2.2700
  834MOL0     H10075   0.070  10.264   5.339  0.3365  0.8165 -1.5091
  834MOL0     H10076   0.420  10.297   5.277 -1.7960  1.2470 -2.9605
  834MOL0     H10077   0.587  10.339   5.092  3.6159 -0.9965 -0.0859
  834MOL0     H10078   0.725  10.464   4.920  0.3108 -0.2665  0.2925
  834MOL0     H10079   0.780  10.333   5.015 -2.9460  0.6414  2.6073
  834MOL0     H10080   1.010  10.433   5.016  2.5406 -0.0836 -1.9579
  834MOL0     H10081   0.962  10.391   4.855 -1.1431 -2.3064  1.7040
  834MOL0     H10082   0.960  10.675   4.962 -1.0875 -0.2578 -0.0615
  834MOL0     H10083   0.894  10.626   4.805  0.3000  2.6653  1.0842
  834MOL0     H10084   1.181  10.571   4.912 -0.4546  1.7790  1.7427
  834MOL0     H10085   1.114  10.536   4.746 -1.2168 -2.9747  1.6312
  834MOL0     H10086   1.174  10.917   4.662 -1.5994  0.3767  0.2973
  834MOL0     H10087   0.794  10.615   5.341 -0.3942  0.8979  2.3816
  834MOL0     H10088   0.630  10.584   5.524  0.4326 -0.5262  0.8424
  835MOL0     O10089   4.913   3.540   5.868  0.0456 -0.5227 -0.1863
  835MOL0     C10090   4.904   3.477   5.760  0.4556 -0.6903 -0.4070
  835MOL0     O10091   4.782   3.440   5.711  0.4381 -0.1530 -0.1206
  835MOL0     C10092   4.659   3.455   5.771 -0.6917  0.3516  0.1772
  835MOL0     C10093   4.544   3.411   5.702  0.8586  0.4973  1.0977
  835MOL0     C10094   4.411   3.411   5.758  0.6244 -0.5057  0.5999
  835MOL0     C10095   4.393   3.439   5.892  0.5043  0.0363  0.0480
  835MOL0     O10096   4.274   3.420   5.967  0.0140 -0.3917  0.0597
  835MOL0     C10097   4.156   3.468   5.901 -0.4606  0.1294 -0.5137
  835MOL0     C10098   4.032   3.435   5.992  0.8417  0.0067  1.1201
  835MOL0     C10099   4.003   3.287   6.000 -0.4619 -0.3029  0.1747
  835MOL0     C10100   3.878   3.244   6.082 -0.4112 -0.4362  0.4709
  835MOL0     C10101   3.907   3.102   6.136  0.2187 -0.2420  0.8451
  835MOL0     C10102   3.924   2.999   6.017  0.3710  0.6182 -0.4095
  835MOL0     C10103   3.954   2.868   6.084 -0.7058 -0.0341  0.3770
  835MOL0     C10104   3.955   2.756   5.974 -0.3920 -0.1713 -0.6751
  835MOL0     N10105   4.054   2.765   5.858  0.1452  0.3902  0.5236
  835MOL0     C10106   4.191   2.767   5.872 -0.4304 -0.8714 -0.2482
  835MOL0     C10107   4.243   2.827   5.757  0.2639 -0.1309 -0.7559
  835MOL0     C10108   4.380   2.876   5.730  0.4208 -0.2941  0.4426
  835MOL0     C10109   4.389   3.017   5.784  0.3427 -0.0028  0.6767
  835MOL0     C10110   4.448   3.033   5.923  0.7249 -0.0964 -0.0253
  835MOL0     C10111   4.574   3.111   5.916 -0.5345 -0.4790  0.3078
  835MOL0     O10112   4.676   3.054   5.841  0.2369 -0.0532  0.3980
  835MOL0     C10113   4.804   3.062   5.880  0.0434 -0.5580 -0.2847
  835MOL0     C10114   4.858   3.175   5.944 -0.4900 -0.8295 -0.6156
  835MOL0     C10115   4.994   3.182   5.982  0.0102  0.0693  0.2986
  835MOL0     C10116   5.076   3.072   5.950  0.2440 -0.2238 -1.1736
  835MOL0     C10117   5.221   3.079   5.978 -0.1313  0.1464 -0.9428
  835MOL0     O10118   5.285   2.961   5.968  0.2029 -0.0519 -0.0963
  835MOL0     C10119   5.422   2.962   6.000  0.5570 -0.4416 -0.5923
  835MOL0     C10120   5.501   2.864   5.938 -0.3191 -0.7791  0.1906
  835MOL0     C10121   5.639   2.846   5.955  0.4439 -0.3637 -0.2339
  835MOL0     C10122   5.704   2.923   6.057  0.6181  0.1676 -0.2650
  835MOL0     O10123   5.833   2.895   6.098 -0.2197  0.1079  0.6887
  835MOL0     C10124   5.914   3.016   6.091  0.7505  0.1463 -0.5971
  835MOL0     C10125   6.062   2.980   6.141 -0.1366  0.2275 -0.7659
  835MOL0     C10126   6.165   3.051   6.062 -0.3181 -0.1046  0.2494
  835MOL0     C10127   6.311   3.016   6.084 -1.3619  0.8791 -0.3522
  835MOL0     C10128   6.347   2.868   6.108 -0.2332  0.6404 -0.2671
  835MOL0     C10129   6.361   2.803   5.971 -0.7178  0.7530  0.3221
  835MOL0     C10130   6.421   2.652   5.971  0.2201  0.2643  1.1598
  835MOL0     C10131   6.392   2.578   5.845 -0.0655  0.4565  0.0837
  835MOL0    Cl10132   6.436   2.408   5.859 -0.0208 -0.4012 -0.1388
  835MOL0     C10133   5.625   2.998   6.141  0.1960  0.8074 -0.2577
  835MOL0     C10134   5.486   3.020   6.114 -0.2955  0.2994 -0.6724
  835MOL0     O10135   5.270   3.192   5.996 -0.2268 -0.6594 -0.7856
  835MOL0     C10136   5.017   2.958   5.892 -0.1922 -0.2928 -0.1732
  835MOL0     C10137   4.879   2.950   5.865 -0.4461  1.0857 -0.9196
  835MOL0     N10138   4.128   2.844   5.674  0.5532 -0.0976 -0.3052
  835MOL0     N10139   4.021   2.817   5.740 -0.3793 -0.3538  0.2019
  835MOL0     C10140   4.511   3.451   5.964 -0.0416 -1.1970  0.1759
  835MOL0     C10141   4.641   3.463   5.902  0.6506  0.1618 -0.7657
  835MOL0     C10142   5.020   3.438   5.677 -0.3727 -0.1419 -0.3617
  835MOL0     C10143   5.148   3.468   5.721  0.4547  0.6054  0.4080
  835MOL0     C10144   5.266   3.433   5.645 -0.5021 -0.0673 -0.2554
  835MOL0     C10145   5.250   3.352   5.533 -0.4490 -0.4720  0.7163
  835MOL0     O10146   5.357   3.305   5.457  0.1991 -0.0270 -0.0146
  835MOL0     C10147   5.495   3.349   5.471  0.2974  0.3408 -0.1237
  835MOL0     C10148   5.580   3.249   5.542 -0.3620 -0.3214  0.1514
  835MOL0     C10149   5.572   3.261   5.697 -0.1027 -0.6002  0.2924
  835MOL0     C10150   5.653   3.162   5.775 -0.2400  0.6622 -0.5626
  835MOL0     C10151   5.793   3.173   5.756  0.1541  0.2027 -0.0835
  835MOL0     C10152   5.914   3.188   5.747  0.4574  0.4801 -0.9736
  835MOL0     C10153   5.118   3.314   5.493 -0.6161  0.3515  0.3153
  835MOL0     C10154   5.010   3.355   5.565  0.2073  0.2330 -0.2382
  835MOL0     H10155   4.566   3.385   5.599 -1.5839 -0.6163  0.7793
  835MOL0     H10156   4.321   3.399   5.698  0.5986 -3.1909  1.0444
  835MOL0     H10157   4.129   3.424   5.805 -0.6493 -0.3281 -0.2546
  835MOL0     H10158   4.174   3.575   5.887  0.7058 -0.2665 -2.4870
  835MOL0     H10159   3.945   3.487   5.950  0.3290 -1.5246  0.2060
  835MOL0     H10160   4.057   3.487   6.085  2.9484  1.6021 -0.2285
  835MOL0     H10161   4.081   3.230   6.051 -0.8694 -0.7562  0.2937
  835MOL0     H10162   3.986   3.251   5.898 -0.6888 -0.7581  0.3698
  835MOL0     H10163   3.868   3.316   6.163 -0.6802 -0.6776  0.6545
  835MOL0     H10164   3.790   3.247   6.018  0.9609  1.3653 -1.4488
  835MOL0     H10165   3.821   3.071   6.195 -3.0103  1.8701 -2.3409
  835MOL0     H10166   3.990   3.099   6.207 -1.4988 -0.6672  2.9351
  835MOL0     H10167   4.004   3.032   5.951 -0.5920  0.5116 -1.6645
  835MOL0     H10168   3.834   2.998   5.955 -0.7393  1.3724  1.1319
  835MOL0     H10169   4.043   2.866   6.147  0.5484 -0.4700 -1.3491
  835MOL0     H10170   3.868   2.844   6.147 -1.3865  0.7755 -0.2116
  835MOL0     H10171   3.852   2.756   5.936 -0.4916 -0.1992 -0.4047
  835MOL0     H10172   3.967   2.664   6.032 -2.0195  0.3118  0.5112
  835MOL0     H10173   4.250   2.746   5.961  2.2671 -1.4390 -2.0355
  835MOL0     H10174   4.384   2.883   5.620 -2.5526  0.4961  0.2957
  835MOL0     H10175   4.451   2.804   5.770 -0.6959 -0.7016  1.7485
  835MOL0     H10176   4.295   3.071   5.769  1.1983  0.7194 -3.1629
  835MOL0     H10177   4.454   3.076   5.718  1.5117 -2.7661 -0.8448
  835MOL0     H10178   4.369   3.077   5.985 -0.1005 -1.9519  0.2942
  835MOL0     H10179   4.467   2.937   5.970 -4.1444 -0.7105  1.2944
  835MOL0     H10180   4.607   3.144   6.014 -0.2512 -1.3884  0.5317
  835MOL0     H10181   4.541   3.200   5.861 -2.8432 -3.0471 -2.9125
  835MOL0     H10182   4.806   3.270   5.956 -1.4442 -0.9861 -2.9416
  835MOL0     H10183   5.044   3.268   6.027  0.4346 -1.3882  2.8239
  835MOL0     H10184   5.454   2.803   5.862 -1.2014 -1.5679  1.3342
  835MOL0     H10185   5.691   2.771   5.897  1.5978  1.3722 -1.5335
  835MOL0     H10186   5.873   3.092   6.158  5.2935  1.6489  0.8393
  835MOL0     H10187   5.920   3.058   5.991  2.4307  0.8947 -0.2208
  835MOL0     H10188   6.067   2.871   6.142  0.6732  0.2572  0.9578
  835MOL0     H10189   6.079   3.001   6.247 -1.5504 -1.5383 -0.1176
  835MOL0     H10190   6.156   3.159   6.076  1.2308 -0.1643  2.0541
  835MOL0     H10191   6.130   3.031   5.960 -1.6067  0.3578  0.5788
  835MOL0     H10192   6.372   3.055   6.002 -0.0267  2.7743  1.4453
  835MOL0     H10193   6.350   3.078   6.165 -0.7071 -0.1426  0.1299
  835MOL0     H10194   6.277   2.824   6.180 -1.1648  3.1773  0.4852
  835MOL0     H10195   6.446   2.865   6.155 -1.0477 -1.0516  1.5289
  835MOL0     H10196   6.433   2.855   5.908 -1.1899 -0.8346 -1.6163
  835MOL0     H10197   6.267   2.800   5.915  0.0968 -0.9368 -1.0544
  835MOL0     H10198   6.530   2.659   5.970  0.3302 -1.2646 -0.1092
  835MOL0     H10199   6.383   2.591   6.054 -0.0248 -1.8389 -0.4364
  835MOL0     H10200   6.450   2.617   5.760  0.9035 -1.5794 -0.2551
  835MOL0     H10201   6.284   2.584   5.828 -0.3543 -1.1480  1.1465
  835MOL0     H10202   5.662   3.047   6.231 -0.1228 -1.1370  1.0116
  835MOL0     H10203   5.428   3.067   6.193  0.3726 -0.7858  0.4842
  835MOL0     H10204   5.077   2.869   5.877 -1.6867 -1.3535 -0.1046
  835MOL0     H10205   4.828   2.862   5.828  3.2881 -2.3584  1.3143
  835MOL0     H10206   4.511   3.453   6.073  1.4157 -2.7259  0.2351
  835MOL0     H10207   4.722   3.491   5.969 -0.1344 -3.7265  2.1884
  835MOL0     H10208   5.172   3.517   5.815 -0.2298  2.2669 -0.2573
  835MOL0     H10209   5.365   3.462   5.677 -0.8759 -1.5820  2.5703
  835MOL0     H10210   5.490   3.442   5.529  0.7296  2.2250 -2.9289
  835MOL0     H10211   5.529   3.376   5.371  1.8310 -1.9699 -0.2964
  835MOL0     H10212   5.544   3.152   5.507 -0.6289 -1.0341  2.2669
  835MOL0     H10213   5.680   3.271   5.505 -0.7473  2.2869  0.4208
  835MOL0     H10214   5.469   3.234   5.722 -0.2456  0.3731  0.8088
  835MOL0     H10215   5.597   3.362   5.731 -0.6183 -0.0246 -0.9732
  835MOL0     H10216   5.625   3.173   5.881  0.7134  0.2264 -0.2515
  835MOL0     H10217   5.624   3.064   5.737 -0.7562  1.1133 -1.3475
  835MOL0     H10218   6.021   3.197   5.745  0.7293 -1.5119  0.9347
  835MOL0     H10219   5.104   3.237   5.418  1.6772 -2.2671  2.3655
  835MOL0     H10220   4.914   3.320   5.531 -0.2589  0.0500  1.2211
  836MOL0     O10221   1.066   3.843   4.896 -0.3923 -0.5496 -0.6104
  836MOL0     C10222   1.109   3.950   4.927 -0.3057 -0.3850 -0.1052
  836MOL0     O10223   1.050   4.041   5.011  0.5000  0.2091 -0.9952
  836MOL0     C10224   0.918   4.016   5.049  0.3141  0.2508 -0.4589
  836MOL0     C10225   0.819   3.978   4.952 -0.6808 -0.3171  0.2531
  836MOL0     C10226   0.690   3.954   5.002 -0.2073 -0.2076 -0.1847
  836MOL0     C10227   0.655   3.978   5.137 -0.0449 -0.9390  1.1098
  836MOL0     O10228   0.522   3.961   5.165  0.4823  0.3839  0.0048
  836MOL0     C10229   0.473   3.965   5.300 -0.6675  0.2813  0.7715
  836MOL0     C10230   0.321   3.964   5.300 -0.7620  0.6051  0.4482
  836MOL0     C10231   0.262   4.085   5.224  0.5713  0.0933  0.6557
  836MOL0     C10232   0.107   4.081   5.225 -0.1342 -0.3967 -0.0791
  836MOL0     C10233   0.052   4.219   5.176  0.5643 -1.0730 -0.0489
  836MOL0     C10234   0.070   4.334   5.277  0.1740 -0.6702  0.2756
  836MOL0     C10235  -0.061   4.390   5.332 -0.2736  0.0015  0.4712
  836MOL0     C10236  -0.110   4.501   5.239 -0.2038 -0.1829 -0.1395
  836MOL0     N10237  -0.233   4.544   5.289  0.7459  0.7157 -0.1227
  836MOL0     C10238  -0.358   4.498   5.257 -0.4019 -0.0452  0.3696
  836MOL0     C10239  -0.440   4.578   5.325  0.1934  0.2120  0.4097
  836MOL0     C10240  -0.592   4.577   5.311 -0.4987  0.4025  0.2063
  836MOL0     C10241  -0.668   4.555   5.435 -0.2512 -0.1714 -0.1090
  836MOL0     C10242  -0.646   4.416   5.502 -0.9743  0.5125  0.0049
  836MOL0     C10243  -0.758   4.387   5.600 -0.7115  0.2208 -0.7105
  836MOL0     O10244  -0.879   4.360   5.538  0.7038 -0.7320  0.2860
  836MOL0     C10245  -1.003   4.353   5.605 -0.6870 -0.1415 -0.1738
  836MOL0     C10246  -1.119   4.357   5.532  0.4783 -0.1038  0.1477
  836MOL0     C10247  -1.244   4.368   5.594  0.5919 -0.0579 -0.0319
  836MOL0     C10248  -1.251   4.371   5.732 -0.6881  0.3658 -0.3695
  836MOL0     C10249  -1.386   4.388   5.800 -0.8163  0.8198  0.3457
  836MOL0     O10250  -1.377   4.410   5.938  0.2159  0.3295 -0.4799
  836MOL0     C10251  -1.485   4.387   6.015 -0.0830  0.8695 -0.3009
  836MOL0     C10252  -1.488   4.452   6.141  0.2374 -0.2723  0.3637
  836MOL0     C10253  -1.595   4.455   6.229  0.3793 -0.1679  0.2272
  836MOL0     C10254  -1.715   4.386   6.196 -0.3009  0.3353  0.5570
  836MOL0     O10255  -1.801   4.382   6.304  0.2535  0.1623 -0.2291
  836MOL0     C10256  -1.934   4.363   6.262 -0.1008 -0.6475 -0.3067
  836MOL0     C10257  -2.020   4.350   6.389  0.3527  0.2137  0.0519
  836MOL0     C10258  -2.171   4.351   6.359  0.8327  0.1680 -0.4348
  836MOL0     C10259  -2.258   4.382   6.481 -0.1875 -0.1892  0.4829
  836MOL0     C10260  -2.407   4.347   6.455  0.6837 -0.2572  0.1347
  836MOL0     C10261  -2.503   4.426   6.542 -0.1707  0.8850 -0.4884
  836MOL0     C10262  -2.648   4.373   6.533 -0.0235 -0.2139 -0.3934
  836MOL0     C10263  -2.675   4.269   6.641 -0.4696 -0.2970  0.9796
  836MOL0    Cl10264  -2.843   4.256   6.645 -0.3570  0.3294 -0.5061
  836MOL0     C10265  -1.718   4.316   6.072 -0.3449 -0.2938  0.4757
  836MOL0     C10266  -1.613   4.323   5.982  0.0861  0.0326  0.8430
  836MOL0     O10267  -1.487   4.384   5.736 -0.2477  0.9056  0.2912
  836MOL0     C10268  -1.133   4.353   5.804  0.5283 -0.4475 -0.0713
  836MOL0     C10269  -1.004   4.351   5.748 -0.4063 -0.2966  0.5480
  836MOL0     N10270  -0.367   4.661   5.399  0.0471 -0.5028 -0.1803
  836MOL0     N10271  -0.248   4.647   5.377 -0.0690 -0.9988 -0.1714
  836MOL0     C10272   0.757   4.025   5.221  0.1523  0.1545  1.1824
  836MOL0     C10273   0.891   4.037   5.178  0.2545 -0.4511  0.2790
  836MOL0     C10274   1.236   3.989   4.870  0.8024 -0.4120 -0.4920
  836MOL0     C10275   1.302   4.090   4.940  0.7266 -0.4136  0.3972
  836MOL0     C10276   1.423   4.137   4.897  0.2798  0.4383 -0.7384
  836MOL0     C10277   1.486   4.074   4.793 -0.8414  0.5154  0.6404
  836MOL0     O10278   1.605   4.119   4.733  0.3159 -0.7966 -0.5476
  836MOL0     C10279   1.697   4.195   4.819  0.5728 -0.4400 -0.5898
  836MOL0     C10280   1.825   4.251   4.745 -0.2167 -1.0060  0.2073
  836MOL0     C10281   1.771   4.367   4.649 -1.2316 -0.1989 -0.1276
  836MOL0     C10282   1.868   4.473   4.602 -0.3549  0.6762  0.0708
  836MOL0     C10283   1.993   4.421   4.549 -1.4922 -0.0066 -0.1495
  836MOL0     C10284   2.101   4.393   4.495 -0.0886 -0.1974  0.5365
  836MOL0     C10285   1.423   3.976   4.721  1.0838 -0.0493 -0.3273
  836MOL0     C10286   1.298   3.928   4.762  0.0781 -0.0782  0.1040
  836MOL0     H10287   0.841   3.959   4.848  0.6387  0.1135  0.4330
  836MOL0     H10288   0.618   3.926   4.926 -1.3830 -2.3335  1.5851
  836MOL0     H10289   0.511   4.056   5.348  0.4323  1.5084 -2.1461
  836MOL0     H10290   0.496   3.876   5.359  2.6151  0.7433  0.3676
  836MOL0     H10291   0.286   3.971   5.403  1.1716  3.3699  1.0401
  836MOL0     H10292   0.290   3.872   5.250 -0.7406  2.7471 -4.0144
  836MOL0     H10293   0.297   4.078   5.121  1.0385 -1.8189  0.9149
  836MOL0     H10294   0.298   4.175   5.276  2.0869 -0.9593  1.4990
  836MOL0     H10295   0.065   4.000   5.165 -1.2167  1.5710 -2.1275
  836MOL0     H10296   0.077   4.058   5.327 -1.6230 -0.1611 -0.4412
  836MOL0     H10297  -0.055   4.214   5.152  0.2098  0.4111  1.0465
  836MOL0     H10298   0.101   4.252   5.084 -2.0925  0.4821 -1.0355
  836MOL0     H10299   0.126   4.415   5.231 -0.5699 -0.6350 -0.5921
  836MOL0     H10300   0.128   4.295   5.362 -1.1782 -1.5757  0.8132
  836MOL0     H10301  -0.138   4.313   5.339 -0.7234  0.3170 -0.7523
  836MOL0     H10302  -0.048   4.428   5.434  1.0637 -1.9352  1.0794
  836MOL0     H10303  -0.120   4.481   5.132 -2.2934 -1.1167  0.1690
  836MOL0     H10304  -0.040   4.585   5.243  1.8723 -1.7097 -2.0161
  836MOL0     H10305  -0.376   4.411   5.195  2.0058 -1.1811  1.1120
  836MOL0     H10306  -0.611   4.496   5.240  0.5459  0.3892 -0.0749
  836MOL0     H10307  -0.622   4.672   5.266  0.3268  0.5584 -0.0270
  836MOL0     H10308  -0.774   4.552   5.408 -0.9221 -0.5570  2.3259
  836MOL0     H10309  -0.655   4.631   5.511  0.1809 -0.6098  0.2647
  836MOL0     H10310  -0.649   4.338   5.426 -4.6117  2.3869 -2.0577
  836MOL0     H10311  -0.548   4.432   5.548 -0.1911  2.4976 -2.1848
  836MOL0     H10312  -0.772   4.468   5.672  1.5361 -0.2576  0.3466
  836MOL0     H10313  -0.728   4.295   5.652  1.1433  0.9913 -0.3152
  836MOL0     H10314  -1.112   4.349   5.424 -0.2257  1.9000 -0.0807
  836MOL0     H10315  -1.332   4.365   5.531  0.8873  0.6233 -0.4911
  836MOL0     H10316  -1.393   4.490   6.177  0.0106  0.6164  0.0461
  836MOL0     H10317  -1.593   4.505   6.325 -1.4671 -2.2835  1.4859
  836MOL0     H10318  -1.942   4.269   6.207  1.2445 -0.6979 -0.4373
  836MOL0     H10319  -1.964   4.449   6.202  1.7451 -0.2587 -0.7148
  836MOL0     H10320  -1.985   4.424   6.462  1.1700 -0.8177  0.7287
  836MOL0     H10321  -1.998   4.258   6.443 -0.2399 -0.6237 -1.0835
  836MOL0     H10322  -2.196   4.251   6.323 -0.2097 -0.2421  1.3239
  836MOL0     H10323  -2.180   4.425   6.279 -2.4352 -1.3441 -1.6189
  836MOL0     H10324  -2.223   4.340   6.575 -0.1941 -1.2732  0.0148
  836MOL0     H10325  -2.258   4.490   6.495  0.6357  0.1694 -1.8476
  836MOL0     H10326  -2.422   4.239   6.468  0.8163 -0.6583 -2.5396
  836MOL0     H10327  -2.449   4.371   6.357 -0.1400  0.2016  0.5844
  836MOL0     H10328  -2.499   4.529   6.505 -3.3735  1.2121 -0.2096
  836MOL0     H10329  -2.469   4.430   6.646  1.7550  0.5911 -1.0602
  836MOL0     H10330  -2.722   4.454   6.542 -0.5266 -0.7600  0.6009
  836MOL0     H10331  -2.665   4.327   6.436  0.6281  1.7659 -1.5136
  836MOL0     H10332  -2.635   4.302   6.737 -0.3579 -0.6724  1.0645
  836MOL0     H10333  -2.633   4.171   6.618 -0.1723 -0.1756  0.9996
  836MOL0     H10334  -1.809   4.263   6.043 -0.8447  1.3162 -1.0803
  836MOL0     H10335  -1.638   4.292   5.881  2.4256  2.0800 -0.4951
  836MOL0     H10336  -1.134   4.352   5.913  1.5947 -0.6566 -0.0526
  836MOL0     H10337  -0.908   4.357   5.799  1.3724 -0.6992 -2.4544
  836MOL0     H10338   0.738   4.049   5.325  0.7775  1.8860  0.9237
  836MOL0     H10339   0.967   4.072   5.248 -0.3784  0.8622  0.3312
  836MOL0     H10340   1.258   4.140   5.026  1.4616 -0.5337  0.8575
  836MOL0     H10341   1.462   4.227   4.944  2.1734 -0.8652  0.3197
  836MOL0     H10342   1.731   4.139   4.907 -0.3693  0.1020  0.1403
  836MOL0     H10343   1.640   4.280   4.859 -0.6289 -1.3089 -0.4189
  836MOL0     H10344   1.889   4.292   4.824 -0.4112 -1.1394  0.4373
  836MOL0     H10345   1.879   4.172   4.692  0.5103 -2.3193  2.7547
  836MOL0     H10346   1.687   4.427   4.685  0.2059  2.1627 -0.4717
  836MOL0     H10347   1.731   4.317   4.561  0.8299  1.4871 -2.1529
  836MOL0     H10348   1.817   4.545   4.537  0.3441 -0.2925 -1.6131
  836MOL0     H10349   1.892   4.534   4.690 -4.2048 -0.6710  2.3496
  836MOL0     H10350   2.190   4.354   4.450  0.2811 -0.0022  1.0715
  836MOL0     H10351   1.479   3.915   4.650 -1.4495 -0.2275 -2.3408
  836MOL0     H10352   1.258   3.834   4.724 -1.4366  0.0219  1.3558
  837MOL0     O10353   3.231   7.277   1.814  0.6854 -0.5395  0.0535
  837MOL0     C10354   3.245   7.396   1.841 -0.7975  0.0417 -0.2100
  837MOL0     O10355   3.160   7.466   1.928  0.4196 -0.0524  0.4056
  837MOL0     C10356   3.053   7.399   1.970  0.5596  0.2680  0.0829
  837MOL0     C10357   3.064   7.294   2.056 -0.2257 -0.8472  0.3696
  837MOL0     C10358   2.951   7.220   2.093 -0.3255  0.0704  1.2828
  837MOL0     C10359   2.820   7.253   2.052 -0.0953  0.0117  0.6996
  837MOL0     O10360   2.717   7.164   2.091 -0.2021 -0.0088 -0.6138
  837MOL0     C10361   2.606   7.139   1.998  0.8245 -0.1312  0.4303
  837MOL0     C10362   2.554   7.000   2.026  0.1367  0.3783  0.2044
  837MOL0     C10363   2.441   6.961   1.929 -0.0077 -0.1321 -0.6377
  837MOL0     C10364   2.307   7.017   1.967 -0.4744  0.6311 -0.2339
  837MOL0     C10365   2.202   6.927   1.895 -0.6626  1.0534 -0.3616
  837MOL0     C10366   2.070   6.985   1.880 -0.8370 -0.5116  0.5961
  837MOL0     C10367   1.953   6.893   1.831  0.6113 -0.3046 -0.1191
  837MOL0     C10368   1.820   6.965   1.851  0.7829 -0.4239  0.2604
  837MOL0     N10369   1.709   6.888   1.788  0.2199  0.2409  0.3076
  837MOL0     C10370   1.638   6.782   1.845  0.3734  0.6676 -0.0334
  837MOL0     C10371   1.562   6.733   1.739  0.2991 -0.2461  0.0850
  837MOL0     C10372   1.482   6.607   1.724 -0.2297 -0.1357 -0.0877
  837MOL0     C10373   1.469   6.546   1.852 -1.0523 -0.0569  0.0530
  837MOL0     C10374   1.373   6.436   1.839 -0.3599  0.2841  0.2477
  837MOL0     C10375   1.368   6.350   1.973 -0.2068  0.0839  0.4263
  837MOL0     O10376   1.357   6.433   2.086  0.2951 -0.1395  0.7414
  837MOL0     C10377   1.232   6.452   2.134 -0.0741  0.2169 -0.6174
  837MOL0     C10378   1.226   6.490   2.268  0.0218 -0.0900  0.3842
  837MOL0     C10379   1.099   6.505   2.329 -0.6871  0.2606  0.1607
  837MOL0     C10380   0.979   6.502   2.264 -0.2658 -0.1341 -0.2329
  837MOL0     C10381   0.848   6.527   2.337 -0.7649 -0.5937 -0.5329
  837MOL0     O10382   0.738   6.515   2.269  0.4445 -0.5043 -0.0493
  837MOL0     C10383   0.611   6.549   2.309 -0.2138  0.2598 -1.3731
  837MOL0     C10384   0.512   6.454   2.333 -0.0302 -0.5685 -0.7306
  837MOL0     C10385   0.384   6.499   2.380  0.6551  0.9570  0.2120
  837MOL0     C10386   0.350   6.635   2.396 -0.3265 -0.4632  0.4345
  837MOL0     O10387   0.227   6.671   2.441  0.2152  0.7002  0.2555
  837MOL0     C10388   0.164   6.787   2.397 -0.5041 -0.7641 -0.0323
  837MOL0     C10389   0.015   6.771   2.424 -0.0262 -0.0961  0.1485
  837MOL0     C10390  -0.036   6.820   2.564  0.4792 -0.1538  0.3819
  837MOL0     C10391  -0.181   6.787   2.586 -0.1413  0.5976  0.7973
  837MOL0     C10392  -0.242   6.876   2.702  0.0435 -0.7467  0.4566
  837MOL0     C10393  -0.398   6.852   2.694 -0.2340 -0.2544 -0.6579
  837MOL0     C10394  -0.473   6.968   2.766  1.0452 -0.8915 -0.1190
  837MOL0     C10395  -0.621   6.941   2.748 -1.0251 -0.3574 -0.5121
  837MOL0    Cl10396  -0.672   6.807   2.847  0.0192  0.3296 -0.1134
  837MOL0     C10397   0.450   6.732   2.357  0.7948  0.2383 -0.0938
  837MOL0     C10398   0.574   6.686   2.309 -0.0284  0.3255  0.9930
  837MOL0     O10399   0.851   6.566   2.458 -0.1586  0.0648  0.0552
  837MOL0     C10400   0.990   6.455   2.132 -0.1064 -0.1922  0.2230
  837MOL0     C10401   1.112   6.438   2.061  0.1062 -0.7096 -0.1420
  837MOL0     N10402   1.577   6.818   1.633 -0.1159  0.4090  0.8142
  837MOL0     N10403   1.652   6.908   1.664 -0.7591 -0.4062 -0.1288
  837MOL0     C10404   2.811   7.367   1.974 -0.3411  0.3403 -0.1470
  837MOL0     C10405   2.925   7.437   1.931 -0.0245  0.0995 -0.3328
  837MOL0     C10406   3.375   7.460   1.791 -1.1011  0.1043  0.7080
  837MOL0     C10407   3.397   7.593   1.819 -0.9762  0.4758 -0.2191
  837MOL0     C10408   3.519   7.656   1.777  0.5900  0.2156 -0.8061
  837MOL0     C10409   3.621   7.583   1.713  0.1154 -0.4212  0.5392
  837MOL0     O10410   3.738   7.649   1.676  0.2560 -0.0793 -0.0700
  837MOL0     C10411   3.853   7.573   1.631  0.3685 -0.5976  0.8768
  837MOL0     C10412   3.831   7.560   1.477 -0.3411  0.0383 -0.1204
  837MOL0     C10413   3.821   7.692   1.398  0.2944 -0.7129  1.2210
  837MOL0     C10414   3.823   7.662   1.250 -0.0671 -0.5659  0.5204
  837MOL0     C10415   3.945   7.634   1.192  0.0002  0.3106  0.1712
  837MOL0     C10416   4.048   7.609   1.128  0.0441 -0.3251  0.3039
  837MOL0     C10417   3.591   7.453   1.684  0.1483 -0.3023 -0.0717
  837MOL0     C10418   3.476   7.387   1.724  0.1573 -0.1023 -1.0405
  837MOL0     H10419   3.159   7.246   2.078 -0.5484 -2.7419 -1.9398
  837MOL0     H10420   2.970   7.134   2.155 -2.0649 -0.7642  0.7370
  837MOL0     H10421   2.645   7.146   1.896  2.1541  1.6983  0.9898
  837MOL0     H10422   2.534   7.221   2.006  1.0711  0.2918 -1.3505
  837MOL0     H10423   2.515   6.992   2.128  2.1616  1.1091  1.0898
  837MOL0     H10424   2.640   6.932   2.019  1.7602  2.0274  2.5546
  837MOL0     H10425   2.427   6.853   1.939  1.6482 -0.4453 -1.3702
  837MOL0     H10426   2.468   6.981   1.825  1.4939 -4.8586 -1.4112
  837MOL0     H10427   2.297   7.013   2.076 -0.9133 -1.7829 -0.3121
  837MOL0     H10428   2.299   7.116   1.920  0.7810  1.6159  1.5246
  837MOL0     H10429   2.194   6.848   1.970  5.2869 -0.2030 -0.5462
  837MOL0     H10430   2.248   6.892   1.802  1.7946 -0.3329  1.2740
  837MOL0     H10431   2.080   7.060   1.800  1.6166 -0.9289  0.4474
  837MOL0     H10432   2.031   7.029   1.972 -2.3496 -1.3903  0.4053
  837MOL0     H10433   1.954   6.864   1.726  2.0199  0.0968 -0.2331
  837MOL0     H10434   1.957   6.798   1.885  0.6386 -0.6935 -0.7928
  837MOL0     H10435   1.821   7.058   1.793  0.9938 -1.0683 -0.7799
  837MOL0     H10436   1.797   6.987   1.956  2.7052  0.5337  0.5236
  837MOL0     H10437   1.658   6.751   1.947  0.2892  1.1834  0.1405
  837MOL0     H10438   1.537   6.547   1.651  0.1825  0.4941 -0.2985
  837MOL0     H10439   1.382   6.629   1.683 -0.1786 -0.4986 -0.4192
  837MOL0     H10440   1.426   6.608   1.931 -0.9726  0.6443 -0.4408
  837MOL0     H10441   1.560   6.499   1.890 -0.3256  0.9400 -0.4176
  837MOL0     H10442   1.273   6.467   1.809 -0.4636 -0.1657  0.1226
  837MOL0     H10443   1.404   6.367   1.760 -0.2477  0.7415 -0.1150
  837MOL0     H10444   1.456   6.287   1.992 -1.0327 -1.7768 -1.4804
  837MOL0     H10445   1.299   6.265   1.966 -0.7709  0.5235  0.6404
  837MOL0     H10446   1.315   6.494   2.330  0.1665 -0.9948  0.2405
  837MOL0     H10447   1.105   6.532   2.434 -0.8916  2.2454 -0.3098
  837MOL0     H10448   0.527   6.346   2.332  0.0217 -0.7060  2.7947
  837MOL0     H10449   0.312   6.420   2.397 -0.2398  1.2243 -2.0766
  837MOL0     H10450   0.174   6.792   2.288  1.5408 -0.0660  0.1428
  837MOL0     H10451   0.211   6.875   2.443  1.2861 -2.2130  1.0234
  837MOL0     H10452  -0.003   6.663   2.413 -1.2082 -0.0488  1.3676
  837MOL0     H10453  -0.043   6.826   2.348  1.3415  0.6035 -0.4166
  837MOL0     H10454  -0.031   6.929   2.569 -0.5026 -0.0996  0.4897
  837MOL0     H10455   0.038   6.774   2.630  1.5032 -1.5474 -1.6145
  837MOL0     H10456  -0.231   6.813   2.492  0.1894 -2.1156 -0.1947
  837MOL0     H10457  -0.186   6.679   2.600 -1.2864  0.2683 -1.6996
  837MOL0     H10458  -0.217   6.980   2.682 -1.8912 -0.7943 -2.9060
  837MOL0     H10459  -0.199   6.843   2.797 -0.3210 -2.0475  0.1880
  837MOL0     H10460  -0.418   6.754   2.738  0.8616  0.4680  1.5499
  837MOL0     H10461  -0.433   6.840   2.591 -2.8356  0.1773  0.1022
  837MOL0     H10462  -0.449   6.958   2.872  0.1676  1.5248  0.3538
  837MOL0     H10463  -0.448   7.065   2.721 -1.0808 -0.2099  0.0973
  837MOL0     H10464  -0.639   6.939   2.640  0.3255  1.0102 -0.7865
  837MOL0     H10465  -0.666   7.034   2.784  1.2784 -0.7204  3.9298
  837MOL0     H10466   0.430   6.839   2.363  0.0782  0.0259  2.1745
  837MOL0     H10467   0.648   6.761   2.280  2.0512 -0.9437  2.7286
  837MOL0     H10468   0.899   6.438   2.076  0.0850  0.7265 -0.3931
  837MOL0     H10469   1.094   6.404   1.960 -1.6356 -4.1928  1.1570
  837MOL0     H10470   2.713   7.398   1.939 -0.9379 -0.5180  0.7347
  837MOL0     H10471   2.922   7.522   1.863 -1.9139  1.4344  1.3149
  837MOL0     H10472   3.322   7.649   1.874  0.4793 -0.9588  3.5767
  837MOL0     H10473   3.534   7.762   1.794 -1.3637  0.3521  0.4140
  837MOL0     H10474   3.859   7.471   1.670 -0.2777 -1.0044 -0.0308
  837MOL0     H10475   3.952   7.616   1.650  1.7646 -2.8432 -0.7835
  837MOL0     H10476   3.913   7.500   1.436  1.7829  0.7931  2.7225
  837MOL0     H10477   3.735   7.512   1.458  0.1273 -1.1710  0.4362
  837MOL0     H10478   3.904   7.762   1.413  0.6339 -0.4062 -1.5428
  837MOL0     H10479   3.726   7.747   1.405  0.3469  0.0816 -2.1729
  837MOL0     H10480   3.756   7.578   1.230 -0.6733 -0.3920  1.7386
  837MOL0     H10481   3.785   7.756   1.209 -1.7088 -0.4558  2.1692
  837MOL0     H10482   4.146   7.595   1.086  0.5171  0.3299  1.1445
  837MOL0     H10483   3.662   7.390   1.631  0.6401  1.3908 -1.4923
  837MOL0     H10484   3.455   7.281   1.711 -1.7463 -0.3245  2.6764
  838MOL0     O10485  10.546   9.374   3.772 -0.5253  0.9894 -0.6055
  838MOL0     C10486  10.568   9.462   3.697  0.1768 -0.9051 -0.0039
  838MOL0     O10487  10.489   9.565   3.665  0.7967  0.3446  0.9159
  838MOL0     C10488  10.359   9.573   3.719  0.2818  1.4931 -0.2604
  838MOL0     C10489  10.266   9.477   3.748  0.3599 -0.1788  0.0233
  838MOL0     C10490  10.138   9.515   3.789 -0.7344 -0.1078  0.3459
  838MOL0     C10491  10.098   9.644   3.796  0.7409  0.1018 -0.1780
  838MOL0     O10492   9.959   9.673   3.806 -0.0314 -0.0794 -0.3100
  838MOL0     C10493   9.880   9.577   3.885 -0.2630 -0.3739  0.1819
  838MOL0     C10494   9.740   9.639   3.906  0.2597  0.1359 -0.3913
  838MOL0     C10495   9.654   9.664   3.783  0.4294  0.2404 -1.0669
  838MOL0     C10496   9.530   9.742   3.812  0.6065 -0.2772  0.9422
  838MOL0     C10497   9.408   9.732   3.713  0.2138 -0.0930  0.4758
  838MOL0     C10498   9.297   9.823   3.760  0.5025 -0.1010 -0.3253
  838MOL0     C10499   9.165   9.812   3.679  0.0363  0.0877 -0.3677
  838MOL0     C10500   9.065   9.919   3.698  0.3931 -0.2691  0.0438
  838MOL0     N10501   9.000   9.903   3.826 -0.1394 -0.6806 -0.6667
  838MOL0     C10502   8.880   9.846   3.854 -0.3215  0.5483 -0.3091
  838MOL0     C10503   8.864   9.856   3.986 -0.2395 -0.1294  0.0495
  838MOL0     C10504   8.746   9.815   4.074 -0.1391 -0.5881  0.1944
  838MOL0     C10505   8.616   9.850   4.003  0.4288 -0.1471 -0.4200
  838MOL0     C10506   8.493   9.846   4.104  0.3818 -0.1756 -1.1945
  838MOL0     C10507   8.491   9.983   4.182  0.3076  0.6101  0.3979
  838MOL0     O10508   8.409  10.075   4.113  0.8947 -0.1308  0.6010
  838MOL0     C10509   8.272  10.045   4.097 -0.1041  0.7779 -0.5339
  838MOL0     C10510   8.199   9.942   4.152  0.9664 -0.1605 -0.3412
  838MOL0     C10511   8.057   9.934   4.136 -0.4316 -0.4956 -0.0914
  838MOL0     C10512   7.987  10.032   4.064 -0.4818  0.3504  0.7266
  838MOL0     C10513   7.840  10.019   4.056  0.6809  0.2044 -0.9543
  838MOL0     O10514   7.784   9.920   4.119 -0.0510  0.2651 -0.2612
  838MOL0     C10515   7.648   9.902   4.143 -0.1480 -0.1600  0.1437
  838MOL0     C10516   7.535   9.990   4.119  0.8124 -0.4088  0.5350
  838MOL0     C10517   7.411   9.940   4.151 -0.1554  0.4389 -0.1879
  838MOL0     C10518   7.386   9.817   4.215 -0.6466  0.1811  0.1692
  838MOL0     O10519   7.264   9.768   4.251  0.4596 -0.2862  0.6096
  838MOL0     C10520   7.140   9.816   4.206  0.2296 -0.4979 -0.3695
  838MOL0     C10521   7.037   9.702   4.238 -0.3350  1.3672 -0.6462
  838MOL0     C10522   6.913   9.722   4.158 -0.1933 -0.7622  0.6392
  838MOL0     C10523   6.801   9.647   4.210  0.4969  0.8478 -0.8580
  838MOL0     C10524   6.671   9.668   4.123 -0.2909 -0.1730  0.2144
  838MOL0     C10525   6.551   9.578   4.151  0.0319  0.8503 -0.3713
  838MOL0     C10526   6.439   9.582   4.047 -0.2584 -0.1979 -0.0067
  838MOL0     C10527   6.306   9.524   4.092 -0.1621  0.0715  0.4709
  838MOL0    Cl10528   6.200   9.520   3.952 -0.4444 -0.5049  0.4226
  838MOL0     C10529   7.498   9.741   4.254 -0.4659 -0.7307  0.2675
  838MOL0     C10530   7.631   9.786   4.223  0.0385 -0.1368  0.4730
  838MOL0     O10531   7.771  10.105   3.995 -0.1710  0.7229  0.4941
  838MOL0     C10532   8.059  10.133   4.002  0.2101  0.6445 -0.5421
  838MOL0     C10533   8.197  10.138   4.017  0.4700 -0.1145 -1.2031
  838MOL0     N10534   8.973   9.918   4.042  0.4925  0.4525  0.2152
  838MOL0     N10535   9.044   9.951   3.941 -0.8075  0.3969  0.3571
  838MOL0     C10536  10.190   9.743   3.759  1.0480  0.3501 -0.1477
  838MOL0     C10537  10.318   9.701   3.728  0.5819 -0.9515  0.6075
  838MOL0     C10538  10.708   9.479   3.661 -0.2171  0.2803  0.3716
  838MOL0     C10539  10.744   9.598   3.590 -0.0715 -1.3135  0.4407
  838MOL0     C10540  10.878   9.603   3.536  0.0760  0.2325  0.6068
  838MOL0     C10541  10.964   9.496   3.555  0.0778  0.2050 -0.1310
  838MOL0     O10542  11.088   9.506   3.490  0.2216  0.1595 -0.7465
  838MOL0     C10543  11.204   9.469   3.562 -1.0352 -0.0674  0.8051
  838MOL0     C10544  11.262   9.596   3.633 -0.5271 -0.1596  0.2574
  838MOL0     C10545  11.389   9.564   3.726  0.2205  1.1125  0.3914
  838MOL0     C10546  11.520   9.553   3.643  0.1593 -0.5335 -0.4199
  838MOL0     C10547  11.631   9.490   3.718  0.4748 -0.0075  0.4689
  838MOL0     C10548  11.734   9.437   3.759 -0.4825 -0.4232  0.3974
  838MOL0     C10549  10.929   9.386   3.631 -0.1019  0.1061  0.0643
  838MOL0     C10550  10.804   9.378   3.683  0.1276 -0.0949 -0.8764
  838MOL0     H10551  10.281   9.370   3.750 -0.9606 -0.3786  0.5203
  838MOL0     H10552  10.062   9.437   3.797  1.2085 -2.0972  0.5199
  838MOL0     H10553   9.927   9.554   3.981  1.6814 -3.4263 -1.3357
  838MOL0     H10554   9.868   9.487   3.824  0.8379  0.7201 -1.7603
  838MOL0     H10555   9.747   9.735   3.957 -1.9316 -0.3641  0.9914
  838MOL0     H10556   9.688   9.577   3.980 -0.6004  0.3382 -0.8163
  838MOL0     H10557   9.614   9.580   3.726 -1.7322  1.7683 -1.9611
  838MOL0     H10558   9.712   9.726   3.715 -0.7465  4.6748  1.5679
  838MOL0     H10559   9.493   9.706   3.909  0.7848 -0.5884  0.8927
  838MOL0     H10560   9.549   9.849   3.829 -0.1820  0.3136 -1.4658
  838MOL0     H10561   9.355   9.637   3.713 -3.3306  1.7153 -0.8651
  838MOL0     H10562   9.440   9.770   3.616  0.8086 -0.0855  0.6735
  838MOL0     H10563   9.323   9.929   3.760  0.0868  0.0056  0.5202
  838MOL0     H10564   9.268   9.803   3.863 -1.3194  3.4579 -0.0121
  838MOL0     H10565   9.194   9.795   3.575  2.0848 -0.4185  0.2282
  838MOL0     H10566   9.121   9.718   3.714  0.6440  0.4206  1.3837
  838MOL0     H10567   8.989   9.915   3.620  1.1328 -0.0746 -0.6956
  838MOL0     H10568   9.129  10.008   3.699  3.7318 -2.4649  1.1094
  838MOL0     H10569   8.803   9.802   3.792 -1.3356 -1.1961  2.0521
  838MOL0     H10570   8.758   9.864   4.172 -0.1953 -2.2109  1.0471
  838MOL0     H10571   8.753   9.708   4.093  0.3312 -0.4242  1.0059
  838MOL0     H10572   8.595   9.776   3.925  2.0127 -2.3790  1.1340
  838MOL0     H10573   8.606   9.953   3.967 -0.5327  0.4766  1.4582
  838MOL0     H10574   8.406   9.837   4.038  0.8264  2.6114 -2.3401
  838MOL0     H10575   8.518   9.757   4.163  4.8763  0.9563 -0.9903
  838MOL0     H10576   8.589  10.030   4.184  0.2983  0.8122 -1.5823
  838MOL0     H10577   8.446   9.957   4.278 -1.3949  0.6828 -0.3398
  838MOL0     H10578   8.247   9.869   4.216 -0.1570 -0.5802  0.0404
  838MOL0     H10579   8.002   9.867   4.202 -2.3320 -0.5142 -1.6115
  838MOL0     H10580   7.546  10.079   4.058  1.8883  0.3774  1.7999
  838MOL0     H10581   7.326  10.002   4.123 -0.3882  0.6593  0.9499
  838MOL0     H10582   7.148   9.826   4.098 -0.0153  2.9850 -0.1735
  838MOL0     H10583   7.111   9.917   4.237 -0.7762 -0.5423 -1.0910
  838MOL0     H10584   7.002   9.711   4.341 -1.2276  0.7541 -0.8838
  838MOL0     H10585   7.083   9.603   4.237 -0.4675  1.2858  0.5417
  838MOL0     H10586   6.930   9.697   4.053  1.2211  2.1783  0.0536
  838MOL0     H10587   6.895   9.830   4.149  2.1233 -0.4631 -2.0976
  838MOL0     H10588   6.832   9.542   4.202  4.4367  1.8569 -0.8116
  838MOL0     H10589   6.779   9.667   4.315 -1.4869  1.1613 -1.2983
  838MOL0     H10590   6.701   9.658   4.018 -2.1747 -0.2368 -0.3469
  838MOL0     H10591   6.641   9.771   4.147 -1.0320 -1.1411  3.9838
  838MOL0     H10592   6.503   9.611   4.244 -1.1733 -0.5329 -0.4702
  838MOL0     H10593   6.595   9.478   4.144 -3.6052 -0.7885 -2.2435
  838MOL0     H10594   6.412   9.688   4.034 -0.8921  0.0272  2.6132
  838MOL0     H10595   6.470   9.521   3.962  1.8318 -1.4692  1.5625
  838MOL0     H10596   6.263   9.589   4.169  3.3425  0.2340  2.4905
  838MOL0     H10597   6.330   9.424   4.128  1.0364 -0.0584 -0.6227
  838MOL0     H10598   7.484   9.650   4.312  0.7069  0.8091  3.1909
  838MOL0     H10599   7.726   9.748   4.259  0.8109  2.5616  1.5729
  838MOL0     H10600   8.005  10.208   3.945 -1.7485 -0.4556 -0.2239
  838MOL0     H10601   8.263  10.208   3.967  0.7809  0.1597 -0.4285
  838MOL0     H10602  10.151   9.844   3.760 -0.1130 -0.0809  0.7480
  838MOL0     H10603  10.394   9.776   3.706  0.5519 -1.4660 -1.4874
  838MOL0     H10604  10.683   9.685   3.568  2.1955  0.3883  0.4463
  838MOL0     H10605  10.912   9.692   3.483 -0.1860 -0.9932 -1.7685
  838MOL0     H10606  11.282   9.430   3.497 -0.4799  1.9365  0.2015
  838MOL0     H10607  11.177   9.397   3.640  0.7285 -0.6348  0.9355
  838MOL0     H10608  11.282   9.684   3.571 -1.4723  0.6853  1.1211
  838MOL0     H10609  11.189   9.629   3.708  0.0022  1.4917  0.0956
  838MOL0     H10610  11.367   9.477   3.789 -1.9928  0.4760 -1.1376
  838MOL0     H10611  11.404   9.653   3.788  1.1060  0.3665  1.2863
  838MOL0     H10612  11.510   9.490   3.555  0.1742 -1.9018  0.5220
  838MOL0     H10613  11.552   9.651   3.607 -0.1932 -0.5196 -0.7011
  838MOL0     H10614  11.825   9.393   3.793 -0.1509 -3.1917 -3.3203
  838MOL0     H10615  10.993   9.301   3.653 -1.6786 -1.5842 -1.6102
  838MOL0     H10616  10.780   9.296   3.749  2.1484 -0.7776 -0.9084
  839MOL0     O10617   2.967   8.768  10.842 -0.1538  0.2500 -0.4312
  839MOL0     C10618   2.872   8.840  10.867  0.0339 -0.3624  0.2003
  839MOL0     O10619   2.874   8.968  10.897  0.2436 -0.1959 -0.3855
  839MOL0     C10620   2.990   9.034  10.893 -0.7545 -0.4047 -0.0879
  839MOL0     C10621   3.105   8.995  10.957  0.4538  0.1721 -0.5221
  839MOL0     C10622   3.224   9.068  10.945  0.2608 -0.4978 -0.0982
  839MOL0     C10623   3.220   9.193  10.879 -0.0291  0.0166  0.5734
  839MOL0     O10624   3.342   9.258  10.862 -0.8966 -0.0300 -0.3546
  839MOL0     C10625   3.463   9.204  10.917 -0.1214  0.2698 -0.7900
  839MOL0     C10626   3.579   9.296  10.878 -0.4802  0.6216  0.0994
  839MOL0     C10627   3.703   9.266  10.963 -0.7201 -0.4907  0.4412
  839MOL0     C10628   3.785   9.151  10.908  0.3577 -0.4676  1.2442
  839MOL0     C10629   3.903   9.115  10.994 -0.7819 -0.0282 -0.4556
  839MOL0     C10630   4.013   9.226  11.026  0.2226 -0.7184  0.2142
  839MOL0     C10631   4.065   9.289  10.898 -0.1935  0.7217  0.2421
  839MOL0     C10632   4.199   9.363  10.927 -0.4549 -0.9002  0.2379
  839MOL0     N10633   4.196   9.436  11.055  0.0809 -0.6756 -0.5208
  839MOL0     C10634   4.258   9.400  11.171  0.4043 -0.0312  0.5815
  839MOL0     C10635   4.228   9.503  11.258 -0.4105 -0.4489 -0.5388
  839MOL0     C10636   4.271   9.515  11.400 -0.1015  0.1827  0.2930
  839MOL0     C10637   4.425   9.491  11.407  0.1972  0.1886 -0.6166
  839MOL0     C10638   4.491   9.527  11.543 -0.9831  0.3026 -0.3065
  839MOL0     C10639   4.637   9.477  11.541  0.2459  0.8737 -0.4864
  839MOL0     O10640   4.707   9.471  11.667 -0.4428 -0.5127  0.0248
  839MOL0     C10641   4.785   9.355  11.675  0.0420 -0.0052 -0.6566
  839MOL0     C10642   4.901   9.345  11.598  0.4989  0.2636  0.7164
  839MOL0     C10643   4.979   9.237  11.618  0.2462 -0.3787 -0.0953
  839MOL0     C10644   4.944   9.124  11.697  0.3250  0.3113 -0.6668
  839MOL0     C10645   5.032   9.005  11.697 -0.3047  0.0948 -0.5898
  839MOL0     O10646   5.098   8.989  11.583  0.3140 -0.2578 -0.0549
  839MOL0     C10647   5.183   8.881  11.571 -0.6769 -0.1080  0.5812
  839MOL0     C10648   5.136   8.750  11.593 -0.1170 -0.5723 -0.7482
  839MOL0     C10649   5.230   8.647  11.585  0.7877  0.4327 -0.2577
  839MOL0     C10650   5.360   8.674  11.551 -0.1866 -0.0199  0.3646
  839MOL0     O10651   5.451   8.581  11.544 -0.2763  0.2849  0.1504
  839MOL0     C10652   5.565   8.592  11.629  0.3485  0.2259 -0.1587
  839MOL0     C10653   5.538   8.536  11.768 -0.7747 -0.1174  0.1788
  839MOL0     C10654   5.498   8.391  11.757 -0.5804  0.2165  0.1667
  839MOL0     C10655   5.517   8.318  11.894  0.5265  0.5329 -0.3634
  839MOL0     C10656   5.490   8.164  11.888 -0.1074  0.6324  0.4741
  839MOL0     C10657   5.596   8.092  11.802 -0.2244 -0.2970 -0.1043
  839MOL0     C10658   5.595   7.941  11.847 -0.6916 -1.1022 -0.8175
  839MOL0     C10659   5.475   7.865  11.828  0.1416 -0.1368 -0.1158
  839MOL0    Cl10660   5.499   7.690  11.868 -0.1786 -0.1525 -0.1502
  839MOL0     C10661   5.406   8.805  11.523  0.0075  0.1930 -0.3932
  839MOL0     C10662   5.316   8.912  11.531  0.5303 -0.3280  0.1605
  839MOL0     O10663   5.055   8.951  11.803  0.2617  0.3647  0.3275
  839MOL0     C10664   4.834   9.130  11.776  0.1543  0.1274  0.1724
  839MOL0     C10665   4.759   9.247  11.765  0.5542  0.7525  0.2040
  839MOL0     N10666   4.165   9.601  11.187  0.3381  0.9287  0.2403
  839MOL0     N10667   4.148   9.561  11.065  0.3430  0.3190 -0.0882
  839MOL0     C10668   3.103   9.238  10.818 -0.2384 -0.5143 -1.0309
  839MOL0     C10669   2.989   9.161  10.823  0.2268  0.7426  0.2414
  839MOL0     C10670   2.746   8.768  10.866  0.7920 -0.0299 -0.0025
  839MOL0     C10671   2.629   8.833  10.912  0.1008 -0.3102  0.0940
  839MOL0     C10672   2.504   8.767  10.917  0.3496 -0.0345  0.6741
  839MOL0     C10673   2.495   8.642  10.850 -0.6459  0.1574 -0.3708
  839MOL0     O10674   2.369   8.583  10.847 -0.0157  0.2019  0.9600
  839MOL0     C10675   2.344   8.458  10.777 -0.5499  0.2699 -0.3056
  839MOL0     C10676   2.193   8.438  10.762 -0.7219 -0.4720 -0.8704
  839MOL0     C10677   2.180   8.287  10.726 -0.0097 -0.8185  0.6017
  839MOL0     C10678   2.030   8.245  10.713 -0.2516 -0.4567  0.5461
  839MOL0     C10679   1.960   8.266  10.839  0.8147 -0.0329  0.5111
  839MOL0     C10680   1.922   8.292  10.949  0.3570  0.3821 -0.7087
  839MOL0     C10681   2.612   8.570  10.813  0.3048 -0.5233 -0.2240
  839MOL0     C10682   2.734   8.638  10.817  0.5414 -0.1490 -0.8041
  839MOL0     H10683   3.099   8.905  11.018 -1.9561 -1.6589 -3.1845
  839MOL0     H10684   3.315   9.025  10.986  0.4142 -1.6880 -1.5970
  839MOL0     H10685   3.475   9.112  10.858  1.0599  0.7906 -1.3896
  839MOL0     H10686   3.459   9.190  11.025  0.3854 -2.2226 -1.0345
  839MOL0     H10687   3.556   9.402  10.895 -0.2252  0.6276  0.4091
  839MOL0     H10688   3.611   9.286  10.774 -0.8270 -2.0266  0.1866
  839MOL0     H10689   3.698   9.250  11.071  2.2586  0.3621  0.7847
  839MOL0     H10690   3.767   9.353  10.947  0.3319 -1.4342 -0.6516
  839MOL0     H10691   3.721   9.064  10.890 -1.0852  1.0773 -1.9625
  839MOL0     H10692   3.812   9.186  10.807 -1.5268  1.6462  1.3884
  839MOL0     H10693   3.959   9.032  10.951  0.4848  0.4424  0.2377
  839MOL0     H10694   3.862   9.076  11.088  0.8309 -1.1756 -0.1897
  839MOL0     H10695   4.101   9.190  11.080  1.6903  3.1849  0.8124
  839MOL0     H10696   3.973   9.312  11.082  1.7692  1.3261 -1.6309
  839MOL0     H10697   4.073   9.205  10.829 -1.4543  2.0925 -1.7104
  839MOL0     H10698   3.998   9.361  10.850 -0.0477  0.6707 -0.0408
  839MOL0     H10699   4.213   9.430  10.842  3.2468 -3.2358 -1.2245
  839MOL0     H10700   4.286   9.297  10.925  0.7628  0.6345  0.2613
  839MOL0     H10701   4.319   9.314  11.196  0.6584  0.3248  1.1955
  839MOL0     H10702   4.220   9.431  11.447  1.7963 -0.9269  0.4886
  839MOL0     H10703   4.236   9.612  11.438  2.1382  2.6572 -3.3134
  839MOL0     H10704   4.468   9.546  11.323 -1.8233  3.2903  0.2320
  839MOL0     H10705   4.446   9.385  11.386  1.5379  0.2012  0.5361
  839MOL0     H10706   4.489   9.635  11.563  0.9134 -0.0269  2.1055
  839MOL0     H10707   4.427   9.488  11.623 -1.6501  1.7195 -0.0997
  839MOL0     H10708   4.700   9.523  11.465  0.8722  1.9783  0.6649
  839MOL0     H10709   4.625   9.375  11.503 -1.5650  1.1493 -0.7344
  839MOL0     H10710   4.927   9.421  11.525 -2.3765 -1.9447 -3.0460
  839MOL0     H10711   5.059   9.227  11.545 -0.6682  0.5816 -1.2912
  839MOL0     H10712   5.033   8.742  11.625  0.5350  3.2206  3.0971
  839MOL0     H10713   5.208   8.545  11.618  3.6369 -0.1538  0.0966
  839MOL0     H10714   5.612   8.690  11.626 -0.3389  0.5486 -0.4802
  839MOL0     H10715   5.639   8.530  11.577  0.9161  0.3067  0.5301
  839MOL0     H10716   5.463   8.588  11.827 -3.1324 -1.7029 -1.2671
  839MOL0     H10717   5.633   8.539  11.822  0.1984  0.6802 -1.4900
  839MOL0     H10718   5.556   8.342  11.678  0.4453  1.4412  0.1293
  839MOL0     H10719   5.394   8.383  11.723 -0.4248 -1.8965  0.0760
  839MOL0     H10720   5.622   8.317  11.925  0.7378 -1.9943 -0.9184
  839MOL0     H10721   5.449   8.363  11.966  2.8140  0.7529  1.7790
  839MOL0     H10722   5.389   8.133  11.857  0.5497 -0.3521 -0.7608
  839MOL0     H10723   5.493   8.136  11.994 -2.3004 -0.2359  0.3580
  839MOL0     H10724   5.692   8.142  11.819 -0.4405 -0.2854  1.1287
  839MOL0     H10725   5.577   8.102  11.695 -1.1356  1.6811  0.2098
  839MOL0     H10726   5.677   7.886  11.800 -1.0000  0.0388 -2.7995
  839MOL0     H10727   5.615   7.939  11.955  0.7177  0.0790 -1.0347
  839MOL0     H10728   5.450   7.859  11.721 -1.6909 -2.0330  0.3345
  839MOL0     H10729   5.388   7.916  11.869 -0.0513 -0.5362 -0.0201
  839MOL0     H10730   5.508   8.824  11.493  1.3765 -0.8979  3.0349
  839MOL0     H10731   5.348   9.012  11.503  1.7237 -0.8596 -0.4552
  839MOL0     H10732   4.820   9.044  11.840  1.5365 -0.0078  0.3234
  839MOL0     H10733   4.669   9.280  11.817  0.3396  0.9497 -0.2878
  839MOL0     H10734   3.107   9.334  10.768  1.3491  0.1552  0.2670
  839MOL0     H10735   2.894   9.191  10.780 -0.0378  2.6969  2.0119
  839MOL0     H10736   2.642   8.928  10.962 -1.3302 -0.9092  1.6674
  839MOL0     H10737   2.413   8.815  10.952  1.5559  1.1539  2.3760
  839MOL0     H10738   2.396   8.373  10.822 -0.5182 -0.1856 -1.1887
  839MOL0     H10739   2.374   8.463  10.672 -0.7441  1.4985 -0.3202
  839MOL0     H10740   2.154   8.464  10.861  0.2548 -2.7092  0.1814
  839MOL0     H10741   2.158   8.510  10.688  0.5358  2.5313  1.2589
  839MOL0     H10742   2.227   8.221  10.799  2.0004 -2.6989 -2.1706
  839MOL0     H10743   2.219   8.274  10.625 -0.9574  1.0023 -0.0293
  839MOL0     H10744   1.983   8.312  10.641  1.2092 -1.0276 -1.0140
  839MOL0     H10745   2.028   8.141  10.680 -0.0037 -1.0599  2.3558
  839MOL0     H10746   1.880   8.325  11.042  0.4001  2.0512 -1.2377
  839MOL0     H10747   2.607   8.465  10.786  0.0916 -1.2580  2.3325
  839MOL0     H10748   2.822   8.586  10.781  1.1212 -1.3656  2.0871
  840MOL0     O10749   1.697   9.736   2.118  0.6102  0.5821  0.3707
  840MOL0     C10750   1.764   9.808   2.188 -0.8759  0.1664 -0.1267
  840MOL0     O10751   1.888   9.781   2.235  0.3364  0.0757 -0.2578
  840MOL0     C10752   1.945   9.666   2.188 -0.7751  0.6334  0.2047
  840MOL0     C10753   2.031   9.684   2.080  0.0923  0.1154 -0.6896
  840MOL0     C10754   2.117   9.576   2.037  0.1880 -0.3922 -0.9780
  840MOL0     C10755   2.112   9.449   2.101  0.0106  0.3227 -0.4750
  840MOL0     O10756   2.207   9.360   2.063 -0.0490 -0.4148 -0.2869
  840MOL0     C10757   2.349   9.380   2.073  0.4704 -0.7549  0.4545
  840MOL0     C10758   2.422   9.246   2.080  0.3114 -0.1213  0.5651
  840MOL0     C10759   2.409   9.164   2.205 -0.2889 -0.0710  0.2753
  840MOL0     C10760   2.486   9.029   2.192  0.1710 -0.3621  0.2949
  840MOL0     C10761   2.475   8.927   2.311 -0.3635 -0.1532  0.2404
  840MOL0     C10762   2.333   8.862   2.293 -0.2189 -1.2105  0.4554
  840MOL0     C10763   2.311   8.765   2.406 -0.7723 -0.1245 -0.3177
  840MOL0     C10764   2.177   8.677   2.384 -0.5973 -0.1247 -0.9856
  840MOL0     N10765   2.166   8.603   2.518 -0.2796 -0.2982  0.1320
  840MOL0     C10766   2.225   8.475   2.533 -0.0762  0.3701  0.2833
  840MOL0     C10767   2.154   8.413   2.630 -0.5503 -0.7047 -0.2016
  840MOL0     C10768   2.160   8.278   2.692  0.1133 -0.4893  0.4591
  840MOL0     C10769   2.212   8.300   2.835 -0.5722 -0.1839 -0.4786
  840MOL0     C10770   2.224   8.167   2.908 -0.0504 -0.4359 -0.0644
  840MOL0     C10771   2.102   8.132   2.986  0.5121  0.1831  0.0656
  840MOL0     O10772   2.077   8.209   3.108  0.2263  0.3061  0.0013
  840MOL0     C10773   1.958   8.172   3.164  0.1044 -0.7638  0.3240
  840MOL0     C10774   1.891   8.042   3.145 -0.2967 -1.0417  0.2183
  840MOL0     C10775   1.766   8.012   3.202 -0.0505 -0.3443  0.4668
  840MOL0     C10776   1.710   8.108   3.295 -0.7130  0.0422 -0.5024
  840MOL0     C10777   1.583   8.089   3.369 -0.0826  0.2054 -0.9278
  840MOL0     O10778   1.543   8.178   3.472  0.4705  0.2712  0.1812
  840MOL0     C10779   1.447   8.142   3.563  0.2621 -0.2125 -0.4377
  840MOL0     C10780   1.485   8.129   3.696  0.1042  0.2927 -0.3013
  840MOL0     C10781   1.390   8.090   3.793  0.8381  0.5172 -0.1219
  840MOL0     C10782   1.257   8.066   3.760  0.2790  0.3448  0.9192
  840MOL0     O10783   1.161   8.026   3.855 -0.7301  0.3774  0.6589
  840MOL0     C10784   1.191   8.040   3.994 -0.1268  0.5577  0.9300
  840MOL0     C10785   1.063   8.024   4.077 -0.4403  0.1173 -0.3373
  840MOL0     C10786   0.965   8.146   4.047 -0.2904  0.0254  0.7675
  840MOL0     C10787   1.014   8.273   4.118  0.2224  0.1535  0.4473
  840MOL0     C10788   0.917   8.384   4.071  0.5808  0.2111  0.1837
  840MOL0     C10789   0.921   8.520   4.145 -0.3881  1.1226 -0.3921
  840MOL0     C10790   0.873   8.508   4.288  1.4476  0.4382 -0.6336
  840MOL0     C10791   0.840   8.637   4.354  0.5182 -0.4138 -0.1965
  840MOL0    Cl10792   0.696   8.715   4.276  0.0205 -0.1536 -0.0206
  840MOL0     C10793   1.219   8.075   3.630  0.4231 -0.5318  0.2128
  840MOL0     C10794   1.312   8.116   3.535  0.5038  0.6233  0.4285
  840MOL0     O10795   1.536   7.978   3.356  0.0234 -0.3425 -0.3254
  840MOL0     C10796   1.780   8.227   3.316 -0.0230 -1.3461 -0.1292
  840MOL0     C10797   1.899   8.261   3.254 -0.0797 -0.2499  0.5656
  840MOL0     N10798   2.063   8.514   2.665  0.4200  0.3492  0.4471
  840MOL0     N10799   2.064   8.624   2.600  0.3679 -0.8847  0.2258
  840MOL0     C10800   2.016   9.427   2.206 -0.6770 -0.3029  0.3759
  840MOL0     C10801   1.942   9.539   2.252  0.9055 -0.3942  0.4724
  840MOL0     C10802   1.704   9.930   2.229  0.3764 -0.1735 -0.3782
  840MOL0     C10803   1.756  10.011   2.326 -0.5368  0.0150  0.4737
  840MOL0     C10804   1.690  10.122   2.373  0.5478 -0.0732 -0.1313
  840MOL0     C10805   1.559  10.147   2.343  0.0366  0.2303 -0.2348
  840MOL0     O10806   1.479  10.248   2.390  0.1556 -0.5175 -0.1208
  840MOL0     C10807   1.452  10.230   2.535  0.0181  0.3905  0.1908
  840MOL0     C10808   1.344  10.327   2.582  0.9483  0.4903 -0.2605
  840MOL0     C10809   1.382  10.481   2.577 -0.1689  0.6457  0.0671
  840MOL0     C10810   1.277  10.583   2.622 -0.3089  0.1261  0.0074
  840MOL0     C10811   1.202  10.546   2.742  0.0141  0.3589 -0.1886
  840MOL0     C10812   1.149  10.518   2.849 -0.3818  1.1485  0.6619
  840MOL0     C10813   1.511  10.078   2.238  0.6587  0.3110 -0.4118
  840MOL0     C10814   1.577   9.974   2.186 -0.2827 -0.3437 -0.6688
  840MOL0     H10815   2.045   9.784   2.040 -0.7568  0.3784 -0.3504
  840MOL0     H10816   2.185   9.605   1.957  1.5982 -1.3017 -0.1498
  840MOL0     H10817   2.373   9.429   2.167 -3.1292  0.6435  0.7977
  840MOL0     H10818   2.387   9.435   1.987  0.8369 -0.3248  0.8893
  840MOL0     H10819   2.527   9.262   2.052 -0.5729  1.0806 -2.5706
  840MOL0     H10820   2.370   9.188   2.004 -1.3361  0.6033  1.1031
  840MOL0     H10821   2.300   9.156   2.217 -1.1051  0.5632 -4.4114
  840MOL0     H10822   2.452   9.227   2.284  0.0180 -0.2712  0.2688
  840MOL0     H10823   2.448   8.992   2.097 -1.1734  0.0622  0.6450
  840MOL0     H10824   2.592   9.036   2.165  0.0294  0.4597 -0.0539
  840MOL0     H10825   2.481   8.988   2.402 -4.8032  1.9586 -0.5654
  840MOL0     H10826   2.555   8.854   2.299  0.8563  1.3056 -0.7343
  840MOL0     H10827   2.326   8.803   2.201 -0.6325  0.4141 -0.6060
  840MOL0     H10828   2.255   8.939   2.287  0.9484 -0.0798 -0.7391
  840MOL0     H10829   2.390   8.689   2.403 -2.4009 -1.9232  0.4976
  840MOL0     H10830   2.313   8.817   2.502 -2.3042  1.5544 -1.1179
  840MOL0     H10831   2.182   8.619   2.292  0.0747 -0.7967 -0.5392
  840MOL0     H10832   2.089   8.742   2.391 -0.1603  0.3115  2.6288
  840MOL0     H10833   2.295   8.429   2.464  0.7958  1.0125  0.7210
  840MOL0     H10834   2.228   8.209   2.641 -0.5251 -0.8792  0.1236
  840MOL0     H10835   2.060   8.236   2.683 -0.5510  1.0802  0.1446
  840MOL0     H10836   2.142   8.366   2.887 -1.7894 -0.7562 -1.3591
  840MOL0     H10837   2.312   8.345   2.833 -0.7363  0.1882 -0.3911
  840MOL0     H10838   2.252   8.085   2.841 -1.8785 -1.0678 -0.1227
  840MOL0     H10839   2.310   8.173   2.974  0.1692 -0.1616 -0.3716
  840MOL0     H10840   2.116   8.029   3.018 -1.5207 -0.6462 -1.4949
  840MOL0     H10841   2.010   8.141   2.928 -0.1411 -2.6081  0.5582
  840MOL0     H10842   1.933   7.963   3.085  1.5283  0.3670 -0.4346
  840MOL0     H10843   1.733   7.909   3.203  1.1439 -0.7321  1.3822
  840MOL0     H10844   1.590   8.142   3.720  0.0143 -1.3664  1.1234
  840MOL0     H10845   1.422   8.079   3.896  0.2212 -1.6267 -0.1195
  840MOL0     H10846   1.236   8.135   4.022  0.7587  0.8228 -1.1924
  840MOL0     H10847   1.265   7.962   4.014  1.3338  1.5266 -0.4719
  840MOL0     H10848   1.084   8.022   4.184 -0.3596  1.5433 -0.3033
  840MOL0     H10849   1.011   7.931   4.052  1.2818 -1.6569  2.1953
  840MOL0     H10850   0.865   8.129   4.087 -1.3528  2.4022 -0.6541
  840MOL0     H10851   0.960   8.168   3.940 -0.2905 -0.2264  0.7157
  840MOL0     H10852   1.006   8.251   4.225 -2.3503 -1.5051 -0.0022
  840MOL0     H10853   1.118   8.293   4.090  0.0213  0.3055 -0.2064
  840MOL0     H10854   0.814   8.348   4.065  1.0806 -1.0660 -1.7008
  840MOL0     H10855   0.958   8.408   3.972 -1.6053  1.6720 -0.4476
  840MOL0     H10856   0.858   8.592   4.092  0.1491  1.3128 -0.7723
  840MOL0     H10857   1.023   8.556   4.154  0.2774 -0.7485 -0.0729
  840MOL0     H10858   0.781   8.449   4.297  1.2566  0.6081 -1.3883
  840MOL0     H10859   0.948   8.452   4.345  0.0229 -0.4645  0.4348
  840MOL0     H10860   0.927   8.702   4.364  0.6607 -0.3978 -1.3378
  840MOL0     H10861   0.799   8.613   4.452  0.0350 -1.9426 -0.7307
  840MOL0     H10862   1.114   8.062   3.608 -0.6437  0.5531  3.9748
  840MOL0     H10863   1.275   8.113   3.433  0.3519  1.1981  0.4620
  840MOL0     H10864   1.739   8.303   3.381  2.5816  0.7424 -0.7390
  840MOL0     H10865   1.945   8.358   3.266  0.5524 -0.7356  2.4761
  840MOL0     H10866   2.017   9.330   2.254 -0.2820 -0.6602 -0.3365
  840MOL0     H10867   1.869   9.524   2.331  1.6726 -1.5237  0.9942
  840MOL0     H10868   1.850   9.997   2.379  0.5718 -0.5967 -1.5461
  840MOL0     H10869   1.746  10.187   2.440  1.5210 -1.2663  0.2631
  840MOL0     H10870   1.542  10.237   2.597  2.1762 -3.4723 -2.0848
  840MOL0     H10871   1.405  10.134   2.555  0.0900  0.2654 -0.2197
  840MOL0     H10872   1.258  10.323   2.515 -0.0462  1.7772  0.8879
  840MOL0     H10873   1.317  10.301   2.685 -0.7359 -2.5586 -1.3602
  840MOL0     H10874   1.438  10.504   2.486  0.6513 -0.4838  0.2579
  840MOL0     H10875   1.461  10.490   2.653  0.9976  0.5451 -1.1057
  840MOL0     H10876   1.324  10.681   2.622  0.2363 -0.0920 -2.1707
  840MOL0     H10877   1.197  10.591   2.548 -2.0244 -1.3721  1.5821
  840MOL0     H10878   1.102  10.478   2.936  1.1591 -1.7131  0.2980
  840MOL0     H10879   1.410  10.093   2.200  0.1192  2.4715  1.6276
  840MOL0     H10880   1.536   9.910   2.109  3.0668 -3.0229 -0.4573
  841MOL0     O10881   1.093   0.178   8.271  0.0842 -0.0918 -0.2127
  841MOL0     C10882   1.143   0.281   8.226 -0.1410 -0.3419 -0.7830
  841MOL0     O10883   1.098   0.409   8.234 -0.8055 -0.3624 -0.7844
  841MOL0     C10884   0.985   0.430   8.312 -0.4395  0.0474  0.4856
  841MOL0     C10885   1.013   0.487   8.436  0.0757 -0.0881 -0.4122
  841MOL0     C10886   0.913   0.537   8.508  0.9642 -0.3034 -0.7741
  841MOL0     C10887   0.778   0.539   8.464 -0.0761 -1.0847 -0.4041
  841MOL0     O10888   0.678   0.599   8.535 -0.3202 -0.3025  0.2118
  841MOL0     C10889   0.709   0.691   8.635  0.1003  0.7222 -0.4337
  841MOL0     C10890   0.606   0.804   8.641  0.2422 -0.2403  0.1595
  841MOL0     C10891   0.463   0.772   8.678 -0.1202  0.4000  0.2455
  841MOL0     C10892   0.375   0.897   8.688 -1.3198 -0.0657 -0.4553
  841MOL0     C10893   0.244   0.869   8.759  0.7763 -0.4716 -0.0878
  841MOL0     C10894   0.147   0.988   8.748 -0.0477  0.1408  0.3423
  841MOL0     C10895   0.078   0.976   8.614  0.9403  0.7069  0.1967
  841MOL0     C10896   0.021   1.116   8.578 -1.1787  0.7416 -0.7709
  841MOL0     N10897  -0.035   1.107   8.443  0.3330  0.7021  0.2054
  841MOL0     C10898   0.043   1.122   8.331  0.0377  0.9905 -0.0307
  841MOL0     C10899  -0.041   1.097   8.232 -0.6085 -0.9468 -0.6810
  841MOL0     C10900  -0.010   1.088   8.088 -0.0451  1.1205 -0.1938
  841MOL0     C10901  -0.060   0.952   8.033 -0.1238 -0.0082  0.7412
  841MOL0     C10902  -0.031   0.946   7.890  0.6508  0.7446  0.6313
  841MOL0     C10903  -0.059   0.809   7.826 -1.0788  0.0109  0.0707
  841MOL0     O10904  -0.011   0.704   7.901 -0.4108  0.3681 -0.5702
  841MOL0     C10905   0.125   0.674   7.901  0.1976  0.1874 -0.3154
  841MOL0     C10906   0.223   0.747   7.823  0.1384 -0.0943  0.5543
  841MOL0     C10907   0.360   0.717   7.814 -0.5369  0.6292 -0.8267
  841MOL0     C10908   0.409   0.608   7.890  0.7644  0.5557  0.1009
  841MOL0     C10909   0.547   0.582   7.898 -0.3245 -0.8740 -0.1596
  841MOL0     O10910   0.626   0.628   7.800 -0.1817 -0.0971  0.2308
  841MOL0     C10911   0.758   0.605   7.787 -0.5540  0.2000 -0.1288
  841MOL0     C10912   0.817   0.590   7.660  0.1680  0.0504  0.3311
  841MOL0     C10913   0.955   0.558   7.640 -0.4692 -0.3569 -0.8220
  841MOL0     C10914   1.041   0.544   7.748  0.6071  0.1607  0.3052
  841MOL0     O10915   1.174   0.512   7.731 -0.3916  0.1499  0.0644
  841MOL0     C10916   1.239   0.561   7.609 -0.8797  0.6836  0.5022
  841MOL0     C10917   1.387   0.579   7.635  0.2222  0.1448  0.7159
  841MOL0     C10918   1.468   0.453   7.594  0.4915  0.1392 -0.0390
  841MOL0     C10919   1.620   0.481   7.587 -0.5374  0.1342 -0.2183
  841MOL0     C10920   1.685   0.489   7.719 -0.2437  0.3085 -1.3830
  841MOL0     C10921   1.820   0.567   7.737  0.7024 -0.3802  0.2236
  841MOL0     C10922   1.931   0.497   7.659 -0.5590 -0.3366  0.5518
  841MOL0     C10923   2.063   0.509   7.735  0.0864 -0.0547 -1.2297
  841MOL0    Cl10924   2.203   0.452   7.652  0.1659 -0.3563 -0.2593
  841MOL0     C10925   0.991   0.563   7.881 -0.4940 -0.2359  0.6493
  841MOL0     C10926   0.848   0.586   7.896  0.0031 -1.0419 -0.1369
  841MOL0     O10927   0.592   0.519   7.997  0.2168  0.2921  0.8556
  841MOL0     C10928   0.314   0.522   7.955  0.4755 -0.6913 -1.0274
  841MOL0     C10929   0.180   0.562   7.961 -0.2128 -0.9028 -0.6226
  841MOL0     N10930  -0.167   1.091   8.281  0.1932  0.1935 -0.9255
  841MOL0     N10931  -0.165   1.095   8.409 -0.2086 -0.2274  0.1817
  841MOL0     C10932   0.745   0.475   8.342  0.3060 -0.3433 -0.5255
  841MOL0     C10933   0.854   0.420   8.265  0.3271  1.0293  0.0473
  841MOL0     C10934   1.266   0.261   8.153 -0.8354  0.5678 -0.7416
  841MOL0     C10935   1.352   0.150   8.177  0.1639  1.1383  0.0332
  841MOL0     C10936   1.472   0.122   8.100 -0.7439 -0.0207 -0.9940
  841MOL0     C10937   1.497   0.216   8.001 -0.3141  0.3953  0.5362
  841MOL0     O10938   1.605   0.204   7.915  0.6012 -0.5959  0.0998
  841MOL0     C10939   1.702   0.110   7.933  0.5280  0.1302  0.2890
  841MOL0     C10940   1.807   0.110   7.816 -0.9990  0.1088  0.0418
  841MOL0     C10941   1.943   0.087   7.874 -0.0179  0.6027 -0.2579
  841MOL0     C10942   2.044   0.056   7.757  0.2455 -0.6877  0.4283
  841MOL0     C10943   2.187   0.047   7.796  0.0125  0.2108 -0.7395
  841MOL0     C10944   2.304   0.047   7.818 -0.6835 -0.0592  0.0414
  841MOL0     C10945   1.409   0.323   7.969 -0.1261  0.1275 -0.5554
  841MOL0     C10946   1.297   0.347   8.049  0.6944  0.1339 -0.0914
  841MOL0     H10947   1.115   0.501   8.472 -0.6031  5.6944  0.1824
  841MOL0     H10948   0.953   0.593   8.593  1.2794  2.6845 -2.7463
  841MOL0     H10949   0.808   0.737   8.641 -1.1461  3.5933 -0.2458
  841MOL0     H10950   0.696   0.640   8.731 -1.4694  1.1232 -0.4060
  841MOL0     H10951   0.600   0.864   8.550 -1.4353 -1.3907 -0.5416
  841MOL0     H10952   0.639   0.868   8.724  1.1407  0.5040 -0.7404
  841MOL0     H10953   0.464   0.726   8.777 -0.8914  0.1467  0.1484
  841MOL0     H10954   0.423   0.697   8.608  2.5490 -2.6037  1.6803
  841MOL0     H10955   0.426   0.976   8.745 -1.7854 -0.6930  0.8914
  841MOL0     H10956   0.365   0.942   8.589  0.0610 -1.0779 -1.0631
  841MOL0     H10957   0.265   0.840   8.862 -0.9097  2.2050  1.1316
  841MOL0     H10958   0.183   0.784   8.727 -0.2121 -0.9964  2.8771
  841MOL0     H10959   0.208   1.079   8.758  1.4187 -0.5572 -1.7781
  841MOL0     H10960   0.072   0.991   8.829 -1.1288 -0.9627 -0.5869
  841MOL0     H10961   0.138   0.936   8.532  0.5339 -1.0191  0.6978
  841MOL0     H10962  -0.007   0.907   8.624 -0.9969  3.0155  0.6629
  841MOL0     H10963   0.107   1.184   8.582 -1.5717  1.2325 -0.4553
  841MOL0     H10964  -0.047   1.141   8.660  2.9635 -0.2604  3.4309
  841MOL0     H10965   0.150   1.138   8.319 -0.1693  1.4186 -1.5789
  841MOL0     H10966   0.097   1.098   8.068 -0.1205 -0.4048 -1.6114
  841MOL0     H10967  -0.066   1.171   8.042 -1.0643  1.1687  1.0897
  841MOL0     H10968  -0.168   0.955   8.047 -0.1014 -0.5762  1.0220
  841MOL0     H10969  -0.024   0.867   8.092 -1.6102 -0.9204  0.3610
  841MOL0     H10970  -0.093   1.022   7.841  1.7358  1.0832 -0.2437
  841MOL0     H10971   0.074   0.972   7.877  0.8649  0.1885  1.1783
  841MOL0     H10972  -0.013   0.808   7.727  0.3496 -0.9237  0.7116
  841MOL0     H10973  -0.168   0.800   7.815 -0.7893 -2.8265 -1.2392
  841MOL0     H10974   0.191   0.819   7.749 -1.3712 -1.8961 -0.6418
  841MOL0     H10975   0.428   0.783   7.760  1.4455 -1.0341 -0.4686
  841MOL0     H10976   0.761   0.579   7.568  1.6249 -1.7073 -0.4054
  841MOL0     H10977   0.995   0.570   7.540  4.7716 -2.4687  0.6826
  841MOL0     H10978   1.203   0.664   7.604 -0.2516  0.8581 -1.0182
  841MOL0     H10979   1.212   0.512   7.515  1.0255  2.0175 -0.8127
  841MOL0     H10980   1.418   0.610   7.736  0.8010  0.3477  0.4836
  841MOL0     H10981   1.411   0.672   7.583 -1.2381  1.0389  1.5587
  841MOL0     H10982   1.435   0.433   7.492  0.8090  4.2488 -1.1446
  841MOL0     H10983   1.446   0.374   7.667  0.1972 -0.4717 -0.7787
  841MOL0     H10984   1.673   0.412   7.520 -2.1117  1.9927 -3.6192
  841MOL0     H10985   1.624   0.579   7.540  0.0980 -0.0650 -0.6016
  841MOL0     H10986   1.698   0.388   7.759 -2.1187  0.4748 -0.2393
  841MOL0     H10987   1.622   0.540   7.792 -2.1546 -1.5334 -1.6213
  841MOL0     H10988   1.846   0.574   7.843  3.4095 -3.6256 -0.0504
  841MOL0     H10989   1.808   0.672   7.709 -1.9624 -1.1340 -1.9184
  841MOL0     H10990   1.909   0.391   7.640  1.4867 -0.9983  1.5484
  841MOL0     H10991   1.928   0.551   7.565 -1.3355 -0.1780  0.6587
  841MOL0     H10992   2.054   0.454   7.829 -1.1588  0.0022 -1.3026
  841MOL0     H10993   2.082   0.611   7.770 -0.7015 -0.3976  0.2815
  841MOL0     H10994   1.052   0.545   7.970  1.8338  0.0825 -0.7891
  841MOL0     H10995   0.811   0.602   7.996  0.6498 -1.4586  0.1711
  841MOL0     H10996   0.348   0.429   8.000  2.4734  0.0146 -1.0005
  841MOL0     H10997   0.108   0.507   8.021  1.4064 -1.4601  0.8999
  841MOL0     H10998   0.642   0.461   8.311  0.5340 -0.4296 -1.2415
  841MOL0     H10999   0.836   0.370   8.171  0.9138 -0.6567  0.7862
  841MOL0     H11000   1.323   0.089   8.262 -4.2622 -0.1913 -2.1100
  841MOL0     H11001   1.534   0.035   8.120 -0.9673  0.1559  0.5539
  841MOL0     H11002   1.652   0.013   7.925 -0.7257  0.7944 -0.1478
  841MOL0     H11003   1.751   0.129   8.029 -1.9142  1.2864  1.3781
  841MOL0     H11004   1.775   0.035   7.743  0.0204 -0.3555  0.0494
  841MOL0     H11005   1.803   0.207   7.765  5.0373  0.5936 -0.2800
  841MOL0     H11006   1.944   0.001   7.941  1.2209  0.9173  0.1579
  841MOL0     H11007   1.968   0.174   7.936 -2.3047  1.3843 -0.3464
  841MOL0     H11008   2.028  -0.047   7.725  1.4212 -0.3975 -1.2279
  841MOL0     H11009   2.033   0.127   7.674  1.4786 -0.9266  0.0402
  841MOL0     H11010   2.410   0.044   7.831 -0.8515 -0.3789  1.5630
  841MOL0     H11011   1.435   0.384   7.883  0.3718 -1.2842 -1.4341
  841MOL0     H11012   1.238   0.431   8.013  0.9984  0.0056 -0.9159
  842MOL0     O11013   3.143   2.603   4.271 -0.3669 -0.3423  0.1447
  842MOL0     C11014   3.215   2.685   4.331 -0.7223 -0.6318  0.3583
  842MOL0     O11015   3.179   2.786   4.407 -0.4612  0.0653 -0.1195
  842MOL0     C11016   3.051   2.804   4.446  0.4063 -0.3405 -0.1676
  842MOL0     C11017   2.952   2.869   4.364 -0.3468  0.1501  0.6274
  842MOL0     C11018   2.824   2.880   4.404 -0.0133  0.2269 -0.0241
  842MOL0     C11019   2.781   2.831   4.533 -0.7471 -0.4340  0.3894
  842MOL0     O11020   2.656   2.860   4.563 -0.2884  0.2887  0.1204
  842MOL0     C11021   2.600   2.839   4.693 -0.3238  0.4349 -0.1318
  842MOL0     C11022   2.443   2.819   4.688 -0.5999 -0.4304  0.7142
  842MOL0     C11023   2.372   2.949   4.714 -0.9478 -0.2473  0.3782
  842MOL0     C11024   2.218   2.936   4.715 -0.0830 -0.0180  0.2842
  842MOL0     C11025   2.151   3.066   4.748 -0.1978 -0.5576  0.2532
  842MOL0     C11026   2.006   3.070   4.727  0.4071 -0.3165 -0.6828
  842MOL0     C11027   1.943   2.986   4.837  0.6066 -0.2699 -0.5175
  842MOL0     C11028   1.794   3.012   4.852  0.1331  1.0880  0.3619
  842MOL0     N11029   1.730   2.914   4.939 -0.4905 -0.3727  0.3129
  842MOL0     C11030   1.710   2.934   5.076  0.4893 -0.1538  0.4661
  842MOL0     C11031   1.654   2.822   5.119 -0.2539  0.4322  0.3133
  842MOL0     C11032   1.600   2.780   5.261  0.0045 -0.1174 -0.1277
  842MOL0     C11033   1.463   2.848   5.294 -0.2265  0.3356  0.3820
  842MOL0     C11034   1.348   2.784   5.211  0.0712 -0.4763 -0.4083
  842MOL0     C11035   1.202   2.831   5.273 -0.6803  0.5894 -0.0024
  842MOL0     O11036   1.160   2.728   5.359  0.0755 -0.3651 -1.2304
  842MOL0     C11037   1.033   2.720   5.412  0.4200 -0.4952 -0.4342
  842MOL0     C11038   0.995   2.618   5.502  0.9122  1.2726 -0.1912
  842MOL0     C11039   0.867   2.607   5.552 -0.2589  0.1298 -0.7147
  842MOL0     C11040   0.767   2.686   5.501 -0.7114 -0.3966 -0.1880
  842MOL0     C11041   0.633   2.681   5.556  0.0704  0.2769 -0.4866
  842MOL0     O11042   0.603   2.575   5.637  0.3483  0.0483 -0.3818
  842MOL0     C11043   0.483   2.562   5.693 -0.2341 -0.5902 -0.3220
  842MOL0     C11044   0.404   2.455   5.654 -0.0455  0.3709  0.1262
  842MOL0     C11045   0.277   2.448   5.717 -0.2840  0.3351  0.0498
  842MOL0     C11046   0.238   2.534   5.820 -0.0856  0.3326  0.2600
  842MOL0     O11047   0.121   2.496   5.889 -0.0890 -0.4445  0.1249
  842MOL0     C11048   0.120   2.514   6.028  0.7869  0.1165  0.3507
  842MOL0     C11049   0.182   2.398   6.106  0.2245 -0.6191 -0.1067
  842MOL0     C11050   0.118   2.257   6.072 -0.2546 -0.1847 -0.6574
  842MOL0     C11051   0.192   2.156   6.168  0.3580 -0.0626  0.0704
  842MOL0     C11052   0.145   2.019   6.130  0.1731 -0.4750 -0.3767
  842MOL0     C11053   0.189   1.911   6.234  0.3631  0.1148  0.0526
  842MOL0     C11054   0.151   1.771   6.211  0.1965  0.6579 -0.1797
  842MOL0     C11055   0.214   1.669   6.311  0.6204 -0.3469  0.2595
  842MOL0    Cl11056   0.127   1.516   6.327  0.1812 -0.1387 -0.1953
  842MOL0     C11057   0.321   2.643   5.851 -0.1440 -0.8897  0.1252
  842MOL0     C11058   0.448   2.651   5.796 -0.1620  1.4231  0.5938
  842MOL0     O11059   0.540   2.757   5.517 -0.0250  0.0922  0.0610
  842MOL0     C11060   0.802   2.792   5.407  0.0433  1.0541  0.0433
  842MOL0     C11061   0.931   2.816   5.371 -0.5788  0.7389 -0.5227
  842MOL0     N11062   1.644   2.737   5.006  0.5024 -0.4855 -0.7633
  842MOL0     N11063   1.697   2.793   4.904  0.3985  0.1398 -0.2322
  842MOL0     C11064   2.873   2.753   4.609 -0.5336 -0.0563 -0.2976
  842MOL0     C11065   3.011   2.747   4.566 -0.3317 -0.5455  0.3854
  842MOL0     C11066   3.364   2.673   4.299 -0.5515 -1.5816  0.2250
  842MOL0     C11067   3.414   2.569   4.225 -0.0784 -0.0967  1.0570
  842MOL0     C11068   3.549   2.548   4.216 -0.1772 -0.4313  0.6724
  842MOL0     C11069   3.645   2.639   4.269  1.1158  0.1844 -0.1386
  842MOL0     O11070   3.779   2.627   4.250 -0.1410 -0.1561  0.2578
  842MOL0     C11071   3.840   2.501   4.246  0.3815  0.0187  0.3782
  842MOL0     C11072   3.983   2.517   4.283  0.0423  0.3722  0.4810
  842MOL0     C11073   4.064   2.623   4.200  0.8512  0.2088  0.5075
  842MOL0     C11074   4.074   2.592   4.054 -0.3576  0.0331  0.4944
  842MOL0     C11075   4.151   2.473   4.039 -0.8003  0.6031 -0.5359
  842MOL0     C11076   4.233   2.391   4.033 -0.4839  0.3769  1.0452
  842MOL0     C11077   3.586   2.751   4.331  0.6315 -0.3526  0.1308
  842MOL0     C11078   3.451   2.768   4.355 -0.1376 -0.1559 -0.3726
  842MOL0     H11079   2.994   2.904   4.271 -1.2574  0.8434  0.4692
  842MOL0     H11080   2.759   2.938   4.339  0.5506 -0.5077 -1.2607
  842MOL0     H11081   2.625   2.915   4.767  0.0023  1.2717 -1.0690
  842MOL0     H11082   2.639   2.745   4.735  0.5576  0.1717 -1.4650
  842MOL0     H11083   2.407   2.754   4.768 -0.8542  0.6519  1.5000
  842MOL0     H11084   2.413   2.790   4.587  1.6015 -1.1866  0.2025
  842MOL0     H11085   2.409   3.036   4.659 -1.4486 -0.2486  0.0316
  842MOL0     H11086   2.407   2.986   4.811 -0.4231 -0.0304  0.1106
  842MOL0     H11087   2.191   2.908   4.613  1.3412 -0.5605  0.0369
  842MOL0     H11088   2.185   2.863   4.788  1.3884 -0.3466  0.6580
  842MOL0     H11089   2.200   3.143   4.687 -0.1421 -2.1105 -1.7626
  842MOL0     H11090   2.179   3.097   4.849 -1.5974  2.2817 -0.1083
  842MOL0     H11091   1.966   3.037   4.631 -1.0830 -0.7841  0.0582
  842MOL0     H11092   1.986   3.177   4.739  1.3289 -0.4244  3.0866
  842MOL0     H11093   1.971   2.880   4.836 -0.8576 -0.7580  2.0525
  842MOL0     H11094   1.976   3.025   4.933  1.3523  1.1916 -1.3397
  842MOL0     H11095   1.745   3.031   4.757  0.7789  2.2497  0.2337
  842MOL0     H11096   1.774   3.104   4.909 -3.5091 -0.2981  1.5924
  842MOL0     H11097   1.744   3.010   5.147 -1.2721  3.2047 -2.0113
  842MOL0     H11098   1.679   2.806   5.332 -0.2139 -0.5162  0.2691
  842MOL0     H11099   1.595   2.672   5.279  2.9829 -0.0505  1.5872
  842MOL0     H11100   1.464   2.955   5.275 -1.6986  0.4807  0.9868
  842MOL0     H11101   1.441   2.847   5.401  1.4816  2.8089  0.8324
  842MOL0     H11102   1.362   2.821   5.109  3.4334  0.5904  0.3210
  842MOL0     H11103   1.347   2.675   5.210 -0.6534 -0.4978  0.7305
  842MOL0     H11104   1.140   2.856   5.187  0.8842  0.1366 -1.3158
  842MOL0     H11105   1.196   2.921   5.335 -1.9928  0.0580  0.6982
  842MOL0     H11106   1.068   2.550   5.544 -1.4965  0.2859  2.8144
  842MOL0     H11107   0.841   2.527   5.622 -1.5572  0.8846 -0.2999
  842MOL0     H11108   0.441   2.380   5.584 -0.3186 -0.1893  0.5716
  842MOL0     H11109   0.212   2.362   5.706  1.1462 -0.5796 -1.8640
  842MOL0     H11110   0.018   2.528   6.065  1.0283 -1.8550  1.9784
  842MOL0     H11111   0.179   2.604   6.046  0.1848  0.6649 -0.3929
  842MOL0     H11112   0.171   2.419   6.212  0.7679 -0.2785 -0.1121
  842MOL0     H11113   0.289   2.396   6.082  0.0177 -3.5842 -1.3250
  842MOL0     H11114   0.121   2.248   5.963  0.8032 -0.6996 -0.6027
  842MOL0     H11115   0.018   2.244   6.115  0.5279 -1.2651  0.9639
  842MOL0     H11116   0.296   2.169   6.139  0.5451 -0.6529  0.4440
  842MOL0     H11117   0.186   2.181   6.275 -2.0242  0.3953 -0.1073
  842MOL0     H11118   0.170   2.007   6.024 -1.6896  1.3912 -1.1194
  842MOL0     H11119   0.036   2.012   6.134  0.0170 -0.0050 -2.5378
  842MOL0     H11120   0.159   1.938   6.336  0.7285 -0.3323  0.2830
  842MOL0     H11121   0.298   1.913   6.226  0.4330 -2.8125 -1.2083
  842MOL0     H11122   0.042   1.765   6.223  0.2320 -2.0714 -0.6072
  842MOL0     H11123   0.167   1.749   6.105 -1.0051  1.0940 -0.4662
  842MOL0     H11124   0.207   1.721   6.406 -0.9294  2.5663 -1.3138
  842MOL0     H11125   0.317   1.648   6.280  0.3282  0.3726 -1.3060
  842MOL0     H11126   0.281   2.726   5.908  2.3491  0.1225  0.4933
  842MOL0     H11127   0.507   2.740   5.813  0.0466  0.9859  2.2729
  842MOL0     H11128   0.719   2.855   5.375 -1.3626 -1.5739 -1.9175
  842MOL0     H11129   0.962   2.903   5.315  0.3056 -0.7740 -2.4829
  842MOL0     H11130   2.847   2.713   4.706 -0.4537  0.5593 -0.0212
  842MOL0     H11131   3.088   2.706   4.631  0.3015  2.5797  1.8224
  842MOL0     H11132   3.348   2.491   4.187  0.9094  0.0626 -1.1818
  842MOL0     H11133   3.567   2.458   4.158  0.6182  0.8720 -1.1980
  842MOL0     H11134   3.820   2.458   4.147 -0.1264 -0.4526  0.6792
  842MOL0     H11135   3.790   2.429   4.311 -3.0027 -1.0642 -3.0471
  842MOL0     H11136   3.980   2.542   4.389  0.4403  0.2948  0.5112
  842MOL0     H11137   4.026   2.417   4.270  0.3489  0.7737 -2.1999
  842MOL0     H11138   4.165   2.634   4.243  1.4202  1.5824 -1.0646
  842MOL0     H11139   4.018   2.722   4.207 -2.4976 -1.0535 -1.5147
  842MOL0     H11140   3.976   2.577   4.007  1.5131 -1.5363 -3.3278
  842MOL0     H11141   4.117   2.674   3.995  0.2329  0.3936  1.4083
  842MOL0     H11142   4.299   2.307   4.033 -1.6461 -0.5683  1.4999
  842MOL0     H11143   3.657   2.831   4.354 -1.5730  1.9305 -0.5203
  842MOL0     H11144   3.418   2.854   4.413 -0.8565 -0.7606  0.1319
  843MOL0     O11145   9.793   1.238   9.513  0.3377  0.0046 -0.4456
  843MOL0     C11146   9.886   1.252   9.592  0.1250 -0.0564 -0.0695
  843MOL0     O11147   9.875   1.257   9.730  0.7794  0.9548  0.1399
  843MOL0     C11148   9.754   1.274   9.793  0.1836  0.1156  0.2978
  843MOL0     C11149   9.657   1.357   9.736 -0.0119 -0.8239  0.3876
  843MOL0     C11150   9.523   1.359   9.795 -0.3416  0.3637  0.9336
  843MOL0     C11151   9.495   1.287   9.908  0.3802  0.0599 -0.3462
  843MOL0     O11152   9.357   1.300   9.942 -0.0415  0.3518 -0.2488
  843MOL0     C11153   9.313   1.238  10.061  0.0493  0.1900  0.0702
  843MOL0     C11154   9.268   1.089  10.053 -0.5630 -0.2372 -0.3434
  843MOL0     C11155   9.227   1.050  10.191  0.3692  0.4040  0.0674
  843MOL0     C11156   9.079   1.083  10.212 -0.2222 -0.2063  0.2477
  843MOL0     C11157   9.037   1.039  10.355 -0.7017  0.2388  0.2062
  843MOL0     C11158   9.019   0.887  10.371  0.1863 -0.0616 -0.6481
  843MOL0     C11159   8.875   0.851  10.322 -0.7724 -0.3803 -0.5721
  843MOL0     C11160   8.812   0.730  10.394 -0.7153  0.3265  0.1781
  843MOL0     N11161   8.686   0.680  10.343  0.2036  1.1790 -1.3632
  843MOL0     C11162   8.565   0.747  10.348  0.3923  0.2659 -0.1492
  843MOL0     C11163   8.483   0.663  10.274  0.0532  0.4644  0.1322
  843MOL0     C11164   8.327   0.686  10.245 -0.3603 -0.3458  0.0770
  843MOL0     C11165   8.249   0.738  10.364 -0.1952 -0.3106 -0.7075
  843MOL0     C11166   8.269   0.646  10.492 -0.3939 -0.9542 -0.3343
  843MOL0     C11167   8.238   0.722  10.626 -0.6182 -0.1866 -0.0639
  843MOL0     O11168   8.300   0.845  10.659 -1.0345 -0.1307  0.1824
  843MOL0     C11169   8.433   0.850  10.686 -0.6552  1.1839  0.4600
  843MOL0     C11170   8.526   0.747  10.706 -0.3553 -0.0461 -0.2960
  843MOL0     C11171   8.663   0.774  10.740  0.1840  0.6551  0.3348
  843MOL0     C11172   8.706   0.904  10.751  0.6997  0.1254 -0.0628
  843MOL0     C11173   8.850   0.930  10.769  0.3096 -0.1624 -0.1445
  843MOL0     O11174   8.891   1.046  10.831  0.3075 -0.4939  0.1899
  843MOL0     C11175   9.024   1.079  10.834  0.0632 -0.4143  0.7062
  843MOL0     C11176   9.090   1.088  10.956  0.0172  0.6567 -0.1417
  843MOL0     C11177   9.227   1.108  10.967 -0.1173  0.4201  0.9847
  843MOL0     C11178   9.296   1.111  10.850 -0.3430  1.2353  0.2478
  843MOL0     O11179   9.427   1.133  10.873  0.5438 -0.0704 -0.2391
  843MOL0     C11180   9.485   1.241  10.800 -0.4728  0.8158  0.1579
  843MOL0     C11181   9.560   1.337  10.895 -0.2785 -0.1143 -0.5090
  843MOL0     C11182   9.669   1.417  10.816  0.0859  0.2171 -0.0802
  843MOL0     C11183   9.799   1.340  10.768  0.7124 -0.1957 -0.4581
  843MOL0     C11184   9.872   1.421  10.659  1.0931  0.9504 -0.1123
  843MOL0     C11185   9.993   1.351  10.587 -0.3188 -0.2629  0.4274
  843MOL0     C11186  10.111   1.332  10.680 -0.0163  0.6593 -0.3803
  843MOL0     C11187  10.240   1.355  10.598 -0.1694  0.4078  0.1542
  843MOL0    Cl11188  10.387   1.293  10.684 -0.0957  0.5880 -0.2971
  843MOL0     C11189   9.230   1.108  10.718  0.2542  0.6093 -0.4316
  843MOL0     C11190   9.092   1.095  10.715  0.1070  0.4613 -0.1340
  843MOL0     O11191   8.923   0.838  10.735  0.4064 -0.4281 -0.4328
  843MOL0     C11192   8.614   1.012  10.746  1.0688  0.4920  0.3204
  843MOL0     C11193   8.484   0.974  10.715  0.1431 -0.0435  0.2110
  843MOL0     N11194   8.548   0.549  10.237 -0.0175 -0.0520  0.0451
  843MOL0     N11195   8.665   0.560  10.284  0.0588  0.5011  0.2966
  843MOL0     C11196   9.597   1.216   9.972  0.2498 -0.6706  1.0364
  843MOL0     C11197   9.728   1.212   9.922 -0.2378  0.0897  0.3305
  843MOL0     C11198  10.026   1.270   9.542 -0.4641 -0.3952  1.0587
  843MOL0     C11199  10.135   1.271   9.627  0.5617 -0.3214  0.3761
  843MOL0     C11200  10.265   1.282   9.576  0.0335  0.7313 -0.4412
  843MOL0     C11201  10.285   1.297   9.444  0.3246 -0.3038 -0.4851
  843MOL0     O11202  10.416   1.297   9.411 -0.1204  0.5731 -0.0180
  843MOL0     C11203  10.479   1.166   9.403  0.0662 -0.1155 -0.3817
  843MOL0     C11204  10.616   1.166   9.336 -0.3124  0.5160 -1.3292
  843MOL0     C11205  10.730   1.252   9.395 -0.1918 -0.3360 -0.3423
  843MOL0     C11206  10.872   1.201   9.349  0.1607 -0.1334 -0.7315
  843MOL0     C11207  10.981   1.291   9.395  0.2066  0.3667 -0.6647
  843MOL0     C11208  11.082   1.336   9.436 -0.1175  0.3298  0.1703
  843MOL0     C11209  10.181   1.302   9.348  0.8762  0.2676  0.1073
  843MOL0     C11210  10.044   1.289   9.396  0.5379  0.1131 -0.0866
  843MOL0     H11211   9.675   1.420   9.649  1.3850  0.8152  1.7748
  843MOL0     H11212   9.445   1.420   9.752 -1.3768 -1.3565  0.2442
  843MOL0     H11213   9.248   1.308  10.115  2.2457  0.2485  2.8924
  843MOL0     H11214   9.400   1.232  10.127 -0.2184  0.2668  0.4311
  843MOL0     H11215   9.350   1.024  10.021  0.2928  0.3461  0.6084
  843MOL0     H11216   9.186   1.080   9.982 -1.3706  0.1782  0.5197
  843MOL0     H11217   9.298   1.079  10.269 -1.1738 -1.4858  2.3348
  843MOL0     H11218   9.235   0.941  10.190  0.9027  0.3940  1.9706
  843MOL0     H11219   9.066   1.192  10.217  2.4135  0.1278  1.4177
  843MOL0     H11220   9.018   1.039  10.133 -0.3511  2.0634 -1.0147
  843MOL0     H11221   8.943   1.090  10.378 -0.0248  2.1460 -0.9839
  843MOL0     H11222   9.109   1.082  10.426 -0.4722 -0.6161  0.4956
  843MOL0     H11223   9.030   0.873  10.479 -0.5286 -2.5280 -0.8192
  843MOL0     H11224   9.096   0.838  10.311  0.8580  0.0010  0.1601
  843MOL0     H11225   8.807   0.935  10.335  1.1621  0.8159  3.8773
  843MOL0     H11226   8.885   0.843  10.213  0.0960 -1.1593 -0.4524
  843MOL0     H11227   8.802   0.753  10.500  1.0511 -0.3239  0.5073
  843MOL0     H11228   8.880   0.644  10.387 -0.3845  0.6350 -0.5228
  843MOL0     H11229   8.532   0.839  10.395  1.6366  1.3885 -1.3820
  843MOL0     H11230   8.276   0.599  10.203 -3.5112  1.0913  0.5887
  843MOL0     H11231   8.321   0.755  10.159  1.8939 -1.2635 -0.8968
  843MOL0     H11232   8.145   0.738  10.328  0.1423 -0.1858 -1.7117
  843MOL0     H11233   8.286   0.838  10.390 -1.4732 -0.1926  0.8312
  843MOL0     H11234   8.215   0.551  10.480  0.7974 -1.7705  0.5372
  843MOL0     H11235   8.375   0.621  10.507  0.1996  1.2202 -0.6185
  843MOL0     H11236   8.263   0.651  10.706 -0.6021 -1.3122 -1.0429
  843MOL0     H11237   8.132   0.752  10.630 -1.1318 -1.4652 -2.4022
  843MOL0     H11238   8.494   0.645  10.684 -3.2984  0.6142  0.4415
  843MOL0     H11239   8.722   0.685  10.757  1.3749  1.5340  0.9147
  843MOL0     H11240   9.031   1.080  11.047  1.5507 -0.7975  0.7628
  843MOL0     H11241   9.274   1.091  11.064  0.3835  0.3923  0.7412
  843MOL0     H11242   9.409   1.286  10.735 -0.5157 -1.1171 -1.2258
  843MOL0     H11243   9.560   1.197  10.733  1.7816 -1.3063  3.7487
  843MOL0     H11244   9.594   1.275  10.978 -0.0042 -0.2929 -0.7531
  843MOL0     H11245   9.486   1.404  10.941 -1.8259 -0.3228 -2.5402
  843MOL0     H11246   9.693   1.499  10.883 -3.6244  1.1633  0.3035
  843MOL0     H11247   9.618   1.434  10.721 -0.1483 -0.9067 -0.1715
  843MOL0     H11248   9.867   1.340  10.854  0.4640 -1.2285 -0.2460
  843MOL0     H11249   9.777   1.238  10.736 -0.6956 -0.7139  1.9115
  843MOL0     H11250   9.893   1.519  10.703 -0.6763  0.7475  1.2791
  843MOL0     H11251   9.804   1.444  10.577  0.2446  0.0929  0.3448
  843MOL0     H11252  10.022   1.417  10.505 -3.1042  1.0743  0.4032
  843MOL0     H11253   9.965   1.259  10.534  0.2316  0.5728 -1.4051
  843MOL0     H11254  10.107   1.400  10.765 -0.8869  1.0908 -0.7573
  843MOL0     H11255  10.118   1.227  10.709  1.1172  0.4675 -1.2538
  843MOL0     H11256  10.255   1.458  10.566  0.2550  0.2353 -0.2194
  843MOL0     H11257  10.243   1.294  10.507  2.3386  2.5130 -1.3097
  843MOL0     H11258   9.285   1.106  10.624 -0.9136  0.2419 -1.1319
  843MOL0     H11259   9.037   1.106  10.622 -1.0788  0.8199  0.5877
  843MOL0     H11260   8.651   1.114  10.750  0.1752  0.8347  0.0904
  843MOL0     H11261   8.406   1.048  10.723  0.5582  0.3101  1.1573
  843MOL0     H11262   9.582   1.164  10.066  0.2615 -2.3818  0.1221
  843MOL0     H11263   9.807   1.156   9.971  0.0716  0.5976  0.4190
  843MOL0     H11264  10.139   1.254   9.734  0.5316 -2.3659  0.0961
  843MOL0     H11265  10.352   1.281   9.641 -0.9683  1.2952  0.9650
  843MOL0     H11266  10.411   1.096   9.352  0.6377  0.4056 -1.9171
  843MOL0     H11267  10.492   1.120   9.501  0.8630  0.4647 -0.2110
  843MOL0     H11268  10.642   1.061   9.351 -1.7819  0.3888  0.7906
  843MOL0     H11269  10.614   1.194   9.230  0.8224 -2.9211 -2.4049
  843MOL0     H11270  10.731   1.251   9.505 -0.9645 -0.3593 -0.3269
  843MOL0     H11271  10.718   1.358   9.370  0.7178  0.0532  0.7558
  843MOL0     H11272  10.902   1.099   9.376  0.8653 -0.1780 -1.6399
  843MOL0     H11273  10.889   1.200   9.241 -2.2928  1.0437 -1.2113
  843MOL0     H11274  11.173   1.375   9.476 -1.3112  1.8012  1.5969
  843MOL0     H11275  10.199   1.301   9.241  0.2440 -3.2771 -0.0886
  843MOL0     H11276   9.965   1.296   9.322  1.3147 -0.6065 -1.0073
  844MOL0     O11277   9.654  11.150   5.560 -0.3699  0.3832  0.5598
  844MOL0     C11278   9.611  11.226   5.649 -1.3687 -0.3425  0.5257
  844MOL0     O11279   9.485  11.262   5.681 -0.0304  0.1815 -0.1984
  844MOL0     C11280   9.384  11.196   5.618  0.1898 -0.4132  0.1222
  844MOL0     C11281   9.322  11.242   5.506  0.2229 -0.3115 -0.1739
  844MOL0     C11282   9.236  11.154   5.439  0.4061  0.3716 -0.7915
  844MOL0     C11283   9.204  11.025   5.482  0.0806 -0.0743 -0.1282
  844MOL0     O11284   9.113  10.934   5.434 -0.3917  0.4936  0.4284
  844MOL0     C11285   9.012  10.981   5.340 -0.0059 -0.2354 -0.6714
  844MOL0     C11286   8.897  10.878   5.321 -0.0604  0.9776 -0.1467
  844MOL0     C11287   8.783  10.927   5.227 -0.0570 -0.1980 -0.4816
  844MOL0     C11288   8.657  10.838   5.245 -0.0608  0.4580 -0.0854
  844MOL0     C11289   8.528  10.909   5.209  0.2748  0.3604 -0.7441
  844MOL0     C11290   8.398  10.815   5.220  0.2456 -0.2251  0.7240
  844MOL0     C11291   8.352  10.792   5.367 -1.6212 -0.0559  0.6097
  844MOL0     C11292   8.240  10.696   5.365 -0.0646 -0.5772  0.2301
  844MOL0     N11293   8.107  10.758   5.369 -0.8032  0.3942 -0.2672
  844MOL0     C11294   8.041  10.799   5.484  0.4237 -0.1848 -0.5764
  844MOL0     C11295   7.924  10.858   5.446  0.9659 -0.6099 -0.7485
  844MOL0     C11296   7.830  10.943   5.527 -0.0867  0.4873 -0.5442
  844MOL0     C11297   7.802  11.078   5.466  0.0605  0.0252  0.2455
  844MOL0     C11298   7.728  11.159   5.566  0.3560 -0.3991 -0.9145
  844MOL0     C11299   7.587  11.115   5.608  0.6353  0.2812 -0.1375
  844MOL0     O11300   7.527  11.050   5.489 -0.0632  0.2660 -0.4672
  844MOL0     C11301   7.413  10.988   5.519  0.0675  0.5041  1.1230
  844MOL0     C11302   7.313  11.045   5.602  0.1315 -0.4027 -0.6748
  844MOL0     C11303   7.184  10.987   5.603 -0.0006 -0.5960  0.9071
  844MOL0     C11304   7.152  10.870   5.525 -0.2181 -0.1601 -0.2379
  844MOL0     C11305   7.013  10.816   5.522  0.0388  0.3524  0.0941
  844MOL0     O11306   6.921  10.903   5.571  0.5026  0.0402  0.1389
  844MOL0     C11307   6.789  10.877   5.557 -0.1195 -0.3334  0.7234
  844MOL0     C11308   6.709  10.841   5.666  0.3905 -0.4711  0.5434
  844MOL0     C11309   6.571  10.832   5.638 -0.4563  0.3166  0.5308
  844MOL0     C11310   6.518  10.845   5.508  0.0276  0.1290  0.2350
  844MOL0     O11311   6.379  10.837   5.496 -0.5317 -0.5673  0.1289
  844MOL0     C11312   6.317  10.807   5.372 -0.5241  0.5103 -0.2972
  844MOL0     C11313   6.366  10.663   5.314 -0.4685 -0.3042  0.4595
  844MOL0     C11314   6.362  10.545   5.416  0.1678  0.1562  0.1373
  844MOL0     C11315   6.216  10.515   5.469  1.0251  0.2718 -0.3121
  844MOL0     C11316   6.201  10.369   5.517 -0.3245  0.4917 -0.4720
  844MOL0     C11317   6.053  10.330   5.532 -0.0237  0.2716  0.6128
  844MOL0     C11318   6.021  10.257   5.667 -0.1623  0.5041 -0.2266
  844MOL0     C11319   5.886  10.176   5.670 -0.1892 -0.1139 -0.6903
  844MOL0    Cl11320   5.754  10.288   5.628  0.3146 -0.3731 -0.1584
  844MOL0     C11321   6.603  10.889   5.406  0.4707 -0.6418 -0.3542
  844MOL0     C11322   6.738  10.906   5.432  0.0636 -0.8009 -0.0843
  844MOL0     O11323   6.979  10.705   5.475  0.3658 -0.4687  0.1260
  844MOL0     C11324   7.266  10.806   5.465  0.1206 -0.4314  0.0068
  844MOL0     C11325   7.383  10.868   5.450 -0.4627 -0.1678 -0.3370
  844MOL0     N11326   7.914  10.828   5.312  0.4481 -0.5031  0.1629
  844MOL0     N11327   8.022  10.766   5.269  0.3978  0.5023 -0.0974
  844MOL0     C11328   9.264  10.993   5.603  0.4501  0.0480  0.1937
  844MOL0     C11329   9.350  11.074   5.670  0.0933  0.2279  0.7757
  844MOL0     C11330   9.721  11.288   5.730  0.4680 -0.1899  0.1708
  844MOL0     C11331   9.855  11.273   5.696 -0.2705 -0.4826 -0.4938
  844MOL0     C11332   9.952  11.314   5.779  0.0802 -0.1559 -1.0188
  844MOL0     C11333   9.921  11.389   5.898 -0.0938 -0.0456 -0.1438
  844MOL0     O11334  10.028  11.461   5.947  0.1295  0.3586  0.8390
  844MOL0     C11335  10.048  11.585   5.871 -0.1496  0.5323 -0.4213
  844MOL0     C11336  10.173  11.558   5.781 -0.1152  0.3458  0.1835
  844MOL0     C11337  10.292  11.494   5.848 -0.5015  0.1264  0.4374
  844MOL0     C11338  10.415  11.522   5.757  0.1407 -0.3194 -0.0941
  844MOL0     C11339  10.528  11.432   5.782  0.7756 -0.4354 -0.0873
  844MOL0     C11340  10.608  11.344   5.790  0.6693  0.2861 -0.5893
  844MOL0     C11341   9.794  11.411   5.934  0.0340  0.2613  0.4688
  844MOL0     C11342   9.687  11.363   5.852  0.0883  0.4674 -0.1996
  844MOL0     H11343   9.336  11.340   5.461  0.3497  0.0425  0.6150
  844MOL0     H11344   9.192  11.203   5.353  0.2764 -0.7335 -1.3669
  844MOL0     H11345   9.071  11.005   5.251  0.1941 -0.4896 -0.6124
  844MOL0     H11346   8.968  11.074   5.377 -1.6090 -0.8274 -1.0243
  844MOL0     H11347   8.846  10.869   5.417 -1.2197  0.2628 -0.8023
  844MOL0     H11348   8.928  10.776   5.296  2.2528  1.6384 -0.1495
  844MOL0     H11349   8.812  10.955   5.125 -4.1586 -0.8221 -2.0015
  844MOL0     H11350   8.749  11.025   5.261 -0.5862 -0.2665 -0.8040
  844MOL0     H11351   8.677  10.753   5.179 -2.4761 -0.2856  0.0500
  844MOL0     H11352   8.653  10.806   5.349  0.6885  2.1363  0.5054
  844MOL0     H11353   8.534  10.947   5.106  0.3456 -0.6701 -1.1290
  844MOL0     H11354   8.515  10.994   5.277  3.0009  0.4061 -0.2036
  844MOL0     H11355   8.416  10.723   5.163 -1.1543 -1.4393  2.1473
  844MOL0     H11356   8.315  10.862   5.167 -1.0050 -0.4189  2.4263
  844MOL0     H11357   8.433  10.742   5.422 -1.6309 -2.4039 -1.3337
  844MOL0     H11358   8.329  10.887   5.415  0.5471  1.8615 -1.8527
  844MOL0     H11359   8.247  10.628   5.451  0.6566 -1.6264 -0.6397
  844MOL0     H11360   8.261  10.637   5.276  1.6065  1.9061 -1.1136
  844MOL0     H11361   8.087  10.814   5.581  0.9441 -1.1062 -0.6632
  844MOL0     H11362   7.875  10.951   5.626 -0.0590 -0.3924 -0.4783
  844MOL0     H11363   7.735  10.890   5.539  1.0950 -1.5440  0.2817
  844MOL0     H11364   7.745  11.077   5.373 -0.6147  1.1400  0.6297
  844MOL0     H11365   7.898  11.125   5.444  0.0889  0.4135  1.1392
  844MOL0     H11366   7.785  11.165   5.660  0.7996  0.2835 -1.2210
  844MOL0     H11367   7.731  11.263   5.531  3.1088  0.5425  1.6495
  844MOL0     H11368   7.527  11.205   5.627  1.1774  0.7345 -0.5559
  844MOL0     H11369   7.580  11.056   5.700  1.8576 -0.3823 -0.4553
  844MOL0     H11370   7.324  11.141   5.652 -0.8694 -0.4666 -0.3088
  844MOL0     H11371   7.108  11.026   5.671  0.6612  4.3009 -0.7741
  844MOL0     H11372   6.748  10.829   5.766 -1.0965  0.9776  1.3277
  844MOL0     H11373   6.506  10.805   5.720  0.4190 -1.6296  0.6455
  844MOL0     H11374   6.328  10.885   5.296  0.8643  0.3301 -0.3054
  844MOL0     H11375   6.210  10.813   5.396 -0.3438 -0.2176  0.7319
  844MOL0     H11376   6.471  10.676   5.288 -0.0819 -1.3627  1.4335
  844MOL0     H11377   6.319  10.639   5.218  0.0485  0.6780 -0.0507
  844MOL0     H11378   6.423  10.589   5.496  2.4875 -0.8108 -1.0215
  844MOL0     H11379   6.404  10.450   5.381 -1.0354 -0.6198  0.7055
  844MOL0     H11380   6.186  10.585   5.547 -0.4537 -2.7371  1.9950
  844MOL0     H11381   6.154  10.525   5.379 -0.3121  2.3993  0.7728
  844MOL0     H11382   6.253  10.362   5.614  1.0754 -0.4593 -1.2535
  844MOL0     H11383   6.244  10.306   5.439 -1.0805  1.4816 -1.7134
  844MOL0     H11384   6.023  10.261   5.452 -0.8861  0.8921  0.3856
  844MOL0     H11385   5.993  10.422   5.528  0.1818  0.3874  0.0437
  844MOL0     H11386   6.099  10.180   5.679  0.4384  0.7008 -2.4395
  844MOL0     H11387   6.023  10.330   5.748  1.3123 -0.3148  0.5274
  844MOL0     H11388   5.883  10.138   5.772  1.5811 -1.3746 -1.0360
  844MOL0     H11389   5.883  10.088   5.604  3.9284 -2.1795  1.4555
  844MOL0     H11390   6.569  10.925   5.310 -2.9228  1.0718  1.3040
  844MOL0     H11391   6.809  10.939   5.357 -1.2876  2.0277 -0.2378
  844MOL0     H11392   7.257  10.711   5.412 -1.4383 -0.6730  0.6305
  844MOL0     H11393   7.464  10.833   5.386 -0.9784 -0.9502 -0.5843
  844MOL0     H11394   9.254  10.898   5.655 -3.4711  1.8661  3.2862
  844MOL0     H11395   9.394  11.043   5.764  0.0836  2.1732  1.4587
  844MOL0     H11396   9.893  11.231   5.603  2.0543  0.9877 -0.2936
  844MOL0     H11397  10.058  11.306   5.755  0.5757  1.4525  0.4436
  844MOL0     H11398  10.067  11.659   5.949 -3.2463  0.6276  0.3723
  844MOL0     H11399   9.963  11.618   5.812 -2.3688 -0.1146  2.2007
  844MOL0     H11400  10.142  11.507   5.689 -0.4361  3.0766 -1.3444
  844MOL0     H11401  10.193  11.660   5.746 -0.7817  0.2864 -0.4026
  844MOL0     H11402  10.280  11.386   5.861 -3.7953  0.2576 -0.5335
  844MOL0     H11403  10.308  11.535   5.948  0.3091  2.1927 -0.4727
  844MOL0     H11404  10.372  11.509   5.657 -1.5398  1.0339  0.3861
  844MOL0     H11405  10.445  11.625   5.777 -0.5490 -0.3532  1.2467
  844MOL0     H11406  10.675  11.261   5.793 -0.7376 -0.8831 -0.2381
  844MOL0     H11407   9.782  11.474   6.021  1.0345  1.1656 -0.0107
  844MOL0     H11408   9.589  11.378   5.894  0.6591  0.6537  1.1053
  845MOL0     O11409  10.324   9.932   3.370  0.0728  0.5440  0.4723
  845MOL0     C11410  10.370   9.989   3.468  0.3458 -0.7309 -0.0092
  845MOL0     O11411  10.294  10.051   3.560  0.6188 -0.1620 -0.2726
  845MOL0     C11412  10.152  10.047   3.558  0.4570 -0.4026  0.3223
  845MOL0     C11413  10.077   9.940   3.524 -0.0607  0.4555  0.0509
  845MOL0     C11414   9.938   9.951   3.521  0.0887  0.7121 -0.5559
  845MOL0     C11415   9.882  10.060   3.586  0.5326 -0.5853 -0.8369
  845MOL0     O11416   9.752  10.070   3.596  0.1076 -0.1597 -0.4622
  845MOL0     C11417   9.702  10.181   3.524  0.7912 -0.1222 -0.5653
  845MOL0     C11418   9.556  10.185   3.511  0.2739  0.7673 -0.0632
  845MOL0     C11419   9.477  10.064   3.447  0.7298 -0.0224 -0.1281
  845MOL0     C11420   9.325  10.093   3.419  1.1772 -0.0116 -0.8613
  845MOL0     C11421   9.250   9.982   3.334  0.0263 -0.0737 -0.6202
  845MOL0     C11422   9.096  10.008   3.327 -0.0437  0.5270  0.2264
  845MOL0     C11423   9.027   9.900   3.239 -0.3196  0.5730 -0.3332
  845MOL0     C11424   8.877   9.919   3.221  0.0043 -0.3985 -0.4247
  845MOL0     N11425   8.804   9.912   3.346 -0.0286 -0.3213  0.3273
  845MOL0     C11426   8.714  10.001   3.398 -0.4467  0.5815 -0.2974
  845MOL0     C11427   8.680   9.956   3.523  0.2158  0.4905  0.1796
  845MOL0     C11428   8.567  10.026   3.606 -0.6288 -1.3842  0.7618
  845MOL0     C11429   8.457   9.933   3.643  0.2475  0.3817  0.0735
  845MOL0     C11430   8.373   9.995   3.745  0.0721 -0.4624 -1.5255
  845MOL0     C11431   8.245   9.916   3.752 -0.2539 -0.2172 -0.6705
  845MOL0     O11432   8.255   9.773   3.767 -0.2832  0.7149 -0.1836
  845MOL0     C11433   8.149   9.710   3.826  0.3164  0.7181  0.1676
  845MOL0     C11434   8.017   9.762   3.852 -0.5565  0.0273  0.4988
  845MOL0     C11435   7.905   9.693   3.903  0.0681 -0.4751  0.3970
  845MOL0     C11436   7.922   9.556   3.926 -0.4865  0.5566  0.6358
  845MOL0     C11437   7.812   9.460   3.976 -0.2788 -0.8455 -0.3303
  845MOL0     O11438   7.696   9.516   3.972  0.8183 -0.3833  0.2264
  845MOL0     C11439   7.580   9.440   3.996  0.3869 -0.8292  0.0218
  845MOL0     C11440   7.571   9.297   4.015  0.0521 -0.9695  0.1276
  845MOL0     C11441   7.450   9.234   4.057 -0.5743 -0.0355 -0.3010
  845MOL0     C11442   7.342   9.317   4.076 -0.0668  0.0847  0.1319
  845MOL0     O11443   7.220   9.267   4.126 -0.0352 -0.0484  0.2968
  845MOL0     C11444   7.176   9.141   4.078 -1.0735  0.0374  0.3350
  845MOL0     C11445   7.025   9.128   4.056 -0.6145  0.8850  0.0753
  845MOL0     C11446   6.945   9.139   4.188  0.6068 -0.0933 -1.3124
  845MOL0     C11447   6.791   9.179   4.169 -0.3040  0.1296  0.2254
  845MOL0     C11448   6.720   9.077   4.086 -0.6562  0.0613 -0.2803
  845MOL0     C11449   6.574   9.109   4.045  0.4890  0.4401  0.5446
  845MOL0     C11450   6.487   9.098   4.173  0.0251  0.3184  0.1014
  845MOL0     C11451   6.337   9.110   4.143 -0.1266  0.2098  0.1534
  845MOL0    Cl11452   6.272   8.950   4.093  0.2232  0.2969  0.3017
  845MOL0     C11453   7.347   9.456   4.052 -0.8469  0.1677 -0.2340
  845MOL0     C11454   7.462   9.517   4.004 -0.2779 -0.4787 -0.0521
  845MOL0     O11455   7.847   9.366   4.041 -0.5070 -0.5454  0.0883
  845MOL0     C11456   8.052   9.494   3.900 -0.2143 -0.9075  1.0412
  845MOL0     C11457   8.159   9.572   3.850 -0.5589  0.1187 -0.9822
  845MOL0     N11458   8.746   9.839   3.544 -0.1601  0.2023 -0.1753
  845MOL0     N11459   8.823   9.818   3.446  0.2993  0.6699  0.5141
  845MOL0     C11460   9.960  10.170   3.623  0.0599  0.3860 -0.3154
  845MOL0     C11461  10.098  10.160   3.612  0.0682  0.4783  0.2980
  845MOL0     C11462  10.521  10.002   3.480  0.4391  1.2637 -0.4037
  845MOL0     C11463  10.575  10.078   3.586  0.4846 -0.9429 -0.0766
  845MOL0     C11464  10.714  10.067   3.608  0.2164 -0.4605 -0.3166
  845MOL0     C11465  10.794   9.980   3.531  0.5995  0.5129 -0.0466
  845MOL0     O11466  10.923   9.963   3.552 -0.5842 -0.9112 -0.2291
  845MOL0     C11467  11.019  10.036   3.467 -0.0786  0.0919  1.1632
  845MOL0     C11468  11.159   9.986   3.484  0.0750  0.1548 -0.2054
  845MOL0     C11469  11.211  10.034   3.623  0.4342 -0.3110  0.2638
  845MOL0     C11470  11.338   9.958   3.675  0.3017  0.0357 -0.1142
  845MOL0     C11471  11.444   9.930   3.577  0.3535  0.0096  0.1289
  845MOL0     C11472  11.527   9.927   3.498  0.2171 -0.1249 -0.0658
  845MOL0     C11473  10.742   9.922   3.415 -0.0116 -0.7962  0.1962
  845MOL0     C11474  10.601   9.931   3.391  0.4238 -0.4539 -0.4663
  845MOL0     H11475  10.124   9.849   3.488 -4.2388 -1.5051 -1.0870
  845MOL0     H11476   9.883   9.879   3.462  2.8987 -1.4876 -0.6950
  845MOL0     H11477   9.755  10.177   3.428 -0.6012 -2.2144 -1.3300
  845MOL0     H11478   9.725  10.273   3.578 -0.8970 -0.1674  0.2725
  845MOL0     H11479   9.533  10.276   3.455 -1.9402 -1.1677 -2.5943
  845MOL0     H11480   9.507  10.204   3.606  1.7315 -4.2905  2.0414
  845MOL0     H11481   9.477   9.976   3.512  1.7384  0.5270  0.6479
  845MOL0     H11482   9.524  10.027   3.356 -1.0386 -0.4262 -0.9191
  845MOL0     H11483   9.271  10.097   3.514  0.4225 -4.5909 -0.8674
  845MOL0     H11484   9.322  10.188   3.365  2.3996  0.9901  0.7313
  845MOL0     H11485   9.278   9.886   3.377 -0.5172  0.9315  2.1756
  845MOL0     H11486   9.284   9.992   3.231  0.4107 -1.9483 -0.7058
  845MOL0     H11487   9.069  10.096   3.268 -1.4835 -0.5895 -0.8702
  845MOL0     H11488   9.050  10.011   3.426  0.6943  0.4507  0.5738
  845MOL0     H11489   9.071   9.886   3.140  0.7507 -0.5294  0.2626
  845MOL0     H11490   9.046   9.802   3.284  0.9176  0.2551 -1.4811
  845MOL0     H11491   8.840   9.839   3.156 -1.3204  0.7566 -1.1577
  845MOL0     H11492   8.856  10.015   3.173  1.7190  0.6810  0.8514
  845MOL0     H11493   8.663  10.081   3.346  1.0007  0.9804 -1.1709
  845MOL0     H11494   8.534  10.120   3.561  1.5669 -0.4036  1.0247
  845MOL0     H11495   8.610  10.059   3.702  2.9508  0.2220 -1.2028
  845MOL0     H11496   8.501   9.834   3.662  0.5788  0.0783 -2.0266
  845MOL0     H11497   8.396   9.914   3.555 -1.1442  1.7218  0.7149
  845MOL0     H11498   8.420   9.985   3.843 -0.6815 -3.4226 -1.3653
  845MOL0     H11499   8.357  10.102   3.729  0.2427 -0.2764 -0.5116
  845MOL0     H11500   8.189   9.937   3.660 -1.5131  0.6410  0.2522
  845MOL0     H11501   8.183   9.961   3.830  0.7884  0.6269 -0.3021
  845MOL0     H11502   7.989   9.864   3.827 -0.7802  0.8264  3.6245
  845MOL0     H11503   7.813   9.742   3.934  0.8780  0.1876  1.8466
  845MOL0     H11504   7.656   9.234   3.992  0.5867  0.1199 -0.9862
  845MOL0     H11505   7.453   9.127   4.072 -1.9342 -0.6211 -3.3694
  845MOL0     H11506   7.208   9.068   4.153  0.5422  0.1189 -0.2323
  845MOL0     H11507   7.229   9.120   3.984 -0.4691 -0.2749  0.7408
  845MOL0     H11508   7.008   9.036   4.000  1.8047  0.5814 -0.2734
  845MOL0     H11509   6.992   9.210   3.991 -1.0046  2.0191  1.6211
  845MOL0     H11510   6.977   9.228   4.245 -2.2922 -0.7929  1.7255
  845MOL0     H11511   6.951   9.044   4.242 -1.5642 -0.9723 -2.4931
  845MOL0     H11512   6.749   9.199   4.267  0.1031 -0.6132  0.5614
  845MOL0     H11513   6.769   9.275   4.121 -0.3517  0.6415  1.2607
  845MOL0     H11514   6.731   8.982   4.138 -4.0070  1.2743  3.1411
  845MOL0     H11515   6.767   9.062   3.988 -1.7876 -0.7385 -0.7202
  845MOL0     H11516   6.549   9.037   3.967  1.3368 -0.0218  0.6956
  845MOL0     H11517   6.564   9.209   4.001 -0.1097  0.0643 -0.2053
  845MOL0     H11518   6.512   9.006   4.226  1.0172  1.3030  1.4008
  845MOL0     H11519   6.517   9.173   4.248 -2.6333  0.4798  1.1100
  845MOL0     H11520   6.311   9.189   4.071  1.1896  1.3449  0.8596
  845MOL0     H11521   6.294   9.143   4.238 -0.0038  2.0703 -0.3921
  845MOL0     H11522   7.256   9.512   4.073 -1.0648 -0.3769  0.3297
  845MOL0     H11523   7.453   9.625   4.003 -2.4082 -0.5342  2.3405
  845MOL0     H11524   8.077   9.390   3.922 -2.9236 -1.6447  0.9802
  845MOL0     H11525   8.251   9.518   3.833 -0.7731 -1.8867  3.0197
  845MOL0     H11526   9.922  10.263   3.665 -1.9541 -0.3636 -0.3526
  845MOL0     H11527  10.164  10.242   3.641 -1.9937  1.8223  1.4612
  845MOL0     H11528  10.517  10.137   3.656  2.6225  1.0846  0.1377
  845MOL0     H11529  10.743  10.134   3.688  1.2582 -0.5802 -0.5847
  845MOL0     H11530  11.023  10.144   3.485  1.5848  0.0390  1.2332
  845MOL0     H11531  10.989  10.019   3.363  1.9739 -2.2289  0.8579
  845MOL0     H11532  11.179   9.883   3.454  2.2059  1.0129 -1.9919
  845MOL0     H11533  11.224  10.043   3.417 -1.1428  1.7116 -0.1368
  845MOL0     H11534  11.137  10.009   3.699 -1.0268 -1.8794 -1.5777
  845MOL0     H11535  11.232  10.141   3.630 -2.6729  0.2899  2.3092
  845MOL0     H11536  11.378  10.012   3.761 -2.1004 -0.0514  1.1165
  845MOL0     H11537  11.303   9.863   3.715  3.0142 -1.5479 -1.2388
  845MOL0     H11538  11.604   9.919   3.424  1.0019 -1.4011  0.8380
  845MOL0     H11539  10.805   9.873   3.343 -0.0649  0.2812 -0.6119
  845MOL0     H11540  10.558   9.881   3.305  0.9056  0.0745 -1.0244
  846MOL0     O11541  10.467   2.811   8.872 -0.3071  0.2697 -0.2365
  846MOL0     C11542  10.554   2.893   8.891  0.3517 -0.4089 -0.6205
  846MOL0     O11543  10.536   3.035   8.877  0.4354 -0.1358 -0.3990
  846MOL0     C11544  10.414   3.090   8.877  0.3845  0.0813 -1.1405
  846MOL0     C11545  10.296   3.043   8.938 -0.2683  0.9444 -0.3072
  846MOL0     C11546  10.175   3.108   8.926 -0.9831 -0.8405  0.5930
  846MOL0     C11547  10.168   3.232   8.853  0.6250  0.0958 -0.1421
  846MOL0     O11548  10.059   3.304   8.846  0.5539 -0.0775  0.5237
  846MOL0     C11549   9.928   3.252   8.866  0.2709  0.0274 -0.2232
  846MOL0     C11550   9.811   3.336   8.821  0.4627 -0.4593  0.1100
  846MOL0     C11551   9.844   3.480   8.863  0.1531  0.0449  0.9567
  846MOL0     C11552   9.714   3.556   8.832  0.4052  0.1030 -0.1634
  846MOL0     C11553   9.741   3.704   8.849  0.1223  0.0282  0.0355
  846MOL0     C11554   9.617   3.784   8.783  0.5000  0.6563 -0.1661
  846MOL0     C11555   9.638   3.935   8.797  1.1122  0.3495 -0.2001
  846MOL0     C11556   9.510   4.003   8.750 -0.6377  0.1479 -0.3263
  846MOL0     N11557   9.506   4.026   8.603  0.0560  0.9464 -0.2784
  846MOL0     C11558   9.598   4.092   8.530  0.3836  0.8130  0.7811
  846MOL0     C11559   9.575   4.052   8.398  0.8128 -0.4296  0.0188
  846MOL0     C11560   9.639   4.119   8.285  0.1184 -0.7400  0.5840
  846MOL0     C11561   9.789   4.098   8.284 -0.1394  0.0693 -0.8877
  846MOL0     C11562   9.854   4.167   8.160  0.1243  0.4122 -0.0409
  846MOL0     C11563   9.999   4.139   8.132  0.0804 -0.0264  0.2540
  846MOL0     O11564  10.078   4.211   8.226  0.0070 -0.1943  0.5255
  846MOL0     C11565  10.213   4.180   8.251 -0.5839  0.4944  0.4368
  846MOL0     C11566  10.286   4.273   8.328 -0.5592 -0.3874  0.2719
  846MOL0     C11567  10.408   4.236   8.373 -0.1505 -0.2149  0.6971
  846MOL0     C11568  10.475   4.114   8.337  0.3414  0.3434 -0.3814
  846MOL0     C11569  10.613   4.086   8.380  0.2973  0.0466  0.4417
  846MOL0     O11570  10.684   3.997   8.309 -0.1719  0.6637  0.9728
  846MOL0     C11571  10.812   3.976   8.340 -0.1926  0.3298  1.1579
  846MOL0     C11572  10.893   4.089   8.346  0.5591  0.2946  0.7220
  846MOL0     C11573  11.022   4.076   8.398 -0.8364 -0.0098 -1.0796
  846MOL0     C11574  11.086   3.950   8.407  0.3105 -0.3946 -0.3805
  846MOL0     O11575  11.209   3.950   8.462 -0.0190 -0.5502  0.1340
  846MOL0     C11576  11.262   3.822   8.521  0.4593  0.5226 -0.5266
  846MOL0     C11577  11.411   3.831   8.551  0.4869  0.2867 -0.2314
  846MOL0     C11578  11.483   3.870   8.427 -0.1532 -0.2519 -0.4740
  846MOL0     C11579  11.634   3.830   8.452 -0.8532 -0.1656  0.2921
  846MOL0     C11580  11.725   3.872   8.330 -0.0294  0.1247  0.4500
  846MOL0     C11581  11.877   3.865   8.335  0.3350  0.7379 -0.9383
  846MOL0     C11582  11.933   3.724   8.335 -0.6621  0.4078 -0.1925
  846MOL0     C11583  12.081   3.741   8.315 -0.0549 -0.1134  0.2082
  846MOL0    Cl11584  12.147   3.577   8.351 -0.0115 -0.0763 -0.3344
  846MOL0     C11585  11.008   3.835   8.370  0.1273  0.3356 -0.0566
  846MOL0     C11586  10.870   3.851   8.339 -0.3489  0.3515  0.4928
  846MOL0     O11587  10.634   4.134   8.485  0.5517 -0.2074 -0.3530
  846MOL0     C11588  10.383   4.020   8.286  0.6010  0.2687  0.5058
  846MOL0     C11589  10.259   4.050   8.241  0.2359  0.5534  0.0067
  846MOL0     N11590   9.456   3.982   8.398 -0.1323 -0.6750  0.2116
  846MOL0     N11591   9.430   3.952   8.519 -0.0271 -0.5322  1.1307
  846MOL0     C11592  10.288   3.279   8.796 -0.0137  0.4672 -0.2845
  846MOL0     C11593  10.408   3.210   8.810 -0.5274  0.1467  0.3682
  846MOL0     C11594  10.692   2.856   8.934 -0.2597  0.5898  0.5394
  846MOL0     C11595  10.715   2.721   8.944 -0.4940 -0.0723  0.0424
  846MOL0     C11596  10.845   2.677   8.970  0.0055 -0.2830  0.0443
  846MOL0     C11597  10.946   2.771   8.991 -0.5992  0.6616  0.1483
  846MOL0     O11598  11.068   2.712   9.008  0.3843  0.0510 -0.1065
  846MOL0     C11599  11.173   2.808   9.032  0.0543  0.3887  0.4554
  846MOL0     C11600  11.317   2.755   9.024 -0.7282 -1.0020  0.5140
  846MOL0     C11601  11.375   2.722   9.162 -0.2761  0.5429  0.0094
  846MOL0     C11602  11.527   2.696   9.150  0.2369  0.5296  0.5065
  846MOL0     C11603  11.557   2.569   9.077  0.6857 -0.1520 -0.9912
  846MOL0     C11604  11.578   2.465   9.026 -0.3194  1.2448  0.6625
  846MOL0     C11605  10.917   2.904   8.988  0.3212  0.5339  0.8558
  846MOL0     C11606  10.790   2.951   8.959 -0.3340 -0.2621  0.1722
  846MOL0     H11607  10.305   2.948   8.989  1.8339  1.1058 -0.2969
  846MOL0     H11608  10.085   3.067   8.969 -2.6865 -1.5125 -3.1936
  846MOL0     H11609   9.910   3.240   8.973 -1.0212 -1.5999 -0.5939
  846MOL0     H11610   9.920   3.148   8.834 -0.4090  0.8398 -3.0215
  846MOL0     H11611   9.721   3.301   8.872  0.7200 -1.5588 -0.1482
  846MOL0     H11612   9.804   3.332   8.712  3.1318 -1.0713 -0.1190
  846MOL0     H11613   9.926   3.519   8.803  0.3403  0.9975  1.8057
  846MOL0     H11614   9.873   3.480   8.969 -0.6608  2.2094  1.2310
  846MOL0     H11615   9.687   3.533   8.728  0.6027 -0.0172 -0.1875
  846MOL0     H11616   9.629   3.527   8.895 -1.3962  3.4107 -0.8372
  846MOL0     H11617   9.839   3.727   8.806 -0.8705  0.7280 -1.9687
  846MOL0     H11618   9.752   3.719   8.956  0.4143 -0.8136  0.1320
  846MOL0     H11619   9.521   3.763   8.831  0.3717  0.0194 -0.6844
  846MOL0     H11620   9.617   3.752   8.678  1.2373  0.0660  0.0072
  846MOL0     H11621   9.649   3.947   8.905  1.4405  0.2388 -0.2217
  846MOL0     H11622   9.722   3.964   8.733 -0.3329  3.4330 -0.9119
  846MOL0     H11623   9.511   4.107   8.783 -0.4178  0.4458 -1.2368
  846MOL0     H11624   9.416   3.952   8.774 -1.3300  1.2020 -0.7300
  846MOL0     H11625   9.673   4.158   8.572  3.1283 -1.9888  0.6959
  846MOL0     H11626   9.617   4.226   8.293  0.7091  0.0210 -4.4191
  846MOL0     H11627   9.594   4.087   8.190  0.5384 -1.3118  0.5724
  846MOL0     H11628   9.815   3.992   8.276 -1.5076 -0.6117  2.1768
  846MOL0     H11629   9.828   4.131   8.380  4.2366 -1.9128 -1.7526
  846MOL0     H11630   9.800   4.135   8.071 -0.7849 -0.2778  0.7503
  846MOL0     H11631   9.851   4.276   8.164  0.8102  0.6620 -3.3525
  846MOL0     H11632  10.016   4.159   8.026  1.4815 -1.4495  0.1767
  846MOL0     H11633  10.015   4.032   8.140 -2.2594 -0.3239  1.9200
  846MOL0     H11634  10.245   4.368   8.362 -0.1774 -0.0690 -0.1625
  846MOL0     H11635  10.469   4.313   8.420  1.7336 -0.6654 -0.9035
  846MOL0     H11636  10.855   4.190   8.338 -2.4741 -0.9091 -2.5576
  846MOL0     H11637  11.086   4.161   8.423 -2.0484  1.0916 -1.6083
  846MOL0     H11638  11.254   3.742   8.447  1.1904 -1.3663  1.3419
  846MOL0     H11639  11.212   3.803   8.616  0.9436 -2.6867 -0.8023
  846MOL0     H11640  11.456   3.734   8.577  3.6033  1.5201 -0.5920
  846MOL0     H11641  11.442   3.899   8.630 -1.1797 -1.3311  1.9662
  846MOL0     H11642  11.469   3.976   8.402 -0.3340 -0.1515  0.0477
  846MOL0     H11643  11.438   3.812   8.346 -0.9788  1.1130 -1.0252
  846MOL0     H11644  11.664   3.871   8.548 -4.2588 -1.3863  2.0267
  846MOL0     H11645  11.638   3.721   8.467  0.0118  0.0870  2.0427
  846MOL0     H11646  11.704   3.977   8.312 -1.7275  0.1030  2.0111
  846MOL0     H11647  11.688   3.821   8.241  0.3169 -0.7973  0.8201
  846MOL0     H11648  11.901   3.919   8.427 -0.2598  2.4582 -1.7393
  846MOL0     H11649  11.922   3.916   8.249 -2.0837  1.0686 -2.1015
  846MOL0     H11650  11.909   3.676   8.430  0.4885 -1.2730 -0.7029
  846MOL0     H11651  11.894   3.660   8.256  0.3579  0.4993 -0.7864
  846MOL0     H11652  12.117   3.801   8.398  0.5451 -0.2486  0.0475
  846MOL0     H11653  12.114   3.791   8.223 -0.4749  1.2550  0.7749
  846MOL0     H11654  11.053   3.738   8.355  1.9160  1.3435 -1.6115
  846MOL0     H11655  10.811   3.766   8.307  0.3682 -0.0474  0.1893
  846MOL0     H11656  10.431   3.925   8.261  2.3098  1.4405 -0.9017
  846MOL0     H11657  10.196   3.971   8.200 -3.1814  2.2817  1.5359
  846MOL0     H11658  10.287   3.374   8.744  3.9032  0.0184 -1.4764
  846MOL0     H11659  10.508   3.239   8.778 -0.4490 -1.5773 -1.0731
  846MOL0     H11660  10.633   2.650   8.937 -1.4435  0.7351  2.0876
  846MOL0     H11661  10.881   2.575   8.963 -1.6288 -0.9970  1.3143
  846MOL0     H11662  11.157   2.848   9.132  0.5215 -1.1787  1.1913
  846MOL0     H11663  11.178   2.895   8.965  0.9965 -0.2105 -0.2755
  846MOL0     H11664  11.332   2.667   8.961  1.5220 -1.1091  1.1001
  846MOL0     H11665  11.383   2.839   9.004 -0.5310 -1.0877  0.8005
  846MOL0     H11666  11.329   2.639   9.217 -0.8158 -2.6300 -4.6885
  846MOL0     H11667  11.368   2.813   9.222 -2.7075  1.8045 -1.9886
  846MOL0     H11668  11.584   2.775   9.101  3.0767 -3.4293 -3.2077
  846MOL0     H11669  11.565   2.686   9.252 -3.4864 -0.8693  1.9669
  846MOL0     H11670  11.596   2.377   8.966 -2.0736  2.6684 -2.1995
  846MOL0     H11671  10.983   2.988   9.006 -1.3307  1.7194  1.6438
  846MOL0     H11672  10.754   3.053   8.969 -1.6998 -0.8720  2.2303
  847MOL0     O11673   5.605   4.432   0.400  0.0731 -0.1630  0.4085
  847MOL0     C11674   5.483   4.410   0.406  0.3047 -0.9037  0.3354
  847MOL0     O11675   5.387   4.489   0.350  0.1685  0.7032 -0.5068
  847MOL0     C11676   5.416   4.591   0.263  0.1913  0.5671  0.2519
  847MOL0     C11677   5.539   4.627   0.205  0.6277 -0.0264  1.0572
  847MOL0     C11678   5.543   4.722   0.107  0.5773 -0.3891 -0.4598
  847MOL0     C11679   5.425   4.777   0.056  0.6962 -0.2859 -0.7187
  847MOL0     O11680   5.408   4.870  -0.038 -0.2356 -0.6828 -0.1901
  847MOL0     C11681   5.531   4.940  -0.081  0.2126 -0.7117  0.6827
  847MOL0     C11682   5.494   5.045  -0.189  0.2101  0.9685  0.4755
  847MOL0     C11683   5.475   4.965  -0.323 -0.4196  0.4976 -0.4265
  847MOL0     C11684   5.480   5.065  -0.435  0.7346 -0.2478 -0.4433
  847MOL0     C11685   5.381   5.178  -0.440 -0.3446 -0.5956 -0.1351
  847MOL0     C11686   5.248   5.123  -0.494 -0.5794  0.9917 -0.7446
  847MOL0     C11687   5.135   5.218  -0.472 -0.6444  0.4164  0.3067
  847MOL0     C11688   5.016   5.189  -0.560  0.3361  0.0730  0.5752
  847MOL0     N11689   4.903   5.281  -0.528  0.2247 -0.0364 -0.6353
  847MOL0     C11690   4.778   5.283  -0.593  0.6805 -0.2705  0.3752
  847MOL0     C11691   4.693   5.358  -0.520 -0.1928 -1.2426 -0.2626
  847MOL0     C11692   4.553   5.404  -0.545 -0.6310 -0.4184  1.0228
  847MOL0     C11693   4.457   5.313  -0.487 -0.0921 -0.1879 -0.1651
  847MOL0     C11694   4.312   5.358  -0.497  0.4477 -0.2733  0.1802
  847MOL0     C11695   4.209   5.245  -0.464 -0.2492  0.1285  0.7082
  847MOL0     O11696   4.228   5.202  -0.331 -0.4412 -0.3276 -0.0390
  847MOL0     C11697   4.128   5.163  -0.255  0.7090  0.6768  0.1119
  847MOL0     C11698   3.995   5.138  -0.306 -0.2214  0.1990  0.6902
  847MOL0     C11699   3.897   5.097  -0.220 -0.1063  0.0980 -0.0734
  847MOL0     C11700   3.920   5.084  -0.076 -0.0328 -0.4132  0.0957
  847MOL0     C11701   3.813   5.042   0.016 -0.0665 -0.6955  0.2054
  847MOL0     O11702   3.699   5.025  -0.039  0.9131 -0.2347 -0.3326
  847MOL0     C11703   3.594   4.966   0.025 -0.1538 -0.4802  0.2836
  847MOL0     C11704   3.547   5.005   0.155  0.2828 -0.3384  0.6166
  847MOL0     C11705   3.445   4.934   0.212 -0.2854  0.6803 -0.9665
  847MOL0     C11706   3.374   4.833   0.139 -0.0075 -0.8708 -0.2004
  847MOL0     O11707   3.276   4.772   0.213  0.5370  0.2942 -0.2369
  847MOL0     C11708   3.258   4.630   0.205 -0.1954  0.7697 -0.6617
  847MOL0     C11709   3.122   4.585   0.158  0.0752 -0.0964 -0.5089
  847MOL0     C11710   2.997   4.663   0.207 -0.5168  0.0767 -0.8533
  847MOL0     C11711   2.948   4.606   0.347  0.6973 -0.1414 -0.9308
  847MOL0     C11712   2.807   4.632   0.392  0.1676  0.9497  0.4573
  847MOL0     C11713   2.756   4.780   0.401  0.4207  0.2400  0.4692
  847MOL0     C11714   2.607   4.772   0.423  0.0263 -0.3229 -0.3272
  847MOL0     C11715   2.569   4.914   0.466 -0.2346 -0.0729  0.6025
  847MOL0    Cl11716   2.393   4.934   0.462 -0.3189 -0.4649  0.0276
  847MOL0     C11717   3.414   4.808   0.010 -0.7110  0.2358  0.0826
  847MOL0     C11718   3.522   4.873  -0.046  0.3180  1.1766 -0.8390
  847MOL0     O11719   3.840   5.018   0.135  0.4957 -0.7211 -0.0684
  847MOL0     C11720   4.049   5.103  -0.031  0.5804 -0.2627  0.0198
  847MOL0     C11721   4.152   5.147  -0.123 -0.4820  0.1393  0.6869
  847MOL0     N11722   4.775   5.399  -0.423  0.1491  0.0290 -1.5737
  847MOL0     N11723   4.892   5.360  -0.415 -0.3066 -0.3881  0.2334
  847MOL0     C11724   5.306   4.742   0.116  1.0858  0.1435 -0.6587
  847MOL0     C11725   5.301   4.651   0.223 -0.1527  0.4499  0.0168
  847MOL0     C11726   5.439   4.302   0.484  0.4966  0.0479  0.6404
  847MOL0     C11727   5.320   4.304   0.558 -0.5125  0.1117  0.5353
  847MOL0     C11728   5.286   4.199   0.645 -0.6399  0.0680  0.5382
  847MOL0     C11729   5.375   4.095   0.657  0.3935 -0.2519  0.1773
  847MOL0     O11730   5.352   4.000   0.751 -0.1738 -0.2520  0.1296
  847MOL0     C11731   5.457   3.977   0.848 -0.0476  0.0716  0.3109
  847MOL0     C11732   5.501   4.115   0.901  0.7885 -0.6920 -0.1673
  847MOL0     C11733   5.556   4.103   1.048  0.4649  0.7706 -0.4093
  847MOL0     C11734   5.681   4.019   1.055 -0.1833  0.6551  0.6002
  847MOL0     C11735   5.794   4.086   0.993  0.1470 -0.7300  0.2832
  847MOL0     C11736   5.895   4.123   0.947 -0.4845  0.1041 -1.0138
  847MOL0     C11737   5.489   4.082   0.576 -0.3629  0.1557 -0.0727
  847MOL0     C11738   5.524   4.189   0.492 -0.5646 -0.2414  0.5856
  847MOL0     H11739   5.634   4.593   0.242  0.6968 -1.0741 -0.0194
  847MOL0     H11740   5.636   4.768   0.074  1.8933 -1.5549  1.4370
  847MOL0     H11741   5.598   4.863  -0.121  0.1986 -1.9246  2.8167
  847MOL0     H11742   5.559   4.988   0.014  0.1936 -0.9368  0.8038
  847MOL0     H11743   5.566   5.125  -0.208 -1.7787  2.3230 -1.8317
  847MOL0     H11744   5.393   5.078  -0.164 -0.0089  0.4205  0.3306
  847MOL0     H11745   5.386   4.902  -0.324  1.1431 -1.9608  2.1834
  847MOL0     H11746   5.561   4.901  -0.345  0.1695  1.0646  0.1789
  847MOL0     H11747   5.580   5.106  -0.450  1.9191 -1.2236  3.6728
  847MOL0     H11748   5.457   5.005  -0.524 -4.2086 -0.3848  0.6614
  847MOL0     H11749   5.416   5.254  -0.510  1.2941  0.4588  1.7185
  847MOL0     H11750   5.366   5.218  -0.339 -0.3596  2.3660 -1.2019
  847MOL0     H11751   5.231   5.020  -0.459  0.9128  0.5796 -1.1485
  847MOL0     H11752   5.257   5.123  -0.603 -0.6367  1.7133 -0.7529
  847MOL0     H11753   5.111   5.207  -0.366  2.8515 -0.2230  1.1495
  847MOL0     H11754   5.185   5.311  -0.502  0.2842  0.4467  1.8464
  847MOL0     H11755   4.985   5.084  -0.552  1.5165 -0.2121  1.9345
  847MOL0     H11756   5.040   5.213  -0.663  1.2433  3.0455  1.3844
  847MOL0     H11757   4.754   5.225  -0.682 -0.4618 -0.4576  0.7913
  847MOL0     H11758   4.538   5.403  -0.654 -0.5219  0.5817  0.9922
  847MOL0     H11759   4.542   5.508  -0.514 -2.8038  0.3210 -1.7618
  847MOL0     H11760   4.482   5.274  -0.387  1.1461  0.9827  0.0178
  847MOL0     H11761   4.463   5.227  -0.554 -0.4966  0.3374 -0.8801
  847MOL0     H11762   4.306   5.437  -0.422  0.6278 -0.0162 -0.0718
  847MOL0     H11763   4.300   5.407  -0.594  2.9181  3.4470  1.5089
  847MOL0     H11764   4.213   5.158  -0.530 -1.8001  1.4017 -1.1497
  847MOL0     H11765   4.109   5.285  -0.483 -1.3293 -3.0133 -0.9134
  847MOL0     H11766   3.965   5.150  -0.409  0.0583 -1.3657  0.4008
  847MOL0     H11767   3.797   5.092  -0.260 -0.4512  1.2186  0.6219
  847MOL0     H11768   3.590   5.087   0.211 -2.3784  0.8805  1.0128
  847MOL0     H11769   3.408   4.961   0.310 -1.8967  3.0217 -2.1146
  847MOL0     H11770   3.287   4.598   0.305  0.8213  0.7989 -0.9314
  847MOL0     H11771   3.335   4.584   0.142 -0.2355 -1.9878  1.1427
  847MOL0     H11772   3.120   4.477   0.175 -0.1928 -0.0940 -0.5196
  847MOL0     H11773   3.115   4.594   0.049  0.2480  0.5703 -0.4688
  847MOL0     H11774   2.923   4.644   0.129 -0.2113  0.3308 -1.2050
  847MOL0     H11775   3.021   4.769   0.216  2.7197 -0.4711 -1.8850
  847MOL0     H11776   2.942   4.497   0.344 -1.9041 -0.0313 -2.9218
  847MOL0     H11777   3.019   4.629   0.428 -3.0310  0.4746  2.4906
  847MOL0     H11778   2.800   4.577   0.486 -1.6051  0.1543 -0.0920
  847MOL0     H11779   2.743   4.573   0.326  0.6105  0.8876  0.0730
  847MOL0     H11780   2.773   4.835   0.308 -1.4717 -1.4321 -0.9434
  847MOL0     H11781   2.806   4.829   0.486 -0.8274  2.1181  0.1732
  847MOL0     H11782   2.537   4.746   0.343 -2.4717 -1.6051  2.0974
  847MOL0     H11783   2.583   4.712   0.511 -1.8892 -0.5678 -0.9581
  847MOL0     H11784   2.604   4.973   0.381 -3.0383  0.7968 -0.0659
  847MOL0     H11785   2.608   4.941   0.564  1.3205 -1.7311  0.4945
  847MOL0     H11786   3.351   4.731  -0.035  0.9540 -0.8775 -0.4545
  847MOL0     H11787   3.554   4.845  -0.146  2.7492  2.8381 -0.6269
  847MOL0     H11788   4.075   5.080   0.072  1.3437 -2.3255 -0.5785
  847MOL0     H11789   4.257   5.159  -0.096 -0.4506 -1.0040  1.1133
  847MOL0     H11790   5.225   4.803   0.078 -0.6782 -1.9225 -0.3725
  847MOL0     H11791   5.213   4.626   0.281 -2.1407 -0.1840 -3.0384
  847MOL0     H11792   5.271   4.400   0.557  0.6949  0.8278  2.7206
  847MOL0     H11793   5.191   4.199   0.698 -1.4949  0.1573 -0.9435
  847MOL0     H11794   5.546   3.930   0.805 -0.0488  0.9486 -0.6900
  847MOL0     H11795   5.423   3.915   0.930 -0.5066 -1.1429 -0.7714
  847MOL0     H11796   5.579   4.156   0.835 -1.3350  0.9955 -1.7790
  847MOL0     H11797   5.422   4.190   0.901  1.5823  0.2362 -2.1877
  847MOL0     H11798   5.480   4.068   1.117 -0.6186  2.6056 -0.6193
  847MOL0     H11799   5.578   4.204   1.082  0.8954  0.3920  0.4488
  847MOL0     H11800   5.705   4.000   1.160  2.0415  0.2796  0.0866
  847MOL0     H11801   5.681   3.919   1.010  3.2878  1.1542 -0.8179
  847MOL0     H11802   5.986   4.173   0.921  0.3684 -0.1986  1.1407
  847MOL0     H11803   5.545   3.993   0.603  1.1996  1.3866  0.9195
  847MOL0     H11804   5.619   4.177   0.441 -0.8189 -0.2705  0.1119
  848MOL0     O11805   7.255   4.851   7.640  0.3058 -0.5738  0.1157
  848MOL0     C11806   7.184   4.783   7.706  0.0179  0.4160  0.5497
  848MOL0     O11807   7.219   4.674   7.788 -0.6165  0.1237 -0.5418
  848MOL0     C11808   7.354   4.650   7.780 -0.7091  0.9183 -0.8061
  848MOL0     C11809   7.423   4.614   7.658  1.3892 -0.8697 -0.7629
  848MOL0     C11810   7.561   4.578   7.661  0.4772 -0.1759 -0.1288
  848MOL0     C11811   7.630   4.579   7.774 -0.0416 -0.3094 -0.7012
  848MOL0     O11812   7.763   4.553   7.761 -0.3248 -0.0813  0.7043
  848MOL0     C11813   7.842   4.522   7.872  0.3137  0.2299  0.1708
  848MOL0     C11814   7.956   4.626   7.903  0.5388  0.4472  1.1272
  848MOL0     C11815   8.052   4.640   7.787 -1.0079  0.9458 -0.8240
  848MOL0     C11816   8.139   4.509   7.778  0.0755  0.3895 -0.2751
  848MOL0     C11817   8.202   4.496   7.638 -0.6188  0.0711 -0.3879
  848MOL0     C11818   8.300   4.363   7.625  0.8495 -0.4665  0.0909
  848MOL0     C11819   8.328   4.332   7.476 -0.5393 -0.5542  0.1509
  848MOL0     C11820   8.376   4.187   7.453  0.2449  0.5052  0.2400
  848MOL0     N11821   8.500   4.157   7.517 -0.3830 -0.1106 -0.1982
  848MOL0     C11822   8.525   4.085   7.632  0.4300  0.1076  0.6472
  848MOL0     C11823   8.659   4.088   7.650  0.9094 -0.2821 -0.7686
  848MOL0     C11824   8.737   4.032   7.767 -0.4848 -0.3714  0.1953
  848MOL0     C11825   8.883   3.983   7.729 -0.6093  0.2933  0.1665
  848MOL0     C11826   8.959   3.907   7.836 -0.5300 -0.4538  0.0740
  848MOL0     C11827   9.093   3.860   7.800 -0.8526 -0.1581 -0.1204
  848MOL0     O11828   9.163   3.821   7.920 -0.4812 -0.1273 -0.6302
  848MOL0     C11829   9.297   3.824   7.923  0.0921  1.3641 -0.6530
  848MOL0     C11830   9.376   3.792   7.808 -0.3279  0.6972 -0.1603
  848MOL0     C11831   9.515   3.783   7.822  0.1577 -0.0888  0.1493
  848MOL0     C11832   9.577   3.830   7.948 -0.2295 -0.5769 -0.1990
  848MOL0     C11833   9.723   3.811   7.975  0.8314 -0.1560  0.5145
  848MOL0     O11834   9.809   3.740   7.894  0.3832  0.1653  0.3097
  848MOL0     C11835   9.947   3.757   7.905  0.7447 -0.8349  0.2229
  848MOL0     C11836  10.014   3.720   8.020 -0.2621 -0.0986 -0.1847
  848MOL0     C11837  10.157   3.741   8.025  0.8087 -0.0102 -0.4415
  848MOL0     C11838  10.223   3.808   7.927 -0.6611 -0.1181 -0.7550
  848MOL0     O11839  10.358   3.816   7.936  0.4815  0.2928 -0.2034
  848MOL0     C11840  10.421   3.916   7.859  0.2426  0.9331 -0.2172
  848MOL0     C11841  10.562   3.941   7.918  0.3574  0.6191 -0.3698
  848MOL0     C11842  10.651   3.820   7.922 -0.8670  0.4354 -0.1436
  848MOL0     C11843  10.800   3.856   7.943  1.0000 -0.6407 -0.1025
  848MOL0     C11844  10.885   3.732   7.976 -0.0441  0.2642  0.0729
  848MOL0     C11845  11.025   3.789   8.015  0.2211 -0.8146  0.5841
  848MOL0     C11846  11.121   3.675   8.053 -0.7320  0.2793  0.2762
  848MOL0     C11847  11.252   3.721   8.097 -0.8612  0.1798 -0.6743
  848MOL0    Cl11848  11.341   3.576   8.140  0.2572 -0.5490  0.1450
  848MOL0     C11849  10.147   3.839   7.821 -0.2391 -0.0123 -0.0282
  848MOL0     C11850  10.013   3.808   7.797 -0.0531 -0.4598 -0.1466
  848MOL0     O11851   9.766   3.879   8.070 -0.6537 -0.5635  0.3653
  848MOL0     C11852   9.494   3.852   8.057  0.0917  0.0453  0.2152
  848MOL0     C11853   9.356   3.845   8.046  1.3824 -0.0119  0.9656
  848MOL0     N11854   8.712   4.149   7.546 -0.0062  0.5185 -0.3317
  848MOL0     N11855   8.621   4.193   7.459 -0.1089  0.0343  0.0772
  848MOL0     C11856   7.567   4.608   7.895  0.6328  0.0139  0.0351
  848MOL0     C11857   7.428   4.640   7.896  0.4036  0.4770 -0.3694
  848MOL0     C11858   7.037   4.829   7.706  0.1233 -0.0126 -0.4252
  848MOL0     C11859   6.948   4.776   7.800  0.2536  0.0130 -0.4185
  848MOL0     C11860   6.820   4.824   7.801  0.3043 -0.3746 -1.0063
  848MOL0     C11861   6.765   4.916   7.713 -0.2553 -0.3558  0.6874
  848MOL0     O11862   6.639   4.957   7.742  0.9745  0.7664  0.5391
  848MOL0     C11863   6.572   5.038   7.645  0.1230 -0.5186  0.4765
  848MOL0     C11864   6.425   5.042   7.683 -0.2382  1.0297  0.0037
  848MOL0     C11865   6.404   5.137   7.799 -0.9686 -0.0039  0.4751
  848MOL0     C11866   6.301   5.083   7.902 -0.5431 -0.0665  1.0481
  848MOL0     C11867   6.276   5.185   8.003 -0.1236  0.1297  0.2352
  848MOL0     C11868   6.265   5.283   8.081  0.1031  0.3586  0.0194
  848MOL0     C11869   6.855   4.964   7.609 -0.7529  0.8003 -0.3922
  848MOL0     C11870   6.988   4.932   7.616 -1.0297  0.5123  0.1000
  848MOL0     H11871   7.377   4.615   7.560 -1.8935 -3.7496  0.5430
  848MOL0     H11872   7.607   4.556   7.565 -0.6906  1.2067 -1.0537
  848MOL0     H11873   7.886   4.425   7.849 -0.8507 -0.3762  0.4524
  848MOL0     H11874   7.779   4.499   7.959 -1.9030  1.8107 -0.9291
  848MOL0     H11875   7.995   4.588   7.999 -1.7019 -3.0138  0.8556
  848MOL0     H11876   7.907   4.721   7.924  0.6248  1.2103 -1.7752
  848MOL0     H11877   8.121   4.724   7.796  1.6227 -1.0332 -1.1826
  848MOL0     H11878   7.999   4.650   7.692  2.3329 -1.1679 -3.1294
  848MOL0     H11879   8.216   4.518   7.855 -1.1200  1.9318  0.8122
  848MOL0     H11880   8.086   4.416   7.801 -0.7254  0.9023  0.0105
  848MOL0     H11881   8.247   4.590   7.607 -0.4299 -0.8236 -3.0684
  848MOL0     H11882   8.116   4.484   7.571 -0.4650 -1.6522 -0.3247
  848MOL0     H11883   8.251   4.277   7.671 -0.6907  2.2580  4.0432
  848MOL0     H11884   8.391   4.385   7.681  1.8724  0.6919 -1.8908
  848MOL0     H11885   8.229   4.357   7.435 -0.4030  1.5015  0.9522
  848MOL0     H11886   8.399   4.405   7.437 -3.2037  1.0138 -2.2252
  848MOL0     H11887   8.393   4.167   7.347 -2.1224 -0.7823  0.0394
  848MOL0     H11888   8.291   4.129   7.490  0.8419  0.3573  1.4468
  848MOL0     H11889   8.452   4.039   7.698 -0.1137 -1.3395 -0.8932
  848MOL0     H11890   8.687   3.945   7.811  0.1611 -1.3126 -0.8494
  848MOL0     H11891   8.748   4.113   7.840 -4.5578 -0.0201  0.6568
  848MOL0     H11892   8.942   4.069   7.695 -1.4031  0.1850 -1.5716
  848MOL0     H11893   8.871   3.916   7.643 -2.6368 -2.2546  2.2526
  848MOL0     H11894   8.968   3.974   7.922 -2.7031 -1.8121  1.4386
  848MOL0     H11895   8.896   3.824   7.868 -1.5608  1.5399  3.7864
  848MOL0     H11896   9.140   3.953   7.767 -1.7057  0.1416 -0.5200
  848MOL0     H11897   9.090   3.782   7.724 -2.7499 -0.0582 -0.1975
  848MOL0     H11898   9.328   3.748   7.721  0.3765 -1.2442  0.3803
  848MOL0     H11899   9.576   3.752   7.737 -1.3110  0.4233 -1.1422
  848MOL0     H11900   9.955   3.684   8.104  0.1391  2.2440  1.2090
  848MOL0     H11901  10.222   3.699   8.101  0.2510 -2.4810 -1.2254
  848MOL0     H11902  10.364   4.010   7.856 -1.6356 -0.0824  1.1736
  848MOL0     H11903  10.418   3.867   7.761 -1.9564 -1.1351  0.7642
  848MOL0     H11904  10.554   3.984   8.018 -1.8496  0.9277 -0.6431
  848MOL0     H11905  10.611   4.015   7.853  0.3422  1.1423  0.1979
  848MOL0     H11906  10.641   3.765   7.828  1.7988  0.3031 -0.4240
  848MOL0     H11907  10.615   3.761   8.006  3.4482 -0.5192  1.3158
  848MOL0     H11908  10.833   3.896   7.847 -2.4650 -0.8431 -1.5088
  848MOL0     H11909  10.802   3.934   8.020 -1.2365 -0.1305 -0.5090
  848MOL0     H11910  10.894   3.670   7.887  1.8442  0.0653  0.3399
  848MOL0     H11911  10.849   3.675   8.062  0.6530 -1.7574 -0.9045
  848MOL0     H11912  11.027   3.866   8.093  1.0100 -1.4090  1.1782
  848MOL0     H11913  11.075   3.835   7.929  1.4208  0.8295  2.0689
  848MOL0     H11914  11.077   3.621   8.138 -1.4732  2.1052  1.1101
  848MOL0     H11915  11.132   3.611   7.965 -1.5524 -1.0890  1.1214
  848MOL0     H11916  11.239   3.777   8.190  0.9213 -0.9603  0.2940
  848MOL0     H11917  11.296   3.781   8.017 -2.9998  3.0869  0.1276
  848MOL0     H11918  10.210   3.888   7.747 -0.8164  0.9522  0.1072
  848MOL0     H11919   9.949   3.830   7.712  0.8191 -2.4906 -1.3951
  848MOL0     H11920   9.536   3.869   8.155 -0.9450  1.1885  0.4735
  848MOL0     H11921   9.286   3.865   8.127  0.4014  2.7085 -0.3932
  848MOL0     H11922   7.618   4.595   7.991  4.2657 -0.6084 -1.8103
  848MOL0     H11923   7.371   4.659   7.987 -2.2615 -1.0944 -1.5813
  848MOL0     H11924   6.973   4.690   7.862  0.3150 -1.1765 -2.0183
  848MOL0     H11925   6.751   4.794   7.879 -0.6956  0.8386 -1.3924
  848MOL0     H11926   6.591   5.003   7.543  2.8772  0.0635  0.7091
  848MOL0     H11927   6.620   5.136   7.642  2.6016 -1.6802  0.1281
  848MOL0     H11928   6.357   5.068   7.602 -1.0104 -0.6223  0.0934
  848MOL0     H11929   6.393   4.942   7.711  2.1288 -0.7627 -2.9352
  848MOL0     H11930   6.384   5.236   7.757 -0.0623 -1.0399 -2.7244
  848MOL0     H11931   6.499   5.157   7.849  0.1146  0.4914 -1.6498
  848MOL0     H11932   6.210   5.068   7.842  1.1615 -0.5040 -1.5981
  848MOL0     H11933   6.333   4.990   7.950 -0.3643 -1.0215 -0.8270
  848MOL0     H11934   6.275   5.376   8.133  2.8096  1.4074 -2.0835
  848MOL0     H11935   6.817   5.037   7.539  0.9322  0.9641 -1.1968
  848MOL0     H11936   7.053   4.995   7.557  0.5749  0.1416  1.4201
  849MOL0     O11937   0.409  10.692   4.652 -0.1138 -0.2043 -0.1682
  849MOL0     C11938   0.454  10.639   4.550 -0.0210 -0.1236 -0.5971
  849MOL0     O11939   0.388  10.543   4.463 -0.0880 -0.3237 -0.6850
  849MOL0     C11940   0.256  10.515   4.500 -0.5063 -0.1996 -0.0509
  849MOL0     C11941   0.146  10.576   4.430 -0.3070 -0.6583 -0.2980
  849MOL0     C11942   0.020  10.556   4.475  0.3177 -0.5614 -0.3461
  849MOL0     C11943   0.000  10.459   4.581  0.2801  0.3288 -0.0377
  849MOL0     O11944  -0.122  10.440   4.639 -0.4331  0.8383 -0.0211
  849MOL0     C11945  -0.237  10.483   4.566  0.6523 -0.0323  0.2708
  849MOL0     C11946  -0.371  10.426   4.619  0.4677 -0.6432 -1.2653
  849MOL0     C11947  -0.492  10.525   4.610 -0.0066  0.5849 -0.4587
  849MOL0     C11948  -0.604  10.451   4.686  0.1384 -0.4353  0.2157
  849MOL0     C11949  -0.737  10.518   4.688  0.0377 -0.5162 -0.6885
  849MOL0     C11950  -0.829  10.463   4.798 -0.4251  0.4603 -0.6446
  849MOL0     C11951  -0.864  10.310   4.787 -0.0795  1.0466  0.0421
  849MOL0     C11952  -0.970  10.256   4.884  0.3630 -0.5008  0.1092
  849MOL0     N11953  -1.112  10.279   4.834  0.3466  0.0508 -0.5156
  849MOL0     C11954  -1.193  10.181   4.777 -0.1174 -0.0387 -0.7490
  849MOL0     C11955  -1.289  10.249   4.711 -0.3138 -0.0967 -0.5541
  849MOL0     C11956  -1.390  10.183   4.627  0.5206 -0.1521 -0.9235
  849MOL0     C11957  -1.514  10.266   4.607  0.5046 -0.0410 -0.5268
  849MOL0     C11958  -1.621  10.190   4.516 -0.3034 -0.3988 -1.0793
  849MOL0     C11959  -1.746  10.271   4.504 -0.1910 -0.6137  0.0612
  849MOL0     O11960  -1.840  10.186   4.436 -0.5258 -0.6433 -0.0727
  849MOL0     C11961  -1.942  10.239   4.363  0.3537  0.2019 -0.7156
  849MOL0     C11962  -2.025  10.152   4.292 -0.8978 -0.1964  0.0407
  849MOL0     C11963  -2.142  10.200   4.223 -0.2731  0.2386 -0.1070
  849MOL0     C11964  -2.175  10.334   4.224  0.7255 -0.3491  0.1906
  849MOL0     C11965  -2.281  10.392   4.136  0.3188 -0.3623  0.3188
  849MOL0     O11966  -2.363  10.305   4.063 -0.8623 -0.4843 -0.2525
  849MOL0     C11967  -2.478  10.356   4.006 -0.3452 -0.0390 -1.0251
  849MOL0     C11968  -2.534  10.302   3.890 -0.2392  0.6386 -0.2006
  849MOL0     C11969  -2.659  10.342   3.839 -0.6533  0.1773 -0.2403
  849MOL0     C11970  -2.732  10.453   3.890 -0.2634 -0.0145  0.3129
  849MOL0     O11971  -2.854  10.479   3.844  0.8704  0.2342 -0.1140
  849MOL0     C11972  -2.927  10.600   3.888 -0.3256 -0.4394  0.2741
  849MOL0     C11973  -3.080  10.584   3.868  0.2624  0.5631 -0.8220
  849MOL0     C11974  -3.162  10.549   4.000 -0.1774 -0.0450 -0.0772
  849MOL0     C11975  -3.308  10.553   3.971  0.4592  0.0857 -0.4864
  849MOL0     C11976  -3.399  10.481   4.067  0.5280  0.9851  1.0543
  849MOL0     C11977  -3.556  10.486   4.024 -0.1868 -0.1581  0.1860
  849MOL0     C11978  -3.630  10.421   4.143  0.7854  0.6728  0.2100
  849MOL0     C11979  -3.783  10.423   4.136  0.7430  0.7708 -0.0849
  849MOL0    Cl11980  -3.853  10.346   3.990 -0.6179 -0.0833 -0.0768
  849MOL0     C11981  -2.677  10.504   4.016 -0.1712 -0.9081 -0.3394
  849MOL0     C11982  -2.558  10.459   4.070 -1.1399 -0.8106  0.2364
  849MOL0     O11983  -2.286  10.513   4.130 -0.0107  0.3501  0.5296
  849MOL0     C11984  -2.099  10.422   4.301 -0.5329  0.4112 -0.0596
  849MOL0     C11985  -1.983  10.377   4.369 -0.1524  0.7605  0.3398
  849MOL0     N11986  -1.254  10.387   4.725 -0.0008  0.3148  0.0415
  849MOL0     N11987  -1.150  10.406   4.793  0.0401  0.6838  0.1863
  849MOL0     C11988   0.105  10.401   4.653 -0.0680 -0.2159 -0.2394
  849MOL0     C11989   0.234  10.429   4.611  0.1450  0.6564  0.3127
  849MOL0     C11990   0.601  10.662   4.533  0.0880 -0.0883  0.0987
  849MOL0     C11991   0.676  10.738   4.621 -0.3165 -0.6129  0.4524
  849MOL0     C11992   0.806  10.767   4.595  0.2328  0.3917 -0.6786
  849MOL0     C11993   0.873  10.711   4.485  0.2844 -0.0797  0.5224
  849MOL0     O11994   1.002  10.752   4.454  0.3492  0.0797  0.3368
  849MOL0     C11995   1.074  10.680   4.355 -0.8101 -0.1497 -0.1696
  849MOL0     C11996   1.212  10.744   4.330  0.6717 -0.1668 -0.2371
  849MOL0     C11997   1.298  10.655   4.239 -0.4375 -0.1917 -0.5415
  849MOL0     C11998   1.438  10.714   4.223 -0.1421 -0.0370  0.0654
  849MOL0     C11999   1.527  10.619   4.164  0.1321  0.4352  0.1120
  849MOL0     C12000   1.613  10.546   4.122  0.4836  0.0453 -0.3890
  849MOL0     C12001   0.799  10.616   4.408 -0.7955 -0.4059 -0.2893
  849MOL0     C12002   0.664  10.607   4.425  0.2376  0.2656 -0.2627
  849MOL0     H12003   0.168  10.641   4.346  2.5028 -0.1374  0.7167
  849MOL0     H12004  -0.057  10.614   4.425  0.5815  0.4973  0.4467
  849MOL0     H12005  -0.222  10.451   4.463  2.3052  0.0823  0.4487
  849MOL0     H12006  -0.252  10.591   4.571 -2.1067 -0.3682  0.7884
  849MOL0     H12007  -0.360  10.395   4.723  0.2892 -0.7563 -1.2797
  849MOL0     H12008  -0.400  10.336   4.564  0.7937 -0.2178 -2.1594
  849MOL0     H12009  -0.511  10.548   4.505 -0.0240  4.4235  0.2534
  849MOL0     H12010  -0.456  10.611   4.668  1.8707 -2.0104  2.6170
  849MOL0     H12011  -0.614  10.347   4.652  0.2843 -0.1781 -0.6411
  849MOL0     H12012  -0.568  10.443   4.789  4.6847 -3.2235 -1.2466
  849MOL0     H12013  -0.793  10.517   4.594 -1.0475 -2.1917 -0.0693
  849MOL0     H12014  -0.721  10.622   4.717 -1.1204 -0.3403 -0.6292
  849MOL0     H12015  -0.928  10.509   4.800 -2.2545 -3.0550 -1.2959
  849MOL0     H12016  -0.791  10.492   4.896 -1.5675  1.1687 -0.4001
  849MOL0     H12017  -0.891  10.281   4.685 -3.0956  3.3730  0.0099
  849MOL0     H12018  -0.779  10.250   4.819 -1.8861 -1.0332  1.2738
  849MOL0     H12019  -0.952  10.284   4.988  1.1266 -3.9225  1.0427
  849MOL0     H12020  -0.951  10.149   4.899  1.6555 -0.0894  1.6836
  849MOL0     H12021  -1.177  10.074   4.787 -0.9488 -0.2851 -1.8828
  849MOL0     H12022  -1.419  10.087   4.670 -1.7725  0.0205 -1.9182
  849MOL0     H12023  -1.336  10.156   4.536  2.4065  3.4404 -1.0730
  849MOL0     H12024  -1.485  10.357   4.553  2.3693 -0.1353  0.2359
  849MOL0     H12025  -1.547  10.299   4.706  1.0495  1.8674 -0.9349
  849MOL0     H12026  -1.566  10.167   4.425  3.7707 -0.4235  1.1410
  849MOL0     H12027  -1.644  10.095   4.565 -0.4607  1.2407  2.4114
  849MOL0     H12028  -1.720  10.360   4.446 -3.9622  0.7834  0.2703
  849MOL0     H12029  -1.777  10.302   4.604 -1.0085 -0.9024 -0.0964
  849MOL0     H12030  -1.992  10.049   4.282  2.5776  0.8780 -0.8905
  849MOL0     H12031  -2.210  10.131   4.174  2.3567 -1.7959 -1.1350
  849MOL0     H12032  -2.475  10.219   3.852 -1.1737  0.1288 -0.5794
  849MOL0     H12033  -2.706  10.285   3.760 -1.2342  0.7704 -0.3288
  849MOL0     H12034  -2.898  10.673   3.811  2.0535 -0.1118  1.3774
  849MOL0     H12035  -2.909  10.644   3.987 -0.3610 -0.7412  0.4159
  849MOL0     H12036  -3.104  10.507   3.794 -1.6839  0.0258  0.2872
  849MOL0     H12037  -3.118  10.685   3.851 -2.7751 -0.3882 -0.2681
  849MOL0     H12038  -3.136  10.622   4.077  2.1872 -2.7674  1.8778
  849MOL0     H12039  -3.125  10.450   4.025  2.9250 -0.6611 -5.4519
  849MOL0     H12040  -3.330  10.657   3.943 -1.0938  0.3684  1.4948
  849MOL0     H12041  -3.322  10.494   3.880 -2.2866  0.9588 -0.7435
  849MOL0     H12042  -3.381  10.526   4.165  0.9394 -0.4955  1.6832
  849MOL0     H12043  -3.371  10.377   4.087 -1.9747  0.0517  0.0899
  849MOL0     H12044  -3.573  10.419   3.939 -0.1060 -1.2266  0.9870
  849MOL0     H12045  -3.583  10.592   4.012 -1.5121 -0.2562  1.8993
  849MOL0     H12046  -3.594  10.320   4.164  3.7016  1.4535 -0.5510
  849MOL0     H12047  -3.605  10.476   4.235 -1.8489 -0.4640  1.7503
  849MOL0     H12048  -3.819  10.526   4.147 -0.7936  0.0389  2.6157
  849MOL0     H12049  -3.827  10.373   4.222  0.1408  0.1827 -0.7320
  849MOL0     H12050  -2.740  10.566   4.080 -1.5396 -1.7169 -0.8439
  849MOL0     H12051  -2.524  10.502   4.164 -2.3495  0.6625  0.0377
  849MOL0     H12052  -2.126  10.527   4.302  0.8372  0.8925 -2.8798
  849MOL0     H12053  -1.938  10.450   4.435  1.1507  0.1737  0.1328
  849MOL0     H12054   0.089  10.337   4.739  0.2384  0.8276  0.6045
  849MOL0     H12055   0.317  10.381   4.662  0.2678  0.4647 -0.0634
  849MOL0     H12056   0.627  10.792   4.702 -2.8135 -1.2302 -0.5361
  849MOL0     H12057   0.853  10.828   4.672  0.9655 -3.1566  1.9218
  849MOL0     H12058   1.023  10.691   4.258  0.7717 -0.9054 -1.1180
  849MOL0     H12059   1.080  10.575   4.382 -0.0478 -0.3095 -0.9268
  849MOL0     H12060   1.190  10.836   4.274  0.5860  0.7216  1.1952
  849MOL0     H12061   1.262  10.747   4.427  2.1434 -0.8105 -0.9376
  849MOL0     H12062   1.256  10.649   4.138 -2.9683 -2.9701  0.4901
  849MOL0     H12063   1.303  10.555   4.284 -0.5750 -0.9914 -2.2184
  849MOL0     H12064   1.448  10.803   4.160 -2.2265  1.6152  1.9379
  849MOL0     H12065   1.465  10.743   4.325 -0.5870  1.8211 -0.3065
  849MOL0     H12066   1.683  10.477   4.078  1.0097  0.2557  0.1070
  849MOL0     H12067   0.847  10.571   4.321 -0.4841 -1.5435  0.4401
  849MOL0     H12068   0.605  10.553   4.352  2.6116 -2.9056 -0.0945
  850MOL0     O12069   7.496   8.393   8.284 -0.5503  0.3627  0.0842
  850MOL0     C12070   7.489   8.322   8.382  0.0601 -0.3529 -0.1588
  850MOL0     O12071   7.369   8.262   8.428 -0.0959  0.0236  0.6388
  850MOL0     C12072   7.251   8.281   8.356 -0.2387  0.3068 -0.4106
  850MOL0     C12073   7.174   8.399   8.363  0.0841 -0.0910 -0.8162
  850MOL0     C12074   7.052   8.412   8.286  0.9306  0.3009 -0.9294
  850MOL0     C12075   7.002   8.303   8.222  0.1497 -0.1457  0.6625
  850MOL0     O12076   6.888   8.290   8.144  0.2337 -0.7912 -0.1053
  850MOL0     C12077   6.777   8.376   8.170 -0.7799 -0.5385 -0.3870
  850MOL0     C12078   6.651   8.343   8.100  0.3467  0.6117  0.2378
  850MOL0     C12079   6.534   8.409   8.182  1.0143 -0.0892  0.1660
  850MOL0     C12080   6.398   8.351   8.153 -0.3335  0.4005  0.3316
  850MOL0     C12081   6.274   8.429   8.220 -0.4475  0.8690 -1.1561
  850MOL0     C12082   6.155   8.325   8.214 -0.0457 -0.0039  0.3579
  850MOL0     C12083   6.042   8.377   8.306 -0.1674 -1.1390 -0.3081
  850MOL0     C12084   5.937   8.465   8.232  0.8737  0.1138 -0.1738
  850MOL0     N12085   5.857   8.549   8.323  0.1159 -0.3295 -0.4822
  850MOL0     C12086   5.732   8.596   8.280  0.1807 -0.6965 -0.8543
  850MOL0     C12087   5.688   8.653   8.399 -0.4078 -0.6496  0.0443
  850MOL0     C12088   5.555   8.712   8.429  0.4311  0.8439  0.5567
  850MOL0     C12089   5.518   8.830   8.340  0.5829 -0.5968  0.1381
  850MOL0     C12090   5.373   8.828   8.301 -0.4710 -0.3031 -0.0074
  850MOL0     C12091   5.346   8.953   8.218  0.0720 -0.6049 -0.0471
  850MOL0     O12092   5.244   8.933   8.108 -1.0584 -0.3307 -0.9192
  850MOL0     C12093   5.110   8.964   8.137 -0.6853  0.5573  0.3533
  850MOL0     C12094   5.038   8.881   8.224  0.2697  0.5361 -0.2745
  850MOL0     C12095   4.901   8.904   8.248 -0.2918 -0.4673 -0.7219
  850MOL0     C12096   4.832   9.006   8.180 -0.1178  0.6744 -0.4196
  850MOL0     C12097   4.683   9.025   8.199  0.8678  0.0812  0.1720
  850MOL0     O12098   4.618   8.941   8.284  0.2268  0.0477 -0.7188
  850MOL0     C12099   4.483   8.939   8.315  0.0511  0.2428 -0.3585
  850MOL0     C12100   4.379   8.970   8.232  0.2291 -0.9889  0.1970
  850MOL0     C12101   4.244   8.951   8.279  0.8400 -0.2436 -0.8361
  850MOL0     C12102   4.222   8.904   8.407 -0.3826 -0.9496 -0.1905
  850MOL0     O12103   4.094   8.884   8.449  0.6668 -0.6810  0.4662
  850MOL0     C12104   4.065   8.924   8.585  0.3214 -0.4868 -0.6596
  850MOL0     C12105   3.912   8.960   8.595  0.9028 -0.4063  0.3177
  850MOL0     C12106   3.861   8.993   8.735  0.1175 -0.1949 -0.6536
  850MOL0     C12107   3.715   8.978   8.748 -0.0343 -0.5570  0.3200
  850MOL0     C12108   3.671   8.998   8.894 -1.1401  0.0894 -0.3556
  850MOL0     C12109   3.522   8.959   8.883  0.0363  0.2211 -0.1131
  850MOL0     C12110   3.447   8.969   9.020 -0.8146  0.1092 -0.4841
  850MOL0     C12111   3.298   8.924   8.992 -0.6353 -0.3254  0.5426
  850MOL0    Cl12112   3.222   9.042   8.889 -0.1227  0.1016  0.1133
  850MOL0     C12113   4.332   8.871   8.494  0.6343  0.0202  0.6342
  850MOL0     C12114   4.456   8.883   8.441  0.2026 -0.1998  0.4775
  850MOL0     O12115   4.631   9.119   8.133  0.6910  0.0286 -0.2147
  850MOL0     C12116   4.901   9.083   8.083 -0.1169  0.5694 -0.0185
  850MOL0     C12117   5.039   9.063   8.071  0.0278  0.8470 -0.4068
  850MOL0     N12118   5.786   8.640   8.499 -0.0449  0.3598 -0.5022
  850MOL0     N12119   5.885   8.568   8.458  0.1222  0.0404 -0.1978
  850MOL0     C12120   7.075   8.186   8.226  0.0957  1.1222  1.5291
  850MOL0     C12121   7.205   8.170   8.284  0.3189  0.3842 -0.4539
  850MOL0     C12122   7.608   8.302   8.467 -0.1309 -0.3350  0.2060
  850MOL0     C12123   7.602   8.236   8.590 -0.1990  0.2250  1.0963
  850MOL0     C12124   7.714   8.201   8.662  0.4781  0.0865 -0.1795
  850MOL0     C12125   7.841   8.227   8.607  0.0234 -0.3828  0.3403
  850MOL0     O12126   7.946   8.182   8.675 -0.0965 -0.2617 -0.2094
  850MOL0     C12127   8.079   8.193   8.631  0.4114  0.0591  0.0031
  850MOL0     C12128   8.144   8.320   8.652  0.1873 -0.3701 -0.7859
  850MOL0     C12129   8.167   8.331   8.804  0.2135  0.2810  0.2079
  850MOL0     C12130   8.255   8.450   8.849  0.3291 -0.1265  0.0703
  850MOL0     C12131   8.328   8.436   8.975 -0.0120  0.3066 -0.6246
  850MOL0     C12132   8.409   8.418   9.067 -0.1969 -1.0087 -0.1499
  850MOL0     C12133   7.853   8.295   8.486  0.4774  0.9352  0.0406
  850MOL0     C12134   7.735   8.328   8.418 -0.2124  0.0042 -0.1100
  850MOL0     H12135   7.208   8.481   8.426  0.3998 -2.3761  2.1861
  850MOL0     H12136   7.004   8.510   8.288 -1.1707 -0.6647 -0.5037
  850MOL0     H12137   6.799   8.481   8.150 -1.0691  0.0426  1.9721
  850MOL0     H12138   6.760   8.380   8.278  1.6529  1.4113  0.0144
  850MOL0     H12139   6.638   8.234   8.103  1.6531  0.3946 -1.0278
  850MOL0     H12140   6.651   8.371   7.994  0.5211  2.2047  0.6403
  850MOL0     H12141   6.532   8.517   8.168  0.6947 -0.1829 -0.5712
  850MOL0     H12142   6.545   8.403   8.291  0.0323 -2.6000  0.1993
  850MOL0     H12143   6.395   8.356   8.044 -0.5066  0.9720  0.3575
  850MOL0     H12144   6.405   8.246   8.183 -0.0615  0.5714  0.8669
  850MOL0     H12145   6.274   8.529   8.176  1.3119  0.6671 -1.7122
  850MOL0     H12146   6.291   8.454   8.325  1.3177  2.2089 -1.7037
  850MOL0     H12147   6.189   8.228   8.252  1.3856  0.2691 -0.1648
  850MOL0     H12148   6.119   8.317   8.111  0.3219  1.2059  0.1148
  850MOL0     H12149   5.990   8.298   8.361 -1.4514 -1.1674 -1.5002
  850MOL0     H12150   6.093   8.427   8.389  0.7895 -2.9659  0.2556
  850MOL0     H12151   5.877   8.391   8.177  2.8056 -2.1933  0.6236
  850MOL0     H12152   5.982   8.535   8.161 -0.2711  0.8351 -0.2114
  850MOL0     H12153   5.693   8.587   8.179  0.0336 -5.0069 -0.5985
  850MOL0     H12154   5.546   8.752   8.531  1.8976 -0.7074  1.3473
  850MOL0     H12155   5.481   8.635   8.403  1.4776 -0.4404  1.2640
  850MOL0     H12156   5.574   8.835   8.246  0.9589 -1.4911  0.3041
  850MOL0     H12157   5.544   8.926   8.387  0.6322 -0.8340  0.5974
  850MOL0     H12158   5.360   8.741   8.237 -0.6057 -1.3232  1.3823
  850MOL0     H12159   5.309   8.819   8.389 -1.8174  1.3212 -0.7555
  850MOL0     H12160   5.439   8.982   8.169 -0.4017  0.4398 -0.3517
  850MOL0     H12161   5.317   9.042   8.274 -0.3679 -0.9786  0.3288
  850MOL0     H12162   5.084   8.797   8.274  0.8138 -0.2987 -2.1077
  850MOL0     H12163   4.854   8.854   8.333 -2.6695  4.2723  1.1533
  850MOL0     H12164   4.395   9.000   8.130  0.3475  0.8993  0.7449
  850MOL0     H12165   4.166   8.974   8.207  0.7334 -0.2200 -0.7116
  850MOL0     H12166   4.117   9.015   8.617  0.3049 -1.0729  1.1712
  850MOL0     H12167   4.077   8.840   8.654  0.9515  0.5204  0.4966
  850MOL0     H12168   3.851   8.877   8.560  0.6824 -1.0574  2.1348
  850MOL0     H12169   3.885   9.041   8.527  0.0184 -2.2616 -1.6441
  850MOL0     H12170   3.895   9.091   8.771 -1.1199  0.2352 -0.5989
  850MOL0     H12171   3.893   8.918   8.808  0.3151 -0.7447 -1.2997
  850MOL0     H12172   3.663   9.042   8.677  1.6885  0.7984  0.2099
  850MOL0     H12173   3.689   8.877   8.716  1.7287 -0.2536 -2.3459
  850MOL0     H12174   3.681   9.099   8.936 -0.6841  0.6776 -1.8083
  850MOL0     H12175   3.707   8.929   8.971  2.0206  1.2765 -0.6219
  850MOL0     H12176   3.514   8.855   8.849 -1.4238  0.6030 -1.0058
  850MOL0     H12177   3.474   9.019   8.806 -0.8644 -2.4001 -1.7376
  850MOL0     H12178   3.491   8.899   9.092 -0.3198  0.7023 -0.2082
  850MOL0     H12179   3.447   9.069   9.064 -2.1755 -0.6810  1.4667
  850MOL0     H12180   3.249   8.920   9.090 -0.1341 -0.9619  0.7757
  850MOL0     H12181   3.280   8.822   8.957 -2.8171 -0.4267  1.7825
  850MOL0     H12182   4.305   8.824   8.588 -0.7252 -3.0342 -1.1435
  850MOL0     H12183   4.541   8.850   8.500  1.8860 -0.0711 -1.7464
  850MOL0     H12184   4.844   9.161   8.034  1.0860  3.0626  2.2357
  850MOL0     H12185   5.082   9.124   7.992 -0.3465 -0.7454 -1.8972
  850MOL0     H12186   7.052   8.097   8.169 -0.0136 -0.2211  3.5737
  850MOL0     H12187   7.244   8.069   8.292 -2.2898 -0.5661  1.8565
  850MOL0     H12188   7.505   8.223   8.638 -2.0359  1.4643 -1.9662
  850MOL0     H12189   7.706   8.141   8.753  1.5018 -0.9061 -0.7186
  850MOL0     H12190   8.077   8.173   8.523  0.5226 -1.1153  0.2021
  850MOL0     H12191   8.127   8.104   8.673 -2.0735 -0.7617  1.3204
  850MOL0     H12192   8.244   8.324   8.607  2.1260 -1.2659  3.0249
  850MOL0     H12193   8.090   8.410   8.622 -0.3365  0.0378  1.2302
  850MOL0     H12194   8.217   8.243   8.845 -0.9445 -1.2618 -1.5224
  850MOL0     H12195   8.074   8.334   8.861  0.4184 -0.5598  0.5993
  850MOL0     H12196   8.335   8.467   8.777  2.1528 -2.4491  1.3847
  850MOL0     H12197   8.190   8.536   8.869  0.8509 -0.2007  2.4203
  850MOL0     H12198   8.469   8.415   9.156 -0.1524 -1.2263 -0.1876
  850MOL0     H12199   7.942   8.319   8.430 -0.8401  3.5212 -1.0903
  850MOL0     H12200   7.756   8.375   8.322  2.8934 -1.1345 -0.0837
  851MOL0     O12201   7.757   4.061   0.491 -0.2921 -0.1203 -0.3289
  851MOL0     C12202   7.839   4.031   0.408 -1.1143  0.5098  0.3467
  851MOL0     O12203   7.831   3.933   0.321 -0.5338  0.1711 -0.0521
  851MOL0     C12204   7.728   3.851   0.332  0.4791  0.5105 -0.0496
  851MOL0     C12205   7.693   3.787   0.460  0.1594 -0.7888  0.3152
  851MOL0     C12206   7.596   3.692   0.461 -0.0680  0.2550 -0.4241
  851MOL0     C12207   7.530   3.655   0.347  0.4593  0.2273 -1.5506
  851MOL0     O12208   7.440   3.546   0.347 -0.4288 -0.4047 -0.3688
  851MOL0     C12209   7.476   3.437   0.423  0.8101  0.5468 -0.7055
  851MOL0     C12210   7.394   3.318   0.388 -0.1861  0.0976  0.1475
  851MOL0     C12211   7.250   3.328   0.421  0.5350  0.8505 -0.5610
  851MOL0     C12212   7.174   3.200   0.385  0.2985 -0.7036  0.2950
  851MOL0     C12213   7.023   3.209   0.379  0.7870 -0.2388  0.1574
  851MOL0     C12214   6.961   3.173   0.518 -0.0224 -0.1793  0.1830
  851MOL0     C12215   6.813   3.217   0.527 -0.6049 -0.1280  0.6506
  851MOL0     C12216   6.722   3.135   0.435 -0.4052 -0.0111 -0.3042
  851MOL0     N12217   6.579   3.163   0.454  0.6876 -0.4857 -0.8032
  851MOL0     C12218   6.493   3.228   0.366  0.2907 -0.4339  0.9767
  851MOL0     C12219   6.369   3.227   0.419  0.3724 -0.2470  0.1607
  851MOL0     C12220   6.238   3.283   0.363  0.0769  0.2545 -0.2175
  851MOL0     C12221   6.127   3.183   0.373  0.1788  0.2466  0.5190
  851MOL0     C12222   6.157   3.063   0.276  0.2110  0.0859  0.4017
  851MOL0     C12223   6.165   3.097   0.124 -0.1566  0.5048  0.2948
  851MOL0     O12224   6.226   2.982   0.043  0.3122 -0.6834  0.0106
  851MOL0     C12225   6.355   2.990  -0.013 -0.1840  0.3700  0.1077
  851MOL0     C12226   6.379   2.907  -0.126 -0.5771 -0.4253  0.7606
  851MOL0     C12227   6.507   2.896  -0.177  0.2597 -0.1202 -0.7840
  851MOL0     C12228   6.615   2.966  -0.118  0.0907 -1.1878 -0.2144
  851MOL0     C12229   6.753   2.966  -0.175 -0.2847 -0.5192 -0.3067
  851MOL0     O12230   6.853   3.031  -0.104 -0.6665  0.3712 -0.1398
  851MOL0     C12231   6.983   3.022  -0.152 -0.5924  0.0023 -0.3208
  851MOL0     C12232   7.079   2.971  -0.072  0.9913  0.0540 -0.3201
  851MOL0     C12233   7.211   2.969  -0.114 -0.0116 -0.0058  0.7827
  851MOL0     C12234   7.249   3.013  -0.240 -0.0433 -0.8097  1.0789
  851MOL0     O12235   7.382   2.998  -0.273  0.1342 -0.6509  0.0894
  851MOL0     C12236   7.429   3.007  -0.407 -0.6696 -0.2811  0.9112
  851MOL0     C12237   7.587   3.006  -0.403 -0.3830  0.1798 -0.7604
  851MOL0     C12238   7.642   3.145  -0.367 -0.4610  0.5234 -0.1761
  851MOL0     C12239   7.792   3.172  -0.347 -0.3206 -0.2406  0.6389
  851MOL0     C12240   7.878   3.144  -0.474 -0.4542  0.1562  0.7053
  851MOL0     C12241   8.019   3.202  -0.454  0.2881  0.0406 -0.1086
  851MOL0     C12242   8.118   3.151  -0.554  0.6943 -1.0167  0.0110
  851MOL0     C12243   8.250   3.228  -0.551  0.0881 -0.2803  0.4777
  851MOL0    Cl12244   8.356   3.145  -0.670  0.0076 -0.2824  0.4314
  851MOL0     C12245   7.148   3.074  -0.319 -0.3036  0.0277 -0.1110
  851MOL0     C12246   7.015   3.078  -0.275 -0.4033  0.5182 -0.3217
  851MOL0     O12247   6.769   2.892  -0.267  0.3562 -0.2033  0.2599
  851MOL0     C12248   6.594   3.055  -0.012  0.1588 -0.7040  0.1503
  851MOL0     C12249   6.465   3.067   0.037  0.2619  0.4550  1.3272
  851MOL0     N12250   6.374   3.145   0.535 -0.2578  0.9248  0.3491
  851MOL0     N12251   6.500   3.109   0.551  0.0188  0.0332 -0.5694
  851MOL0     C12252   7.557   3.721   0.230 -0.0508  0.2821  0.3568
  851MOL0     C12253   7.657   3.814   0.215 -0.2099 -0.5621  0.0746
  851MOL0     C12254   7.970   4.105   0.412 -0.2658  0.0215 -0.4355
  851MOL0     C12255   8.058   4.096   0.304  0.7301 -0.0997  0.5748
  851MOL0     C12256   8.176   4.162   0.311  0.9947  1.0489  0.0183
  851MOL0     C12257   8.217   4.231   0.426  0.4216  0.4841  0.3226
  851MOL0     O12258   8.347   4.275   0.438  0.1952 -0.1796 -0.2513
  851MOL0     C12259   8.421   4.174   0.493  0.4434  0.8115 -0.8965
  851MOL0     C12260   8.560   4.226   0.520  0.1019 -0.0212  0.1115
  851MOL0     C12261   8.574   4.302   0.652 -0.0288 -0.1181 -0.6451
  851MOL0     C12262   8.722   4.369   0.657  0.1535  0.5741  0.6003
  851MOL0     C12263   8.808   4.276   0.724  0.0471  1.4787  0.2193
  851MOL0     C12264   8.857   4.198   0.807 -0.1114  0.5699 -0.0134
  851MOL0     C12265   8.125   4.260   0.529 -0.2689  0.7017 -0.7567
  851MOL0     C12266   7.999   4.195   0.522  0.1907  0.5133  0.2615
  851MOL0     H12267   7.735   3.805   0.558 -2.0718 -2.3649  1.6687
  851MOL0     H12268   7.590   3.643   0.558 -1.1986  2.1820  0.5417
  851MOL0     H12269   7.453   3.459   0.528  0.6638  1.5587 -0.9404
  851MOL0     H12270   7.580   3.406   0.427  0.0493 -2.1443  1.2008
  851MOL0     H12271   7.437   3.239   0.450 -2.5535 -1.6228 -0.2475
  851MOL0     H12272   7.406   3.299   0.280 -1.9809 -2.4527  0.2993
  851MOL0     H12273   7.205   3.409   0.363 -1.9377 -0.5792 -0.7693
  851MOL0     H12274   7.232   3.349   0.526 -3.2137  4.4796 -1.6665
  851MOL0     H12275   7.205   3.171   0.284  1.7268  1.5725  0.0025
  851MOL0     H12276   7.195   3.123   0.459  1.2121 -1.6345 -0.8849
  851MOL0     H12277   6.979   3.132   0.315 -1.1759  2.5070 -2.0706
  851MOL0     H12278   6.991   3.312   0.364  1.5307 -0.1457 -0.9356
  851MOL0     H12279   7.019   3.220   0.598 -0.3681 -1.7655  1.4313
  851MOL0     H12280   6.977   3.066   0.536 -0.7126 -0.2100  0.6202
  851MOL0     H12281   6.770   3.219   0.628 -3.2189 -0.2353 -0.4016
  851MOL0     H12282   6.808   3.323   0.502  1.0769 -0.0037  0.6736
  851MOL0     H12283   6.734   3.029   0.463 -1.6014 -0.2291 -0.5944
  851MOL0     H12284   6.747   3.144   0.329 -1.7412 -0.3381 -0.6660
  851MOL0     H12285   6.516   3.282   0.275  0.4859  0.5438  1.5801
  851MOL0     H12286   6.257   3.324   0.264 -0.9715  1.0006 -0.1324
  851MOL0     H12287   6.212   3.372   0.422  1.4235  0.8575 -0.5035
  851MOL0     H12288   6.027   3.220   0.352 -0.3186 -1.4468 -0.2711
  851MOL0     H12289   6.118   3.139   0.473 -4.2285  1.4170  0.8445
  851MOL0     H12290   6.248   3.013   0.312 -0.7106  0.3789  3.3615
  851MOL0     H12291   6.074   2.993   0.279  0.1391  0.1716  3.1284
  851MOL0     H12292   6.230   3.184   0.119  2.4914 -1.3220  0.8486
  851MOL0     H12293   6.072   3.124   0.074 -0.4509  1.8163  1.4902
  851MOL0     H12294   6.291   2.866  -0.175 -0.2654  0.4074 -0.5456
  851MOL0     H12295   6.527   2.832  -0.262 -0.1529 -1.9741  0.4641
  851MOL0     H12296   7.049   2.935   0.026 -1.0541  1.7470 -0.2426
  851MOL0     H12297   7.284   2.915  -0.055 -1.0922 -1.8330  0.5260
  851MOL0     H12298   7.396   3.097  -0.459  1.0012 -1.2244 -1.9888
  851MOL0     H12299   7.391   2.920  -0.462 -0.4106 -0.4939  1.0628
  851MOL0     H12300   7.629   2.982  -0.502  3.2608  0.7589  0.5040
  851MOL0     H12301   7.629   2.939  -0.328 -0.8608  2.6735  1.8829
  851MOL0     H12302   7.598   3.170  -0.270 -0.6104 -0.2592 -0.0349
  851MOL0     H12303   7.612   3.221  -0.440 -1.4855 -0.2704 -0.6110
  851MOL0     H12304   7.798   3.276  -0.314 -1.5959 -0.3684  1.3578
  851MOL0     H12305   7.829   3.107  -0.268  1.9173 -0.6702 -0.6747
  851MOL0     H12306   7.833   3.204  -0.553  1.3843 -0.7169 -1.0919
  851MOL0     H12307   7.886   3.041  -0.510  1.8072  1.1462 -1.9923
  851MOL0     H12308   8.057   3.176  -0.355  1.4262  1.9759  0.0036
  851MOL0     H12309   8.015   3.311  -0.454 -0.6256  0.0218  0.4474
  851MOL0     H12310   8.137   3.045  -0.537  2.8412 -0.8141 -0.8736
  851MOL0     H12311   8.081   3.172  -0.655  2.4193  0.6133 -0.3499
  851MOL0     H12312   8.298   3.229  -0.453  2.2089  2.7267 -0.4411
  851MOL0     H12313   8.238   3.333  -0.579  3.3655 -0.1478 -0.8377
  851MOL0     H12314   7.164   3.103  -0.422  2.4687  0.9216  0.4845
  851MOL0     H12315   6.930   3.119  -0.329 -1.0125  3.8103  2.7656
  851MOL0     H12316   6.675   3.121   0.016  0.1633 -1.0348  0.9445
  851MOL0     H12317   6.448   3.137   0.119  1.1956  0.4266  1.5599
  851MOL0     H12318   7.506   3.672   0.148  0.4924 -2.2974  1.4726
  851MOL0     H12319   7.683   3.854   0.117  1.4556  0.0283  0.7249
  851MOL0     H12320   8.038   4.051   0.207 -0.6482  0.7331  0.4499
  851MOL0     H12321   8.240   4.157   0.223 -0.5224 -1.2546 -1.0422
  851MOL0     H12322   8.429   4.086   0.428 -0.4673  2.5751 -3.5609
  851MOL0     H12323   8.377   4.149   0.590 -0.2577  0.0247 -1.3978
  851MOL0     H12324   8.625   4.140   0.537  1.4460  1.0768  0.7099
  851MOL0     H12325   8.604   4.282   0.437 -1.7399  0.5615 -0.5270
  851MOL0     H12326   8.555   4.232   0.734  2.3492 -1.0493 -0.8098
  851MOL0     H12327   8.494   4.377   0.651 -1.9088 -1.9930  0.2228
  851MOL0     H12328   8.759   4.393   0.557  1.3307  1.8661  1.3217
  851MOL0     H12329   8.711   4.463   0.712  0.1232  2.0327 -1.7259
  851MOL0     H12330   8.892   4.131   0.883 -0.9637 -0.1734 -0.2593
  851MOL0     H12331   8.150   4.320   0.616  1.0962 -0.4143 -0.3377
  851MOL0     H12332   7.928   4.210   0.603 -0.1587 -2.4362  0.6250
  852MOL0     O12333  10.518   3.747   0.801 -0.1428 -0.2826  1.2200
  852MOL0     C12334  10.533   3.700   0.688  0.3888 -0.0932 -1.1177
  852MOL0     O12335  10.425   3.687   0.597  0.1108  0.2133  0.0814
  852MOL0     C12336  10.292   3.685   0.635  0.2102  0.0648  0.0942
  852MOL0     C12337  10.203   3.709   0.529  0.2935 -0.9985 -0.1542
  852MOL0     C12338  10.067   3.687   0.549  0.8694 -0.4078 -0.1268
  852MOL0     C12339  10.013   3.660   0.677 -1.0127 -0.1125 -0.1202
  852MOL0     O12340   9.879   3.636   0.697  0.0054 -0.1880 -0.3018
  852MOL0     C12341   9.815   3.605   0.830  0.4757 -0.5166 -0.9534
  852MOL0     C12342   9.663   3.574   0.826 -0.1459 -0.1995  0.8585
  852MOL0     C12343   9.620   3.520   0.958  0.3733 -0.2578  0.1302
  852MOL0     C12344   9.465   3.497   0.946 -0.1962  0.3379 -0.3383
  852MOL0     C12345   9.407   3.446   1.080 -0.4675 -0.0931  0.5248
  852MOL0     C12346   9.462   3.306   1.129  0.3212  0.8792 -0.2677
  852MOL0     C12347   9.427   3.178   1.046 -0.8373  0.3458 -0.1174
  852MOL0     C12348   9.471   3.056   1.127 -0.2787  0.8945 -0.7469
  852MOL0     N12349   9.430   2.938   1.058 -0.3157 -0.0977  1.3210
  852MOL0     C12350   9.307   2.882   1.055  0.0999  0.0517 -0.9110
  852MOL0     C12351   9.315   2.765   0.982 -1.6599 -0.3390 -0.3936
  852MOL0     C12352   9.202   2.681   0.964 -0.5141  0.5562  0.1209
  852MOL0     C12353   9.153   2.669   0.822  0.2482  0.2523  0.0673
  852MOL0     C12354   9.044   2.564   0.797  0.3523 -0.6711 -0.0661
  852MOL0     C12355   8.906   2.620   0.823 -0.8015 -0.1208  0.2439
  852MOL0     O12356   8.818   2.501   0.828 -0.0237 -0.0490  0.2192
  852MOL0     C12357   8.685   2.538   0.835 -0.3717 -0.4857 -0.7604
  852MOL0     C12358   8.626   2.672   0.857 -0.8000  0.2247 -0.1750
  852MOL0     C12359   8.489   2.691   0.869  0.3489 -0.0669  0.3478
  852MOL0     C12360   8.404   2.583   0.858  0.1470  0.5877 -0.0260
  852MOL0     C12361   8.261   2.602   0.882 -0.3922 -0.3352 -0.2377
  852MOL0     O12362   8.188   2.510   0.823 -0.6423  0.2285 -0.2403
  852MOL0     C12363   8.044   2.525   0.794 -1.3083  0.8230 -0.5543
  852MOL0     C12364   7.957   2.414   0.775 -0.4714 -0.0956 -0.7881
  852MOL0     C12365   7.818   2.420   0.761 -0.0029 -0.0907  0.1472
  852MOL0     C12366   7.759   2.544   0.764  0.3438 -0.2518 -0.3748
  852MOL0     O12367   7.626   2.568   0.740 -0.7438 -0.6216 -0.3816
  852MOL0     C12368   7.533   2.461   0.734 -0.0124  0.4054 -0.5621
  852MOL0     C12369   7.396   2.507   0.690  0.6963  0.8426 -0.2079
  852MOL0     C12370   7.287   2.402   0.707 -0.4890 -0.6662 -1.1265
  852MOL0     C12371   7.152   2.452   0.648 -0.5480  0.2516 -0.3067
  852MOL0     C12372   7.037   2.353   0.683 -0.7103 -0.3709 -0.0720
  852MOL0     C12373   6.921   2.363   0.590 -0.3155 -0.3500  0.2824
  852MOL0     C12374   6.788   2.328   0.659 -0.0272  0.1492 -0.3983
  852MOL0     C12375   6.670   2.369   0.578  0.1784 -0.0628 -0.1333
  852MOL0    Cl12376   6.675   2.321   0.404 -0.4889 -0.0415  0.0544
  852MOL0     C12377   7.839   2.656   0.778 -0.2844 -0.9355  0.2634
  852MOL0     C12378   7.979   2.649   0.796 -0.9024  0.1237 -0.7943
  852MOL0     O12379   8.223   2.705   0.933  0.4721  0.3478  0.1780
  852MOL0     C12380   8.460   2.458   0.823  0.2242 -0.6129 -0.4132
  852MOL0     C12381   8.596   2.431   0.823  0.2659 -0.2908  0.1469
  852MOL0     N12382   9.439   2.756   0.923  0.0929  0.0620 -0.1045
  852MOL0     N12383   9.509   2.859   0.971 -0.3410 -0.2458  0.9877
  852MOL0     C12384  10.109   3.652   0.779 -0.4701 -0.0157  0.1319
  852MOL0     C12385  10.246   3.654   0.764 -0.9601  1.0583  0.1898
  852MOL0     C12386  10.675   3.700   0.630  0.2014 -0.0104 -0.3932
  852MOL0     C12387  10.693   3.662   0.497 -0.0188 -0.3626 -0.0720
  852MOL0     C12388  10.821   3.666   0.436  0.0984  0.3900  0.2451
  852MOL0     C12389  10.929   3.706   0.502 -0.8930 -0.7786  0.0988
  852MOL0     O12390  11.059   3.714   0.452  0.2773  0.6345 -0.6829
  852MOL0     C12391  11.077   3.668   0.320  0.1961 -0.6230  0.9311
  852MOL0     C12392  11.224   3.634   0.291  0.1710  0.3521  0.6198
  852MOL0     C12393  11.273   3.493   0.324  0.0367  0.5293  0.0486
  852MOL0     C12394  11.422   3.460   0.328  0.0140  0.3720 -0.1204
  852MOL0     C12395  11.486   3.477   0.193 -0.0156 -0.4143 -0.1879
  852MOL0     C12396  11.536   3.482   0.087 -0.2515 -0.2607  0.2344
  852MOL0     C12397  10.912   3.749   0.637 -0.2261  0.3081  0.6217
  852MOL0     C12398  10.789   3.743   0.703 -0.2904  0.7094 -0.1082
  852MOL0     H12399  10.231   3.740   0.429 -0.7909 -0.9810 -0.4602
  852MOL0     H12400   9.985   3.693   0.479 -1.8996 -1.7937  2.7856
  852MOL0     H12401   9.825   3.687   0.902  4.7859 -2.2744  0.8028
  852MOL0     H12402   9.870   3.519   0.870 -1.7262 -0.7909  1.7880
  852MOL0     H12403   9.653   3.493   0.753 -1.9228  1.8133 -1.2650
  852MOL0     H12404   9.604   3.661   0.796  0.0741  0.0879  1.2435
  852MOL0     H12405   9.637   3.595   1.035  2.2151 -0.4083 -0.0678
  852MOL0     H12406   9.675   3.426   0.972  2.0492  0.5621 -0.5915
  852MOL0     H12407   9.412   3.585   0.909 -1.8547  0.1099  1.3381
  852MOL0     H12408   9.453   3.415   0.874  1.6646 -1.3468  1.1518
  852MOL0     H12409   9.301   3.433   1.056  0.6479 -2.6077 -4.1504
  852MOL0     H12410   9.409   3.524   1.156 -0.4735  0.7906 -0.3614
  852MOL0     H12411   9.415   3.294   1.227  3.2205  1.2234  1.2390
  852MOL0     H12412   9.570   3.304   1.145  0.1145 -2.2536  1.5964
  852MOL0     H12413   9.320   3.167   1.027 -0.7797 -0.2768 -0.0884
  852MOL0     H12414   9.479   3.188   0.950  1.1293  1.6562  1.0061
  852MOL0     H12415   9.420   3.057   1.224  1.5762  1.7590  0.2764
  852MOL0     H12416   9.579   3.053   1.139 -0.2467 -1.2302 -1.1812
  852MOL0     H12417   9.217   2.915   1.106  0.9721  1.6522 -0.3090
  852MOL0     H12418   9.123   2.724   1.027 -0.7172  1.7144 -0.8963
  852MOL0     H12419   9.229   2.581   1.000 -0.8662  0.4792  0.1711
  852MOL0     H12420   9.238   2.649   0.756 -0.4630 -0.5553 -0.6225
  852MOL0     H12421   9.118   2.769   0.793 -0.6287 -0.6489 -2.2199
  852MOL0     H12422   9.056   2.539   0.691  0.4340 -1.1636  0.0577
  852MOL0     H12423   9.065   2.479   0.862  3.0503  0.8297  1.2123
  852MOL0     H12424   8.881   2.691   0.744 -0.0355 -1.9199 -1.7299
  852MOL0     H12425   8.911   2.669   0.921  0.5689  1.5443 -0.5996
  852MOL0     H12426   8.694   2.756   0.854 -1.9851  1.1969 -0.3978
  852MOL0     H12427   8.452   2.789   0.896 -1.4993 -0.5148 -0.4008
  852MOL0     H12428   7.998   2.314   0.780  2.3796  1.0472  1.4458
  852MOL0     H12429   7.761   2.328   0.762 -3.1381  1.6919 -0.3434
  852MOL0     H12430   7.532   2.407   0.829 -1.9473 -0.0263 -0.7900
  852MOL0     H12431   7.566   2.392   0.656 -1.9570 -1.4304  0.1500
  852MOL0     H12432   7.414   2.524   0.584  1.4439 -1.4827 -0.4984
  852MOL0     H12433   7.369   2.599   0.744  0.2504  0.8659 -0.4658
  852MOL0     H12434   7.279   2.385   0.815  2.4338  1.6641 -0.4042
  852MOL0     H12435   7.310   2.305   0.661 -3.4287 -1.1324 -1.8635
  852MOL0     H12436   7.134   2.554   0.684  0.5930  0.3975 -0.1335
  852MOL0     H12437   7.155   2.448   0.539  2.1245  2.8771 -0.4436
  852MOL0     H12438   7.006   2.388   0.782  1.3890 -0.9852  0.8522
  852MOL0     H12439   7.078   2.252   0.683 -1.0143 -0.5050  0.9320
  852MOL0     H12440   6.946   2.315   0.495 -0.5284 -1.5710  0.8298
  852MOL0     H12441   6.915   2.469   0.561 -0.5762 -0.9246 -1.9726
  852MOL0     H12442   6.791   2.220   0.676 -0.6444 -0.0390 -1.4174
  852MOL0     H12443   6.787   2.380   0.756  0.0180  2.1443 -1.4086
  852MOL0     H12444   6.654   2.477   0.573  0.0476 -0.1106 -0.8931
  852MOL0     H12445   6.577   2.333   0.621 -0.0387  0.6441  0.0004
  852MOL0     H12446   7.791   2.754   0.786 -2.0057 -1.4544 -2.3504
  852MOL0     H12447   8.032   2.744   0.801 -0.7833  0.0177  0.0772
  852MOL0     H12448   8.392   2.375   0.807 -0.2728 -0.2102 -0.4065
  852MOL0     H12449   8.628   2.329   0.801  1.6384  0.5493 -2.0742
  852MOL0     H12450  10.081   3.613   0.876 -1.8198  1.6667  0.4690
  852MOL0     H12451  10.314   3.624   0.844 -1.2291 -0.1089  0.0026
  852MOL0     H12452  10.607   3.629   0.439  1.9849 -1.3736 -2.6477
  852MOL0     H12453  10.824   3.630   0.333 -0.3709  0.0962  0.3316
  852MOL0     H12454  11.043   3.748   0.254  0.2903 -0.4414  1.1031
  852MOL0     H12455  11.022   3.575   0.302  1.8953 -1.5394  0.1358
  852MOL0     H12456  11.234   3.642   0.182 -1.7930 -2.7815  0.0703
  852MOL0     H12457  11.291   3.699   0.348  0.6437 -0.6449  1.2334
  852MOL0     H12458  11.213   3.418   0.272  2.8248 -0.6841 -1.6293
  852MOL0     H12459  11.240   3.477   0.427 -0.7365 -1.9100 -0.5058
  852MOL0     H12460  11.466   3.528   0.401  1.4653 -1.1461  0.4907
  852MOL0     H12461  11.446   3.358   0.362 -1.7127 -0.6751 -1.8238
  852MOL0     H12462  11.589   3.484  -0.006 -1.3163 -0.2832 -0.3767
  852MOL0     H12463  10.989   3.773   0.709 -2.1770 -1.0436  3.4069
  852MOL0     H12464  10.783   3.790   0.801  0.6912  1.0717 -0.2133
  853MOL0     O12465   7.772   1.184   0.395  0.5833  0.0803 -0.7871
  853MOL0     C12466   7.778   1.074   0.454 -0.7382 -0.0872  0.2987
  853MOL0     O12467   7.676   0.980   0.449  0.0538  0.1697 -0.5454
  853MOL0     C12468   7.555   1.019   0.383 -0.0423 -0.7718  0.0064
  853MOL0     C12469   7.472   1.120   0.431 -0.0511 -0.3401 -0.1416
  853MOL0     C12470   7.355   1.155   0.366 -0.4754  0.6265 -0.6978
  853MOL0     C12471   7.313   1.067   0.262 -0.1400  0.0916 -0.1187
  853MOL0     O12472   7.190   1.082   0.198 -0.1331 -0.1529  0.0815
  853MOL0     C12473   7.086   1.089   0.292  0.6130 -0.5910 -0.1763
  853MOL0     C12474   6.954   1.074   0.217  0.0164 -0.1469 -0.1762
  853MOL0     C12475   6.826   1.061   0.298  0.3208 -0.2517 -0.6345
  853MOL0     C12476   6.707   1.039   0.188  0.1749  0.0243  0.1330
  853MOL0     C12477   6.571   1.042   0.257 -0.7838 -0.2926 -1.0662
  853MOL0     C12478   6.476   1.086   0.150  0.6065  0.1007 -0.0300
  853MOL0     C12479   6.336   1.039   0.169 -0.0097  0.5730  0.6786
  853MOL0     C12480   6.272   1.081   0.300 -0.1416 -0.3798  0.8459
  853MOL0     N12481   6.131   1.046   0.325  0.6255 -0.1831 -0.7565
  853MOL0     C12482   6.066   1.035   0.446 -0.3978  0.1992  0.4620
  853MOL0     C12483   5.941   0.996   0.412 -0.1227  0.6604  0.1779
  853MOL0     C12484   5.837   0.969   0.508  0.1596 -0.4448 -0.3079
  853MOL0     C12485   5.695   0.987   0.451  0.8040  0.1320 -0.3619
  853MOL0     C12486   5.644   1.135   0.451  0.4738 -0.5475  0.2406
  853MOL0     C12487   5.490   1.145   0.455  0.3442 -0.5236  0.1886
  853MOL0     O12488   5.432   1.122   0.585  0.3269  0.0069  0.3902
  853MOL0     C12489   5.293   1.114   0.589  0.3825  0.0648  0.6745
  853MOL0     C12490   5.202   1.131   0.484  0.1513  0.0520 -0.3833
  853MOL0     C12491   5.058   1.114   0.501 -0.3000  0.1865  0.5952
  853MOL0     C12492   5.012   1.134   0.633 -0.3807 -0.2830 -0.0747
  853MOL0     C12493   4.869   1.147   0.658  0.0305  0.2533  0.3654
  853MOL0     O12494   4.820   1.079   0.766 -0.2918 -0.1019  0.0304
  853MOL0     C12495   4.701   1.127   0.810  0.0162  0.0588  0.4806
  853MOL0     C12496   4.685   1.201   0.927  0.1276  1.1710 -0.5672
  853MOL0     C12497   4.558   1.232   0.980 -0.1708  0.0331  0.3525
  853MOL0     C12498   4.441   1.206   0.915 -0.3640  0.0435 -0.0272
  853MOL0     O12499   4.321   1.248   0.968 -0.1343  0.2450 -0.2904
  853MOL0     C12500   4.194   1.218   0.910  0.8416  0.7220 -0.5619
  853MOL0     C12501   4.072   1.222   1.006  0.6677  0.4214  0.7182
  853MOL0     C12502   3.935   1.204   0.936 -0.0086  0.2455 -0.1952
  853MOL0     C12503   3.819   1.218   1.038  0.1544 -0.6178  0.5486
  853MOL0     C12504   3.688   1.160   0.978  0.5539  0.0825 -0.1245
  853MOL0     C12505   3.570   1.179   1.081 -0.4219 -0.5763 -0.0712
  853MOL0     C12506   3.437   1.125   1.030 -0.0287  0.5908  0.3480
  853MOL0     C12507   3.326   1.111   1.131  0.2391 -0.4187  0.7063
  853MOL0    Cl12508   3.325   1.266   1.227  0.1826 -0.1074  0.0952
  853MOL0     C12509   4.456   1.130   0.794 -0.1397  0.4215  0.3733
  853MOL0     C12510   4.582   1.093   0.748 -0.6712  0.5487  0.0716
  853MOL0     O12511   4.797   1.209   0.581  0.1110  0.1113  0.0733
  853MOL0     C12512   5.097   1.116   0.739 -0.2770  0.9930  0.1281
  853MOL0     C12513   5.235   1.097   0.717 -0.5602  0.1027 -0.2331
  853MOL0     N12514   5.935   0.982   0.272 -0.6025 -0.0839 -0.4960
  853MOL0     N12515   6.047   1.016   0.223  0.0542  0.3649  0.0932
  853MOL0     C12516   7.389   0.953   0.216 -0.4994 -0.5722  0.2646
  853MOL0     C12517   7.506   0.927   0.294 -0.0861  0.0625  0.0656
  853MOL0     C12518   7.900   1.030   0.518 -0.5145 -0.2997  0.6014
  853MOL0     C12519   8.017   1.113   0.513 -0.0788  0.2507 -1.3341
  853MOL0     C12520   8.136   1.075   0.579  0.3781  0.2156  0.7501
  853MOL0     C12521   8.155   0.956   0.655 -0.4888 -1.5345 -0.6284
  853MOL0     O12522   8.265   0.919   0.723 -0.5026  0.6611  0.4493
  853MOL0     C12523   8.348   1.032   0.760  0.5208  0.5241 -0.0767
  853MOL0     C12524   8.459   0.994   0.854  0.3965 -0.1956 -0.3409
  853MOL0     C12525   8.569   0.916   0.793 -0.0065 -0.4054  0.7177
  853MOL0     C12526   8.669   0.880   0.896  0.0504  0.3954  0.5579
  853MOL0     C12527   8.807   0.853   0.844 -0.7852 -0.2184  0.7556
  853MOL0     C12528   8.918   0.841   0.797  0.3230 -0.2148 -0.5563
  853MOL0     C12529   8.040   0.877   0.663 -0.4284 -0.6367  0.5761
  853MOL0     C12530   7.924   0.914   0.594 -0.1197 -0.3782 -0.9729
  853MOL0     H12531   7.520   1.165   0.517  0.3894 -2.0661  0.5554
  853MOL0     H12532   7.290   1.230   0.411 -0.8228  0.5088 -0.9920
  853MOL0     H12533   7.077   1.187   0.341 -2.9444  0.1085 -1.8537
  853MOL0     H12534   7.093   1.022   0.378  1.0561  1.9210  1.8714
  853MOL0     H12535   6.972   0.975   0.173  1.0918 -0.5811  1.1942
  853MOL0     H12536   6.939   1.148   0.138 -0.2590 -2.1514 -2.1162
  853MOL0     H12537   6.816   1.150   0.361  1.8068 -0.9241  0.5964
  853MOL0     H12538   6.833   0.975   0.364 -1.4591 -1.8475 -2.3893
  853MOL0     H12539   6.712   1.119   0.113 -0.4334 -0.4892 -0.4716
  853MOL0     H12540   6.715   0.950   0.126 -1.5219  0.5786 -0.9596
  853MOL0     H12541   6.567   1.120   0.334  3.5176 -1.4240  0.5682
  853MOL0     H12542   6.546   0.949   0.310  1.6146  1.0685  2.8915
  853MOL0     H12543   6.513   1.072   0.048  1.8484  0.6046  0.3349
  853MOL0     H12544   6.463   1.195   0.149 -0.7802  0.0089 -2.8579
  853MOL0     H12545   6.273   1.074   0.086 -0.6657  2.5887  1.9323
  853MOL0     H12546   6.333   0.930   0.161  0.1078  0.6946 -1.8701
  853MOL0     H12547   6.276   1.190   0.293  0.2793 -0.5308 -2.6098
  853MOL0     H12548   6.327   1.051   0.390 -0.7680 -1.4874  0.8742
  853MOL0     H12549   6.121   1.035   0.540  1.2264  1.1301 -0.4415
  853MOL0     H12550   5.851   1.026   0.601  1.6670 -0.6565 -0.3752
  853MOL0     H12551   5.840   0.864   0.538 -1.7369 -0.6544 -0.7200
  853MOL0     H12552   5.626   0.936   0.519 -1.7420  0.8472 -2.2425
  853MOL0     H12553   5.666   0.940   0.356  3.1940 -0.0685 -1.0406
  853MOL0     H12554   5.688   1.192   0.533 -1.5564 -0.1695  1.1175
  853MOL0     H12555   5.680   1.185   0.360 -0.6756 -0.7588 -0.3432
  853MOL0     H12556   5.459   1.074   0.379  0.7408  1.6570 -2.1655
  853MOL0     H12557   5.471   1.249   0.426 -4.7394 -1.1388  0.5620
  853MOL0     H12558   5.231   1.146   0.381  0.4591  1.2116 -0.1397
  853MOL0     H12559   5.004   1.132   0.408  1.4307  1.6452 -0.1792
  853MOL0     H12560   4.771   1.233   0.985 -0.5612  2.3669 -0.1432
  853MOL0     H12561   4.551   1.284   1.075  0.0454 -0.7586  0.8086
  853MOL0     H12562   4.190   1.121   0.859 -0.1251  1.0830 -1.2006
  853MOL0     H12563   4.180   1.287   0.827  1.2417 -0.2398 -1.4543
  853MOL0     H12564   4.073   1.313   1.067  0.2159  1.0025 -0.1198
  853MOL0     H12565   4.078   1.145   1.083 -0.1132  0.9415  1.3182
  853MOL0     H12566   3.940   1.103   0.896  0.9524  0.2087 -0.0060
  853MOL0     H12567   3.928   1.274   0.852  2.5878 -0.7287 -1.3386
  853MOL0     H12568   3.846   1.164   1.129 -1.8616  0.9957  2.1903
  853MOL0     H12569   3.809   1.325   1.058 -0.4050 -0.3539 -0.9919
  853MOL0     H12570   3.698   1.053   0.957 -0.7706 -0.3334  1.1797
  853MOL0     H12571   3.669   1.213   0.885  2.6974  0.5892 -0.3299
  853MOL0     H12572   3.555   1.286   1.095 -1.9427 -1.0011  2.0721
  853MOL0     H12573   3.592   1.134   1.179  1.4916 -0.7750 -0.5525
  853MOL0     H12574   3.400   1.200   0.960  1.8857  1.7028  0.4451
  853MOL0     H12575   3.456   1.033   0.973  1.3950  1.2331 -0.2679
  853MOL0     H12576   3.346   1.021   1.190  0.0444 -1.4846 -0.7880
  853MOL0     H12577   3.231   1.106   1.077  0.9306 -0.0879 -0.6002
  853MOL0     H12578   4.373   1.104   0.730 -0.4678  2.2835 -0.0100
  853MOL0     H12579   4.588   1.036   0.656 -3.5851 -1.8205  1.1752
  853MOL0     H12580   5.066   1.109   0.843 -1.7496  0.8933 -0.2972
  853MOL0     H12581   5.304   1.099   0.801 -1.1675  0.6544  0.2689
  853MOL0     H12582   7.362   0.880   0.140  1.5847 -1.2140  0.0983
  853MOL0     H12583   7.566   0.839   0.270 -0.0207  0.1763 -0.1943
  853MOL0     H12584   8.009   1.211   0.466 -0.1056  0.6858 -0.4634
  853MOL0     H12585   8.215   1.149   0.579  3.4081 -2.7551  0.3478
  853MOL0     H12586   8.290   1.102   0.819  2.4791 -1.3081  4.5037
  853MOL0     H12587   8.395   1.085   0.676  0.5087  1.3888  0.4581
  853MOL0     H12588   8.504   1.089   0.883  1.2653 -0.6554 -0.1718
  853MOL0     H12589   8.417   0.941   0.940 -2.9362 -1.4608 -2.5373
  853MOL0     H12590   8.615   0.969   0.708 -0.6134 -1.1669 -0.1041
  853MOL0     H12591   8.528   0.825   0.748 -0.3631 -0.2694  0.7662
  853MOL0     H12592   8.679   0.965   0.963  3.4329  2.6559 -2.4692
  853MOL0     H12593   8.639   0.787   0.945  2.6458 -1.5318 -1.2059
  853MOL0     H12594   9.013   0.807   0.761  0.8649 -0.3808  0.9864
  853MOL0     H12595   8.040   0.798   0.737 -1.8900 -0.8788  0.3498
  853MOL0     H12596   7.837   0.849   0.607  0.8959 -1.7942 -1.0252
  854MOL0     O12597   6.428   1.864   7.522 -0.2746  0.6916 -0.4932
  854MOL0     C12598   6.422   1.961   7.447  1.0850  0.0066  0.8857
  854MOL0     O12599   6.317   2.041   7.433 -0.1778 -0.4759  0.6357
  854MOL0     C12600   6.211   2.031   7.512  0.2252 -0.5189 -0.2358
  854MOL0     C12601   6.212   2.019   7.651  0.0399 -0.5960 -0.0213
  854MOL0     C12602   6.094   2.025   7.727  0.1594  0.5081  0.0121
  854MOL0     C12603   5.967   2.041   7.662 -0.9113  0.4993 -0.1624
  854MOL0     O12604   5.841   2.052   7.714  0.0555  0.4427 -0.3975
  854MOL0     C12605   5.828   2.032   7.858  0.0581 -0.5978 -0.4834
  854MOL0     C12606   5.686   2.014   7.909  0.1430 -0.5284 -0.0872
  854MOL0     C12607   5.688   1.961   8.047 -0.7277  0.4386 -0.6470
  854MOL0     C12608   5.542   1.932   8.079 -0.3751  0.1735 -0.0486
  854MOL0     C12609   5.519   1.897   8.227  0.1087 -0.0669 -0.0124
  854MOL0     C12610   5.367   1.877   8.256 -0.8450 -0.0202 -0.0997
  854MOL0     C12611   5.320   1.807   8.386 -0.7648 -0.1852  0.1038
  854MOL0     C12612   5.353   1.663   8.380  0.0880  0.9553 -0.9673
  854MOL0     N12613   5.304   1.580   8.494  1.2264  0.2345 -0.2775
  854MOL0     C12614   5.204   1.607   8.587 -0.5969 -0.2776 -0.0253
  854MOL0     C12615   5.176   1.488   8.647  0.1515  0.0831 -0.4087
  854MOL0     C12616   5.074   1.466   8.755 -0.0013  0.4696  0.6969
  854MOL0     C12617   5.134   1.475   8.888 -0.0118 -0.1678 -0.1832
  854MOL0     C12618   5.046   1.391   8.983  0.1343 -0.1445 -0.4694
  854MOL0     C12619   5.119   1.395   9.108  0.1634 -0.3690 -0.4123
  854MOL0     O12620   5.044   1.325   9.205 -0.5156  0.1055  0.3009
  854MOL0     C12621   4.931   1.379   9.263 -0.1181  0.0547 -0.2358
  854MOL0     C12622   4.932   1.513   9.308 -0.2232  0.2630 -0.8775
  854MOL0     C12623   4.818   1.570   9.370 -0.4819 -0.0345  0.1717
  854MOL0     C12624   4.702   1.494   9.387 -0.4289  0.4206  0.3184
  854MOL0     C12625   4.580   1.555   9.445  0.7794  0.2951 -0.6626
  854MOL0     O12626   4.469   1.498   9.406 -0.0990  0.2277  0.6636
  854MOL0     C12627   4.346   1.557   9.442 -0.0895 -0.2282 -0.0479
  854MOL0     C12628   4.319   1.695   9.410  0.1259 -0.3107 -0.0719
  854MOL0     C12629   4.193   1.755   9.432  0.4604 -0.3036  0.8713
  854MOL0     C12630   4.086   1.681   9.483  0.1196  0.7805 -0.1136
  854MOL0     O12631   3.956   1.733   9.488  0.0965 -0.4257  0.2814
  854MOL0     C12632   3.856   1.655   9.543  0.2063 -0.7611 -0.5346
  854MOL0     C12633   3.725   1.742   9.539  0.5232  0.0179 -0.0209
  854MOL0     C12634   3.675   1.748   9.391  0.6555 -0.4232 -0.3335
  854MOL0     C12635   3.535   1.812   9.370 -0.4142 -0.5999  0.4536
  854MOL0     C12636   3.501   1.827   9.228  0.2907 -0.0710 -0.1365
  854MOL0     C12637   3.581   1.927   9.147 -0.6135  0.1835  0.0805
  854MOL0     C12638   3.512   1.946   9.019 -0.0090 -0.9549  0.0164
  854MOL0     C12639   3.582   2.034   8.921 -0.4137 -0.4894  0.5022
  854MOL0    Cl12640   3.626   2.205   8.985 -0.1381 -0.0671 -0.0201
  854MOL0     C12641   4.116   1.536   9.515  0.2313  0.5678  0.4054
  854MOL0     C12642   4.241   1.474   9.486 -0.5290 -0.8550 -1.0698
  854MOL0     O12643   4.594   1.649   9.524  1.0037  0.4748  0.3792
  854MOL0     C12644   4.697   1.366   9.327  0.5015  0.5409 -0.5454
  854MOL0     C12645   4.812   1.307   9.270  0.7964  0.9029 -0.0617
  854MOL0     N12646   5.266   1.393   8.593  0.3093 -0.3452  0.5377
  854MOL0     N12647   5.337   1.453   8.501 -0.3805 -0.3961 -0.6659
  854MOL0     C12648   5.979   2.053   7.521  0.8089 -0.4049 -0.3190
  854MOL0     C12649   6.093   2.058   7.448 -0.1589  0.3125  0.2962
  854MOL0     C12650   6.535   1.971   7.351 -0.4765 -0.3876  0.2124
  854MOL0     C12651   6.520   2.031   7.224  0.0406  0.1786  0.0687
  854MOL0     C12652   6.639   2.028   7.138  0.3609 -1.1502  0.0246
  854MOL0     C12653   6.761   1.985   7.185  0.1699  0.7488 -0.5211
  854MOL0     O12654   6.873   1.996   7.110  0.3783  0.3957 -0.0513
  854MOL0     C12655   6.867   2.010   6.969 -0.2591 -0.2456  0.2760
  854MOL0     C12656   6.828   1.874   6.912  0.2831  0.0484 -0.2669
  854MOL0     C12657   6.919   1.757   6.920  0.3568 -0.2087  1.0837
  854MOL0     C12658   6.934   1.675   7.051 -0.1962  0.3164 -0.5066
  854MOL0     C12659   7.007   1.543   7.055  0.0787 -0.5032  0.1903
  854MOL0     C12660   7.055   1.431   7.052  0.0000 -0.3123  0.1825
  854MOL0     C12661   6.765   1.936   7.308  0.3496  0.3529  0.0078
  854MOL0     C12662   6.660   1.926   7.392  0.2960 -0.0706  0.7706
  854MOL0     H12663   6.312   2.017   7.692 -0.1848  1.4868  0.7197
  854MOL0     H12664   6.097   2.018   7.835 -0.5383 -1.9789 -0.0671
  854MOL0     H12665   5.876   2.118   7.907  0.3552 -2.7190  3.3180
  854MOL0     H12666   5.881   1.938   7.878 -1.8035 -1.3152  1.5083
  854MOL0     H12667   5.639   1.945   7.838 -0.3676 -1.5484  1.1852
  854MOL0     H12668   5.627   2.106   7.905  2.1304  0.7491 -1.4427
  854MOL0     H12669   5.733   2.035   8.114 -0.4833  1.1853 -1.6132
  854MOL0     H12670   5.749   1.871   8.045 -0.5703  0.5391 -0.3634
  854MOL0     H12671   5.491   2.027   8.059  0.4702  0.3690 -1.4265
  854MOL0     H12672   5.507   1.856   8.009  3.9613 -2.1149 -0.0628
  854MOL0     H12673   5.559   1.971   8.297 -0.7001 -0.5531  0.9972
  854MOL0     H12674   5.584   1.811   8.246  2.4275  1.5813 -0.1292
  854MOL0     H12675   5.327   1.821   8.171 -0.2971 -0.9680  0.2442
  854MOL0     H12676   5.312   1.971   8.251 -0.2604  0.2428 -2.8174
  854MOL0     H12677   5.374   1.845   8.473  0.0366 -0.7439 -0.1399
  854MOL0     H12678   5.214   1.827   8.405 -0.4229  0.7666  1.0986
  854MOL0     H12679   5.456   1.640   8.352 -0.5971  0.1046 -3.0196
  854MOL0     H12680   5.301   1.615   8.296  0.7589 -2.2229  0.2930
  854MOL0     H12681   5.156   1.703   8.597  1.3933  0.7773 -0.1176
  854MOL0     H12682   5.046   1.361   8.741  2.9254 -0.5355  1.6276
  854MOL0     H12683   4.987   1.529   8.739  0.6985  0.7523 -2.5442
  854MOL0     H12684   5.140   1.576   8.930 -0.3125  1.3973 -3.6133
  854MOL0     H12685   5.238   1.443   8.890  0.5682  1.6707  0.2062
  854MOL0     H12686   4.947   1.437   8.991  0.1203 -0.4625  2.1240
  854MOL0     H12687   5.031   1.286   8.957  4.0065 -1.9038  3.1926
  854MOL0     H12688   5.120   1.500   9.138  1.3693 -0.0588 -1.4469
  854MOL0     H12689   5.226   1.375   9.099  0.3083  0.3426 -0.3149
  854MOL0     H12690   5.023   1.569   9.328 -2.0510  2.1540  3.2931
  854MOL0     H12691   4.822   1.671   9.410  1.6773  0.7136 -1.7706
  854MOL0     H12692   4.405   1.746   9.368  1.3892 -0.2304  2.3862
  854MOL0     H12693   4.174   1.858   9.403  0.5664 -0.6930 -0.6363
  854MOL0     H12694   3.872   1.621   9.645 -0.0050  1.6289  0.3556
  854MOL0     H12695   3.854   1.559   9.490  0.8571  0.4285 -2.8396
  854MOL0     H12696   3.741   1.841   9.584 -2.0127  0.0480  0.9946
  854MOL0     H12697   3.655   1.691   9.606  2.3352 -0.7195  1.3874
  854MOL0     H12698   3.670   1.642   9.364 -1.0158 -0.3071 -0.5875
  854MOL0     H12699   3.746   1.800   9.326  0.8841  1.1029  1.0671
  854MOL0     H12700   3.461   1.745   9.416 -0.1756 -1.5957 -0.5834
  854MOL0     H12701   3.533   1.903   9.431  2.3201 -2.2106  3.2136
  854MOL0     H12702   3.395   1.851   9.221 -0.3415 -1.9482  1.7418
  854MOL0     H12703   3.513   1.728   9.184  1.2653  0.7621 -1.8463
  854MOL0     H12704   3.684   1.899   9.125 -0.7475  1.0424 -1.7780
  854MOL0     H12705   3.584   2.026   9.195 -0.5244  0.1990  0.0427
  854MOL0     H12706   3.487   1.849   8.976 -0.9573 -0.3099 -0.9422
  854MOL0     H12707   3.414   1.991   9.036  1.0409  1.4542  0.1854
  854MOL0     H12708   3.512   2.056   8.839  0.4888 -0.0026 -0.1470
  854MOL0     H12709   3.670   1.982   8.883  1.0926  0.5510  2.4077
  854MOL0     H12710   4.031   1.479   9.550 -0.0387  0.8648  0.2332
  854MOL0     H12711   4.236   1.367   9.497  1.5111 -0.8783  0.0921
  854MOL0     H12712   4.603   1.311   9.327 -0.0264  1.4121 -0.9097
  854MOL0     H12713   4.818   1.201   9.245  0.6490  1.1443 -1.1412
  854MOL0     H12714   5.874   2.066   7.493  0.2770  0.0869  1.7186
  854MOL0     H12715   6.104   2.075   7.341  2.8182 -2.0625  0.0714
  854MOL0     H12716   6.433   2.085   7.186  1.9506  0.8129 -4.0134
  854MOL0     H12717   6.621   2.080   7.045 -0.7584  3.3991  2.4856
  854MOL0     H12718   6.967   2.032   6.932 -1.0257  2.1336 -0.5569
  854MOL0     H12719   6.805   2.090   6.929  2.1467  1.4432 -0.2804
  854MOL0     H12720   6.737   1.845   6.965 -1.5335  2.0301 -2.1517
  854MOL0     H12721   6.786   1.894   6.814 -1.2294 -0.3397  0.2726
  854MOL0     H12722   7.015   1.801   6.892  0.6013 -1.4363 -0.1055
  854MOL0     H12723   6.897   1.684   6.841  1.0112  0.8896 -0.1490
  854MOL0     H12724   6.985   1.732   7.129 -2.5237  0.5154  0.9724
  854MOL0     H12725   6.833   1.666   7.090 -1.0840  0.8462 -2.5702
  854MOL0     H12726   7.084   1.328   7.045 -2.9796 -1.2712  0.3965
  854MOL0     H12727   6.861   1.914   7.353  0.9083  0.2254 -1.2018
  854MOL0     H12728   6.677   1.884   7.491 -1.9102  0.3036  1.3742
  855MOL0     O12729   5.528   8.159   7.649  0.4292 -0.3061 -0.2470
  855MOL0     C12730   5.518   8.279   7.676  0.4408  0.5278 -0.3821
  855MOL0     O12731   5.412   8.359   7.647  0.0364  0.2543  0.2384
  855MOL0     C12732   5.297   8.307   7.593 -0.1187  0.0146 -0.2499
  855MOL0     C12733   5.239   8.186   7.644 -0.2369 -0.7804  0.7321
  855MOL0     C12734   5.108   8.157   7.602  0.0507 -0.5156 -0.0977
  855MOL0     C12735   5.034   8.233   7.519 -0.5446 -0.0693  0.3040
  855MOL0     O12736   4.908   8.192   7.496 -0.0136 -0.0680 -0.6236
  855MOL0     C12737   4.797   8.285   7.479  0.4103 -0.6795 -0.3918
  855MOL0     C12738   4.765   8.293   7.333  1.1615  0.7514  0.6178
  855MOL0     C12739   4.629   8.369   7.303 -0.4391  0.4535 -0.8745
  855MOL0     C12740   4.504   8.271   7.291 -0.6947  0.0212  0.3118
  855MOL0     C12741   4.369   8.353   7.308 -0.3236  0.0375  0.0454
  855MOL0     C12742   4.244   8.269   7.270 -0.2697 -0.7575 -0.5382
  855MOL0     C12743   4.113   8.343   7.306  0.6588  0.4890  0.5727
  855MOL0     C12744   3.990   8.245   7.308  0.3624  0.2426 -0.1942
  855MOL0     N12745   3.980   8.168   7.186 -0.5152  0.1471  0.5026
  855MOL0     C12746   4.020   8.034   7.171  0.4191 -0.6511 -0.2659
  855MOL0     C12747   4.002   8.003   7.040 -0.1095 -0.0744 -0.3156
  855MOL0     C12748   4.058   7.878   6.975  0.1241  0.1107  0.1711
  855MOL0     C12749   4.204   7.876   7.017 -0.5248  0.2980 -0.3404
  855MOL0     C12750   4.291   7.777   6.931 -0.5894  0.8120  0.7925
  855MOL0     C12751   4.440   7.789   6.965  0.0971  0.3655  0.3819
  855MOL0     O12752   4.488   7.916   6.930  0.3242 -0.3398 -0.4401
  855MOL0     C12753   4.615   7.957   6.959  0.3757 -0.1669  0.1226
  855MOL0     C12754   4.644   8.099   6.962 -0.4807 -0.7910 -0.1581
  855MOL0     C12755   4.772   8.166   6.984  0.6261  0.6108 -0.1894
  855MOL0     C12756   4.874   8.071   7.027  0.4257  0.1639 -0.2871
  855MOL0     C12757   5.008   8.114   7.067 -0.2758  0.4238  0.1286
  855MOL0     O12758   5.104   8.016   7.061 -0.0072  0.5076  0.4626
  855MOL0     C12759   5.225   8.026   7.121 -0.1433  0.8390  0.2713
  855MOL0     C12760   5.274   8.119   7.208 -0.5046 -0.9123  0.4407
  855MOL0     C12761   5.409   8.118   7.253  0.4962 -0.4228  0.7017
  855MOL0     C12762   5.500   8.019   7.217  0.7012 -0.5161  0.1086
  855MOL0     O12763   5.637   8.003   7.245  0.2389  0.2039  0.5973
  855MOL0     C12764   5.688   8.108   7.331 -0.8220  0.3896 -0.0558
  855MOL0     C12765   5.836   8.095   7.346 -0.6441  0.3661 -0.2188
  855MOL0     C12766   5.892   8.162   7.468 -0.6321  0.6833  0.7890
  855MOL0     C12767   6.043   8.150   7.461 -0.1041 -0.5324  0.2922
  855MOL0     C12768   6.099   8.250   7.567  0.0515  0.5506  0.0282
  855MOL0     C12769   6.250   8.240   7.559 -0.8902  0.0194  0.3456
  855MOL0     C12770   6.311   8.354   7.651 -0.0974  0.2414 -0.4665
  855MOL0     C12771   6.467   8.372   7.634 -0.2538 -0.2179  0.3830
  855MOL0    Cl12772   6.558   8.215   7.644 -0.6615  0.2184 -0.2547
  855MOL0     C12773   5.449   7.916   7.133  0.5652 -0.2403 -0.7424
  855MOL0     C12774   5.313   7.926   7.086 -0.0129 -0.7916  0.5456
  855MOL0     O12775   5.026   8.219   7.127  0.4455 -0.6488 -0.0914
  855MOL0     C12776   4.836   7.934   7.046 -0.2585 -0.6702 -1.0767
  855MOL0     C12777   4.715   7.875   7.016 -0.4145 -0.1067 -0.1456
  855MOL0     N12778   3.953   8.122   6.983  0.1585 -0.1134  0.1496
  855MOL0     N12779   3.941   8.215   7.069  0.7775 -0.2682 -0.2894
  855MOL0     C12780   5.096   8.348   7.470 -0.0956 -0.7867  0.0631
  855MOL0     C12781   5.228   8.384   7.510  0.7947  0.0249 -0.3099
  855MOL0     C12782   5.628   8.355   7.739 -0.1088 -0.7929 -0.2942
  855MOL0     C12783   5.721   8.294   7.818  0.3986  0.3689  0.1792
  855MOL0     C12784   5.833   8.355   7.873 -0.3749 -0.4358  0.6537
  855MOL0     C12785   5.847   8.497   7.846 -0.4530  0.1905  0.0455
  855MOL0     O12786   5.953   8.562   7.903 -0.5976  0.5511  0.5586
  855MOL0     C12787   5.961   8.705   7.905  0.2730  0.2517  0.9314
  855MOL0     C12788   6.090   8.745   7.961 -0.1143 -0.1676  0.2876
  855MOL0     C12789   6.208   8.708   7.874  0.0309 -0.1673 -0.1708
  855MOL0     C12790   6.337   8.794   7.907 -0.1722  1.2478 -0.2768
  855MOL0     C12791   6.464   8.746   7.855  0.0038  0.1295 -0.2131
  855MOL0     C12792   6.576   8.725   7.819  0.0394 -0.3945  0.6750
  855MOL0     C12793   5.745   8.567   7.774 -0.5241 -0.8679 -1.0332
  855MOL0     C12794   5.645   8.501   7.714  1.0814  0.0181 -0.2298
  855MOL0     H12795   5.295   8.130   7.718 -0.5755  0.4305  1.9492
  855MOL0     H12796   5.050   8.073   7.639 -1.1353 -0.9753 -2.7394
  855MOL0     H12797   4.819   8.386   7.515 -2.1427 -0.4129  0.6409
  855MOL0     H12798   4.701   8.257   7.523  0.2924  0.9317  0.4456
  855MOL0     H12799   4.755   8.190   7.299  1.5898  1.1559 -0.7881
  855MOL0     H12800   4.844   8.344   7.277  1.7288 -1.3563 -0.6062
  855MOL0     H12801   4.621   8.430   7.213 -5.8382 -0.2047 -1.1689
  855MOL0     H12802   4.619   8.431   7.393 -2.2757 -0.9531 -0.0395
  855MOL0     H12803   4.497   8.235   7.189  1.4853  0.3243 -0.0065
  855MOL0     H12804   4.508   8.181   7.354  0.6526 -1.8323 -2.2553
  855MOL0     H12805   4.373   8.447   7.252 -0.6298 -0.3663 -0.6594
  855MOL0     H12806   4.376   8.378   7.415  0.3413  1.2897 -0.2709
  855MOL0     H12807   4.249   8.174   7.324  0.1932 -0.5373 -0.1864
  855MOL0     H12808   4.238   8.257   7.161  0.7038 -1.8456 -0.5004
  855MOL0     H12809   4.122   8.398   7.400  3.5001 -0.4247  0.9221
  855MOL0     H12810   4.089   8.417   7.230 -1.7610  1.0920  1.8044
  855MOL0     H12811   3.897   8.300   7.324  0.3015  0.3201 -0.7718
  855MOL0     H12812   3.989   8.176   7.393 -1.4587  1.9307  1.2456
  855MOL0     H12813   4.069   7.966   7.240 -0.7372 -1.1170  0.1404
  855MOL0     H12814   4.049   7.892   6.866  0.7152 -0.8578 -0.0085
  855MOL0     H12815   4.014   7.788   7.018  0.6606 -0.5033 -0.5320
  855MOL0     H12816   4.210   7.839   7.120 -0.1308  2.6585  0.5376
  855MOL0     H12817   4.250   7.974   7.007  2.4900 -1.1540 -2.2817
  855MOL0     H12818   4.250   7.678   6.952  0.7458  0.4635  1.8801
  855MOL0     H12819   4.283   7.803   6.825  1.1377 -1.2956  0.0793
  855MOL0     H12820   4.499   7.711   6.915  0.1798 -1.4563  3.0961
  855MOL0     H12821   4.452   7.768   7.072  0.0815  0.4401  0.3979
  855MOL0     H12822   4.571   8.177   6.945  2.5951  3.1646  2.7006
  855MOL0     H12823   4.788   8.273   6.995  0.8879  0.6743 -1.1203
  855MOL0     H12824   5.215   8.189   7.267 -0.0838 -1.3023  1.3525
  855MOL0     H12825   5.444   8.204   7.310  2.2023 -0.5926 -0.0236
  855MOL0     H12826   5.640   8.093   7.428 -1.9066  1.3169 -0.4359
  855MOL0     H12827   5.670   8.210   7.296  3.3973  0.5679 -2.3932
  855MOL0     H12828   5.885   8.134   7.257 -1.6019  0.5015 -0.6919
  855MOL0     H12829   5.868   7.991   7.352 -4.3307 -0.8393  2.4673
  855MOL0     H12830   5.855   8.132   7.567 -1.5089  0.1552  0.3113
  855MOL0     H12831   5.871   8.269   7.461  0.7178  1.1213  2.6488
  855MOL0     H12832   6.076   8.046   7.471 -1.2462 -1.1581 -1.8201
  855MOL0     H12833   6.078   8.186   7.365 -0.1214  0.5510  0.6826
  855MOL0     H12834   6.078   8.207   7.665  0.1071 -4.1234 -1.7901
  855MOL0     H12835   6.048   8.345   7.545 -1.7360 -0.3935 -0.0784
  855MOL0     H12836   6.299   8.239   7.461  1.9843 -1.6642  1.6801
  855MOL0     H12837   6.272   8.142   7.600  0.0130  0.0081 -0.1329
  855MOL0     H12838   6.253   8.445   7.633 -2.0718 -0.0431  3.3901
  855MOL0     H12839   6.292   8.334   7.757 -1.5014 -0.6957 -0.8701
  855MOL0     H12840   6.501   8.440   7.712 -0.8111 -1.3397  1.6503
  855MOL0     H12841   6.478   8.420   7.536  2.7756 -2.1677 -0.3453
  855MOL0     H12842   5.510   7.830   7.106  1.3921 -0.0621  0.4731
  855MOL0     H12843   5.278   7.858   7.009  0.0674 -0.1759 -0.0456
  855MOL0     H12844   4.907   7.877   7.106 -1.3214 -0.9552 -0.0327
  855MOL0     H12845   4.700   7.770   7.038 -0.8519 -0.3759 -1.6358
  855MOL0     H12846   5.045   8.427   7.417 -0.5514  0.7927  2.6406
  855MOL0     H12847   5.275   8.475   7.476  4.0586 -2.4425 -3.2034
  855MOL0     H12848   5.707   8.187   7.829 -3.1780  0.8532  1.6781
  855MOL0     H12849   5.909   8.309   7.936  0.1217  1.8420  1.8436
  855MOL0     H12850   5.888   8.754   7.970  1.0987  2.4251  0.2852
  855MOL0     H12851   5.951   8.747   7.805 -0.5903 -0.8741  0.5196
  855MOL0     H12852   6.095   8.853   7.978  0.2136  0.1641 -1.6748
  855MOL0     H12853   6.093   8.703   8.061 -1.8701 -2.9909 -0.7466
  855MOL0     H12854   6.188   8.723   7.767  0.7074 -0.3765 -0.3293
  855MOL0     H12855   6.234   8.601   7.879 -2.0879 -0.6631  1.4475
  855MOL0     H12856   6.325   8.890   7.857  3.6648  2.4380  0.7577
  855MOL0     H12857   6.348   8.801   8.016  4.7930 -5.9572  0.3714
  855MOL0     H12858   6.681   8.729   7.798 -0.0253 -0.0706  0.4092
  855MOL0     H12859   5.751   8.672   7.750  1.9024 -1.3227 -2.7975
  855MOL0     H12860   5.572   8.556   7.655  2.3161  0.1852 -1.6491
  856MOL0     O12861  10.380   6.079   5.481 -0.1690  1.1808 -0.0998
  856MOL0     C12862  10.407   6.109   5.367  0.5925  0.1749  0.1216
  856MOL0     O12863  10.339   6.204   5.300 -0.4197  0.9513 -0.3462
  856MOL0     C12864  10.224   6.253   5.355  0.2769 -0.6617 -0.9179
  856MOL0     C12865  10.119   6.181   5.408  0.5788  0.5447 -0.1549
  856MOL0     C12866  10.000   6.245   5.455 -0.2644 -0.1781  0.2659
  856MOL0     C12867   9.990   6.390   5.455 -0.2883 -0.4586 -0.3455
  856MOL0     O12868   9.874   6.442   5.515 -0.3718 -0.1012  0.1302
  856MOL0     C12869   9.879   6.558   5.597 -0.4238 -1.3448 -0.3020
  856MOL0     C12870   9.769   6.540   5.700  0.5058 -0.2610 -0.3205
  856MOL0     C12871   9.632   6.552   5.635 -0.4023  0.1058  0.4478
  856MOL0     C12872   9.520   6.565   5.738  0.4677 -1.0647  0.4461
  856MOL0     C12873   9.389   6.602   5.676 -0.6262  0.5440 -0.3660
  856MOL0     C12874   9.281   6.644   5.768 -0.0250  0.2550 -0.6971
  856MOL0     C12875   9.159   6.669   5.684 -0.0864 -0.6305  0.5206
  856MOL0     C12876   9.038   6.675   5.779  0.3828 -0.5718 -0.8116
  856MOL0     N12877   8.919   6.723   5.700 -0.2649 -0.7985 -0.4081
  856MOL0     C12878   8.872   6.857   5.690  0.1317  0.5030 -0.4802
  856MOL0     C12879   8.778   6.851   5.588  0.2288 -0.0952  0.2193
  856MOL0     C12880   8.701   6.971   5.545  0.2284 -0.5522  0.6553
  856MOL0     C12881   8.550   6.947   5.559 -0.9118  0.6192 -0.9398
  856MOL0     C12882   8.466   7.077   5.540 -0.1357  0.0432  0.6321
  856MOL0     C12883   8.324   7.060   5.550  0.2127  0.3867 -0.3648
  856MOL0     O12884   8.275   6.945   5.484  0.7191  0.2488 -0.5884
  856MOL0     C12885   8.136   6.939   5.461 -0.4165 -0.0513  0.9313
  856MOL0     C12886   8.035   7.018   5.526  0.3637 -0.1396  0.2152
  856MOL0     C12887   7.900   6.999   5.489  0.1316  0.2266 -0.6343
  856MOL0     C12888   7.862   6.901   5.395  0.5084  0.2158  0.1771
  856MOL0     C12889   7.723   6.866   5.361  0.6867  0.3572  0.5724
  856MOL0     O12890   7.621   6.930   5.433 -0.0587 -0.0669 -0.8750
  856MOL0     C12891   7.490   6.945   5.387  0.8011  1.3606  0.0164
  856MOL0     C12892   7.426   7.064   5.432 -0.0791  0.1584  0.6504
  856MOL0     C12893   7.290   7.087   5.408 -0.1804 -0.2090  0.1920
  856MOL0     C12894   7.220   7.005   5.326  0.1086 -0.0924 -0.4485
  856MOL0     O12895   7.092   7.025   5.291 -0.1541 -0.0449  0.4141
  856MOL0     C12896   7.012   7.123   5.367 -0.5407  0.1625  0.2173
  856MOL0     C12897   6.863   7.118   5.309  0.1545 -0.5648  0.4668
  856MOL0     C12898   6.802   6.990   5.361 -0.4014  0.7010 -1.4268
  856MOL0     C12899   6.659   6.978   5.329  0.4131 -0.6503 -0.3725
  856MOL0     C12900   6.604   6.852   5.401  0.5912  0.4639 -0.2668
  856MOL0     C12901   6.458   6.831   5.356 -0.4245  0.6150 -0.0221
  856MOL0     C12902   6.361   6.854   5.474 -0.4690 -0.7059  0.2617
  856MOL0     C12903   6.223   6.840   5.421  0.4961 -0.5940  0.5799
  856MOL0    Cl12904   6.122   6.863   5.569 -0.0772  0.0030 -0.2032
  856MOL0     C12905   7.287   6.901   5.270  0.0538  0.2935 -0.0839
  856MOL0     C12906   7.410   6.858   5.306 -0.2525  0.3002 -0.5543
  856MOL0     O12907   7.700   6.798   5.264 -0.6295 -0.0241 -0.0799
  856MOL0     C12908   7.963   6.818   5.339 -0.6633 -0.9128 -1.0439
  856MOL0     C12909   8.097   6.832   5.376  0.1764 -1.0033  0.1941
  856MOL0     N12910   8.769   6.715   5.551  1.0057 -0.3997 -0.0669
  856MOL0     N12911   8.855   6.639   5.617  0.7738 -0.2768  0.3246
  856MOL0     C12912  10.102   6.458   5.411  0.1254 -0.5481 -0.1906
  856MOL0     C12913  10.217   6.395   5.355  0.3406 -0.3714  0.3923
  856MOL0     C12914  10.522   6.035   5.303  0.7994  0.0328 -0.3094
  856MOL0     C12915  10.611   5.971   5.396  0.2718  0.1298 -0.3327
  856MOL0     C12916  10.722   5.904   5.352 -0.7849 -0.1862  0.0711
  856MOL0     C12917  10.752   5.904   5.217 -0.1266  0.4784 -0.3616
  856MOL0     O12918  10.858   5.826   5.184  0.3190  0.1428 -0.8744
  856MOL0     C12919  10.964   5.885   5.104  1.0033 -0.6980  0.5161
  856MOL0     C12920  11.093   5.856   5.171  0.1145  0.2167  0.0577
  856MOL0     C12921  11.207   5.854   5.065 -0.3505 -0.3726 -0.5008
  856MOL0     C12922  11.261   5.999   5.043  0.8182  1.0428  0.0759
  856MOL0     C12923  11.375   5.998   4.953  0.0465 -0.4029  0.4309
  856MOL0     C12924  11.485   6.012   4.893  0.1353  0.5677  0.2663
  856MOL0     C12925  10.679   5.981   5.126  0.2700 -0.3353 -0.6727
  856MOL0     C12926  10.556   6.044   5.166 -1.1706  0.3371 -0.8970
  856MOL0     H12927  10.127   6.073   5.410 -1.3125  0.3512 -0.9518
  856MOL0     H12928   9.912   6.197   5.497 -0.0681  0.1993  1.1220
  856MOL0     H12929   9.875   6.656   5.549 -1.9282 -1.0313  0.4085
  856MOL0     H12930   9.975   6.558   5.649  1.6239 -3.1523 -3.7315
  856MOL0     H12931   9.777   6.628   5.765  0.6496  0.0573 -0.7691
  856MOL0     H12932   9.775   6.445   5.754  0.0651  0.1204  0.4201
  856MOL0     H12933   9.619   6.468   5.566  2.2545  0.6292 -0.7832
  856MOL0     H12934   9.623   6.641   5.572 -0.6861 -0.7966 -0.8323
  856MOL0     H12935   9.518   6.466   5.784 -0.2380 -0.0184  2.8213
  856MOL0     H12936   9.555   6.633   5.816  1.4437  1.0253 -1.6762
  856MOL0     H12937   9.369   6.513   5.617  2.7689 -0.2486 -0.5694
  856MOL0     H12938   9.403   6.689   5.610 -1.2037  2.3559  1.7618
  856MOL0     H12939   9.301   6.735   5.825 -0.9497 -0.9880  1.7432
  856MOL0     H12940   9.270   6.560   5.836  1.4471  2.5530  2.6616
  856MOL0     H12941   9.165   6.764   5.631 -1.0672 -0.5875  0.4685
  856MOL0     H12942   9.141   6.593   5.608  0.6845 -0.6215  0.3301
  856MOL0     H12943   9.056   6.746   5.860  1.6333  0.7728 -2.2153
  856MOL0     H12944   9.017   6.575   5.818 -0.4261  0.0147  0.3462
  856MOL0     H12945   8.910   6.941   5.747 -0.8272  2.2358 -2.2485
  856MOL0     H12946   8.718   6.979   5.437  1.8982 -0.6437  0.8837
  856MOL0     H12947   8.734   7.064   5.592  0.7858  0.9312 -2.4355
  856MOL0     H12948   8.522   6.904   5.656 -1.6662 -2.5300 -2.4278
  856MOL0     H12949   8.521   6.884   5.475 -0.4261 -0.8493 -0.0573
  856MOL0     H12950   8.508   7.146   5.615  0.6223  1.5875 -1.1366
  856MOL0     H12951   8.494   7.111   5.440 -1.2317 -1.5715 -0.2642
  856MOL0     H12952   8.267   7.141   5.504 -2.5446 -0.5560  1.1568
  856MOL0     H12953   8.301   7.046   5.657 -0.8476 -1.1704 -0.7510
  856MOL0     H12954   8.067   7.096   5.594  1.9186 -0.4217 -0.1685
  856MOL0     H12955   7.819   7.054   5.537 -0.3785 -0.5902 -0.5509
  856MOL0     H12956   7.477   7.133   5.499  0.9170  1.2214 -1.1157
  856MOL0     H12957   7.250   7.182   5.443  2.5034  0.9376  0.3592
  856MOL0     H12958   7.058   7.221   5.354 -1.4719  0.5954  0.1635
  856MOL0     H12959   7.021   7.102   5.474  3.6420 -2.9059 -0.4440
  856MOL0     H12960   6.887   7.120   5.202  2.8692  1.1260  1.0075
  856MOL0     H12961   6.807   7.198   5.357  1.1726 -0.0961  0.9139
  856MOL0     H12962   6.810   7.004   5.469 -2.9808 -0.2141 -1.0428
  856MOL0     H12963   6.860   6.900   5.341  0.4821  0.5944  1.1987
  856MOL0     H12964   6.597   7.063   5.361  0.3762  0.1696 -2.4396
  856MOL0     H12965   6.649   6.970   5.220 -0.9232 -2.2914 -0.1719
  856MOL0     H12966   6.605   6.868   5.509  0.2422 -1.3885  0.0551
  856MOL0     H12967   6.660   6.761   5.377 -1.3003 -0.8277  0.0122
  856MOL0     H12968   6.443   6.727   5.326 -0.2154  0.7246 -0.5291
  856MOL0     H12969   6.430   6.899   5.274 -0.7825 -1.2688 -1.5309
  856MOL0     H12970   6.381   6.778   5.549  0.2248 -0.0882  0.7155
  856MOL0     H12971   6.381   6.954   5.515  2.8034 -1.3040  0.3706
  856MOL0     H12972   6.210   6.734   5.395 -3.0172 -0.5224  1.4801
  856MOL0     H12973   6.203   6.905   5.335  0.2874 -1.7156 -0.2589
  856MOL0     H12974   7.234   6.837   5.201  2.1751 -2.2966  0.5296
  856MOL0     H12975   7.444   6.758   5.279  1.3474  0.2154  1.5218
  856MOL0     H12976   7.937   6.741   5.267  0.6288 -0.3281 -2.1773
  856MOL0     H12977   8.169   6.766   5.329  1.2582  0.2486  0.0463
  856MOL0     H12978  10.094   6.566   5.416 -2.1828 -0.7059  0.8175
  856MOL0     H12979  10.297   6.453   5.310 -0.3576  2.2729  2.2742
  856MOL0     H12980  10.595   5.983   5.503 -1.3704 -0.7813 -0.4486
  856MOL0     H12981  10.786   5.850   5.421 -0.6199  1.5157  1.3051
  856MOL0     H12982  10.943   5.992   5.098 -2.2217 -1.1835  0.9282
  856MOL0     H12983  10.965   5.858   4.997  2.2842 -1.0087  0.6000
  856MOL0     H12984  11.123   5.924   5.252  2.5645  0.0365 -0.6087
  856MOL0     H12985  11.083   5.755   5.210  1.0679 -0.8449 -2.2515
  856MOL0     H12986  11.182   5.800   4.973 -1.0781  1.1023 -1.1926
  856MOL0     H12987  11.284   5.793   5.113  0.2947 -0.7718 -1.9940
  856MOL0     H12988  11.186   6.061   4.992  0.2952  1.5180  1.3741
  856MOL0     H12989  11.272   6.045   5.142  0.1948  3.0058 -0.7253
  856MOL0     H12990  11.584   6.016   4.851  0.3124 -0.6004  0.5298
  856MOL0     H12991  10.690   5.984   5.018 -0.9004  0.2376 -0.7954
  856MOL0     H12992  10.493   6.103   5.100 -3.4914  0.5084  1.3028
  857MOL0     O12993   4.479   4.731   0.868 -0.7884 -0.3379 -0.2538
  857MOL0     C12994   4.581   4.751   0.800 -0.2869 -0.2935 -0.3847
  857MOL0     O12995   4.610   4.679   0.687 -0.7904 -0.1795 -0.2630
  857MOL0     C12996   4.521   4.621   0.614  0.7929 -0.3042  1.2344
  857MOL0     C12997   4.429   4.529   0.658 -0.0796  0.5814 -1.2800
  857MOL0     C12998   4.332   4.470   0.568  0.3989  0.7953  0.1319
  857MOL0     C12999   4.307   4.521   0.436 -0.4261 -0.5998  0.3062
  857MOL0     O13000   4.222   4.458   0.353  0.5225 -0.4209 -0.1780
  857MOL0     C13001   4.098   4.404   0.406 -0.2526  0.5249  0.2093
  857MOL0     C13002   3.991   4.396   0.305 -0.2377  0.0385  1.0851
  857MOL0     C13003   3.875   4.318   0.358  0.3704 -0.8395  0.3568
  857MOL0     C13004   3.760   4.346   0.262  0.1810  0.2619  0.1478
  857MOL0     C13005   3.640   4.263   0.300  0.4939 -0.1652 -0.6873
  857MOL0     C13006   3.561   4.306   0.427  0.2590  0.8442  0.0976
  857MOL0     C13007   3.411   4.264   0.419 -0.0632  0.8532  0.6243
  857MOL0     C13008   3.350   4.268   0.551  0.6508 -0.2193 -0.1769
  857MOL0     N13009   3.201   4.252   0.568  0.7689  0.0265  0.7300
  857MOL0     C13010   3.118   4.255   0.461 -0.0507  0.0686  0.9400
  857MOL0     C13011   2.995   4.221   0.515 -0.2403 -0.2561  0.6806
  857MOL0     C13012   2.876   4.189   0.430 -1.0056 -0.4294 -0.1521
  857MOL0     C13013   2.741   4.234   0.485 -0.2082 -0.3041 -0.4169
  857MOL0     C13014   2.629   4.198   0.379 -0.3974 -0.0696 -0.4468
  857MOL0     C13015   2.499   4.192   0.455 -0.4072  0.0332  0.1827
  857MOL0     O13016   2.415   4.108   0.369  0.3235  0.2759 -0.1714
  857MOL0     C13017   2.281   4.078   0.391  1.2828  0.1635 -0.5532
  857MOL0     C13018   2.216   3.998   0.298  0.3312  0.7055  0.2736
  857MOL0     C13019   2.083   3.957   0.313 -0.1208  0.2050 -0.2471
  857MOL0     C13020   2.010   3.995   0.431  0.1557  0.2389  0.2052
  857MOL0     C13021   1.878   3.939   0.456  0.6573 -1.1678  0.0939
  857MOL0     O13022   1.834   3.824   0.395  0.2208 -0.0970  0.1315
  857MOL0     C13023   1.703   3.788   0.421  0.4826  0.2291 -0.0010
  857MOL0     C13024   1.592   3.868   0.410  0.8307 -1.0091  0.4585
  857MOL0     C13025   1.466   3.827   0.452 -0.0690  0.3685  0.1871
  857MOL0     C13026   1.439   3.705   0.516 -0.3464 -0.6878 -0.1456
  857MOL0     O13027   1.313   3.658   0.549 -0.3129 -0.1470 -0.1301
  857MOL0     C13028   1.192   3.745   0.525 -0.5659 -0.3508  0.0432
  857MOL0     C13029   1.071   3.674   0.588 -0.5578  0.3048 -0.2039
  857MOL0     C13030   0.969   3.774   0.635 -0.8739  0.1454 -0.3287
  857MOL0     C13031   0.847   3.702   0.686  0.2239 -1.0799 -0.3153
  857MOL0     C13032   0.725   3.788   0.713 -0.0292  0.2647  0.0011
  857MOL0     C13033   0.738   3.914   0.803 -0.6626 -0.4850  0.2081
  857MOL0     C13034   0.777   3.879   0.951 -0.3859  0.6856  0.1483
  857MOL0     C13035   0.762   4.009   1.040 -0.1585  0.5920  0.3885
  857MOL0    Cl13036   0.888   4.126   1.002  0.2612  0.0647  0.1957
  857MOL0     C13037   1.551   3.620   0.530  0.1405  1.2462  0.6508
  857MOL0     C13038   1.679   3.658   0.481  0.0814 -0.5017  0.5286
  857MOL0     O13039   1.823   3.997   0.550 -0.0848  0.3809  0.4627
  857MOL0     C13040   2.075   4.079   0.521  0.0947 -0.0031  0.7662
  857MOL0     C13041   2.203   4.123   0.496 -0.2843 -0.2921 -0.0986
  857MOL0     N13042   3.006   4.218   0.650  0.0908 -0.1226  0.0575
  857MOL0     N13043   3.132   4.233   0.686 -0.3181 -1.0802  0.6901
  857MOL0     C13044   4.401   4.616   0.388  0.2651  0.8999 -0.4979
  857MOL0     C13045   4.504   4.659   0.479  0.0231 -0.6705 -1.1289
  857MOL0     C13046   4.681   4.857   0.845  0.2620 -0.5509 -0.4032
  857MOL0     C13047   4.653   4.928   0.967  0.9055 -0.3501  0.6429
  857MOL0     C13048   4.724   5.049   0.995 -0.5561  0.1584  0.1221
  857MOL0     C13049   4.844   5.076   0.923 -0.2972 -0.0478  0.4512
  857MOL0     O13050   4.922   5.179   0.974 -0.1766  0.2559 -0.4619
  857MOL0     C13051   5.069   5.150   0.998 -0.3048 -0.4451  0.2322
  857MOL0     C13052   5.094   5.067   1.131  0.3038  0.2930 -0.2864
  857MOL0     C13053   5.079   5.173   1.247 -0.2747  1.1847 -0.6504
  857MOL0     C13054   5.077   5.088   1.380  0.1049 -0.6869 -0.8196
  857MOL0     C13055   5.213   5.030   1.409  1.5126 -0.2350  0.0072
  857MOL0     C13056   5.325   4.987   1.405  0.0208  0.7476 -0.2803
  857MOL0     C13057   4.876   4.994   0.822  0.3072 -0.6143 -0.2032
  857MOL0     C13058   4.794   4.898   0.771  0.3545  0.6004 -0.6055
  857MOL0     H13059   4.433   4.497   0.761 -1.1673 -1.8175 -1.9084
  857MOL0     H13060   4.263   4.402   0.618 -1.4287  1.2091 -1.6654
  857MOL0     H13061   4.062   4.454   0.497  2.1902 -0.3205  1.7504
  857MOL0     H13062   4.119   4.298   0.427 -2.5027  0.1148  0.6877
  857MOL0     H13063   4.027   4.348   0.213  1.3714  2.8850  0.1168
  857MOL0     H13064   3.960   4.497   0.277 -1.1067 -0.2610  0.9076
  857MOL0     H13065   3.844   4.351   0.458  0.7478 -1.1133  0.5665
  857MOL0     H13066   3.899   4.212   0.355 -1.6330 -1.4201  2.1117
  857MOL0     H13067   3.738   4.452   0.277  0.9416  0.8643 -2.5720
  857MOL0     H13068   3.789   4.321   0.160 -0.1956 -1.1554  0.3696
  857MOL0     H13069   3.667   4.157   0.303  0.7495 -0.1525  3.2645
  857MOL0     H13070   3.581   4.273   0.209 -0.2208  0.7647 -0.1388
  857MOL0     H13071   3.569   4.415   0.433  2.8012  0.7672 -0.5179
  857MOL0     H13072   3.601   4.264   0.520 -3.4291  1.8269  2.3659
  857MOL0     H13073   3.359   4.328   0.348 -1.9280 -2.9923 -1.8002
  857MOL0     H13074   3.398   4.164   0.376 -3.2238  1.6355 -0.5149
  857MOL0     H13075   3.365   4.355   0.615 -1.8971 -0.0527  0.2914
  857MOL0     H13076   3.403   4.200   0.619 -1.0965  0.4189  1.9488
  857MOL0     H13077   3.147   4.253   0.356 -3.0389  0.9802 -0.0196
  857MOL0     H13078   2.866   4.081   0.413  0.0524 -0.8564  1.6754
  857MOL0     H13079   2.874   4.240   0.333 -4.9059 -2.3018 -1.2947
  857MOL0     H13080   2.741   4.341   0.508 -4.2423  0.0170 -1.1360
  857MOL0     H13081   2.724   4.175   0.575 -0.5063  1.1885  0.5390
  857MOL0     H13082   2.609   4.274   0.303 -3.7536 -0.3359  0.0496
  857MOL0     H13083   2.653   4.102   0.333  0.4646 -0.0010 -0.1625
  857MOL0     H13084   2.459   4.294   0.466 -0.6947 -0.0064 -0.4329
  857MOL0     H13085   2.506   4.147   0.554  1.0293 -1.2392 -0.4545
  857MOL0     H13086   2.283   3.962   0.221 -1.5299 -0.5380 -0.8567
  857MOL0     H13087   2.051   3.882   0.241 -1.4520 -0.3653  0.8749
  857MOL0     H13088   1.607   3.971   0.379  1.4207 -0.9525  0.9088
  857MOL0     H13089   1.390   3.904   0.443  2.0227  2.4972 -0.7196
  857MOL0     H13090   1.173   3.766   0.420  1.2974 -3.4082 -1.0297
  857MOL0     H13091   1.201   3.832   0.591  3.1467 -1.2256  0.9289
  857MOL0     H13092   1.102   3.619   0.677 -3.6128  0.7241  1.2595
  857MOL0     H13093   1.020   3.610   0.516 -0.4483  0.0965 -0.0960
  857MOL0     H13094   0.939   3.844   0.556 -1.1054  1.6782  1.0534
  857MOL0     H13095   1.005   3.840   0.714 -1.7358  2.3976 -1.7279
  857MOL0     H13096   0.824   3.624   0.613  1.5746  0.1223 -2.1242
  857MOL0     H13097   0.864   3.648   0.780  3.2717  0.5840  0.2449
  857MOL0     H13098   0.648   3.725   0.760 -0.7359  0.3115 -1.0449
  857MOL0     H13099   0.683   3.815   0.615 -2.2117 -0.9864  0.5148
  857MOL0     H13100   0.653   3.982   0.798  0.8924  1.7523  2.0472
  857MOL0     H13101   0.820   3.974   0.761 -1.4734 -0.0256 -0.7736
  857MOL0     H13102   0.722   3.792   0.989 -1.6333  1.5872  0.4807
  857MOL0     H13103   0.878   3.836   0.955 -0.7370 -0.2772 -0.8756
  857MOL0     H13104   0.779   3.988   1.146  3.5522 -0.9779 -0.3671
  857MOL0     H13105   0.666   4.060   1.021 -0.2879  0.5754  0.9808
  857MOL0     H13106   1.540   3.518   0.563  0.1477  1.3954  1.1222
  857MOL0     H13107   1.757   3.583   0.485 -0.4169 -1.1183 -0.6835
  857MOL0     H13108   2.031   4.119   0.612  1.7726 -0.7713  1.9587
  857MOL0     H13109   2.237   4.191   0.574  0.2951 -0.1766 -0.4446
  857MOL0     H13110   4.392   4.667   0.292 -2.0612  4.6329  1.4703
  857MOL0     H13111   4.572   4.736   0.446 -0.2400 -0.7618 -1.8979
  857MOL0     H13112   4.567   4.913   1.032 -0.0491 -0.9593 -0.7023
  857MOL0     H13113   4.692   5.116   1.073  0.5491  1.8148 -0.7906
  857MOL0     H13114   5.129   5.241   1.007  0.2250 -0.8715  1.2755
  857MOL0     H13115   5.097   5.087   0.914 -2.6136 -1.2581 -0.0148
  857MOL0     H13116   5.019   4.988   1.138 -0.1219  0.7444  0.3558
  857MOL0     H13117   5.199   5.034   1.134  0.3385  0.4230 -0.0218
  857MOL0     H13118   4.991   5.236   1.238 -2.4579 -1.7248 -1.4023
  857MOL0     H13119   5.162   5.243   1.250  1.3861 -0.7147  1.0910
  857MOL0     H13120   5.039   5.151   1.461 -0.6803 -1.2067 -0.7692
  857MOL0     H13121   5.009   5.002   1.374  0.0635 -0.8411  1.1423
  857MOL0     H13122   5.427   4.956   1.411  0.1537  1.2152 -0.0764
  857MOL0     H13123   4.966   5.006   0.763  0.5855 -1.1884  0.0918
  857MOL0     H13124   4.814   4.852   0.675  1.4497 -0.6264  0.1725
  858MOL0     O13125   0.788   6.646   6.829 -0.0668  0.5026 -0.0532
  858MOL0     C13126   0.831   6.663   6.714  0.6618 -0.6462 -0.2506
  858MOL0     O13127   0.749   6.652   6.609  0.7383 -0.0115  0.3784
  858MOL0     C13128   0.619   6.610   6.629  0.3529 -0.7103  0.1878
  858MOL0     C13129   0.516   6.686   6.682  0.1774 -0.2286 -0.1323
  858MOL0     C13130   0.388   6.640   6.708 -0.5907  0.1793  0.4680
  858MOL0     C13131   0.362   6.506   6.685  0.1989 -0.4135  0.0147
  858MOL0     O13132   0.244   6.442   6.718  0.0744 -0.7523  0.6197
  858MOL0     C13133   0.121   6.513   6.722 -0.4155  0.6174  0.3524
  858MOL0     C13134   0.074   6.581   6.591  0.4966 -0.0131  0.9062
  858MOL0     C13135  -0.077   6.614   6.590 -0.3784 -0.3405 -0.1293
  858MOL0     C13136  -0.115   6.711   6.477 -1.8345  0.0672 -0.0264
  858MOL0     C13137  -0.258   6.747   6.471 -0.1220  0.6483  0.5692
  858MOL0     C13138  -0.311   6.781   6.330 -0.5936 -0.7044 -1.0052
  858MOL0     C13139  -0.467   6.812   6.339 -0.0519  0.6264 -0.2008
  858MOL0     C13140  -0.518   6.873   6.208 -0.2934  0.4922  0.3397
  858MOL0     N13141  -0.659   6.894   6.224  0.1064  0.1401  0.2868
  858MOL0     C13142  -0.712   7.006   6.289  0.3266  0.9179 -0.7524
  858MOL0     C13143  -0.844   6.990   6.280 -0.3060 -1.3465  0.6730
  858MOL0     C13144  -0.947   7.080   6.345 -0.5178 -0.9495 -0.0221
  858MOL0     C13145  -1.054   7.130   6.245  0.3332 -0.7409 -0.0114
  858MOL0     C13146  -1.164   7.192   6.330 -0.7129  0.0996  0.3680
  858MOL0     C13147  -1.293   7.240   6.259 -0.0424 -0.0650  0.0468
  858MOL0     O13148  -1.360   7.126   6.225  0.5123  0.4874  0.0523
  858MOL0     C13149  -1.479   7.160   6.155 -0.2928  0.4549 -0.0030
  858MOL0     C13150  -1.496   7.250   6.049 -0.5603 -0.1766  0.2287
  858MOL0     C13151  -1.615   7.315   6.024 -0.0990  1.0276  0.2736
  858MOL0     C13152  -1.731   7.284   6.085 -0.1871  0.4142  0.0775
  858MOL0     C13153  -1.860   7.346   6.076 -0.5260 -0.1135 -0.2479
  858MOL0     O13154  -1.881   7.439   5.982  0.2049  0.3379 -0.6904
  858MOL0     C13155  -2.002   7.500   5.975  0.6112 -1.1143 -0.4354
  858MOL0     C13156  -2.064   7.565   6.086 -0.0848 -0.7739  0.1982
  858MOL0     C13157  -2.190   7.616   6.076 -0.5473  1.0811 -1.8913
  858MOL0     C13158  -2.264   7.604   5.960  1.0992 -0.6368 -0.3022
  858MOL0     O13159  -2.391   7.662   5.961 -0.6401  0.0876  0.5634
  858MOL0     C13160  -2.452   7.697   5.837  0.1638 -0.1802 -0.4835
  858MOL0     C13161  -2.591   7.745   5.878 -0.2155  0.1712  0.4309
  858MOL0     C13162  -2.686   7.782   5.772  0.2488  0.3699  0.5036
  858MOL0     C13163  -2.820   7.818   5.836 -0.3014  0.5541  0.2624
  858MOL0     C13164  -2.907   7.899   5.741  0.0374 -0.7147  0.1156
  858MOL0     C13165  -3.045   7.911   5.809  0.0054  0.7155 -0.6914
  858MOL0     C13166  -3.133   8.013   5.732 -0.2125  0.3428  0.5001
  858MOL0     C13167  -3.288   7.995   5.754  0.0143 -0.0227  0.0147
  858MOL0    Cl13168  -3.382   8.105   5.656  0.6247 -0.0532  0.0919
  858MOL0     C13169  -2.202   7.556   5.850 -0.4963 -0.1535  0.7688
  858MOL0     C13170  -2.077   7.493   5.858  0.3754 -0.5839 -0.0032
  858MOL0     O13171  -1.942   7.310   6.158  0.1562 -0.5798 -0.2501
  858MOL0     C13172  -1.716   7.194   6.192  0.2347 -0.0369  1.0588
  858MOL0     C13173  -1.594   7.128   6.225  0.9525  0.3550 -1.3351
  858MOL0     N13174  -0.864   6.881   6.201 -0.1214 -0.3655 -0.8318
  858MOL0     N13175  -0.757   6.830   6.155 -0.8553  0.1161  0.1483
  858MOL0     C13176   0.465   6.422   6.639  0.2807  0.1915  0.2621
  858MOL0     C13177   0.594   6.473   6.607  0.0715 -0.1568 -0.9111
  858MOL0     C13178   0.974   6.682   6.692  0.6464  0.3617  1.1868
  858MOL0     C13179   1.059   6.632   6.780 -0.0276 -1.2197  0.0259
  858MOL0     C13180   1.200   6.645   6.750  0.5586  0.2684 -0.0986
  858MOL0     C13181   1.246   6.694   6.630  0.2838  0.4769  0.2615
  858MOL0     O13182   1.381   6.677   6.614  0.1592 -0.1099 -0.2963
  858MOL0     C13183   1.433   6.780   6.523  1.2885  0.5487  0.0030
  858MOL0     C13184   1.568   6.833   6.561 -0.9846  0.2352  0.2738
  858MOL0     C13185   1.682   6.727   6.534 -0.8380  0.6775 -0.0898
  858MOL0     C13186   1.825   6.742   6.595  1.1807  0.7741  0.2969
  858MOL0     C13187   1.902   6.623   6.569 -0.3557  0.0550 -0.1155
  858MOL0     C13188   1.978   6.527   6.565 -0.3627  0.6418 -0.0254
  858MOL0     C13189   1.147   6.740   6.535 -1.1446 -0.5893  0.0989
  858MOL0     C13190   1.014   6.738   6.565 -0.9008  0.2931  0.6803
  858MOL0     H13191   0.531   6.793   6.688  1.5674 -0.4312  0.3619
  858MOL0     H13192   0.319   6.710   6.755 -1.4440 -0.6698  0.5121
  858MOL0     H13193   0.109   6.583   6.806 -3.6022  0.4686  0.1403
  858MOL0     H13194   0.048   6.436   6.749  1.1499 -1.0137  0.1233
  858MOL0     H13195   0.083   6.523   6.499 -1.7083  4.1848 -2.2865
  858MOL0     H13196   0.128   6.674   6.575 -0.9009  0.9998  1.8193
  858MOL0     H13197  -0.112   6.649   6.687 -0.7054  0.3171 -0.4767
  858MOL0     H13198  -0.133   6.522   6.570 -1.7908  0.3615  0.4353
  858MOL0     H13199  -0.064   6.808   6.484  2.3393 -1.8118 -1.0135
  858MOL0     H13200  -0.082   6.665   6.383 -0.0096  0.5442  0.3327
  858MOL0     H13201  -0.275   6.831   6.539 -0.6785 -1.0480  2.6193
  858MOL0     H13202  -0.324   6.664   6.498 -0.2140 -0.8098 -3.4357
  858MOL0     H13203  -0.294   6.703   6.255 -1.1884 -0.5402 -1.3240
  858MOL0     H13204  -0.263   6.876   6.303  0.4419 -1.0288 -0.3418
  858MOL0     H13205  -0.518   6.716   6.356 -0.4545  1.0410  1.0718
  858MOL0     H13206  -0.490   6.879   6.423  0.2802 -1.0869  1.3327
  858MOL0     H13207  -0.495   6.805   6.126  1.6991  2.1763 -0.5970
  858MOL0     H13208  -0.473   6.972   6.193 -1.1405  0.8724  0.2462
  858MOL0     H13209  -0.674   7.084   6.353 -1.9791  0.7641  0.8995
  858MOL0     H13210  -0.901   7.173   6.381 -1.7261 -0.1456 -0.5111
  858MOL0     H13211  -0.995   7.033   6.431 -0.9291 -0.5672 -0.0375
  858MOL0     H13212  -1.093   7.043   6.190  1.1117 -2.0988  1.4765
  858MOL0     H13213  -1.019   7.202   6.171 -1.0576  0.9550  0.9076
  858MOL0     H13214  -1.194   7.115   6.401 -0.1021 -1.9379 -1.4834
  858MOL0     H13215  -1.128   7.286   6.374  0.6221  1.0139 -2.4826
  858MOL0     H13216  -1.276   7.306   6.174  1.1844 -1.3565 -0.7570
  858MOL0     H13217  -1.351   7.286   6.340 -1.1394 -0.5191 -0.4593
  858MOL0     H13218  -1.403   7.282   6.003 -0.1957 -0.9540  0.4232
  858MOL0     H13219  -1.604   7.388   5.945 -2.2373  0.2440 -0.8064
  858MOL0     H13220  -2.009   7.569   6.179 -0.3587 -2.8385  0.4960
  858MOL0     H13221  -2.243   7.663   6.158 -1.4588  2.6730 -3.3265
  858MOL0     H13222  -2.466   7.619   5.761  1.1392  0.1967 -1.0797
  858MOL0     H13223  -2.396   7.775   5.785 -2.2153  3.8018  2.4066
  858MOL0     H13224  -2.584   7.828   5.949 -0.4582 -0.5897  1.3796
  858MOL0     H13225  -2.642   7.675   5.946  0.3742  1.0567  1.8221
  858MOL0     H13226  -2.696   7.710   5.690  2.2258  0.4732  0.1183
  858MOL0     H13227  -2.656   7.877   5.727 -0.3160  0.3247  0.0098
  858MOL0     H13228  -2.858   7.721   5.869 -1.0278  0.9300  0.5412
  858MOL0     H13229  -2.805   7.873   5.929 -0.8096  0.8850  0.1488
  858MOL0     H13230  -2.916   7.838   5.651 -4.5739 -2.2042  1.2834
  858MOL0     H13231  -2.862   7.999   5.731 -3.6665  1.0242 -1.2831
  858MOL0     H13232  -3.031   7.944   5.912 -3.5897 -0.9907  0.5144
  858MOL0     H13233  -3.097   7.815   5.814  0.0673  0.5513 -2.5305
  858MOL0     H13234  -3.100   8.110   5.771 -1.0636  0.6148  0.5715
  858MOL0     H13235  -3.112   8.023   5.625 -0.9185  1.0016  0.4077
  858MOL0     H13236  -3.310   7.993   5.861 -0.9184 -0.6203 -0.1702
  858MOL0     H13237  -3.322   7.902   5.708  0.5728 -0.6004  0.7604
  858MOL0     H13238  -2.244   7.569   5.750 -1.5211 -3.1279  0.7190
  858MOL0     H13239  -2.028   7.450   5.771  1.7598  0.0233  0.4457
  858MOL0     H13240  -1.791   7.165   6.265 -0.4411 -0.8924  0.0388
  858MOL0     H13241  -1.601   7.056   6.307 -3.6181 -2.9848 -4.1791
  858MOL0     H13242   0.428   6.320   6.632  0.7800  0.1408 -2.8056
  858MOL0     H13243   0.673   6.411   6.566  1.7563  2.0891 -1.2382
  858MOL0     H13244   1.029   6.584   6.873  0.3165  1.0418  1.3535
  858MOL0     H13245   1.274   6.608   6.820  0.9889  0.1566 -0.6089
  858MOL0     H13246   1.368   6.868   6.525 -0.3866 -0.6196  0.1439
  858MOL0     H13247   1.432   6.744   6.419  0.4124  0.4224  0.0423
  858MOL0     H13248   1.583   6.923   6.500 -4.0627 -0.8067 -2.3211
  858MOL0     H13249   1.567   6.861   6.666 -4.5859  1.4272  0.0465
  858MOL0     H13250   1.701   6.737   6.426  0.7805 -1.4986 -0.0575
  858MOL0     H13251   1.643   6.628   6.560 -1.9784  1.5506  1.7648
  858MOL0     H13252   1.870   6.826   6.542  2.9561  0.1755  0.7969
  858MOL0     H13253   1.824   6.765   6.702  1.9314  0.7374  0.3167
  858MOL0     H13254   2.029   6.433   6.567  0.2336  0.9352 -0.9902
  858MOL0     H13255   1.177   6.792   6.444 -0.8663 -2.3968 -0.8880
  858MOL0     H13256   0.942   6.767   6.489  1.2527  0.8460 -1.2614
  859MOL0     O13257   4.447   1.177   1.565  0.1959 -0.1728 -0.5965
  859MOL0     C13258   4.442   1.159   1.446  0.1171 -0.1236  0.3683
  859MOL0     O13259   4.333   1.168   1.369  0.4633  0.5497 -0.2202
  859MOL0     C13260   4.207   1.181   1.430  0.4922  1.2072 -0.5019
  859MOL0     C13261   4.099   1.112   1.367 -0.4290 -0.1676  0.3714
  859MOL0     C13262   3.972   1.120   1.413  0.5426 -0.0032 -0.3033
  859MOL0     C13263   3.940   1.196   1.530 -0.6462  0.2325  0.8950
  859MOL0     O13264   3.815   1.218   1.586 -0.7964 -0.6843 -0.0987
  859MOL0     C13265   3.707   1.137   1.540 -0.9142 -0.2926  0.0774
  859MOL0     C13266   3.589   1.125   1.643  0.1363 -0.1276  0.3108
  859MOL0     C13267   3.457   1.111   1.565 -0.1806  0.9699  0.7845
  859MOL0     C13268   3.335   1.138   1.651  0.2160  0.3249 -0.8965
  859MOL0     C13269   3.197   1.094   1.582 -0.8642  0.4134 -0.1373
  859MOL0     C13270   3.089   1.150   1.670  0.8141  0.8646 -0.1717
  859MOL0     C13271   2.950   1.139   1.596 -0.2665 -0.2577  0.1154
  859MOL0     C13272   2.835   1.214   1.661 -0.2334 -0.1289  1.1838
  859MOL0     N13273   2.712   1.197   1.582  0.3015 -0.5164  0.2483
  859MOL0     C13274   2.617   1.292   1.595  0.5181  0.8446  0.0012
  859MOL0     C13275   2.504   1.227   1.549  0.1120  0.0189  0.3807
  859MOL0     C13276   2.376   1.303   1.540 -0.0609  0.4172 -0.4238
  859MOL0     C13277   2.309   1.292   1.681  0.0050 -0.0666 -0.3812
  859MOL0     C13278   2.250   1.160   1.724  1.0771  0.1687  0.0044
  859MOL0     C13279   2.178   1.164   1.866 -0.5478 -0.5030  0.3477
  859MOL0     O13280   2.060   1.251   1.848  0.5394 -0.1324 -0.1049
  859MOL0     C13281   1.971   1.250   1.949  0.1893  0.7361 -0.8278
  859MOL0     C13282   1.846   1.311   1.928 -0.1217  0.0608 -0.3684
  859MOL0     C13283   1.747   1.310   2.037  0.4615  0.7690  0.1106
  859MOL0     C13284   1.769   1.227   2.152 -0.4681 -0.8401  0.1144
  859MOL0     C13285   1.673   1.229   2.270  0.3655 -0.5245  0.4632
  859MOL0     O13286   1.691   1.123   2.352 -0.5060  0.5527 -0.4653
  859MOL0     C13287   1.607   1.103   2.462  0.3423 -0.5847  0.0479
  859MOL0     C13288   1.522   1.194   2.528 -0.2831  0.2261 -0.8385
  859MOL0     C13289   1.436   1.155   2.636  0.3179  0.2344  0.0097
  859MOL0     C13290   1.438   1.028   2.689 -0.0374  0.6609 -0.6013
  859MOL0     O13291   1.354   0.983   2.790 -0.3945  0.0587  0.4714
  859MOL0     C13292   1.248   1.073   2.840 -0.1090  0.6859  0.8532
  859MOL0     C13293   1.179   1.029   2.969  0.2022  0.1478 -0.1317
  859MOL0     C13294   1.055   1.118   2.993  0.6638  0.2010 -0.2796
  859MOL0     C13295   0.954   1.055   3.087 -0.1263  0.3402  0.5570
  859MOL0     C13296   0.814   1.112   3.071 -0.0594 -0.1514  0.3926
  859MOL0     C13297   0.722   1.025   3.152  0.4550 -0.3783 -0.4382
  859MOL0     C13298   0.578   1.086   3.132 -0.3235 -0.1734 -0.6029
  859MOL0     C13299   0.500   1.085   3.263 -0.1372  0.1980 -0.1747
  859MOL0    Cl13300   0.445   0.922   3.325  0.1662 -0.2340 -0.2436
  859MOL0     C13301   1.528   0.937   2.638 -0.5884 -0.0483  0.0793
  859MOL0     C13302   1.604   0.974   2.523  0.4106  0.9673 -0.3749
  859MOL0     O13303   1.579   1.301   2.269  0.6646 -0.1831 -0.0444
  859MOL0     C13304   1.890   1.170   2.170  0.5437 -0.1296  0.0786
  859MOL0     C13305   1.989   1.178   2.073 -0.2788  0.4412  0.6216
  859MOL0     N13306   2.531   1.096   1.531  0.3799  0.6293  0.3716
  859MOL0     N13307   2.663   1.076   1.548  0.1540 -0.2096 -0.3452
  859MOL0     C13308   4.048   1.252   1.596  0.2392 -1.2177 -0.1464
  859MOL0     C13309   4.175   1.251   1.545  0.1877  0.0846 -0.7875
  859MOL0     C13310   4.567   1.114   1.375 -0.0287  0.1122 -0.8197
  859MOL0     C13311   4.566   1.044   1.252 -1.4181  0.1577  0.1105
  859MOL0     C13312   4.680   1.005   1.182 -0.8734  0.3916  0.3045
  859MOL0     C13313   4.805   1.017   1.242  0.4246 -0.5596  0.2311
  859MOL0     O13314   4.909   0.974   1.172 -0.3821 -0.6040  0.6032
  859MOL0     C13315   5.033   0.978   1.243  0.5677 -0.8821  0.5000
  859MOL0     C13316   5.138   0.919   1.149  0.1568 -0.1202 -1.2356
  859MOL0     C13317   5.282   0.938   1.208  0.2199 -0.8590  0.4270
  859MOL0     C13318   5.301   0.876   1.341 -0.1349  0.3646  0.2980
  859MOL0     C13319   5.443   0.873   1.375  0.0137 -0.0022 -0.8261
  859MOL0     C13320   5.566   0.870   1.395 -0.3145  0.3347  0.5338
  859MOL0     C13321   4.810   1.078   1.371 -0.0165 -0.4761  0.3577
  859MOL0     C13322   4.695   1.131   1.441 -0.3890  0.4632  0.4267
  859MOL0     H13323   4.125   1.054   1.279  3.0181  0.9845  0.4809
  859MOL0     H13324   3.896   1.067   1.355  0.2049  0.7125 -0.5206
  859MOL0     H13325   3.738   1.035   1.517 -0.1152  0.4520 -2.4260
  859MOL0     H13326   3.670   1.191   1.453  0.0911  1.1127  0.4697
  859MOL0     H13327   3.579   1.211   1.710 -0.9731 -2.2189  3.0423
  859MOL0     H13328   3.608   1.037   1.706  0.4363  0.8423  1.6320
  859MOL0     H13329   3.442   1.012   1.522  1.8655  0.1944  1.6992
  859MOL0     H13330   3.461   1.181   1.481 -0.4062  0.6301  0.4930
  859MOL0     H13331   3.350   1.091   1.749  0.4599  1.5108 -0.3472
  859MOL0     H13332   3.324   1.245   1.670 -3.1419  0.2615 -1.8247
  859MOL0     H13333   3.186   0.986   1.570  1.4480  0.0393  0.6191
  859MOL0     H13334   3.184   1.139   1.483 -0.3327  0.3773 -0.2311
  859MOL0     H13335   3.111   1.256   1.685 -1.5363  1.5039 -0.7203
  859MOL0     H13336   3.086   1.113   1.773  2.3881  3.1807  0.7851
  859MOL0     H13337   2.961   1.165   1.490  0.7930  1.8993  0.7044
  859MOL0     H13338   2.926   1.032   1.600 -0.9461 -0.1378 -0.5178
  859MOL0     H13339   2.860   1.321   1.664 -0.9161  0.0204  1.6290
  859MOL0     H13340   2.809   1.176   1.760  0.7075 -0.0168  1.4868
  859MOL0     H13341   2.624   1.393   1.632  1.3213 -0.0706  2.5629
  859MOL0     H13342   2.305   1.260   1.469  0.4611  1.8012 -1.8186
  859MOL0     H13343   2.395   1.403   1.501 -4.6194  2.0895  1.0398
  859MOL0     H13344   2.231   1.369   1.682 -0.6774 -0.7455  0.6781
  859MOL0     H13345   2.387   1.318   1.754  0.7381 -3.2019  0.0925
  859MOL0     H13346   2.183   1.115   1.650 -0.0623 -0.8835  1.6198
  859MOL0     H13347   2.339   1.096   1.726  0.7079 -0.3583 -0.2430
  859MOL0     H13348   2.252   1.192   1.941 -0.8402 -2.2167  1.3357
  859MOL0     H13349   2.143   1.064   1.892  1.7816 -1.2841  0.7534
  859MOL0     H13350   1.842   1.374   1.840 -0.4285  1.3946  0.5604
  859MOL0     H13351   1.654   1.365   2.024  0.9354  1.3139 -1.1318
  859MOL0     H13352   1.519   1.299   2.502 -0.8986  0.1576 -1.0421
  859MOL0     H13353   1.368   1.229   2.676  0.2048  0.5242 -0.7153
  859MOL0     H13354   1.171   1.067   2.763  1.3557  2.6390 -0.8569
  859MOL0     H13355   1.287   1.174   2.855  0.2713  0.8343 -0.9586
  859MOL0     H13356   1.242   1.033   3.058 -1.4965 -0.1117  1.1222
  859MOL0     H13357   1.142   0.927   2.955  0.1219  0.3098 -1.2239
  859MOL0     H13358   1.002   1.150   2.903 -0.1075  1.8336  0.6939
  859MOL0     H13359   1.088   1.204   3.053 -0.6458 -0.5886  1.6959
  859MOL0     H13360   0.949   0.947   3.070 -0.1029  0.3573  0.4405
  859MOL0     H13361   1.001   1.070   3.185  0.7906 -1.9571  0.5351
  859MOL0     H13362   0.789   1.104   2.965  2.0551 -0.6546 -0.1362
  859MOL0     H13363   0.813   1.212   3.115  0.2042  0.0159  0.0260
  859MOL0     H13364   0.754   1.042   3.255 -1.7160  0.1569  0.1979
  859MOL0     H13365   0.710   0.921   3.122  0.0275 -0.6279  0.5569
  859MOL0     H13366   0.583   1.189   3.096 -0.9493  0.6084  1.3957
  859MOL0     H13367   0.521   1.038   3.052 -1.5954  3.3343 -1.9597
  859MOL0     H13368   0.404   1.133   3.238  0.5144  0.5163 -2.3182
  859MOL0     H13369   0.557   1.146   3.333  1.8560  0.6537 -2.0886
  859MOL0     H13370   1.532   0.838   2.683 -3.5274 -1.4648 -2.4158
  859MOL0     H13371   1.672   0.896   2.492  0.8070 -0.7555  4.0811
  859MOL0     H13372   1.902   1.102   2.254  1.2941 -1.3571 -0.9728
  859MOL0     H13373   2.078   1.119   2.095  0.6630  0.2269 -3.0322
  859MOL0     H13374   4.039   1.308   1.689  0.9775 -0.0588 -0.7497
  859MOL0     H13375   4.250   1.309   1.597 -0.9412 -1.0325  2.3345
  859MOL0     H13376   4.470   1.027   1.205 -0.2505 -0.7907 -2.0365
  859MOL0     H13377   4.687   0.960   1.084  2.9515 -0.7439  0.9145
  859MOL0     H13378   5.026   0.927   1.339 -0.2385  2.1760  2.2097
  859MOL0     H13379   5.048   1.084   1.264  0.6395 -1.4352  3.6600
  859MOL0     H13380   5.118   0.812   1.161  2.2787 -0.4544 -0.2301
  859MOL0     H13381   5.128   0.949   1.044  0.2358 -0.5223 -1.3591
  859MOL0     H13382   5.293   1.046   1.211 -0.9547 -0.6999 -0.4994
  859MOL0     H13383   5.355   0.894   1.139  1.5651 -0.1619  1.3585
  859MOL0     H13384   5.258   0.936   1.422  0.2856  1.7255 -0.4743
  859MOL0     H13385   5.263   0.773   1.338 -1.9024  0.9712  0.7436
  859MOL0     H13386   5.658   0.819   1.416 -0.4198 -0.1625 -0.1567
  859MOL0     H13387   4.899   1.093   1.430  1.2376  0.1334 -1.6048
  859MOL0     H13388   4.705   1.165   1.543  3.9228 -1.8790  1.0178
  860MOL0     O13389   0.739   6.029   5.067  0.3368 -0.6148  0.2265
  860MOL0     C13390   0.786   6.033   5.179  0.0910 -1.1508  0.2769
  860MOL0     O13391   0.726   6.062   5.292  0.7325  0.5836 -0.0300
  860MOL0     C13392   0.590   6.054   5.302 -0.0575  0.5128 -0.1878
  860MOL0     C13393   0.541   6.123   5.421  0.2622  0.8285  0.3773
  860MOL0     C13394   0.403   6.111   5.447  1.3739 -0.9488  0.4623
  860MOL0     C13395   0.315   6.032   5.364  0.2450  0.5568  0.1295
  860MOL0     O13396   0.175   6.016   5.383 -0.0310  1.0652 -0.2288
  860MOL0     C13397   0.119   6.085   5.494 -0.2913 -0.3244 -0.1475
  860MOL0     C13398  -0.029   6.053   5.510 -0.3537 -0.1347  0.1099
  860MOL0     C13399  -0.101   6.150   5.597  0.7125  0.7212  0.1532
  860MOL0     C13400  -0.257   6.121   5.594 -0.4781 -0.4971  0.8793
  860MOL0     C13401  -0.341   6.236   5.657  0.2633  0.7508 -0.3801
  860MOL0     C13402  -0.489   6.221   5.624 -0.7289 -0.2918 -0.1832
  860MOL0     C13403  -0.569   6.342   5.671  1.2479  0.1276 -0.0767
  860MOL0     C13404  -0.722   6.334   5.645  0.3904  0.2503  0.7800
  860MOL0     N13405  -0.799   6.441   5.719  0.0437 -0.5156  0.1898
  860MOL0     C13406  -0.866   6.438   5.837 -0.8403  0.1747  0.8875
  860MOL0     C13407  -0.923   6.558   5.859 -1.0044 -0.2039 -0.3390
  860MOL0     C13408  -1.005   6.597   5.974 -0.2366 -0.4691  0.6133
  860MOL0     C13409  -1.139   6.656   5.930  0.4605  0.5357  0.6796
  860MOL0     C13410  -1.213   6.712   6.052  0.3812 -0.2455 -0.3316
  860MOL0     C13411  -1.350   6.757   6.001  0.1564  0.3554  1.1639
  860MOL0     O13412  -1.349   6.866   5.896  0.6041  0.0136 -0.4726
  860MOL0     C13413  -1.474   6.898   5.849 -0.7265  0.0160 -0.4460
  860MOL0     C13414  -1.477   6.948   5.717 -0.1985 -0.8006  0.4206
  860MOL0     C13415  -1.585   6.998   5.646  0.6328 -0.0015  0.3636
  860MOL0     C13416  -1.710   7.001   5.713  0.6633 -0.2743 -1.2486
  860MOL0     C13417  -1.836   7.055   5.659 -0.4669 -0.2587  0.8899
  860MOL0     O13418  -1.948   7.014   5.723 -0.4963  0.0627  0.0047
  860MOL0     C13419  -2.062   7.085   5.681  0.0658  0.0832 -0.0712
  860MOL0     C13420  -2.128   7.148   5.783 -0.0436  0.5263 -0.5360
  860MOL0     C13421  -2.238   7.232   5.754 -0.2888 -0.1194  0.2842
  860MOL0     C13422  -2.278   7.248   5.619 -0.6819 -0.7355  0.1555
  860MOL0     O13423  -2.375   7.345   5.597  0.1408 -0.0204 -0.0710
  860MOL0     C13424  -2.447   7.341   5.468 -0.6542  0.2151  0.1854
  860MOL0     C13425  -2.539   7.463   5.450 -0.7555  0.7742  0.4875
  860MOL0     C13426  -2.609   7.441   5.315  0.1972 -0.1991  1.0583
  860MOL0     C13427  -2.727   7.536   5.300  0.0712 -1.0448  0.4422
  860MOL0     C13428  -2.851   7.485   5.390 -0.4183  0.4423  0.5404
  860MOL0     C13429  -2.994   7.538   5.348 -0.4303  0.5773  0.6837
  860MOL0     C13430  -2.995   7.688   5.368  0.1238  0.0771  0.6075
  860MOL0     C13431  -3.144   7.730   5.349 -0.6680 -0.3511  0.3958
  860MOL0    Cl13432  -3.133   7.896   5.379  0.4020 -0.3821 -0.0901
  860MOL0     C13433  -2.217   7.177   5.516 -1.1440  0.5609  0.9753
  860MOL0     C13434  -2.115   7.088   5.548  1.1417  0.1968  0.2521
  860MOL0     O13435  -1.829   7.127   5.561 -0.1379  0.2635 -0.0973
  860MOL0     C13436  -1.716   6.941   5.849  0.0394  0.0139 -0.3585
  860MOL0     C13437  -1.598   6.880   5.907  0.0892  0.3567  0.0862
  860MOL0     N13438  -0.898   6.635   5.748 -0.5617 -0.1394  0.5840
  860MOL0     N13439  -0.833   6.567   5.663 -0.6886  0.3405  0.0704
  860MOL0     C13440   0.373   5.954   5.268  0.3758  0.0929  0.3202
  860MOL0     C13441   0.506   5.975   5.228  0.1845 -0.1406  0.2254
  860MOL0     C13442   0.932   6.035   5.189 -0.2457  0.8721  0.0005
  860MOL0     C13443   1.007   6.000   5.075 -0.6116  0.0297 -0.3314
  860MOL0     C13444   1.147   6.003   5.067  0.0988  0.0084  0.3122
  860MOL0     C13445   1.217   6.025   5.190 -0.2001 -0.6045 -0.2629
  860MOL0     O13446   1.349   6.023   5.195 -1.1085 -0.0047  0.1597
  860MOL0     C13447   1.427   5.982   5.075 -0.1844  0.7690 -0.8755
  860MOL0     C13448   1.557   5.902   5.114 -0.1814  0.1979  0.1872
  860MOL0     C13449   1.520   5.772   5.191 -0.1500  0.0731 -0.0663
  860MOL0     C13450   1.485   5.785   5.342 -0.4712  0.5029  1.3350
  860MOL0     C13451   1.609   5.831   5.413 -0.2104  0.8373 -0.0478
  860MOL0     C13452   1.715   5.847   5.468  0.0287 -0.6477  0.3310
  860MOL0     C13453   1.146   6.068   5.307 -0.4604 -0.3859  0.4407
  860MOL0     C13454   1.011   6.070   5.306 -0.3165  0.6361  0.5292
  860MOL0     H13455   0.606   6.167   5.496  0.0622 -0.3324  1.2647
  860MOL0     H13456   0.366   6.169   5.531 -1.9825 -1.3654 -0.6131
  860MOL0     H13457   0.126   6.193   5.477  0.4818  0.0540  2.1763
  860MOL0     H13458   0.174   6.058   5.585  1.4309 -1.2364 -1.4039
  860MOL0     H13459  -0.032   5.950   5.547  1.6648 -1.1296 -2.2313
  860MOL0     H13460  -0.081   6.051   5.414 -0.4316 -2.4579  0.1460
  860MOL0     H13461  -0.084   6.253   5.562 -0.6452 -0.0566 -3.1643
  860MOL0     H13462  -0.090   6.139   5.706 -2.5130  0.6263  0.5740
  860MOL0     H13463  -0.294   6.100   5.493 -0.5387  2.0144  0.3079
  860MOL0     H13464  -0.282   6.029   5.647  0.8795 -1.2249  0.3356
  860MOL0     H13465  -0.303   6.329   5.612  0.1455  1.5592  1.1158
  860MOL0     H13466  -0.319   6.242   5.764  0.5025  2.2127 -0.4933
  860MOL0     H13467  -0.531   6.132   5.673 -1.4306  0.6219  0.9267
  860MOL0     H13468  -0.497   6.201   5.517 -1.1797 -0.2275 -0.1630
  860MOL0     H13469  -0.555   6.355   5.779 -1.3361  3.5608  0.0278
  860MOL0     H13470  -0.525   6.425   5.616  5.6478 -1.4784  0.6303
  860MOL0     H13471  -0.766   6.236   5.668  0.8595 -0.8235 -2.4418
  860MOL0     H13472  -0.738   6.349   5.538  0.6940  0.2268  0.7319
  860MOL0     H13473  -0.890   6.348   5.893  1.3064  0.8549  3.0793
  860MOL0     H13474  -0.952   6.671   6.034 -0.1731 -0.9523  1.1577
  860MOL0     H13475  -1.027   6.509   6.034  1.7367 -1.6213 -0.2932
  860MOL0     H13476  -1.195   6.581   5.874  1.3604  1.0322 -0.9478
  860MOL0     H13477  -1.127   6.731   5.852  0.0907  0.1246  0.2241
  860MOL0     H13478  -1.234   6.629   6.119  0.1069 -2.2508 -2.7787
  860MOL0     H13479  -1.157   6.801   6.083  0.4689  0.0042 -1.1697
  860MOL0     H13480  -1.417   6.787   6.082 -2.1625  1.0609 -0.8806
  860MOL0     H13481  -1.395   6.667   5.959  2.0247 -1.0317  1.9871
  860MOL0     H13482  -1.378   6.961   5.674  0.5339  0.0278  2.2497
  860MOL0     H13483  -1.578   7.029   5.542 -0.4550 -2.1632 -0.4178
  860MOL0     H13484  -2.100   7.134   5.887 -2.8243 -0.1206  0.2113
  860MOL0     H13485  -2.288   7.274   5.840 -0.4540  1.2977 -0.4629
  860MOL0     H13486  -2.506   7.249   5.463  0.6963 -0.7106  0.4959
  860MOL0     H13487  -2.379   7.347   5.382 -2.1619 -2.2450 -1.3101
  860MOL0     H13488  -2.477   7.554   5.453  1.3709 -0.5880 -0.1121
  860MOL0     H13489  -2.605   7.446   5.535  0.0303  3.0639  1.6556
  860MOL0     H13490  -2.649   7.341   5.296  0.1554  0.4601 -3.5041
  860MOL0     H13491  -2.535   7.462   5.237 -0.7058  3.1475  0.9437
  860MOL0     H13492  -2.696   7.637   5.325  2.4507 -1.3089 -1.0701
  860MOL0     H13493  -2.757   7.540   5.195  2.9742 -1.4597 -0.4978
  860MOL0     H13494  -2.840   7.496   5.498  1.3205 -1.4018  0.6160
  860MOL0     H13495  -2.859   7.377   5.372 -0.6818  0.7307 -1.3477
  860MOL0     H13496  -3.072   7.491   5.409  0.9237 -0.3056  1.7997
  860MOL0     H13497  -3.009   7.521   5.241  0.2856  0.3958  0.6068
  860MOL0     H13498  -2.959   7.710   5.469 -0.6033  1.5152  0.5862
  860MOL0     H13499  -2.934   7.739   5.293 -0.5473 -1.4021 -1.0094
  860MOL0     H13500  -3.210   7.683   5.423  0.9814 -0.4401  1.8859
  860MOL0     H13501  -3.173   7.712   5.246 -0.1045  1.0306 -0.0340
  860MOL0     H13502  -2.249   7.183   5.412 -0.8468 -1.6557  0.7058
  860MOL0     H13503  -2.079   7.027   5.465  1.6478 -0.3636  0.8734
  860MOL0     H13504  -1.808   6.937   5.906  0.9370  1.9406  1.3727
  860MOL0     H13505  -1.610   6.841   6.007 -0.5253  1.0222  0.2803
  860MOL0     H13506   0.313   5.880   5.216  0.5771 -0.0002  0.2201
  860MOL0     H13507   0.539   5.916   5.143 -0.7193  2.4890 -2.0857
  860MOL0     H13508   0.954   5.973   4.985 -1.9209 -1.5273  0.8411
  860MOL0     H13509   1.190   5.981   4.969 -0.5025 -2.8079  0.5994
  860MOL0     H13510   1.445   6.066   5.007  0.4522  0.3370 -1.2546
  860MOL0     H13511   1.371   5.905   5.021 -1.2451  0.4219  0.6523
  860MOL0     H13512   1.594   5.872   5.015 -0.0805  2.4869 -0.5250
  860MOL0     H13513   1.635   5.963   5.159  0.1220  1.1679 -1.5542
  860MOL0     H13514   1.607   5.706   5.185  0.0873  0.5106 -2.1506
  860MOL0     H13515   1.446   5.723   5.126  0.8658  2.7001 -3.4932
  860MOL0     H13516   1.403   5.855   5.363 -0.7524 -0.2188  2.7195
  860MOL0     H13517   1.447   5.688   5.375 -1.6697 -0.0001 -1.2692
  860MOL0     H13518   1.798   5.869   5.533  0.7941 -2.5278  0.0343
  860MOL0     H13519   1.205   6.099   5.392  3.1151  0.4848 -2.1445
  860MOL0     H13520   0.954   6.092   5.396 -3.2379 -1.3749 -0.6549
  861MOL0     O13521   2.616   2.414   0.742 -0.0116 -0.3445 -0.5585
  861MOL0     C13522   2.591   2.294   0.722  0.8562  0.8406  0.4265
  861MOL0     O13523   2.468   2.236   0.741 -0.1481 -0.9483  0.2437
  861MOL0     C13524   2.352   2.314   0.748  0.4498  0.4379 -0.3692
  861MOL0     C13525   2.236   2.257   0.703  0.7054  0.4294  0.6904
  861MOL0     C13526   2.112   2.321   0.706  0.0437 -0.3248 -0.0114
  861MOL0     C13527   2.091   2.454   0.740 -0.5173  0.2190 -0.4861
  861MOL0     O13528   1.980   2.526   0.726  0.1464  0.0438 -0.4359
  861MOL0     C13529   1.852   2.475   0.677  0.1786  0.2171  0.1400
  861MOL0     C13530   1.736   2.563   0.720 -0.2078 -0.1797 -0.5144
  861MOL0     C13531   1.627   2.562   0.613  0.1207  0.3909 -0.2251
  861MOL0     C13532   1.508   2.640   0.663  0.2975  0.3878  0.1461
  861MOL0     C13533   1.403   2.669   0.553  0.3570  0.3133 -0.9195
  861MOL0     C13534   1.320   2.553   0.490 -0.5916  0.2399 -0.1283
  861MOL0     C13535   1.231   2.478   0.583  1.0900 -0.6235 -0.7334
  861MOL0     C13536   1.115   2.556   0.647 -0.2320 -0.2132  0.0395
  861MOL0     N13537   1.037   2.628   0.547  0.5584  0.0012  0.3748
  861MOL0     C13538   0.917   2.588   0.494 -0.2343 -0.0527 -0.3244
  861MOL0     C13539   0.910   2.650   0.382  0.5551  0.3362  0.4750
  861MOL0     C13540   0.810   2.616   0.276  0.8521 -0.0069  0.2535
  861MOL0     C13541   0.663   2.651   0.322  0.0235 -0.0777 -0.0710
  861MOL0     C13542   0.631   2.784   0.382 -0.5148  0.7712  0.3807
  861MOL0     C13543   0.647   2.899   0.283  0.2899  0.4549 -0.2516
  861MOL0     O13544   0.563   2.901   0.162  0.9294  0.2954 -0.1839
  861MOL0     C13545   0.429   2.922   0.169 -0.5737  0.3720 -0.2528
  861MOL0     C13546   0.361   2.909   0.045 -0.0394 -0.0080 -0.1850
  861MOL0     C13547   0.229   2.952   0.029 -0.5500  0.3089 -0.7000
  861MOL0     C13548   0.158   3.000   0.140 -0.6605 -0.1115 -0.5266
  861MOL0     C13549   0.015   3.032   0.136  0.4606  0.5075  0.5496
  861MOL0     O13550  -0.044   3.083   0.251 -0.1903  0.1454 -0.7258
  861MOL0     C13551  -0.177   3.113   0.265 -0.2062 -0.9172  0.6068
  861MOL0     C13552  -0.285   3.057   0.195  0.9302 -0.2260 -0.2147
  861MOL0     C13553  -0.408   3.113   0.201 -0.0516  0.6660  0.0285
  861MOL0     C13554  -0.427   3.219   0.291  0.1046  0.2722 -0.5551
  861MOL0     O13555  -0.556   3.260   0.331 -0.6593 -1.3008 -0.2175
  861MOL0     C13556  -0.595   3.194   0.454  0.5064  0.3250 -0.5394
  861MOL0     C13557  -0.739   3.194   0.489  0.8352  0.1342  0.2158
  861MOL0     C13558  -0.802   3.331   0.480 -0.1461 -0.3459  0.6478
  861MOL0     C13559  -0.950   3.334   0.512 -0.2779  0.3853 -0.7861
  861MOL0     C13560  -1.054   3.311   0.396  0.0762  0.4626  0.7658
  861MOL0     C13561  -1.203   3.322   0.425 -0.3809 -0.9222  0.0718
  861MOL0     C13562  -1.279   3.341   0.288  0.0638  0.6215 -0.1448
  861MOL0     C13563  -1.432   3.327   0.324  0.3801  0.2112 -0.1455
  861MOL0    Cl13564  -1.468   3.479   0.398  0.0704 -0.7136  0.3356
  861MOL0     C13565  -0.320   3.274   0.363  1.3860 -1.1570 -0.2319
  861MOL0     C13566  -0.198   3.230   0.344  0.1008 -0.2850  0.4335
  861MOL0     O13567  -0.047   3.025   0.030 -0.4721  0.7329  0.0214
  861MOL0     C13568   0.220   2.989   0.269 -0.5906 -0.0631 -0.1760
  861MOL0     C13569   0.353   2.951   0.285 -0.2998  0.0276 -0.2356
  861MOL0     N13570   1.016   2.741   0.367  0.4843  0.0680  0.0994
  861MOL0     N13571   1.084   2.734   0.473  0.7708 -0.7874 -0.0121
  861MOL0     C13572   2.207   2.515   0.789 -1.1754 -0.7145 -0.3571
  861MOL0     C13573   2.330   2.445   0.796 -0.3709 -1.1594 -0.6075
  861MOL0     C13574   2.688   2.194   0.678  0.2610  0.1366 -0.4747
  861MOL0     C13575   2.662   2.060   0.650  0.4743  0.4664  0.0697
  861MOL0     C13576   2.761   1.969   0.610 -1.0393  0.3098  0.1028
  861MOL0     C13577   2.898   2.004   0.616  0.0915 -0.0029  0.2814
  861MOL0     O13578   2.976   1.892   0.585  0.0104 -0.8087  0.0329
  861MOL0     C13579   3.115   1.884   0.619 -0.5804  0.7497 -0.2510
  861MOL0     C13580   3.200   1.956   0.522  0.1585 -0.0933  0.2699
  861MOL0     C13581   3.344   1.932   0.550 -0.1305  0.2113  0.7888
  861MOL0     C13582   3.400   1.786   0.515  0.9922  0.1567  0.0727
  861MOL0     C13583   3.365   1.752   0.376 -0.1140  0.1809  1.6286
  861MOL0     C13584   3.328   1.738   0.257 -0.2986 -0.3138 -0.2319
  861MOL0     C13585   2.928   2.135   0.639 -0.2317 -0.5729 -0.1110
  861MOL0     C13586   2.821   2.231   0.663 -0.0915 -0.0707 -0.0755
  861MOL0     H13587   2.240   2.152   0.677 -0.0771  0.2413  1.3178
  861MOL0     H13588   2.027   2.265   0.670 -1.7277 -0.2435  3.6221
  861MOL0     H13589   1.835   2.376   0.719 -2.7990  0.1138 -1.0970
  861MOL0     H13590   1.848   2.482   0.568  2.5938  2.2825  0.0720
  861MOL0     H13591   1.757   2.671   0.724  0.1782 -0.1371 -2.6187
  861MOL0     H13592   1.693   2.533   0.816  0.5467  1.3958  0.3628
  861MOL0     H13593   1.606   2.457   0.590  3.0488 -0.3147 -0.0621
  861MOL0     H13594   1.648   2.613   0.518  1.5645  4.3121  1.9881
  861MOL0     H13595   1.453   2.588   0.741  0.7693  0.2678  0.4005
  861MOL0     H13596   1.545   2.735   0.704  2.1251 -0.6665  1.0723
  861MOL0     H13597   1.458   2.716   0.471  0.9894  2.0574  0.4299
  861MOL0     H13598   1.330   2.742   0.589  0.8792  0.7793 -0.7880
  861MOL0     H13599   1.379   2.472   0.446  0.6386  0.7444  0.5516
  861MOL0     H13600   1.263   2.596   0.406 -0.0782 -1.1005 -1.1943
  861MOL0     H13601   1.182   2.396   0.530  2.1804 -1.3993 -0.5651
  861MOL0     H13602   1.288   2.433   0.664  1.6292  2.4025  0.6962
  861MOL0     H13603   1.168   2.632   0.704 -1.9230 -0.3894  1.9939
  861MOL0     H13604   1.044   2.496   0.706 -2.4457  2.3502  0.1633
  861MOL0     H13605   0.848   2.508   0.518 -1.2639  1.5856  2.8211
  861MOL0     H13606   0.824   2.513   0.242 -0.9570  0.4260 -2.0773
  861MOL0     H13607   0.834   2.688   0.197  0.2595  0.0318  0.1004
  861MOL0     H13608   0.625   2.573   0.389  1.0612  0.1193  0.7748
  861MOL0     H13609   0.603   2.647   0.230  1.9863 -1.4651 -1.3567
  861MOL0     H13610   0.531   2.799   0.424 -1.0448  0.1027 -0.6005
  861MOL0     H13611   0.688   2.800   0.474 -0.6739  1.1704  0.4122
  861MOL0     H13612   0.751   2.893   0.249  0.0816 -0.0133 -0.8202
  861MOL0     H13613   0.640   2.991   0.343  3.7038  1.2133 -0.8073
  861MOL0     H13614   0.404   2.878  -0.050 -0.8305  1.8535 -1.2175
  861MOL0     H13615   0.184   2.940  -0.069  1.6560 -2.6748 -1.4996
  861MOL0     H13616  -0.264   2.978   0.123  1.7421  0.2254 -0.4866
  861MOL0     H13617  -0.481   3.063   0.137  0.8127 -2.6233  1.4013
  861MOL0     H13618  -0.545   3.234   0.543 -0.3672 -1.1084  0.6314
  861MOL0     H13619  -0.555   3.092   0.448 -1.3754 -0.5177  0.5849
  861MOL0     H13620  -0.760   3.155   0.589 -1.5370  1.5685  0.3470
  861MOL0     H13621  -0.785   3.124   0.418 -0.3158  2.8001 -1.8853
  861MOL0     H13622  -0.797   3.376   0.380  0.3440 -0.2189  0.7272
  861MOL0     H13623  -0.755   3.401   0.550  0.3045  1.2163 -1.1274
  861MOL0     H13624  -0.970   3.272   0.599 -0.4631  2.3108  0.6053
  861MOL0     H13625  -0.983   3.429   0.556  1.1199 -0.4063  2.1720
  861MOL0     H13626  -1.032   3.210   0.360 -1.6189 -0.4667  2.1988
  861MOL0     H13627  -1.037   3.385   0.317 -1.3574  2.1725  1.9944
  861MOL0     H13628  -1.226   3.410   0.487  0.6829 -0.3581 -0.2988
  861MOL0     H13629  -1.242   3.233   0.474 -0.4839  0.1518  2.0747
  861MOL0     H13630  -1.265   3.436   0.236  0.9975  0.3858 -0.3412
  861MOL0     H13631  -1.259   3.264   0.213  0.4421  1.9738 -1.4770
  861MOL0     H13632  -1.458   3.250   0.396 -1.0173  0.6694 -0.1256
  861MOL0     H13633  -1.487   3.307   0.232  0.4531 -1.4316  0.1396
  861MOL0     H13634  -0.339   3.355   0.433 -1.1185  1.6985 -3.8417
  861MOL0     H13635  -0.111   3.262   0.400  1.4973 -0.8352 -1.3380
  861MOL0     H13636   0.180   3.029   0.362  0.1336  0.2281  0.0231
  861MOL0     H13637   0.391   2.969   0.385  0.2370  0.4640 -0.5195
  861MOL0     H13638   2.201   2.620   0.816 -0.0058 -1.2662  2.3817
  861MOL0     H13639   2.412   2.497   0.844 -0.7625 -0.5156 -0.6207
  861MOL0     H13640   2.559   2.029   0.654 -0.4623  3.3504  1.0601
  861MOL0     H13641   2.723   1.874   0.574 -2.9959  0.9692  0.3225
  861MOL0     H13642   3.129   1.775   0.621 -2.7576  0.3957 -1.0726
  861MOL0     H13643   3.125   1.918   0.722 -0.1241 -1.0689  0.3444
  861MOL0     H13644   3.171   1.934   0.419 -1.9426  2.2328  0.2781
  861MOL0     H13645   3.183   2.063   0.535 -0.4382 -0.0372 -0.8795
  861MOL0     H13646   3.362   1.958   0.654 -0.2821  1.7930  0.4458
  861MOL0     H13647   3.406   2.004   0.497 -0.7511  0.7723  0.8099
  861MOL0     H13648   3.509   1.788   0.516  1.0071  2.2458 -0.3748
  861MOL0     H13649   3.360   1.712   0.585 -0.4089 -0.0568 -0.9146
  861MOL0     H13650   3.306   1.736   0.152 -1.2733  0.6757 -0.0568
  861MOL0     H13651   3.026   2.180   0.648 -0.6990  0.5042 -0.3056
  861MOL0     H13652   2.843   2.337   0.669  1.0262 -0.2867 -0.1116
  862MOL0     O13653   1.002   2.612   7.831  0.3678  0.5339 -0.4207
  862MOL0     C13654   1.052   2.578   7.722  0.3313 -0.2540 -0.2155
  862MOL0     O13655   0.987   2.574   7.596 -0.0820 -0.8149  0.5515
  862MOL0     C13656   0.854   2.608   7.576 -0.5339 -0.1829  0.2937
  862MOL0     C13657   0.770   2.678   7.680  0.2316 -0.4287  0.2537
  862MOL0     C13658   0.642   2.712   7.647  0.7021  0.3359  0.6529
  862MOL0     C13659   0.588   2.695   7.521  0.5224 -0.7703 -0.5997
  862MOL0     O13660   0.456   2.735   7.507  0.2010 -0.4920 -0.0031
  862MOL0     C13661   0.389   2.720   7.383  0.3277  0.5564  0.7204
  862MOL0     C13662   0.246   2.751   7.399  0.7420  0.7452  0.1935
  862MOL0     C13663   0.206   2.897   7.454  0.1489  0.3663 -0.2983
  862MOL0     C13664   0.048   2.903   7.455  0.0980  0.4135 -0.4428
  862MOL0     C13665  -0.010   3.032   7.523  0.8361  1.0017 -0.3205
  862MOL0     C13666  -0.018   3.150   7.418 -0.3346  0.1948 -0.0739
  862MOL0     C13667  -0.029   3.285   7.496  0.3296  0.8330  0.0488
  862MOL0     C13668  -0.034   3.396   7.401  0.0258 -0.2477  0.4796
  862MOL0     N13669   0.091   3.433   7.331  0.1584 -0.1772  0.3464
  862MOL0     C13670   0.215   3.451   7.394  0.1063  0.1301 -0.8661
  862MOL0     C13671   0.296   3.480   7.290 -0.2547 -0.4946  0.1938
  862MOL0     C13672   0.438   3.528   7.295 -0.2353 -0.1229 -0.1951
  862MOL0     C13673   0.543   3.453   7.381 -0.3187 -0.5577 -0.3825
  862MOL0     C13674   0.674   3.533   7.389  0.4194  0.5633  0.0925
  862MOL0     C13675   0.787   3.453   7.455 -0.3758 -0.1734  0.5451
  862MOL0     O13676   0.893   3.553   7.479 -0.0513  0.4195 -0.5316
  862MOL0     C13677   0.999   3.583   7.385 -0.5898  0.5780  0.0447
  862MOL0     C13678   1.015   3.550   7.253 -0.0905  0.3078 -0.3945
  862MOL0     C13679   1.129   3.593   7.175 -0.0935  0.7543  0.2468
  862MOL0     C13680   1.227   3.675   7.236  0.0764  0.5068  0.5856
  862MOL0     C13681   1.336   3.743   7.158 -0.2071  0.4751 -0.0278
  862MOL0     O13682   1.340   3.730   7.019  0.6570 -0.0331  0.1083
  862MOL0     C13683   1.433   3.804   6.947  0.1537 -0.3871  0.1760
  862MOL0     C13684   1.396   3.848   6.821  0.0578  0.1127  0.4865
  862MOL0     C13685   1.477   3.921   6.736 -0.2470 -0.7104 -0.5940
  862MOL0     C13686   1.611   3.941   6.770  0.0981  0.3409 -0.0628
  862MOL0     O13687   1.689   4.027   6.689  0.3489 -0.3784  0.2318
  862MOL0     C13688   1.830   4.013   6.676 -0.7837 -0.1218 -0.4710
  862MOL0     C13689   1.880   4.097   6.552  0.5223  0.5567  0.2495
  862MOL0     C13690   2.029   4.132   6.551 -0.9702  0.5777  0.6947
  862MOL0     C13691   2.131   4.017   6.533  0.5509  0.9509  0.5706
  862MOL0     C13692   2.278   4.068   6.551  0.5148  0.5042 -0.1311
  862MOL0     C13693   2.312   4.124   6.686 -0.4420 -0.7328  0.5695
  862MOL0     C13694   2.452   4.183   6.692  0.3601  0.3456 -0.1184
  862MOL0     C13695   2.481   4.281   6.805 -0.8221 -0.0120  0.2200
  862MOL0    Cl13696   2.536   4.190   6.946 -0.1524  0.1216  0.1315
  862MOL0     C13697   1.660   3.889   6.892 -0.0045 -0.2840 -0.8097
  862MOL0     C13698   1.568   3.817   6.977 -0.2064  0.2770 -0.3849
  862MOL0     O13699   1.408   3.816   7.222 -0.1465  0.0063 -0.1293
  862MOL0     C13700   1.215   3.702   7.376 -0.1293  0.0009  0.7489
  862MOL0     C13701   1.103   3.654   7.444  0.1175 -0.1440  0.4857
  862MOL0     N13702   0.229   3.451   7.173 -0.2479  0.4144  0.2716
  862MOL0     N13703   0.107   3.422   7.200 -0.8881  0.1824  0.4197
  862MOL0     C13704   0.668   2.641   7.422  0.1453 -0.1339  0.3620
  862MOL0     C13705   0.796   2.594   7.448 -0.1179 -0.1399 -0.0096
  862MOL0     C13706   1.200   2.553   7.709  0.9312 -0.2034 -0.3785
  862MOL0     C13707   1.256   2.528   7.591 -0.8171  0.4559 -0.1344
  862MOL0     C13708   1.392   2.514   7.583  0.0325 -0.7779  0.4206
  862MOL0     C13709   1.474   2.519   7.688  0.0672  0.0528 -0.6787
  862MOL0     O13710   1.604   2.488   7.694 -0.0298  0.1738  0.2148
  862MOL0     C13711   1.681   2.477   7.572 -0.4528  0.0279 -0.8249
  862MOL0     C13712   1.815   2.403   7.612 -0.4235 -0.9570  0.0825
  862MOL0     C13713   1.904   2.487   7.704  0.7793 -0.0249 -0.3767
  862MOL0     C13714   2.043   2.453   7.673 -0.8159  0.5536  0.7793
  862MOL0     C13715   2.136   2.481   7.785 -0.2030  0.2220  0.2145
  862MOL0     C13716   2.220   2.509   7.868 -0.5086 -0.4387  0.5387
  862MOL0     C13717   1.417   2.533   7.817 -0.1158 -0.1534 -0.1793
  862MOL0     C13718   1.277   2.553   7.824 -0.3713 -0.1860  0.4285
  862MOL0     H13719   0.798   2.692   7.785  0.2500 -2.4388  0.5497
  862MOL0     H13720   0.578   2.751   7.725  0.7766 -1.0889  1.4600
  862MOL0     H13721   0.395   2.617   7.347  0.1998 -0.2769  2.9395
  862MOL0     H13722   0.429   2.795   7.313  3.4560 -2.1277 -0.6303
  862MOL0     H13723   0.200   2.672   7.459 -1.5937  1.2175 -0.8483
  862MOL0     H13724   0.206   2.740   7.298  1.0500 -2.7766  0.3353
  862MOL0     H13725   0.241   2.979   7.390 -1.0112  1.7158  0.7238
  862MOL0     H13726   0.257   2.927   7.546  1.3472 -2.2023 -0.0571
  862MOL0     H13727  -0.004   2.899   7.359  0.5602 -2.2338 -0.6653
  862MOL0     H13728   0.014   2.816   7.511  0.7892 -0.7081 -1.6999
  862MOL0     H13729   0.041   3.048   7.618  0.2902  1.6262 -0.1243
  862MOL0     H13730  -0.114   3.007   7.547  2.1828 -2.0438  3.6269
  862MOL0     H13731  -0.109   3.134   7.360 -2.6018  0.7986  3.0770
  862MOL0     H13732   0.082   3.147   7.374  1.1423  1.9276  2.8663
  862MOL0     H13733  -0.121   3.291   7.555  0.3543 -0.4120  0.2220
  862MOL0     H13734   0.045   3.299   7.575  0.3612  3.3873 -0.3304
  862MOL0     H13735  -0.066   3.477   7.467 -0.5249 -1.1704  1.3803
  862MOL0     H13736  -0.112   3.391   7.325  0.4244  0.6763 -0.0022
  862MOL0     H13737   0.255   3.450   7.494  1.0762  2.4675 -1.1615
  862MOL0     H13738   0.423   3.633   7.322  0.1610  0.7784 -3.1295
  862MOL0     H13739   0.477   3.530   7.192  2.7072  0.3181  0.8171
  862MOL0     H13740   0.547   3.349   7.346  0.2844 -0.9149  0.7129
  862MOL0     H13741   0.493   3.458   7.478 -0.3601 -2.3853 -0.2698
  862MOL0     H13742   0.710   3.554   7.288  0.8193  3.0151  0.6846
  862MOL0     H13743   0.661   3.628   7.442 -1.9259 -0.5959  1.8124
  862MOL0     H13744   0.828   3.378   7.386  0.4894 -0.1641  1.0329
  862MOL0     H13745   0.760   3.401   7.547  0.8605 -0.6361  0.6702
  862MOL0     H13746   0.948   3.476   7.210  0.1257 -1.9631  2.8039
  862MOL0     H13747   1.135   3.554   7.074 -0.6836  1.0505  0.0977
  862MOL0     H13748   1.290   3.847   6.797  0.4268 -1.7616 -1.3613
  862MOL0     H13749   1.454   3.972   6.644 -1.0186 -0.3451 -0.2086
  862MOL0     H13750   1.868   3.911   6.663  0.2065  0.0571  0.8119
  862MOL0     H13751   1.870   4.067   6.762  1.2231 -0.4587 -1.1255
  862MOL0     H13752   1.814   4.184   6.542 -2.1776 -1.4239 -0.3732
  862MOL0     H13753   1.865   4.034   6.464  0.0731 -0.1270  0.7975
  862MOL0     H13754   2.061   4.185   6.641  2.0539  1.0954 -0.5590
  862MOL0     H13755   2.052   4.200   6.468  0.6518 -1.7883 -0.9136
  862MOL0     H13756   2.113   3.944   6.613  3.5039  1.5568  1.9356
  862MOL0     H13757   2.121   3.971   6.435 -1.0076 -0.0706  1.1755
  862MOL0     H13758   2.298   4.141   6.472 -0.4845 -1.1926 -2.0472
  862MOL0     H13759   2.340   3.979   6.538 -0.5943 -0.5907  1.5921
  862MOL0     H13760   2.305   4.054   6.770  2.1491 -1.4656  0.2589
  862MOL0     H13761   2.237   4.197   6.718 -0.0730 -0.5254  0.9783
  862MOL0     H13762   2.522   4.099   6.697  1.3894  0.9837 -2.3039
  862MOL0     H13763   2.476   4.240   6.602  2.0873  3.3979  2.1063
  862MOL0     H13764   2.396   4.350   6.813 -2.6766 -1.8629 -1.9978
  862MOL0     H13765   2.572   4.339   6.790 -2.4383  2.3396 -1.3408
  862MOL0     H13766   1.765   3.898   6.915 -0.0784  3.5791 -1.4730
  862MOL0     H13767   1.606   3.793   7.075  1.5056  1.8993 -0.5954
  862MOL0     H13768   1.289   3.763   7.428 -1.1245  1.8797  0.0672
  862MOL0     H13769   1.088   3.679   7.549  0.6697  1.4923  0.1981
  862MOL0     H13770   0.629   2.653   7.321  3.6671  1.2944 -0.9665
  862MOL0     H13771   0.859   2.554   7.369  2.1755  1.7631  0.6976
  862MOL0     H13772   1.186   2.507   7.512 -1.1738 -0.6266  0.4565
  862MOL0     H13773   1.433   2.481   7.488 -1.3188 -2.9184  0.5247
  862MOL0     H13774   1.695   2.569   7.514  0.0238  1.5351  1.5802
  862MOL0     H13775   1.620   2.419   7.502 -0.3492 -0.3032 -0.6446
  862MOL0     H13776   1.779   2.315   7.667 -0.5405  0.6083  2.6931
  862MOL0     H13777   1.870   2.373   7.523 -2.1203 -2.3520 -0.5638
  862MOL0     H13778   1.871   2.463   7.806  1.5659  2.3134  0.5050
  862MOL0     H13779   1.890   2.595   7.700  0.7012  0.1058  1.8313
  862MOL0     H13780   2.051   2.346   7.653  1.1790  0.2987  2.5698
  862MOL0     H13781   2.074   2.497   7.578  1.4930 -1.6328  0.4220
  862MOL0     H13782   2.303   2.530   7.931  0.4448  2.5025 -1.4915
  862MOL0     H13783   1.483   2.542   7.903  1.0894 -0.7717 -0.9982
  862MOL0     H13784   1.225   2.576   7.916 -1.5027 -0.1209 -0.2034
  863MOL0     O13785   0.598   4.598   8.971 -0.2917 -0.3889 -0.2574
  863MOL0     C13786   0.627   4.632   9.089 -0.1957  0.4550 -0.1469
  863MOL0     O13787   0.536   4.654   9.189  0.2541 -0.6448 -0.1425
  863MOL0     C13788   0.408   4.614   9.177 -1.1001  0.7904  0.2716
  863MOL0     C13789   0.313   4.700   9.116  0.4038  0.2744  0.3052
  863MOL0     C13790   0.185   4.648   9.104  0.5760  0.0443 -0.1197
  863MOL0     C13791   0.147   4.523   9.152  0.7541  0.8594  0.1318
  863MOL0     O13792   0.014   4.471   9.135 -0.4126  0.2795 -0.6174
  863MOL0     C13793  -0.082   4.568   9.171 -0.7529  0.2537 -0.0425
  863MOL0     C13794  -0.220   4.499   9.176 -0.6090 -0.3201 -0.2865
  863MOL0     C13795  -0.339   4.596   9.149  0.4937 -0.6431  0.6274
  863MOL0     C13796  -0.479   4.520   9.155 -0.4086 -0.1842  0.8384
  863MOL0     C13797  -0.599   4.614   9.129 -0.3669  0.2645 -0.2360
  863MOL0     C13798  -0.742   4.550   9.146  0.3147 -0.6921 -0.7465
  863MOL0     C13799  -0.788   4.477   9.020  0.1901  1.4263  0.9822
  863MOL0     C13800  -0.910   4.384   9.028 -0.7523  0.1563  0.5051
  863MOL0     N13801  -0.866   4.258   9.103  0.2818  0.2834 -0.5575
  863MOL0     C13802  -0.770   4.163   9.065  0.2202  0.1852  0.0317
  863MOL0     C13803  -0.770   4.076   9.168 -0.3168  0.6563 -0.2886
  863MOL0     C13804  -0.679   3.959   9.190 -0.0284  0.5024  0.2725
  863MOL0     C13805  -0.548   3.984   9.268 -0.0239  0.0114 -0.1949
  863MOL0     C13806  -0.438   4.044   9.192 -0.2172  0.1982  0.2843
  863MOL0     C13807  -0.295   3.995   9.234  0.1416 -0.2775 -0.3288
  863MOL0     O13808  -0.194   4.078   9.185 -1.7123  0.4024  0.2119
  863MOL0     C13809  -0.059   4.048   9.215  0.6880  0.6545  0.6926
  863MOL0     C13810  -0.020   3.932   9.287 -0.5095 -0.3742 -0.0486
  863MOL0     C13811   0.116   3.904   9.313  0.2927 -0.4515  0.7000
  863MOL0     C13812   0.221   3.977   9.254 -0.3105  0.3001 -0.2630
  863MOL0     C13813   0.363   3.930   9.267  0.1863 -0.3686  0.0168
  863MOL0     O13814   0.458   3.984   9.181  1.0042 -0.2932  0.1949
  863MOL0     C13815   0.585   3.947   9.185 -0.0563  0.4050 -0.2544
  863MOL0     C13816   0.629   3.816   9.198  0.5661  0.1887  1.2278
  863MOL0     C13817   0.771   3.787   9.202  0.0659 -0.2105  0.2066
  863MOL0     C13818   0.871   3.888   9.194  0.0207  0.3239 -0.4968
  863MOL0     O13819   1.005   3.843   9.202 -0.3702  0.4373 -0.6334
  863MOL0     C13820   1.115   3.944   9.220  0.3045  0.7162  0.4463
  863MOL0     C13821   1.248   3.878   9.189 -0.9724 -0.6257  0.5812
  863MOL0     C13822   1.246   3.804   9.050  0.1680 -0.3218 -0.6347
  863MOL0     C13823   1.366   3.706   9.026  1.5018  0.1246 -0.0053
  863MOL0     C13824   1.332   3.582   8.945 -0.5564  0.6845 -0.0208
  863MOL0     C13825   1.444   3.469   8.935  0.4194 -0.6088  0.0015
  863MOL0     C13826   1.383   3.339   8.888  0.1595  0.4707  0.4130
  863MOL0     C13827   1.489   3.235   8.836 -0.2248  0.2832  0.0498
  863MOL0    Cl13828   1.583   3.185   8.978  0.0814  0.4273  0.5921
  863MOL0     C13829   0.821   4.019   9.185 -0.5684 -0.3426 -0.3056
  863MOL0     C13830   0.682   4.048   9.175 -0.2919  0.4189  0.3598
  863MOL0     O13831   0.387   3.844   9.353  0.4853  0.7814  1.2217
  863MOL0     C13832   0.183   4.086   9.177 -0.1602  0.5363 -0.1122
  863MOL0     C13833   0.048   4.129   9.156 -0.4311 -0.4032 -0.5203
  863MOL0     N13834  -0.862   4.121   9.256  0.7990  0.2763 -0.6080
  863MOL0     N13835  -0.911   4.236   9.233  0.2793  0.2198 -0.2992
  863MOL0     C13836   0.245   4.442   9.214  0.2756 -0.6170 -0.7227
  863MOL0     C13837   0.377   4.492   9.232 -0.3543 -0.0512 -0.3860
  863MOL0     C13838   0.772   4.643   9.122  0.3111 -0.1828  0.5315
  863MOL0     C13839   0.876   4.599   9.025  0.6715  0.1456 -0.9940
  863MOL0     C13840   1.008   4.604   9.055  0.1443 -0.2471 -0.6604
  863MOL0     C13841   1.052   4.638   9.188 -0.3169 -0.5883 -0.1730
  863MOL0     O13842   1.184   4.650   9.226  0.5969 -0.1169 -0.6542
  863MOL0     C13843   1.288   4.608   9.140  0.8888  0.4582 -0.6307
  863MOL0     C13844   1.414   4.568   9.214 -0.7195 -0.6687  0.0887
  863MOL0     C13845   1.392   4.475   9.333 -0.4903  0.1237 -0.4951
  863MOL0     C13846   1.515   4.447   9.420 -0.1518  0.1555 -0.5643
  863MOL0     C13847   1.622   4.369   9.351 -0.5046  0.6705  0.3097
  863MOL0     C13848   1.704   4.311   9.282  0.2414  0.0836  0.1310
  863MOL0     C13849   0.953   4.679   9.277  0.1678 -0.1842 -0.5871
  863MOL0     C13850   0.817   4.675   9.252  0.2565 -0.1764 -0.0488
  863MOL0     H13851   0.339   4.795   9.072 -0.7348  0.9536  1.0297
  863MOL0     H13852   0.110   4.702   9.047  1.3293 -0.0262 -1.2095
  863MOL0     H13853  -0.085   4.648   9.096 -3.8397  0.1641 -0.1162
  863MOL0     H13854  -0.063   4.615   9.268  0.1498  1.2353 -0.6735
  863MOL0     H13855  -0.229   4.454   9.275 -0.5945  1.4524  0.5672
  863MOL0     H13856  -0.217   4.423   9.098 -0.0402  1.1957 -1.8052
  863MOL0     H13857  -0.324   4.656   9.058  1.6524 -0.4746  0.9161
  863MOL0     H13858  -0.340   4.665   9.234 -1.8543  3.5278 -2.3638
  863MOL0     H13859  -0.484   4.446   9.075 -0.5651  0.3949  0.3098
  863MOL0     H13860  -0.483   4.465   9.250 -2.8086 -4.8067 -1.5888
  863MOL0     H13861  -0.589   4.644   9.024  0.0780 -1.4975 -0.7235
  863MOL0     H13862  -0.585   4.691   9.205  2.1758 -0.0384 -0.3059
  863MOL0     H13863  -0.817   4.628   9.165  0.6627 -0.7572  1.0148
  863MOL0     H13864  -0.743   4.484   9.233  1.7064  1.7446  1.2238
  863MOL0     H13865  -0.807   4.552   8.942  1.0597  0.7170  0.0620
  863MOL0     H13866  -0.701   4.419   8.987 -1.7494  0.0085 -2.1552
  863MOL0     H13867  -0.948   4.363   8.927 -1.7722  0.8584  0.7351
  863MOL0     H13868  -0.980   4.443   9.088 -0.7240 -0.7978  1.5101
  863MOL0     H13869  -0.717   4.149   8.971 -1.3311 -2.1245 -0.5815
  863MOL0     H13870  -0.656   3.910   9.095 -0.1017  0.8748  0.0595
  863MOL0     H13871  -0.732   3.878   9.242  1.3972 -1.1737 -0.7671
  863MOL0     H13872  -0.511   3.888   9.306  1.7613  1.1917  1.2268
  863MOL0     H13873  -0.569   4.051   9.352  2.2952  0.8534 -0.2267
  863MOL0     H13874  -0.454   4.009   9.090  0.7579 -1.1743  0.5778
  863MOL0     H13875  -0.439   4.154   9.196  2.2914  0.3193 -0.8136
  863MOL0     H13876  -0.281   3.894   9.192  2.1626 -1.0926  2.0391
  863MOL0     H13877  -0.286   3.974   9.341  1.0390 -1.1384 -0.5524
  863MOL0     H13878  -0.091   3.865   9.335  0.1369 -0.3638  0.9603
  863MOL0     H13879   0.126   3.817   9.378 -2.5164 -1.2552  0.1966
  863MOL0     H13880   0.555   3.738   9.213  1.7462 -1.6514 -1.6147
  863MOL0     H13881   0.808   3.686   9.211  0.6288 -0.0446 -0.1591
  863MOL0     H13882   1.120   3.979   9.323  0.8750  2.1610 -0.0370
  863MOL0     H13883   1.105   4.034   9.159 -1.8714  0.3328  0.1734
  863MOL0     H13884   1.273   3.805   9.267  1.0189  0.1812  0.7603
  863MOL0     H13885   1.322   3.958   9.181 -0.4023 -1.2766 -1.5254
  863MOL0     H13886   1.250   3.891   8.984 -0.1965 -0.8141 -1.3194
  863MOL0     H13887   1.153   3.746   9.043 -0.1660  0.3379 -1.9772
  863MOL0     H13888   1.453   3.755   8.979  0.6806  0.7735 -0.8997
  863MOL0     H13889   1.399   3.673   9.125 -0.9913 -2.5627  0.0600
  863MOL0     H13890   1.307   3.594   8.839 -0.1537 -0.2496 -0.2356
  863MOL0     H13891   1.246   3.536   8.994 -1.2330 -1.3359 -2.8355
  863MOL0     H13892   1.489   3.450   9.033 -0.7349 -1.9606  0.3025
  863MOL0     H13893   1.521   3.497   8.863  1.6803 -2.0384  0.7417
  863MOL0     H13894   1.330   3.285   8.967 -1.5010 -1.6666 -2.0062
  863MOL0     H13895   1.318   3.343   8.800  0.8779 -5.2313 -0.7508
  863MOL0     H13896   1.551   3.272   8.754  1.7008 -1.2839  0.7003
  863MOL0     H13897   1.444   3.144   8.794  2.2701  0.2377 -2.9359
  863MOL0     H13898   0.895   4.098   9.181  0.8345 -1.6053  0.1664
  863MOL0     H13899   0.646   4.151   9.174 -2.6113 -0.1679  3.8340
  863MOL0     H13900   0.264   4.144   9.134  0.4955  0.0290  0.4357
  863MOL0     H13901   0.019   4.218   9.101 -0.5405  0.5863  1.0682
  863MOL0     H13902   0.218   4.340   9.241  2.1389 -1.6873 -2.6320
  863MOL0     H13903   0.461   4.440   9.277  0.6910  0.7403 -1.3591
  863MOL0     H13904   0.835   4.573   8.928 -3.4291 -1.0015  0.8519
  863MOL0     H13905   1.082   4.595   8.976  0.9166  2.0385 -0.2919
  863MOL0     H13906   1.309   4.678   9.058  1.3103 -0.7392 -1.5744
  863MOL0     H13907   1.259   4.517   9.086  0.5237 -1.3135  2.3277
  863MOL0     H13908   1.482   4.512   9.149  1.2990  0.2580  1.2752
  863MOL0     H13909   1.461   4.659   9.253 -0.0797 -1.5279  1.4136
  863MOL0     H13910   1.357   4.378   9.297 -1.2254  0.6987 -1.3695
  863MOL0     H13911   1.309   4.505   9.397  0.1388 -0.0545  0.4158
  863MOL0     H13912   1.550   4.535   9.474 -0.4233 -2.6909  5.0359
  863MOL0     H13913   1.486   4.379   9.502  0.8359 -0.9862 -1.1445
  863MOL0     H13914   1.766   4.274   9.203 -1.3289  1.5855 -1.9228
  863MOL0     H13915   0.974   4.696   9.382  0.2107 -1.6166 -0.3490
  863MOL0     H13916   0.745   4.692   9.331  1.1650  0.0314  0.7432
  864MOL0     O13917   6.876   6.638   8.189 -0.5098  0.6399 -0.1139
  864MOL0     C13918   6.903   6.536   8.121 -0.1768  0.6362 -0.0409
  864MOL0     O13919   6.808   6.451   8.064  0.3593 -0.2232  0.6477
  864MOL0     C13920   6.673   6.476   8.083  0.2386 -1.1389 -0.0561
  864MOL0     C13921   6.606   6.524   8.202  0.5985 -0.3046  0.1968
  864MOL0     C13922   6.468   6.537   8.200 -0.0282  0.5671  0.1454
  864MOL0     C13923   6.391   6.507   8.088 -0.2729  0.3647  0.0360
  864MOL0     O13924   6.250   6.507   8.107 -0.5036 -0.7391 -0.1600
  864MOL0     C13925   6.171   6.420   8.030  0.0481 -0.0675 -0.1876
  864MOL0     C13926   6.045   6.396   8.109 -0.0535  0.1565  0.2275
  864MOL0     C13927   6.064   6.282   8.216  0.1365  0.0319  0.6820
  864MOL0     C13928   6.156   6.324   8.329 -0.3774  0.6215  1.5615
  864MOL0     C13929   6.157   6.225   8.447  0.3134 -0.7971  0.5720
  864MOL0     C13930   6.192   6.075   8.429 -0.7626  0.3628  0.6024
  864MOL0     C13931   6.338   6.061   8.371  1.1241  0.6231  0.6329
  864MOL0     C13932   6.440   6.140   8.450 -0.6815 -0.1426  0.2492
  864MOL0     N13933   6.577   6.100   8.424 -0.0788  0.6745 -0.3432
  864MOL0     C13934   6.635   6.144   8.314 -0.0098 -0.1242  0.2160
  864MOL0     C13935   6.757   6.082   8.309 -0.2582 -0.5904  0.1923
  864MOL0     C13936   6.861   6.108   8.203 -0.0022 -0.3378  0.0856
  864MOL0     C13937   7.014   6.102   8.248  0.2102  0.7458 -0.0946
  864MOL0     C13938   7.111   6.096   8.125  0.5285  0.3586  0.5487
  864MOL0     C13939   7.264   6.106   8.143 -1.0373  0.7029 -0.2464
  864MOL0     O13940   7.300   6.181   8.262  0.9096  0.3466 -0.2976
  864MOL0     C13941   7.431   6.202   8.290  0.5106 -0.1356 -0.6721
  864MOL0     C13942   7.465   6.326   8.339  0.3613 -0.0927 -1.3254
  864MOL0     C13943   7.599   6.363   8.351 -0.2357  0.1032  0.4693
  864MOL0     C13944   7.704   6.283   8.318  0.7329 -0.3181  0.7244
  864MOL0     C13945   7.844   6.329   8.312  1.0678  0.1146  0.1676
  864MOL0     O13946   7.863   6.443   8.383 -0.1220 -0.1866  0.1429
  864MOL0     C13947   7.983   6.507   8.374 -0.3758 -0.0575  0.6450
  864MOL0     C13948   8.077   6.504   8.261 -0.7327 -0.5646 -0.3795
  864MOL0     C13949   8.190   6.586   8.262 -0.2288  0.4944  0.2476
  864MOL0     C13950   8.228   6.658   8.373 -0.5327  0.7458 -0.0648
  864MOL0     O13951   8.347   6.731   8.357  0.4937 -0.4520  0.0110
  864MOL0     C13952   8.342   6.863   8.404  0.1265 -0.4862 -0.9881
  864MOL0     C13953   8.478   6.934   8.382 -0.0416  0.2084 -1.1326
  864MOL0     C13954   8.584   6.882   8.486 -0.5761 -1.0729 -0.1690
  864MOL0     C13955   8.721   6.951   8.469 -0.3074 -0.1193  0.5270
  864MOL0     C13956   8.832   6.883   8.546  0.2557 -0.3017  0.1030
  864MOL0     C13957   8.967   6.958   8.519  0.4318  0.1576 -0.5446
  864MOL0     C13958   9.088   6.875   8.535  0.1736 -0.6345  0.5678
  864MOL0     C13959   9.122   6.836   8.681  0.7547  0.0350  0.2686
  864MOL0    Cl13960   9.255   6.727   8.677 -0.2237  0.2469  0.1186
  864MOL0     C13961   8.146   6.641   8.481 -0.1005 -0.2075  0.0073
  864MOL0     C13962   8.018   6.579   8.486  0.3288  1.0385  0.1498
  864MOL0     O13963   7.922   6.261   8.247  0.3061 -0.2481  0.1949
  864MOL0     C13964   7.663   6.152   8.277 -0.0152 -0.7792  0.4834
  864MOL0     C13965   7.531   6.114   8.260 -0.7628  0.1796  0.2752
  864MOL0     N13966   6.773   6.000   8.423 -0.3353 -0.0479  0.0238
  864MOL0     N13967   6.660   6.007   8.488  0.5081 -0.9296  0.1886
  864MOL0     C13968   6.454   6.485   7.963 -0.0393  0.8023  0.3138
  864MOL0     C13969   6.588   6.471   7.964 -0.9075  0.2591  0.7038
  864MOL0     C13970   7.051   6.522   8.098  0.1341  0.3391  0.4830
  864MOL0     C13971   7.100   6.448   7.994 -0.1007 -0.4088 -0.3988
  864MOL0     C13972   7.235   6.450   7.959 -0.4179 -0.4181  0.0824
  864MOL0     C13973   7.328   6.512   8.048 -0.0809  0.0641  0.4490
  864MOL0     O13974   7.462   6.527   8.017 -0.5136 -0.3567 -0.1657
  864MOL0     C13975   7.516   6.500   7.890 -0.5894  0.3663  0.1781
  864MOL0     C13976   7.665   6.542   7.870  0.5091  0.8356  0.0643
  864MOL0     C13977   7.749   6.477   7.978 -0.0808  0.2865  0.5329
  864MOL0     C13978   7.895   6.463   7.935 -0.2195  0.2029  0.0969
  864MOL0     C13979   7.960   6.594   7.940  0.3120  0.4916  0.5220
  864MOL0     C13980   8.002   6.704   7.943  0.3379 -0.1367 -0.1104
  864MOL0     C13981   7.280   6.570   8.159 -0.0859  0.1625 -0.0404
  864MOL0     C13982   7.145   6.585   8.184  0.3693 -0.5783  0.3005
  864MOL0     H13983   6.657   6.551   8.294 -1.4329 -1.1419  1.6440
  864MOL0     H13984   6.420   6.572   8.291  1.5003  1.5636  0.6127
  864MOL0     H13985   6.230   6.331   8.008  1.8128  0.8499  0.5608
  864MOL0     H13986   6.142   6.463   7.933  1.9884 -0.9831 -1.2284
  864MOL0     H13987   5.966   6.379   8.036  1.6445  1.6206 -2.1117
  864MOL0     H13988   6.014   6.490   8.154 -0.4676 -0.3514  1.0177
  864MOL0     H13989   6.110   6.198   8.163 -1.8078 -0.7397  0.1065
  864MOL0     H13990   5.973   6.241   8.261 -1.2767  2.8983  0.6910
  864MOL0     H13991   6.257   6.330   8.286 -0.0711  0.2832  2.2181
  864MOL0     H13992   6.127   6.423   8.363 -0.3515  1.1880 -0.0059
  864MOL0     H13993   6.052   6.231   8.477  0.3927  2.1022  0.5168
  864MOL0     H13994   6.213   6.261   8.534 -1.3562 -0.5413  1.5821
  864MOL0     H13995   6.129   6.026   8.355  1.4040  0.3435 -1.3175
  864MOL0     H13996   6.184   6.022   8.525 -2.3607 -2.8138 -1.1507
  864MOL0     H13997   6.365   5.955   8.364 -2.7421 -0.3736 -2.0114
  864MOL0     H13998   6.336   6.094   8.267  1.2005 -0.7757  0.1610
  864MOL0     H13999   6.421   6.118   8.556 -0.8917  1.9683  0.6830
  864MOL0     H14000   6.428   6.248   8.439 -1.6597 -0.4519 -2.3872
  864MOL0     H14001   6.591   6.218   8.248  1.2444  1.7688  1.3736
  864MOL0     H14002   6.847   6.213   8.176 -0.2925 -0.7045 -1.2791
  864MOL0     H14003   6.833   6.041   8.121 -4.1633  1.1729  0.0352
  864MOL0     H14004   7.033   6.003   8.292  1.5475  0.8121 -0.4675
  864MOL0     H14005   7.039   6.172   8.328 -1.9397 -0.4250  1.7199
  864MOL0     H14006   7.086   5.999   8.081  0.4541  0.1898  0.9617
  864MOL0     H14007   7.078   6.168   8.050  1.6052 -0.1955 -0.5021
  864MOL0     H14008   7.309   6.157   8.058  0.7508  0.1734  0.3257
  864MOL0     H14009   7.312   6.008   8.136 -0.9041  0.9051 -4.4652
  864MOL0     H14010   7.387   6.401   8.352  0.4433 -0.0388 -1.1415
  864MOL0     H14011   7.630   6.458   8.395  2.5986 -0.3306 -0.3881
  864MOL0     H14012   8.060   6.436   8.178  0.4857 -1.9080  0.4343
  864MOL0     H14013   8.240   6.592   8.165 -1.9836 -4.0516 -1.1989
  864MOL0     H14014   8.310   6.873   8.509 -2.3170 -2.3072 -1.4802
  864MOL0     H14015   8.269   6.930   8.359  1.8134  3.7042  1.8358
  864MOL0     H14016   8.475   7.042   8.395  1.7420  0.3334 -1.5893
  864MOL0     H14017   8.502   6.916   8.276 -0.7934  0.2646 -1.3217
  864MOL0     H14018   8.594   6.774   8.471 -0.8361 -1.3897  1.6655
  864MOL0     H14019   8.549   6.903   8.587 -0.3985  0.8296 -0.4640
  864MOL0     H14020   8.746   6.966   8.364 -0.8660  0.3466  0.4571
  864MOL0     H14021   8.707   7.050   8.514 -2.1150 -0.2496  0.3216
  864MOL0     H14022   8.846   6.779   8.516 -0.1258 -0.4920  0.5685
  864MOL0     H14023   8.808   6.893   8.652 -0.1457  2.2546 -0.1757
  864MOL0     H14024   8.972   7.033   8.598  0.5524 -0.1972 -0.2114
  864MOL0     H14025   8.971   7.006   8.421 -1.1374  1.3914 -0.0454
  864MOL0     H14026   9.079   6.786   8.473  0.6441  0.4575 -1.1469
  864MOL0     H14027   9.169   6.941   8.500  1.9191 -1.8043  2.1752
  864MOL0     H14028   9.037   6.785   8.727 -0.1109  0.9717 -0.2546
  864MOL0     H14029   9.153   6.923   8.739  0.6980 -0.5770  1.2422
  864MOL0     H14030   8.162   6.703   8.568 -1.6495  0.7011 -0.3019
  864MOL0     H14031   7.959   6.597   8.575  0.3580  1.6184  0.0534
  864MOL0     H14032   7.733   6.071   8.262 -0.7073 -1.4126  0.6495
  864MOL0     H14033   7.519   6.013   8.223 -0.7399 -0.3919  1.7357
  864MOL0     H14034   6.403   6.464   7.870  0.1918  0.9151  0.1599
  864MOL0     H14035   6.631   6.445   7.867 -3.6877  1.4179 -0.9662
  864MOL0     H14036   7.023   6.403   7.933 -1.5283  0.4697  0.6727
  864MOL0     H14037   7.253   6.400   7.864  0.6493 -1.9511  1.0449
  864MOL0     H14038   7.453   6.552   7.817 -1.3862  0.7583  1.1200
  864MOL0     H14039   7.505   6.392   7.886  1.0634  0.1016  1.7736
  864MOL0     H14040   7.707   6.523   7.772  3.7070  1.3170  1.2315
  864MOL0     H14041   7.674   6.651   7.881  2.7236  0.8450 -1.3658
  864MOL0     H14042   7.709   6.376   7.991 -1.8125  0.5567 -2.0415
  864MOL0     H14043   7.744   6.527   8.075 -0.4863  0.1874  0.5659
  864MOL0     H14044   7.946   6.398   8.007  1.5515  2.5219  1.0489
  864MOL0     H14045   7.906   6.423   7.834 -0.7320  1.9835 -0.6926
  864MOL0     H14046   8.040   6.804   7.942  2.0702 -0.7368  0.7358
  864MOL0     H14047   7.345   6.625   8.226  1.7628 -2.4387  0.4154
  864MOL0     H14048   7.123   6.649   8.269  2.0377 -1.1482  1.1963
  865MOL0     O14049  10.571   3.855  10.790  0.6575  0.0809  0.2586
  865MOL0     C14050  10.666   3.870  10.860  0.1383  0.3106 -0.3227
  865MOL0     O14051  10.667   3.861  10.999 -0.3315  0.1924 -0.1717
  865MOL0     C14052  10.566   3.823  11.073  1.0630  0.7467  0.4011
  865MOL0     C14053  10.424   3.840  11.037  0.0995 -0.1466 -0.0553
  865MOL0     C14054  10.326   3.770  11.108 -0.6118  1.1285 -0.3832
  865MOL0     C14055  10.368   3.700  11.228 -0.1696  0.7168 -0.1777
  865MOL0     O14056  10.280   3.644  11.323 -0.8301 -0.8847 -0.2079
  865MOL0     C14057  10.135   3.644  11.290  0.3780 -0.4938  0.1390
  865MOL0     C14058  10.070   3.777  11.328  0.6879  0.4402 -0.4506
  865MOL0     C14059   9.913   3.767  11.342  0.6128  0.3061 -0.1590
  865MOL0     C14060   9.858   3.903  11.403 -0.2498  0.4572 -0.0204
  865MOL0     C14061   9.711   3.897  11.435 -0.6275 -0.2452  0.7837
  865MOL0     C14062   9.699   3.910  11.587  1.1625  0.6278  0.2929
  865MOL0     C14063   9.554   3.869  11.617  0.7056  0.1111 -0.4680
  865MOL0     C14064   9.531   3.869  11.763  1.3119  0.2991  0.2742
  865MOL0     N14065   9.391   3.829  11.814  0.6173 -0.1160 -0.0969
  865MOL0     C14066   9.286   3.913  11.792  1.2108  0.5052 -0.1451
  865MOL0     C14067   9.192   3.869  11.876 -0.2009 -0.1911  1.0176
  865MOL0     C14068   9.062   3.939  11.896 -0.1119  0.3377  0.4825
  865MOL0     C14069   8.951   3.830  11.901 -0.1336  0.2041 -0.6426
  865MOL0     C14070   8.912   3.772  11.769  1.1324  0.1150 -0.6081
  865MOL0     C14071   8.767   3.729  11.774  0.4892  0.5689 -0.5745
  865MOL0     O14072   8.667   3.834  11.793 -0.6680 -0.2272 -0.6910
  865MOL0     C14073   8.533   3.810  11.799 -0.1444  0.1975  0.3486
  865MOL0     C14074   8.460   3.709  11.727  0.4626 -0.4141  0.2081
  865MOL0     C14075   8.327   3.689  11.761 -0.6358  0.3904  0.0554
  865MOL0     C14076   8.262   3.772  11.859  0.0246  0.2065  0.2772
  865MOL0     C14077   8.120   3.752  11.902 -0.5128  0.0386  0.7927
  865MOL0     O14078   8.077   3.624  11.880 -0.3286 -0.0660 -0.2449
  865MOL0     C14079   7.956   3.568  11.910  0.2810  0.4824 -0.4896
  865MOL0     C14080   7.852   3.630  11.979  0.3665 -0.0053  0.3251
  865MOL0     C14081   7.744   3.555  12.026  0.4036 -0.5791 -0.1256
  865MOL0     C14082   7.726   3.421  11.991  0.3048 -0.4274 -0.0893
  865MOL0     O14083   7.615   3.365  12.047  0.3449  0.6582 -0.8867
  865MOL0     C14084   7.561   3.257  11.976  0.7819  1.1379  0.1732
  865MOL0     C14085   7.431   3.233  12.046  0.4967  0.4870 -0.0590
  865MOL0     C14086   7.347   3.126  11.980  0.1716 -0.2803 -0.1823
  865MOL0     C14087   7.224   3.098  12.052  0.5285 -0.7819 -0.0748
  865MOL0     C14088   7.142   2.972  11.997 -0.5256 -0.5578 -0.8904
  865MOL0     C14089   7.003   2.992  12.070 -0.2166 -0.5227  0.2917
  865MOL0     C14090   6.909   2.880  12.041  0.7674 -0.2919  0.3341
  865MOL0     C14091   6.836   2.878  11.905 -0.1329  0.4455  0.0565
  865MOL0    Cl14092   6.694   2.777  11.896  0.1378 -0.2928 -0.0931
  865MOL0     C14093   7.827   3.364  11.910  0.4366  0.2877  0.1198
  865MOL0     C14094   7.944   3.432  11.880  0.6135 -0.1318  0.5170
  865MOL0     O14095   8.054   3.845  11.943 -0.2102 -0.5457  0.0941
  865MOL0     C14096   8.330   3.882  11.916  0.2351 -0.0309 -0.4002
  865MOL0     C14097   8.465   3.891  11.888  0.0707  0.3368  0.0144
  865MOL0     N14098   9.234   3.755  11.943 -0.0041  0.0543  0.2395
  865MOL0     N14099   9.362   3.735  11.904  0.1108  0.5092  0.1323
  865MOL0     C14100  10.500   3.702  11.275 -0.0224 -0.2499  0.1143
  865MOL0     C14101  10.598   3.759  11.194  0.7606 -0.1062 -0.1001
  865MOL0     C14102  10.794   3.921  10.804 -0.0398  0.4366 -0.0610
  865MOL0     C14103  10.810   3.913  10.666 -0.0100 -0.9172  0.2902
  865MOL0     C14104  10.924   3.962  10.601  0.1509 -0.1449 -0.1961
  865MOL0     C14105  11.036   4.014  10.670  0.1302  0.6260 -0.4350
  865MOL0     O14106  11.136   4.062  10.598  0.5919 -0.7335  0.9297
  865MOL0     C14107  11.265   4.056  10.648 -0.6535 -0.3662 -0.9418
  865MOL0     C14108  11.324   3.912  10.672 -0.1451 -0.6672 -0.4432
  865MOL0     C14109  11.460   3.899  10.744  0.6042  0.5094 -0.6097
  865MOL0     C14110  11.580   3.885  10.653  0.2831 -0.1303  0.2049
  865MOL0     C14111  11.701   3.843  10.725  1.1771  0.2663 -0.0220
  865MOL0     C14112  11.800   3.805  10.782 -0.4758 -0.2528 -0.0292
  865MOL0     C14113  11.015   4.031  10.805  0.6830 -0.0895 -0.6810
  865MOL0     C14114  10.904   3.983  10.873 -0.5165  0.0086  0.7161
  865MOL0     H14115  10.376   3.892  10.955 -0.4602 -1.1304 -0.3688
  865MOL0     H14116  10.225   3.776  11.068 -0.5445  0.7024 -0.6265
  865MOL0     H14117  10.083   3.558  11.334 -1.5004 -0.6692 -2.1973
  865MOL0     H14118  10.120   3.625  11.183  0.7991 -0.3452  0.0501
  865MOL0     H14119  10.097   3.849  11.250 -0.3819  0.1900 -1.0811
  865MOL0     H14120  10.101   3.813  11.426  1.2624  1.9118 -1.1384
  865MOL0     H14121   9.887   3.683  11.406 -0.4265  1.1401  0.5413
  865MOL0     H14122   9.873   3.747  11.242  1.3792 -2.5578  0.0271
  865MOL0     H14123   9.917   3.942  11.487  1.0535  0.0087 -0.6924
  865MOL0     H14124   9.868   3.969  11.317 -3.3774  0.2465 -0.6642
  865MOL0     H14125   9.678   3.800  11.396  3.6438 -1.2566 -0.8347
  865MOL0     H14126   9.648   3.973  11.389  0.9203  1.0434  0.7131
  865MOL0     H14127   9.726   4.011  11.618 -0.5137  0.5417  2.2088
  865MOL0     H14128   9.770   3.841  11.634 -1.4844 -0.6883  2.6456
  865MOL0     H14129   9.481   3.932  11.566  1.4888  0.1859 -1.5299
  865MOL0     H14130   9.545   3.764  11.586 -1.8915 -0.8632  2.9666
  865MOL0     H14131   9.569   3.970  11.781  1.3374  1.0947 -3.3795
  865MOL0     H14132   9.595   3.797  11.815 -0.4034 -0.4732  1.3872
  865MOL0     H14133   9.291   4.002  11.729 -1.7555  1.9126  1.4164
  865MOL0     H14134   9.042   4.006  11.812 -2.8196 -1.8826 -0.7982
  865MOL0     H14135   9.075   3.988  11.992 -0.5003 -0.2463  0.8406
  865MOL0     H14136   8.864   3.886  11.937  1.4820  1.5536  1.3418
  865MOL0     H14137   8.977   3.757  11.978 -1.3336 -0.0045 -0.4124
  865MOL0     H14138   8.925   3.846  11.689  1.7283 -1.3550 -1.9211
  865MOL0     H14139   8.973   3.685  11.744  0.7770 -0.3766  0.1948
  865MOL0     H14140   8.755   3.655  11.854 -0.3343  0.4162 -0.8282
  865MOL0     H14141   8.754   3.679  11.677  3.7770 -0.8051 -0.4294
  865MOL0     H14142   8.514   3.643  11.660 -0.5692 -1.7133  0.6207
  865MOL0     H14143   8.285   3.601  11.714  3.5620 -0.7786 -2.0006
  865MOL0     H14144   7.846   3.732  12.016  0.6630  0.0884  0.1204
  865MOL0     H14145   7.672   3.608  12.088  0.7178 -1.4968  1.0594
  865MOL0     H14146   7.616   3.162  11.984 -0.7010  0.2014 -0.2450
  865MOL0     H14147   7.541   3.288  11.873 -0.6003  0.6250  0.2609
  865MOL0     H14148   7.374   3.325  12.055 -0.1362  0.6970 -4.3058
  865MOL0     H14149   7.439   3.207  12.152 -0.5495  0.0899 -0.0717
  865MOL0     H14150   7.406   3.036  11.961 -2.0805 -1.5106 -1.7712
  865MOL0     H14151   7.318   3.153  11.878 -0.2064  0.5957  0.1493
  865MOL0     H14152   7.240   3.094  12.161  1.3109 -2.6024 -0.2116
  865MOL0     H14153   7.158   3.184  12.040  1.7912  0.0008 -1.6624
  865MOL0     H14154   7.185   2.874  12.017 -1.7028 -0.8990  0.1286
  865MOL0     H14155   7.130   2.986  11.889  2.2334  0.0790 -1.1752
  865MOL0     H14156   6.949   3.080  12.033 -2.1551 -2.2872 -1.2656
  865MOL0     H14157   7.021   3.001  12.178  2.9552  1.9507 -0.2878
  865MOL0     H14158   6.966   2.787  12.054 -1.7093 -1.7168  1.7715
  865MOL0     H14159   6.836   2.883  12.122  2.2908 -0.5139  1.7721
  865MOL0     H14160   6.907   2.862  11.824 -0.2732  3.6087 -0.8419
  865MOL0     H14161   6.807   2.982  11.889  1.3678  0.9502  0.4709
  865MOL0     H14162   7.822   3.259  11.885 -1.6304  0.3877 -0.0738
  865MOL0     H14163   8.024   3.376  11.833  1.7720  1.5499  0.4328
  865MOL0     H14164   8.280   3.948  11.985  3.6947  0.8756  1.4658
  865MOL0     H14165   8.513   3.969  11.946 -0.6947  3.6286 -3.3590
  865MOL0     H14166  10.516   3.659  11.373  0.9277 -1.0303 -0.3677
  865MOL0     H14167  10.703   3.744  11.216  0.3609 -2.0989  0.7081
  865MOL0     H14168  10.733   3.873  10.601 -2.9098  3.3376  0.6957
  865MOL0     H14169  10.929   3.958  10.493  4.0322  0.2810 -0.2008
  865MOL0     H14170  11.280   4.111  10.741 -0.3967  1.4401 -2.0089
  865MOL0     H14171  11.327   4.105  10.572  0.1049 -0.2455 -0.2642
  865MOL0     H14172  11.252   3.855  10.732 -1.3480 -0.6112 -1.7618
  865MOL0     H14173  11.331   3.869  10.572 -1.8597  1.4746 -1.5625
  865MOL0     H14174  11.465   3.803  10.796  2.2642 -1.3166 -3.8258
  865MOL0     H14175  11.469   3.978  10.819 -0.7320  1.6076 -1.5435
  865MOL0     H14176  11.564   3.814  10.571  3.7904  1.4978 -2.1189
  865MOL0     H14177  11.604   3.985  10.615 -1.6005 -0.6144 -2.6025
  865MOL0     H14178  11.890   3.797  10.839 -1.1620 -0.1288  1.0953
  865MOL0     H14179  11.083   4.085  10.872 -0.2654 -0.4329  0.5899
  865MOL0     H14180  10.905   3.990  10.981  1.6991 -1.3304  0.8290
  866MOL0     O14181  10.573   3.879   1.827  0.1424  0.1088  0.0208
  866MOL0     C14182  10.605   3.852   1.711 -1.3401 -1.0512 -0.2996
  866MOL0     O14183  10.528   3.783   1.621 -0.6532 -0.7832  0.5520
  866MOL0     C14184  10.399   3.746   1.642  0.4651 -0.5388  0.4090
  866MOL0     C14185  10.311   3.754   1.533  0.1406  0.4065 -0.0239
  866MOL0     C14186  10.179   3.712   1.545  0.8678 -0.0461 -0.1175
  866MOL0     C14187  10.140   3.648   1.663  0.7040  0.4533 -0.2898
  866MOL0     O14188  10.014   3.598   1.683 -0.3375  0.2540 -0.0962
  866MOL0     C14189   9.905   3.682   1.642  0.0562  0.5467  0.1301
  866MOL0     C14190   9.777   3.632   1.706  0.1885  0.1133 -0.0144
  866MOL0     C14191   9.743   3.484   1.676 -0.1561  0.1043 -0.2310
  866MOL0     C14192   9.611   3.454   1.754  0.0866 -1.0507  0.3133
  866MOL0     C14193   9.570   3.311   1.745  0.0725  0.0256 -0.6130
  866MOL0     C14194   9.469   3.269   1.854 -0.4253  0.1797 -0.5027
  866MOL0     C14195   9.326   3.329   1.842 -0.6986  0.0062 -0.5049
  866MOL0     C14196   9.235   3.304   1.964  0.2963  1.0082  0.1125
  866MOL0     N14197   9.153   3.183   1.930 -0.6129  0.1835 -0.1208
  866MOL0     C14198   9.194   3.053   1.937  1.0398  1.2481  0.3059
  866MOL0     C14199   9.087   2.974   1.904 -0.1534  0.0137  0.3526
  866MOL0     C14200   9.084   2.826   1.892  0.1685  0.2750  0.1116
  866MOL0     C14201   8.962   2.754   1.955  0.0655  0.2914  0.7411
  866MOL0     C14202   8.929   2.621   1.882 -0.1652  0.0837  0.2152
  866MOL0     C14203   8.879   2.515   1.975  0.5477 -0.6573 -0.2798
  866MOL0     O14204   8.852   2.400   1.893  0.2935  0.1556  0.2388
  866MOL0     C14205   8.729   2.394   1.835  0.1997 -0.3763  0.2073
  866MOL0     C14206   8.624   2.491   1.827 -0.2412  0.4141 -0.4031
  866MOL0     C14207   8.500   2.464   1.787 -0.0162  0.2691  0.6512
  866MOL0     C14208   8.467   2.331   1.748 -0.0271 -0.1005  0.1761
  866MOL0     C14209   8.326   2.290   1.707 -0.9204  0.0475 -0.1315
  866MOL0     O14210   8.231   2.353   1.782  0.0909  0.1965 -0.7568
  866MOL0     C14211   8.102   2.319   1.770 -0.1280  0.0427 -1.0263
  866MOL0     C14212   8.024   2.265   1.871 -1.0869  0.0271 -0.5908
  866MOL0     C14213   7.889   2.230   1.837 -0.9609  0.0444 -0.1246
  866MOL0     C14214   7.836   2.252   1.705  0.3726  0.6560  0.3625
  866MOL0     O14215   7.715   2.216   1.658  0.2073 -0.0295 -0.5987
  866MOL0     C14216   7.640   2.120   1.730  0.4880 -0.3634 -0.5447
  866MOL0     C14217   7.531   2.057   1.649  0.6491 -0.5048 -0.4158
  866MOL0     C14218   7.442   1.992   1.747 -0.3524 -0.0217  0.3161
  866MOL0     C14219   7.347   1.906   1.667  0.0802 -0.0710 -0.4026
  866MOL0     C14220   7.215   1.909   1.733  0.0980 -0.1880 -0.4869
  866MOL0     C14221   7.120   1.811   1.659  0.2201  0.4609  0.1929
  866MOL0     C14222   6.972   1.831   1.686  0.8559 -0.8775  0.6826
  866MOL0     C14223   6.929   1.792   1.826  0.7205  0.3571 -0.5549
  866MOL0    Cl14224   6.998   1.639   1.889  0.2269  0.1913  0.0852
  866MOL0     C14225   7.917   2.317   1.611  0.0276 -0.1057  0.1150
  866MOL0     C14226   8.045   2.344   1.648 -0.8201  0.2572  0.9939
  866MOL0     O14227   8.309   2.211   1.614  0.4433  0.1848 -0.6395
  866MOL0     C14228   8.570   2.236   1.749 -0.1031  0.4652  0.2491
  866MOL0     C14229   8.699   2.267   1.793  0.2863  0.8503  0.1764
  866MOL0     N14230   8.981   3.065   1.883 -0.0858 -0.3903  0.0942
  866MOL0     N14231   9.028   3.188   1.881 -0.5316 -0.1455  0.4035
  866MOL0     C14232  10.231   3.630   1.768  0.1974 -0.0073  0.0171
  866MOL0     C14233  10.360   3.681   1.754  0.1655 -0.5829 -0.0710
  866MOL0     C14234  10.739   3.899   1.665  0.9357 -0.2256  0.1012
  866MOL0     C14235  10.831   3.952   1.748 -0.2712 -0.0986 -0.3052
  866MOL0     C14236  10.959   3.986   1.695 -0.3422  0.3889  0.4879
  866MOL0     C14237  10.989   3.969   1.565  0.0531 -0.2293  0.4582
  866MOL0     O14238  11.112   4.021   1.533 -0.5557  0.3346 -0.2829
  866MOL0     C14239  11.148   4.016   1.394 -0.2481  0.6214 -0.6752
  866MOL0     C14240  11.285   4.077   1.381 -0.4973 -0.1142 -0.4168
  866MOL0     C14241  11.298   4.222   1.422 -0.0526 -0.0166 -0.0412
  866MOL0     C14242  11.438   4.287   1.401  0.7733  0.1163 -0.7216
  866MOL0     C14243  11.525   4.223   1.497  0.1213 -0.0392 -0.4106
  866MOL0     C14244  11.605   4.172   1.574 -0.1697  0.0215  0.0394
  866MOL0     C14245  10.893   3.916   1.477  0.4373  0.1997  0.1131
  866MOL0     C14246  10.771   3.883   1.527 -0.3140  0.0507 -0.9522
  866MOL0     H14247  10.353   3.794   1.442  2.7848  2.3848  1.9122
  866MOL0     H14248  10.101   3.737   1.474  0.5059  3.0924  1.2278
  866MOL0     H14249   9.902   3.679   1.533  3.7847  1.7349 -0.1750
  866MOL0     H14250   9.923   3.787   1.665  0.0527  1.1810 -2.5022
  866MOL0     H14251   9.695   3.699   1.679 -0.2793  0.0811  1.2579
  866MOL0     H14252   9.784   3.645   1.815 -2.3917  1.0445  0.1101
  866MOL0     H14253   9.824   3.417   1.705 -0.7967 -0.3149  0.6319
  866MOL0     H14254   9.725   3.476   1.568  0.0965  1.0635 -0.3534
  866MOL0     H14255   9.624   3.476   1.860  2.1994 -2.6937  0.4549
  866MOL0     H14256   9.533   3.520   1.712  0.4285 -1.4334 -0.9632
  866MOL0     H14257   9.662   3.253   1.756 -0.0677 -0.8332 -3.3274
  866MOL0     H14258   9.522   3.288   1.649 -4.3220  1.5299  0.9483
  866MOL0     H14259   9.518   3.298   1.947  0.3724  2.0843 -1.4541
  866MOL0     H14260   9.467   3.160   1.845  5.1153 -0.2839  0.0755
  866MOL0     H14261   9.337   3.438   1.839  4.0995 -0.0936  2.6267
  866MOL0     H14262   9.294   3.287   1.746  0.0710 -1.8740  0.0210
  866MOL0     H14263   9.179   3.395   1.990  2.6677  2.8724 -0.9270
  866MOL0     H14264   9.298   3.287   2.051  2.2938  0.4616 -1.3784
  866MOL0     H14265   9.292   3.017   1.968  2.1023  3.1386 -0.6787
  866MOL0     H14266   9.172   2.794   1.949 -0.4495  1.3793  1.7743
  866MOL0     H14267   9.101   2.799   1.788 -2.5194 -1.8061  0.0959
  866MOL0     H14268   8.874   2.819   1.949 -0.0956  0.2424  2.1505
  866MOL0     H14269   8.974   2.733   2.062 -0.2964 -0.7782  0.5833
  866MOL0     H14270   8.849   2.649   1.812  0.3658  0.5094 -0.2271
  866MOL0     H14271   9.018   2.585   1.830 -0.2256  3.6461 -2.8118
  866MOL0     H14272   8.789   2.551   2.026 -0.0827 -0.4197 -1.5390
  866MOL0     H14273   8.940   2.491   2.063 -1.0462  3.0658  2.1057
  866MOL0     H14274   8.641   2.593   1.860 -1.4791 -0.0873  2.0682
  866MOL0     H14275   8.421   2.536   1.801 -0.3247 -0.2002  1.4089
  866MOL0     H14276   8.071   2.253   1.968 -1.0675  0.2731 -0.5689
  866MOL0     H14277   7.822   2.187   1.911  0.2170 -2.9594 -0.6277
  866MOL0     H14278   7.589   2.166   1.816 -0.4544 -0.5265 -1.0051
  866MOL0     H14279   7.706   2.042   1.768  1.0913 -0.1706 -1.1767
  866MOL0     H14280   7.563   1.978   1.580 -2.3464 -1.7849 -0.5112
  866MOL0     H14281   7.475   2.135   1.596 -0.6227  0.0702  1.6784
  866MOL0     H14282   7.397   2.064   1.815  1.2720  0.0466  1.3816
  866MOL0     H14283   7.491   1.928   1.822 -0.1154 -0.0697  0.1216
  866MOL0     H14284   7.338   1.933   1.561 -1.3250 -1.4140 -0.6742
  866MOL0     H14285   7.390   1.805   1.674  0.6182  0.1926  0.0959
  866MOL0     H14286   7.170   2.009   1.735 -0.7738 -0.5787  0.0741
  866MOL0     H14287   7.229   1.874   1.836 -1.9768 -3.4959 -1.1674
  866MOL0     H14288   7.152   1.711   1.689  2.3703  1.2401  0.6994
  866MOL0     H14289   7.136   1.822   1.551 -1.3894 -0.4960 -0.1634
  866MOL0     H14290   6.939   1.933   1.665 -0.2843 -0.9138  2.1076
  866MOL0     H14291   6.921   1.773   1.608  1.8866  1.0586 -1.5534
  866MOL0     H14292   6.821   1.792   1.841  0.4504  1.4820 -2.2608
  866MOL0     H14293   6.961   1.877   1.887 -0.8095  1.6047 -1.3979
  866MOL0     H14294   7.872   2.342   1.516 -1.9458 -0.1115  0.9882
  866MOL0     H14295   8.114   2.394   1.581 -3.3989 -0.5377 -2.5205
  866MOL0     H14296   8.545   2.135   1.718  1.1019  0.1051  0.3990
  866MOL0     H14297   8.776   2.191   1.798 -0.6119 -0.3142 -2.1428
  866MOL0     H14298  10.206   3.583   1.863 -2.4177  1.0707 -0.0533
  866MOL0     H14299  10.434   3.673   1.833  0.6489  1.7799 -0.2198
  866MOL0     H14300  10.813   3.960   1.855  0.2778 -1.1042 -0.1227
  866MOL0     H14301  11.020   4.035   1.770  0.2943 -0.7487  0.7379
  866MOL0     H14302  11.072   4.065   1.332 -1.9197  0.0599  0.8507
  866MOL0     H14303  11.153   3.911   1.363 -1.6690  0.7677 -1.4971
  866MOL0     H14304  11.360   4.015   1.431 -0.8537  0.1082  0.4063
  866MOL0     H14305  11.317   4.077   1.276 -1.0266 -0.7689 -0.5832
  866MOL0     H14306  11.261   4.241   1.523 -0.9903 -2.7352  0.1910
  866MOL0     H14307  11.234   4.285   1.359 -1.3131 -1.6156 -0.4108
  866MOL0     H14308  11.478   4.276   1.300 -0.8852 -1.0662 -1.2891
  866MOL0     H14309  11.431   4.394   1.423 -2.7563 -0.3387  1.0697
  866MOL0     H14310  11.666   4.122   1.647 -3.3778 -3.9016  0.4280
  866MOL0     H14311  10.910   3.898   1.371  2.5405 -0.4744  0.5078
  866MOL0     H14312  10.686   3.859   1.463 -1.5951  1.7006  0.0431
  867MOL0     O14313   2.176   6.237  11.059 -0.3602  0.0741 -0.6249
  867MOL0     C14314   2.217   6.327  11.133 -0.2536  0.1739 -0.5298
  867MOL0     O14315   2.130   6.405  11.215 -0.6621 -0.0632  0.0115
  867MOL0     C14316   2.000   6.391  11.185 -1.1632  0.8398 -0.3073
  867MOL0     C14317   1.899   6.347  11.276 -0.3183  0.0965 -0.3014
  867MOL0     C14318   1.766   6.324  11.227  0.2435  0.5463  0.1676
  867MOL0     C14319   1.726   6.354  11.093 -0.1477  0.3016  0.4748
  867MOL0     O14320   1.592   6.349  11.057 -0.5997  0.2552  0.3579
  867MOL0     C14321   1.569   6.333  10.914  0.0448  0.8308  0.5169
  867MOL0     C14322   1.438   6.264  10.886  0.8876 -0.2837 -0.3353
  867MOL0     C14323   1.327   6.368  10.905  0.1430 -0.1507 -0.1557
  867MOL0     C14324   1.193   6.294  10.871 -0.3430  0.1456  0.6429
  867MOL0     C14325   1.075   6.379  10.829 -0.2185 -0.6771 -0.7956
  867MOL0     C14326   0.959   6.296  10.774 -0.0022 -0.1225  0.4783
  867MOL0     C14327   0.899   6.204  10.880 -0.1426  0.1374  0.1151
  867MOL0     C14328   0.779   6.127  10.818  0.0931 -0.5063  0.2610
  867MOL0     N14329   0.666   6.202  10.788  0.6275 -0.7399 -0.9307
  867MOL0     C14330   0.600   6.199  10.671  0.2753  0.0270  0.8671
  867MOL0     C14331   0.469   6.246  10.692 -0.3794 -0.2991  0.0855
  867MOL0     C14332   0.358   6.271  10.600 -0.5917 -0.3663 -0.0986
  867MOL0     C14333   0.231   6.179  10.610  0.7266  0.2987 -0.0308
  867MOL0     C14334   0.148   6.199  10.741  0.0731  0.0953  0.0516
  867MOL0     C14335   0.065   6.071  10.779  0.4906 -0.0400 -0.3726
  867MOL0     O14336   0.006   6.064  10.911  0.5615 -0.3386 -0.0246
  867MOL0     C14337  -0.132   6.057  10.910 -0.7020  0.4087 -1.2523
  867MOL0     C14338  -0.223   6.055  10.809  0.0321 -0.1733  0.0584
  867MOL0     C14339  -0.357   6.055  10.838 -0.5787 -0.2209  0.2812
  867MOL0     C14340  -0.405   6.056  10.973  0.0609  0.1412  0.4694
  867MOL0     C14341  -0.547   6.064  11.001  0.1634 -0.2241  0.2486
  867MOL0     O14342  -0.585   6.112  11.126 -0.5338 -0.2882  0.6936
  867MOL0     C14343  -0.711   6.112  11.165 -0.2608 -0.0627 -0.1303
  867MOL0     C14344  -0.804   6.028  11.115  0.5514 -0.4586  0.1022
  867MOL0     C14345  -0.934   6.046  11.169 -0.3026 -0.8193  0.0487
  867MOL0     C14346  -0.971   6.144  11.262  0.0204 -0.1792 -0.1015
  867MOL0     O14347  -1.091   6.154  11.329 -0.0321  0.6812 -0.1822
  867MOL0     C14348  -1.207   6.137  11.245 -0.2719 -0.2798  0.7068
  867MOL0     C14349  -1.337   6.177  11.320 -0.4416  0.4144  0.3457
  867MOL0     C14350  -1.386   6.062  11.410  0.3112 -0.4495 -0.5971
  867MOL0     C14351  -1.480   6.116  11.522  0.1337 -0.0297 -0.6992
  867MOL0     C14352  -1.552   6.003  11.594  0.3936  0.0666 -0.9993
  867MOL0     C14353  -1.654   6.044  11.699  0.1754  0.3319  0.9799
  867MOL0     C14354  -1.723   5.920  11.766 -0.5685  0.4120 -0.4041
  867MOL0     C14355  -1.807   5.980  11.876  0.4895  0.6350  0.1913
  867MOL0    Cl14356  -1.871   5.849  11.985 -0.0617  0.0537 -0.1695
  867MOL0     C14357  -0.878   6.230  11.297 -0.6429 -0.5044  0.6933
  867MOL0     C14358  -0.740   6.218  11.252  0.3066  1.1094 -0.2611
  867MOL0     O14359  -0.623   6.034  10.908 -0.3301 -0.8267 -0.5352
  867MOL0     C14360  -0.316   6.062  11.074 -0.3743  0.0488  0.5007
  867MOL0     C14361  -0.179   6.062  11.044 -0.0387 -0.1363  0.1305
  867MOL0     N14362   0.474   6.274  10.831  1.0443  0.1493 -0.2648
  867MOL0     N14363   0.587   6.255  10.885  1.4525 -0.3149 -0.3801
  867MOL0     C14364   1.830   6.401  11.011  0.5277  0.3730  0.1861
  867MOL0     C14365   1.963   6.424  11.054 -0.2674  0.3275 -0.1587
  867MOL0     C14366   2.359   6.352  11.143 -0.3770 -0.3384 -0.6551
  867MOL0     C14367   2.407   6.443  11.234  0.3008 -0.5232  0.2349
  867MOL0     C14368   2.540   6.477  11.238 -0.3361  0.1121  0.2125
  867MOL0     C14369   2.637   6.413  11.160 -0.4097  0.1203 -0.4329
  867MOL0     O14370   2.768   6.447  11.181  0.1109  1.0249 -0.0183
  867MOL0     C14371   2.834   6.410  11.304  0.3803 -0.3340 -0.2774
  867MOL0     C14372   2.854   6.255  11.308 -0.7627 -0.7037 -0.4259
  867MOL0     C14373   2.919   6.200  11.172 -0.3756 -0.3636 -0.4188
  867MOL0     C14374   3.056   6.255  11.127 -0.2416 -0.3338  0.2133
  867MOL0     C14375   3.154   6.248  11.238 -0.1287 -0.2429  0.9681
  867MOL0     C14376   3.218   6.227  11.341  0.2494  0.1809  0.4642
  867MOL0     C14377   2.586   6.309  11.069 -0.2418  0.0160  0.2404
  867MOL0     C14378   2.449   6.286  11.057 -0.5321  0.1386 -0.0718
  867MOL0     H14379   1.918   6.334  11.382  0.3704 -2.0716 -0.6282
  867MOL0     H14380   1.693   6.283  11.296  1.0934  0.5708  1.1146
  867MOL0     H14381   1.654   6.274  10.878 -1.7394 -2.3723  1.1484
  867MOL0     H14382   1.578   6.433  10.870  1.6861  1.3970  2.0303
  867MOL0     H14383   1.435   6.183  10.959  0.3026  1.8726  2.1593
  867MOL0     H14384   1.437   6.227  10.783 -0.2409 -1.4691  0.0830
  867MOL0     H14385   1.331   6.449  10.831  0.0321 -0.2615 -0.2835
  867MOL0     H14386   1.330   6.409  11.006  0.7055 -0.4640 -0.0408
  867MOL0     H14387   1.217   6.225  10.790 -1.0399 -1.3173  1.6339
  867MOL0     H14388   1.165   6.225  10.951 -2.4019 -0.6071 -0.6226
  867MOL0     H14389   1.096   6.448  10.746 -2.7728 -1.7823 -2.5020
  867MOL0     H14390   1.041   6.438  10.915 -2.3969 -4.0559  0.8378
  867MOL0     H14391   0.983   6.245  10.680 -1.4843 -1.2835  0.6944
  867MOL0     H14392   0.884   6.369  10.744  1.7566  1.0704 -1.2570
  867MOL0     H14393   0.967   6.125  10.913 -1.1400 -2.0072 -2.6092
  867MOL0     H14394   0.868   6.267  10.964  3.3847 -0.1856  1.8652
  867MOL0     H14395   0.749   6.043  10.880 -0.9492  0.0422  0.5233
  867MOL0     H14396   0.813   6.080  10.725  0.0633  0.6156 -0.3427
  867MOL0     H14397   0.634   6.169  10.572 -1.0911  1.5736 -0.1269
  867MOL0     H14398   0.396   6.250  10.499 -0.1712  1.6037 -0.3903
  867MOL0     H14399   0.329   6.376  10.607 -0.9420 -0.4613 -0.1038
  867MOL0     H14400   0.267   6.075  10.607  0.0300  0.0175  0.8218
  867MOL0     H14401   0.183   6.196  10.514  1.7402  0.2907 -0.5525
  867MOL0     H14402   0.214   6.231  10.822  0.3079 -1.0773  0.3432
  867MOL0     H14403   0.077   6.281  10.731  0.1951  0.0150 -1.9135
  867MOL0     H14404   0.137   5.990  10.797 -2.4513 -2.8201 -0.2658
  867MOL0     H14405   0.000   6.035  10.699 -1.0733  1.8079 -0.0042
  867MOL0     H14406  -0.196   6.042  10.704 -2.0810 -1.3650 -0.4032
  867MOL0     H14407  -0.419   6.056  10.748 -0.6735 -2.4427  0.2752
  867MOL0     H14408  -0.785   5.954  11.037 -1.3411  0.6973 -1.5527
  867MOL0     H14409  -1.012   5.990  11.119 -1.6143  1.2701 -0.3529
  867MOL0     H14410  -1.219   6.042  11.192  0.1494  0.0388  0.0321
  867MOL0     H14411  -1.187   6.211  11.166 -0.3675 -2.3880 -1.4007
  867MOL0     H14412  -1.410   6.199  11.242  0.8232  1.1301 -0.6750
  867MOL0     H14413  -1.326   6.271  11.375 -1.8731  0.7246  0.1273
  867MOL0     H14414  -1.307   6.005  11.460  0.0748  0.7462  1.2176
  867MOL0     H14415  -1.437   5.991  11.344  2.6928 -0.7425 -2.2747
  867MOL0     H14416  -1.427   6.182  11.592  0.7975  2.9272 -3.7315
  867MOL0     H14417  -1.558   6.172  11.470 -2.0014  0.3838  2.6276
  867MOL0     H14418  -1.473   5.948  11.646  0.9542  0.2810 -1.6067
  867MOL0     H14419  -1.591   5.939  11.514 -1.3180  1.1023 -1.0493
  867MOL0     H14420  -1.723   6.118  11.658 -0.9587 -1.4685 -0.4978
  867MOL0     H14421  -1.595   6.082  11.784 -0.1052 -2.7695  2.7091
  867MOL0     H14422  -1.790   5.863  11.701 -1.7490  0.3043  0.8620
  867MOL0     H14423  -1.647   5.849  11.802 -2.3183 -1.1272  0.4562
  867MOL0     H14424  -1.893   6.023  11.823  0.4003 -0.4884 -0.6060
  867MOL0     H14425  -1.744   6.053  11.928  1.5025 -0.2040  0.1602
  867MOL0     H14426  -0.892   6.305  11.374  2.8996 -0.4067  1.4175
  867MOL0     H14427  -0.667   6.286  11.295  0.3756 -0.5580  2.4718
  867MOL0     H14428  -0.347   6.054  11.178 -0.3708 -1.8372  0.4040
  867MOL0     H14429  -0.116   6.062  11.133 -0.2364 -5.4447  0.6437
  867MOL0     H14430   1.802   6.447  10.917  2.2954 -3.4012 -2.4679
  867MOL0     H14431   2.032   6.465  10.981 -2.7860  0.5684 -2.5485
  867MOL0     H14432   2.336   6.489  11.303 -1.7857 -1.5944 -1.0892
  867MOL0     H14433   2.570   6.549  11.314 -0.1055 -2.5468  2.8154
  867MOL0     H14434   2.774   6.443  11.390 -2.0346 -0.8979 -1.6704
  867MOL0     H14435   2.925   6.466  11.327 -0.7091  1.4848 -0.2005
  867MOL0     H14436   2.921   6.226  11.390 -1.2715 -1.1949 -0.1773
  867MOL0     H14437   2.758   6.211  11.335 -0.8227  0.2914  1.0983
  867MOL0     H14438   2.843   6.208  11.094 -0.4187  0.4037 -0.3070
  867MOL0     H14439   2.953   6.096  11.179 -0.0741 -0.1817  1.4658
  867MOL0     H14440   3.089   6.193  11.043 -0.9049 -1.3599  0.6915
  867MOL0     H14441   3.039   6.359  11.096  1.3420  0.4507  1.8120
  867MOL0     H14442   3.258   6.205  11.438 -1.0774 -0.4235  0.9033
  867MOL0     H14443   2.663   6.264  11.007 -0.2718  0.5658 -0.2050
  867MOL0     H14444   2.405   6.226  10.978 -3.6094  0.6896  1.0680
  868MOL0     O14445  10.925   5.098   2.207 -0.5974 -0.2372  0.4387
  868MOL0     C14446  11.008   5.186   2.183 -0.3684  1.0120 -0.2805
  868MOL0     O14447  11.016   5.303   2.253  0.9683  0.4289  0.7690
  868MOL0     C14448  10.902   5.336   2.331 -0.3707  1.1305 -1.0393
  868MOL0     C14449  10.923   5.343   2.469 -0.1324  0.4870  0.4153
  868MOL0     C14450  10.818   5.367   2.559  0.3652 -0.1065  0.6510
  868MOL0     C14451  10.680   5.388   2.513 -0.3457  0.2019 -1.1102
  868MOL0     O14452  10.568   5.418   2.597 -0.0000  0.2946  0.6792
  868MOL0     C14453  10.582   5.404   2.740  0.5365  0.0974 -0.3599
  868MOL0     C14454  10.467   5.316   2.793  0.1263  0.1368 -0.6331
  868MOL0     C14455  10.463   5.169   2.736  0.4196  0.6587  0.0821
  868MOL0     C14456  10.546   5.079   2.815 -1.1045 -0.3858  0.2707
  868MOL0     C14457  10.527   4.931   2.791  0.7954  1.2186 -0.0590
  868MOL0     C14458  10.660   4.855   2.826  0.1978 -0.7481 -0.5914
  868MOL0     C14459  10.639   4.721   2.903 -0.0235 -0.1205  0.4792
  868MOL0     C14460  10.748   4.613   2.870 -0.3671 -1.0509 -0.4924
  868MOL0     N14461  10.749   4.494   2.955  0.3980  0.1720  0.4220
  868MOL0     C14462  10.667   4.463   3.059  0.3318  0.1482  0.1592
  868MOL0     C14463  10.730   4.368   3.131 -1.5780  0.4217  0.7829
  868MOL0     C14464  10.677   4.288   3.251  0.3547  0.0227  0.6308
  868MOL0     C14465  10.728   4.354   3.380 -0.3912  0.7771 -0.2786
  868MOL0     C14466  10.693   4.499   3.422  0.2306  0.9903  0.1834
  868MOL0     C14467  10.552   4.511   3.469 -0.1988  0.1490 -0.1748
  868MOL0     O14468  10.461   4.497   3.357  0.3569  0.3866  0.0324
  868MOL0     C14469  10.322   4.501   3.380 -0.3378  0.2419 -0.6698
  868MOL0     C14470  10.229   4.488   3.272  0.1667  0.3966  0.1235
  868MOL0     C14471  10.092   4.501   3.290 -1.1107 -0.5713 -0.4921
  868MOL0     C14472  10.048   4.535   3.414  0.4639 -0.4354 -0.1730
  868MOL0     C14473   9.900   4.553   3.429  1.1336  0.3725  0.2739
  868MOL0     O14474   9.859   4.583   3.551  0.1992 -0.2471 -0.3352
  868MOL0     C14475   9.734   4.617   3.570  0.2764 -0.3502  0.5133
  868MOL0     C14476   9.635   4.514   3.546 -0.4275 -0.6183 -0.4382
  868MOL0     C14477   9.499   4.540   3.556 -0.7691  0.3838 -0.1266
  868MOL0     C14478   9.461   4.672   3.589  0.3153 -0.4352  0.7917
  868MOL0     O14479   9.321   4.697   3.596 -0.6359 -0.1559 -0.8322
  868MOL0     C14480   9.270   4.821   3.643  0.3131 -0.4704 -0.7511
  868MOL0     C14481   9.248   4.827   3.798  0.1948  0.1261 -0.4285
  868MOL0     C14482   9.362   4.800   3.898  0.5592 -1.5203  0.5833
  868MOL0     C14483   9.441   4.931   3.937 -0.4073  0.1918  0.9368
  868MOL0     C14484   9.547   4.919   4.047  1.1443  0.6856  0.0347
  868MOL0     C14485   9.623   5.045   4.066  0.9125 -0.4617 -0.3954
  868MOL0     C14486   9.693   5.058   4.199 -0.2480  0.5379  0.9733
  868MOL0     C14487   9.736   5.199   4.236  0.4095  0.0007 -0.0439
  868MOL0    Cl14488   9.891   5.239   4.160  0.1916 -0.3460  0.0255
  868MOL0     C14489   9.558   4.772   3.622  0.4357  0.2225  0.1377
  868MOL0     C14490   9.695   4.743   3.615 -0.3665 -0.3646  0.5148
  868MOL0     O14491   9.829   4.511   3.333 -0.4004 -0.4814 -0.5115
  868MOL0     C14492  10.132   4.542   3.526 -0.8026  0.2222 -0.2368
  868MOL0     C14493  10.268   4.527   3.504  0.3874 -0.1074 -0.1329
  868MOL0     N14494  10.854   4.338   3.067  0.5014  0.4585 -0.3817
  868MOL0     N14495  10.861   4.417   2.968  0.3442  0.4254  0.4168
  868MOL0     C14496  10.673   5.392   2.369  0.4720  0.5279 -0.5870
  868MOL0     C14497  10.770   5.351   2.277 -0.1557 -0.7710  0.7371
  868MOL0     C14498  11.121   5.158   2.096  0.2262  0.4098 -0.4250
  868MOL0     C14499  11.148   5.028   2.070  0.3625 -0.3900  0.3763
  868MOL0     C14500  11.249   4.992   1.997 -0.4233 -0.1471  0.7757
  868MOL0     C14501  11.339   5.084   1.935  0.6403  0.1424 -0.5714
  868MOL0     O14502  11.454   5.058   1.869 -0.5153 -0.0155  0.8185
  868MOL0     C14503  11.519   4.928   1.870 -0.0210 -0.2245 -0.4182
  868MOL0     C14504  11.510   4.883   1.724  0.1083  0.4070 -0.1944
  868MOL0     C14505  11.589   4.741   1.704  0.2574 -0.1039  0.4120
  868MOL0     C14506  11.562   4.675   1.566  0.6053  0.5596 -0.3314
  868MOL0     C14507  11.577   4.769   1.453 -0.4794  0.4488  0.1200
  868MOL0     C14508  11.609   4.854   1.370 -0.7059  0.8380  0.2508
  868MOL0     C14509  11.311   5.220   1.961 -0.5494  0.1545  0.0812
  868MOL0     C14510  11.202   5.260   2.040 -0.3097  0.3635  0.0431
  868MOL0     H14511  11.022   5.320   2.507 -0.7592 -1.3868  1.0467
  868MOL0     H14512  10.849   5.356   2.663 -1.2130  2.3827  1.4621
  868MOL0     H14513  10.581   5.500   2.792 -2.0510  0.7703 -1.4872
  868MOL0     H14514  10.681   5.364   2.766  0.6758 -0.0776 -1.1258
  868MOL0     H14515  10.374   5.363   2.761  1.0090  2.2341 -0.2712
  868MOL0     H14516  10.462   5.308   2.902  2.3658 -0.2188 -0.5085
  868MOL0     H14517  10.495   5.174   2.632 -0.9236  0.4611 -0.3665
  868MOL0     H14518  10.361   5.130   2.738  0.0960  1.5015  0.9565
  868MOL0     H14519  10.644   5.111   2.779 -1.0940  1.2418  1.6336
  868MOL0     H14520  10.539   5.096   2.923 -2.0658  1.4644 -0.0366
  868MOL0     H14521  10.489   4.913   2.690 -0.1603 -2.5664  0.8187
  868MOL0     H14522  10.448   4.899   2.859 -0.4694  2.7509 -0.7452
  868MOL0     H14523  10.728   4.918   2.884 -0.9596  0.2468 -0.2861
  868MOL0     H14524  10.712   4.840   2.731 -0.5014  0.8061 -1.2694
  868MOL0     H14525  10.626   4.736   3.011 -2.9153 -1.4420  0.4136
  868MOL0     H14526  10.549   4.668   2.870  0.2688  1.0439 -2.4165
  868MOL0     H14527  10.842   4.666   2.888 -0.1937 -1.1751 -1.0123
  868MOL0     H14528  10.726   4.591   2.765 -3.2420  1.3433 -0.5094
  868MOL0     H14529  10.571   4.504   3.087 -0.3359 -2.9315  3.0614
  868MOL0     H14530  10.711   4.185   3.259  1.2359  0.4069  2.2486
  868MOL0     H14531  10.568   4.295   3.259  0.5543  2.9324  2.3053
  868MOL0     H14532  10.837   4.358   3.377 -0.4151  1.8424 -0.2504
  868MOL0     H14533  10.719   4.283   3.463  1.4039  1.3468  0.4666
  868MOL0     H14534  10.737   4.531   3.517  1.2930 -0.1632  0.0946
  868MOL0     H14535  10.727   4.572   3.348  1.4429 -1.8434 -2.2730
  868MOL0     H14536  10.535   4.604   3.524 -0.2209 -0.1879  0.3957
  868MOL0     H14537  10.538   4.421   3.529  0.3566 -2.7192 -3.9364
  868MOL0     H14538  10.263   4.468   3.170 -0.3487  1.0704 -0.1854
  868MOL0     H14539  10.035   4.478   3.200  0.3460 -3.2831 -0.8300
  868MOL0     H14540   9.667   4.416   3.512 -2.2608 -1.3596 -0.1834
  868MOL0     H14541   9.423   4.466   3.533  0.2562 -1.2716  1.5293
  868MOL0     H14542   9.178   4.847   3.590  1.5591  3.4401 -1.2993
  868MOL0     H14543   9.344   4.897   3.617  3.2328 -2.8631  0.0373
  868MOL0     H14544   9.170   4.752   3.813  1.7773 -1.8477 -1.5578
  868MOL0     H14545   9.217   4.929   3.823  1.0842  0.1968  0.4082
  868MOL0     H14546   9.422   4.712   3.874  0.2301 -1.5930  0.0130
  868MOL0     H14547   9.303   4.771   3.986 -1.7596 -0.2691 -0.4623
  868MOL0     H14548   9.490   4.954   3.842 -1.1946 -1.4789  0.0718
  868MOL0     H14549   9.371   5.011   3.962 -1.1240 -0.5735  1.4277
  868MOL0     H14550   9.611   4.834   4.020  0.1472 -0.3682  0.8643
  868MOL0     H14551   9.508   4.882   4.143  0.8354  2.0216  0.4455
  868MOL0     H14552   9.567   5.135   4.038  0.3499 -1.0428 -1.1996
  868MOL0     H14553   9.698   5.047   3.987  2.2074  0.0029  0.7935
  868MOL0     H14554   9.624   5.020   4.275 -1.1658 -0.9642 -0.5465
  868MOL0     H14555   9.775   4.988   4.215 -0.6267  0.1940  1.4524
  868MOL0     H14556   9.761   5.211   4.342  0.4356  0.4269 -0.0975
  868MOL0     H14557   9.661   5.275   4.215  0.3815  0.1839  0.6766
  868MOL0     H14558   9.534   4.871   3.659  0.4347  0.7266 -1.1715
  868MOL0     H14559   9.773   4.814   3.640 -0.3991  0.1496 -0.7753
  868MOL0     H14560  10.084   4.551   3.624 -2.2136  1.6342 -0.9968
  868MOL0     H14561  10.337   4.528   3.589  0.0545  1.9612  0.1631
  868MOL0     H14562  10.578   5.385   2.316  0.0764 -3.7714  0.3406
  868MOL0     H14563  10.737   5.351   2.173 -0.3549  4.4367  0.5214
  868MOL0     H14564  11.098   4.945   2.119  0.3412 -0.2256  0.6311
  868MOL0     H14565  11.271   4.885   1.995  0.4459  0.0459 -0.0515
  868MOL0     H14566  11.467   4.851   1.928  1.8095 -0.6981  0.6680
  868MOL0     H14567  11.619   4.941   1.911 -0.7785  2.0352  0.8579
  868MOL0     H14568  11.405   4.883   1.693  0.5475  0.6349 -1.7724
  868MOL0     H14569  11.552   4.955   1.653 -2.3055 -1.3838 -3.7439
  868MOL0     H14570  11.560   4.672   1.784 -1.2249  2.5213  2.2781
  868MOL0     H14571  11.694   4.769   1.714 -0.0756  0.8895  1.4055
  868MOL0     H14572  11.630   4.589   1.564 -0.1929 -0.1437  0.8706
  868MOL0     H14573  11.457   4.647   1.557  1.3038 -1.6636 -3.1508
  868MOL0     H14574  11.639   4.923   1.295 -2.5607 -1.8095 -3.2018
  868MOL0     H14575  11.368   5.298   1.912  0.9851 -1.1223 -0.2496
  868MOL0     H14576  11.195   5.364   2.070  0.5972  0.9550 -1.6609
  869MOL0     O14577   7.775   0.627   8.578 -0.1907 -0.7842  0.1237
  869MOL0     C14578   7.836   0.627   8.682  0.0721 -0.4753 -0.5496
  869MOL0     O14579   7.790   0.651   8.814  0.2847  0.3336  0.0147
  869MOL0     C14580   7.665   0.706   8.822 -0.2695  0.2496  0.2951
  869MOL0     C14581   7.651   0.830   8.761 -0.2940 -0.1038  0.6982
  869MOL0     C14582   7.535   0.900   8.759  0.3878 -0.1762  0.7130
  869MOL0     C14583   7.426   0.845   8.829 -0.8583  0.4160 -0.1159
  869MOL0     O14584   7.308   0.916   8.819 -0.2956  0.9436 -0.0807
  869MOL0     C14585   7.195   0.880   8.898  0.3246  0.4475  0.2430
  869MOL0     C14586   7.095   1.000   8.908 -1.0120  0.4712  0.3565
  869MOL0     C14587   6.979   0.962   8.987  0.5032  0.6393 -0.7381
  869MOL0     C14588   6.886   1.086   9.007  0.9512  0.0502 -1.1127
  869MOL0     C14589   6.750   1.051   9.080 -0.0138 -0.0907 -0.4230
  869MOL0     C14590   6.654   1.169   9.086  0.0116 -0.4416 -0.0936
  869MOL0     C14591   6.521   1.127   9.144  0.5419 -0.1208 -0.4261
  869MOL0     C14592   6.424   1.248   9.136 -0.8750  0.0131  0.7416
  869MOL0     N14593   6.297   1.210   9.199  0.0412  0.1898 -0.0767
  869MOL0     C14594   6.216   1.117   9.148  0.1796 -0.7430 -0.5690
  869MOL0     C14595   6.122   1.089   9.230 -0.0482  0.3338 -1.0604
  869MOL0     C14596   6.013   0.997   9.197  0.3086 -0.0019 -0.6443
  869MOL0     C14597   5.888   1.020   9.289  0.1828 -0.5402 -0.3088
  869MOL0     C14598   5.774   0.927   9.269 -0.5120  0.1333  0.4211
  869MOL0     C14599   5.660   0.932   9.369  0.2505 -0.9773 -0.2250
  869MOL0     O14600   5.555   0.831   9.347  0.0374 -0.2880 -0.3435
  869MOL0     C14601   5.445   0.813   9.429  0.3624 -0.8703  0.4849
  869MOL0     C14602   5.431   0.882   9.555  0.5205  0.1593  0.6615
  869MOL0     C14603   5.335   0.843   9.654  0.1122 -0.6572  0.2480
  869MOL0     C14604   5.252   0.733   9.630 -0.4897  0.5019 -0.5172
  869MOL0     C14605   5.159   0.677   9.727 -0.7367  0.7571 -0.8223
  869MOL0     O14606   5.162   0.728   9.861 -0.4706  0.7199 -0.0984
  869MOL0     C14607   5.082   0.681   9.964  0.1385 -0.5436 -0.2309
  869MOL0     C14608   4.950   0.729   9.982  0.2243 -0.1978 -0.6714
  869MOL0     C14609   4.873   0.677  10.090  0.0960 -0.1552 -0.2108
  869MOL0     C14610   4.926   0.590  10.184 -0.5757 -0.0877  0.0964
  869MOL0     O14611   4.840   0.540  10.282 -0.1674 -0.1340 -0.2305
  869MOL0     C14612   4.882   0.445  10.375 -0.1073  0.0073 -0.2507
  869MOL0     C14613   4.813   0.444  10.514  0.0246 -0.3414 -0.1007
  869MOL0     C14614   4.678   0.370  10.497 -0.6479 -0.1829  0.3026
  869MOL0     C14615   4.597   0.372  10.629  1.0761 -0.6180  0.6477
  869MOL0     C14616   4.455   0.322  10.598  0.6539 -0.6406  0.7268
  869MOL0     C14617   4.371   0.330  10.716 -0.0324  0.7429 -0.0949
  869MOL0     C14618   4.236   0.260  10.699  0.4903  0.0729 -1.2605
  869MOL0     C14619   4.126   0.325  10.790  0.0210  0.3133  0.1443
  869MOL0    Cl14620   4.003   0.208  10.839  0.0317  0.2257  0.5634
  869MOL0     C14621   5.056   0.545  10.163 -0.1433 -0.0408  0.7957
  869MOL0     C14622   5.132   0.591  10.056 -0.0220 -0.0463 -0.2890
  869MOL0     O14623   5.085   0.592   9.690 -0.1505  0.1457 -0.1486
  869MOL0     C14624   5.276   0.660   9.505 -0.1777  1.0451  0.5011
  869MOL0     C14625   5.366   0.700   9.404  0.3218  0.4423 -0.1915
  869MOL0     N14626   6.142   1.170   9.340 -0.3552 -0.5044  0.2357
  869MOL0     N14627   6.247   1.240   9.315  0.1942  0.1724 -0.2902
  869MOL0     C14628   7.438   0.715   8.887  0.2062 -0.5045  0.2771
  869MOL0     C14629   7.559   0.646   8.887  0.2597  0.2570 -0.2894
  869MOL0     C14630   7.979   0.593   8.665 -0.2297 -0.0321  0.3037
  869MOL0     C14631   8.044   0.557   8.779 -0.2235 -0.1843 -0.1533
  869MOL0     C14632   8.179   0.519   8.783  0.0731  0.0686  0.7692
  869MOL0     C14633   8.249   0.510   8.658 -0.1089 -0.7531 -0.9759
  869MOL0     O14634   8.383   0.492   8.647  0.3097 -0.0835 -0.0069
  869MOL0     C14635   8.464   0.489   8.767 -0.2773 -0.2154 -0.1975
  869MOL0     C14636   8.608   0.545   8.738  0.3879  0.1036  0.1348
  869MOL0     C14637   8.674   0.454   8.635  0.6825 -0.0148  0.1361
  869MOL0     C14638   8.820   0.508   8.621  0.2999  0.9944 -0.7493
  869MOL0     C14639   8.897   0.433   8.530  0.0529  0.3811 -0.6092
  869MOL0     C14640   8.977   0.373   8.460  0.0632  0.5612  0.2119
  869MOL0     C14641   8.184   0.559   8.544  0.7476 -0.5986 -0.4212
  869MOL0     C14642   8.050   0.597   8.544  0.0737  0.5238 -0.1370
  869MOL0     H14643   7.734   0.870   8.705 -0.2498 -0.9218  0.1568
  869MOL0     H14644   7.522   0.992   8.704 -0.0362 -0.8356 -0.3224
  869MOL0     H14645   7.226   0.857   9.000  2.3853  4.2586  0.6895
  869MOL0     H14646   7.135   0.796   8.862 -1.4015  0.7734  2.1921
  869MOL0     H14647   7.064   1.037   8.810  0.6771 -1.8819 -1.1699
  869MOL0     H14648   7.138   1.087   8.957 -0.0860  0.5601 -0.5725
  869MOL0     H14649   7.017   0.927   9.083  1.7770 -0.5933 -1.6576
  869MOL0     H14650   6.930   0.875   8.942  2.1820 -1.2802  0.9167
  869MOL0     H14651   6.938   1.161   9.068  1.4927 -1.3202  0.1770
  869MOL0     H14652   6.861   1.129   8.909 -3.3157  4.7625  1.5371
  869MOL0     H14653   6.760   1.009   9.181  0.2815 -0.3134 -0.5452
  869MOL0     H14654   6.703   0.977   9.013  0.8699  0.1252 -1.2965
  869MOL0     H14655   6.638   1.204   8.984  2.5293  2.4066  0.3424
  869MOL0     H14656   6.699   1.253   9.139  0.5985 -0.7890 -0.0363
  869MOL0     H14657   6.472   1.037   9.105  0.3823  0.2180 -1.0165
  869MOL0     H14658   6.537   1.111   9.251  0.9221  0.7771 -0.3395
  869MOL0     H14659   6.393   1.284   9.037 -2.1083  0.8030  1.3812
  869MOL0     H14660   6.475   1.332   9.184 -0.2265 -1.9143  3.6613
  869MOL0     H14661   6.219   1.058   9.057 -5.5324 -2.4976  0.0010
  869MOL0     H14662   6.044   0.893   9.215  0.1390  0.3199  1.7786
  869MOL0     H14663   5.984   0.995   9.092  1.4214  2.9376 -1.0998
  869MOL0     H14664   5.846   1.116   9.259  4.0248  1.5143  0.1705
  869MOL0     H14665   5.912   1.018   9.396 -0.1357 -0.4781 -0.2347
  869MOL0     H14666   5.736   0.938   9.167  1.2276 -0.0829 -0.2989
  869MOL0     H14667   5.808   0.823   9.269  0.5698  0.3300 -3.5681
  869MOL0     H14668   5.620   1.033   9.358  2.5009 -0.1338 -1.3412
  869MOL0     H14669   5.712   0.920   9.465  1.9096 -0.5241 -1.0300
  869MOL0     H14670   5.496   0.967   9.576 -1.5494  2.5395 -1.8232
  869MOL0     H14671   5.318   0.899   9.746  1.1228 -0.4754  0.3389
  869MOL0     H14672   4.911   0.816   9.932  0.7778 -0.5426 -1.7290
  869MOL0     H14673   4.772   0.716  10.092 -0.1765 -0.7867 -1.1072
  869MOL0     H14674   4.988   0.465  10.393 -0.0360 -0.2056 -0.4210
  869MOL0     H14675   4.872   0.343  10.335  0.3366  0.5450 -1.8305
  869MOL0     H14676   4.796   0.543  10.557 -0.4082 -0.6139  0.3638
  869MOL0     H14677   4.884   0.386  10.575  0.8293 -2.5140 -2.8987
  869MOL0     H14678   4.706   0.267  10.476  0.5202 -0.3582  2.4017
  869MOL0     H14679   4.614   0.423  10.426 -0.3839  0.3186  0.4296
  869MOL0     H14680   4.632   0.303  10.706  0.0798 -0.9875  0.7843
  869MOL0     H14681   4.598   0.473  10.672 -0.2741 -0.0523 -0.5719
  869MOL0     H14682   4.461   0.220  10.557 -0.4256 -0.2490 -0.4360
  869MOL0     H14683   4.405   0.386  10.526  1.4530 -0.3072  0.4518
  869MOL0     H14684   4.354   0.436  10.739 -0.1115  0.5456  0.7850
  869MOL0     H14685   4.430   0.297  10.802  2.7217  2.9901 -0.9673
  869MOL0     H14686   4.194   0.273  10.598 -1.5977  2.5546 -0.1822
  869MOL0     H14687   4.246   0.153  10.716 -1.1700 -0.1478 -1.5109
  869MOL0     H14688   4.100   0.414  10.733 -0.0062 -0.5688 -1.2813
  869MOL0     H14689   4.168   0.366  10.882  1.1543 -0.4377 -0.0096
  869MOL0     H14690   5.104   0.478  10.234  0.8537  0.9984  1.1381
  869MOL0     H14691   5.231   0.553  10.033 -0.9272 -2.5928 -0.3572
  869MOL0     H14692   5.214   0.571   9.495  1.4708 -0.0989  0.1952
  869MOL0     H14693   5.371   0.642   9.312 -0.1594 -0.1027  0.1147
  869MOL0     H14694   7.348   0.671   8.929  0.9232 -1.4646  0.8409
  869MOL0     H14695   7.567   0.551   8.938  1.5415  0.4578 -0.0711
  869MOL0     H14696   7.985   0.548   8.870 -0.1125 -2.3821 -0.2559
  869MOL0     H14697   8.215   0.485   8.880 -0.5358  0.6738  1.2166
  869MOL0     H14698   8.470   0.381   8.783  0.8463 -0.2864 -1.0245
  869MOL0     H14699   8.419   0.525   8.860 -1.9385 -1.7681 -0.3421
  869MOL0     H14700   8.596   0.645   8.695  1.2891 -0.6486 -1.9820
  869MOL0     H14701   8.652   0.554   8.838 -0.6857  0.7336  0.5715
  869MOL0     H14702   8.614   0.461   8.544 -0.2785 -0.5772  0.7103
  869MOL0     H14703   8.672   0.352   8.673 -0.7306 -0.1710 -0.3153
  869MOL0     H14704   8.813   0.612   8.590 -0.2415  1.5154  1.0044
  869MOL0     H14705   8.878   0.501   8.713 -0.5810  1.0711 -0.1707
  869MOL0     H14706   9.028   0.311   8.390 -3.7042 -1.8007 -0.7280
  869MOL0     H14707   8.234   0.572   8.448 -0.7272  2.3738 -0.9027
  869MOL0     H14708   7.995   0.625   8.455 -0.7074  2.4331  0.8800
  870MOL0     O14709   1.037   1.810   9.515  0.8541 -0.1634 -0.0331
  870MOL0     C14710   0.987   1.900   9.451 -0.1105 -0.3139 -0.1007
  870MOL0     O14711   1.053   1.982   9.360 -0.1370  0.7854 -0.1375
  870MOL0     C14712   1.187   1.965   9.338 -1.0905  0.8213  0.2791
  870MOL0     C14713   1.236   1.862   9.245  0.5504  0.0205  0.5764
  870MOL0     C14714   1.374   1.854   9.228  0.2473 -0.4301  0.7019
  870MOL0     C14715   1.461   1.925   9.300  0.0053 -0.5157  1.3549
  870MOL0     O14716   1.594   1.909   9.258 -0.2547 -0.7541 -0.1000
  870MOL0     C14717   1.687   2.001   9.317  0.9799  0.5332 -0.0254
  870MOL0     C14718   1.826   1.982   9.261 -0.5978 -0.1798  0.3550
  870MOL0     C14719   1.829   2.000   9.107 -0.5314  0.8501  0.6518
  870MOL0     C14720   1.970   1.972   9.062  0.8292  0.0283  0.8202
  870MOL0     C14721   2.061   2.103   9.083 -0.2352 -0.3358 -0.8142
  870MOL0     C14722   2.205   2.075   9.067 -0.3573 -0.8072  0.4893
  870MOL0     C14723   2.239   2.021   8.923  0.2402  0.2155 -0.6709
  870MOL0     C14724   2.384   1.967   8.924 -0.0225  0.0584 -0.6691
  870MOL0     N14725   2.409   1.838   8.997  0.8929 -0.5895  0.2723
  870MOL0     C14726   2.323   1.730   9.008  0.0415 -0.4691 -0.4252
  870MOL0     C14727   2.402   1.645   9.083  0.8198  0.6685 -0.0914
  870MOL0     C14728   2.363   1.503   9.116  0.0876 -0.3973  1.0381
  870MOL0     C14729   2.349   1.489   9.269  0.3879 -0.3466  0.5576
  870MOL0     C14730   2.286   1.353   9.301  0.4781  0.1571  0.7706
  870MOL0     C14731   2.237   1.352   9.450 -0.9427  1.0003 -0.2002
  870MOL0     O14732   2.203   1.221   9.490 -0.5425 -0.1600  0.0091
  870MOL0     C14733   2.071   1.186   9.487  0.1546  1.0262 -0.2374
  870MOL0     C14734   1.977   1.252   9.563 -0.7468  0.2598 -0.9451
  870MOL0     C14735   1.841   1.227   9.540 -0.1389  1.1903 -0.4371
  870MOL0     C14736   1.797   1.127   9.451  0.1057  0.6391  0.1092
  870MOL0     C14737   1.646   1.116   9.430  0.3592  0.1599  0.1351
  870MOL0     O14738   1.567   1.223   9.458 -0.2137  0.4913  0.2039
  870MOL0     C14739   1.429   1.202   9.448 -0.5526 -0.1990  0.7692
  870MOL0     C14740   1.352   1.206   9.566  0.0607 -0.4598  0.3887
  870MOL0     C14741   1.213   1.197   9.561 -0.4842 -0.2417 -0.2918
  870MOL0     C14742   1.144   1.183   9.433  0.0071 -0.1056  0.2024
  870MOL0     O14743   1.006   1.168   9.417  0.6094  0.3706 -1.2658
  870MOL0     C14744   0.939   1.132   9.538 -0.4950  0.9505 -0.3434
  870MOL0     C14745   0.795   1.137   9.513 -0.6680 -1.2701  0.4038
  870MOL0     C14746   0.749   1.033   9.413 -0.6094  0.3422  0.2255
  870MOL0     C14747   0.597   1.024   9.419  0.2943 -0.3691 -0.0394
  870MOL0     C14748   0.533   1.161   9.372 -0.1802 -0.6793  0.1916
  870MOL0     C14749   0.391   1.139   9.327  0.5534 -0.4767  0.0336
  870MOL0     C14750   0.349   1.271   9.262  0.2560 -0.4946 -0.1949
  870MOL0     C14751   0.206   1.268   9.196  0.4060  0.4245 -0.3519
  870MOL0    Cl14752   0.218   1.155   9.062  0.3875  0.0140  0.4047
  870MOL0     C14753   1.220   1.187   9.323  0.3735  0.0504 -0.3916
  870MOL0     C14754   1.362   1.194   9.325 -0.2543  0.2960  0.3136
  870MOL0     O14755   1.609   1.003   9.390 -0.5520  0.1669  0.1013
  870MOL0     C14756   1.896   1.044   9.396 -0.5244 -0.0754 -0.3908
  870MOL0     C14757   2.033   1.081   9.406 -0.0520 -0.0770 -0.5039
  870MOL0     N14758   2.525   1.700   9.117 -0.5523 -0.2322  0.9594
  870MOL0     N14759   2.528   1.820   9.063  0.7787 -0.1433 -0.0991
  870MOL0     C14760   1.419   2.017   9.397  0.4732 -0.9179 -0.4305
  870MOL0     C14761   1.281   2.043   9.410 -0.1683 -0.5349  0.2852
  870MOL0     C14762   0.842   1.933   9.457 -0.1241  0.1381 -0.5429
  870MOL0     C14763   0.751   1.852   9.517 -0.2924 -1.0084 -0.3343
  870MOL0     C14764   0.618   1.892   9.536  0.1852 -0.5759 -0.5366
  870MOL0     C14765   0.566   2.022   9.488 -0.0362  0.8019 -0.6093
  870MOL0     O14766   0.434   2.043   9.527 -0.0506 -0.0412  0.7664
  870MOL0     C14767   0.361   2.163   9.491 -0.9199 -0.1095  0.6552
  870MOL0     C14768   0.321   2.234   9.621  1.1690 -0.8469  0.2659
  870MOL0     C14769   0.253   2.154   9.727  0.3802 -0.7782 -0.1332
  870MOL0     C14770   0.211   2.253   9.829  0.4311  0.0441 -0.5755
  870MOL0     C14771   0.146   2.171   9.930 -0.1022 -0.4715 -0.1436
  870MOL0     C14772   0.091   2.108  10.019  0.1321  0.3738 -0.0567
  870MOL0     C14773   0.665   2.103   9.435  0.1408  0.3941 -0.0442
  870MOL0     C14774   0.794   2.057   9.411 -0.5073  0.0231 -0.3428
  870MOL0     H14775   1.176   1.807   9.174  1.4502 -0.7017  0.3570
  870MOL0     H14776   1.408   1.779   9.156 -0.7588  1.9231 -2.4376
  870MOL0     H14777   1.683   1.997   9.426  0.0730  2.2180  0.0383
  870MOL0     H14778   1.640   2.098   9.302  0.2077  0.5923  2.4639
  870MOL0     H14779   1.862   1.880   9.275  0.2768 -0.6626 -3.8681
  870MOL0     H14780   1.897   2.048   9.311  0.7208  0.5397 -2.2996
  870MOL0     H14781   1.795   2.098   9.071  0.8427 -0.5898 -5.7995
  870MOL0     H14782   1.772   1.921   9.059  0.7239 -0.3272  1.0356
  870MOL0     H14783   2.007   1.883   9.113 -0.3727 -0.6010  0.6410
  870MOL0     H14784   1.966   1.948   8.955 -1.6099 -0.5977  0.9853
  870MOL0     H14785   2.043   2.150   9.180 -1.7154 -3.6322  0.6653
  870MOL0     H14786   2.035   2.182   9.012  0.3166  1.4177  0.8783
  870MOL0     H14787   2.236   2.012   9.151 -1.5693 -0.2157  1.4169
  870MOL0     H14788   2.253   2.173   9.074 -1.8338  0.0617 -0.8979
  870MOL0     H14789   2.171   1.939   8.898 -0.1697  0.8349 -1.6396
  870MOL0     H14790   2.221   2.106   8.857  0.1630  0.4952 -0.2988
  870MOL0     H14791   2.449   2.046   8.965 -0.6740  0.6630 -0.7880
  870MOL0     H14792   2.405   1.958   8.817 -1.2321 -1.8977 -0.7845
  870MOL0     H14793   2.217   1.715   8.990 -0.0104 -2.8625  1.3520
  870MOL0     H14794   2.451   1.442   9.092 -0.3215 -0.9593  0.9611
  870MOL0     H14795   2.280   1.466   9.055  0.5944 -0.2106  0.2186
  870MOL0     H14796   2.290   1.571   9.311  0.0200 -0.4738  0.3023
  870MOL0     H14797   2.448   1.499   9.315 -0.0969  1.2051  1.3093
  870MOL0     H14798   2.206   1.324   9.233  1.8191 -4.0679  0.7252
  870MOL0     H14799   2.355   1.270   9.286  2.4973  1.9658 -0.6326
  870MOL0     H14800   2.151   1.419   9.464 -2.1046  0.0054 -2.2018
  870MOL0     H14801   2.325   1.382   9.507 -2.8723  0.1505  3.5124
  870MOL0     H14802   2.004   1.320   9.643 -2.5025 -0.1312  0.0306
  870MOL0     H14803   1.760   1.279   9.590 -1.3442 -1.6526  0.7995
  870MOL0     H14804   1.401   1.228   9.660  0.0687  1.2774  0.0124
  870MOL0     H14805   1.155   1.210   9.652  1.8803 -0.4922  1.3471
  870MOL0     H14806   0.959   1.196   9.625  1.5526 -0.2321  0.1237
  870MOL0     H14807   0.967   1.032   9.571 -0.9989  0.4748 -1.3236
  870MOL0     H14808   0.768   1.238   9.479 -2.1275 -1.9155 -0.4178
  870MOL0     H14809   0.742   1.121   9.607 -1.6553  0.8615  0.2733
  870MOL0     H14810   0.795   0.938   9.441 -0.4230  0.7523  1.3559
  870MOL0     H14811   0.794   1.057   9.315 -3.4111  1.6054 -0.8439
  870MOL0     H14812   0.561   0.944   9.353 -0.3882  0.1766 -0.3285
  870MOL0     H14813   0.565   1.002   9.521  0.3261 -0.4797 -0.0530
  870MOL0     H14814   0.592   1.193   9.285 -2.7184  2.0042 -0.6950
  870MOL0     H14815   0.534   1.242   9.444  2.5299 -0.9831  0.5993
  870MOL0     H14816   0.330   1.121   9.416  1.8386  0.6798  1.1990
  870MOL0     H14817   0.383   1.054   9.258  2.9114 -0.5397 -0.2356
  870MOL0     H14818   0.335   1.345   9.341  1.1560 -0.7223  0.1903
  870MOL0     H14819   0.420   1.308   9.187  1.3924 -0.6534  0.7755
  870MOL0     H14820   0.172   1.367   9.162 -2.1343 -0.5041 -0.7646
  870MOL0     H14821   0.137   1.236   9.275  3.0661 -1.1616  1.4515
  870MOL0     H14822   1.163   1.195   9.230 -0.7675  1.5251  0.3936
  870MOL0     H14823   1.426   1.198   9.237 -0.2005  0.7543  0.3751
  870MOL0     H14824   1.863   0.958   9.339 -0.7172 -1.0319  1.1164
  870MOL0     H14825   2.103   1.033   9.338  1.8427  2.3058 -0.3602
  870MOL0     H14826   1.479   2.083   9.458  0.4781 -1.5168  0.2272
  870MOL0     H14827   1.252   2.121   9.480 -1.5524 -0.5777 -0.2015
  870MOL0     H14828   0.777   1.754   9.556 -3.0448 -2.4480 -1.8564
  870MOL0     H14829   0.551   1.815   9.572 -1.1048  0.0593 -1.4984
  870MOL0     H14830   0.273   2.125   9.438  0.4767  0.5787 -2.4518
  870MOL0     H14831   0.409   2.228   9.416 -1.4647 -0.1316  0.2832
  870MOL0     H14832   0.412   2.274   9.665  0.6507  1.6830 -0.7452
  870MOL0     H14833   0.271   2.325   9.587  1.8465 -0.8542 -0.7964
  870MOL0     H14834   0.318   2.073   9.758  2.1148  0.2931 -0.8376
  870MOL0     H14835   0.156   2.110   9.700 -0.2631  0.3628  0.2506
  870MOL0     H14836   0.299   2.309   9.863 -1.5147  3.8943 -1.2357
  870MOL0     H14837   0.137   2.321   9.785  1.1433  0.6557 -0.8507
  870MOL0     H14838   0.039   2.063  10.101  2.8880 -0.2138  1.4769
  870MOL0     H14839   0.647   2.204   9.400  0.5918  0.9910  1.3944
  870MOL0     H14840   0.860   2.130   9.365 -0.2150  0.3878  0.6362
  871MOL0     O14841   6.553   1.859   4.682  0.0976  0.4470 -0.1206
  871MOL0     C14842   6.575   1.935   4.589  0.5127 -0.1368  0.4060
  871MOL0     O14843   6.488   2.020   4.531 -0.2203 -0.6879  0.5445
  871MOL0     C14844   6.361   2.026   4.586  0.0480 -0.0045  0.0600
  871MOL0     C14845   6.326   2.153   4.618 -0.1952 -0.6594 -0.7078
  871MOL0     C14846   6.194   2.179   4.662 -0.0752 -0.1071  0.2969
  871MOL0     C14847   6.100   2.071   4.669 -0.7401  0.4337 -0.2250
  871MOL0     O14848   5.978   2.112   4.701  0.1744  0.6712 -0.6549
  871MOL0     C14849   5.874   2.009   4.698  0.2134 -0.0636 -0.2650
  871MOL0     C14850   5.765   2.058   4.787 -0.2567  0.8627 -0.6908
  871MOL0     C14851   5.670   1.949   4.824  0.0574 -0.2955 -0.8465
  871MOL0     C14852   5.572   1.997   4.931  0.6983 -0.1298  0.1348
  871MOL0     C14853   5.439   2.026   4.860 -0.2094 -0.2017  0.0162
  871MOL0     C14854   5.331   2.060   4.968  0.0902 -0.2082  0.1642
  871MOL0     C14855   5.199   2.116   4.923 -0.1485  0.2522  0.5579
  871MOL0     C14856   5.114   2.196   5.026 -0.4332  0.9408 -1.1913
  871MOL0     N14857   4.990   2.235   4.956 -0.1555  0.5631  0.3417
  871MOL0     C14858   4.932   2.357   4.960  0.5086 -0.0351 -0.1380
  871MOL0     C14859   4.806   2.332   4.917  0.6737  0.2440 -0.0104
  871MOL0     C14860   4.695   2.427   4.899 -0.2923 -0.2662 -0.4649
  871MOL0     C14861   4.576   2.377   4.980 -0.6391 -0.7858  0.4568
  871MOL0     C14862   4.455   2.451   4.925 -0.1978 -0.3444 -0.3571
  871MOL0     C14863   4.320   2.396   4.969 -0.0654 -0.5769 -0.2125
  871MOL0     O14864   4.220   2.481   4.917  0.6364  0.1069 -0.0469
  871MOL0     C14865   4.087   2.476   4.960 -0.3080 -0.1236 -0.0366
  871MOL0     C14866   4.002   2.568   4.901 -0.1252 -0.2313 -0.2296
  871MOL0     C14867   3.864   2.571   4.930  0.3808 -0.3072  0.2538
  871MOL0     C14868   3.819   2.471   5.024  0.3265  0.0096  0.3151
  871MOL0     C14869   3.677   2.465   5.065  0.1968  0.3120 -0.2801
  871MOL0     O14870   3.606   2.573   5.034  0.2160 -0.1999  0.4475
  871MOL0     C14871   3.488   2.606   5.097 -0.5416  0.0246 -0.6093
  871MOL0     C14872   3.453   2.591   5.231  0.5488  0.2414 -1.2120
  871MOL0     C14873   3.319   2.613   5.266  0.1206  0.1117 -0.2874
  871MOL0     C14874   3.222   2.656   5.181  0.5590  0.5263 -0.2630
  871MOL0     O14875   3.094   2.687   5.227 -0.0708  0.0024 -0.6981
  871MOL0     C14876   3.030   2.799   5.157 -0.4892 -0.4074 -0.4220
  871MOL0     C14877   2.875   2.776   5.146 -1.2787  0.5031 -0.8394
  871MOL0     C14878   2.828   2.774   5.295  0.1717 -0.0039  1.3358
  871MOL0     C14879   2.672   2.765   5.295 -0.4983  0.5549 -0.1990
  871MOL0     C14880   2.625   2.771   5.441 -0.4889 -0.0997  0.7485
  871MOL0     C14881   2.503   2.692   5.470  0.2894  0.4140  0.3522
  871MOL0     C14882   2.467   2.681   5.620  0.4737  0.3267  0.0002
  871MOL0     C14883   2.335   2.604   5.640  0.4952 -0.2147  0.7175
  871MOL0    Cl14884   2.356   2.433   5.598  0.5354  0.2820  0.4656
  871MOL0     C14885   3.258   2.668   5.047 -1.2097  0.2493  0.3345
  871MOL0     C14886   3.392   2.647   5.003  0.0330 -0.1112  0.7170
  871MOL0     O14887   3.637   2.372   5.131 -0.2246  0.0719  0.4336
  871MOL0     C14888   3.913   2.376   5.089 -0.3419 -0.3976  0.3190
  871MOL0     C14889   4.048   2.385   5.056 -0.5792 -0.0129  0.8850
  871MOL0     N14890   4.790   2.195   4.886  0.3097  0.1160 -0.2575
  871MOL0     N14891   4.898   2.136   4.920 -0.4194 -0.1222 -0.3086
  871MOL0     C14892   6.140   1.937   4.643  0.2061 -1.1614  0.1667
  871MOL0     C14893   6.279   1.917   4.603  0.7928 -0.2906 -0.7076
  871MOL0     C14894   6.715   1.941   4.548 -0.2871 -0.1491  0.4550
  871MOL0     C14895   6.756   2.046   4.460 -0.4307 -1.0252  0.3068
  871MOL0     C14896   6.896   2.065   4.425 -0.0871 -0.0180  0.4109
  871MOL0     C14897   6.990   1.973   4.468 -0.0537  0.4357 -0.4179
  871MOL0     O14898   7.119   1.997   4.429 -0.2389 -0.2875  0.7267
  871MOL0     C14899   7.228   1.907   4.444  0.0558  0.2530  0.2487
  871MOL0     C14900   7.358   1.952   4.373 -0.8562  0.9931 -0.7413
  871MOL0     C14901   7.346   1.973   4.228 -0.7569 -0.5514  0.3266
  871MOL0     C14902   7.464   2.052   4.176  0.5105 -0.2564  0.4842
  871MOL0     C14903   7.600   1.991   4.205 -0.6884 -0.3417  0.0256
  871MOL0     C14904   7.715   1.937   4.223 -0.0640 -0.6403 -0.0875
  871MOL0     C14905   6.945   1.869   4.551 -0.8605 -0.8151 -0.1175
  871MOL0     C14906   6.812   1.853   4.593 -0.4861 -0.5118 -0.4115
  871MOL0     H14907   6.399   2.230   4.597  1.4021 -1.9235  0.0411
  871MOL0     H14908   6.158   2.281   4.675 -2.1728 -0.7967  0.2235
  871MOL0     H14909   5.906   1.907   4.720  0.8764 -0.1282 -1.4213
  871MOL0     H14910   5.844   2.014   4.592 -0.0873  1.3966 -0.1327
  871MOL0     H14911   5.712   2.145   4.748 -0.0644  2.7279  2.7902
  871MOL0     H14912   5.816   2.086   4.880 -1.3607  1.5295 -0.2765
  871MOL0     H14913   5.732   1.869   4.866  1.7982  0.3529 -2.0644
  871MOL0     H14914   5.617   1.910   4.736  0.2581 -3.5168  0.3169
  871MOL0     H14915   5.551   1.915   5.000  1.8191  0.8267  1.6863
  871MOL0     H14916   5.606   2.087   4.982  0.8252  2.3725 -3.8807
  871MOL0     H14917   5.407   1.938   4.803  0.1890 -1.2041  1.2796
  871MOL0     H14918   5.456   2.102   4.784  0.8099 -1.6946 -1.3281
  871MOL0     H14919   5.378   2.119   5.047  2.1264 -2.2001  0.5249
  871MOL0     H14920   5.310   1.961   5.010  0.1308 -0.1561  0.3090
  871MOL0     H14921   5.214   2.193   4.847  1.1101  1.1020  1.6241
  871MOL0     H14922   5.141   2.031   4.885 -0.5904  0.3854  0.9262
  871MOL0     H14923   5.166   2.275   5.080 -0.8522 -0.0758  0.7965
  871MOL0     H14924   5.083   2.121   5.099 -1.7597  0.5592 -2.0886
  871MOL0     H14925   4.966   2.453   4.998 -2.7087  0.7330  1.1428
  871MOL0     H14926   4.672   2.440   4.793 -0.3392 -1.4774 -0.6150
  871MOL0     H14927   4.735   2.523   4.933  1.9073 -0.0363 -3.3547
  871MOL0     H14928   4.587   2.381   5.089 -1.0036 -0.9030  0.4991
  871MOL0     H14929   4.564   2.271   4.957 -0.5321 -0.7206  0.0945
  871MOL0     H14930   4.462   2.555   4.959  1.3538 -0.2432 -0.9037
  871MOL0     H14931   4.454   2.462   4.816  0.9552  3.5871 -0.1429
  871MOL0     H14932   4.309   2.406   5.077 -2.5305  1.9290 -0.5822
  871MOL0     H14933   4.289   2.295   4.941 -3.9882  0.6444 -0.9124
  871MOL0     H14934   4.050   2.635   4.830  0.6739  1.2555  1.6257
  871MOL0     H14935   3.802   2.647   4.882  0.2965 -0.9638 -0.7062
  871MOL0     H14936   3.531   2.568   5.303 -1.1987 -0.1283  0.6747
  871MOL0     H14937   3.278   2.615   5.366 -1.9131  1.7651 -1.0994
  871MOL0     H14938   3.065   2.814   5.054  1.6417  0.7726  0.4107
  871MOL0     H14939   3.053   2.893   5.208 -0.2051 -0.9599  0.4920
  871MOL0     H14940   2.863   2.681   5.093  1.5374 -1.4923  1.7208
  871MOL0     H14941   2.829   2.862   5.097 -1.0697  1.0312 -0.1297
  871MOL0     H14942   2.857   2.870   5.340  0.3192  0.6671 -0.1342
  871MOL0     H14943   2.873   2.693   5.352  1.7506  1.1053  1.7180
  871MOL0     H14944   2.642   2.856   5.242  1.6257  0.9146 -0.8701
  871MOL0     H14945   2.625   2.686   5.235 -0.6337  1.6814 -1.6369
  871MOL0     H14946   2.613   2.878   5.462 -2.9602 -0.3375  0.7408
  871MOL0     H14947   2.702   2.734   5.510  0.7936  0.5477 -0.2896
  871MOL0     H14948   2.518   2.588   5.441 -0.3869 -0.2754  2.3732
  871MOL0     H14949   2.422   2.729   5.406 -0.8113 -1.0209  0.8687
  871MOL0     H14950   2.545   2.624   5.672 -0.7407 -2.1251 -0.7189
  871MOL0     H14951   2.461   2.783   5.660 -0.4857  1.0788 -1.9385
  871MOL0     H14952   2.269   2.659   5.573  0.9298  0.2135  0.6348
  871MOL0     H14953   2.287   2.603   5.738  0.3578 -1.8611  0.6598
  871MOL0     H14954   3.191   2.704   4.970 -1.9412  0.4042  1.0334
  871MOL0     H14955   3.424   2.653   4.899  1.2585 -0.3002  1.0634
  871MOL0     H14956   3.892   2.306   5.169 -0.1109 -2.2171 -1.1515
  871MOL0     H14957   4.120   2.316   5.099 -0.9278 -2.1891 -1.7458
  871MOL0     H14958   6.075   1.850   4.634  2.4652 -2.7229 -4.4954
  871MOL0     H14959   6.300   1.817   4.565 -4.3907 -0.7056 -3.4379
  871MOL0     H14960   6.682   2.109   4.411  1.8016 -1.2066 -3.7789
  871MOL0     H14961   6.920   2.151   4.363 -1.9299 -0.7313 -1.3873
  871MOL0     H14962   7.196   1.808   4.413  1.0717 -0.2760  0.8369
  871MOL0     H14963   7.252   1.890   4.550 -3.0069 -0.5974  0.9167
  871MOL0     H14964   7.405   2.035   4.425  1.8895 -0.6554 -0.4469
  871MOL0     H14965   7.430   1.870   4.379  0.9443  2.4819 -0.9967
  871MOL0     H14966   7.261   2.037   4.202  0.5126  1.2900  0.5306
  871MOL0     H14967   7.328   1.883   4.168 -0.1278  0.3643 -1.3013
  871MOL0     H14968   7.460   2.045   4.066  3.9130 -1.4819  0.3211
  871MOL0     H14969   7.458   2.153   4.218  1.7027  0.6466 -1.3684
  871MOL0     H14970   7.807   1.882   4.226  0.6583  0.5768  0.4849
  871MOL0     H14971   7.026   1.806   4.587 -0.1453  1.6679  3.0675
  871MOL0     H14972   6.781   1.780   4.667 -2.0967  2.4350  2.0450
  872MOL0     O14973   3.959   1.808   4.320  0.2761 -0.3013 -0.2126
  872MOL0     C14974   4.047   1.886   4.292  0.1402  0.2714  0.2592
  872MOL0     O14975   4.026   2.022   4.266  0.3258  0.1072 -0.6298
  872MOL0     C14976   3.902   2.062   4.231  0.2365 -0.3192  0.8451
  872MOL0     C14977   3.894   2.134   4.113  0.4111 -0.5184  0.6134
  872MOL0     C14978   3.771   2.171   4.055 -1.1185  0.1166  0.1570
  872MOL0     C14979   3.651   2.160   4.140 -0.2256 -0.0714 -0.4091
  872MOL0     O14980   3.524   2.208   4.110 -0.7380 -0.3104 -0.1217
  872MOL0     C14981   3.494   2.267   3.978  0.2031 -0.0007  0.3126
  872MOL0     C14982   3.446   2.156   3.877  0.5712 -0.1201 -0.5593
  872MOL0     C14983   3.385   2.225   3.752  0.2801 -0.2149  0.6770
  872MOL0     C14984   3.317   2.121   3.663  1.2301  0.2390  0.9835
  872MOL0     C14985   3.179   2.079   3.726 -0.1242  0.3106 -0.4419
  872MOL0     C14986   3.075   2.011   3.635  0.2854  0.3824 -0.3768
  872MOL0     C14987   3.010   2.107   3.540 -0.2673  0.0706  0.5811
  872MOL0     C14988   2.897   2.199   3.609  0.6289  0.1900  0.0465
  872MOL0     N14989   2.767   2.123   3.649 -0.1373 -0.6101 -0.2209
  872MOL0     C14990   2.680   2.060   3.563  0.3694  0.0398  0.1847
  872MOL0     C14991   2.581   2.012   3.645  0.5485 -0.1994 -0.4443
  872MOL0     C14992   2.452   1.941   3.594 -0.1849 -1.4480  0.1099
  872MOL0     C14993   2.356   2.048   3.534 -0.1088  0.2371  0.5405
  872MOL0     C14994   2.295   2.136   3.644  0.7805  0.3213  0.0899
  872MOL0     C14995   2.181   2.215   3.599 -0.1008  0.6007  0.4838
  872MOL0     O14996   2.154   2.310   3.702 -0.3395 -0.7580 -0.1179
  872MOL0     C14997   2.016   2.346   3.707  0.0190 -0.4237 -0.5690
  872MOL0     C14998   1.954   2.422   3.617 -0.1005 -0.1103  0.0426
  872MOL0     C14999   1.822   2.451   3.627 -0.6136  0.2953  0.6232
  872MOL0     C15000   1.741   2.380   3.718 -0.5419  0.0401  0.3232
  872MOL0     C15001   1.593   2.398   3.722  0.3941  0.8365  0.7369
  872MOL0     O15002   1.526   2.323   3.805 -0.4395 -0.0244 -0.4010
  872MOL0     C15003   1.389   2.311   3.806 -0.2993 -0.4410  0.0152
  872MOL0     C15004   1.300   2.419   3.836 -0.3113  0.1229  0.7071
  872MOL0     C15005   1.161   2.402   3.847 -0.3614 -0.4013 -0.4892
  872MOL0     C15006   1.113   2.272   3.864  0.1473  0.0088 -0.5088
  872MOL0     O15007   0.980   2.249   3.900 -0.0531 -0.0808  0.6085
  872MOL0     C15008   0.894   2.361   3.893  0.9164  0.1993  0.0276
  872MOL0     C15009   0.766   2.284   3.920 -0.1853 -0.7576  1.1016
  872MOL0     C15010   0.744   2.208   4.053 -0.5138  0.3596 -0.1186
  872MOL0     C15011   0.599   2.150   4.063  0.2969 -0.4756 -0.0748
  872MOL0     C15012   0.578   2.136   4.216  0.4802  0.2622  0.0730
  872MOL0     C15013   0.443   2.098   4.245  0.7091 -0.1908 -0.0277
  872MOL0     C15014   0.428   2.059   4.387  0.7143  0.5721 -0.0217
  872MOL0     C15015   0.284   2.002   4.417  0.6680  0.0902 -0.1169
  872MOL0    Cl15016   0.156   2.116   4.393 -0.0090  0.0969 -0.5372
  872MOL0     C15017   1.198   2.160   3.832  0.5475 -0.3927 -0.0964
  872MOL0     C15018   1.339   2.184   3.801 -0.4174  0.1248  0.8804
  872MOL0     O15019   1.536   2.480   3.652 -0.5315 -0.3979  0.9728
  872MOL0     C15020   1.806   2.296   3.809 -1.0920  0.9688 -0.1013
  872MOL0     C15021   1.945   2.286   3.804  0.1971  0.1205 -0.4711
  872MOL0     N15022   2.607   2.045   3.777 -0.0961  0.3955  0.0238
  872MOL0     N15023   2.719   2.103   3.770 -0.4392 -0.0885 -0.2165
  872MOL0     C15024   3.661   2.090   4.261  0.0089 -0.4976 -0.3037
  872MOL0     C15025   3.787   2.036   4.303  0.5504  0.4274  0.3059
  872MOL0     C15026   4.187   1.831   4.288 -0.4102  0.1161  1.1928
  872MOL0     C15027   4.220   1.693   4.304 -1.2811  0.0008 -0.2027
  872MOL0     C15028   4.351   1.656   4.307 -0.1976 -0.0623  0.8728
  872MOL0     C15029   4.452   1.750   4.282 -0.6686  0.7774 -0.2099
  872MOL0     O15030   4.585   1.720   4.288 -0.0286 -0.5513 -0.1049
  872MOL0     C15031   4.626   1.648   4.406  0.2036 -0.7157 -0.0313
  872MOL0     C15032   4.778   1.659   4.443  0.0063 -0.0479 -0.5986
  872MOL0     C15033   4.820   1.550   4.540 -0.0635 -0.4157  0.4611
  872MOL0     C15034   4.813   1.411   4.483  0.3120 -0.3020 -0.5072
  872MOL0     C15035   4.864   1.316   4.579 -0.6290  0.4326 -0.9464
  872MOL0     C15036   4.923   1.232   4.650  0.0312 -0.1372 -0.0618
  872MOL0     C15037   4.418   1.883   4.270  0.2385 -0.0363  0.3833
  872MOL0     C15038   4.289   1.922   4.272  0.1212 -0.3276  0.1323
  872MOL0     H15039   3.986   2.162   4.064 -0.5445  0.5254 -0.6775
  872MOL0     H15040   3.761   2.195   3.950 -1.1703 -1.3522 -0.1958
  872MOL0     H15041   3.585   2.318   3.946  2.3037 -1.9051  2.8871
  872MOL0     H15042   3.407   2.334   3.983  0.2145  0.0252  0.1734
  872MOL0     H15043   3.370   2.103   3.934  1.0514  1.9002  2.1843
  872MOL0     H15044   3.537   2.098   3.855  2.1010  1.3149  1.4988
  872MOL0     H15045   3.467   2.278   3.703 -0.3764 -2.4720 -3.2415
  872MOL0     H15046   3.302   2.295   3.765  0.2982  0.9135 -3.9241
  872MOL0     H15047   3.295   2.160   3.563  0.8934  1.5555  1.5499
  872MOL0     H15048   3.382   2.036   3.643  1.5950  0.7329  0.0037
  872MOL0     H15049   3.138   2.166   3.780 -0.4457 -0.9825  1.5177
  872MOL0     H15050   3.197   2.007   3.807 -1.7589  0.4477  0.0725
  872MOL0     H15051   2.990   1.965   3.686 -2.8340  2.3710 -3.3107
  872MOL0     H15052   3.121   1.933   3.573  0.9477  1.5089 -1.3438
  872MOL0     H15053   3.082   2.166   3.482  0.5071 -0.8208  0.6214
  872MOL0     H15054   2.959   2.055   3.459  1.0352 -0.4363  0.0582
  872MOL0     H15055   2.873   2.287   3.549 -0.7342 -0.4927 -0.4395
  872MOL0     H15056   2.943   2.231   3.703  0.6128  0.4378 -0.0294
  872MOL0     H15057   2.678   2.049   3.455  1.0005 -0.2348  0.2019
  872MOL0     H15058   2.411   1.888   3.681  2.5793 -1.6733  1.3717
  872MOL0     H15059   2.477   1.871   3.513  0.0289 -0.4516 -0.6991
  872MOL0     H15060   2.275   1.997   3.481 -0.4742  1.7540 -0.4400
  872MOL0     H15061   2.410   2.108   3.460 -0.3439  2.5788  2.1317
  872MOL0     H15062   2.264   2.072   3.727 -0.6823 -0.0560 -0.7196
  872MOL0     H15063   2.378   2.188   3.694  1.3794 -1.2013  0.7424
  872MOL0     H15064   2.090   2.159   3.575 -0.2032  0.1373  1.8553
  872MOL0     H15065   2.215   2.266   3.508 -1.9332 -0.0543 -0.6393
  872MOL0     H15066   1.998   2.477   3.535 -0.1843  1.7711  1.1975
  872MOL0     H15067   1.778   2.514   3.551  0.0256  0.3389  0.2813
  872MOL0     H15068   1.329   2.523   3.843 -0.7283  0.1536  2.5628
  872MOL0     H15069   1.117   2.499   3.867  0.9778 -0.6238  5.2289
  872MOL0     H15070   0.881   2.403   3.792 -1.6321 -0.6856 -0.0565
  872MOL0     H15071   0.922   2.435   3.968  0.4252  0.5219 -0.1059
  872MOL0     H15072   0.753   2.219   3.833  3.7963 -0.9740  0.4979
  872MOL0     H15073   0.686   2.359   3.922  0.6203  0.1516  4.0580
  872MOL0     H15074   0.757   2.283   4.132 -0.5639  0.3079 -0.0614
  872MOL0     H15075   0.822   2.132   4.063 -1.9707 -0.9563  1.8891
  872MOL0     H15076   0.523   2.217   4.024  1.3813  0.1844 -1.1341
  872MOL0     H15077   0.586   2.056   4.009 -0.1196 -0.2840 -0.3085
  872MOL0     H15078   0.588   2.229   4.274 -3.1422  0.8088  0.0996
  872MOL0     H15079   0.646   2.058   4.252  0.1067 -0.9517 -1.7601
  872MOL0     H15080   0.407   2.021   4.176 -1.6677  1.1873 -0.4468
  872MOL0     H15081   0.370   2.179   4.229  1.0854  0.4948  1.5225
  872MOL0     H15082   0.491   1.971   4.401 -3.0956 -2.5429 -0.6181
  872MOL0     H15083   0.454   2.143   4.451 -0.4879  0.1538  1.0706
  872MOL0     H15084   0.294   1.980   4.524 -1.3887  2.9473  0.8047
  872MOL0     H15085   0.253   1.908   4.370 -2.5133  0.8127  0.2609
  872MOL0     H15086   1.161   2.059   3.822 -0.8404 -0.0581  1.1496
  872MOL0     H15087   1.404   2.097   3.790  1.2053  0.9462  3.3721
  872MOL0     H15088   1.758   2.245   3.892  1.8007 -0.8298  0.6242
  872MOL0     H15089   1.986   2.221   3.881 -1.0236 -1.0156 -0.7287
  872MOL0     H15090   3.577   2.069   4.327 -0.7075 -2.6275 -1.8094
  872MOL0     H15091   3.773   1.982   4.396  0.2160 -1.5514 -0.8284
  872MOL0     H15092   4.143   1.622   4.332  0.1067 -1.3366  0.4069
  872MOL0     H15093   4.384   1.553   4.306  3.3887  0.9177 -1.4321
  872MOL0     H15094   4.589   1.546   4.397 -2.2708  0.1567 -0.6342
  872MOL0     H15095   4.569   1.694   4.486 -0.9349  0.8900 -1.6721
  872MOL0     H15096   4.844   1.651   4.356  2.0283  3.8199  0.4068
  872MOL0     H15097   4.795   1.753   4.495 -1.5781 -0.5320  0.8976
  872MOL0     H15098   4.750   1.558   4.624 -1.6549 -1.3867 -0.7369
  872MOL0     H15099   4.926   1.568   4.561  0.3448  0.9232 -2.3172
  872MOL0     H15100   4.715   1.368   4.461  0.1684  1.0794 -2.9404
  872MOL0     H15101   4.875   1.409   4.392  1.1317  0.6364  0.0191
  872MOL0     H15102   4.968   1.164   4.720  1.5738  1.1484  0.2572
  872MOL0     H15103   4.498   1.956   4.263  1.4683 -1.1235  2.1555
  872MOL0     H15104   4.275   2.029   4.277  1.9707 -0.1149  1.4893
  873MOL0     O15105  10.038   1.137   6.199  0.2579 -0.1532 -0.1659
  873MOL0     C15106  10.002   1.256   6.206  0.4007  0.2505 -0.1531
  873MOL0     O15107   9.877   1.293   6.247  0.3619  0.2157 -0.5229
  873MOL0     C15108   9.797   1.193   6.285  0.7477  0.5395 -0.4145
  873MOL0     C15109   9.757   1.171   6.419 -0.3698  0.1288  0.1866
  873MOL0     C15110   9.694   1.061   6.463  0.2222  0.8866  1.0922
  873MOL0     C15111   9.653   0.965   6.372 -0.4955 -0.4765  0.3196
  873MOL0     O15112   9.583   0.852   6.403  0.0186  0.3071  0.0459
  873MOL0     C15113   9.557   0.811   6.537 -0.5704 -0.1698  1.0023
  873MOL0     C15114   9.432   0.873   6.581  0.2294 -0.2304  0.2615
  873MOL0     C15115   9.310   0.778   6.558 -0.3610 -0.0974  0.1739
  873MOL0     C15116   9.183   0.822   6.630 -0.0450 -0.0385 -0.8240
  873MOL0     C15117   9.070   0.746   6.574 -0.0996 -0.7978 -0.0474
  873MOL0     C15118   8.951   0.776   6.664 -0.5898 -0.2061 -0.0295
  873MOL0     C15119   8.829   0.795   6.576 -0.3289  0.1651  0.2730
  873MOL0     C15120   8.708   0.782   6.651 -0.3711  0.8043 -1.1814
  873MOL0     N15121   8.590   0.787   6.556  0.2175  1.0020  0.0561
  873MOL0     C15122   8.505   0.895   6.541 -0.5051 -0.3511 -0.0261
  873MOL0     C15123   8.394   0.849   6.479  0.6865 -0.0949  0.6356
  873MOL0     C15124   8.274   0.922   6.436  0.9996 -0.8044 -0.0871
  873MOL0     C15125   8.163   0.843   6.365  0.2562 -0.1382  0.4668
  873MOL0     C15126   8.027   0.916   6.325 -0.7639  0.2932  0.7235
  873MOL0     C15127   7.914   0.823   6.280  0.1350  0.6900 -0.2023
  873MOL0     O15128   7.809   0.903   6.214 -0.3159  0.0735  0.2472
  873MOL0     C15129   7.678   0.862   6.183  0.3715 -0.2357  1.5505
  873MOL0     C15130   7.641   0.731   6.221 -0.3646  0.5371  0.1122
  873MOL0     C15131   7.512   0.685   6.192  0.1381 -0.2271 -0.5575
  873MOL0     C15132   7.424   0.770   6.120  0.0685  0.6993  0.1161
  873MOL0     C15133   7.283   0.727   6.100  0.0805  0.8393  0.8914
  873MOL0     O15134   7.249   0.607   6.159 -0.7318  0.2877 -0.8348
  873MOL0     C15135   7.136   0.535   6.126  0.0399 -1.2043  0.0445
  873MOL0     C15136   7.056   0.556   6.020 -0.1899 -0.2441  0.2542
  873MOL0     C15137   6.954   0.468   5.986  0.9784  0.2380 -0.5190
  873MOL0     C15138   6.924   0.360   6.067  0.0129 -0.0660 -0.3732
  873MOL0     O15139   6.806   0.291   6.049 -0.5609  0.1453  0.1357
  873MOL0     C15140   6.748   0.241   6.165  0.4387  0.0207 -0.5567
  873MOL0     C15141   6.600   0.245   6.142  0.8873  0.9025  0.5031
  873MOL0     C15142   6.527   0.181   6.258  0.5999  0.7113  0.2116
  873MOL0     C15143   6.375   0.160   6.244 -0.0021 -0.3473  0.2158
  873MOL0     C15144   6.307   0.077   6.354 -0.8155  0.1795  0.0352
  873MOL0     C15145   6.172   0.050   6.308  0.3702  1.3302 -0.8441
  873MOL0     C15146   6.112  -0.049   6.406  0.0912  0.0682  0.2331
  873MOL0     C15147   5.961  -0.072   6.376 -0.6975  0.5585 -0.4866
  873MOL0    Cl15148   5.961  -0.169   6.222 -0.0577  0.3982  0.0119
  873MOL0     C15149   7.010   0.333   6.176 -0.2542  0.0698 -0.9832
  873MOL0     C15150   7.117   0.420   6.194 -0.2772 -0.8397 -0.4964
  873MOL0     O15151   7.205   0.800   6.038 -0.3801 -0.0600  0.8580
  873MOL0     C15152   7.466   0.897   6.074 -0.4050 -0.3050 -0.9265
  873MOL0     C15153   7.590   0.939   6.106 -0.1941  0.3670  0.1085
  873MOL0     N15154   8.415   0.711   6.455  0.1718 -0.8524 -0.2251
  873MOL0     N15155   8.528   0.672   6.510  0.4997  0.1299 -0.4892
  873MOL0     C15156   9.687   0.978   6.237  0.1533  0.1451  0.1220
  873MOL0     C15157   9.758   1.093   6.196  0.0006  0.4307 -0.1354
  873MOL0     C15158  10.082   1.362   6.142 -0.0947 -0.1335 -0.1565
  873MOL0     C15159  10.211   1.327   6.087  0.0695 -0.6410  0.4588
  873MOL0     C15160  10.302   1.415   6.026  0.6234 -0.6139  0.3576
  873MOL0     C15161  10.268   1.555   6.019  0.0158  0.1211 -0.4319
  873MOL0     O15162  10.355   1.646   5.969  0.4112 -0.1973  1.0079
  873MOL0     C15163  10.375   1.769   6.041 -0.8919 -0.0442  0.3117
  873MOL0     C15164  10.510   1.822   5.999  0.1768 -0.5485 -0.0464
  873MOL0     C15165  10.623   1.728   6.032  0.7288  0.4656  0.1004
  873MOL0     C15166  10.761   1.786   6.013 -0.1056 -0.9950  0.0564
  873MOL0     C15167  10.846   1.681   6.068 -0.0330 -0.7299  0.7404
  873MOL0     C15168  10.917   1.608   6.131 -0.3373 -0.0857  0.2644
  873MOL0     C15169  10.133   1.589   6.050  0.0233  0.5307 -0.1872
  873MOL0     C15170  10.043   1.493   6.106 -0.4105 -0.6075 -0.6128
  873MOL0     H15171   9.775   1.240   6.501 -1.4426 -1.3063  1.7045
  873MOL0     H15172   9.649   1.058   6.562 -3.0671 -1.0587 -0.3068
  873MOL0     H15173   9.642   0.837   6.601  0.7352 -0.0389 -0.7053
  873MOL0     H15174   9.558   0.702   6.542  3.4208 -0.5157 -2.0350
  873MOL0     H15175   9.403   0.966   6.530 -3.9813 -1.6413 -0.3417
  873MOL0     H15176   9.446   0.884   6.689 -1.4223 -0.9074  0.5809
  873MOL0     H15177   9.346   0.684   6.601  2.8936  0.1851 -1.5581
  873MOL0     H15178   9.300   0.768   6.450 -0.4190  0.0642  0.1649
  873MOL0     H15179   9.191   0.802   6.737 -2.9809 -0.7386 -0.6286
  873MOL0     H15180   9.168   0.930   6.622 -1.5331 -0.2197 -0.8464
  873MOL0     H15181   9.103   0.643   6.562  3.2109  0.0266  0.8178
  873MOL0     H15182   9.055   0.786   6.473  0.5626 -3.5473 -1.3096
  873MOL0     H15183   8.967   0.859   6.733 -1.9578 -2.6140  3.5051
  873MOL0     H15184   8.939   0.692   6.734 -0.9671  0.4662  0.7263
  873MOL0     H15185   8.840   0.891   6.525 -0.6916  0.0304 -0.0609
  873MOL0     H15186   8.821   0.720   6.497  2.8691 -1.2989  1.1672
  873MOL0     H15187   8.700   0.868   6.720  0.5247  1.6772 -2.1438
  873MOL0     H15188   8.711   0.687   6.705  1.2736  1.4751 -0.0272
  873MOL0     H15189   8.527   0.999   6.565  1.7323 -0.5211 -1.0756
  873MOL0     H15190   8.315   0.998   6.368  1.3334 -0.3350  0.6225
  873MOL0     H15191   8.232   0.982   6.518 -2.4888 -0.0518 -2.2186
  873MOL0     H15192   8.127   0.765   6.433  1.5739 -2.2202 -1.1271
  873MOL0     H15193   8.211   0.793   6.282  0.5136  0.0275  0.5162
  873MOL0     H15194   8.001   0.971   6.416  1.1510  0.3828  1.2682
  873MOL0     H15195   8.062   0.982   6.246  0.3366 -0.9563  0.1239
  873MOL0     H15196   7.879   0.770   6.369  0.3945  1.3267  0.2847
  873MOL0     H15197   7.939   0.737   6.216 -0.1153  0.4440  0.0243
  873MOL0     H15198   7.707   0.671   6.284 -0.7499 -1.2559 -1.1131
  873MOL0     H15199   7.477   0.595   6.240 -1.2193  0.4933 -0.1535
  873MOL0     H15200   7.063   0.635   5.945 -1.8849 -3.2046 -3.3119
  873MOL0     H15201   6.886   0.482   5.903  0.2147 -0.5579 -0.0441
  873MOL0     H15202   6.762   0.303   6.254 -0.4167 -0.1776 -0.2803
  873MOL0     H15203   6.777   0.139   6.192  0.9682  0.5742  1.1227
  873MOL0     H15204   6.578   0.192   6.049 -2.4154  0.6253  1.3169
  873MOL0     H15205   6.568   0.348   6.127 -1.6382 -0.1332 -2.1734
  873MOL0     H15206   6.540   0.245   6.345  1.4900  0.4019  0.3130
  873MOL0     H15207   6.563   0.079   6.276  1.9405  0.9333 -1.0413
  873MOL0     H15208   6.326   0.258   6.249  0.0533 -0.1761 -1.8319
  873MOL0     H15209   6.351   0.110   6.150 -0.5813 -0.2669  0.3204
  873MOL0     H15210   6.316   0.124   6.453 -0.3738  0.1227  0.0243
  873MOL0     H15211   6.368  -0.013   6.355 -0.7169  0.1781 -2.2569
  873MOL0     H15212   6.167  -0.006   6.215 -2.8920 -2.0124  1.0754
  873MOL0     H15213   6.117   0.145   6.307 -0.2428  1.0216  0.6814
  873MOL0     H15214   6.164  -0.145   6.401  1.4265  0.8002 -0.5506
  873MOL0     H15215   6.121  -0.014   6.509 -1.0922  0.1062  0.3475
  873MOL0     H15216   5.901   0.019   6.364 -0.2864  1.1712  1.6730
  873MOL0     H15217   5.913  -0.126   6.459 -1.9411  2.8419  0.3725
  873MOL0     H15218   6.997   0.259   6.255 -1.3857  1.2822  0.0120
  873MOL0     H15219   7.190   0.403   6.273  0.4912  1.8700 -0.5226
  873MOL0     H15220   7.404   0.969   6.021 -0.7104 -0.5056 -0.8455
  873MOL0     H15221   7.631   1.036   6.080 -0.4543  0.6682  0.7956
  873MOL0     H15222   9.676   0.893   6.171 -1.4042  1.0073 -0.7809
  873MOL0     H15223   9.797   1.099   6.095  1.7331  2.1901  0.5907
  873MOL0     H15224  10.248   1.226   6.097  1.3674 -0.1403  0.9741
  873MOL0     H15225  10.395   1.376   5.988  1.3027  0.1377  1.1972
  873MOL0     H15226  10.356   1.761   6.148 -2.3441 -1.6278 -0.0228
  873MOL0     H15227  10.300   1.843   6.011 -2.0959 -1.5300 -0.4935
  873MOL0     H15228  10.515   1.856   5.896 -0.4493  0.0336  0.1130
  873MOL0     H15229  10.527   1.919   6.046  0.4357 -1.1650  1.1942
  873MOL0     H15230  10.623   1.635   5.975  1.0438 -0.2853  1.3032
  873MOL0     H15231  10.603   1.697   6.135 -0.2363  0.2675 -0.1302
  873MOL0     H15232  10.787   1.826   5.914 -2.0792  0.3146  0.0162
  873MOL0     H15233  10.785   1.874   6.074  2.4818 -0.2183 -1.8919
  873MOL0     H15234  10.973   1.552   6.203  0.5428  2.5967  1.8249
  873MOL0     H15235  10.092   1.690   6.041 -0.3744  0.2696 -1.6116
  873MOL0     H15236   9.943   1.521   6.137  0.0538  0.5775 -0.1134
  874MOL0     O15237  10.900   1.579   1.905  0.6804  0.7725 -0.4273
  874MOL0     C15238  10.944   1.483   1.968  0.3763  0.0606 -0.4793
  874MOL0     O15239  10.924   1.349   1.940  0.2509 -0.0646  0.1258
  874MOL0     C15240  10.857   1.296   1.831  0.2295  0.0614 -0.1257
  874MOL0     C15241  10.818   1.363   1.714  0.3546  0.3665 -0.4502
  874MOL0     C15242  10.763   1.289   1.611  0.0087  0.1998 -0.4642
  874MOL0     C15243  10.758   1.146   1.612 -0.2227 -0.0738  0.5330
  874MOL0     O15244  10.705   1.074   1.501 -0.2672  0.3648  0.5337
  874MOL0     C15245  10.639   0.948   1.537  0.3172 -0.9757  0.2160
  874MOL0     C15246  10.583   0.901   1.401  0.2832  0.9459  0.0586
  874MOL0     C15247  10.510   0.772   1.428  0.0843 -0.1753 -0.1138
  874MOL0     C15248  10.457   0.722   1.288  0.4179  0.0558 -0.4989
  874MOL0     C15249  10.416   0.570   1.289 -0.2853  0.1007 -0.4491
  874MOL0     C15250  10.317   0.538   1.397  0.5923 -0.2612  0.3253
  874MOL0     C15251  10.208   0.446   1.344 -0.2895 -0.2960 -0.0700
  874MOL0     C15252  10.099   0.395   1.447 -0.1901 -0.0392 -0.1456
  874MOL0     N15253  10.013   0.282   1.399 -0.0887 -0.5794  0.4984
  874MOL0     C15254   9.932   0.284   1.285 -0.4985 -0.0467 -0.5886
  874MOL0     C15255   9.877   0.159   1.281 -0.3479  0.3663 -0.8580
  874MOL0     C15256   9.778   0.115   1.182  0.0388  0.6123  0.1725
  874MOL0     C15257   9.833   0.035   1.063 -0.0359 -0.7555 -0.1186
  874MOL0     C15258   9.744  -0.083   1.008 -0.9346 -0.1530 -0.8667
  874MOL0     C15259   9.617  -0.032   0.947 -0.7718 -0.0313  0.5003
  874MOL0     O15260   9.536  -0.150   0.947  0.0798  0.0516 -0.5081
  874MOL0     C15261   9.404  -0.130   0.926 -0.2940 -0.1292 -0.1735
  874MOL0     C15262   9.352  -0.210   0.825  1.0059 -0.3836 -0.5058
  874MOL0     C15263   9.216  -0.204   0.788 -0.3172 -0.8214  0.0969
  874MOL0     C15264   9.132  -0.105   0.842 -0.3869  0.3499 -0.2343
  874MOL0     C15265   8.991  -0.104   0.815 -0.0668  0.0803  0.5478
  874MOL0     O15266   8.946  -0.204   0.734  0.7959  0.5375  0.2281
  874MOL0     C15267   8.809  -0.207   0.716  0.0624 -0.2131 -0.8663
  874MOL0     C15268   8.735  -0.099   0.674 -0.1734 -0.5333 -0.5260
  874MOL0     C15269   8.603  -0.125   0.635 -1.2859 -0.2938 -0.7659
  874MOL0     C15270   8.546  -0.247   0.625  0.3495 -0.3975  0.6824
  874MOL0     O15271   8.411  -0.263   0.584  0.3742  0.0649  0.6738
  874MOL0     C15272   8.316  -0.157   0.568 -0.8250 -0.4048 -0.7940
  874MOL0     C15273   8.176  -0.198   0.532  0.3875 -0.3969 -0.2821
  874MOL0     C15274   8.089  -0.204   0.657  0.2823 -0.6340  0.5482
  874MOL0     C15275   7.943  -0.229   0.623  0.0051  0.2753 -0.4018
  874MOL0     C15276   7.847  -0.237   0.742 -0.1150 -0.5361 -0.0634
  874MOL0     C15277   7.706  -0.290   0.706 -0.3020  0.4462  0.7258
  874MOL0     C15278   7.699  -0.435   0.661 -0.5524  0.2577 -0.2615
  874MOL0     C15279   7.576  -0.515   0.722  0.3483  0.4138  0.5312
  874MOL0    Cl15280   7.420  -0.442   0.663  0.1033  0.3520  0.0137
  874MOL0     C15281   8.620  -0.351   0.665 -0.4186  0.5840 -0.3779
  874MOL0     C15282   8.753  -0.333   0.706 -1.9205  0.3194 -0.3629
  874MOL0     O15283   8.924  -0.020   0.874 -0.0185  0.3223 -0.3687
  874MOL0     C15284   9.186  -0.028   0.952 -0.4181  0.6872 -0.6407
  874MOL0     C15285   9.319  -0.039   0.986  0.0308 -0.2656  0.4255
  874MOL0     N15286   9.939   0.083   1.380 -0.0027 -0.1513  0.3048
  874MOL0     N15287  10.005   0.163   1.458 -0.2656 -0.3718  0.2368
  874MOL0     C15288  10.803   1.083   1.730 -0.4339  0.9512 -0.0043
  874MOL0     C15289  10.850   1.155   1.835  0.8385  0.5091  0.8570
  874MOL0     C15290  11.040   1.523   2.078  1.2020  0.3833 -0.0779
  874MOL0     C15291  11.071   1.654   2.103 -0.3594  0.1928 -0.6324
  874MOL0     C15292  11.178   1.688   2.186  0.5257 -0.2744 -0.2797
  874MOL0     C15293  11.244   1.597   2.265 -0.8204 -0.4373 -0.2535
  874MOL0     O15294  11.339   1.629   2.356  0.3083  0.0014 -0.3755
  874MOL0     C15295  11.467   1.661   2.305 -0.6537  0.5180  0.4576
  874MOL0     C15296  11.582   1.657   2.409 -0.8187  0.0938 -0.3779
  874MOL0     C15297  11.645   1.787   2.457 -0.0343  0.1431  0.5111
  874MOL0     C15298  11.540   1.863   2.550 -0.4738  0.5471  0.4896
  874MOL0     C15299  11.450   1.784   2.630  0.0854  0.6382  1.0119
  874MOL0     C15300  11.370   1.711   2.687 -0.7499 -0.5933  0.3742
  874MOL0     C15301  11.191   1.469   2.264 -0.3788  0.6924  0.4879
  874MOL0     C15302  11.106   1.429   2.158 -0.2449  0.9087  0.2094
  874MOL0     H15303  10.832   1.471   1.719  1.2773  0.1986  1.8518
  874MOL0     H15304  10.726   1.329   1.517 -0.1816 -2.3222 -1.5484
  874MOL0     H15305  10.567   0.955   1.620  3.1812  0.9971  2.7725
  874MOL0     H15306  10.702   0.865   1.569  1.9268  0.1353  0.0339
  874MOL0     H15307  10.670   0.893   1.335  0.7516 -0.3857  0.7911
  874MOL0     H15308  10.517   0.977   1.358  1.3879  1.0052 -1.6213
  874MOL0     H15309  10.430   0.797   1.499  1.0373  1.6393  0.3744
  874MOL0     H15310  10.575   0.701   1.480  0.2352  0.4856  0.6192
  874MOL0     H15311  10.369   0.780   1.261 -1.4789 -2.3264  0.2344
  874MOL0     H15312  10.534   0.745   1.213  0.8263 -0.3981 -0.2273
  874MOL0     H15313  10.505   0.511   1.314  0.4295  1.1473 -0.5030
  874MOL0     H15314  10.383   0.533   1.191  0.0199 -3.8130  0.7237
  874MOL0     H15315  10.270   0.629   1.436 -3.4454 -2.3852  0.9305
  874MOL0     H15316  10.365   0.502   1.488 -0.7634 -2.9120  0.0714
  874MOL0     H15317  10.154   0.499   1.265 -0.8284  1.8035  1.6224
  874MOL0     H15318  10.255   0.355   1.304  0.1737  0.3271 -0.9718
  874MOL0     H15319  10.025   0.475   1.454 -0.6029 -0.1879 -2.0134
  874MOL0     H15320  10.143   0.373   1.544 -0.8689  1.7575  0.6017
  874MOL0     H15321   9.897   0.367   1.224 -1.3699 -0.0538 -0.1123
  874MOL0     H15322   9.730   0.199   1.130  0.7079  0.2675 -1.0420
  874MOL0     H15323   9.707   0.047   1.231  2.2020 -0.5732  1.8702
  874MOL0     H15324   9.931  -0.010   1.082  0.7787 -0.0485 -2.2981
  874MOL0     H15325   9.857   0.107   0.984  1.8603 -0.8429  0.3311
  874MOL0     H15326   9.814  -0.136   0.943  0.9091 -0.6498  1.3916
  874MOL0     H15327   9.717  -0.150   1.090  0.2746  2.9519  2.3830
  874MOL0     H15328   9.628   0.008   0.845 -2.5032 -2.5167 -0.7547
  874MOL0     H15329   9.572   0.043   1.013  2.0076  2.0216  0.2774
  874MOL0     H15330   9.425  -0.275   0.779  3.5852 -0.1806  2.8795
  874MOL0     H15331   9.179  -0.286   0.727 -2.1968 -1.3662  1.8562
  874MOL0     H15332   8.776   0.000   0.661 -0.5034 -0.3465 -0.1656
  874MOL0     H15333   8.539  -0.044   0.602 -2.7065  0.2369  2.8589
  874MOL0     H15334   8.358  -0.097   0.486 -0.0132  0.7221  0.4092
  874MOL0     H15335   8.309  -0.090   0.654 -0.6824 -0.5229 -0.6907
  874MOL0     H15336   8.184  -0.290   0.473 -3.2155 -0.2406 -1.2306
  874MOL0     H15337   8.134  -0.130   0.457 -0.7765 -2.7032 -1.8504
  874MOL0     H15338   8.098  -0.108   0.709  2.0562  0.4823 -1.6751
  874MOL0     H15339   8.129  -0.283   0.722  3.6201 -0.0916 -0.6498
  874MOL0     H15340   7.905  -0.152   0.555  0.8395 -0.8241 -2.1907
  874MOL0     H15341   7.953  -0.315   0.556  2.4578  0.0195  0.2052
  874MOL0     H15342   7.832  -0.137   0.783 -0.9191 -1.0770  0.9976
  874MOL0     H15343   7.895  -0.291   0.824  2.0706  0.7729 -0.3835
  874MOL0     H15344   7.668  -0.228   0.624  0.2250 -1.3651 -0.9728
  874MOL0     H15345   7.650  -0.271   0.798  0.4769 -0.8499  1.4895
  874MOL0     H15346   7.688  -0.439   0.552 -1.3274 -3.4273 -0.2032
  874MOL0     H15347   7.785  -0.500   0.677  0.3179  0.9208 -1.9374
  874MOL0     H15348   7.579  -0.506   0.831 -0.3405 -1.3942  0.7292
  874MOL0     H15349   7.589  -0.620   0.694  0.7522  0.1708  1.5663
  874MOL0     H15350   8.577  -0.450   0.671 -0.6377  0.7587  1.5704
  874MOL0     H15351   8.808  -0.422   0.736 -0.5321  2.0944  2.8149
  874MOL0     H15352   9.124   0.035   1.015 -0.6101  0.1278 -0.2608
  874MOL0     H15353   9.346   0.029   1.066  0.5544  0.9046 -0.7031
  874MOL0     H15354  10.806   0.974   1.726 -0.6870  0.9688 -2.5390
  874MOL0     H15355  10.895   1.097   1.914  0.5114 -0.8643  0.0689
  874MOL0     H15356  11.018   1.735   2.054 -1.7686 -1.1718 -1.4510
  874MOL0     H15357  11.185   1.795   2.204 -2.4288 -0.1014  0.3416
  874MOL0     H15358  11.466   1.766   2.276  3.6527  0.8697  0.8550
  874MOL0     H15359  11.482   1.600   2.215 -2.0259 -1.0181  1.2207
  874MOL0     H15360  11.560   1.595   2.496 -1.7162  1.5571  0.4723
  874MOL0     H15361  11.670   1.610   2.363  0.0430 -0.3317  1.6152
  874MOL0     H15362  11.658   1.858   2.375 -1.5163  1.1715  1.1358
  874MOL0     H15363  11.740   1.779   2.510 -0.4665  0.8271  1.4142
  874MOL0     H15364  11.598   1.933   2.611 -1.9904  1.0791  1.4049
  874MOL0     H15365  11.470   1.920   2.488 -2.0717 -0.4819  1.2599
  874MOL0     H15366  11.295   1.662   2.747 -2.2789  2.8104  1.5435
  874MOL0     H15367  11.238   1.394   2.326  0.8892  0.3751 -0.8070
  874MOL0     H15368  11.088   1.322   2.160  1.3451  0.5905 -0.6408
  875MOL0     O15369   5.573   0.994   2.880 -0.2167  0.7900  0.3682
  875MOL0     C15370   5.605   0.902   2.952 -0.0484 -0.1838 -0.2316
  875MOL0     O15371   5.531   0.793   2.992 -0.1819  0.0975  0.2695
  875MOL0     C15372   5.404   0.765   2.943  0.4352 -0.0790 -0.4099
  875MOL0     C15373   5.329   0.841   2.841  0.0130  0.6203 -0.3120
  875MOL0     C15374   5.209   0.786   2.799 -0.8251 -0.1168  0.2683
  875MOL0     C15375   5.157   0.662   2.847  0.2393 -0.4435  0.0805
  875MOL0     O15376   5.044   0.617   2.788  0.0857 -0.0094 -0.4888
  875MOL0     C15377   5.005   0.479   2.800  0.1299 -0.3639  0.7914
  875MOL0     C15378   4.874   0.466   2.733  0.1208  0.2453 -0.2814
  875MOL0     C15379   4.774   0.537   2.825  1.0196 -0.6640 -0.5790
  875MOL0     C15380   4.633   0.531   2.765  0.8102  0.3251 -0.0099
  875MOL0     C15381   4.540   0.633   2.848  0.2979 -0.4652 -0.9582
  875MOL0     C15382   4.389   0.594   2.834  0.3117 -0.1103  0.1730
  875MOL0     C15383   4.300   0.712   2.886  0.6031 -0.3292  0.1121
  875MOL0     C15384   4.148   0.690   2.858  0.1901 -0.1599 -0.1780
  875MOL0     N15385   4.087   0.582   2.934  0.0718 -0.1554  0.4478
  875MOL0     C15386   3.980   0.594   3.024 -0.2314  0.9237 -1.4330
  875MOL0     C15387   3.942   0.464   3.051  0.5044 -1.0767  0.4266
  875MOL0     C15388   3.833   0.425   3.140  0.6890 -0.2060 -0.5100
  875MOL0     C15389   3.698   0.503   3.116 -0.3600  0.5218  0.0244
  875MOL0     C15390   3.586   0.426   3.188  0.0763 -0.4279  1.2014
  875MOL0     C15391   3.454   0.498   3.174  0.5232 -0.0385  0.4971
  875MOL0     O15392   3.471   0.596   3.275 -0.4529 -0.1768  0.2341
  875MOL0     C15393   3.376   0.690   3.282  0.3604 -0.1702 -0.4127
  875MOL0     C15394   3.251   0.648   3.331  0.2582  0.2371 -0.1492
  875MOL0     C15395   3.143   0.733   3.338 -0.4239 -0.5962 -0.0161
  875MOL0     C15396   3.167   0.868   3.303  0.5058 -1.2354  0.2883
  875MOL0     C15397   3.056   0.967   3.315 -0.8365 -0.1928 -0.1850
  875MOL0     O15398   2.937   0.928   3.370 -0.0102  0.1586 -0.3471
  875MOL0     C15399   2.850   1.022   3.405  0.4326  0.2493 -0.3684
  875MOL0     C15400   2.879   1.129   3.483  1.2132 -0.8055  0.6123
  875MOL0     C15401   2.779   1.216   3.524  0.5752  0.9781 -0.0750
  875MOL0     C15402   2.645   1.199   3.497  0.7854  0.4845 -0.4134
  875MOL0     O15403   2.543   1.283   3.537  0.9301 -0.1263  0.2925
  875MOL0     C15404   2.561   1.417   3.589  0.3283 -0.4422 -1.1345
  875MOL0     C15405   2.427   1.489   3.638 -0.0531  0.1316 -0.0809
  875MOL0     C15406   2.388   1.430   3.771  0.7132 -0.1194 -0.0212
  875MOL0     C15407   2.236   1.471   3.800 -0.7592  1.1801  0.1656
  875MOL0     C15408   2.191   1.404   3.928 -0.4629  0.0747 -0.3307
  875MOL0     C15409   2.146   1.261   3.906 -0.0063 -0.1128 -0.6441
  875MOL0     C15410   2.083   1.206   4.030  0.0250 -0.2875 -0.1389
  875MOL0     C15411   2.035   1.062   4.014 -0.6054  0.6945  0.4727
  875MOL0    Cl15412   2.023   0.990   4.162  0.2618  0.3316 -0.2363
  875MOL0     C15413   2.615   1.090   3.410 -0.6125 -0.4701 -0.2589
  875MOL0     C15414   2.714   1.001   3.366 -0.4018  0.3350  0.1448
  875MOL0     O15415   3.097   1.087   3.300 -0.0561  0.2781  0.0958
  875MOL0     C15416   3.295   0.908   3.251  0.1327 -0.6210 -0.9179
  875MOL0     C15417   3.398   0.815   3.240  0.3398  0.1629  0.5374
  875MOL0     N15418   4.027   0.379   2.982  0.6018  0.1561 -0.1412
  875MOL0     N15419   4.107   0.449   2.906 -0.0230 -0.3482  0.1123
  875MOL0     C15420   5.228   0.588   2.944  0.6301 -0.7309  0.8134
  875MOL0     C15421   5.349   0.646   2.994  0.4620 -0.1852 -0.3938
  875MOL0     C15422   5.748   0.896   2.997 -0.1700  0.5364  0.6173
  875MOL0     C15423   5.844   0.986   2.945  0.4532 -0.3464 -0.2095
  875MOL0     C15424   5.983   0.982   2.993  0.7745 -0.3611 -0.0270
  875MOL0     C15425   6.024   0.890   3.080 -0.3046 -0.4184  0.1804
  875MOL0     O15426   6.157   0.870   3.117  0.0768 -1.0088 -0.6736
  875MOL0     C15427   6.260   0.945   3.046 -0.1806 -0.0914 -0.7481
  875MOL0     C15428   6.394   0.911   3.120  0.6013 -0.8931 -0.2011
  875MOL0     C15429   6.486   1.034   3.119 -0.1411  0.1625  0.5713
  875MOL0     C15430   6.620   1.009   3.191  0.2333  0.2434 -0.2196
  875MOL0     C15431   6.717   1.113   3.161 -0.3335 -0.4497 -0.0472
  875MOL0     C15432   6.794   1.209   3.156 -0.2826 -0.1204  0.9814
  875MOL0     C15433   5.928   0.806   3.135 -0.0545 -0.5466  0.0314
  875MOL0     C15434   5.795   0.800   3.090  0.2102  0.2774 -0.5580
  875MOL0     H15435   5.361   0.931   2.790 -1.1246 -0.6056 -3.4366
  875MOL0     H15436   5.163   0.838   2.716  2.3715  0.1064 -1.4879
  875MOL0     H15437   4.991   0.450   2.905 -1.5699 -0.6460  0.5132
  875MOL0     H15438   5.085   0.419   2.756  0.2022  0.3296 -0.0510
  875MOL0     H15439   4.835   0.364   2.733  1.9700 -0.5223  1.2065
  875MOL0     H15440   4.868   0.506   2.632 -1.7742  0.5871 -0.0831
  875MOL0     H15441   4.801   0.642   2.835 -2.0823  0.0801  1.6118
  875MOL0     H15442   4.777   0.500   2.928  0.1904  1.5467  0.2948
  875MOL0     H15443   4.636   0.558   2.659  1.7064 -0.3407 -0.1589
  875MOL0     H15444   4.589   0.431   2.759 -3.6821  2.1088 -2.2709
  875MOL0     H15445   4.561   0.735   2.814  1.3899 -0.5056 -0.4433
  875MOL0     H15446   4.569   0.629   2.954 -1.1174  3.1708 -0.2716
  875MOL0     H15447   4.369   0.501   2.889  3.0397 -0.7698  0.2147
  875MOL0     H15448   4.372   0.583   2.727  2.2538  0.2595 -0.2136
  875MOL0     H15449   4.325   0.720   2.992 -0.3540 -0.2074  0.3313
  875MOL0     H15450   4.335   0.802   2.834 -1.2049  1.0802  1.2152
  875MOL0     H15451   4.161   0.669   2.751  3.1192  1.7555 -0.3227
  875MOL0     H15452   4.085   0.777   2.876 -2.7866 -1.9905 -1.0830
  875MOL0     H15453   3.938   0.687   3.062 -0.0634  0.9017 -1.1849
  875MOL0     H15454   3.862   0.431   3.245 -1.3764  1.0009  0.0419
  875MOL0     H15455   3.813   0.319   3.121  2.1135 -0.6703  0.4160
  875MOL0     H15456   3.683   0.500   3.008  0.8780 -0.2135 -0.1489
  875MOL0     H15457   3.700   0.606   3.154 -0.8449  0.1817  1.0106
  875MOL0     H15458   3.585   0.324   3.147  2.4216  0.1209 -0.4498
  875MOL0     H15459   3.605   0.407   3.294  0.2526 -0.0028  1.2476
  875MOL0     H15460   3.371   0.431   3.198  0.0465  0.3699  0.0154
  875MOL0     H15461   3.452   0.543   3.074  1.0936  1.9565  1.3344
  875MOL0     H15462   3.235   0.544   3.357 -2.6815  1.3958  3.3730
  875MOL0     H15463   3.046   0.703   3.377 -1.3040  1.6458 -0.3226
  875MOL0     H15464   2.981   1.148   3.512  1.0292  0.3639  0.5773
  875MOL0     H15465   2.814   1.300   3.583 -1.1425  1.9271 -0.3489
  875MOL0     H15466   2.625   1.476   3.523  0.8286 -0.9742 -1.1367
  875MOL0     H15467   2.624   1.419   3.678 -0.3042 -1.1897 -0.6601
  875MOL0     H15468   2.346   1.475   3.566  0.4319 -3.2063 -0.1350
  875MOL0     H15469   2.452   1.594   3.655 -0.2805 -0.1055  2.0417
  875MOL0     H15470   2.446   1.472   3.854  0.3118 -0.4881  0.4532
  875MOL0     H15471   2.387   1.320   3.771  0.3675 -0.1877  2.5514
  875MOL0     H15472   2.240   1.580   3.812  1.8716  1.1546  0.1977
  875MOL0     H15473   2.168   1.431   3.725 -1.3829 -0.0943  1.3763
  875MOL0     H15474   2.106   1.462   3.965  0.1662  0.1436  1.0949
  875MOL0     H15475   2.276   1.413   3.996 -0.5685 -1.7437  0.0904
  875MOL0     H15476   2.229   1.200   3.867  0.1989  0.3660 -0.9779
  875MOL0     H15477   2.062   1.254   3.837 -1.5708  1.4273  1.0126
  875MOL0     H15478   2.161   1.211   4.106 -1.2438  0.1560  1.1913
  875MOL0     H15479   1.999   1.272   4.054 -1.3528 -1.6477 -1.0107
  875MOL0     H15480   2.112   1.005   3.963 -0.9287  1.3359 -0.7772
  875MOL0     H15481   1.940   1.050   3.960  0.5624 -0.9808 -1.3574
  875MOL0     H15482   2.511   1.080   3.380 -0.7495 -0.2158  0.1204
  875MOL0     H15483   2.697   0.919   3.297  0.7212  0.7934 -0.7315
  875MOL0     H15484   3.320   1.011   3.227  1.6110 -0.8334 -0.3839
  875MOL0     H15485   3.503   0.838   3.222  0.0342  1.9971  0.9137
  875MOL0     H15486   5.194   0.493   2.983 -0.1025 -0.5169  0.7198
  875MOL0     H15487   5.403   0.591   3.071  1.8188 -0.1492 -1.2916
  875MOL0     H15488   5.809   1.057   2.871 -2.1730 -0.7226  0.5495
  875MOL0     H15489   6.043   1.058   2.944 -0.8264  1.0098  0.0665
  875MOL0     H15490   6.233   1.051   3.042  2.9286  0.8119  0.0733
  875MOL0     H15491   6.264   0.904   2.944  0.3289 -0.4931 -0.5692
  875MOL0     H15492   6.370   0.890   3.225  3.4009  2.5270  1.3315
  875MOL0     H15493   6.450   0.823   3.088  0.8678 -0.4493 -0.9796
  875MOL0     H15494   6.429   1.114   3.167 -1.4611 -0.0780 -0.5230
  875MOL0     H15495   6.516   1.063   3.018  1.7715  0.0540  1.0828
  875MOL0     H15496   6.599   1.011   3.299  1.0562  2.4271 -0.0618
  875MOL0     H15497   6.654   0.908   3.167 -1.8983 -0.6525  0.3018
  875MOL0     H15498   6.856   1.295   3.141  2.0879 -2.2845 -3.6257
  875MOL0     H15499   5.961   0.739   3.213 -0.7708  0.8672  1.6172
  875MOL0     H15500   5.722   0.724   3.119 -1.2939  1.4515 -1.1180
  876MOL0     O15501  11.088   8.697   1.851 -0.4358 -0.4106 -0.1792
  876MOL0     C15502  11.097   8.808   1.795 -0.4342 -0.0147 -0.1268
  876MOL0     O15503  10.999   8.874   1.729  0.6971 -0.7257  0.0734
  876MOL0     C15504  10.873   8.821   1.711 -0.1262  0.7783  0.1162
  876MOL0     C15505  10.844   8.813   1.578  0.7711  0.2824  0.1317
  876MOL0     C15506  10.714   8.775   1.542 -1.1188 -0.6723 -0.5333
  876MOL0     C15507  10.618   8.737   1.643  0.3002 -0.0058 -0.0430
  876MOL0     O15508  10.488   8.701   1.613 -0.3504 -0.2447 -0.3660
  876MOL0     C15509  10.474   8.617   1.498 -0.3840 -0.1502  0.6721
  876MOL0     C15510  10.321   8.591   1.456  0.7832 -0.6029 -0.2394
  876MOL0     C15511  10.235   8.519   1.559  0.6472  0.2940 -0.7671
  876MOL0     C15512  10.087   8.503   1.499  0.0086  0.2804 -0.3320
  876MOL0     C15513   9.998   8.442   1.606 -0.0905 -0.5654 -0.4174
  876MOL0     C15514   9.852   8.471   1.565  0.3777 -0.2925  0.0945
  876MOL0     C15515   9.759   8.366   1.612  0.9462  0.0565 -0.5581
  876MOL0     C15516   9.667   8.423   1.724 -0.3184  0.6591  0.0544
  876MOL0     N15517   9.740   8.471   1.846  0.7999  0.4803 -0.3015
  876MOL0     C15518   9.804   8.394   1.935  0.3222 -0.3425  1.1736
  876MOL0     C15519   9.878   8.486   2.003 -0.8181  0.3266 -0.2120
  876MOL0     C15520   9.963   8.455   2.120 -0.1507 -0.1342  0.2176
  876MOL0     C15521  10.110   8.414   2.105 -0.7239 -1.1613  0.8673
  876MOL0     C15522  10.126   8.289   2.021 -0.7136 -0.3754 -0.7021
  876MOL0     C15523  10.273   8.265   1.997  0.5631  0.0744  0.1978
  876MOL0     O15524  10.329   8.232   2.123 -1.2057 -0.0272  0.5163
  876MOL0     C15525  10.460   8.267   2.147 -0.3532  0.2917  0.3045
  876MOL0     C15526  10.563   8.256   2.051  0.3711  0.9903  0.5518
  876MOL0     C15527  10.689   8.296   2.074 -0.3361 -0.0288 -0.3047
  876MOL0     C15528  10.718   8.353   2.204 -0.0901  0.0620 -0.0825
  876MOL0     C15529  10.844   8.407   2.230 -0.4332 -0.5823  0.0025
  876MOL0     O15530  10.935   8.408   2.128  0.2488  0.2368  0.4888
  876MOL0     C15531  11.055   8.475   2.136  0.2741 -0.0927 -0.1953
  876MOL0     C15532  11.154   8.400   2.079 -0.9356  0.5262 -0.1276
  876MOL0     C15533  11.284   8.453   2.085 -1.0901 -0.0294  1.3886
  876MOL0     C15534  11.312   8.578   2.138  0.2824 -0.0472 -0.5292
  876MOL0     O15535  11.436   8.639   2.141  0.3052  0.4568  0.2326
  876MOL0     C15536  11.543   8.570   2.078 -0.4752 -0.2451  0.5423
  876MOL0     C15537  11.669   8.646   2.111 -0.6305 -0.5358 -0.1585
  876MOL0     C15538  11.791   8.591   2.027  0.8492 -0.8630  0.0637
  876MOL0     C15539  11.913   8.685   2.041  0.0777 -0.8137 -0.2123
  876MOL0     C15540  12.038   8.644   1.972 -0.7635  0.5926  0.0089
  876MOL0     C15541  12.169   8.661   2.062  0.1300 -0.4097 -0.3892
  876MOL0     C15542  12.295   8.607   1.997 -0.5521  0.5132  0.2410
  876MOL0     C15543  12.417   8.672   2.063 -0.2607  0.3163 -0.2765
  876MOL0    Cl15544  12.550   8.557   2.023 -0.1358 -0.0901 -0.0091
  876MOL0     C15545  11.206   8.657   2.184 -0.2070 -0.4771  0.6652
  876MOL0     C15546  11.074   8.603   2.185 -0.0162 -0.7989 -0.5899
  876MOL0     O15547  10.862   8.463   2.339 -0.1607 -0.4466 -0.0906
  876MOL0     C15548  10.619   8.354   2.305  0.3812  0.0242 -0.6561
  876MOL0     C15549  10.492   8.302   2.276 -0.5166 -0.4570 -0.5936
  876MOL0     N15550   9.838   8.614   1.967 -0.0477  0.2487 -0.0691
  876MOL0     N15551   9.749   8.600   1.871 -0.8442 -0.1150  0.4469
  876MOL0     C15552  10.652   8.762   1.782 -0.2827 -0.3763 -0.8501
  876MOL0     C15553  10.783   8.798   1.815 -0.4037  0.3495  0.0898
  876MOL0     C15554  11.233   8.864   1.795  0.2445 -0.0809 -0.2590
  876MOL0     C15555  11.259   8.993   1.735  0.7914  0.4837 -0.5170
  876MOL0     C15556  11.379   9.055   1.742  0.2734  0.0853 -0.4788
  876MOL0     C15557  11.492   8.988   1.794 -0.4256 -0.2742 -0.5686
  876MOL0     O15558  11.618   9.042   1.798 -0.2374  0.5187  0.1201
  876MOL0     C15559  11.648   9.170   1.741  0.2619  0.6994  0.2642
  876MOL0     C15560  11.657   9.147   1.584 -0.2364 -0.1705 -0.1083
  876MOL0     C15561  11.810   9.149   1.548 -0.9365  0.1327  0.0873
  876MOL0     C15562  11.828   9.191   1.404 -0.0232 -0.2534 -0.1498
  876MOL0     C15563  11.762   9.103   1.303  0.1970 -0.2398 -0.7141
  876MOL0     C15564  11.728   9.024   1.216 -0.1407 -0.3589  0.0601
  876MOL0     C15565  11.469   8.862   1.844  0.1562 -0.2567 -0.4376
  876MOL0     C15566  11.349   8.794   1.838  0.6413  0.4526 -1.0225
  876MOL0     H15567  10.925   8.836   1.509  0.0577  1.8803 -0.2329
  876MOL0     H15568  10.706   8.772   1.434  3.1389 -1.3718 -1.0112
  876MOL0     H15569  10.529   8.525   1.521  4.1435  2.0854 -0.0754
  876MOL0     H15570  10.512   8.666   1.408  2.2807  0.3770  2.0006
  876MOL0     H15571  10.318   8.540   1.360  2.2269  2.4355 -2.0283
  876MOL0     H15572  10.282   8.692   1.441 -0.8023 -0.6674  2.6880
  876MOL0     H15573  10.221   8.578   1.650 -0.8690  1.0801 -1.4619
  876MOL0     H15574  10.285   8.426   1.584 -0.1071 -0.2492 -1.2176
  876MOL0     H15575  10.048   8.599   1.463  0.8077 -0.0827 -2.3345
  876MOL0     H15576  10.098   8.437   1.412 -0.2253  1.3719 -1.2189
  876MOL0     H15577  10.026   8.489   1.701  1.1945 -1.9349 -0.0908
  876MOL0     H15578  10.018   8.339   1.635 -2.2577 -1.0134 -0.3451
  876MOL0     H15579   9.857   8.467   1.456  1.1541  2.9641 -0.0795
  876MOL0     H15580   9.821   8.573   1.591 -0.5191 -0.2159 -1.2033
  876MOL0     H15581   9.693   8.335   1.530 -0.5446  0.1752  0.5515
  876MOL0     H15582   9.815   8.278   1.648  2.1499  1.5397  1.4127
  876MOL0     H15583   9.598   8.343   1.753  0.6621 -0.0849  0.3823
  876MOL0     H15584   9.612   8.503   1.674 -1.8430 -1.0314 -1.0688
  876MOL0     H15585   9.806   8.286   1.943 -2.1675 -0.3750  2.0412
  876MOL0     H15586   9.915   8.369   2.166  3.5547 -0.3727  4.2988
  876MOL0     H15587   9.961   8.549   2.177  2.3397  0.9965 -1.3551
  876MOL0     H15588  10.156   8.393   2.201  0.6118  0.4213  0.6137
  876MOL0     H15589  10.168   8.494   2.058 -1.3785 -1.4782 -0.5441
  876MOL0     H15590  10.073   8.199   2.056 -0.3332 -0.3875 -0.1427
  876MOL0     H15591  10.082   8.307   1.922  1.8670 -0.4784 -1.9403
  876MOL0     H15592  10.328   8.353   1.964 -1.9210  1.1389 -1.3849
  876MOL0     H15593  10.271   8.183   1.925 -0.6436  0.9730 -0.8377
  876MOL0     H15594  10.540   8.207   1.956  1.4770 -1.1990  1.3450
  876MOL0     H15595  10.768   8.293   2.000  0.7715  2.3214  0.6834
  876MOL0     H15596  11.153   8.310   2.019  2.0138  1.3725 -1.6345
  876MOL0     H15597  11.358   8.389   2.037 -1.6990  0.9425 -0.9966
  876MOL0     H15598  11.534   8.569   1.969  0.5186 -0.3262  0.4484
  876MOL0     H15599  11.554   8.469   2.118 -1.3913  0.1104  1.7545
  876MOL0     H15600  11.680   8.639   2.220 -2.0777  0.1541  0.0676
  876MOL0     H15601  11.653   8.751   2.083  0.1976 -0.4118 -0.1907
  876MOL0     H15602  11.761   8.568   1.924 -0.1935 -0.4570  0.2646
  876MOL0     H15603  11.824   8.494   2.063  0.5784 -1.8044 -2.0859
  876MOL0     H15604  11.886   8.786   2.007  0.5696 -0.3549  0.7035
  876MOL0     H15605  11.938   8.690   2.148 -0.6046 -0.2092 -0.0719
  876MOL0     H15606  12.045   8.702   1.880 -1.7775  1.5945  0.5407
  876MOL0     H15607  12.037   8.538   1.945  0.7219  0.6066 -0.2025
  876MOL0     H15608  12.158   8.604   2.155 -0.6058  0.4781  0.0875
  876MOL0     H15609  12.183   8.763   2.099 -2.4151 -1.4516  4.2004
  876MOL0     H15610  12.291   8.499   2.016 -2.2335  0.2012 -1.4942
  876MOL0     H15611  12.291   8.617   1.888 -0.3069  0.6772  0.2470
  876MOL0     H15612  12.400   8.686   2.170 -1.3261  1.7736 -0.6003
  876MOL0     H15613  12.439   8.772   2.023  2.2523 -1.0812 -2.7278
  876MOL0     H15614  11.220   8.763   2.207 -0.0142 -0.3195 -0.1548
  876MOL0     H15615  11.000   8.672   2.223  2.3824  0.9592  1.1935
  876MOL0     H15616  10.634   8.394   2.405 -1.0878  2.7751 -1.4345
  876MOL0     H15617  10.412   8.305   2.350 -0.6606 -0.2175 -0.7564
  876MOL0     H15618  10.573   8.748   1.855  2.7935 -1.3932  2.5434
  876MOL0     H15619  10.826   8.798   1.914  1.3950  2.2638 -0.6043
  876MOL0     H15620  11.172   9.040   1.690 -0.6355  0.9254  2.4714
  876MOL0     H15621  11.376   9.153   1.698 -1.1237  0.5028  0.4654
  876MOL0     H15622  11.740   9.209   1.785 -0.2979  3.2608 -0.6635
  876MOL0     H15623  11.572   9.245   1.763 -1.6184 -0.7776 -0.8733
  876MOL0     H15624  11.600   9.060   1.548 -1.5902  0.0276  1.4592
  876MOL0     H15625  11.621   9.240   1.540  3.1137  0.4640 -1.8340
  876MOL0     H15626  11.871   9.061   1.570  1.1293  1.4930  0.0479
  876MOL0     H15627  11.856   9.230   1.604  0.7647 -0.4376 -0.4355
  876MOL0     H15628  11.802   9.294   1.377 -0.2643 -0.5841 -1.2138
  876MOL0     H15629  11.936   9.184   1.390 -0.2371 -1.1154 -1.5731
  876MOL0     H15630  11.681   8.970   1.136  0.7262  2.4657 -2.5638
  876MOL0     H15631  11.548   8.806   1.894  0.6896  0.0582 -0.9159
  876MOL0     H15632  11.349   8.698   1.888  0.1386  0.6497 -0.6363
  877MOL0     O15633   4.961   3.670   9.430  0.6283  0.2715 -0.3235
  877MOL0     C15634   5.061   3.717   9.388 -1.0567 -1.1270 -0.4843
  877MOL0     O15635   5.084   3.852   9.352 -0.0513 -0.0331  0.1874
  877MOL0     C15636   4.969   3.926   9.348  0.1383 -0.8451  0.6110
  877MOL0     C15637   4.940   3.990   9.225  0.0226  0.6442  0.4807
  877MOL0     C15638   4.829   4.071   9.225 -0.4866 -1.4595  0.0619
  877MOL0     C15639   4.750   4.087   9.340 -0.6535  0.2130  0.6556
  877MOL0     O15640   4.641   4.172   9.317 -0.3415  0.8500 -0.4902
  877MOL0     C15641   4.523   4.151   9.391  0.0278  0.5224 -0.0171
  877MOL0     C15642   4.439   4.027   9.359 -0.2966  0.7166  1.6413
  877MOL0     C15643   4.291   4.049   9.385 -0.7875  0.9699 -0.3048
  877MOL0     C15644   4.248   4.037   9.535  0.0776  0.4082  0.0039
  877MOL0     C15645   4.256   3.894   9.590 -0.0677  0.3839 -0.9096
  877MOL0     C15646   4.146   3.845   9.685  0.8252 -0.5676  0.1926
  877MOL0     C15647   4.117   3.927   9.804  0.0558 -0.6118  0.4911
  877MOL0     C15648   3.981   3.901   9.870 -0.6596 -0.2751 -0.1843
  877MOL0     N15649   3.869   3.884   9.772  0.1058 -0.6022  0.1251
  877MOL0     C15650   3.822   3.988   9.693 -0.1500  0.1258  0.8952
  877MOL0     C15651   3.709   3.935   9.637 -0.9398 -0.2935 -0.5029
  877MOL0     C15652   3.626   4.020   9.542 -0.4327 -0.0552  0.7911
  877MOL0     C15653   3.481   3.974   9.531 -0.0884  0.4594  0.6776
  877MOL0     C15654   3.407   4.063   9.416  0.7544  0.8483 -0.0653
  877MOL0     C15655   3.261   4.023   9.392 -0.0155  0.1675 -0.1826
  877MOL0     O15656   3.189   4.017   9.521  0.2320 -0.3480  0.1895
  877MOL0     C15657   3.063   3.959   9.513  0.1985 -0.5891  0.1294
  877MOL0     C15658   3.012   3.889   9.402  0.0825 -0.1421  0.3955
  877MOL0     C15659   2.875   3.846   9.415  1.0749 -0.5697  0.2498
  877MOL0     C15660   2.800   3.872   9.538 -0.2306  0.2953  0.4927
  877MOL0     C15661   2.656   3.829   9.549  0.2706 -0.8841  0.4135
  877MOL0     O15662   2.596   3.802   9.432  0.2722 -0.2751  0.7115
  877MOL0     C15663   2.458   3.778   9.413 -0.7299  1.1105  0.9483
  877MOL0     C15664   2.390   3.682   9.490 -0.8616  0.1905 -0.5740
  877MOL0     C15665   2.255   3.658   9.480 -0.0521 -0.3324 -0.5650
  877MOL0     C15666   2.196   3.714   9.365 -0.0623 -0.7413  0.9738
  877MOL0     O15667   2.073   3.671   9.317 -0.2178 -0.5418  0.3474
  877MOL0     C15668   2.039   3.533   9.340  0.1281  0.4491 -0.5435
  877MOL0     C15669   1.926   3.485   9.251  0.0343  0.8139 -0.0987
  877MOL0     C15670   1.942   3.534   9.108  0.2348 -0.0333 -0.1792
  877MOL0     C15671   1.827   3.469   9.031 -0.0166 -0.2871 -0.4909
  877MOL0     C15672   1.815   3.538   8.896 -0.6514  0.4761  0.1402
  877MOL0     C15673   1.768   3.684   8.893  0.4410 -0.4732 -0.0967
  877MOL0     C15674   1.770   3.747   8.760  0.8843  0.6722 -0.0476
  877MOL0     C15675   1.747   3.897   8.759 -0.9091 -0.5923 -0.8080
  877MOL0    Cl15676   1.572   3.921   8.795 -0.2238  0.3954  0.3057
  877MOL0     C15677   2.263   3.803   9.282 -0.4670 -0.7324 -0.4713
  877MOL0     C15678   2.398   3.838   9.308 -0.6445  0.4897  0.5936
  877MOL0     O15679   2.603   3.835   9.656 -0.1327 -0.3224  0.6690
  877MOL0     C15680   2.864   3.929   9.648 -0.5609  0.7282  0.6311
  877MOL0     C15681   2.996   3.974   9.632  0.3235 -1.0484  0.4672
  877MOL0     N15682   3.693   3.798   9.681  0.7072  0.5197  0.0957
  877MOL0     N15683   3.795   3.767   9.757 -0.4194  0.2504  0.0889
  877MOL0     C15684   4.780   4.031   9.459  0.8401 -1.5388 -0.0588
  877MOL0     C15685   4.896   3.958   9.468  0.4852  0.0742  0.3209
  877MOL0     C15686   5.164   3.612   9.371 -0.9197  0.0480  0.8924
  877MOL0     C15687   5.150   3.479   9.411 -0.3498 -0.2149 -0.3977
  877MOL0     C15688   5.259   3.392   9.410  0.2320  0.3213 -0.0070
  877MOL0     C15689   5.383   3.435   9.372 -0.4878  0.2458  0.0300
  877MOL0     O15690   5.491   3.343   9.380  0.1855 -0.0593 -0.0856
  877MOL0     C15691   5.590   3.346   9.269 -0.1794 -0.1565 -0.0125
  877MOL0     C15692   5.722   3.276   9.301 -0.2115 -0.1053  0.3565
  877MOL0     C15693   5.725   3.129   9.253  0.1217 -0.0653 -0.1096
  877MOL0     C15694   5.861   3.069   9.279 -0.8211 -1.1058  0.3621
  877MOL0     C15695   5.965   3.147   9.207 -0.6532  0.5054  0.1021
  877MOL0     C15696   6.049   3.214   9.153 -0.8082  0.1668 -0.1398
  877MOL0     C15697   5.403   3.567   9.334 -0.5611  0.0219 -0.9850
  877MOL0     C15698   5.296   3.656   9.337 -0.5233 -0.6237  1.2569
  877MOL0     H15699   4.999   3.978   9.135  0.2345  0.5292  0.6352
  877MOL0     H15700   4.795   4.115   9.131 -0.4672 -5.4770 -2.0452
  877MOL0     H15701   4.461   4.240   9.371 -1.7224 -0.1981  1.8741
  877MOL0     H15702   4.536   4.163   9.499  1.2851  3.6137 -0.3876
  877MOL0     H15703   4.467   3.939   9.418 -2.2517 -1.1790 -0.0554
  877MOL0     H15704   4.446   3.997   9.254 -1.7619  3.7973  0.5456
  877MOL0     H15705   4.234   3.972   9.333 -3.8256  0.6753  3.0599
  877MOL0     H15706   4.264   4.145   9.342 -0.3208  2.8929  3.3480
  877MOL0     H15707   4.302   4.106   9.601 -1.3652 -0.6956  2.4679
  877MOL0     H15708   4.152   4.087   9.546  0.3094  0.6314  1.1524
  877MOL0     H15709   4.356   3.884   9.633  0.1639 -3.3001 -1.9078
  877MOL0     H15710   4.268   3.821   9.509  1.2950 -0.8360  0.3197
  877MOL0     H15711   4.173   3.746   9.724 -0.3430 -1.3179 -0.7982
  877MOL0     H15712   4.052   3.836   9.631 -0.5462 -0.6010  2.4729
  877MOL0     H15713   4.195   3.923   9.880 -1.6447  1.1183  2.4472
  877MOL0     H15714   4.113   4.032   9.774 -0.2887 -1.3480 -2.3103
  877MOL0     H15715   3.967   3.989   9.934  0.8022 -0.6504  0.6882
  877MOL0     H15716   3.980   3.812   9.934 -1.7653  1.3623  2.2412
  877MOL0     H15717   3.872   4.083   9.678 -0.8650  0.6886  1.9114
  877MOL0     H15718   3.659   4.020   9.437 -2.6467 -0.9974  0.0446
  877MOL0     H15719   3.635   4.123   9.578  0.1726  0.2052 -0.0692
  877MOL0     H15720   3.438   3.984   9.631 -0.7507  1.6902  0.2846
  877MOL0     H15721   3.474   3.867   9.508 -0.4926  0.0442  2.5231
  877MOL0     H15722   3.403   4.168   9.446 -0.5603  0.2133  2.3194
  877MOL0     H15723   3.460   4.050   9.321 -0.6848 -1.4857 -0.6281
  877MOL0     H15724   3.270   3.926   9.344 -0.2832 -0.2838  0.6633
  877MOL0     H15725   3.198   4.090   9.333 -1.7000  0.3288  1.6955
  877MOL0     H15726   3.061   3.882   9.305  0.3512  1.2908  0.4126
  877MOL0     H15727   2.826   3.788   9.338  1.2074 -1.3014  0.7106
  877MOL0     H15728   2.455   3.639   9.566  2.0634  0.1811 -2.8717
  877MOL0     H15729   2.199   3.592   9.545 -0.4705  0.2667 -0.3068
  877MOL0     H15730   2.025   3.511   9.446  1.5504  4.8741  0.7987
  877MOL0     H15731   2.128   3.472   9.321 -1.2536 -3.3637  3.5493
  877MOL0     H15732   1.835   3.521   9.300 -0.1393 -0.9170  0.9463
  877MOL0     H15733   1.941   3.377   9.250  2.4215  1.0390 -2.9286
  877MOL0     H15734   2.040   3.514   9.064  0.1025  0.5269 -0.7558
  877MOL0     H15735   1.930   3.643   9.108 -1.2647 -0.1749  0.0716
  877MOL0     H15736   1.853   3.364   9.017  1.2337 -0.0433 -0.0641
  877MOL0     H15737   1.737   3.465   9.093  2.0186 -1.0960  2.6229
  877MOL0     H15738   1.745   3.484   8.833  0.4172 -1.2237  0.3467
  877MOL0     H15739   1.912   3.537   8.845 -1.7487  0.3645 -2.0486
  877MOL0     H15740   1.833   3.746   8.955  0.6839 -1.6004  0.8043
  877MOL0     H15741   1.667   3.684   8.934 -0.6223 -0.0551 -2.5169
  877MOL0     H15742   1.866   3.718   8.718 -0.5490 -2.2458 -1.6167
  877MOL0     H15743   1.695   3.708   8.691 -0.7470  1.8443  0.9859
  877MOL0     H15744   1.776   3.934   8.660 -0.4136  0.6443 -0.2220
  877MOL0     H15745   1.808   3.951   8.832  0.1748 -0.6884 -1.6215
  877MOL0     H15746   2.215   3.830   9.189 -3.3140  0.9809  1.3094
  877MOL0     H15747   2.454   3.899   9.238  0.9092 -0.6982  0.7705
  877MOL0     H15748   2.820   3.944   9.746  2.8784 -0.8618  2.6387
  877MOL0     H15749   3.039   4.018   9.722  0.4291  1.2767 -0.6384
  877MOL0     H15750   4.716   4.044   9.546 -0.6485 -2.0435 -1.0322
  877MOL0     H15751   4.929   3.913   9.562  1.1175  2.7224  1.4652
  877MOL0     H15752   5.056   3.434   9.440  1.0564 -3.7078 -0.6520
  877MOL0     H15753   5.237   3.289   9.438 -1.7857 -0.2469 -3.1431
  877MOL0     H15754   5.621   3.447   9.240 -1.8307  0.4268  0.1304
  877MOL0     H15755   5.533   3.309   9.184 -0.5576  3.1383 -1.3183
  877MOL0     H15756   5.804   3.334   9.257  0.5204 -1.3832 -0.0178
  877MOL0     H15757   5.736   3.286   9.409 -1.8939  0.0673  0.5838
  877MOL0     H15758   5.710   3.134   9.145 -2.7941  3.2088  0.2522
  877MOL0     H15759   5.648   3.079   9.313  0.7610  3.0476  3.6667
  877MOL0     H15760   5.873   3.062   9.388 -3.8629  0.1221  0.8710
  877MOL0     H15761   5.863   2.964   9.247 -0.1075 -1.0768  0.2877
  877MOL0     H15762   6.128   3.265   9.101  0.1394 -0.5984  0.5176
  877MOL0     H15763   5.499   3.616   9.319 -1.7283  2.3564 -1.3732
  877MOL0     H15764   5.312   3.757   9.302 -2.0181 -0.8032 -0.0434
  878MOL0     O15765   3.704   9.853  10.301  0.1114  0.1397  0.0928
  878MOL0     C15766   3.778   9.933  10.357 -0.0923 -0.2834 -0.2487
  878MOL0     O15767   3.745  10.017  10.468 -0.5596 -0.2664  0.1032
  878MOL0     C15768   3.641  10.025  10.546 -0.3866  1.0232  0.3055
  878MOL0     C15769   3.648  10.091  10.678 -0.2348 -0.1992 -0.3553
  878MOL0     C15770   3.534  10.103  10.763 -0.9641 -0.1211  0.5070
  878MOL0     C15771   3.417  10.040  10.723  0.5823 -0.9084  1.2068
  878MOL0     O15772   3.314  10.044  10.816 -0.3858  0.3070  0.0317
  878MOL0     C15773   3.176  10.034  10.780 -0.0909 -0.5444  0.4178
  878MOL0     C15774   3.085  10.071  10.898 -0.4236 -0.1575 -0.2062
  878MOL0     C15775   2.936  10.027  10.868 -1.0127  0.4847  0.5266
  878MOL0     C15776   2.841  10.064  10.980 -0.4116 -0.8979 -1.1165
  878MOL0     C15777   2.693  10.050  10.942 -0.7788  0.6295 -0.0001
  878MOL0     C15778   2.605  10.122  11.042  0.2793 -0.5747 -0.0853
  878MOL0     C15779   2.475  10.049  11.048  0.5569  0.1582 -0.4620
  878MOL0     C15780   2.375  10.139  11.127  0.2385 -0.1439 -0.5412
  878MOL0     N15781   2.247  10.067  11.140 -0.2931  0.1855  0.5299
  878MOL0     C15782   2.224   9.969  11.235 -0.0159  0.4321  0.3217
  878MOL0     C15783   2.096   9.927  11.203 -0.5600  0.5511 -0.2017
  878MOL0     C15784   2.016   9.816  11.277 -0.0929 -0.4533 -0.4289
  878MOL0     C15785   1.878   9.855  11.340  0.5643 -0.6319 -0.3271
  878MOL0     C15786   1.830   9.755  11.445  0.2448  0.6311  0.0914
  878MOL0     C15787   1.685   9.786  11.490 -0.2989  0.2412  0.3293
  878MOL0     O15788   1.589   9.792  11.387  0.0280  0.6441  0.0455
  878MOL0     C15789   1.464   9.827  11.422  0.3011  0.1017 -0.1814
  878MOL0     C15790   1.416   9.932  11.502 -0.1641 -1.0199 -0.2205
  878MOL0     C15791   1.275   9.958  11.511 -0.2028 -0.0249  0.2008
  878MOL0     C15792   1.190   9.875  11.460  0.2452  1.0861  0.1255
  878MOL0     C15793   1.044   9.881  11.486 -0.9379  0.2607  0.1881
  878MOL0     O15794   0.957   9.807  11.405 -0.7872 -0.2112  0.0137
  878MOL0     C15795   0.828   9.823  11.443  0.8473  0.7427 -0.2377
  878MOL0     C15796   0.760   9.943  11.454  0.3248 -0.3651  0.3071
  878MOL0     C15797   0.626   9.954  11.494 -0.1100  1.0264 -0.7823
  878MOL0     C15798   0.563   9.836  11.548 -0.4215 -0.2059  0.3637
  878MOL0     O15799   0.432   9.844  11.587 -0.0247  1.1226 -0.5731
  878MOL0     C15800   0.407   9.929  11.706  0.0333  0.0584  0.1161
  878MOL0     C15801   0.260   9.947  11.726 -0.3367  0.1576  0.6315
  878MOL0     C15802   0.210  10.043  11.619 -0.7717  0.3552 -0.4386
  878MOL0     C15803   0.061  10.069  11.639  0.5771 -0.1204 -0.2480
  878MOL0     C15804  -0.013   9.939  11.659  0.9525  0.3246 -0.6039
  878MOL0     C15805  -0.157   9.975  11.699  0.5596  0.6043 -0.5669
  878MOL0     C15806  -0.255   9.858  11.711 -0.2471 -0.5280  1.1754
  878MOL0     C15807  -0.308   9.820  11.574  0.0998 -0.4423  1.2962
  878MOL0    Cl15808  -0.468   9.735  11.598 -0.1608 -0.1054 -0.1256
  878MOL0     C15809   0.638   9.716  11.544 -0.8129 -0.1706 -1.0966
  878MOL0     C15810   0.764   9.702  11.483  0.1318  0.3186 -0.9854
  878MOL0     O15811   1.011   9.953  11.577  0.1940  0.9224  0.0093
  878MOL0     C15812   1.242   9.764  11.383  1.3728  0.0184 -0.8147
  878MOL0     C15813   1.375   9.745  11.353 -0.2735  1.2335 -0.4298
  878MOL0     N15814   2.050  10.007  11.101  0.0091 -0.0671  0.5381
  878MOL0     N15815   2.143  10.079  11.057 -0.0559 -0.2518  0.2311
  878MOL0     C15816   3.403   9.975  10.604 -0.4966 -0.3531  0.8456
  878MOL0     C15817   3.511   9.969  10.509 -0.0395 -0.5841  0.1020
  878MOL0     C15818   3.921   9.931  10.307 -0.7109  0.4506  0.1372
  878MOL0     C15819   3.981   9.819  10.244 -0.1425 -0.9755 -0.0153
  878MOL0     C15820   4.110   9.819  10.218 -0.4672 -0.6447 -0.0434
  878MOL0     C15821   4.195   9.929  10.247  0.3770 -0.7608 -0.8996
  878MOL0     O15822   4.328   9.919  10.207 -0.0300  0.9324 -0.3534
  878MOL0     C15823   4.428  10.010  10.244  0.3897 -0.7813  0.3183
  878MOL0     C15824   4.470   9.983  10.383 -0.3744 -0.1700 -0.2330
  878MOL0     C15825   4.564   9.864  10.381  0.6676 -0.3769 -0.2002
  878MOL0     C15826   4.635   9.836  10.514 -0.8567 -0.7697 -0.3914
  878MOL0     C15827   4.714   9.719  10.499 -0.2835  0.9158  0.3113
  878MOL0     C15828   4.776   9.614  10.492  0.4367  0.2432 -0.0154
  878MOL0     C15829   4.140  10.045  10.316 -0.1325  0.1121  0.3371
  878MOL0     C15830   4.005  10.043  10.341  0.3624  0.7800 -0.1644
  878MOL0     H15831   3.749  10.120  10.706  0.1229  0.5499 -2.2663
  878MOL0     H15832   3.534  10.160  10.855  0.8049 -1.7099  1.5655
  878MOL0     H15833   3.147   9.936  10.740 -2.2759 -0.1539  0.9450
  878MOL0     H15834   3.148  10.099  10.697  2.0411  0.8084  0.7062
  878MOL0     H15835   3.095  10.178  10.922  0.3568 -0.3458  0.3271
  878MOL0     H15836   3.116  10.027  10.993 -0.0153  2.9992  1.2795
  878MOL0     H15837   2.924   9.919  10.869 -0.9625  0.4447  2.8092
  878MOL0     H15838   2.903  10.073  10.775  1.2846  1.3759  0.0777
  878MOL0     H15839   2.862  10.015  11.076  1.6952  1.3891 -0.3174
  878MOL0     H15840   2.851  10.172  10.987  0.2360 -1.0155 -0.0663
  878MOL0     H15841   2.676   9.942  10.946  3.9084 -0.3166  1.4587
  878MOL0     H15842   2.670  10.086  10.842  0.6109 -1.1402 -1.0095
  878MOL0     H15843   2.597  10.228  11.015  0.5521 -0.7738 -0.9715
  878MOL0     H15844   2.647  10.116  11.143 -0.0848  2.3658  0.3436
  878MOL0     H15845   2.439  10.019  10.950 -1.2348  1.8782 -0.3876
  878MOL0     H15846   2.487   9.953  11.099  3.4674  0.6520 -0.0233
  878MOL0     H15847   2.365  10.240  11.087 -0.1651 -0.0796 -0.2876
  878MOL0     H15848   2.417  10.154  11.228  0.6670 -2.2600 -0.3594
  878MOL0     H15849   2.289   9.940  11.317 -0.4778 -1.3928  0.0888
  878MOL0     H15850   2.080   9.784  11.360  1.3308 -0.3781 -1.4397
  878MOL0     H15851   2.001   9.735  11.205 -0.2934  0.1558 -1.0798
  878MOL0     H15852   1.812   9.872  11.255 -1.5368  0.2315  1.3868
  878MOL0     H15853   1.886   9.952  11.391 -1.4437 -1.1258  1.0496
  878MOL0     H15854   1.839   9.653  11.406  1.3969 -0.3162  2.6259
  878MOL0     H15855   1.897   9.758  11.531  1.0273 -4.1898 -0.0441
  878MOL0     H15856   1.681   9.883  11.541 -1.2693  1.4140 -1.8526
  878MOL0     H15857   1.656   9.707  11.559 -1.4123  0.0411 -0.3529
  878MOL0     H15858   1.479  10.011  11.542  0.1020 -1.7508  0.8322
  878MOL0     H15859   1.245  10.036  11.579  1.2122  2.2245 -1.6175
  878MOL0     H15860   0.817  10.034  11.436 -1.9471  0.8038 -1.5818
  878MOL0     H15861   0.586  10.055  11.496  0.7910  1.4264 -1.7612
  878MOL0     H15862   0.455  10.026  11.692  0.6065 -0.5444 -2.7215
  878MOL0     H15863   0.439   9.891  11.804  0.4840  3.5148  1.4543
  878MOL0     H15864   0.255   9.997  11.824  1.4064  0.7535  0.4574
  878MOL0     H15865   0.220   9.846  11.725  1.1040 -0.4751 -1.8016
  878MOL0     H15866   0.224  10.002  11.518  3.5420 -0.8497  0.4377
  878MOL0     H15867   0.257  10.141  11.617  1.3060 -0.5703  0.4647
  878MOL0     H15868   0.054  10.122  11.734  1.0812 -3.7668  2.0547
  878MOL0     H15869   0.013  10.125  11.559 -0.6009 -0.7416  0.0096
  878MOL0     H15870   0.024   9.858  11.722  0.4727  1.0000  0.5742
  878MOL0     H15871  -0.016   9.892  11.560 -1.4953 -0.1127 -0.3983
  878MOL0     H15872  -0.195  10.051  11.630 -1.0059  1.0496  0.7151
  878MOL0     H15873  -0.154  10.028  11.795  1.5598 -0.0965 -0.1988
  878MOL0     H15874  -0.191   9.781  11.755  2.0104  0.5281 -0.0544
  878MOL0     H15875  -0.341   9.868  11.777 -2.5723 -0.1119 -1.7389
  878MOL0     H15876  -0.238   9.757  11.519 -0.0230  1.0143 -0.6512
  878MOL0     H15877  -0.324   9.906  11.508  0.5780 -0.3812  1.2571
  878MOL0     H15878   0.576   9.633  11.578  0.5772  0.0025  2.2561
  878MOL0     H15879   0.813   9.605  11.482 -0.1983  0.1273 -3.2111
  878MOL0     H15880   1.174   9.704  11.322  0.8104  1.3143 -1.5182
  878MOL0     H15881   1.405   9.663  11.288  1.9023  2.0764 -0.5949
  878MOL0     H15882   3.308   9.928  10.580  0.1198 -0.3233 -1.9885
  878MOL0     H15883   3.493   9.933  10.408 -0.4697  2.8417 -1.1930
  878MOL0     H15884   3.923   9.729  10.226 -0.5786 -1.2974  2.5929
  878MOL0     H15885   4.158   9.732  10.174  1.7094  0.7631 -0.6143
  878MOL0     H15886   4.401  10.116  10.241  2.5058  0.0267  3.9237
  878MOL0     H15887   4.518  10.007  10.181  0.3605 -2.1668  0.2955
  878MOL0     H15888   4.523  10.063  10.435 -0.9382  0.5099 -0.6775
  878MOL0     H15889   4.384   9.966  10.449 -0.3344  0.4698 -0.0068
  878MOL0     H15890   4.632   9.876  10.297 -0.2274 -0.2810 -0.9247
  878MOL0     H15891   4.497   9.782  10.353  0.3722 -0.5517  0.9531
  878MOL0     H15892   4.692   9.922  10.552 -3.5022 -0.4308  3.3883
  878MOL0     H15893   4.557   9.819  10.589 -1.3308  1.6129 -0.2446
  878MOL0     H15894   4.827   9.520  10.494 -1.3021 -0.7311  1.5028
  878MOL0     H15895   4.207  10.122  10.352  0.8336 -1.2262  1.5248
  878MOL0     H15896   3.958  10.116  10.406 -2.5647 -0.2789 -0.9599
  879MOL0     O15897   9.234   7.160  10.059  0.1227  0.4126  0.2042
  879MOL0     C15898   9.263   7.242  10.144 -0.1305  0.1089  0.5310
  879MOL0     O15899   9.193   7.253  10.262 -0.0940 -0.4819 -0.8896
  879MOL0     C15900   9.074   7.190  10.291  0.3220 -0.1369 -0.2437
  879MOL0     C15901   9.052   7.157  10.427 -0.5755 -0.1394 -0.2230
  879MOL0     C15902   8.929   7.085  10.457 -0.7640 -0.3647 -0.1646
  879MOL0     C15903   8.831   7.059  10.358  0.2327  0.2793 -0.5812
  879MOL0     O15904   8.725   6.986  10.397 -0.0540 -0.5740  0.0417
  879MOL0     C15905   8.622   7.054  10.471  0.6158 -0.1307  0.5793
  879MOL0     C15906   8.484   6.991  10.442 -0.8697  1.0957  0.2220
  879MOL0     C15907   8.378   7.072  10.521  0.0769 -0.1843  0.1336
  879MOL0     C15908   8.241   7.026  10.493  0.4595  0.8453  0.1550
  879MOL0     C15909   8.146   7.097  10.583  1.0194  0.1031  0.7076
  879MOL0     C15910   7.999   7.056  10.539 -0.3470 -0.0571 -0.0748
  879MOL0     C15911   7.896   7.110  10.629  0.4870  0.5533 -0.4631
  879MOL0     C15912   7.758   7.061  10.571  0.2145  0.1651  0.0855
  879MOL0     N15913   7.645   7.100  10.650  0.7869 -0.2598 -0.0730
  879MOL0     C15914   7.634   7.204  10.743 -0.4012 -0.7386  0.5384
  879MOL0     C15915   7.500   7.204  10.764  0.0010  0.0450  0.0833
  879MOL0     C15916   7.423   7.290  10.857  0.0224 -0.7263  0.1612
  879MOL0     C15917   7.373   7.197  10.965 -0.3946 -0.4570  0.6672
  879MOL0     C15918   7.325   7.262  11.103  0.0927  0.1214  0.2795
  879MOL0     C15919   7.261   7.399  11.102  0.1519  0.1634 -0.2729
  879MOL0     O15920   7.223   7.427  11.239 -0.4885  0.4655 -0.0231
  879MOL0     C15921   7.137   7.527  11.259  0.2218  0.0911  1.0968
  879MOL0     C15922   7.104   7.564  11.391  0.7537  0.8175  0.5426
  879MOL0     C15923   7.011   7.656  11.420 -0.5545 -1.2400 -0.2822
  879MOL0     C15924   6.952   7.733  11.315  0.3467 -0.3791 -0.4827
  879MOL0     C15925   6.863   7.844  11.350 -1.0776  0.0093  0.2504
  879MOL0     O15926   6.787   7.915  11.251 -0.5363  0.4044 -0.0105
  879MOL0     C15927   6.683   7.998  11.293  0.7010 -1.2221 -1.0123
  879MOL0     C15928   6.566   7.943  11.355  0.1813  0.2752  0.3590
  879MOL0     C15929   6.466   8.026  11.406 -0.4083 -0.4651  0.6688
  879MOL0     C15930   6.473   8.166  11.391 -0.6823 -0.5755 -0.9042
  879MOL0     O15931   6.382   8.232  11.465 -0.2192  0.0164  0.4905
  879MOL0     C15932   6.313   8.342  11.393 -0.2491 -0.0903 -0.7572
  879MOL0     C15933   6.213   8.292  11.293 -0.3927  0.0202 -0.7505
  879MOL0     C15934   6.065   8.293  11.354  0.1645  0.1560  0.2098
  879MOL0     C15935   5.974   8.341  11.246 -0.1491  0.1238 -0.6048
  879MOL0     C15936   5.835   8.360  11.309  0.4737  0.3498 -0.3682
  879MOL0     C15937   5.729   8.419  11.212 -0.5183 -0.6113  0.1234
  879MOL0     C15938   5.735   8.569  11.207  0.1423  0.1219  0.6630
  879MOL0     C15939   5.620   8.629  11.112  0.0618 -0.3308 -0.9376
  879MOL0    Cl15940   5.622   8.814  11.105 -0.3938 -0.2788  0.1753
  879MOL0     C15941   6.592   8.222  11.333  0.2685 -0.2236  0.7374
  879MOL0     C15942   6.691   8.140  11.284 -0.7351  0.4640 -0.1400
  879MOL0     O15943   6.859   7.873  11.474  0.3514 -0.1578 -0.0599
  879MOL0     C15944   6.995   7.702  11.183  0.2493 -0.4052 -0.6215
  879MOL0     C15945   7.074   7.598  11.154 -0.2329 -0.1429 -0.4115
  879MOL0     N15946   7.435   7.101  10.692 -0.2551  0.4968 -0.6473
  879MOL0     N15947   7.524   7.040  10.623  0.1100  0.0881 -0.2055
  879MOL0     C15948   8.859   7.089  10.227  0.3168 -0.5467  0.5278
  879MOL0     C15949   8.980   7.150  10.189  0.4546 -0.6508 -0.3946
  879MOL0     C15950   9.379   7.324  10.127 -0.6290  0.3069  0.0501
  879MOL0     C15951   9.471   7.351  10.237 -0.3492 -0.4302 -0.4633
  879MOL0     C15952   9.591   7.429  10.220  0.0295  0.2723 -0.0972
  879MOL0     C15953   9.629   7.481  10.093  0.5165  0.0831 -0.2389
  879MOL0     O15954   9.743   7.553  10.095 -0.1011 -0.0927 -0.7040
  879MOL0     C15955   9.790   7.585   9.962 -0.2360  0.2901  0.0403
  879MOL0     C15956   9.931   7.636   9.974  0.3067  0.4064  0.1006
  879MOL0     C15957  10.002   7.651   9.844 -0.0862 -0.9342 -0.1167
  879MOL0     C15958  10.134   7.724   9.839  0.0289  0.2701  0.3683
  879MOL0     C15959  10.130   7.868   9.817  0.1656  0.0060  0.2544
  879MOL0     C15960  10.152   7.984   9.803  0.2298  0.0659  0.1995
  879MOL0     C15961   9.548   7.447   9.987  0.1249 -0.3963  0.9462
  879MOL0     C15962   9.425   7.385  10.000  0.8930  0.3926 -0.5233
  879MOL0     H15963   9.118   7.188  10.508 -0.3086 -1.3230  0.0367
  879MOL0     H15964   8.897   7.049  10.554  0.5345  1.0765  0.8303
  879MOL0     H15965   8.619   7.161  10.448  1.5317  0.0170  1.1040
  879MOL0     H15966   8.652   7.057  10.577  0.5588  2.6699  0.5998
  879MOL0     H15967   8.467   6.890  10.480 -1.3171  0.9203 -0.4239
  879MOL0     H15968   8.468   6.994  10.333  2.6353 -1.1857 -0.4905
  879MOL0     H15969   8.390   7.180  10.506  2.4103 -0.4863 -0.4773
  879MOL0     H15970   8.401   7.054  10.627 -0.6292 -3.6691 -0.1887
  879MOL0     H15971   8.213   7.042  10.388 -1.5767 -0.8680  0.3638
  879MOL0     H15972   8.240   6.918  10.508  1.1383  0.8591  0.3265
  879MOL0     H15973   8.151   7.205  10.566  1.0480 -0.0218 -0.1355
  879MOL0     H15974   8.165   7.058  10.683  1.5836  1.5897  1.2038
  879MOL0     H15975   7.981   6.949  10.554 -0.6453  0.2991  2.6973
  879MOL0     H15976   7.976   7.084  10.436 -0.5406  2.0340  0.4951
  879MOL0     H15977   7.918   7.066  10.726  3.5507  0.3633 -1.1500
  879MOL0     H15978   7.893   7.218  10.639 -4.6671  0.8108 -1.7312
  879MOL0     H15979   7.763   6.953  10.551 -0.8008 -0.0464  0.8508
  879MOL0     H15980   7.753   7.122  10.481 -0.9806  0.7726  0.5451
  879MOL0     H15981   7.715   7.264  10.784 -0.9166  0.1075  0.3472
  879MOL0     H15982   7.346   7.341  10.798  0.4917  1.1052  1.0492
  879MOL0     H15983   7.480   7.369  10.907 -0.6411 -0.5230  0.6041
  879MOL0     H15984   7.456   7.127  10.982 -0.0312 -0.6931 -1.7507
  879MOL0     H15985   7.305   7.131  10.911  0.9083  1.1918 -3.3935
  879MOL0     H15986   7.258   7.195  11.157 -0.1680 -1.1098 -1.5020
  879MOL0     H15987   7.418   7.266  11.162  1.0547  1.1197 -1.2157
  879MOL0     H15988   7.170   7.394  11.041  0.5979  2.8448 -1.3238
  879MOL0     H15989   7.332   7.467  11.054  0.0541  0.4376 -0.0335
  879MOL0     H15990   7.157   7.505  11.464  3.6358 -0.8305 -2.6286
  879MOL0     H15991   6.993   7.672  11.526  1.4836  1.0234 -0.1704
  879MOL0     H15992   6.559   7.836  11.371  0.6299  0.3418  1.0347
  879MOL0     H15993   6.393   7.995  11.480  1.2956 -0.8828  2.2259
  879MOL0     H15994   6.384   8.404  11.338  1.2622 -1.4923 -0.4659
  879MOL0     H15995   6.269   8.417  11.459  2.9770  3.0641 -1.8895
  879MOL0     H15996   6.235   8.189  11.262 -0.5062 -0.0316 -0.6628
  879MOL0     H15997   6.219   8.366  11.213 -2.1014  3.2485  1.8686
  879MOL0     H15998   6.060   8.363  11.437  0.5505  1.4596 -0.8255
  879MOL0     H15999   6.026   8.193  11.376 -1.7820  0.6650 -0.6890
  879MOL0     H16000   6.012   8.437  11.211 -3.5407  2.7727  2.1403
  879MOL0     H16001   5.983   8.272  11.161  1.6195 -0.9934  0.4315
  879MOL0     H16002   5.835   8.419  11.401  2.5919 -1.6411  0.9940
  879MOL0     H16003   5.788   8.265  11.336 -0.6297  0.6238 -1.2236
  879MOL0     H16004   5.634   8.379  11.248 -1.4690  1.3730 -0.0618
  879MOL0     H16005   5.752   8.382  11.112 -0.6076  0.1603 -0.1869
  879MOL0     H16006   5.727   8.611  11.308 -0.4212 -0.6132  0.9313
  879MOL0     H16007   5.833   8.603  11.173 -0.3380  0.5446 -0.3075
  879MOL0     H16008   5.521   8.601  11.150 -1.0153  2.4858 -1.4198
  879MOL0     H16009   5.630   8.601  11.007 -2.9501 -1.3059 -1.0556
  879MOL0     H16010   6.602   8.330  11.327 -1.4173  0.0159  1.8072
  879MOL0     H16011   6.793   8.168  11.258  1.5348 -2.2030  4.4796
  879MOL0     H16012   6.940   7.753  11.105  2.1503  0.8690 -1.2156
  879MOL0     H16013   7.080   7.580  11.047  1.2112  0.0282 -0.3753
  879MOL0     H16014   8.798   7.066  10.140  1.7799  0.4360 -0.8045
  879MOL0     H16015   9.002   7.166  10.084 -0.1937  0.1955 -0.4190
  879MOL0     H16016   9.460   7.321  10.340 -1.1033 -0.9052 -0.6774
  879MOL0     H16017   9.648   7.464  10.305 -0.6290  2.9785 -0.6663
  879MOL0     H16018   9.728   7.665   9.921 -0.3592  2.4545  3.9971
  879MOL0     H16019   9.804   7.498   9.896 -1.5408  0.3124 -0.2964
  879MOL0     H16020   9.925   7.734  10.024 -2.1545  2.1880 -3.2792
  879MOL0     H16021   9.988   7.564  10.033 -0.9658  0.2596  1.2109
  879MOL0     H16022   9.940   7.703   9.771 -1.8593  1.9033  3.0986
  879MOL0     H16023  10.030   7.551   9.810 -0.5530 -1.0287 -0.2314
  879MOL0     H16024  10.181   7.706   9.936  0.6462 -1.4953 -0.2164
  879MOL0     H16025  10.198   7.685   9.760 -2.1399 -1.7032 -0.5511
  879MOL0     H16026  10.194   8.083   9.805 -2.5024  1.3373  2.6120
  879MOL0     H16027   9.569   7.478   9.885  1.5841  1.0803  1.6434
  879MOL0     H16028   9.377   7.351   9.909  0.8196 -1.9650  0.3229
  880MOL0     O16029   6.994   1.007   4.780 -0.6516  0.0118  0.4676
  880MOL0     C16030   7.013   1.060   4.890  0.2381  1.0609  0.2146
  880MOL0     O16031   6.917   1.072   4.992  0.4724  0.7849  1.5461
  880MOL0     C16032   6.786   1.038   4.976  0.0870 -0.1146 -0.6217
  880MOL0     C16033   6.704   1.093   5.075 -0.5519  0.2799 -0.1488
  880MOL0     C16034   6.563   1.075   5.072 -0.3542 -0.1751 -0.3076
  880MOL0     C16035   6.505   0.993   4.974  0.7238  1.1019  0.7680
  880MOL0     O16036   6.368   0.967   4.957 -0.0856 -0.3816  0.3500
  880MOL0     C16037   6.276   0.997   5.065 -0.1925  1.0005  0.2785
  880MOL0     C16038   6.138   0.947   5.040 -1.0085 -0.1921 -0.5493
  880MOL0     C16039   6.044   0.921   5.157 -0.3288  0.0631 -0.5957
  880MOL0     C16040   6.029   1.036   5.251 -0.5772  0.7088  0.1335
  880MOL0     C16041   5.891   1.051   5.320  0.5085  0.2780  0.0929
  880MOL0     C16042   5.883   1.182   5.399  0.3376  0.1743  0.3043
  880MOL0     C16043   5.735   1.215   5.435 -0.0827  0.4176  0.1542
  880MOL0     C16044   5.715   1.326   5.533 -0.2062  0.2858 -0.5519
  880MOL0     N16045   5.582   1.338   5.585  0.5960 -0.1726 -0.8693
  880MOL0     C16046   5.534   1.280   5.694 -0.1014  0.0190 -0.6138
  880MOL0     C16047   5.415   1.343   5.719  0.2625 -0.2545  0.2014
  880MOL0     C16048   5.330   1.294   5.833 -0.8885  0.4894 -0.2192
  880MOL0     C16049   5.230   1.406   5.881  0.3060  0.0728  0.4859
  880MOL0     C16050   5.147   1.347   5.983 -0.2057  0.0303  0.3362
  880MOL0     C16051   5.066   1.440   6.075  0.1977 -0.7453  0.7725
  880MOL0     O16052   4.989   1.515   5.978 -0.2593 -0.0441 -0.0811
  880MOL0     C16053   4.921   1.619   6.035 -0.6068 -1.2153 -0.0662
  880MOL0     C16054   4.993   1.738   6.076  0.1880 -0.5655 -0.0722
  880MOL0     C16055   4.924   1.843   6.134  0.1827 -0.5553 -0.5337
  880MOL0     C16056   4.783   1.836   6.141  0.0448 -0.4109  1.2401
  880MOL0     C16057   4.698   1.953   6.180  0.3301  0.6090  0.6261
  880MOL0     O16058   4.566   1.925   6.182  0.4651 -0.3164 -0.1326
  880MOL0     C16059   4.474   2.027   6.192  0.1724 -1.1274 -0.0381
  880MOL0     C16060   4.366   1.996   6.274  0.4860 -0.6155 -0.2902
  880MOL0     C16061   4.258   2.087   6.293 -0.1720 -0.7167 -0.3243
  880MOL0     C16062   4.267   2.215   6.250 -0.1825  0.0506 -0.1900
  880MOL0     O16063   4.167   2.296   6.303  0.4614 -0.1151  0.1922
  880MOL0     C16064   4.199   2.431   6.315 -0.6798 -0.6519 -0.8529
  880MOL0     C16065   4.117   2.501   6.425  0.0760  0.1655  0.1687
  880MOL0     C16066   4.110   2.644   6.395  0.2464  0.4961  0.1756
  880MOL0     C16067   4.024   2.716   6.512 -0.3052  0.1754 -0.4213
  880MOL0     C16068   3.954   2.845   6.480  0.0012  0.0258  1.3001
  880MOL0     C16069   3.873   2.920   6.584 -0.8335 -0.1767 -0.2603
  880MOL0     C16070   3.746   2.849   6.621  0.3087 -0.5344  0.1175
  880MOL0     C16071   3.647   2.941   6.685 -0.2645 -0.2866 -0.4220
  880MOL0    Cl16072   3.712   3.028   6.818  0.4097 -0.0308  0.1746
  880MOL0     C16073   4.382   2.250   6.177 -1.6014 -0.3527  0.0300
  880MOL0     C16074   4.479   2.154   6.144  0.4970  0.6103  0.3094
  880MOL0     O16075   4.746   2.062   6.205 -0.0222  0.4987  0.2581
  880MOL0     C16076   4.720   1.718   6.103 -0.1121  0.1327  0.9654
  880MOL0     C16077   4.785   1.610   6.046 -0.8449 -0.4199  0.4974
  880MOL0     N16078   5.390   1.433   5.618  0.1797  0.2330 -0.0392
  880MOL0     N16079   5.493   1.425   5.533 -0.2117  0.3178 -0.1756
  880MOL0     C16080   6.586   0.928   4.877 -0.3380  0.5292 -1.0112
  880MOL0     C16081   6.729   0.953   4.876 -0.4377  0.1903 -0.2425
  880MOL0     C16082   7.144   1.125   4.919 -0.4811  0.1901 -0.4360
  880MOL0     C16083   7.156   1.224   5.025  0.6612  0.7051 -0.1740
  880MOL0     C16084   7.273   1.291   5.040 -0.0579 -0.5479  0.1797
  880MOL0     C16085   7.384   1.275   4.959 -0.8516 -0.0073 -0.1647
  880MOL0     O16086   7.510   1.327   4.965 -0.1066  0.5086  0.0576
  880MOL0     C16087   7.513   1.438   5.051  0.0252  0.2684 -0.8836
  880MOL0     C16088   7.658   1.491   5.065  0.0768 -0.1768 -0.3942
  880MOL0     C16089   7.740   1.518   4.941  0.5481  0.3941  0.2257
  880MOL0     C16090   7.884   1.551   4.980 -0.3232 -0.2723 -0.5425
  880MOL0     C16091   7.968   1.543   4.863  0.4721 -1.4165  0.0462
  880MOL0     C16092   8.042   1.550   4.765 -0.0919 -0.2439 -0.5836
  880MOL0     C16093   7.375   1.171   4.864  0.3033  0.6543  0.3620
  880MOL0     C16094   7.259   1.097   4.842  0.4380  0.1046 -0.8115
  880MOL0     H16095   6.740   1.154   5.158 -2.7650  1.1570  0.2551
  880MOL0     H16096   6.496   1.128   5.139 -0.5339  0.9025 -1.3100
  880MOL0     H16097   6.263   1.103   5.089 -1.2602  0.3552  2.9285
  880MOL0     H16098   6.313   0.956   5.160  2.3168  1.6090 -0.3408
  880MOL0     H16099   6.144   0.852   4.985  0.5057  0.4824 -1.6272
  880MOL0     H16100   6.087   1.017   4.973  1.7789  2.7323  0.1267
  880MOL0     H16101   6.073   0.835   5.217 -0.2069  3.1542  4.3027
  880MOL0     H16102   5.945   0.907   5.113 -0.2100  0.0309 -0.8536
  880MOL0     H16103   6.107   1.030   5.326 -2.1650  0.9370  1.8744
  880MOL0     H16104   6.060   1.126   5.197  2.2373 -0.0429  0.3398
  880MOL0     H16105   5.868   0.965   5.382 -0.8053 -0.5668 -1.4728
  880MOL0     H16106   5.828   1.055   5.230 -0.0210 -0.8366  0.3974
  880MOL0     H16107   5.922   1.263   5.336  0.3968  0.4526  0.6985
  880MOL0     H16108   5.940   1.169   5.491 -0.8590 -0.7257  0.9447
  880MOL0     H16109   5.680   1.241   5.344  1.6659  1.7197 -0.5862
  880MOL0     H16110   5.684   1.125   5.473  0.3008 -0.1136 -0.5580
  880MOL0     H16111   5.733   1.412   5.468  0.3338 -0.9867 -2.1727
  880MOL0     H16112   5.792   1.311   5.609  0.0611 -3.0539 -1.3259
  880MOL0     H16113   5.589   1.211   5.757 -0.8439 -3.1201 -3.1635
  880MOL0     H16114   5.401   1.274   5.913 -0.3697 -0.6494 -0.9323
  880MOL0     H16115   5.290   1.199   5.795  2.9702  0.1977 -4.3462
  880MOL0     H16116   5.172   1.447   5.797 -0.0654 -0.6775  0.3623
  880MOL0     H16117   5.287   1.485   5.930 -1.8119  0.3829  2.6418
  880MOL0     H16118   5.081   1.271   5.941  1.1611 -1.2149  0.3457
  880MOL0     H16119   5.218   1.296   6.048  2.0230  0.2816 -1.7487
  880MOL0     H16120   5.135   1.511   6.123 -0.2731 -1.2835  2.3092
  880MOL0     H16121   5.012   1.387   6.153 -0.2252 -1.9541 -0.3202
  880MOL0     H16122   5.101   1.746   6.080  0.2117  1.3919 -2.0988
  880MOL0     H16123   4.965   1.941   6.157  0.8027 -0.8015 -0.5684
  880MOL0     H16124   4.364   1.905   6.334  0.7559  1.4209  3.1126
  880MOL0     H16125   4.172   2.077   6.359  1.0423  0.0003  1.4325
  880MOL0     H16126   4.186   2.479   6.218  3.3952  0.8823 -0.8399
  880MOL0     H16127   4.299   2.445   6.358 -0.9941  0.4358 -0.4472
  880MOL0     H16128   4.157   2.482   6.525  2.0819  0.7412 -0.4895
  880MOL0     H16129   4.017   2.456   6.433  0.6445 -0.9264  1.4569
  880MOL0     H16130   4.053   2.652   6.302  1.2964  0.2943 -0.5012
  880MOL0     H16131   4.210   2.685   6.374  1.0743 -1.4393  0.1560
  880MOL0     H16132   3.964   2.632   6.549  1.5849 -0.0478  2.3846
  880MOL0     H16133   4.094   2.729   6.594  1.1582 -4.5030 -0.5882
  880MOL0     H16134   3.885   2.815   6.400 -1.2544  1.8039  1.6722
  880MOL0     H16135   4.037   2.911   6.453  1.3642 -2.1749 -0.2371
  880MOL0     H16136   3.855   3.023   6.553 -1.9846 -0.4825 -0.6635
  880MOL0     H16137   3.943   2.922   6.668 -0.6815 -2.1092 -0.2976
  880MOL0     H16138   3.708   2.777   6.548  1.6038 -2.8820  1.5950
  880MOL0     H16139   3.770   2.779   6.702  0.0309  3.0908  3.6203
  880MOL0     H16140   3.552   2.897   6.715 -1.3170  2.4518  0.4913
  880MOL0     H16141   3.626   3.009   6.602 -0.0877  0.2041 -0.0683
  880MOL0     H16142   4.402   2.355   6.157  1.8709 -0.6118  1.4046
  880MOL0     H16143   4.563   2.181   6.080  0.6490 -1.1632 -0.2893
  880MOL0     H16144   4.612   1.704   6.106 -0.2244  0.8584  0.6670
  880MOL0     H16145   4.746   1.517   6.007 -2.7998  0.8464 -0.7764
  880MOL0     H16146   6.548   0.846   4.818 -3.2504 -0.1744  1.5734
  880MOL0     H16147   6.779   0.897   4.798  0.0364  1.7951 -1.1342
  880MOL0     H16148   7.073   1.243   5.093  2.6421  0.4834  2.4882
  880MOL0     H16149   7.275   1.354   5.128 -0.3133 -0.1207 -0.1179
  880MOL0     H16150   7.493   1.390   5.147  3.8847  1.1198  0.5204
  880MOL0     H16151   7.437   1.511   5.020  0.7209  0.9625 -1.0156
  880MOL0     H16152   7.649   1.584   5.122  0.6988  1.5186 -2.8842
  880MOL0     H16153   7.712   1.426   5.134  0.0825  0.6552  0.4072
  880MOL0     H16154   7.693   1.607   4.900 -0.9377 -0.6996 -0.5339
  880MOL0     H16155   7.740   1.429   4.877  1.2784 -1.9053  3.1531
  880MOL0     H16156   7.879   1.651   5.025  1.5919 -0.8646  1.1252
  880MOL0     H16157   7.922   1.482   5.056  1.1750  1.6698  0.5666
  880MOL0     H16158   8.109   1.552   4.681 -0.9619 -1.9992 -1.3700
  880MOL0     H16159   7.472   1.165   4.816 -0.1887  0.1352 -0.5920
  880MOL0     H16160   7.252   1.025   4.761 -2.3448  1.5707 -1.9867
  881MOL0     O16161  10.581   0.403   1.555 -0.1359  0.1824 -0.0436
  881MOL0     C16162  10.625   0.334   1.645  0.1548  0.4770  0.3565
  881MOL0     O16163  10.740   0.354   1.707 -0.4452  0.3557  0.3408
  881MOL0     C16164  10.808   0.469   1.700  0.3179 -0.1736  0.2516
  881MOL0     C16165  10.863   0.531   1.813 -0.5839  0.5889  0.2178
  881MOL0     C16166  10.936   0.649   1.812  0.5384  0.1932 -0.9497
  881MOL0     C16167  10.966   0.714   1.688  0.1468  0.0685  0.4351
  881MOL0     O16168  11.020   0.837   1.697  0.1722  0.3804 -0.5058
  881MOL0     C16169  11.098   0.893   1.596  0.0828  0.6605 -0.2332
  881MOL0     C16170  11.154   1.024   1.637  0.0845  0.2425  0.5992
  881MOL0     C16171  11.228   1.014   1.774  0.1995  0.1730 -0.1249
  881MOL0     C16172  11.286   1.158   1.810 -0.0122 -1.0535 -0.5521
  881MOL0     C16173  11.370   1.152   1.942  0.6909  0.9150  0.1458
  881MOL0     C16174  11.423   1.291   1.975 -0.1322  0.4014  0.1743
  881MOL0     C16175  11.510   1.289   2.103  0.1250  0.9515 -0.3792
  881MOL0     C16176  11.635   1.208   2.077 -0.4008  0.0354  0.2899
  881MOL0     N16177  11.746   1.263   2.153 -0.0631 -0.2572  0.5325
  881MOL0     C16178  11.740   1.307   2.285  0.0819  0.0957  0.0197
  881MOL0     C16179  11.866   1.353   2.317  0.6505  0.1650 -0.2224
  881MOL0     C16180  11.887   1.410   2.451  0.4925 -0.2888  0.3161
  881MOL0     C16181  11.976   1.320   2.542  0.2926  1.1238 -0.6677
  881MOL0     C16182  11.888   1.194   2.598  0.2843  0.4932 -0.2896
  881MOL0     C16183  11.992   1.082   2.639  0.5679 -0.4418  0.0337
  881MOL0     O16184  11.912   0.977   2.696 -0.1404 -0.3890 -0.8795
  881MOL0     C16185  11.969   0.874   2.761 -0.8144 -0.1546 -0.5952
  881MOL0     C16186  12.091   0.815   2.732 -1.1788  0.1177  0.0165
  881MOL0     C16187  12.144   0.703   2.803 -0.4446  0.1431  0.5254
  881MOL0     C16188  12.066   0.632   2.894  1.0447  0.4569 -0.4904
  881MOL0     C16189  12.108   0.502   2.960  0.5987  0.2206 -0.5454
  881MOL0     O16190  12.242   0.489   2.942 -0.0986 -0.6841 -0.3025
  881MOL0     C16191  12.298   0.385   3.001  0.0211 -0.1448  0.6324
  881MOL0     C16192  12.371   0.306   2.911  0.4069  0.4599  0.1830
  881MOL0     C16193  12.448   0.197   2.949 -0.7768  0.8030 -0.2139
  881MOL0     C16194  12.442   0.157   3.084  0.1076 -1.0515 -0.9113
  881MOL0     O16195  12.513   0.047   3.127 -0.1501 -0.6588 -0.3360
  881MOL0     C16196  12.556   0.033   3.263  0.1802  0.0863 -0.2956
  881MOL0     C16197  12.619  -0.108   3.286  0.6534 -0.0996  0.3621
  881MOL0     C16198  12.720  -0.118   3.399 -1.1882 -0.4858  0.3377
  881MOL0     C16199  12.757  -0.257   3.453 -0.3708  0.3657 -0.0256
  881MOL0     C16200  12.833  -0.336   3.348 -0.3535 -0.5452  0.7614
  881MOL0     C16201  12.857  -0.472   3.406  0.1213 -0.0761  0.8390
  881MOL0     C16202  12.936  -0.560   3.305 -0.9496 -0.6722 -0.1106
  881MOL0     C16203  12.912  -0.704   3.352 -0.5913 -0.1148  0.3185
  881MOL0    Cl16204  13.008  -0.807   3.254 -0.4259 -0.3057 -0.1136
  881MOL0     C16205  12.367   0.240   3.172  0.1318  0.0328  0.0120
  881MOL0     C16206  12.290   0.355   3.136  0.0685 -0.3244 -0.0842
  881MOL0     O16207  12.020   0.415   2.997 -0.5304 -0.3662 -0.5530
  881MOL0     C16208  11.942   0.693   2.923  0.2398 -0.1310  0.0343
  881MOL0     C16209  11.899   0.810   2.852 -0.5612 -0.4279 -0.5620
  881MOL0     N16210  11.942   1.338   2.209  0.3068  0.1809 -0.2664
  881MOL0     N16211  11.875   1.269   2.116 -0.3794 -0.5234  0.1428
  881MOL0     C16212  10.927   0.648   1.572 -1.1110 -0.3614  0.3344
  881MOL0     C16213  10.846   0.527   1.575  0.8349  0.1914 -0.5455
  881MOL0     C16214  10.550   0.208   1.684  0.5144 -0.4403 -0.6330
  881MOL0     C16215  10.608   0.115   1.770  1.0714  0.7668  0.2899
  881MOL0     C16216  10.533   0.005   1.808 -0.4002  0.6978  0.0101
  881MOL0     C16217  10.399  -0.008   1.781 -0.0380  0.3207  0.3792
  881MOL0     O16218  10.336  -0.125   1.819  0.1287 -1.1642 -0.0526
  881MOL0     C16219  10.280  -0.125   1.957  0.1063 -0.2021  0.3562
  881MOL0     C16220  10.127  -0.091   1.963  0.3293  0.3909 -0.2669
  881MOL0     C16221  10.076  -0.092   2.112  0.3475  0.5678 -0.1579
  881MOL0     C16222  10.058  -0.228   2.184 -0.2964  0.1211  0.3269
  881MOL0     C16223   9.961  -0.323   2.120 -0.5306  1.1779  0.1345
  881MOL0     C16224   9.889  -0.407   2.065  0.3758 -0.9512  0.3718
  881MOL0     C16225  10.339   0.080   1.688  0.4318 -0.1223 -0.4129
  881MOL0     C16226  10.416   0.179   1.627 -0.1348  0.9930 -0.5407
  881MOL0     H16227  10.847   0.480   1.907  1.5334 -1.2313 -0.3329
  881MOL0     H16228  10.964   0.689   1.910 -0.1131 -4.6047  1.4763
  881MOL0     H16229  11.049   0.901   1.499 -0.4520  0.6267  0.0330
  881MOL0     H16230  11.182   0.824   1.580 -0.9086 -0.1829 -1.9763
  881MOL0     H16231  11.066   1.089   1.645 -0.5588 -0.4038 -0.9760
  881MOL0     H16232  11.226   1.058   1.562  1.6257  0.9523  2.3129
  881MOL0     H16233  11.298   0.937   1.744 -0.8216 -0.4717 -0.9257
  881MOL0     H16234  11.158   0.973   1.848  1.2382 -0.9067  0.2884
  881MOL0     H16235  11.344   1.198   1.726  0.6353  0.1779  0.4516
  881MOL0     H16236  11.202   1.223   1.833  0.1797 -1.4406  1.4180
  881MOL0     H16237  11.453   1.085   1.918  1.0301  0.0375  3.2627
  881MOL0     H16238  11.314   1.105   2.023  1.3483  1.1440  0.7559
  881MOL0     H16239  11.329   1.346   1.987 -1.1651 -0.9606 -1.2049
  881MOL0     H16240  11.481   1.328   1.890 -1.2725  1.4230 -0.1938
  881MOL0     H16241  11.533   1.392   2.134 -0.3217  0.3597  2.1100
  881MOL0     H16242  11.463   1.248   2.193  0.1960  1.2189 -0.2188
  881MOL0     H16243  11.651   1.216   1.969 -4.2026 -2.4980 -0.6160
  881MOL0     H16244  11.631   1.101   2.098  0.0195 -0.0379  0.0145
  881MOL0     H16245  11.654   1.324   2.350  1.4023  4.3837  0.9749
  881MOL0     H16246  11.795   1.429   2.506  0.5330 -2.3765  1.1787
  881MOL0     H16247  11.947   1.501   2.439 -0.2706  0.1082 -0.6789
  881MOL0     H16248  12.031   1.376   2.618  3.7118 -1.2027 -1.1832
  881MOL0     H16249  12.060   1.279   2.484 -0.5845 -0.2821 -1.0130
  881MOL0     H16250  11.834   1.234   2.685  0.6531 -1.9227  1.1459
  881MOL0     H16251  11.815   1.153   2.528 -0.3387  0.6442  0.2555
  881MOL0     H16252  12.068   1.114   2.711 -0.2731 -1.5727  1.4889
  881MOL0     H16253  12.039   1.048   2.546  0.7405 -0.0121 -0.0350
  881MOL0     H16254  12.144   0.852   2.645 -0.4794  0.8782  0.7445
  881MOL0     H16255  12.247   0.675   2.783  0.0692  0.4524  2.5093
  881MOL0     H16256  12.369   0.324   2.804 -0.4155 -2.1570 -0.3207
  881MOL0     H16257  12.510   0.132   2.888  2.7310 -0.7251  4.4172
  881MOL0     H16258  12.478   0.041   3.339  1.5864 -1.3723  1.4113
  881MOL0     H16259  12.625   0.112   3.293  0.6076 -0.9145  1.4820
  881MOL0     H16260  12.672  -0.141   3.196 -1.8879  1.9792 -2.0972
  881MOL0     H16261  12.536  -0.179   3.289  0.4266 -0.1439 -2.9991
  881MOL0     H16262  12.696  -0.047   3.480 -2.5374  0.6703 -1.0157
  881MOL0     H16263  12.812  -0.083   3.351 -3.0448  1.7251 -1.8620
  881MOL0     H16264  12.821  -0.249   3.541 -0.3181 -0.1853 -0.0109
  881MOL0     H16265  12.665  -0.311   3.480 -0.1053  0.1805  0.5078
  881MOL0     H16266  12.920  -0.279   3.315  0.1491 -1.4076  0.5782
  881MOL0     H16267  12.764  -0.351   3.264  2.5872 -0.2796 -1.8925
  881MOL0     H16268  12.765  -0.526   3.433  1.2504 -2.3825  0.3452
  881MOL0     H16269  12.905  -0.454   3.503  1.5586  1.2825 -0.0869
  881MOL0     H16270  12.895  -0.553   3.204  1.9911  0.5033 -1.3696
  881MOL0     H16271  13.037  -0.520   3.293 -1.1856  0.3943  1.2205
  881MOL0     H16272  12.807  -0.736   3.348 -0.8098  0.6293  0.0210
  881MOL0     H16273  12.962  -0.716   3.449  2.3991  1.8351 -0.8511
  881MOL0     H16274  12.364   0.211   3.276 -2.8524  0.1130  0.0294
  881MOL0     H16275  12.244   0.423   3.207 -3.4169  1.6705 -3.7975
  881MOL0     H16276  11.880   0.644   2.997  0.1016  1.1715  0.8226
  881MOL0     H16277  11.810   0.865   2.882 -1.7031 -1.6356 -1.6121
  881MOL0     H16278  10.955   0.694   1.478 -0.8274 -2.5198 -0.7111
  881MOL0     H16279  10.804   0.488   1.483  0.4954  0.2019 -0.3955
  881MOL0     H16280  10.706   0.129   1.813  0.1079 -0.3923  3.0676
  881MOL0     H16281  10.574  -0.081   1.860  0.8114 -1.9570 -4.7203
  881MOL0     H16282  10.338  -0.049   2.011  0.1550  1.9347 -2.4543
  881MOL0     H16283  10.305  -0.226   1.992  0.6286 -0.5792 -1.0121
  881MOL0     H16284  10.108   0.008   1.923 -1.1515  0.2142 -0.0310
  881MOL0     H16285  10.066  -0.165   1.911  0.6946 -0.4248  0.4375
  881MOL0     H16286   9.977  -0.046   2.111  0.6531  1.2993 -2.5216
  881MOL0     H16287  10.142  -0.030   2.173  0.1448  0.7807 -0.1552
  881MOL0     H16288  10.157  -0.272   2.172 -0.3673 -0.3475  1.3298
  881MOL0     H16289  10.054  -0.217   2.293  0.0690  0.4804  0.3086
  881MOL0     H16290   9.820  -0.475   2.019 -1.5509  0.9112  0.3719
  881MOL0     H16291  10.237   0.062   1.656  0.4122 -1.9884  0.5816
  881MOL0     H16292  10.367   0.243   1.554 -0.1634  0.5985 -0.8705
  882MOL0     O16293   3.635   5.219   7.419  0.0852 -0.3126 -0.0761
  882MOL0     C16294   3.649   5.097   7.449 -0.8125  0.2193 -0.6416
  882MOL0     O16295   3.603   5.035   7.561  0.0766 -1.1077  0.0403
  882MOL0     C16296   3.505   5.094   7.635  0.3723 -0.0711 -0.6177
  882MOL0     C16297   3.492   5.032   7.758 -0.3860 -0.0916 -0.6704
  882MOL0     C16298   3.380   5.055   7.846  0.6513  0.0062 -0.4487
  882MOL0     C16299   3.298   5.155   7.814 -0.2307  0.4549 -0.1180
  882MOL0     O16300   3.186   5.189   7.895  0.3452 -0.2448  0.5014
  882MOL0     C16301   3.140   5.108   8.002  0.1614 -0.0081  0.0941
  882MOL0     C16302   3.070   4.975   7.956 -0.3734  0.5787  0.0015
  882MOL0     C16303   2.932   5.002   7.902 -0.0907 -0.3135  0.4539
  882MOL0     C16304   2.838   5.075   8.002  0.3507 -1.2367  0.0293
  882MOL0     C16305   2.690   5.029   7.967 -0.4585  0.1284 -0.5250
  882MOL0     C16306   2.612   5.080   8.079 -0.2179  0.6698 -0.0973
  882MOL0     C16307   2.468   5.016   8.078 -0.1398 -0.4709 -0.7734
  882MOL0     C16308   2.386   5.059   8.194  0.7971 -0.0594 -0.1002
  882MOL0     N16309   2.245   5.013   8.175 -0.2738  0.2773  0.4150
  882MOL0     C16310   2.160   5.038   8.073 -0.9646 -0.3208 -0.7017
  882MOL0     C16311   2.038   4.991   8.108  1.1950 -0.0580 -0.6174
  882MOL0     C16312   1.909   4.994   8.034 -0.2232  0.2773  0.8726
  882MOL0     C16313   1.920   4.871   7.937 -0.5288  0.3970 -0.2516
  882MOL0     C16314   1.818   4.878   7.822  0.5249  0.3095  0.4391
  882MOL0     C16315   1.684   4.875   7.884  0.4499 -0.7592  0.6542
  882MOL0     O16316   1.595   4.895   7.776 -0.4762  0.2833 -0.3601
  882MOL0     C16317   1.474   4.928   7.811  0.6951  0.4343 -0.3934
  882MOL0     C16318   1.409   4.923   7.939  1.2399 -0.2076 -0.6353
  882MOL0     C16319   1.272   4.969   7.961  0.2330 -0.9030 -0.5456
  882MOL0     C16320   1.198   5.018   7.859 -0.3899 -0.4508  1.0591
  882MOL0     C16321   1.070   5.081   7.879 -0.2300 -0.2861 -0.4850
  882MOL0     O16322   1.032   5.114   8.002  0.3418  0.2655  0.2301
  882MOL0     C16323   0.910   5.175   8.019 -0.6229  0.2255 -1.9966
  882MOL0     C16324   0.864   5.287   7.953  0.0717  0.6404  0.9622
  882MOL0     C16325   0.734   5.338   7.976 -0.2166 -0.4464 -1.1200
  882MOL0     C16326   0.645   5.282   8.062 -0.4604  0.2955  0.7165
  882MOL0     O16327   0.508   5.306   8.065 -1.0783  0.3911  0.0489
  882MOL0     C16328   0.448   5.405   7.983  0.2221  0.4100  0.4626
  882MOL0     C16329   0.469   5.542   8.041  1.0119  0.8803  0.8707
  882MOL0     C16330   0.461   5.544   8.196  0.0794 -0.8340 -0.2209
  882MOL0     C16331   0.482   5.691   8.258  0.0822  0.7188  0.9422
  882MOL0     C16332   0.485   5.698   8.415  0.4472 -1.0498 -0.3206
  882MOL0     C16333   0.350   5.700   8.487  0.0241 -0.6578 -0.4155
  882MOL0     C16334   0.362   5.751   8.632 -0.1771 -0.6812 -0.0141
  882MOL0     C16335   0.224   5.747   8.697  0.0811  0.4536 -0.3848
  882MOL0    Cl16336   0.184   5.571   8.723 -0.2504 -0.0573 -0.1071
  882MOL0     C16337   0.689   5.168   8.133 -0.3379  0.8240 -0.0467
  882MOL0     C16338   0.819   5.118   8.119  0.2188  0.7844  0.9502
  882MOL0     O16339   0.996   5.099   7.782 -0.3947  0.3101 -0.4092
  882MOL0     C16340   1.258   5.027   7.732  0.9344  0.5014 -0.2678
  882MOL0     C16341   1.385   4.968   7.711  0.5929 -1.8621  0.2469
  882MOL0     N16342   2.047   4.934   8.230  0.0796 -0.2937  0.4361
  882MOL0     N16343   2.166   4.949   8.268 -0.6096  0.0278 -0.8480
  882MOL0     C16344   3.313   5.227   7.694  0.5898  0.1091  0.1880
  882MOL0     C16345   3.411   5.196   7.605  0.8234 -0.3388  1.4634
  882MOL0     C16346   3.714   5.014   7.344  0.4606  0.6607 -0.3056
  882MOL0     C16347   3.771   5.064   7.229 -0.2593 -0.2648 -0.3837
  882MOL0     C16348   3.832   4.979   7.137  0.2116  0.4617  0.4921
  882MOL0     C16349   3.844   4.841   7.163 -0.0069 -0.3409  0.2678
  882MOL0     O16350   3.889   4.748   7.074  0.1120 -0.2202 -0.1328
  882MOL0     C16351   3.928   4.774   6.940 -0.0016  0.3248  0.6800
  882MOL0     C16352   3.819   4.738   6.837 -0.1783  0.9458 -0.4335
  882MOL0     C16353   3.791   4.587   6.843 -0.1828 -0.2805  0.4145
  882MOL0     C16354   3.672   4.543   6.761 -0.8146  0.1386  0.4442
  882MOL0     C16355   3.713   4.569   6.622 -0.1135  0.4254 -0.1948
  882MOL0     C16356   3.740   4.580   6.507  0.3911 -0.2521  0.6734
  882MOL0     C16357   3.808   4.793   7.286  0.0028 -0.1318  0.2681
  882MOL0     C16358   3.736   4.874   7.372 -0.3070  0.2661  0.2435
  882MOL0     H16359   3.561   4.951   7.778 -1.5321 -0.7009  1.1141
  882MOL0     H16360   3.379   4.975   7.920  3.3171 -1.9335 -2.2850
  882MOL0     H16361   3.073   5.166   8.066 -1.0563  0.6394 -1.6835
  882MOL0     H16362   3.231   5.077   8.056  0.2058 -1.4656 -0.7843
  882MOL0     H16363   3.057   4.908   8.042  1.6290  1.6797  1.2343
  882MOL0     H16364   3.122   4.921   7.877 -3.1024 -2.4261  0.0630
  882MOL0     H16365   2.885   4.906   7.881  2.0761 -1.7616  1.8538
  882MOL0     H16366   2.940   5.065   7.812  2.0239 -0.1290  0.7150
  882MOL0     H16367   2.867   5.045   8.103  0.3076 -1.4124 -0.0094
  882MOL0     H16368   2.848   5.183   7.991 -0.4618 -0.7561  3.0919
  882MOL0     H16369   2.685   4.921   7.949 -0.2779  0.1587 -0.7569
  882MOL0     H16370   2.655   5.088   7.882 -0.2837  0.5721 -0.2927
  882MOL0     H16371   2.607   5.188   8.069 -1.6065  0.5370 -1.0731
  882MOL0     H16372   2.666   5.054   8.170  1.6305  0.9777 -1.0394
  882MOL0     H16373   2.423   5.027   7.979  1.0871 -2.7295 -1.6369
  882MOL0     H16374   2.484   4.910   8.099  0.9015  0.2441  2.6230
  882MOL0     H16375   2.388   5.169   8.190  1.1864 -0.0703 -0.2868
  882MOL0     H16376   2.424   5.013   8.286 -3.9585 -1.0892  1.6636
  882MOL0     H16377   2.165   5.099   7.983 -1.1260  0.7575  0.0049
  882MOL0     H16378   1.916   5.087   7.978  2.5880  1.3194  2.7486
  882MOL0     H16379   1.820   4.996   8.097 -0.2495  1.4317  0.8146
  882MOL0     H16380   1.905   4.775   7.987 -0.8884 -0.2565 -1.5556
  882MOL0     H16381   2.024   4.870   7.903  0.0006  5.6478  0.3530
  882MOL0     H16382   1.831   4.967   7.759  0.5988 -0.0794 -0.0952
  882MOL0     H16383   1.828   4.799   7.747  0.9491  0.7808 -0.0094
  882MOL0     H16384   1.672   4.961   7.950 -0.4637  0.0677 -0.5610
  882MOL0     H16385   1.669   4.775   7.926  0.9242 -1.3369 -0.5066
  882MOL0     H16386   1.463   4.906   8.031  1.3286  2.5501 -0.0842
  882MOL0     H16387   1.238   4.951   8.062  3.0118  2.4899  1.1814
  882MOL0     H16388   0.918   5.343   7.877 -0.8080  1.0612  0.6247
  882MOL0     H16389   0.709   5.429   7.923 -0.7922 -0.3520 -0.7066
  882MOL0     H16390   0.341   5.384   7.997 -0.0732  1.8400  0.4249
  882MOL0     H16391   0.462   5.413   7.875 -2.6241 -0.7777 -0.0995
  882MOL0     H16392   0.407   5.620   7.996  0.6161  1.5056  2.4435
  882MOL0     H16393   0.568   5.583   8.020  0.2079  1.7698 -1.7253
  882MOL0     H16394   0.531   5.472   8.239 -0.0085 -1.6846 -1.4636
  882MOL0     H16395   0.360   5.514   8.228  1.0273 -2.3958  1.5046
  882MOL0     H16396   0.583   5.724   8.234 -0.0390  0.5745  0.2129
  882MOL0     H16397   0.403   5.752   8.213  0.7119  0.5614 -0.4161
  882MOL0     H16398   0.529   5.795   8.441 -0.0419 -0.1052 -2.7282
  882MOL0     H16399   0.547   5.617   8.457  0.9264  1.1616  3.7407
  882MOL0     H16400   0.310   5.598   8.485 -0.1000 -0.6128 -2.4933
  882MOL0     H16401   0.286   5.770   8.433  1.4255  1.1628  0.2087
  882MOL0     H16402   0.421   5.677   8.686 -2.1300 -2.1641  0.1735
  882MOL0     H16403   0.406   5.851   8.633 -1.9321  0.1228  1.5075
  882MOL0     H16404   0.165   5.798   8.620  1.8611  2.9320 -0.2222
  882MOL0     H16405   0.213   5.814   8.783  0.5634 -0.1762  0.1735
  882MOL0     H16406   0.611   5.113   8.186 -0.2944 -0.7514 -1.5304
  882MOL0     H16407   0.854   5.030   8.171  0.6164  1.3258  1.6214
  882MOL0     H16408   1.212   5.079   7.648  1.6608  0.0584 -0.9599
  882MOL0     H16409   1.429   4.976   7.612 -0.8093 -1.3815 -0.3573
  882MOL0     H16410   3.230   5.297   7.688 -1.1841 -1.7885  1.1313
  882MOL0     H16411   3.407   5.246   7.509  2.3703  1.8487  2.4572
  882MOL0     H16412   3.756   5.165   7.194 -2.3590 -1.3031 -2.8048
  882MOL0     H16413   3.866   5.025   7.044 -1.1863 -0.7051 -0.6549
  882MOL0     H16414   4.012   4.705   6.928 -0.0084  0.2555  1.0390
  882MOL0     H16415   3.963   4.873   6.909  2.2147 -1.3067 -2.6183
  882MOL0     H16416   3.726   4.789   6.867 -0.8950 -1.3186  1.5179
  882MOL0     H16417   3.852   4.770   6.738 -1.6074 -0.4610 -1.4099
  882MOL0     H16418   3.770   4.556   6.946  0.5514 -0.1866  0.5980
  882MOL0     H16419   3.890   4.554   6.811  0.1877  0.0873  1.1688
  882MOL0     H16420   3.676   4.435   6.779 -0.5334  0.1641  0.5422
  882MOL0     H16421   3.576   4.583   6.793  0.6660  2.7268  2.0145
  882MOL0     H16422   3.759   4.598   6.404  0.6843 -0.0738  0.7571
  882MOL0     H16423   3.827   4.691   7.318 -0.8215 -1.1939 -2.3821
  882MOL0     H16424   3.711   4.840   7.472  2.6652  2.6475  1.9787
  883MOL0     O16425   0.725   9.361   6.614 -0.4477  0.3201  0.0205
  883MOL0     C16426   0.833   9.347   6.668  0.4927 -0.3094 -0.1865
  883MOL0     O16427   0.858   9.296   6.792  0.1066  0.0087 -0.0541
  883MOL0     C16428   0.748   9.248   6.859  0.5609  0.6757  0.8141
  883MOL0     C16429   0.745   9.117   6.901  0.7624  0.4864 -0.2089
  883MOL0     C16430   0.637   9.082   6.990  0.7974  0.9126 -0.1294
  883MOL0     C16431   0.526   9.170   7.022  0.1453  0.1936  0.0820
  883MOL0     O16432   0.418   9.120   7.091  0.3481  0.5650 -0.2850
  883MOL0     C16433   0.306   9.199   7.109  0.0364 -0.4161 -0.2967
  883MOL0     C16434   0.333   9.269   7.245  0.3217  0.1747  1.0171
  883MOL0     C16435   0.222   9.364   7.289  0.0804 -0.2138 -0.5885
  883MOL0     C16436   0.266   9.420   7.432  0.4160 -0.8558  0.7263
  883MOL0     C16437   0.163   9.504   7.520  0.1966  0.8172  0.2216
  883MOL0     C16438   0.048   9.413   7.565 -0.5346  0.1718  0.4017
  883MOL0     C16439  -0.050   9.494   7.635  0.0410 -0.0576  0.4393
  883MOL0     C16440  -0.168   9.411   7.696 -0.2710 -0.0379  0.2064
  883MOL0     N16441  -0.258   9.502   7.760  0.1114  0.3165 -0.5450
  883MOL0     C16442  -0.243   9.551   7.891  0.1370  0.4168 -0.3237
  883MOL0     C16443  -0.372   9.598   7.922 -0.2683  0.2221  0.3783
  883MOL0     C16444  -0.426   9.633   8.060 -0.6922 -0.0610 -0.5816
  883MOL0     C16445  -0.562   9.700   8.070  0.3313 -0.3511  0.0768
  883MOL0     C16446  -0.582   9.765   8.208 -0.3649  0.1527 -0.3375
  883MOL0     C16447  -0.721   9.814   8.218 -1.1642  0.1728 -0.5781
  883MOL0     O16448  -0.810   9.703   8.228 -1.2316 -1.0994 -0.0949
  883MOL0     C16449  -0.921   9.741   8.294 -0.4239 -0.2922  0.1079
  883MOL0     C16450  -1.011   9.834   8.241  0.5658  0.5187 -0.2768
  883MOL0     C16451  -1.124   9.878   8.317  0.9481  0.7858  0.0539
  883MOL0     C16452  -1.158   9.809   8.437 -0.3127 -0.6473 -0.2052
  883MOL0     C16453  -1.287   9.836   8.501  0.3708 -0.3894 -0.6515
  883MOL0     O16454  -1.373   9.926   8.438  0.1042 -0.3198 -0.2406
  883MOL0     C16455  -1.492   9.963   8.492  0.9141 -0.0257 -0.0153
  883MOL0     C16456  -1.576   9.874   8.570  1.0507  0.2859 -0.0298
  883MOL0     C16457  -1.680   9.924   8.634 -0.0119 -0.1735 -0.2468
  883MOL0     C16458  -1.715  10.059   8.633 -0.2662 -0.1672  0.3866
  883MOL0     O16459  -1.827  10.111   8.699 -0.7294  0.0646 -0.7033
  883MOL0     C16460  -1.857  10.065   8.830 -0.5307  0.0762 -0.2098
  883MOL0     C16461  -2.004  10.068   8.843  0.5943  0.3051 -0.5778
  883MOL0     C16462  -2.063  10.018   8.979  0.7636 -0.1475 -0.4235
  883MOL0     C16463  -1.986  10.091   9.093 -0.0372 -0.5481 -0.0220
  883MOL0     C16464  -2.048  10.073   9.230 -0.1421  0.0012 -0.2366
  883MOL0     C16465  -2.043   9.935   9.284  0.1232  0.4499  0.5770
  883MOL0     C16466  -2.128   9.905   9.404  0.1446 -0.0994 -0.7262
  883MOL0     C16467  -2.278   9.939   9.402  0.7237  0.1051 -0.3190
  883MOL0    Cl16468  -2.346   9.799   9.314 -0.0990  0.1465  0.0919
  883MOL0     C16469  -1.639  10.147   8.553 -0.5530 -0.4294 -0.0202
  883MOL0     C16470  -1.529  10.097   8.489 -0.2644 -0.6646  0.6967
  883MOL0     O16471  -1.304   9.784   8.616 -0.1861  0.1127  0.5520
  883MOL0     C16472  -1.064   9.712   8.491 -1.2456 -0.5182  0.0558
  883MOL0     C16473  -0.948   9.683   8.413  0.0527  0.2857 -0.1943
  883MOL0     N16474  -0.444   9.576   7.810  0.1765  0.7249 -0.5380
  883MOL0     N16475  -0.384   9.518   7.711 -0.2477 -0.3996  0.0947
  883MOL0     C16476   0.539   9.301   6.980  0.6702  0.3130 -0.3126
  883MOL0     C16477   0.645   9.333   6.897 -0.4759 -0.2838 -0.3222
  883MOL0     C16478   0.950   9.397   6.589  0.7307 -0.1156 -0.2224
  883MOL0     C16479   1.076   9.422   6.649  0.1779  0.0660  0.1111
  883MOL0     C16480   1.187   9.479   6.584  0.3330  1.1692  0.7881
  883MOL0     C16481   1.180   9.514   6.451  0.2445 -0.5774 -0.6174
  883MOL0     O16482   1.287   9.560   6.383 -0.5415  0.5795 -0.7087
  883MOL0     C16483   1.306   9.551   6.237  0.4407 -0.5673  0.8116
  883MOL0     C16484   1.422   9.646   6.217  0.1721 -0.1900  0.5122
  883MOL0     C16485   1.476   9.652   6.068  0.0045  0.7233 -0.1337
  883MOL0     C16486   1.382   9.720   5.964 -0.7777  0.1823  0.2195
  883MOL0     C16487   1.441   9.691   5.833  0.7049  0.1443  1.1462
  883MOL0     C16488   1.499   9.684   5.724  0.5349  0.3596 -0.3214
  883MOL0     C16489   1.054   9.501   6.393 -0.0614  0.1537  0.6084
  883MOL0     C16490   0.941   9.439   6.454  0.2015 -0.1233 -0.0688
  883MOL0     H16491   0.833   9.060   6.871 -0.0748 -0.4984 -0.8769
  883MOL0     H16492   0.620   8.983   7.031  0.5493  1.7153  1.8496
  883MOL0     H16493   0.218   9.135   7.121 -0.1572 -0.3410 -1.2125
  883MOL0     H16494   0.281   9.283   7.043 -0.9192  0.0839  0.6701
  883MOL0     H16495   0.419   9.336   7.239 -1.6393  2.6848 -2.6567
  883MOL0     H16496   0.357   9.191   7.318  1.1152  0.2385  0.8357
  883MOL0     H16497   0.130   9.307   7.303 -0.7250  1.0994 -0.2995
  883MOL0     H16498   0.217   9.442   7.213 -2.2778 -1.5273 -1.8762
  883MOL0     H16499   0.298   9.331   7.488  4.4286 -0.5852 -0.7960
  883MOL0     H16500   0.359   9.477   7.431  1.0275 -1.6528  3.6462
  883MOL0     H16501   0.125   9.582   7.454  0.3816  0.2483 -0.5635
  883MOL0     H16502   0.198   9.563   7.606 -1.8475  2.5092 -0.0212
  883MOL0     H16503   0.090   9.332   7.626  0.5471 -1.3470 -2.1454
  883MOL0     H16504   0.002   9.368   7.476 -0.5386  3.0658 -1.1753
  883MOL0     H16505   0.000   9.546   7.717  0.7872  1.5929 -1.0112
  883MOL0     H16506  -0.092   9.573   7.572  0.2414 -0.5917 -0.3786
  883MOL0     H16507  -0.133   9.336   7.767  0.5655  0.6769  0.5588
  883MOL0     H16508  -0.211   9.360   7.609 -1.0006  1.6903 -0.4995
  883MOL0     H16509  -0.161   9.543   7.962 -2.1544  1.0518  2.5884
  883MOL0     H16510  -0.350   9.689   8.116 -0.8628 -0.1589 -0.2482
  883MOL0     H16511  -0.423   9.539   8.115 -0.3628  0.6524  0.6714
  883MOL0     H16512  -0.649   9.635   8.056  0.9280 -0.9952 -0.7305
  883MOL0     H16513  -0.571   9.787   8.004  2.1688  0.1591  0.4376
  883MOL0     H16514  -0.570   9.688   8.285 -1.2222 -0.3163 -0.6614
  883MOL0     H16515  -0.519   9.852   8.231 -3.9554  3.1160 -0.8512
  883MOL0     H16516  -0.739   9.855   8.118  2.2005  1.3478 -0.8251
  883MOL0     H16517  -0.722   9.900   8.285  0.2364 -0.4666  0.3057
  883MOL0     H16518  -0.991   9.871   8.141 -0.7862 -2.7158 -1.9008
  883MOL0     H16519  -1.198   9.949   8.281 -1.7735 -0.4345  2.8187
  883MOL0     H16520  -1.541   9.773   8.590 -0.9590 -0.4560  0.0186
  883MOL0     H16521  -1.739   9.852   8.689 -0.7858  0.8537  0.3192
  883MOL0     H16522  -1.821  10.138   8.903 -0.4042  0.4577 -0.6467
  883MOL0     H16523  -1.823   9.964   8.854  1.5634  0.4224 -1.4836
  883MOL0     H16524  -2.056  10.005   8.770 -1.6053 -0.0222  1.1527
  883MOL0     H16525  -2.033  10.171   8.821  0.7932  0.2306 -1.2130
  883MOL0     H16526  -2.048   9.909   8.979  0.7851 -0.1772 -2.1093
  883MOL0     H16527  -2.171  10.036   8.978  0.9108  0.9206 -2.7308
  883MOL0     H16528  -1.888  10.043   9.102 -0.7793 -2.1416  0.0213
  883MOL0     H16529  -1.983  10.200   9.085 -2.8139 -0.2860  1.2911
  883MOL0     H16530  -2.152  10.107   9.223  0.2593  1.1859 -0.5912
  883MOL0     H16531  -1.988  10.134   9.298  0.1487  1.4448 -1.7555
  883MOL0     H16532  -1.940   9.900   9.293 -0.2250 -1.4609 -1.6814
  883MOL0     H16533  -2.078   9.862   9.210  2.1121  0.3565 -0.3138
  883MOL0     H16534  -2.114   9.800   9.431  0.0180  0.3405  1.1978
  883MOL0     H16535  -2.093   9.969   9.486 -3.0284  1.1618 -0.1898
  883MOL0     H16536  -2.295  10.035   9.351 -0.5301 -0.2109 -0.5286
  883MOL0     H16537  -2.312   9.945   9.506  2.1666 -0.8616  0.2425
  883MOL0     H16538  -1.663  10.252   8.559  1.4599 -0.0093  2.5243
  883MOL0     H16539  -1.457  10.161   8.439  0.1907 -1.2550  0.5709
  883MOL0     H16540  -1.089   9.657   8.581  0.5877 -0.2667  0.7440
  883MOL0     H16541  -0.892   9.597   8.448  0.2881  0.8940  0.9702
  883MOL0     H16542   0.482   9.388   7.007  3.2313  2.6604 -1.9412
  883MOL0     H16543   0.653   9.436   6.864  2.3855  0.4086  2.0821
  883MOL0     H16544   1.073   9.396   6.755 -0.7675  1.1791  0.3814
  883MOL0     H16545   1.273   9.509   6.644 -1.2894  2.1800  2.7408
  883MOL0     H16546   1.226   9.587   6.171  1.3979 -2.9306 -1.8667
  883MOL0     H16547   1.327   9.451   6.198 -2.6908 -0.8334 -0.5366
  883MOL0     H16548   1.385   9.747   6.235 -0.5276  0.0650 -1.9522
  883MOL0     H16549   1.509   9.622   6.279  0.4160  0.1505  0.3125
  883MOL0     H16550   1.506   9.552   6.037  0.6249  0.2912  1.7410
  883MOL0     H16551   1.570   9.708   6.062 -0.0841  0.8717 -0.1481
  883MOL0     H16552   1.282   9.676   5.964  0.7381 -3.6349 -0.0041
  883MOL0     H16553   1.376   9.828   5.982 -3.5429  0.4442 -1.6003
  883MOL0     H16554   1.549   9.659   5.633 -2.1770 -1.3672 -1.4859
  883MOL0     H16555   1.039   9.526   6.288  0.2743  1.0969  0.7708
  883MOL0     H16556   0.855   9.426   6.390 -0.9131  3.5965  0.4699
  884MOL0     O16557   9.372  10.336   7.017  0.4697  0.0484  0.0793
  884MOL0     C16558   9.351  10.220   6.991 -0.1248  0.1756  0.6255
  884MOL0     O16559   9.227  10.170   6.969  0.3746  0.3566 -0.1765
  884MOL0     C16560   9.106  10.237   6.986 -0.4712 -0.0883  1.1041
  884MOL0     C16561   9.091  10.370   7.023  0.1364  0.0104 -0.2578
  884MOL0     C16562   8.964  10.423   7.019 -0.6772 -0.0374  0.4063
  884MOL0     C16563   8.852  10.350   6.971 -0.3030 -0.6833 -0.7492
  884MOL0     O16564   8.727  10.420   6.968 -0.4862  0.3446 -0.5841
  884MOL0     C16565   8.610  10.339   6.951  0.1266  0.1673  0.4884
  884MOL0     C16566   8.484  10.428   6.940 -0.7383  0.6211  0.6170
  884MOL0     C16567   8.356  10.349   6.935  0.0387  0.1792  0.3728
  884MOL0     C16568   8.333  10.263   7.066 -0.0682  0.8088  0.1963
  884MOL0     C16569   8.192  10.284   7.112  0.0406 -0.1020  0.9032
  884MOL0     C16570   8.167  10.414   7.181 -0.2369 -0.0372 -0.0794
  884MOL0     C16571   8.016  10.436   7.208 -0.2225 -0.5014 -0.5697
  884MOL0     C16572   7.985  10.579   7.263 -0.2391  0.1519 -0.1238
  884MOL0     N16573   7.849  10.605   7.303  0.0559 -0.2387  1.0176
  884MOL0     C16574   7.809  10.677   7.413  0.1615 -0.3464 -0.5393
  884MOL0     C16575   7.675  10.655   7.419 -0.3690 -0.1440  0.5171
  884MOL0     C16576   7.593  10.730   7.528  0.7053 -0.1883  0.4415
  884MOL0     C16577   7.620  10.677   7.668 -0.4600 -1.1410 -0.6240
  884MOL0     C16578   7.552  10.765   7.774 -0.4312  0.8297 -1.0074
  884MOL0     C16579   7.399  10.771   7.771 -0.7015  0.0417  0.4595
  884MOL0     O16580   7.341  10.644   7.768  0.0189 -0.5092 -0.3762
  884MOL0     C16581   7.203  10.649   7.768  0.4066 -0.0261 -0.1696
  884MOL0     C16582   7.125  10.765   7.742  0.7457 -0.4034  1.0685
  884MOL0     C16583   6.985  10.749   7.731  0.5703 -0.8184 -0.0337
  884MOL0     C16584   6.920  10.626   7.754 -0.7131  0.4876  0.7590
  884MOL0     C16585   6.774  10.626   7.757 -0.1383 -0.1710  0.9737
  884MOL0     O16586   6.707  10.510   7.768 -0.4851  0.0537  0.2912
  884MOL0     C16587   6.569  10.516   7.777 -0.0104 -0.3429 -0.4479
  884MOL0     C16588   6.494  10.502   7.660 -0.1304  0.4627  0.0354
  884MOL0     C16589   6.351  10.496   7.663  0.3035 -0.0237 -0.4632
  884MOL0     C16590   6.287  10.511   7.783  0.2742 -0.3301  0.2162
  884MOL0     O16591   6.154  10.508   7.803 -0.5245  0.0148 -0.0713
  884MOL0     C16592   6.068  10.560   7.695 -0.4863  0.1776  0.0620
  884MOL0     C16593   5.929  10.601   7.742 -0.1178 -0.0245  0.0646
  884MOL0     C16594   5.860  10.478   7.794  0.1451 -0.5524 -0.4174
  884MOL0     C16595   5.880  10.460   7.947  0.4744 -0.3769 -0.2018
  884MOL0     C16596   5.876  10.313   7.982 -0.1320  0.2184 -0.2515
  884MOL0     C16597   5.735  10.261   8.037  1.2561  0.0250 -0.4552
  884MOL0     C16598   5.642  10.245   7.914  0.3228  0.5681 -0.1403
  884MOL0     C16599   5.551  10.128   7.946 -0.1429  0.0407 -0.4236
  884MOL0    Cl16600   5.425  10.163   8.063 -0.0570 -0.3037 -0.1891
  884MOL0     C16601   6.360  10.534   7.904  1.2640 -0.3894 -0.6128
  884MOL0     C16602   6.500  10.534   7.902  0.6820 -0.6939  0.2941
  884MOL0     O16603   6.723  10.734   7.765 -0.2111  0.3383 -0.0360
  884MOL0     C16604   7.000  10.501   7.771  0.4783 -0.5758  0.7095
  884MOL0     C16605   7.142  10.522   7.782  0.5051  0.0214 -0.0275
  884MOL0     N16606   7.634  10.569   7.319  0.4240 -0.3661 -0.8905
  884MOL0     N16607   7.739  10.547   7.249 -0.5459  0.2580  0.8240
  884MOL0     C16608   8.871  10.226   6.919  0.1176 -0.4918 -0.2485
  884MOL0     C16609   8.995  10.164   6.941 -0.8472  0.5096  0.2557
  884MOL0     C16610   9.471  10.130   6.970 -0.6920  0.0228 -0.2712
  884MOL0     C16611   9.460  10.008   6.904 -0.1408  0.7576  0.2242
  884MOL0     C16612   9.574   9.924   6.888 -0.0563 -0.4631  0.6737
  884MOL0     C16613   9.698   9.963   6.936 -0.4439 -0.0568 -0.5420
  884MOL0     O16614   9.812   9.895   6.919  0.3273  0.4383  0.6588
  884MOL0     C16615   9.800   9.750   6.900 -0.0885 -0.5944 -0.0370
  884MOL0     C16616   9.933   9.692   6.955 -0.5582 -0.4015 -0.1141
  884MOL0     C16617   9.951   9.709   7.108 -0.6339 -0.0535 -0.0830
  884MOL0     C16618  10.100   9.745   7.130 -0.4587  0.1522 -0.1391
  884MOL0     C16619  10.149   9.738   7.264  0.7695  1.1299 -0.4056
  884MOL0     C16620  10.197   9.731   7.383  0.6478 -0.0700  0.5000
  884MOL0     C16621   9.720  10.091   6.977 -0.3241 -0.2751  0.2997
  884MOL0     C16622   9.601  10.175   7.001 -0.9150 -0.0499  0.0842
  884MOL0     H16623   9.172  10.431   7.062  0.1608  0.8451 -1.5497
  884MOL0     H16624   8.949  10.525   7.054 -0.4730 -1.5377  5.6879
  884MOL0     H16625   8.604  10.265   7.032 -0.1695  1.5644  1.7923
  884MOL0     H16626   8.618  10.280   6.859  2.1128 -0.4776  1.0125
  884MOL0     H16627   8.497  10.487   6.849  0.0231  1.3230  1.1586
  884MOL0     H16628   8.479  10.489   7.031 -1.8300  1.7747 -0.1741
  884MOL0     H16629   8.347  10.280   6.850 -1.0924  0.8166 -0.0566
  884MOL0     H16630   8.271  10.418   6.931 -1.8289 -1.9595  0.8383
  884MOL0     H16631   8.366  10.161   7.047  1.7208  0.7226  3.2136
  884MOL0     H16632   8.391  10.298   7.152  0.9437 -1.3821  0.4553
  884MOL0     H16633   8.159  10.193   7.163 -1.4801 -1.6612 -2.5556
  884MOL0     H16634   8.137  10.278   7.018  0.7118  1.0547  0.4094
  884MOL0     H16635   8.199  10.507   7.134 -1.0486  1.4119  2.0527
  884MOL0     H16636   8.216  10.416   7.279 -0.2718 -0.3832 -0.0549
  884MOL0     H16637   7.969  10.437   7.110 -0.7726  1.0046 -0.3146
  884MOL0     H16638   7.970  10.362   7.274  1.5101  1.3866  3.0895
  884MOL0     H16639   8.020  10.650   7.187  5.2788 -0.5698  1.3068
  884MOL0     H16640   8.051  10.597   7.349 -0.0042  0.9797 -0.4698
  884MOL0     H16641   7.862  10.748   7.476 -1.5501  0.7556 -0.2857
  884MOL0     H16642   7.487  10.704   7.518  0.3793 -0.1686  3.2312
  884MOL0     H16643   7.605  10.835   7.502 -1.3728 -0.5634 -2.6900
  884MOL0     H16644   7.727  10.691   7.683 -0.4159 -1.9037 -0.1522
  884MOL0     H16645   7.592  10.571   7.670 -0.5075 -1.1213  1.2326
  884MOL0     H16646   7.571  10.731   7.876  1.9897  3.6280 -0.3646
  884MOL0     H16647   7.595  10.866   7.774 -1.4027  1.2709  0.3477
  884MOL0     H16648   7.376  10.836   7.686  0.6456  1.2756  0.9979
  884MOL0     H16649   7.368  10.834   7.855  4.0252  0.4772  2.1798
  884MOL0     H16650   7.162  10.867   7.744  2.2293 -0.9063  0.5803
  884MOL0     H16651   6.927  10.841   7.735 -2.1285 -2.4660  2.7359
  884MOL0     H16652   6.552  10.500   7.569  1.1839 -1.3771  0.8536
  884MOL0     H16653   6.306  10.493   7.565  0.9159  2.3214 -0.8731
  884MOL0     H16654   6.057  10.477   7.624  0.1319  0.2661 -0.1397
  884MOL0     H16655   6.113  10.646   7.644 -0.0950  2.3006  3.6487
  884MOL0     H16656   5.867  10.638   7.660 -2.1129  4.8434  3.3357
  884MOL0     H16657   5.938  10.687   7.808  0.0637  0.1895 -0.2320
  884MOL0     H16658   5.887  10.395   7.729 -2.8108 -1.2184 -0.9201
  884MOL0     H16659   5.755  10.490   7.765 -0.0336 -0.2702  0.3158
  884MOL0     H16660   5.961  10.513   7.997 -1.1542  0.6472  1.4850
  884MOL0     H16661   5.793  10.499   8.001 -0.5254 -4.3310  1.3927
  884MOL0     H16662   5.950  10.290   8.058 -0.3217  2.2218  0.5716
  884MOL0     H16663   5.895  10.245   7.897  0.1194  0.7412 -0.6154
  884MOL0     H16664   5.679  10.337   8.092  2.8956  2.1168 -1.4916
  884MOL0     H16665   5.752  10.167   8.091 -1.9108 -1.7483 -2.2548
  884MOL0     H16666   5.580  10.332   7.892 -1.2687 -0.4908  0.0246
  884MOL0     H16667   5.680  10.219   7.815 -2.6630  0.8398 -1.4295
  884MOL0     H16668   5.610  10.048   7.992 -0.3473  0.3364  0.3690
  884MOL0     H16669   5.509  10.087   7.853  0.3071  1.8202 -1.4621
  884MOL0     H16670   6.305  10.541   7.997 -0.9801 -1.7095 -1.7233
  884MOL0     H16671   6.552  10.557   7.995  1.5430  0.6887 -0.4846
  884MOL0     H16672   6.952  10.404   7.784 -1.3045 -0.0810 -1.4976
  884MOL0     H16673   7.204  10.440   7.816  3.8130  2.5379  0.5546
  884MOL0     H16674   8.789  10.171   6.873 -0.3009 -0.2185  0.1637
  884MOL0     H16675   9.016  10.062   6.909  3.4023  0.9718  0.9458
  884MOL0     H16676   9.358   9.984   6.877 -0.7788 -0.4951  3.3427
  884MOL0     H16677   9.559   9.829   6.837  2.8943 -0.2648 -0.8067
  884MOL0     H16678   9.779   9.746   6.793 -0.6730 -1.4249  0.1057
  884MOL0     H16679   9.714   9.701   6.946 -1.1297  1.8857  0.8308
  884MOL0     H16680   9.941   9.587   6.923  2.0691 -0.8486  1.7526
  884MOL0     H16681  10.017   9.749   6.915 -0.0843  0.5515  2.1063
  884MOL0     H16682   9.936   9.617   7.165  1.3746  0.4398  1.3649
  884MOL0     H16683   9.883   9.781   7.155 -2.2877 -1.2928 -0.4965
  884MOL0     H16684  10.169   9.683   7.072  1.4380  1.6895  0.3664
  884MOL0     H16685  10.103   9.853   7.109 -0.0513  0.2437  0.3630
  884MOL0     H16686  10.250   9.736   7.476 -0.3567  0.7073  1.0476
  884MOL0     H16687   9.819  10.137   6.981  0.3126 -0.8287 -4.3064
  884MOL0     H16688   9.616  10.274   7.044 -0.5710 -0.9095  2.0707
  885MOL0     O16689   0.782   0.020   6.479  0.8880  0.2419  0.5944
  885MOL0     C16690   0.808  -0.003   6.361  0.1031  0.5650 -0.4545
  885MOL0     O16691   0.933  -0.009   6.306  0.4748  0.5227 -0.0048
  885MOL0     C16692   1.049   0.052   6.369  1.1481  0.2228  0.1140
  885MOL0     C16693   1.170  -0.020   6.350  0.9243 -0.5131  0.0965
  885MOL0     C16694   1.286   0.025   6.401 -0.7909  0.2002 -0.2588
  885MOL0     C16695   1.295   0.152   6.467 -0.5287  0.7482 -0.0870
  885MOL0     O16696   1.403   0.195   6.535 -0.8359  0.6859 -0.2559
  885MOL0     C16697   1.536   0.137   6.520  0.3426  0.4618  0.3379
  885MOL0     C16698   1.655   0.219   6.566  0.8110  0.1038  1.2089
  885MOL0     C16699   1.779   0.144   6.570 -0.0004  0.4567  0.2201
  885MOL0     C16700   1.887   0.195   6.656 -0.1699  0.4350 -0.6338
  885MOL0     C16701   2.010   0.092   6.665  0.1382 -0.1545  0.5375
  885MOL0     C16702   2.110   0.101   6.543 -0.4578  0.1325  0.2544
  885MOL0     C16703   2.200   0.226   6.558  0.4319 -0.5786 -0.8452
  885MOL0     C16704   2.244   0.283   6.419  0.6903  0.2291  0.3381
  885MOL0     N16705   2.354   0.200   6.365  0.2789 -0.5941  0.6220
  885MOL0     C16706   2.486   0.186   6.411 -0.1006  0.0617  0.1891
  885MOL0     C16707   2.540   0.098   6.326 -0.1291  0.0723  0.0486
  885MOL0     C16708   2.692   0.059   6.330  1.1895 -0.4140 -0.9782
  885MOL0     C16709   2.702  -0.042   6.447  0.2910  0.8803  0.3925
  885MOL0     C16710   2.615  -0.162   6.430  0.2980 -0.2523  0.4914
  885MOL0     C16711   2.611  -0.240   6.301 -0.1955  0.2158 -0.2637
  885MOL0     O16712   2.732  -0.313   6.288  0.0978  0.4626 -0.2780
  885MOL0     C16713   2.751  -0.401   6.177  0.5084  0.1691 -1.1173
  885MOL0     C16714   2.860  -0.482   6.179 -1.1993  0.9785 -0.8247
  885MOL0     C16715   2.883  -0.575   6.080 -0.0270  0.2661 -0.6008
  885MOL0     C16716   2.804  -0.595   5.968 -0.5156  0.2421 -0.6962
  885MOL0     C16717   2.840  -0.682   5.859  0.1056  0.3518 -0.2734
  885MOL0     O16718   2.772  -0.671   5.744  0.6799 -0.2612 -0.2337
  885MOL0     C16719   2.787  -0.775   5.664 -0.1774 -0.1877 -0.3295
  885MOL0     C16720   2.708  -0.884   5.677 -0.3173  0.4315  0.0431
  885MOL0     C16721   2.710  -0.993   5.585 -0.1896 -0.4076 -0.7938
  885MOL0     C16722   2.806  -0.997   5.480 -0.4114 -0.1848 -0.5163
  885MOL0     O16723   2.810  -1.110   5.403  0.3381 -0.0899 -0.6224
  885MOL0     C16724   2.932  -1.178   5.420  0.4620  0.1554  0.2181
  885MOL0     C16725   2.932  -1.299   5.333 -0.7456  1.1077 -0.1276
  885MOL0     C16726   3.056  -1.388   5.342  1.2698 -0.0607  0.0025
  885MOL0     C16727   3.101  -1.420   5.484  0.3790  0.4195 -0.2730
  885MOL0     C16728   3.213  -1.525   5.480  0.2101 -0.5660  0.1405
  885MOL0     C16729   3.290  -1.544   5.614 -0.2519 -0.6483  0.0409
  885MOL0     C16730   3.423  -1.620   5.597  0.1734  0.6185  0.3614
  885MOL0     C16731   3.492  -1.627   5.731  0.4791  0.1186  0.3160
  885MOL0    Cl16732   3.651  -1.720   5.726 -0.3035 -0.0560 -0.2961
  885MOL0     C16733   2.895  -0.885   5.470  0.2174 -0.1536  0.2496
  885MOL0     C16734   2.890  -0.780   5.566 -0.2311  0.7450  0.3279
  885MOL0     O16735   2.925  -0.764   5.879 -0.0880  0.5982  0.4092
  885MOL0     C16736   2.680  -0.515   5.966  0.1501  0.2148  0.8438
  885MOL0     C16737   2.667  -0.419   6.067  0.9010 -0.7517  0.8298
  885MOL0     N16738   2.447   0.066   6.219 -0.3744  0.2369 -0.6513
  885MOL0     N16739   2.338   0.126   6.246  0.0006 -0.4946  0.3030
  885MOL0     C16740   1.176   0.221   6.487  0.4253 -0.3052  0.8762
  885MOL0     C16741   1.051   0.171   6.433 -0.8250 -0.2544 -0.4537
  885MOL0     C16742   0.699  -0.068   6.294 -0.3435 -1.0205  0.3755
  885MOL0     C16743   0.711  -0.077   6.148  0.0732 -0.1266 -1.4422
  885MOL0     C16744   0.611  -0.147   6.078  0.6804 -0.7259 -0.3054
  885MOL0     C16745   0.517  -0.219   6.151  0.0157  0.0523  0.6276
  885MOL0     O16746   0.415  -0.288   6.093  0.0325 -0.7150  0.3667
  885MOL0     C16747   0.389  -0.284   5.954  0.4405 -0.5703 -0.0181
  885MOL0     C16748   0.248  -0.338   5.906 -0.7360  0.2151 -0.9769
  885MOL0     C16749   0.182  -0.243   5.808 -0.3008  0.0032 -0.1616
  885MOL0     C16750   0.031  -0.280   5.782  0.2362 -0.1492 -0.3024
  885MOL0     C16751  -0.058  -0.180   5.722 -0.3750 -0.1147  0.7260
  885MOL0     C16752  -0.141  -0.102   5.671  0.3648  0.2134  0.1374
  885MOL0     C16753   0.511  -0.213   6.289 -0.2864  0.1101  0.0531
  885MOL0     C16754   0.596  -0.140   6.362 -0.6300 -0.2121 -0.0285
  885MOL0     H16755   1.169  -0.115   6.298  0.4595  0.3630 -1.5558
  885MOL0     H16756   1.380  -0.027   6.391 -0.5455  0.8483 -1.4791
  885MOL0     H16757   1.558   0.121   6.414  2.1039 -1.0027  0.8570
  885MOL0     H16758   1.537   0.034   6.558  2.8990 -0.1425 -1.0626
  885MOL0     H16759   1.641   0.276   6.659  0.4779  1.3064  0.4458
  885MOL0     H16760   1.676   0.301   6.496  2.8610  0.4249  2.1187
  885MOL0     H16761   1.812   0.129   6.466 -2.4986 -0.7322 -0.4751
  885MOL0     H16762   1.752   0.044   6.604 -1.0957  0.7779  0.3344
  885MOL0     H16763   1.926   0.288   6.613 -0.1865  0.0172 -1.5655
  885MOL0     H16764   1.849   0.204   6.758  1.8846  1.3127  0.1233
  885MOL0     H16765   1.965  -0.007   6.677  1.7645 -0.6535  3.1586
  885MOL0     H16766   2.070   0.114   6.753  1.4131  0.2220 -0.3953
  885MOL0     H16767   2.053   0.118   6.451  1.2292 -0.1383 -0.8985
  885MOL0     H16768   2.168   0.009   6.528 -1.9084 -0.6439 -0.9457
  885MOL0     H16769   2.143   0.306   6.606 -0.0846 -1.8069  0.6584
  885MOL0     H16770   2.291   0.208   6.615  0.3573 -2.9611 -1.3968
  885MOL0     H16771   2.272   0.389   6.421 -0.9231  0.8198 -2.5106
  885MOL0     H16772   2.160   0.278   6.349 -0.8873 -1.0455  2.2031
  885MOL0     H16773   2.522   0.241   6.497  0.5363  0.6102 -0.4263
  885MOL0     H16774   2.753   0.148   6.351  0.6370 -0.0341 -0.9646
  885MOL0     H16775   2.715   0.008   6.236  1.1407  0.9239 -1.7374
  885MOL0     H16776   2.672   0.016   6.534 -0.0376  1.0121  0.1942
  885MOL0     H16777   2.803  -0.079   6.467  0.5411 -0.4195 -2.6650
  885MOL0     H16778   2.635  -0.228   6.515 -1.5677  0.8883  1.9021
  885MOL0     H16779   2.515  -0.129   6.460  0.2051 -1.4697  1.6569
  885MOL0     H16780   2.584  -0.181   6.213  2.1701  0.3026 -1.0012
  885MOL0     H16781   2.534  -0.316   6.315 -1.9924  1.8978 -0.5889
  885MOL0     H16782   2.925  -0.478   6.265 -0.5239  1.3421 -1.3478
  885MOL0     H16783   2.976  -0.627   6.098  0.3220  0.7090 -1.0740
  885MOL0     H16784   2.633  -0.879   5.755  1.8933  0.6002  2.2564
  885MOL0     H16785   2.642  -1.076   5.602 -2.4211  1.5554  0.5957
  885MOL0     H16786   2.940  -1.185   5.528  0.2288  2.5440  0.4472
  885MOL0     H16787   3.023  -1.120   5.398 -1.2254  2.1224 -2.2815
  885MOL0     H16788   2.916  -1.277   5.227  1.3679  1.9329 -0.3292
  885MOL0     H16789   2.852  -1.359   5.377  0.9564  0.5083  2.3645
  885MOL0     H16790   3.147  -1.350   5.294  3.7343 -2.2733  2.5470
  885MOL0     H16791   3.029  -1.486   5.300  0.2458  0.6011 -0.9197
  885MOL0     H16792   3.120  -1.329   5.543  0.8509  0.3782 -0.3561
  885MOL0     H16793   3.012  -1.465   5.528 -0.6893 -0.4726 -3.1553
  885MOL0     H16794   3.278  -1.507   5.394  0.9220 -1.6466  0.4337
  885MOL0     H16795   3.166  -1.622   5.459  2.7406 -1.4628 -1.8181
  885MOL0     H16796   3.231  -1.591   5.693 -1.3407  0.3941 -0.1146
  885MOL0     H16797   3.315  -1.444   5.652 -0.4807 -0.2118 -0.9296
  885MOL0     H16798   3.408  -1.714   5.542  1.0699  2.8501 -4.1175
  885MOL0     H16799   3.487  -1.567   5.526 -0.2899 -1.0131 -1.3766
  885MOL0     H16800   3.418  -1.670   5.799 -3.3832  0.9184 -2.9792
  885MOL0     H16801   3.510  -1.522   5.759  1.7046  0.6277 -2.1459
  885MOL0     H16802   2.961  -0.886   5.383 -0.3116 -2.1139 -0.1832
  885MOL0     H16803   2.945  -0.687   5.557  0.5557  0.3141  0.5794
  885MOL0     H16804   2.624  -0.528   5.873  2.5227  0.3144 -0.6896
  885MOL0     H16805   2.574  -0.363   6.056 -0.2758 -3.0845 -3.0571
  885MOL0     H16806   1.179   0.308   6.552  0.8388  1.1757 -1.0330
  885MOL0     H16807   0.959   0.229   6.440 -1.0087 -0.5345 -0.5340
  885MOL0     H16808   0.788  -0.034   6.085  0.6322 -1.7431 -1.9097
  885MOL0     H16809   0.621  -0.137   5.970  2.6934  0.3111 -0.0579
  885MOL0     H16810   0.461  -0.345   5.899  0.5394 -2.6658  2.2863
  885MOL0     H16811   0.398  -0.180   5.919  2.7485 -0.7421 -0.0824
  885MOL0     H16812   0.256  -0.440   5.867  0.4579 -0.0858 -0.0089
  885MOL0     H16813   0.184  -0.333   5.994  0.8980  2.7867  0.1983
  885MOL0     H16814   0.235  -0.245   5.712  1.6929 -0.0575  0.8829
  885MOL0     H16815   0.184  -0.141   5.848  3.1385  0.3932 -0.9806
  885MOL0     H16816   0.038  -0.368   5.716 -1.1115  2.5670 -4.4611
  885MOL0     H16817  -0.008  -0.304   5.881  1.0178 -4.9254 -0.9117
  885MOL0     H16818  -0.219  -0.050   5.620 -1.6918 -2.6851  0.0819
  885MOL0     H16819   0.434  -0.275   6.333 -0.5440  0.9852  0.8732
  885MOL0     H16820   0.579  -0.124   6.468  0.7753  3.7796 -0.2243
  886MOL0     O16821   3.725   9.024   1.855  0.3119 -0.6223 -0.7202
  886MOL0     C16822   3.662   9.128   1.833  0.1048  0.0289 -0.2390
  886MOL0     O16823   3.707   9.239   1.769 -0.1447 -0.3459 -0.3308
  886MOL0     C16824   3.836   9.250   1.737 -0.9409  0.9604  0.3484
  886MOL0     C16825   3.869   9.236   1.602 -0.0254 -0.6175  0.9561
  886MOL0     C16826   4.003   9.253   1.557 -0.4209  0.2143 -0.4984
  886MOL0     C16827   4.107   9.264   1.653  0.3773 -0.0136 -0.8438
  886MOL0     O16828   4.245   9.269   1.630  0.6329 -0.0563  0.8229
  886MOL0     C16829   4.282   9.279   1.492  0.0851 -0.2542  0.4882
  886MOL0     C16830   4.437   9.295   1.493  0.0591 -1.1156 -0.6734
  886MOL0     C16831   4.502   9.249   1.362 -0.2609 -0.1762  0.4623
  886MOL0     C16832   4.637   9.182   1.377  0.0075  0.7255 -0.1299
  886MOL0     C16833   4.693   9.137   1.241  0.3544 -0.4758  0.2808
  886MOL0     C16834   4.846   9.113   1.240 -0.1175  0.3359 -0.7956
  886MOL0     C16835   4.894   9.053   1.106  0.3718 -0.8286  0.2852
  886MOL0     C16836   4.878   9.151   0.995 -0.9971 -0.0902  0.3626
  886MOL0     N16837   4.738   9.139   0.940 -0.0206 -0.1082 -0.7957
  886MOL0     C16838   4.669   9.026   0.898  0.2183 -0.2081  0.1956
  886MOL0     C16839   4.557   9.070   0.842  0.2267 -0.7493  0.4543
  886MOL0     C16840   4.460   8.976   0.773 -0.4524 -0.0509  0.3594
  886MOL0     C16841   4.354   8.929   0.870 -0.3850  0.5165  0.7634
  886MOL0     C16842   4.270   9.041   0.931  0.1583  1.1573 -0.6464
  886MOL0     C16843   4.124   8.991   0.955 -0.0274  0.4455  0.3156
  886MOL0     O16844   4.056   9.113   0.988 -0.7754  0.0934 -0.0270
  886MOL0     C16845   3.935   9.106   1.045  0.5112 -0.2029 -0.2870
  886MOL0     C16846   3.881   9.226   1.091  0.0326 -0.5254 -0.5332
  886MOL0     C16847   3.754   9.234   1.149  0.0578 -0.5781  0.4979
  886MOL0     C16848   3.672   9.118   1.169 -0.3098 -1.0384  0.2738
  886MOL0     C16849   3.543   9.131   1.240 -0.3717  0.3727 -0.5256
  886MOL0     O16850   3.511   9.242   1.316  0.4836 -0.2049 -0.7860
  886MOL0     C16851   3.387   9.261   1.365 -0.7314  0.0824 -0.6912
  886MOL0     C16852   3.375   9.272   1.504  0.1562 -0.2906 -0.1401
  886MOL0     C16853   3.252   9.282   1.566  0.0187  0.4111 -0.1286
  886MOL0     C16854   3.136   9.301   1.483  0.0507  0.8418  0.2543
  886MOL0     O16855   3.006   9.302   1.526  0.3991 -0.1839  0.2749
  886MOL0     C16856   2.970   9.231   1.636 -0.6454  0.7006 -0.1663
  886MOL0     C16857   2.834   9.262   1.695 -0.2152  0.6992  0.5645
  886MOL0     C16858   2.722   9.258   1.594  0.5778  0.4898  0.2726
  886MOL0     C16859   2.591   9.304   1.658 -0.3080  0.0430 -0.0866
  886MOL0     C16860   2.467   9.304   1.562 -0.6855 -0.3822 -0.9268
  886MOL0     C16861   2.344   9.359   1.639 -0.0065  0.6372  0.6584
  886MOL0     C16862   2.230   9.369   1.544 -0.2516  0.2634 -0.3109
  886MOL0     C16863   2.092   9.414   1.606 -0.5449  0.1347  1.4109
  886MOL0    Cl16864   2.094   9.582   1.674 -0.1253 -0.1407  0.4427
  886MOL0     C16865   3.150   9.301   1.344 -0.0762  0.1019  0.3524
  886MOL0     C16866   3.278   9.279   1.287  0.1748 -0.8102 -0.0657
  886MOL0     O16867   3.471   9.037   1.218 -0.5619  0.4498 -0.1026
  886MOL0     C16868   3.725   8.994   1.128  0.1014 -0.3603 -0.2195
  886MOL0     C16869   3.851   8.989   1.072 -0.1738  0.6168 -0.4698
  886MOL0     N16870   4.560   9.206   0.836 -0.6982  0.6254 -0.2759
  886MOL0     N16871   4.672   9.242   0.895  0.6490  0.0779  0.6559
  886MOL0     C16872   4.074   9.266   1.793  0.5995 -0.5626  0.1229
  886MOL0     C16873   3.936   9.269   1.830 -0.1547  0.5587  0.3915
  886MOL0     C16874   3.517   9.127   1.877  0.7086 -0.9137 -0.1419
  886MOL0     C16875   3.441   9.243   1.891  0.5858 -0.5966 -0.5599
  886MOL0     C16876   3.307   9.239   1.941 -0.8264 -1.3700  0.6473
  886MOL0     C16877   3.246   9.125   1.970 -0.5482 -0.1147  0.1569
  886MOL0     O16878   3.117   9.113   2.008 -0.2739  0.4252  0.2941
  886MOL0     C16879   3.055   9.231   2.066 -0.6386 -0.0564  1.2266
  886MOL0     C16880   2.918   9.193   2.129  0.2201 -0.0063  0.6162
  886MOL0     C16881   2.850   9.307   2.212  0.5007 -0.5879  0.0538
  886MOL0     C16882   2.822   9.436   2.131 -0.1978  0.2211  0.5321
  886MOL0     C16883   2.714   9.517   2.189 -0.3185  0.0128  0.2778
  886MOL0     C16884   2.620   9.586   2.230  0.5882  0.4594  0.5110
  886MOL0     C16885   3.314   9.004   1.951  0.1069  0.3506 -0.2694
  886MOL0     C16886   3.448   9.012   1.906 -0.2205  0.9065 -0.2304
  886MOL0     H16887   3.796   9.205   1.528  1.5713 -0.6701 -0.6498
  886MOL0     H16888   4.024   9.240   1.452 -0.9598 -3.9877 -0.2618
  886MOL0     H16889   4.229   9.365   1.451  0.9994  0.3114  0.4861
  886MOL0     H16890   4.248   9.194   1.432  0.0171 -0.0768  0.2779
  886MOL0     H16891   4.482   9.238   1.575  0.3454 -0.1438 -0.1420
  886MOL0     H16892   4.457   9.402   1.499 -1.4575 -0.8928  1.9884
  886MOL0     H16893   4.509   9.334   1.293 -2.0584 -0.7592 -0.5156
  886MOL0     H16894   4.437   9.180   1.307  0.4115  1.5647 -2.7782
  886MOL0     H16895   4.705   9.252   1.427  2.7302 -2.1667  0.5684
  886MOL0     H16896   4.642   9.105   1.455  2.7707  0.5757 -0.3653
  886MOL0     H16897   4.670   9.228   1.185 -0.7819 -0.4394  0.7786
  886MOL0     H16898   4.632   9.052   1.210  0.6837 -0.1099 -1.4820
  886MOL0     H16899   4.867   9.041   1.321 -2.0695  3.0997  2.4556
  886MOL0     H16900   4.896   9.207   1.262  0.3981  0.2433 -1.5680
  886MOL0     H16901   4.999   9.024   1.115  0.6991 -0.1310 -1.1663
  886MOL0     H16902   4.841   8.957   1.103 -0.3223 -0.5590  2.2812
  886MOL0     H16903   4.954   9.125   0.921  1.5786  1.0394  2.4548
  886MOL0     H16904   4.910   9.252   1.020  1.9620 -1.1769  1.3512
  886MOL0     H16905   4.704   8.923   0.906 -0.0548 -0.2765  0.5191
  886MOL0     H16906   4.523   8.897   0.730 -0.6236 -0.1419  0.2780
  886MOL0     H16907   4.402   9.016   0.689 -2.8460 -0.1899  1.8660
  886MOL0     H16908   4.410   8.878   0.948  1.4496 -0.1996 -0.9178
  886MOL0     H16909   4.295   8.855   0.814  0.2847  2.4779 -2.8371
  886MOL0     H16910   4.297   9.077   1.031  0.5165 -1.1933  0.1796
  886MOL0     H16911   4.273   9.122   0.858  0.5261 -0.5325 -2.5763
  886MOL0     H16912   4.119   8.912   1.030 -1.8909 -0.5363 -0.7839
  886MOL0     H16913   4.092   8.943   0.862  1.3933  1.2743 -0.6478
  886MOL0     H16914   3.931   9.323   1.090 -0.6788 -0.0492  2.2960
  886MOL0     H16915   3.712   9.317   1.204  1.8528 -1.0110  2.6583
  886MOL0     H16916   3.467   9.250   1.557  0.6458  0.6861 -0.5657
  886MOL0     H16917   3.240   9.286   1.674 -1.5354  0.2256 -0.2676
  886MOL0     H16918   3.047   9.260   1.708  2.0516  1.3095 -3.0299
  886MOL0     H16919   2.985   9.126   1.607  1.7515  1.0928 -0.5450
  886MOL0     H16920   2.834   9.368   1.721 -0.8422  1.0440 -0.7478
  886MOL0     H16921   2.815   9.193   1.777  0.2560 -2.8557 -2.0358
  886MOL0     H16922   2.711   9.155   1.557 -1.2710  0.2824  1.2563
  886MOL0     H16923   2.751   9.313   1.503  1.7319  0.2920  0.5076
  886MOL0     H16924   2.574   9.249   1.751 -0.5858  2.4376  1.3570
  886MOL0     H16925   2.616   9.404   1.695  0.3755 -0.2767  0.3365
  886MOL0     H16926   2.446   9.202   1.526 -3.4632  0.7317 -2.8405
  886MOL0     H16927   2.499   9.363   1.476  0.0382 -0.5998 -0.8146
  886MOL0     H16928   2.370   9.460   1.673  0.5917  0.4691  0.7037
  886MOL0     H16929   2.313   9.305   1.729  0.7763  1.1074  1.2217
  886MOL0     H16930   2.253   9.449   1.473 -1.0335  0.1310 -0.7158
  886MOL0     H16931   2.213   9.277   1.488 -0.8646 -0.7927  1.5065
  886MOL0     H16932   2.059   9.350   1.688  0.0194 -0.0690  1.4807
  886MOL0     H16933   2.014   9.413   1.529 -0.4651 -1.3690  1.3285
  886MOL0     H16934   3.063   9.312   1.281  1.6736  1.8036 -1.9600
  886MOL0     H16935   3.294   9.270   1.180  1.9583  0.9159 -0.0052
  886MOL0     H16936   3.663   8.906   1.146 -0.1412 -0.5265 -1.7170
  886MOL0     H16937   3.885   8.892   1.036  0.3961  0.6885 -0.1405
  886MOL0     H16938   4.150   9.275   1.870  1.4818  2.7232 -0.9706
  886MOL0     H16939   3.898   9.272   1.932  0.7038  0.0266  0.7431
  886MOL0     H16940   3.492   9.336   1.869  0.5410 -0.4826 -0.1791
  886MOL0     H16941   3.254   9.333   1.952 -0.6548 -1.3989  1.8138
  886MOL0     H16942   3.053   9.313   1.993  2.2673 -1.1060 -0.2041
  886MOL0     H16943   3.123   9.269   2.143  0.0026  1.7112 -0.1405
  886MOL0     H16944   2.848   9.159   2.052 -0.0437  3.5247 -0.8604
  886MOL0     H16945   2.937   9.106   2.193 -1.1437 -1.8797 -1.3773
  886MOL0     H16946   2.917   9.332   2.295 -0.7401  2.5598  0.2397
  886MOL0     H16947   2.755   9.264   2.244  0.3731  0.1708  0.7267
  886MOL0     H16948   2.913   9.497   2.130 -1.5677  2.4237 -1.2815
  886MOL0     H16949   2.798   9.412   2.027  3.1644 -0.0721 -0.2866
  886MOL0     H16950   2.565   9.667   2.275  0.8751  2.0322 -1.8435
  886MOL0     H16951   3.273   8.905   1.972  3.1759 -0.4590  3.0310
  886MOL0     H16952   3.494   8.914   1.901 -0.9600  0.3854  1.9664
  887MOL0     O16953   1.064   5.381   2.171  0.2159 -0.7967  0.0367
  887MOL0     C16954   1.158   5.302   2.185  0.1168 -0.2858  0.1116
  887MOL0     O16955   1.150   5.173   2.218  0.2833  0.1675  0.8993
  887MOL0     C16956   1.018   5.127   2.220 -0.4666  0.7123  0.4285
  887MOL0     C16957   0.955   5.123   2.341 -0.1352  0.2896 -0.4325
  887MOL0     C16958   0.823   5.073   2.352  0.0786  0.4850  0.6089
  887MOL0     C16959   0.759   5.012   2.240  0.9053  0.0793  0.2145
  887MOL0     O16960   0.619   4.976   2.265 -0.0022 -0.4976  0.2680
  887MOL0     C16961   0.540   4.936   2.151  0.3791  0.0218 -0.1151
  887MOL0     C16962   0.411   4.870   2.206 -0.2063  0.0965 -0.3348
  887MOL0     C16963   0.311   4.979   2.242  0.0521 -0.1520  0.0956
  887MOL0     C16964   0.188   4.909   2.303 -0.6669 -0.0058 -0.2505
  887MOL0     C16965   0.116   5.011   2.395 -0.0254  0.2253  0.1114
  887MOL0     C16966   0.001   4.947   2.463 -0.6333 -0.0324 -0.7010
  887MOL0     C16967  -0.098   5.048   2.528  1.3926  0.0956  0.3664
  887MOL0     C16968  -0.209   4.977   2.615  0.0449  0.3055 -0.2895
  887MOL0     N16969  -0.286   4.873   2.551  0.1335  0.3399 -0.3656
  887MOL0     C16970  -0.389   4.896   2.466  1.0639  0.1691 -0.0474
  887MOL0     C16971  -0.446   4.774   2.441  0.7894 -0.4244 -0.0251
  887MOL0     C16972  -0.573   4.755   2.359 -0.1924  0.0259  0.5437
  887MOL0     C16973  -0.701   4.711   2.437  0.2483 -0.5301 -0.4958
  887MOL0     C16974  -0.807   4.656   2.348  0.3655  0.6705 -0.2441
  887MOL0     C16975  -0.906   4.566   2.430 -0.5242  0.1119 -0.1201
  887MOL0     O16976  -1.034   4.552   2.367 -0.0908  0.6209  0.6678
  887MOL0     C16977  -1.133   4.467   2.414  0.3654 -0.1779 -0.0500
  887MOL0     C16978  -1.136   4.379   2.525 -0.8417 -1.1656 -0.2712
  887MOL0     C16979  -1.248   4.305   2.555 -0.0876  0.0873  0.2458
  887MOL0     C16980  -1.376   4.328   2.491  0.0983  0.4169  0.0370
  887MOL0     C16981  -1.500   4.264   2.523  0.4572 -0.2284  0.2424
  887MOL0     O16982  -1.619   4.298   2.457 -0.4537  0.3243  0.4529
  887MOL0     C16983  -1.742   4.248   2.490 -0.0421  0.0147 -0.0009
  887MOL0     C16984  -1.834   4.217   2.388  0.8083  0.5825  1.2295
  887MOL0     C16985  -1.960   4.169   2.421  0.7764  0.0843  0.1769
  887MOL0     C16986  -2.001   4.160   2.555  0.1899 -0.1513 -0.2418
  887MOL0     O16987  -2.132   4.115   2.570  0.1713  0.0589 -0.3026
  887MOL0     C16988  -2.167   4.058   2.698  0.0632 -0.0153  0.2795
  887MOL0     C16989  -2.315   4.012   2.700  0.1239  0.4759 -0.1952
  887MOL0     C16990  -2.341   3.903   2.594  0.6360  0.2126 -0.3470
  887MOL0     C16991  -2.492   3.869   2.570  0.3866 -0.5405 -0.9603
  887MOL0     C16992  -2.508   3.753   2.465 -0.0108 -0.3786  0.4253
  887MOL0     C16993  -2.644   3.750   2.407  0.0845 -0.0080  0.3710
  887MOL0     C16994  -2.661   3.651   2.287  0.3114 -0.5930  0.0837
  887MOL0     C16995  -2.809   3.600   2.261 -0.3676 -0.1798 -0.1051
  887MOL0    Cl16996  -2.871   3.506   2.402 -0.0563 -0.2812 -0.1792
  887MOL0     C16997  -1.911   4.181   2.661 -1.0519  0.3141 -0.2567
  887MOL0     C16998  -1.785   4.237   2.628 -0.1428 -0.7389  0.0920
  887MOL0     O16999  -1.499   4.184   2.613 -0.1115  0.2286 -0.4009
  887MOL0     C17000  -1.371   4.418   2.383  0.4699  0.0836 -1.4138
  887MOL0     C17001  -1.256   4.485   2.347  0.2547  0.3563 -0.8979
  887MOL0     N17002  -0.382   4.682   2.510  0.1685  0.0789 -0.5724
  887MOL0     N17003  -0.280   4.735   2.565  0.7946 -0.1105 -0.4112
  887MOL0     C17004   0.823   5.014   2.114 -0.6999 -0.4743  0.2982
  887MOL0     C17005   0.950   5.076   2.106  0.1835 -0.1708  0.1063
  887MOL0     C17006   1.297   5.352   2.152 -0.4640  0.3625 -0.1597
  887MOL0     C17007   1.310   5.476   2.101 -0.0014 -0.3509 -0.1392
  887MOL0     C17008   1.430   5.518   2.041 -0.2997 -0.7102 -0.3628
  887MOL0     C17009   1.545   5.438   2.039 -0.0801 -0.2759  0.4195
  887MOL0     O17010   1.670   5.488   1.992  0.0799  0.2267  0.2085
  887MOL0     C17011   1.685   5.486   1.845  0.0462 -0.0672  0.5251
  887MOL0     C17012   1.716   5.617   1.785 -0.3654 -0.8616 -0.1856
  887MOL0     C17013   1.857   5.655   1.830  0.1835  0.4800 -0.6256
  887MOL0     C17014   1.905   5.773   1.749  0.2402 -0.6475  0.3947
  887MOL0     C17015   2.020   5.827   1.814  0.5304  0.4176 -0.4482
  887MOL0     C17016   2.121   5.849   1.870  0.6776 -0.5749 -0.0507
  887MOL0     C17017   1.535   5.316   2.106  0.4971 -0.0402 -0.0536
  887MOL0     C17018   1.411   5.266   2.156 -0.4455 -0.4636  0.0815
  887MOL0     H17019   0.992   5.161   2.436 -0.1406 -1.8848  0.5146
  887MOL0     H17020   0.781   5.071   2.452 -0.1836  2.2299  0.5695
  887MOL0     H17021   0.599   4.869   2.087  4.1718  0.0907  2.9720
  887MOL0     H17022   0.507   5.024   2.095 -2.5012 -0.5386  0.5244
  887MOL0     H17023   0.438   4.798   2.284  1.4924 -2.4117 -3.0425
  887MOL0     H17024   0.364   4.817   2.123  3.0921 -0.0894 -2.2285
  887MOL0     H17025   0.278   5.038   2.156 -0.5298  2.3235  1.9211
  887MOL0     H17026   0.349   5.047   2.319 -3.5148  2.8507 -0.4934
  887MOL0     H17027   0.121   4.865   2.229 -0.0193 -0.9163 -0.3219
  887MOL0     H17028   0.222   4.831   2.372 -3.4991  0.1166  1.4499
  887MOL0     H17029   0.079   5.092   2.332  0.1097  0.5050  0.3854
  887MOL0     H17030   0.178   5.063   2.470 -1.8587  2.5663  0.1141
  887MOL0     H17031   0.035   4.882   2.544  1.7410  0.5856 -1.1335
  887MOL0     H17032  -0.051   4.884   2.391  1.3300 -1.6996 -0.7610
  887MOL0     H17033  -0.036   5.113   2.591  3.2592 -0.1330 -1.1326
  887MOL0     H17034  -0.157   5.102   2.454 -1.2521  0.2948  2.4561
  887MOL0     H17035  -0.283   5.050   2.647 -0.4129  0.5050 -1.7075
  887MOL0     H17036  -0.147   4.921   2.685 -0.9954 -2.0229 -1.1152
  887MOL0     H17037  -0.412   4.992   2.421  0.0842  0.0972  0.2889
  887MOL0     H17038  -0.552   4.684   2.279 -0.8879  0.0747  0.3101
  887MOL0     H17039  -0.607   4.844   2.306 -0.3277 -1.9990 -3.1418
  887MOL0     H17040  -0.737   4.796   2.495  1.3428 -1.5027  1.7136
  887MOL0     H17041  -0.671   4.630   2.504  2.1096 -0.6778 -1.4338
  887MOL0     H17042  -0.857   4.745   2.308  0.7157  0.8293 -0.3256
  887MOL0     H17043  -0.769   4.585   2.273 -2.3086 -0.5332 -0.5883
  887MOL0     H17044  -0.928   4.624   2.520  0.9782  0.9368 -0.2411
  887MOL0     H17045  -0.872   4.466   2.459  3.1508  1.3059  0.2198
  887MOL0     H17046  -1.040   4.373   2.575  0.4145 -0.5179 -2.4578
  887MOL0     H17047  -1.232   4.223   2.624  1.5196 -0.9966 -1.3281
  887MOL0     H17048  -1.811   4.242   2.285 -0.6305  0.1008  0.7637
  887MOL0     H17049  -2.044   4.133   2.360 -1.2538 -1.2529  3.4731
  887MOL0     H17050  -2.145   4.121   2.785  2.5088  0.1961 -0.4108
  887MOL0     H17051  -2.107   3.967   2.708 -0.3212 -0.1440  1.5962
  887MOL0     H17052  -2.383   4.095   2.678 -0.2609  0.8995  2.2479
  887MOL0     H17053  -2.339   3.963   2.795 -2.0044  0.7053 -0.5698
  887MOL0     H17054  -2.298   3.809   2.630  0.5859  0.5497  0.6416
  887MOL0     H17055  -2.293   3.923   2.498 -0.1011 -1.9637 -1.2382
  887MOL0     H17056  -2.531   3.838   2.667  2.0594 -0.4705 -0.2242
  887MOL0     H17057  -2.542   3.962   2.541  2.7610  1.1626 -0.0110
  887MOL0     H17058  -2.477   3.657   2.507  2.5594  0.3031  0.2983
  887MOL0     H17059  -2.435   3.782   2.389 -0.9528  2.5250  0.4963
  887MOL0     H17060  -2.669   3.853   2.379  0.7034  0.0716  0.1069
  887MOL0     H17061  -2.715   3.721   2.486 -0.5229  0.4072 -0.0157
  887MOL0     H17062  -2.619   3.683   2.191 -0.0050 -1.6612 -0.4309
  887MOL0     H17063  -2.599   3.562   2.300  0.6425 -0.3126  0.4370
  887MOL0     H17064  -2.823   3.535   2.175 -1.1681  2.4742 -2.1114
  887MOL0     H17065  -2.878   3.680   2.232 -0.3396  0.2708  0.9876
  887MOL0     H17066  -1.942   4.174   2.765  1.6211 -0.9475  0.5622
  887MOL0     H17067  -1.710   4.256   2.704  1.7983 -0.9070 -1.6707
  887MOL0     H17068  -1.458   4.439   2.322  1.3380 -0.2026 -2.8025
  887MOL0     H17069  -1.261   4.550   2.261  1.9812 -1.0425 -2.1326
  887MOL0     H17070   0.779   4.979   2.021  0.9792  0.2187 -0.8319
  887MOL0     H17071   1.004   5.098   2.014  0.4217 -1.0144  0.0319
  887MOL0     H17072   1.226   5.544   2.106  0.8628  0.7228  0.3332
  887MOL0     H17073   1.437   5.619   2.001  1.4458 -0.3359  0.7659
  887MOL0     H17074   1.589   5.455   1.801 -1.5468  2.8502  1.7058
  887MOL0     H17075   1.767   5.419   1.816  1.0303  2.0540 -1.9908
  887MOL0     H17076   1.709   5.619   1.675 -2.3730  1.3255 -0.1065
  887MOL0     H17077   1.664   5.703   1.828  3.3725  1.2550  0.5296
  887MOL0     H17078   1.928   5.573   1.813  0.2590  0.2526  0.6288
  887MOL0     H17079   1.855   5.675   1.938  1.1815  0.5114 -0.6036
  887MOL0     H17080   1.920   5.747   1.644 -0.1956  0.9676 -0.0894
  887MOL0     H17081   1.826   5.848   1.750  0.0832 -0.7067 -2.2689
  887MOL0     H17082   2.219   5.844   1.915  0.3800 -1.1364  0.5660
  887MOL0     H17083   1.624   5.257   2.126 -0.7178 -1.6417  0.9321
  887MOL0     H17084   1.410   5.166   2.198  2.5059  0.0456  1.6152
  888MOL0     O17085   5.973   5.908   5.737  0.3539 -0.0418  0.2764
  888MOL0     C17086   5.976   5.936   5.862 -0.8713  0.5093  0.1095
  888MOL0     O17087   5.876   5.919   5.953  0.1207  0.1831  0.4749
  888MOL0     C17088   5.763   5.849   5.934  0.4552  0.1275  0.0082
  888MOL0     C17089   5.653   5.884   6.010  0.3574 -0.6506  0.6258
  888MOL0     C17090   5.530   5.818   5.997  0.4684  0.4236  0.2064
  888MOL0     C17091   5.505   5.719   5.904  0.0157  1.0247 -0.0256
  888MOL0     O17092   5.386   5.645   5.869  0.0436 -0.4677  0.4739
  888MOL0     C17093   5.273   5.663   5.952 -0.2916 -0.1293  0.0788
  888MOL0     C17094   5.154   5.593   5.895 -0.2170 -0.8783 -0.3938
  888MOL0     C17095   5.176   5.444   5.849  0.5546  0.1000  0.2313
  888MOL0     C17096   5.051   5.398   5.764  0.1528 -0.3825 -0.0228
  888MOL0     C17097   5.054   5.246   5.736  0.5377  0.2897  0.1974
  888MOL0     C17098   5.028   5.151   5.860 -0.7613 -0.4126  0.0047
  888MOL0     C17099   5.041   5.008   5.829  0.2902  0.2370 -0.9120
  888MOL0     C17100   4.942   4.960   5.717  0.0055  0.7029 -0.1947
  888MOL0     N17101   4.803   4.963   5.755  0.7386  0.6603  0.2137
  888MOL0     C17102   4.729   5.064   5.721  0.0754 -0.0511  0.0739
  888MOL0     C17103   4.609   5.033   5.778  0.3357  0.7473  0.0576
  888MOL0     C17104   4.484   5.118   5.784 -0.1325 -0.6445  0.4938
  888MOL0     C17105   4.420   5.156   5.654 -0.4761 -0.5500  0.6017
  888MOL0     C17106   4.370   5.032   5.577 -0.1276  0.2310  0.0898
  888MOL0     C17107   4.327   5.052   5.432 -0.1658  1.0174 -0.4817
  888MOL0     O17108   4.267   5.180   5.413  0.5981 -0.0843 -0.6346
  888MOL0     C17109   4.143   5.213   5.462 -0.0435  0.7190 -0.2276
  888MOL0     C17110   4.116   5.342   5.496 -0.1527  0.3496  0.2462
  888MOL0     C17111   4.008   5.384   5.570 -0.3072 -0.5232  0.3314
  888MOL0     C17112   3.899   5.294   5.593 -0.6337  0.7994 -0.4293
  888MOL0     C17113   3.777   5.334   5.658  1.2033 -0.6615  0.1411
  888MOL0     O17114   3.687   5.235   5.698 -0.3826 -0.5702  0.0317
  888MOL0     C17115   3.559   5.276   5.735  0.4991 -0.6933 -0.4676
  888MOL0     C17116   3.491   5.361   5.646  0.1691  0.2891 -0.2654
  888MOL0     C17117   3.355   5.388   5.669 -0.2840 -0.8730 -0.5881
  888MOL0     C17118   3.291   5.331   5.781 -0.0771  0.0247 -0.0239
  888MOL0     O17119   3.156   5.363   5.789 -0.0211 -0.3760  0.3792
  888MOL0     C17120   3.074   5.259   5.840 -0.0031  1.3612 -0.2363
  888MOL0     C17121   2.924   5.291   5.800 -0.1578  0.2164  0.7113
  888MOL0     C17122   2.878   5.427   5.852 -0.0609  0.2727 -0.3541
  888MOL0     C17123   2.758   5.472   5.770 -0.7063 -0.2204  0.2736
  888MOL0     C17124   2.730   5.626   5.801 -0.2909  0.4290  1.2559
  888MOL0     C17125   2.619   5.680   5.710 -0.4223 -0.4899  0.2981
  888MOL0     C17126   2.481   5.614   5.729  0.1426  0.2524 -0.2204
  888MOL0     C17127   2.440   5.582   5.875 -0.0637 -0.0959  0.1192
  888MOL0    Cl17128   2.305   5.460   5.866 -0.4126 -0.1877  0.3415
  888MOL0     C17129   3.362   5.259   5.871  0.9327  0.4516 -0.3679
  888MOL0     C17130   3.497   5.227   5.847  0.0488  0.8241  0.1785
  888MOL0     O17131   3.764   5.457   5.680 -0.0875 -0.1609  0.7323
  888MOL0     C17132   3.920   5.162   5.550 -0.6145  0.3677 -0.7767
  888MOL0     C17133   4.046   5.116   5.489  0.5550  0.2513 -0.7406
  888MOL0     N17134   4.612   4.907   5.825 -0.7045 -0.4546 -0.4411
  888MOL0     N17135   4.736   4.867   5.826 -0.1683  0.0967  0.1564
  888MOL0     C17136   5.617   5.668   5.833 -0.5691  0.1592 -0.7449
  888MOL0     C17137   5.741   5.742   5.842  0.4690 -0.2043  0.9006
  888MOL0     C17138   6.096   5.997   5.920  0.1322  0.2520  0.6832
  888MOL0     C17139   6.093   6.072   6.030  0.7288  0.0175 -0.0907
  888MOL0     C17140   6.207   6.127   6.098 -0.3512  0.1512  1.0785
  888MOL0     C17141   6.334   6.097   6.036  0.3118 -0.8986 -0.2560
  888MOL0     O17142   6.457   6.125   6.082  0.1966  0.2012 -0.1571
  888MOL0     C17143   6.461   6.174   6.221 -0.0806  0.1600 -0.1332
  888MOL0     C17144   6.599   6.230   6.267  0.6385 -0.1219 -0.0422
  888MOL0     C17145   6.663   6.323   6.164  0.5843 -0.7501  0.7845
  888MOL0     C17146   6.810   6.365   6.202 -0.9484  0.2452  0.7421
  888MOL0     C17147   6.899   6.410   6.092  0.6365 -0.3559 -0.2959
  888MOL0     C17148   6.946   6.443   5.986 -0.9566  0.1435 -0.4625
  888MOL0     C17149   6.335   6.032   5.915  0.3689  0.4234 -0.1254
  888MOL0     C17150   6.215   5.981   5.854  0.0551  0.0524  0.0200
  888MOL0     H17151   5.655   5.960   6.088  1.6177 -0.3141  0.2936
  888MOL0     H17152   5.442   5.852   6.051 -1.3786 -0.5566 -2.0393
  888MOL0     H17153   5.258   5.771   5.960  1.2231  0.1884 -1.0318
  888MOL0     H17154   5.288   5.633   6.056 -0.7606 -1.0600 -0.1065
  888MOL0     H17155   5.111   5.650   5.812 -2.6034  1.7450  2.3836
  888MOL0     H17156   5.078   5.593   5.974  0.3961 -0.8223  0.1959
  888MOL0     H17157   5.178   5.387   5.943 -1.0634  2.2253  1.6590
  888MOL0     H17158   5.268   5.433   5.792 -0.6074 -0.2520 -1.6739
  888MOL0     H17159   4.956   5.430   5.808  0.6716  3.1567 -1.1533
  888MOL0     H17160   5.058   5.449   5.668  1.8042 -1.3921 -0.4772
  888MOL0     H17161   5.153   5.230   5.692  0.4464  2.3326 -0.8932
  888MOL0     H17162   4.982   5.233   5.655 -0.5112  0.8294  1.0199
  888MOL0     H17163   4.925   5.164   5.895 -0.6382  0.4892  0.0595
  888MOL0     H17164   5.086   5.179   5.948 -1.2619 -1.2281  0.6112
  888MOL0     H17165   5.134   4.970   5.785  2.3956  2.5285  1.2325
  888MOL0     H17166   5.020   4.949   5.918 -0.7574 -0.7127 -1.7619
  888MOL0     H17167   4.957   4.856   5.685 -3.3331  0.1681 -0.3252
  888MOL0     H17168   4.955   5.025   5.630  0.0818  2.4348  1.0491
  888MOL0     H17169   4.763   5.152   5.666  1.4305  0.0656  1.0491
  888MOL0     H17170   4.509   5.208   5.842 -1.4753  1.8073 -2.4232
  888MOL0     H17171   4.408   5.072   5.847 -3.5513  2.0075 -1.3752
  888MOL0     H17172   4.488   5.206   5.585 -0.8986  0.7390  1.0888
  888MOL0     H17173   4.337   5.224   5.675 -0.4401 -0.7066  1.2682
  888MOL0     H17174   4.436   4.945   5.588 -1.5433 -0.5595  4.6760
  888MOL0     H17175   4.280   4.997   5.630  0.0024 -2.6944 -1.3692
  888MOL0     H17176   4.257   4.973   5.404 -0.1828  0.4875  0.9599
  888MOL0     H17177   4.420   5.040   5.376  1.3897 -0.5209  2.2227
  888MOL0     H17178   4.184   5.420   5.465 -1.7410  1.2905 -1.0402
  888MOL0     H17179   4.015   5.488   5.598  1.9800 -0.4346 -0.3519
  888MOL0     H17180   3.547   5.414   5.569  0.5860 -0.1995 -0.3045
  888MOL0     H17181   3.301   5.461   5.609 -0.0686 -2.0162 -2.2205
  888MOL0     H17182   3.071   5.253   5.949 -0.5898 -1.6327 -0.3494
  888MOL0     H17183   3.101   5.166   5.789  0.2675  2.5190 -2.3297
  888MOL0     H17184   2.854   5.211   5.826 -4.0514  2.3437 -2.1158
  888MOL0     H17185   2.926   5.300   5.691 -2.8588  1.2969  0.6758
  888MOL0     H17186   2.961   5.497   5.841  1.6483 -1.1352  2.4684
  888MOL0     H17187   2.850   5.428   5.957  0.5818 -0.0396 -0.1770
  888MOL0     H17188   2.774   5.458   5.662  1.9714 -0.8187  0.6675
  888MOL0     H17189   2.679   5.407   5.808  1.0658 -3.2731 -0.9044
  888MOL0     H17190   2.819   5.677   5.763 -1.5712  0.3517 -2.2785
  888MOL0     H17191   2.710   5.627   5.908 -0.4198  2.3889  1.2433
  888MOL0     H17192   2.657   5.688   5.608 -1.7068 -2.6029 -0.4029
  888MOL0     H17193   2.610   5.781   5.750  1.4343 -0.6309  1.1823
  888MOL0     H17194   2.396   5.668   5.686 -0.2894  1.3231  1.8539
  888MOL0     H17195   2.478   5.518   5.676  0.2320 -0.2001  0.5751
  888MOL0     H17196   2.420   5.682   5.914  2.0960  0.9969 -1.3280
  888MOL0     H17197   2.519   5.537   5.935 -0.5839  0.9539  1.6303
  888MOL0     H17198   3.313   5.224   5.961  1.4108  0.5764 -0.0494
  888MOL0     H17199   3.549   5.156   5.910  2.7423  0.7033 -1.9937
  888MOL0     H17200   3.848   5.084   5.574 -0.1095 -0.2639 -1.2812
  888MOL0     H17201   4.074   5.012   5.477  2.8495  0.2868  2.6727
  888MOL0     H17202   5.614   5.584   5.764 -0.1040 -0.7439  0.2945
  888MOL0     H17203   5.828   5.697   5.794 -0.1310 -1.4397  0.9151
  888MOL0     H17204   5.999   6.096   6.078 -0.0931 -3.4962  0.3479
  888MOL0     H17205   6.196   6.198   6.179 -0.7228  0.3943  0.8106
  888MOL0     H17206   6.430   6.090   6.284 -2.1171  2.4584  2.1621
  888MOL0     H17207   6.397   6.259   6.247  0.9050  0.1487  2.7085
  888MOL0     H17208   6.584   6.272   6.366  0.7368 -0.7209  0.2307
  888MOL0     H17209   6.662   6.142   6.282 -1.0691 -1.2889  0.5103
  888MOL0     H17210   6.595   6.409   6.162 -0.5620 -1.6429 -0.4566
  888MOL0     H17211   6.669   6.283   6.062  1.2413 -1.1861  0.9900
  888MOL0     H17212   6.793   6.441   6.279 -0.7847 -1.0871  2.1368
  888MOL0     H17213   6.863   6.280   6.245 -0.5422 -1.0539 -2.0934
  888MOL0     H17214   6.998   6.461   5.895 -1.6169 -0.9229 -1.0729
  888MOL0     H17215   6.430   6.017   5.864  0.0290 -0.6278 -0.4806
  888MOL0     H17216   6.222   5.942   5.753 -1.7681  0.1647 -0.1773
  889MOL0     O17217  11.018   8.372   1.180 -0.0860  0.1438 -0.2448
  889MOL0     C17218  11.034   8.477   1.242 -0.3104 -0.2187 -0.3076
  889MOL0     O17219  10.940   8.567   1.264  0.2511 -0.0540  1.0383
  889MOL0     C17220  10.815   8.540   1.227  0.1673 -0.7289  0.4305
  889MOL0     C17221  10.735   8.464   1.310  0.4879 -0.6353 -0.5860
  889MOL0     C17222  10.606   8.428   1.266 -0.0518 -0.0226 -0.1740
  889MOL0     C17223  10.558   8.472   1.144 -0.1090 -0.4073 -0.8417
  889MOL0     O17224  10.425   8.446   1.109  0.3556 -0.3311 -0.2926
  889MOL0     C17225  10.386   8.480   0.971  0.0286  0.6061 -0.1983
  889MOL0     C17226  10.248   8.433   0.938  0.3832  0.6507  0.1440
  889MOL0     C17227  10.139   8.464   1.046  0.2918  0.0703  0.0562
  889MOL0     C17228   9.990   8.438   1.000 -0.2102  0.2133  0.2680
  889MOL0     C17229   9.901   8.426   1.121  0.4023 -0.5651  0.3682
  889MOL0     C17230   9.782   8.336   1.082  0.4372  0.9398 -0.2643
  889MOL0     C17231   9.677   8.331   1.195 -0.2733 -0.6399  0.2053
  889MOL0     C17232   9.540   8.270   1.161 -0.2883  0.0382 -0.2230
  889MOL0     N17233   9.447   8.282   1.275 -0.4731  0.2379  0.8810
  889MOL0     C17234   9.411   8.397   1.329  0.0002 -0.0359  0.8396
  889MOL0     C17235   9.332   8.364   1.432 -0.0188  0.6052 -0.7489
  889MOL0     C17236   9.265   8.434   1.546  0.3181  0.0117  0.3163
  889MOL0     C17237   9.120   8.463   1.520 -0.1787 -0.2251  0.6854
  889MOL0     C17238   9.039   8.334   1.490 -0.1715  0.0539 -0.1618
  889MOL0     C17239   8.889   8.380   1.486  0.5589  0.1089 -0.8025
  889MOL0     O17240   8.810   8.266   1.462  0.0682  0.2595  0.2277
  889MOL0     C17241   8.678   8.291   1.467  0.1169 -0.5768  0.5606
  889MOL0     C17242   8.617   8.360   1.363 -0.3995 -0.5667 -0.4780
  889MOL0     C17243   8.485   8.392   1.371 -0.8550  0.0287  0.4109
  889MOL0     C17244   8.406   8.348   1.478  0.0234 -0.0928  1.6961
  889MOL0     C17245   8.265   8.363   1.459  0.1991  0.3666 -0.8944
  889MOL0     O17246   8.189   8.372   1.575 -0.0218 -0.3804 -0.1377
  889MOL0     C17247   8.058   8.394   1.575  0.4877  0.6031  0.4339
  889MOL0     C17248   7.971   8.342   1.471  0.4658  0.5154 -0.2649
  889MOL0     C17249   7.832   8.359   1.494 -0.4475 -0.2578 -0.6702
  889MOL0     C17250   7.773   8.418   1.611 -1.2479 -0.0811  0.8196
  889MOL0     O17251   7.641   8.416   1.641 -0.1473  0.1081 -0.2606
  889MOL0     C17252   7.556   8.431   1.529 -0.2624  0.1714 -0.0029
  889MOL0     C17253   7.415   8.423   1.588  1.1918  0.7351  0.1270
  889MOL0     C17254   7.357   8.563   1.620  0.3971  0.0437 -0.0659
  889MOL0     C17255   7.258   8.571   1.739  0.7572  0.4808 -0.0500
  889MOL0     C17256   7.142   8.471   1.727  0.3195  0.7336  0.1974
  889MOL0     C17257   7.056   8.496   1.599  0.4247 -0.0389 -0.4821
  889MOL0     C17258   6.955   8.394   1.593 -0.0271  0.6823  0.9055
  889MOL0     C17259   6.857   8.433   1.480 -0.2312 -0.4657  0.3339
  889MOL0    Cl17260   6.725   8.300   1.484 -0.0879 -0.5278 -0.1245
  889MOL0     C17261   7.865   8.476   1.702  0.2017 -0.1333 -0.1867
  889MOL0     C17262   8.000   8.471   1.682  0.4174  0.2509  0.7407
  889MOL0     O17263   8.223   8.374   1.347  0.5271 -0.0456  0.3475
  889MOL0     C17264   8.462   8.285   1.588  0.2845 -0.2748  0.1229
  889MOL0     C17265   8.600   8.249   1.582  0.1055  0.7391  0.9184
  889MOL0     N17266   9.317   8.223   1.443  0.2006 -0.6747  0.2527
  889MOL0     N17267   9.402   8.175   1.361 -0.0935 -0.8959  0.0003
  889MOL0     C17268  10.641   8.554   1.068  0.1878  0.1568  0.6714
  889MOL0     C17269  10.773   8.577   1.097 -0.0741 -0.3486  0.7664
  889MOL0     C17270  11.182   8.508   1.286 -0.2630  0.6222 -0.5096
  889MOL0     C17271  11.209   8.602   1.391 -0.3414  0.1493 -1.0237
  889MOL0     C17272  11.333   8.635   1.438 -0.6750 -0.7679 -0.8334
  889MOL0     C17273  11.443   8.561   1.380  0.4854  0.8159 -0.2707
  889MOL0     O17274  11.569   8.567   1.424  0.2645  0.1109  0.3872
  889MOL0     C17275  11.597   8.660   1.537 -0.3793  0.7544  0.3434
  889MOL0     C17276  11.751   8.678   1.567 -0.0532  0.4706  0.4898
  889MOL0     C17277  11.822   8.759   1.456  0.9602  0.3197  0.0644
  889MOL0     C17278  11.971   8.740   1.457 -0.6463  0.0765  0.5108
  889MOL0     C17279  12.035   8.797   1.573 -0.4264  0.3881  0.1495
  889MOL0     C17280  12.100   8.858   1.658  0.2941  0.1881  1.4260
  889MOL0     C17281  11.427   8.478   1.273  1.1162 -0.1883  0.4113
  889MOL0     C17282  11.293   8.449   1.222  0.0944 -0.5168 -0.0555
  889MOL0     H17283  10.756   8.414   1.404 -0.1654 -3.9964 -2.0592
  889MOL0     H17284  10.544   8.367   1.331  1.0769 -0.4567  0.5240
  889MOL0     H17285  10.448   8.423   0.902 -1.0565 -2.1060  0.9319
  889MOL0     H17286  10.393   8.587   0.947 -1.3333  1.0754  1.2778
  889MOL0     H17287  10.252   8.332   0.897  2.6856  1.1685 -1.0980
  889MOL0     H17288  10.206   8.495   0.858 -0.4496  1.0542  0.8799
  889MOL0     H17289  10.161   8.568   1.070  1.3815  0.5304 -2.5922
  889MOL0     H17290  10.165   8.423   1.144  1.5789  2.7917  0.9613
  889MOL0     H17291   9.954   8.519   0.937 -0.2320 -2.6016 -3.6919
  889MOL0     H17292   9.981   8.354   0.931  2.2002  1.8751 -2.2525
  889MOL0     H17293   9.870   8.527   1.146  2.0140  0.0794 -0.0657
  889MOL0     H17294   9.956   8.381   1.204  1.4941  0.5020  0.2528
  889MOL0     H17295   9.806   8.232   1.060 -0.9943  0.7364 -0.9663
  889MOL0     H17296   9.726   8.369   0.994 -3.1095 -1.2170  0.9789
  889MOL0     H17297   9.717   8.283   1.285 -0.5377  0.7590  1.1011
  889MOL0     H17298   9.661   8.434   1.228  0.5102 -0.3191 -0.3694
  889MOL0     H17299   9.561   8.171   1.119 -1.6174 -0.1424 -0.5038
  889MOL0     H17300   9.502   8.327   1.075  0.6341 -0.3436 -0.8953
  889MOL0     H17301   9.449   8.496   1.302  0.6304 -1.2368 -3.5225
  889MOL0     H17302   9.305   8.535   1.535 -0.5045  0.1452 -1.8015
  889MOL0     H17303   9.290   8.391   1.644  3.6641  2.0051  0.4775
  889MOL0     H17304   9.105   8.528   1.434 -0.0938 -1.6591 -0.4421
  889MOL0     H17305   9.075   8.517   1.604 -0.5580  1.3383 -0.4953
  889MOL0     H17306   9.077   8.298   1.394 -0.2778  0.1458 -0.2387
  889MOL0     H17307   9.059   8.263   1.570  1.5123  0.9535  0.2803
  889MOL0     H17308   8.861   8.453   1.409  1.7134  1.1131 -0.3087
  889MOL0     H17309   8.874   8.426   1.584  2.7795  2.9280 -1.6463
  889MOL0     H17310   8.677   8.382   1.275 -1.4857  1.0036 -0.8743
  889MOL0     H17311   8.448   8.444   1.283 -2.7963 -0.9012  0.6237
  889MOL0     H17312   8.001   8.296   1.378  1.6522  2.1189 -0.7197
  889MOL0     H17313   7.761   8.329   1.418 -1.4065  1.3668 -0.4603
  889MOL0     H17314   7.575   8.352   1.455  1.9737  0.9827 -0.3758
  889MOL0     H17315   7.581   8.527   1.484  0.1864  0.5805  1.0913
  889MOL0     H17316   7.400   8.347   1.665  0.8906 -0.5688 -1.1741
  889MOL0     H17317   7.355   8.383   1.506 -1.4771  1.5809  1.5364
  889MOL0     H17318   7.313   8.604   1.529 -0.5665  0.2009  0.4461
  889MOL0     H17319   7.439   8.628   1.651 -1.2968  1.9384  0.7609
  889MOL0     H17320   7.311   8.550   1.832 -1.2390 -2.8062  0.4909
  889MOL0     H17321   7.210   8.670   1.738 -0.6466 -0.1763  0.2839
  889MOL0     H17322   7.086   8.473   1.820 -1.9663  0.3767 -1.1064
  889MOL0     H17323   7.189   8.372   1.725 -0.1953  0.4089  2.3790
  889MOL0     H17324   7.115   8.478   1.509 -0.6936 -3.1324 -0.6994
  889MOL0     H17325   7.004   8.591   1.615  0.6083  0.1732 -1.1157
  889MOL0     H17326   6.998   8.296   1.567 -0.3383  0.5769  0.7830
  889MOL0     H17327   6.899   8.375   1.685  0.2899 -3.8621  0.4181
  889MOL0     H17328   6.915   8.441   1.388  3.8785  0.2771  2.7241
  889MOL0     H17329   6.825   8.535   1.504 -1.2544 -0.9624  1.1772
  889MOL0     H17330   7.828   8.516   1.796 -0.3112  4.1496 -1.9908
  889MOL0     H17331   8.067   8.508   1.760  1.4913 -1.1532  0.5259
  889MOL0     H17332   8.394   8.250   1.665 -0.1737 -0.4978 -0.3747
  889MOL0     H17333   8.654   8.203   1.664  0.7934 -0.8618 -0.3872
  889MOL0     H17334  10.600   8.607   0.982  0.0664  3.2101  2.4774
  889MOL0     H17335  10.825   8.639   1.025 -3.0092  0.1241 -1.1016
  889MOL0     H17336  11.120   8.642   1.439  0.2849  2.1036 -1.4204
  889MOL0     H17337  11.339   8.706   1.519  1.4841 -1.5501 -0.2158
  889MOL0     H17338  11.541   8.635   1.628  0.1518 -0.2013  0.4242
  889MOL0     H17339  11.550   8.753   1.504 -0.8472 -0.4147 -2.5388
  889MOL0     H17340  11.752   8.740   1.657 -0.7387 -1.0467  1.5796
  889MOL0     H17341  11.808   8.587   1.584 -0.2046  0.0981 -0.8839
  889MOL0     H17342  11.796   8.866   1.461  0.8014  0.2360  1.9578
  889MOL0     H17343  11.784   8.734   1.357  0.9758  1.3198 -0.2132
  889MOL0     H17344  11.999   8.634   1.448 -1.2892  0.0344 -1.2728
  889MOL0     H17345  12.022   8.784   1.371 -0.1773 -1.7170 -0.1735
  889MOL0     H17346  12.150   8.918   1.732  0.9623  1.1836  0.2209
  889MOL0     H17347  11.511   8.421   1.234 -0.6769 -1.9344 -1.0571
  889MOL0     H17348  11.279   8.381   1.139  0.0654  1.4288 -1.7336
  890MOL0     O17349   9.366   2.355   7.211 -0.2030 -0.0227 -1.0052
  890MOL0     C17350   9.447   2.259   7.192  0.2720 -0.4116  0.7318
  890MOL0     O17351   9.418   2.157   7.108  0.1150 -0.4252  0.0763
  890MOL0     C17352   9.287   2.126   7.082 -0.0854 -0.1706 -1.2260
  890MOL0     C17353   9.265   2.069   6.959  0.3122  0.3415 -0.0987
  890MOL0     C17354   9.137   2.007   6.925 -0.2307 -0.5087  0.9899
  890MOL0     C17355   9.030   2.010   7.014  0.0975 -0.3720 -0.1707
  890MOL0     O17356   8.912   1.976   6.957 -0.0046  0.4354 -0.0120
  890MOL0     C17357   8.786   1.988   7.029 -0.5633  0.4097  0.2159
  890MOL0     C17358   8.682   1.940   6.927  0.0819 -0.8273  0.3303
  890MOL0     C17359   8.705   1.791   6.904  0.6863 -0.1306  0.4632
  890MOL0     C17360   8.598   1.730   6.816  0.2993 -0.1750 -0.5122
  890MOL0     C17361   8.647   1.610   6.743 -0.1143  0.1831  0.3095
  890MOL0     C17362   8.734   1.648   6.625  0.5945 -0.1349 -0.3712
  890MOL0     C17363   8.818   1.526   6.589 -1.1470  0.4244  0.5020
  890MOL0     C17364   8.911   1.556   6.466  0.4538  0.2801  0.3835
  890MOL0     N17365   9.012   1.658   6.485 -0.4422  0.4126 -0.4648
  890MOL0     C17366   9.132   1.640   6.548  0.9419  0.6121  0.3410
  890MOL0     C17367   9.187   1.762   6.538  0.0904 -0.4492  0.0606
  890MOL0     C17368   9.333   1.783   6.564  0.4342  0.3365 -0.6817
  890MOL0     C17369   9.420   1.748   6.438  0.6206 -0.3490  0.7119
  890MOL0     C17370   9.568   1.783   6.452 -0.6298  0.0998  0.6699
  890MOL0     C17371   9.639   1.792   6.315  0.4532  0.6434  0.7707
  890MOL0     O17372   9.776   1.830   6.334 -0.3164  0.1529 -0.1609
  890MOL0     C17373   9.871   1.736   6.359 -0.6402 -0.9621 -0.2794
  890MOL0     C17374   9.848   1.606   6.395  0.1200 -0.6248 -0.5182
  890MOL0     C17375   9.950   1.520   6.437  0.0580 -0.9837 -0.3898
  890MOL0     C17376  10.083   1.566   6.426  0.3416 -0.0133  0.2814
  890MOL0     C17377  10.190   1.475   6.456 -0.6007 -0.4218  0.1285
  890MOL0     O17378  10.313   1.520   6.407 -0.2790  0.3228 -0.3350
  890MOL0     C17379  10.426   1.448   6.428  0.0369  1.1333 -0.1607
  890MOL0     C17380  10.453   1.377   6.547 -0.4264  0.0719 -0.1016
  890MOL0     C17381  10.570   1.294   6.551 -0.3099 -0.0202 -1.1417
  890MOL0     C17382  10.660   1.289   6.441  0.4004 -0.5862  0.2126
  890MOL0     O17383  10.775   1.214   6.441 -0.7536  1.1243  0.7403
  890MOL0     C17384  10.816   1.138   6.556  0.8696  0.0024  0.5321
  890MOL0     C17385  10.960   1.076   6.534 -0.8016 -0.0252 -0.0825
  890MOL0     C17386  11.079   1.171   6.527  0.5766  0.7485  0.9940
  890MOL0     C17387  11.211   1.106   6.527  0.3446 -0.1590  0.2884
  890MOL0     C17388  11.319   1.216   6.493  0.3451 -0.6366 -0.3490
  890MOL0     C17389  11.464   1.178   6.544  0.1300 -0.2928 -0.3861
  890MOL0     C17390  11.537   1.317   6.544 -0.2340 -0.0901  0.0819
  890MOL0     C17391  11.625   1.340   6.424 -0.1508  0.1669 -0.4167
  890MOL0    Cl17392  11.699   1.494   6.447 -0.2043  0.0774  0.5550
  890MOL0     C17393  10.623   1.359   6.320 -0.6067 -0.0390 -0.4507
  890MOL0     C17394  10.509   1.440   6.316 -0.2625 -0.6057  0.1062
  890MOL0     O17395  10.161   1.364   6.503 -0.3047  0.1170 -0.2370
  890MOL0     C17396  10.108   1.696   6.379  0.3560 -0.4860  0.5313
  890MOL0     C17397  10.007   1.784   6.348  0.1331  0.3491 -0.7311
  890MOL0     N17398   9.102   1.848   6.475 -0.6297  0.1697 -0.4835
  890MOL0     N17399   8.998   1.782   6.447  0.2140 -0.2203 -0.5594
  890MOL0     C17400   9.054   2.064   7.141  0.2297  0.5312  0.5804
  890MOL0     C17401   9.186   2.117   7.177  0.5267  0.4182 -0.1121
  890MOL0     C17402   9.586   2.260   7.257  0.2857  0.2915  0.4549
  890MOL0     C17403   9.670   2.148   7.255 -0.1292  0.2576  0.4439
  890MOL0     C17404   9.800   2.155   7.303  0.7324 -0.4985 -0.7341
  890MOL0     C17405   9.847   2.272   7.361 -0.0915  0.1789 -0.4629
  890MOL0     O17406   9.968   2.277   7.416 -0.5680  0.3637 -0.6174
  890MOL0     C17407  10.071   2.243   7.331 -0.9262  0.0549  0.1668
  890MOL0     C17408  10.173   2.357   7.339  0.1084 -0.5658 -0.3232
  890MOL0     C17409  10.291   2.346   7.251 -0.0861 -0.2912  0.8567
  890MOL0     C17410  10.407   2.444   7.285  0.3356 -0.5488 -0.0955
  890MOL0     C17411  10.497   2.431   7.177  0.4087 -1.0153 -0.3546
  890MOL0     C17412  10.582   2.415   7.088 -0.1639  0.0935  0.2021
  890MOL0     C17413   9.764   2.381   7.377 -0.8351 -1.5980 -0.0169
  890MOL0     C17414   9.635   2.380   7.315  0.1317 -0.6615 -0.2256
  890MOL0     H17415   9.342   2.069   6.883  0.3853  3.4575 -0.1473
  890MOL0     H17416   9.123   1.964   6.826  0.8905 -0.2288  0.6943
  890MOL0     H17417   8.769   2.088   7.070 -3.3945 -0.7541  2.2766
  890MOL0     H17418   8.777   1.924   7.118 -0.7590  3.0419  2.1902
  890MOL0     H17419   8.685   1.987   6.828  1.8782 -2.6542 -0.5477
  890MOL0     H17420   8.584   1.952   6.975 -0.8654 -1.2930 -1.4194
  890MOL0     H17421   8.703   1.738   7.000 -2.6763 -3.3188 -1.1444
  890MOL0     H17422   8.800   1.759   6.861 -0.3420 -0.3672 -1.7424
  890MOL0     H17423   8.517   1.708   6.885  1.4482 -0.4794  0.7979
  890MOL0     H17424   8.566   1.798   6.736 -1.4104 -1.0299 -0.5899
  890MOL0     H17425   8.565   1.542   6.718 -0.8831  0.5599  1.7027
  890MOL0     H17426   8.699   1.545   6.815  1.4585 -0.6086 -1.4635
  890MOL0     H17427   8.799   1.734   6.645  0.6461  0.1078 -1.4797
  890MOL0     H17428   8.676   1.666   6.534  2.6764 -1.3631 -2.0241
  890MOL0     H17429   8.881   1.500   6.675  1.2719 -0.6362 -1.4616
  890MOL0     H17430   8.756   1.436   6.581 -2.8208  1.3476  2.3736
  890MOL0     H17431   8.850   1.590   6.383 -0.5487  0.4453  1.1731
  890MOL0     H17432   8.960   1.462   6.438 -1.2930 -1.1098  1.7654
  890MOL0     H17433   9.180   1.552   6.590  0.1498  0.3193  0.6419
  890MOL0     H17434   9.366   1.728   6.652  0.9272  1.5276 -0.0951
  890MOL0     H17435   9.347   1.888   6.593  0.3531 -0.0010  0.6539
  890MOL0     H17436   9.374   1.808   6.360 -0.7957 -1.9621  0.2474
  890MOL0     H17437   9.413   1.642   6.412  0.1518 -0.4375  1.1829
  890MOL0     H17438   9.579   1.880   6.501 -2.1372  0.4515  0.3523
  890MOL0     H17439   9.629   1.709   6.505  2.5270  0.4681 -2.1296
  890MOL0     H17440   9.584   1.864   6.254 -1.4097 -0.7452  0.7173
  890MOL0     H17441   9.626   1.694   6.266 -1.3687 -0.1616  2.7105
  890MOL0     H17442   9.750   1.562   6.407  0.5556 -1.0241  2.4491
  890MOL0     H17443   9.924   1.418   6.462 -0.5237 -0.7622 -0.0774
  890MOL0     H17444  10.387   1.394   6.631 -1.0469 -0.0797 -0.5531
  890MOL0     H17445  10.578   1.226   6.634 -0.5586  0.3309 -0.8287
  890MOL0     H17446  10.738   1.065   6.577  0.6513  0.8477  2.9876
  890MOL0     H17447  10.810   1.198   6.647 -0.9810  1.9903 -0.7898
  890MOL0     H17448  10.965   0.996   6.460 -0.5086 -1.5456  1.5327
  890MOL0     H17449  10.981   1.024   6.627  0.9629 -0.7491 -0.8356
  890MOL0     H17450  11.065   1.258   6.593  0.0623  0.5358  1.1704
  890MOL0     H17451  11.072   1.223   6.430  1.7977  0.1242  0.5517
  890MOL0     H17452  11.230   1.058   6.623 -2.2635  0.4567  1.1863
  890MOL0     H17453  11.215   1.025   6.453 -0.9351 -0.8133  0.8953
  890MOL0     H17454  11.278   1.311   6.530  1.2356  0.7687 -2.7608
  890MOL0     H17455  11.328   1.227   6.385  1.1251  0.3904 -0.1913
  890MOL0     H17456  11.511   1.090   6.498 -0.0094 -1.3735  1.4188
  890MOL0     H17457  11.467   1.152   6.651  0.5353 -1.7850 -0.7376
  890MOL0     H17458  11.462   1.397   6.543 -0.8762 -0.6898 -0.3726
  890MOL0     H17459  11.590   1.321   6.640 -3.8847  1.6153  2.2673
  890MOL0     H17460  11.576   1.330   6.327  1.6291 -1.5316 -1.2272
  890MOL0     H17461  11.706   1.265   6.427 -2.0136 -1.9363  0.0125
  890MOL0     H17462  10.687   1.341   6.234  0.9379 -1.4905  0.9427
  890MOL0     H17463  10.481   1.500   6.230  1.9976  2.5895  1.3823
  890MOL0     H17464  10.209   1.717   6.345 -0.2985  0.2704 -1.0822
  890MOL0     H17465  10.027   1.889   6.331  1.0331  0.0982 -1.3018
  890MOL0     H17466   8.981   2.068   7.220 -0.9816 -0.3560 -0.4496
  890MOL0     H17467   9.203   2.156   7.276 -2.6771  0.4300  0.5482
  890MOL0     H17468   9.641   2.058   7.202 -0.5329  0.7614 -0.1985
  890MOL0     H17469   9.866   2.070   7.295  2.2201  0.6863 -1.4324
  890MOL0     H17470  10.048   2.235   7.224  1.3094  1.8423 -0.5238
  890MOL0     H17471  10.110   2.144   7.360 -2.2433 -1.2745 -2.2624
  890MOL0     H17472  10.135   2.459   7.328 -1.3351 -1.3154 -3.3614
  890MOL0     H17473  10.206   2.354   7.443  0.9241  1.6366 -0.4728
  890MOL0     H17474  10.250   2.362   7.151  1.5104  1.5048  0.4262
  890MOL0     H17475  10.316   2.241   7.267 -0.6926 -0.8079 -1.3278
  890MOL0     H17476  10.363   2.544   7.282 -0.0741 -0.7445 -0.6376
  890MOL0     H17477  10.446   2.428   7.386 -1.9570  0.6989  1.0662
  890MOL0     H17478  10.661   2.398   7.017  1.0896 -1.0103  1.7822
  890MOL0     H17479   9.798   2.472   7.425 -1.0291 -0.9339 -1.0880
  890MOL0     H17480   9.565   2.463   7.322 -0.2401 -1.0371  0.7553
  891MOL0     O17481   6.331   9.778  11.037  0.3976  0.0053  0.3430
  891MOL0     C17482   6.436   9.819  11.086 -0.4954  0.1886  0.6995
  891MOL0     O17483   6.456   9.949  11.125  0.3023  0.3752  0.2329
  891MOL0     C17484   6.367  10.052  11.135 -0.0014  1.0038 -0.1223
  891MOL0     C17485   6.406  10.158  11.210 -0.7371  0.0514  0.4132
  891MOL0     C17486   6.327  10.270  11.219 -0.4934 -0.0052 -0.4279
  891MOL0     C17487   6.201  10.271  11.168 -0.4871  0.7236 -0.2107
  891MOL0     O17488   6.131  10.389  11.186  0.2119  0.6340 -0.6637
  891MOL0     C17489   5.989  10.387  11.160  0.1102 -0.6357 -0.4224
  891MOL0     C17490   5.928  10.518  11.203 -0.8217  0.3922 -0.0499
  891MOL0     C17491   5.928  10.535  11.361 -0.4858  0.0239 -0.0089
  891MOL0     C17492   5.883  10.676  11.382 -0.8055 -0.0498  0.0239
  891MOL0     C17493   5.865  10.698  11.538  0.4044 -0.1122  0.4202
  891MOL0     C17494   5.986  10.711  11.625  0.6070  0.5499  0.7501
  891MOL0     C17495   6.071  10.832  11.579  0.3822  0.1778 -0.1397
  891MOL0     C17496   6.181  10.845  11.666 -0.2181 -0.3354 -1.2384
  891MOL0     N17497   6.266  10.960  11.636 -0.6592  0.1842  0.1568
  891MOL0     C17498   6.401  10.957  11.634 -0.0947  0.5478 -0.6401
  891MOL0     C17499   6.444  11.086  11.617 -1.0067  0.3378 -0.5993
  891MOL0     C17500   6.585  11.131  11.611 -0.5783 -0.9479 -0.0541
  891MOL0     C17501   6.650  11.168  11.740 -0.2451  0.1827  0.4769
  891MOL0     C17502   6.603  11.313  11.787  0.1648  0.2844 -0.6816
  891MOL0     C17503   6.635  11.439  11.703  0.4700  0.1575 -0.5532
  891MOL0     O17504   6.777  11.455  11.709  0.1733  0.6108  1.0454
  891MOL0     C17505   6.843  11.530  11.808  0.1772  0.3029 -0.6088
  891MOL0     C17506   6.983  11.509  11.828 -0.8301 -0.2547 -0.2458
  891MOL0     C17507   7.057  11.584  11.922  0.0140  0.3237  0.6943
  891MOL0     C17508   6.995  11.691  11.995 -0.5870 -0.1874  0.0356
  891MOL0     C17509   7.077  11.768  12.089 -0.2446 -0.3283 -0.7173
  891MOL0     O17510   7.008  11.849  12.172 -0.4117  0.0502 -0.2578
  891MOL0     C17511   7.087  11.909  12.275 -0.1928 -0.9577 -0.0553
  891MOL0     C17512   7.044  12.039  12.312 -0.1765  0.2768 -0.2226
  891MOL0     C17513   7.103  12.097  12.421 -0.1036  0.1933  0.4412
  891MOL0     C17514   7.215  12.039  12.489  0.2037  0.7308  0.1583
  891MOL0     O17515   7.277  12.102  12.589  0.4365 -0.0500 -0.5975
  891MOL0     C17516   7.373  12.206  12.552  0.7629 -0.1110 -0.9483
  891MOL0     C17517   7.499  12.126  12.525  0.1293 -0.0022  0.3623
  891MOL0     C17518   7.607  12.224  12.479  0.5025  0.8339 -0.1395
  891MOL0     C17519   7.646  12.317  12.594 -0.1002  0.0944 -0.9667
  891MOL0     C17520   7.776  12.391  12.576 -0.0464 -1.2028 -0.5210
  891MOL0     C17521   7.782  12.496  12.684  0.0205  0.5783  0.0061
  891MOL0     C17522   7.930  12.537  12.709 -0.4195  0.5745 -0.0378
  891MOL0     C17523   7.957  12.611  12.840  0.0059 -0.7668 -0.3717
  891MOL0    Cl17524   7.902  12.525  12.984 -0.0435 -0.1471 -0.3920
  891MOL0     C17525   7.259  11.921  12.442 -0.2548 -0.0324  0.9530
  891MOL0     C17526   7.200  11.853  12.336 -0.0036 -0.7608 -0.4160
  891MOL0     O17527   7.196  11.761  12.067 -0.3514 -0.5077 -0.3114
  891MOL0     C17528   6.855  11.712  11.980 -0.7537  0.4583  0.3885
  891MOL0     C17529   6.784  11.631  11.891 -0.4563 -0.0171 -0.2228
  891MOL0     N17530   6.330  11.170  11.614  0.0327 -0.0671 -0.3261
  891MOL0     N17531   6.228  11.095  11.629 -0.2747 -0.0953 -0.4610
  891MOL0     C17532   6.154  10.161  11.101 -0.4417 -0.5430 -0.1276
  891MOL0     C17533   6.236  10.048  11.081  0.0945  1.3724 -0.6723
  891MOL0     C17534   6.550   9.720  11.098  0.2384 -1.1468  0.4074
  891MOL0     C17535   6.668   9.767  11.157 -0.5124  0.3833 -0.1123
  891MOL0     C17536   6.771   9.671  11.179 -0.4969 -0.5376 -0.7157
  891MOL0     C17537   6.758   9.539  11.160 -0.2091 -0.1434 -0.1991
  891MOL0     O17538   6.853   9.452  11.206  0.2817 -0.4778  1.0777
  891MOL0     C17539   6.821   9.309  11.200 -1.1600 -0.4294  0.6334
  891MOL0     C17540   6.911   9.235  11.302 -1.1708  0.7510 -0.2523
  891MOL0     C17541   6.896   9.282  11.445  0.3401  0.0889 -0.4958
  891MOL0     C17542   7.011   9.226  11.540  0.0798 -0.4950 -0.3965
  891MOL0     C17543   7.006   9.086  11.567  0.4010 -0.3316  0.3019
  891MOL0     C17544   6.990   8.968  11.590 -0.1800  0.8315 -0.5357
  891MOL0     C17545   6.640   9.497  11.087  0.6789 -0.5448  1.0344
  891MOL0     C17546   6.539   9.589  11.062  0.1127 -0.1563 -0.9102
  891MOL0     H17547   6.502  10.156  11.261 -0.6354 -0.5303  0.2144
  891MOL0     H17548   6.367  10.353  11.277  0.2627  0.5248 -1.6589
  891MOL0     H17549   5.939  10.302  11.209  0.7387 -0.0455  1.3320
  891MOL0     H17550   5.962  10.367  11.056 -1.4503 -0.1119 -0.1465
  891MOL0     H17551   5.824  10.522  11.167 -1.1029 -0.3983  0.6414
  891MOL0     H17552   5.991  10.597  11.162  1.5746 -1.1468  0.4904
  891MOL0     H17553   6.027  10.515  11.403  0.5969  0.8431 -2.0347
  891MOL0     H17554   5.853  10.468  11.405  0.0608 -0.3371  0.3880
  891MOL0     H17555   5.959  10.739  11.335  1.1568 -0.3700  2.5045
  891MOL0     H17556   5.786  10.690  11.333 -0.7571 -0.8530 -0.3038
  891MOL0     H17557   5.805  10.616  11.579 -2.4828  1.2609 -0.8104
  891MOL0     H17558   5.808  10.790  11.554 -0.2483 -0.6744  1.4607
  891MOL0     H17559   6.039  10.617  11.609 -1.0307 -0.2347 -0.3564
  891MOL0     H17560   5.956  10.722  11.729 -2.8909  0.1339 -0.0733
  891MOL0     H17561   6.104  10.801  11.479  0.5860 -3.1559  0.8572
  891MOL0     H17562   6.009  10.922  11.574  1.1146  0.6468 -1.7021
  891MOL0     H17563   6.239  10.753  11.670  0.2270 -0.0246  0.0660
  891MOL0     H17564   6.131  10.858  11.763  1.0345 -0.6203 -0.5280
  891MOL0     H17565   6.449  10.861  11.650  0.8366  1.2675  1.0429
  891MOL0     H17566   6.585  11.211  11.536  1.4598 -1.8808 -1.1455
  891MOL0     H17567   6.643  11.048  11.569  0.6244 -0.2783  0.2563
  891MOL0     H17568   6.759  11.176  11.736 -0.4114  2.8535 -0.3950
  891MOL0     H17569   6.626  11.092  11.815  0.2829  1.4553  2.0004
  891MOL0     H17570   6.496  11.315  11.809  0.7428  0.5268  2.6822
  891MOL0     H17571   6.654  11.325  11.884 -0.3718  2.2715 -0.5880
  891MOL0     H17572   6.580  11.524  11.744 -0.9303 -0.4488 -1.1048
  891MOL0     H17573   6.597  11.422  11.602 -1.9016 -2.8809  0.6759
  891MOL0     H17574   7.035  11.434  11.769  1.7035  0.2424  1.2546
  891MOL0     H17575   7.165  11.585  11.927  0.0067 -0.7018  1.2364
  891MOL0     H17576   6.961  12.084  12.259 -0.6516 -0.1192  0.1859
  891MOL0     H17577   7.069  12.196  12.451 -1.6301  0.8428 -2.9902
  891MOL0     H17578   7.387  12.266  12.642 -1.3318 -1.0662  0.0776
  891MOL0     H17579   7.344  12.264  12.463  0.3489 -2.5637 -2.5312
  891MOL0     H17580   7.482  12.057  12.442  1.5329 -2.8690  2.2806
  891MOL0     H17581   7.531  12.067  12.612 -1.6755 -1.2298  0.2523
  891MOL0     H17582   7.569  12.272  12.388 -2.7281 -0.5782  0.2986
  891MOL0     H17583   7.694  12.165  12.451  0.1088  1.1202 -2.1103
  891MOL0     H17584   7.569  12.392  12.613 -0.0097  0.4010 -1.7910
  891MOL0     H17585   7.648  12.248  12.679 -0.3620  0.9407 -0.2517
  891MOL0     H17586   7.777  12.437  12.477  1.8281 -3.0703 -1.4338
  891MOL0     H17587   7.864  12.326  12.579  0.8154 -0.1392 -1.5833
  891MOL0     H17588   7.737  12.458  12.776  2.7160  0.5027  1.4088
  891MOL0     H17589   7.728  12.583  12.645  0.2569  0.2327 -1.1211
  891MOL0     H17590   7.988  12.445  12.721 -0.7227  0.5834  1.8033
  891MOL0     H17591   7.970  12.581  12.617 -0.1639 -0.9947 -0.7126
  891MOL0     H17592   7.910  12.710  12.833  0.0167 -0.8557 -2.1297
  891MOL0     H17593   8.067  12.614  12.836 -0.0289 -0.5285 -3.2441
  891MOL0     H17594   7.361  11.892  12.470  0.9471  2.4475 -0.5695
  891MOL0     H17595   7.242  11.754  12.322  0.6191 -0.8177  1.5558
  891MOL0     H17596   6.803  11.793  12.030  1.6207  2.1076  0.3533
  891MOL0     H17597   6.677  11.650  11.885 -0.4462 -0.3913 -2.3662
  891MOL0     H17598   6.050  10.156  11.072 -1.0826 -2.9524  2.1622
  891MOL0     H17599   6.194   9.952  11.051  0.6925  2.1157 -4.3535
  891MOL0     H17600   6.685   9.872  11.175 -0.2500  0.0321  1.9353
  891MOL0     H17601   6.867   9.704  11.219 -0.9089  1.2990 -1.1409
  891MOL0     H17602   6.819   9.271  11.097 -2.8779 -0.1642  0.5499
  891MOL0     H17603   6.719   9.292  11.235 -0.5913 -0.7859  2.1588
  891MOL0     H17604   6.879   9.131  11.307 -0.6208  0.5498 -0.7824
  891MOL0     H17605   7.019   9.246  11.287 -0.5117 -0.6911  2.6651
  891MOL0     H17606   6.801   9.239  11.478  0.2387 -0.4185 -1.4144
  891MOL0     H17607   6.884   9.390  11.456 -3.8373 -0.2469  0.0069
  891MOL0     H17608   7.107   9.252  11.495 -0.2789  1.2460 -0.2474
  891MOL0     H17609   6.999   9.263  11.642  0.7676 -1.8038  0.1810
  891MOL0     H17610   6.977   8.864  11.612 -4.0071  0.9771 -1.3969
  891MOL0     H17611   6.617   9.394  11.061 -0.7697 -0.2334  0.9676
  891MOL0     H17612   6.449   9.549  11.015  1.5834 -2.6315 -1.8053
  892MOL0     O17613   0.506   9.452   2.851 -0.3659 -0.4480  0.5242
  892MOL0     C17614   0.566   9.362   2.801 -0.8952  0.4642  0.6388
  892MOL0     O17615   0.518   9.277   2.702  0.2949  0.1552 -0.0715
  892MOL0     C17616   0.379   9.277   2.691 -0.2259  0.0703  0.0554
  892MOL0     C17617   0.290   9.385   2.671  0.1030  1.0091  0.5629
  892MOL0     C17618   0.155   9.357   2.671 -0.2075  0.1618  0.5714
  892MOL0     C17619   0.099   9.231   2.686 -0.3089 -0.0244  0.6817
  892MOL0     O17620  -0.033   9.210   2.672  0.6428  0.1173  0.5855
  892MOL0     C17621  -0.108   9.285   2.580 -0.4844 -0.1364 -0.9202
  892MOL0     C17622  -0.236   9.217   2.537  0.0702  1.1605 -1.2284
  892MOL0     C17623  -0.335   9.206   2.659  0.1620  0.4272  0.7728
  892MOL0     C17624  -0.456   9.124   2.613  0.0686  0.9429  0.2425
  892MOL0     C17625  -0.556   9.082   2.720 -0.1730 -0.2462  0.1393
  892MOL0     C17626  -0.631   9.200   2.782 -0.3908 -0.2463 -0.0497
  892MOL0     C17627  -0.757   9.144   2.845 -0.3087 -1.1897 -0.1150
  892MOL0     C17628  -0.862   9.256   2.888 -0.0236  0.0296 -0.5371
  892MOL0     N17629  -0.958   9.193   2.979  0.1425 -0.5653 -0.5105
  892MOL0     C17630  -1.025   9.067   2.962 -0.1095  0.2688 -0.0966
  892MOL0     C17631  -1.086   9.048   3.081 -0.7673 -1.5028 -0.2867
  892MOL0     C17632  -1.174   8.928   3.100  0.1892  0.0372 -0.1507
  892MOL0     C17633  -1.315   8.990   3.110 -0.6413  0.2751  0.2251
  892MOL0     C17634  -1.418   8.874   3.118  0.8595  0.1451 -0.3518
  892MOL0     C17635  -1.551   8.931   3.177  1.0862  0.6091 -0.8021
  892MOL0     O17636  -1.657   8.830   3.168  0.9366 -0.1416 -0.7572
  892MOL0     C17637  -1.797   8.856   3.153  0.5190  0.4709  0.4579
  892MOL0     C17638  -1.864   8.971   3.193  0.0609  0.3931  0.1566
  892MOL0     C17639  -1.999   8.988   3.190  0.2877 -0.0874  0.2133
  892MOL0     C17640  -2.080   8.890   3.140  0.7511  0.4197  0.0242
  892MOL0     C17641  -2.227   8.913   3.130  0.0819  0.7117  0.2188
  892MOL0     O17642  -2.298   8.836   3.047  0.3551 -0.1484  0.0061
  892MOL0     C17643  -2.432   8.843   3.050  0.2995  0.3406  0.3994
  892MOL0     C17644  -2.510   8.868   2.936 -0.4400 -0.1465 -0.6550
  892MOL0     C17645  -2.647   8.880   2.933 -0.7740 -1.2275  0.3575
  892MOL0     C17646  -2.721   8.848   3.054  0.1836  0.7961  0.1997
  892MOL0     O17647  -2.852   8.878   3.075  0.3185 -0.4416  0.5453
  892MOL0     C17648  -2.924   8.918   2.957  0.3809 -0.2051  0.4083
  892MOL0     C17649  -3.067   8.946   2.996 -0.5977 -0.8539  0.0145
  892MOL0     C17650  -3.165   8.932   2.882  1.2083 -0.3844 -0.3035
  892MOL0     C17651  -3.309   8.985   2.919 -0.9239  0.2445 -0.1550
  892MOL0     C17652  -3.417   8.875   2.939  0.0378  0.2109 -0.3006
  892MOL0     C17653  -3.568   8.930   2.958 -1.4682 -1.0025 -0.4376
  892MOL0     C17654  -3.568   9.015   3.083 -0.2888 -0.0820 -0.4783
  892MOL0     C17655  -3.700   9.068   3.119  0.2489  0.4452 -0.0434
  892MOL0    Cl17656  -3.804   8.935   3.202 -0.2510  0.0990  0.4851
  892MOL0     C17657  -2.649   8.806   3.165 -1.1103 -0.7958  0.4037
  892MOL0     C17658  -2.504   8.809   3.167  0.5411  1.1393  0.5995
  892MOL0     O17659  -2.270   9.001   3.203 -0.6960 -0.4957  0.4768
  892MOL0     C17660  -2.019   8.762   3.113 -0.1319  0.6046 -0.8209
  892MOL0     C17661  -1.878   8.747   3.115 -0.2579 -0.0728 -0.1135
  892MOL0     N17662  -1.066   9.156   3.168  0.5149 -0.4429 -0.1306
  892MOL0     N17663  -0.989   9.240   3.106 -0.3114  0.2759 -0.9377
  892MOL0     C17664   0.192   9.128   2.693  0.7925 -1.5014 -0.0673
  892MOL0     C17665   0.329   9.150   2.695 -0.0016  0.2417  0.9451
  892MOL0     C17666   0.705   9.325   2.845 -0.1537  0.8609  0.1773
  892MOL0     C17667   0.770   9.409   2.941  0.7171 -0.5540  0.1923
  892MOL0     C17668   0.893   9.375   2.992 -0.8999  0.1843  0.5187
  892MOL0     C17669   0.969   9.262   2.946  0.4007  0.7614  0.6023
  892MOL0     O17670   1.091   9.220   3.003 -0.2398  0.0392 -0.0030
  892MOL0     C17671   1.160   9.317   3.084  0.7251  0.3573  0.9878
  892MOL0     C17672   1.277   9.237   3.131  0.1765  0.4607 -0.3321
  892MOL0     C17673   1.386   9.316   3.216  0.2756  0.2816  0.3424
  892MOL0     C17674   1.343   9.364   3.350  0.1360 -0.3141 -0.1563
  892MOL0     C17675   1.312   9.265   3.455 -0.6843 -0.3324  0.6665
  892MOL0     C17676   1.306   9.197   3.558 -0.2907 -0.1314  0.3893
  892MOL0     C17677   0.902   9.186   2.846 -0.3723 -0.0579  0.8267
  892MOL0     C17678   0.777   9.223   2.796 -0.3197  0.3435  0.4358
  892MOL0     H17679   0.318   9.490   2.664 -1.2026  1.2942 -1.3707
  892MOL0     H17680   0.088   9.443   2.675 -1.9869 -1.2056  1.1624
  892MOL0     H17681  -0.050   9.295   2.488  0.3571  0.9030 -0.3151
  892MOL0     H17682  -0.131   9.388   2.608 -1.9356 -0.2729 -1.5260
  892MOL0     H17683  -0.223   9.118   2.494 -1.0516  0.7103 -0.5929
  892MOL0     H17684  -0.271   9.273   2.450  1.5111 -0.5707 -2.9882
  892MOL0     H17685  -0.368   9.305   2.690  0.6576  0.5686  0.8577
  892MOL0     H17686  -0.281   9.161   2.743  3.2943  3.1145  0.3900
  892MOL0     H17687  -0.511   9.184   2.540  0.7671  0.9951 -0.2593
  892MOL0     H17688  -0.425   9.027   2.571 -3.5749 -0.2055 -0.1412
  892MOL0     H17689  -0.503   9.025   2.797 -1.6005  0.1033  1.4244
  892MOL0     H17690  -0.627   9.018   2.666 -1.8354  3.1512 -2.0105
  892MOL0     H17691  -0.652   9.282   2.713 -0.9593 -0.2639  0.0984
  892MOL0     H17692  -0.570   9.239   2.864  1.2025  0.4430 -1.4843
  892MOL0     H17693  -0.804   9.080   2.770  0.7972 -1.8101 -0.3047
  892MOL0     H17694  -0.741   9.082   2.934  0.2929 -1.5614 -0.4792
  892MOL0     H17695  -0.909   9.297   2.798  0.1733 -0.2661 -0.7757
  892MOL0     H17696  -0.808   9.339   2.935  1.6112 -2.0164  1.4388
  892MOL0     H17697  -1.033   9.002   2.876  0.3993 -0.5445  0.4618
  892MOL0     H17698  -1.144   8.881   3.194  0.6144 -1.1727 -0.8693
  892MOL0     H17699  -1.153   8.850   3.026 -2.6307 -2.0932  1.1305
  892MOL0     H17700  -1.333   9.047   3.019 -1.2238  1.9509  1.3413
  892MOL0     H17701  -1.318   9.046   3.204  1.8992 -4.1852  3.4159
  892MOL0     H17702  -1.441   8.833   3.019  1.6533  0.7905 -0.8213
  892MOL0     H17703  -1.379   8.789   3.174 -0.5242  0.6052  1.4003
  892MOL0     H17704  -1.577   9.025   3.129  0.8296  0.5911 -0.7021
  892MOL0     H17705  -1.528   8.959   3.280  3.2956 -1.0711 -0.7714
  892MOL0     H17706  -1.795   9.049   3.223 -0.6594  1.0292  0.1966
  892MOL0     H17707  -2.039   9.084   3.222  0.6755 -0.2927  1.3450
  892MOL0     H17708  -2.452   8.890   2.846  1.1213  2.9156  0.9285
  892MOL0     H17709  -2.694   8.913   2.841  0.8382  5.1284  1.2769
  892MOL0     H17710  -2.929   8.829   2.895 -1.5345 -1.6729  2.4830
  892MOL0     H17711  -2.872   9.002   2.909  0.5080 -0.4298  0.1516
  892MOL0     H17712  -3.081   9.042   3.047 -3.8910 -2.6764  2.9716
  892MOL0     H17713  -3.093   8.871   3.071 -1.1789 -0.2935  0.3822
  892MOL0     H17714  -3.173   8.831   2.842  0.5654 -1.1850  1.7100
  892MOL0     H17715  -3.135   9.007   2.808 -1.6834 -0.3935 -1.6215
  892MOL0     H17716  -3.306   9.015   3.024 -0.9062 -0.6512  0.1115
  892MOL0     H17717  -3.349   9.064   2.855 -0.9652 -1.2903 -2.1293
  892MOL0     H17718  -3.388   8.840   3.038 -0.1995  0.1860 -0.2395
  892MOL0     H17719  -3.419   8.794   2.866 -0.4619 -1.0609  1.0842
  892MOL0     H17720  -3.646   8.855   2.969 -0.9095 -1.2689  2.3211
  892MOL0     H17721  -3.597   8.987   2.869 -0.4938 -0.2309 -0.2802
  892MOL0     H17722  -3.538   8.946   3.163  1.1997  0.0535 -0.8896
  892MOL0     H17723  -3.496   9.097   3.075  0.5014 -0.7883 -0.7583
  892MOL0     H17724  -3.750   9.104   3.028 -0.1244 -0.1021 -0.0603
  892MOL0     H17725  -3.684   9.162   3.172  0.6837  1.0720 -1.2507
  892MOL0     H17726  -2.709   8.792   3.254 -1.2447 -1.9729  0.1343
  892MOL0     H17727  -2.447   8.782   3.255  1.5220  1.2568  0.0141
  892MOL0     H17728  -2.091   8.683   3.093 -0.6459  1.1369 -1.1175
  892MOL0     H17729  -1.840   8.647   3.096 -0.1243 -0.2581  1.0402
  892MOL0     H17730   0.145   9.030   2.702 -0.2298 -0.9939  0.2843
  892MOL0     H17731   0.390   9.062   2.715  0.1359 -0.0029 -0.5051
  892MOL0     H17732   0.720   9.496   2.984 -1.7536 -2.5145  1.5798
  892MOL0     H17733   0.930   9.438   3.072 -1.1987 -2.4855  2.9363
  892MOL0     H17734   1.098   9.354   3.166  2.2513  0.8053  1.9884
  892MOL0     H17735   1.186   9.402   3.020  0.0939 -0.9283 -1.0768
  892MOL0     H17736   1.247   9.154   3.196  1.7876 -0.9241 -1.2559
  892MOL0     H17737   1.331   9.199   3.044  0.9429  0.1434  0.2714
  892MOL0     H17738   1.420   9.405   3.163 -0.9325  0.2660 -0.4982
  892MOL0     H17739   1.470   9.246   3.223 -1.5983 -2.1756 -0.3985
  892MOL0     H17740   1.424   9.426   3.389  0.5728  0.2924 -1.9308
  892MOL0     H17741   1.258   9.431   3.337 -0.2082 -0.9105 -1.1373
  892MOL0     H17742   1.299   9.127   3.638 -0.7632  0.5520  0.9621
  892MOL0     H17743   0.952   9.103   2.798 -0.4474 -0.1383  0.8862
  892MOL0     H17744   0.732   9.166   2.715  1.8990  1.6437 -1.8818
  893MOL0     O17745   3.811   7.229  11.131 -0.4267 -0.0390  0.4995
  893MOL0     C17746   3.917   7.292  11.135 -0.9681 -0.1457  0.1295
  893MOL0     O17747   3.930   7.435  11.127  0.1253  0.0912 -0.5186
  893MOL0     C17748   3.814   7.498  11.114  0.2328 -0.3252 -0.4352
  893MOL0     C17749   3.767   7.591  11.209 -0.0505  0.3052 -0.1352
  893MOL0     C17750   3.646   7.659  11.180  0.8047 -0.1189  0.1634
  893MOL0     C17751   3.572   7.638  11.061  0.2890  0.1272  0.9043
  893MOL0     O17752   3.453   7.687  11.018 -0.1161  0.2817 -0.4747
  893MOL0     C17753   3.391   7.776  11.118  0.0034 -0.1807 -0.4439
  893MOL0     C17754   3.245   7.778  11.081  0.1695 -0.0982 -0.1208
  893MOL0     C17755   3.167   7.894  11.157 -0.2004 -0.3942  0.0500
  893MOL0     C17756   3.017   7.865  11.148  0.4262 -0.3271 -0.3779
  893MOL0     C17757   2.941   7.951  11.255  0.8065  1.2193 -0.1452
  893MOL0     C17758   2.799   7.906  11.287  0.2782  0.0654 -0.4875
  893MOL0     C17759   2.734   8.000  11.384  0.6092 -0.8173  0.2476
  893MOL0     C17760   2.583   7.968  11.398  0.5426  0.1956  0.7884
  893MOL0     N17761   2.519   8.026  11.514  0.1570 -0.3915 -0.1253
  893MOL0     C17762   2.409   7.969  11.582 -0.2310 -0.7014  0.0916
  893MOL0     C17763   2.369   8.052  11.672  0.9974  0.5929  0.2895
  893MOL0     C17764   2.245   8.055  11.755  0.0926  0.2922 -0.7269
  893MOL0     C17765   2.126   8.077  11.661  0.1502 -0.3966 -0.2783
  893MOL0     C17766   1.995   8.080  11.740  0.3403 -0.2240 -0.1285
  893MOL0     C17767   1.873   8.117  11.654  0.0664  0.1942 -0.1284
  893MOL0     O17768   1.747   8.067  11.709  0.8377  0.9446 -0.4397
  893MOL0     C17769   1.711   8.100  11.835  0.0155  0.0311 -0.9815
  893MOL0     C17770   1.764   8.202  11.915  0.6429  0.8967 -0.1934
  893MOL0     C17771   1.708   8.215  12.043  0.0467  0.0269  0.5931
  893MOL0     C17772   1.591   8.146  12.086 -0.2662 -0.0459  0.4497
  893MOL0     C17773   1.540   8.155  12.222 -0.1419  0.9862 -0.5221
  893MOL0     O17774   1.419   8.099  12.249  0.2990 -0.5249 -0.9028
  893MOL0     C17775   1.362   8.069  12.370 -0.2305  0.2837  0.3986
  893MOL0     C17776   1.429   8.080  12.494 -0.0825 -0.2182  0.3988
  893MOL0     C17777   1.360   8.066  12.608  1.0665 -0.7327 -0.0539
  893MOL0     C17778   1.224   8.033  12.613  0.2520 -0.2528  0.5584
  893MOL0     O17779   1.149   8.003  12.726  0.0228 -0.8956 -0.3008
  893MOL0     C17780   1.193   8.014  12.856 -0.4821  0.7524  0.3742
  893MOL0     C17781   1.090   7.992  12.963 -0.5674  0.0216  0.1980
  893MOL0     C17782   1.151   7.938  13.087 -0.3290 -0.1905 -0.9049
  893MOL0     C17783   1.049   7.917  13.199  0.9444 -0.2587 -0.3595
  893MOL0     C17784   0.931   7.832  13.168  1.1124  1.0794  0.6910
  893MOL0     C17785   0.843   7.776  13.285  0.5271 -0.3425 -1.1191
  893MOL0     C17786   0.790   7.900  13.375 -0.8076  0.9991  0.0216
  893MOL0     C17787   0.671   7.866  13.463 -0.4936 -0.2232  0.2405
  893MOL0    Cl17788   0.606   8.021  13.528  0.3106 -0.3061 -0.3214
  893MOL0     C17789   1.152   8.024  12.491  0.0487 -0.3556 -1.0672
  893MOL0     C17790   1.220   8.039  12.372 -0.3137 -0.1133  0.1174
  893MOL0     O17791   1.608   8.214  12.309 -0.0281 -0.7110  0.6762
  893MOL0     C17792   1.534   8.052  12.001 -0.5297  0.2916  0.4162
  893MOL0     C17793   1.599   8.025  11.881  1.1091  1.3141 -0.3674
  893MOL0     N17794   2.450   8.164  11.672  0.5328  0.3335 -0.2829
  893MOL0     N17795   2.538   8.152  11.572 -0.1062 -0.1956 -0.7183
  893MOL0     C17796   3.630   7.560  10.964  0.9970  0.1463 -0.4203
  893MOL0     C17797   3.750   7.491  10.991 -1.3768  0.6907 -0.5193
  893MOL0     C17798   4.043   7.217  11.149  0.2836 -0.2463 -0.9333
  893MOL0     C17799   4.041   7.078  11.168 -0.3255 -0.6727 -0.5872
  893MOL0     C17800   4.157   7.002  11.187 -1.2688  0.3340  0.3465
  893MOL0     C17801   4.275   7.057  11.176 -0.6511 -0.3354 -0.2590
  893MOL0     O17802   4.393   6.998  11.209  1.0424 -0.0960  0.4468
  893MOL0     C17803   4.412   6.864  11.258  0.5237  0.5753 -0.6604
  893MOL0     C17804   4.384   6.752  11.157  0.6372 -0.1246 -0.1894
  893MOL0     C17805   4.457   6.761  11.026 -0.2672 -0.8438  0.6479
  893MOL0     C17806   4.602   6.716  11.036  0.4315 -0.8180  0.0119
  893MOL0     C17807   4.621   6.572  11.063 -0.3339  0.3679  0.0830
  893MOL0     C17808   4.666   6.463  11.070 -0.4789 -0.8857 -0.8017
  893MOL0     C17809   4.284   7.193  11.157  0.4607  0.1836  0.1227
  893MOL0     C17810   4.171   7.268  11.133  0.1600  0.0773  0.3720
  893MOL0     H17811   3.822   7.605  11.302 -1.8886 -0.0304  1.0559
  893MOL0     H17812   3.605   7.732  11.248  0.1324 -0.4475  0.1158
  893MOL0     H17813   3.431   7.878  11.108 -2.0445  0.6047 -1.2038
  893MOL0     H17814   3.407   7.747  11.223 -0.2485 -1.9619 -0.8642
  893MOL0     H17815   3.199   7.683  11.109 -0.3135  0.5546  1.4010
  893MOL0     H17816   3.226   7.788  10.974 -1.2843  0.0841  0.1348
  893MOL0     H17817   3.183   7.991  11.109  1.3624 -1.0591 -0.8346
  893MOL0     H17818   3.211   7.897  11.257  0.9188  0.0330 -0.4413
  893MOL0     H17819   2.971   7.889  11.052 -2.8314 -0.0059  1.1497
  893MOL0     H17820   2.991   7.763  11.179 -2.0297  0.2713 -0.2787
  893MOL0     H17821   2.943   8.057  11.229  1.7026  0.9106 -1.4539
  893MOL0     H17822   2.999   7.945  11.348 -0.3539 -3.0365  0.4982
  893MOL0     H17823   2.799   7.809  11.336 -0.4011  0.4095  0.2079
  893MOL0     H17824   2.735   7.899  11.198  0.5583 -2.9829 -0.5526
  893MOL0     H17825   2.777   7.981  11.483  0.3181 -2.2935  0.1169
  893MOL0     H17826   2.751   8.104  11.357 -3.5014 -0.3623 -1.3370
  893MOL0     H17827   2.566   7.860  11.401 -1.3392  0.4757  1.1539
  893MOL0     H17828   2.537   7.996  11.303  0.0419 -0.3997  0.8472
  893MOL0     H17829   2.366   7.871  11.564  2.0826 -1.2533 -3.3531
  893MOL0     H17830   2.249   8.130  11.834  2.4985  1.0885 -1.5233
  893MOL0     H17831   2.222   7.956  11.795 -1.6334  0.4419 -1.2560
  893MOL0     H17832   2.101   7.995  11.592 -0.1606 -1.3033  0.8770
  893MOL0     H17833   2.128   8.167  11.598 -3.0490  0.3757  0.5511
  893MOL0     H17834   1.976   7.984  11.788  1.8091  0.7215  2.5317
  893MOL0     H17835   2.006   8.153  11.821  0.1090  1.2226 -1.3589
  893MOL0     H17836   1.889   8.078  11.553 -0.0872 -0.2278  0.0062
  893MOL0     H17837   1.863   8.226  11.652 -0.8560  0.2328  2.4670
  893MOL0     H17838   1.841   8.270  11.881 -0.0585  1.7886 -0.0319
  893MOL0     H17839   1.761   8.280  12.112  1.6081  1.5141 -1.8787
  893MOL0     H17840   1.536   8.098  12.495 -0.1603  0.4142 -0.5999
  893MOL0     H17841   1.408   8.063  12.705 -2.2284  1.8565  1.8468
  893MOL0     H17842   1.252   8.104  12.874  1.1808 -0.4033  0.9088
  893MOL0     H17843   1.267   7.934  12.868  0.5413  1.9046  2.0945
  893MOL0     H17844   1.024   7.916  12.919  0.3390  0.9279 -3.0101
  893MOL0     H17845   1.041   8.085  12.991  0.5451  0.5077  0.5930
  893MOL0     H17846   1.226   8.001  13.137 -0.7784  0.8569 -1.5279
  893MOL0     H17847   1.202   7.844  13.065 -1.2159 -1.1765  0.9723
  893MOL0     H17848   1.103   7.871  13.282  0.4071  0.0740  0.1843
  893MOL0     H17849   1.027   8.021  13.228  2.3300  0.0217 -0.2218
  893MOL0     H17850   0.975   7.745  13.118  0.5157  2.3723 -2.2593
  893MOL0     H17851   0.853   7.872  13.102 -0.0279 -4.2106 -1.7248
  893MOL0     H17852   0.903   7.704  13.343  0.4432 -0.7509 -1.5299
  893MOL0     H17853   0.760   7.713  13.251  1.7377 -0.6938 -3.7419
  893MOL0     H17854   0.868   7.921  13.448  0.1577  2.3831 -1.3387
  893MOL0     H17855   0.779   7.992  13.315 -0.8197 -0.3844 -2.2336
  893MOL0     H17856   0.708   7.808  13.548 -0.2972 -1.5051 -0.6920
  893MOL0     H17857   0.594   7.820  13.400 -0.6591  3.6369 -2.7505
  893MOL0     H17858   1.044   8.016  12.496 -0.1714  1.6848 -1.5608
  893MOL0     H17859   1.164   8.046  12.279  0.7796  0.5973 -0.5072
  893MOL0     H17860   1.443   7.995  12.021 -0.6084  1.0705  2.6240
  893MOL0     H17861   1.573   7.940  11.819  0.1806  1.8330 -0.6995
  893MOL0     H17862   3.586   7.542  10.866  0.8502  1.8163 -0.6868
  893MOL0     H17863   3.796   7.422  10.922  2.9941 -0.4257  3.0604
  893MOL0     H17864   3.951   7.018  11.175  0.1394 -1.2884  0.3275
  893MOL0     H17865   4.139   6.896  11.201  0.4527  0.1497  1.4172
  893MOL0     H17866   4.337   6.849  11.337 -0.4112  0.8816 -1.4758
  893MOL0     H17867   4.515   6.859  11.296 -0.6153  1.1353  2.8491
  893MOL0     H17868   4.398   6.655  11.205 -4.0060 -0.8457  0.2149
  893MOL0     H17869   4.280   6.760  11.124  1.1969 -0.1749 -2.0685
  893MOL0     H17870   4.442   6.865  10.995  1.8131 -0.8584 -0.5676
  893MOL0     H17871   4.409   6.711  10.942 -0.8991  0.4894  0.1899
  893MOL0     H17872   4.646   6.744  10.940 -1.5144 -0.7398 -0.9129
  893MOL0     H17873   4.651   6.777  11.113 -0.3547  1.6978 -1.3687
  893MOL0     H17874   4.701   6.363  11.082 -1.3648 -1.4584 -2.6479
  893MOL0     H17875   4.380   7.244  11.148  0.9263 -0.9791 -2.4926
  893MOL0     H17876   4.188   7.368  11.094 -0.5696 -0.7113 -2.1812
  894MOL0     O17877   1.044   8.540   5.678 -0.6249  0.0598  0.2163
  894MOL0     C17878   1.058   8.641   5.611 -0.7798  0.3298  0.8386
  894MOL0     O17879   0.968   8.699   5.531 -0.5206  0.0356  0.0920
  894MOL0     C17880   0.845   8.631   5.516  0.3709  0.4188  0.8428
  894MOL0     C17881   0.823   8.510   5.442 -0.0491  0.2993 -0.3944
  894MOL0     C17882   0.703   8.445   5.439 -0.4282 -0.1549 -0.0037
  894MOL0     C17883   0.593   8.517   5.484 -0.6350 -0.0638 -0.2977
  894MOL0     O17884   0.467   8.461   5.471 -0.1766  0.8076  0.3655
  894MOL0     C17885   0.452   8.310   5.488 -0.3991  0.3293  1.1310
  894MOL0     C17886   0.322   8.272   5.568  0.1840 -0.2347 -0.5375
  894MOL0     C17887   0.196   8.321   5.492  0.1880  1.1419 -1.3848
  894MOL0     C17888   0.065   8.280   5.576  0.4751  0.9136  0.3140
  894MOL0     C17889  -0.053   8.350   5.508  0.3477 -1.1127  0.0245
  894MOL0     C17890  -0.120   8.449   5.599 -0.9280  0.1948 -1.3942
  894MOL0     C17891  -0.244   8.499   5.536 -0.2993 -0.0898 -0.3154
  894MOL0     C17892  -0.322   8.583   5.644 -0.4726 -0.8000  0.9875
  894MOL0     N17893  -0.460   8.604   5.599 -0.5668  0.3632  0.7488
  894MOL0     C17894  -0.519   8.676   5.497 -0.5155 -0.9281 -0.5083
  894MOL0     C17895  -0.648   8.638   5.494 -0.0357  0.7577  0.7633
  894MOL0     C17896  -0.744   8.683   5.393  0.5145 -0.0316  0.0858
  894MOL0     C17897  -0.828   8.800   5.447 -0.6407  0.0577 -0.9964
  894MOL0     C17898  -0.927   8.838   5.340 -0.6664  0.1773  0.4026
  894MOL0     C17899  -1.010   8.952   5.395  0.4459  0.5151 -0.3396
  894MOL0     O17900  -1.084   8.911   5.509  0.3346  0.7962 -0.5487
  894MOL0     C17901  -1.210   8.961   5.517  0.3174 -0.1443 -0.2933
  894MOL0     C17902  -1.320   8.869   5.514  0.3305  0.2807  0.2336
  894MOL0     C17903  -1.458   8.915   5.548 -0.7153 -0.3737  0.4442
  894MOL0     C17904  -1.480   9.058   5.572 -0.6512  0.2057  0.3846
  894MOL0     C17905  -1.616   9.103   5.596 -0.5363 -0.7633 -0.0217
  894MOL0     O17906  -1.625   9.238   5.581 -0.7921 -0.1905  0.2305
  894MOL0     C17907  -1.743   9.305   5.575 -0.1348 -0.3089  0.0762
  894MOL0     C17908  -1.873   9.260   5.544 -0.4053 -0.2887 -1.3973
  894MOL0     C17909  -1.977   9.349   5.522  0.3563  0.3781 -0.1002
  894MOL0     C17910  -1.964   9.488   5.525 -0.6066 -0.2815  0.0581
  894MOL0     O17911  -2.065   9.581   5.510 -0.6744  0.8953  0.4218
  894MOL0     C17912  -2.186   9.554   5.447 -0.2309  0.2130 -0.0313
  894MOL0     C17913  -2.300   9.492   5.534 -0.3770  0.2470  0.0295
  894MOL0     C17914  -2.285   9.531   5.683 -0.9154 -0.8845 -0.2703
  894MOL0     C17915  -2.399   9.472   5.765  0.0135  0.0910  0.9449
  894MOL0     C17916  -2.399   9.533   5.900  0.1151 -0.0409  0.7298
  894MOL0     C17917  -2.491   9.454   5.996  0.0870  0.3035 -0.1356
  894MOL0     C17918  -2.500   9.512   6.125 -0.1739  0.1545  0.0450
  894MOL0     C17919  -2.570   9.419   6.227 -0.0911  0.7100  0.7424
  894MOL0    Cl17920  -2.615   9.503   6.371  0.0374 -0.0357 -0.3165
  894MOL0     C17921  -1.845   9.535   5.577 -0.0087  0.5686 -0.0285
  894MOL0     C17922  -1.736   9.448   5.600 -1.0037  0.1771 -0.2169
  894MOL0     O17923  -1.698   9.025   5.638 -1.3644  0.3485  0.2097
  894MOL0     C17924  -1.363   9.142   5.562  0.7439  0.2763  0.2722
  894MOL0     C17925  -1.238   9.093   5.525  0.0111 -0.1471 -0.0338
  894MOL0     N17926  -0.668   8.547   5.599 -0.1245 -0.6222  0.3952
  894MOL0     N17927  -0.554   8.542   5.668 -0.0495 -1.0095  0.2118
  894MOL0     C17928   0.606   8.636   5.557  0.3143 -0.6474  0.1807
  894MOL0     C17929   0.736   8.687   5.575  0.5338  0.3461 -0.4793
  894MOL0     C17930   1.194   8.705   5.617 -0.0737 -0.4513  0.5566
  894MOL0     C17931   1.282   8.677   5.714  0.0966  0.0993  0.4707
  894MOL0     C17932   1.416   8.721   5.714 -0.5731  0.0504 -0.0122
  894MOL0     C17933   1.459   8.802   5.613 -0.2771  0.6286 -0.7350
  894MOL0     O17934   1.586   8.847   5.619 -0.0803  0.6425 -0.9124
  894MOL0     C17935   1.628   8.964   5.545 -0.4095  0.0287 -0.3625
  894MOL0     C17936   1.706   8.930   5.419 -0.6964 -0.2028  0.2947
  894MOL0     C17937   1.742   9.046   5.329 -0.3311  0.4412 -0.4464
  894MOL0     C17938   1.859   9.143   5.359  0.6501  1.1704 -0.1870
  894MOL0     C17939   1.989   9.077   5.363  0.3434 -0.6309 -0.0397
  894MOL0     C17940   2.093   9.014   5.356 -0.5576  0.6182 -1.1188
  894MOL0     C17941   1.364   8.844   5.512  0.2809 -0.1451  0.2142
  894MOL0     C17942   1.240   8.787   5.516  0.1736  0.2191  0.1119
  894MOL0     H17943   0.904   8.453   5.397  0.0777  0.5674 -0.5118
  894MOL0     H17944   0.689   8.346   5.398  0.9726 -1.4530  2.3836
  894MOL0     H17945   0.539   8.278   5.547  1.0909 -0.6710 -1.4303
  894MOL0     H17946   0.458   8.264   5.389  1.4266  0.2819  1.2155
  894MOL0     H17947   0.324   8.319   5.666  0.2183 -1.7885  0.2397
  894MOL0     H17948   0.309   8.165   5.583 -2.5153  0.2024  0.8096
  894MOL0     H17949   0.193   8.264   5.399 -1.2708 -0.0642 -0.6543
  894MOL0     H17950   0.195   8.427   5.465 -1.2770  1.3035 -0.8000
  894MOL0     H17951   0.059   8.171   5.574 -1.2121  0.9884 -0.0678
  894MOL0     H17952   0.071   8.313   5.680  0.0073 -1.7028  1.2306
  894MOL0     H17953  -0.127   8.273   5.483 -0.5624  0.3315 -2.0047
  894MOL0     H17954  -0.023   8.403   5.417 -0.0765  1.4001  1.2618
  894MOL0     H17955  -0.051   8.532   5.616  0.7409 -1.1793 -1.1568
  894MOL0     H17956  -0.152   8.398   5.691  0.1922  2.0768  0.1304
  894MOL0     H17957  -0.227   8.560   5.446  0.9128 -1.9576 -1.4196
  894MOL0     H17958  -0.304   8.414   5.503  0.3306 -0.0144 -1.7449
  894MOL0     H17959  -0.269   8.677   5.656  2.0139 -1.8572 -0.8246
  894MOL0     H17960  -0.337   8.535   5.742  1.2378 -0.3306  1.5147
  894MOL0     H17961  -0.470   8.731   5.417 -0.7494 -0.3206 -0.2411
  894MOL0     H17962  -0.804   8.598   5.361 -0.2901  1.0419 -1.3981
  894MOL0     H17963  -0.696   8.721   5.302  1.6231  0.2037  0.7493
  894MOL0     H17964  -0.756   8.880   5.467  0.0432 -0.8859  0.4338
  894MOL0     H17965  -0.870   8.764   5.541  0.2042 -2.5046 -1.5320
  894MOL0     H17966  -0.871   8.859   5.248  0.9034  0.6621  1.4393
  894MOL0     H17967  -0.991   8.752   5.315 -0.4698  0.3635 -0.7982
  894MOL0     H17968  -1.082   8.978   5.317 -0.0177 -0.9935 -0.4350
  894MOL0     H17969  -0.952   9.030   5.446  0.5895  0.1826  0.0062
  894MOL0     H17970  -1.295   8.766   5.493 -1.4213  0.4378 -3.2196
  894MOL0     H17971  -1.539   8.843   5.552 -0.0567 -1.2393 -0.9858
  894MOL0     H17972  -1.902   9.157   5.525  0.1510 -0.4965 -1.1512
  894MOL0     H17973  -2.073   9.303   5.499 -0.1955 -0.1816  2.8224
  894MOL0     H17974  -2.167   9.492   5.359 -0.5764 -2.4768  1.6773
  894MOL0     H17975  -2.212   9.652   5.406 -0.4457  0.1875  0.0439
  894MOL0     H17976  -2.305   9.383   5.538  0.7500  0.0351 -2.5708
  894MOL0     H17977  -2.396   9.517   5.488 -0.2618 -0.3073 -0.5277
  894MOL0     H17978  -2.283   9.640   5.687  2.2715 -0.8719  2.5711
  894MOL0     H17979  -2.190   9.501   5.728  0.4234  1.7945 -1.1335
  894MOL0     H17980  -2.488   9.493   5.703  0.5582 -1.2377 -0.3576
  894MOL0     H17981  -2.405   9.364   5.775 -3.0530  0.1976  1.3927
  894MOL0     H17982  -2.440   9.634   5.888  0.3386 -0.1050 -0.7501
  894MOL0     H17983  -2.300   9.538   5.947 -1.2723  1.1684  3.7890
  894MOL0     H17984  -2.441   9.357   6.002 -0.4052 -0.0383 -1.1796
  894MOL0     H17985  -2.591   9.443   5.952  0.4199 -1.9658 -0.4230
  894MOL0     H17986  -2.402   9.546   6.160  0.5322 -2.1945  0.4764
  894MOL0     H17987  -2.571   9.594   6.109 -0.3215  0.2767  1.2561
  894MOL0     H17988  -2.505   9.335   6.256  0.7390  0.2621 -2.0850
  894MOL0     H17989  -2.660   9.377   6.182 -0.9908  2.0996  1.1878
  894MOL0     H17990  -1.844   9.643   5.587 -1.4977  0.6182 -0.0609
  894MOL0     H17991  -1.642   9.486   5.639 -0.7830 -1.7013  1.2297
  894MOL0     H17992  -1.379   9.249   5.563  0.6751  0.4088 -2.9833
  894MOL0     H17993  -1.156   9.162   5.507  1.7803 -1.6203  1.9308
  894MOL0     H17994   0.521   8.681   5.608 -0.6409 -2.1122 -0.0604
  894MOL0     H17995   0.737   8.773   5.641 -1.8888 -0.7613  1.1541
  894MOL0     H17996   1.249   8.614   5.795 -1.0851 -1.2516 -1.0171
  894MOL0     H17997   1.483   8.679   5.789  0.5605 -1.4129 -1.7532
  894MOL0     H17998   1.686   9.026   5.614 -5.4078  1.5665  3.0126
  894MOL0     H17999   1.538   9.023   5.524  0.9169  1.4883 -2.3401
  894MOL0     H18000   1.790   8.872   5.455 -0.5840  0.5145  1.2374
  894MOL0     H18001   1.649   8.864   5.353  1.3435 -3.4706  1.6102
  894MOL0     H18002   1.660   9.118   5.321  2.6727  4.2368 -0.0264
  894MOL0     H18003   1.760   9.003   5.230 -0.2506  2.4998 -1.3742
  894MOL0     H18004   1.869   9.222   5.284 -0.2144  0.8234 -0.6769
  894MOL0     H18005   1.847   9.188   5.459 -0.4392 -0.9721  0.7088
  894MOL0     H18006   2.179   8.949   5.366 -1.9393 -1.2964 -1.1000
  894MOL0     H18007   1.390   8.914   5.433 -0.6054 -1.7606 -1.5913
  894MOL0     H18008   1.180   8.808   5.427 -0.9927  1.2707  1.1048
  895MOL0     O18009  10.045   8.097   1.160  0.1890  0.1317  0.3550
  895MOL0     C18010  10.106   8.005   1.213  0.0844  0.1576  0.5514
  895MOL0     O18011  10.045   7.890   1.274  0.4182 -0.1636 -0.5746
  895MOL0     C18012   9.909   7.876   1.255  0.1606  0.8301  0.3040
  895MOL0     C18013   9.853   7.765   1.191 -0.4618  0.2843  0.3253
  895MOL0     C18014   9.716   7.743   1.188  0.8243  0.5914  0.6235
  895MOL0     C18015   9.633   7.833   1.263  0.3890 -0.4940 -0.3507
  895MOL0     O18016   9.497   7.814   1.285 -0.7273  0.6062  0.3598
  895MOL0     C18017   9.416   7.729   1.189  0.0825  0.5376 -0.1056
  895MOL0     C18018   9.384   7.589   1.251 -0.3308 -0.8098  0.1877
  895MOL0     C18019   9.261   7.608   1.346 -0.0327  0.5821 -0.0274
  895MOL0     C18020   9.205   7.474   1.399 -0.2156  0.7417 -0.4614
  895MOL0     C18021   9.077   7.495   1.488 -0.1091  0.3736 -0.0179
  895MOL0     C18022   9.050   7.378   1.579 -0.4168 -0.1112 -0.6894
  895MOL0     C18023   9.111   7.385   1.718 -0.1654  0.0476  0.3848
  895MOL0     C18024   9.025   7.450   1.820 -0.3191  0.0215  0.2199
  895MOL0     N18025   8.892   7.394   1.845  0.2714  0.3036  0.9944
  895MOL0     C18026   8.775   7.461   1.808 -0.7390 -0.1949 -0.1459
  895MOL0     C18027   8.666   7.380   1.841  0.1264 -0.3300  0.2030
  895MOL0     C18028   8.520   7.418   1.816 -0.4032  0.0465 -1.1490
  895MOL0     C18029   8.493   7.468   1.674 -0.2826 -0.0408  0.3078
  895MOL0     C18030   8.367   7.550   1.660 -0.2792  0.5171  0.0857
  895MOL0     C18031   8.236   7.466   1.657 -0.9279  0.0789 -0.5801
  895MOL0     O18032   8.128   7.553   1.606 -0.2846 -0.4256 -0.6437
  895MOL0     C18033   8.004   7.497   1.607  0.7267 -0.0067 -0.1943
  895MOL0     C18034   7.971   7.358   1.606  0.5386  0.0580  0.7750
  895MOL0     C18035   7.834   7.317   1.596  0.2690 -0.2006 -0.5126
  895MOL0     C18036   7.730   7.413   1.592  0.6853  0.1001  0.2546
  895MOL0     C18037   7.592   7.367   1.589  0.1513  0.5248  0.3212
  895MOL0     O18038   7.503   7.472   1.597 -0.1221  0.2276 -0.8312
  895MOL0     C18039   7.365   7.447   1.563 -0.1414 -0.8764  0.5099
  895MOL0     C18040   7.291   7.336   1.602 -0.2109 -0.2137  0.0889
  895MOL0     C18041   7.147   7.347   1.615  0.0897  0.0117 -0.2940
  895MOL0     C18042   7.092   7.462   1.562 -0.3756 -0.1891  0.3404
  895MOL0     O18043   6.957   7.490   1.586 -0.0664  1.0286 -0.1467
  895MOL0     C18044   6.872   7.409   1.505 -0.3663  0.4859  0.0865
  895MOL0     C18045   6.727   7.458   1.499 -0.7117  0.2056 -0.2734
  895MOL0     C18046   6.641   7.370   1.409 -0.1090 -0.6495 -0.0022
  895MOL0     C18047   6.492   7.382   1.434  0.0721 -0.8569 -0.1529
  895MOL0     C18048   6.410   7.282   1.344  0.0115  0.4817  0.2550
  895MOL0     C18049   6.258   7.288   1.368  0.1959 -0.5970  0.9330
  895MOL0     C18050   6.197   7.408   1.295  0.7157 -0.1876  0.4998
  895MOL0     C18051   6.045   7.404   1.321 -0.4393  0.5931  0.4179
  895MOL0    Cl18052   5.960   7.265   1.252 -0.1324  0.2189  0.1423
  895MOL0     C18053   7.163   7.565   1.501 -0.0024  0.5596  0.3987
  895MOL0     C18054   7.300   7.554   1.503 -0.2711 -0.3679  0.4118
  895MOL0     O18055   7.574   7.252   1.544 -0.2427 -0.0263 -0.0308
  895MOL0     C18056   7.764   7.546   1.581  0.8081 -0.7045 -0.0048
  895MOL0     C18057   7.899   7.585   1.596  1.0708 -0.1404 -0.0613
  895MOL0     N18058   8.718   7.263   1.889 -0.1748 -0.5099  0.5379
  895MOL0     N18059   8.849   7.268   1.874 -0.4420  0.6614  0.3040
  895MOL0     C18060   9.687   7.937   1.327 -0.2850  0.1835 -0.5000
  895MOL0     C18061   9.822   7.960   1.318  0.1713 -0.1979  0.3983
  895MOL0     C18062  10.267   8.006   1.199  0.0874  0.2183  0.3394
  895MOL0     C18063  10.346   8.112   1.145  1.2419 -0.4845 -0.0038
  895MOL0     C18064  10.485   8.116   1.139  0.1880  0.1062 -0.1100
  895MOL0     C18065  10.556   8.011   1.196 -0.0199  0.4746  0.4331
  895MOL0     O18066  10.690   7.995   1.203 -0.6525 -0.2482  0.4830
  895MOL0     C18067  10.779   8.109   1.158 -0.4105  0.1018 -1.0702
  895MOL0     C18068  10.810   8.109   1.010  0.1097  0.0772  0.3802
  895MOL0     C18069  10.942   8.059   0.972 -0.3999 -0.3345 -0.2620
  895MOL0     C18070  10.936   7.906   0.975  0.7839  0.5583  0.5540
  895MOL0     C18071  11.056   7.857   0.899 -0.0442 -0.4731 -0.8345
  895MOL0     C18072  11.146   7.817   0.827 -0.5034 -0.0118  0.0293
  895MOL0     C18073  10.482   7.903   1.246 -0.0567 -0.9904 -0.8479
  895MOL0     C18074  10.339   7.894   1.247 -0.5320 -0.7091  0.2501
  895MOL0     H18075   9.912   7.697   1.131  0.4428 -0.2629  1.8002
  895MOL0     H18076   9.685   7.650   1.143  0.8214 -0.0096  1.8119
  895MOL0     H18077   9.468   7.717   1.093 -1.7003 -3.1942 -0.8056
  895MOL0     H18078   9.321   7.778   1.165 -0.2649 -1.2345 -2.7604
  895MOL0     H18079   9.467   7.545   1.307  0.5273 -0.6957 -0.9708
  895MOL0     H18080   9.364   7.517   1.172 -1.5945 -2.1144  1.6281
  895MOL0     H18081   9.181   7.661   1.294 -0.9789  0.3143  1.0945
  895MOL0     H18082   9.298   7.664   1.433  1.1027 -3.5514  2.4411
  895MOL0     H18083   9.179   7.407   1.318  2.5647 -0.3550 -0.5548
  895MOL0     H18084   9.289   7.428   1.452  0.2732  2.8009  0.7000
  895MOL0     H18085   8.988   7.521   1.429  2.2477  2.7351 -2.8438
  895MOL0     H18086   9.094   7.586   1.546  1.4368  0.1814 -0.1430
  895MOL0     H18087   9.080   7.280   1.539 -0.2625 -0.7619  0.9506
  895MOL0     H18088   8.942   7.363   1.591 -0.3840  0.5716  0.6129
  895MOL0     H18089   9.126   7.285   1.761  1.0094  0.3358  0.6656
  895MOL0     H18090   9.212   7.425   1.710  0.5574 -2.0040 -2.0849
  895MOL0     H18091   9.012   7.558   1.803 -0.8039 -0.3155 -1.7951
  895MOL0     H18092   9.081   7.435   1.912  3.5117 -0.9634 -2.0542
  895MOL0     H18093   8.755   7.563   1.775  0.2055  0.0800  0.0950
  895MOL0     H18094   8.501   7.500   1.886 -0.2858 -2.2281  1.7711
  895MOL0     H18095   8.449   7.337   1.839  0.5830  0.0199  2.5162
  895MOL0     H18096   8.488   7.383   1.605 -3.1832  2.0838 -2.4004
  895MOL0     H18097   8.572   7.536   1.638 -1.5133  1.7085  0.7996
  895MOL0     H18098   8.371   7.626   1.739  0.9534  0.0456  0.5201
  895MOL0     H18099   8.368   7.614   1.572 -0.1439  1.8029  1.0029
  895MOL0     H18100   8.203   7.431   1.755 -0.4070 -0.5735 -0.6255
  895MOL0     H18101   8.252   7.382   1.588 -0.5008 -0.0404 -0.3418
  895MOL0     H18102   8.040   7.277   1.624  0.0333 -0.4485  0.4899
  895MOL0     H18103   7.812   7.211   1.592  1.5127 -0.6627  2.1246
  895MOL0     H18104   7.347   7.257   1.649  1.4368  0.2923 -0.9443
  895MOL0     H18105   7.075   7.284   1.666 -0.4101  1.3057  0.6571
  895MOL0     H18106   6.876   7.311   1.554  3.4124  0.9910  1.0932
  895MOL0     H18107   6.907   7.394   1.403  0.9752 -2.6291  0.8728
  895MOL0     H18108   6.727   7.563   1.470  0.5557 -0.8806 -5.1054
  895MOL0     H18109   6.680   7.461   1.598  0.3325 -0.7403  0.2851
  895MOL0     H18110   6.682   7.269   1.418 -0.1280 -0.7497 -1.0123
  895MOL0     H18111   6.665   7.402   1.308  0.8184 -4.1484 -1.0282
  895MOL0     H18112   6.490   7.353   1.540 -2.5548  0.7606  0.3354
  895MOL0     H18113   6.460   7.485   1.421  2.2989 -0.2027 -0.8939
  895MOL0     H18114   6.444   7.179   1.362 -1.3297  0.2758  1.9067
  895MOL0     H18115   6.430   7.292   1.237 -0.5137  0.6466  0.1710
  895MOL0     H18116   6.227   7.288   1.473  0.4318 -1.2805  1.0111
  895MOL0     H18117   6.218   7.191   1.336 -1.4992 -0.1148  1.5125
  895MOL0     H18118   6.241   7.501   1.330 -1.8951  1.7846 -1.0767
  895MOL0     H18119   6.216   7.399   1.188 -1.0708 -1.8619  0.2616
  895MOL0     H18120   6.011   7.495   1.270  1.6022  0.5852 -1.0945
  895MOL0     H18121   6.025   7.409   1.428  0.1114  0.8139  0.5152
  895MOL0     H18122   7.111   7.655   1.470  0.8425  0.8710 -0.1652
  895MOL0     H18123   7.365   7.634   1.468 -1.9276  1.3273  1.0300
  895MOL0     H18124   7.686   7.619   1.567  0.3676 -0.8125  1.7095
  895MOL0     H18125   7.935   7.687   1.591 -0.5418  0.5246  0.9497
  895MOL0     H18126   9.628   8.001   1.392  1.2910 -1.1698  2.4676
  895MOL0     H18127   9.860   8.032   1.389  1.6520 -1.1480  0.6190
  895MOL0     H18128  10.286   8.196   1.111 -2.1385 -2.0870  1.5539
  895MOL0     H18129  10.534   8.200   1.091 -1.2541 -0.0021 -1.8904
  895MOL0     H18130  10.874   8.115   1.211 -0.3829 -1.1021 -0.9491
  895MOL0     H18131  10.738   8.205   1.192 -0.2369  0.7280 -2.5498
  895MOL0     H18132  10.723   8.072   0.955  0.2161  0.3057  0.0529
  895MOL0     H18133  10.818   8.213   0.977  0.0082 -0.7419 -2.4535
  895MOL0     H18134  11.025   8.090   1.037  1.2630 -1.3090 -1.8196
  895MOL0     H18135  10.973   8.092   0.872  2.2981  0.8458  0.8638
  895MOL0     H18136  10.936   7.871   1.079  1.3525 -0.8656  0.1052
  895MOL0     H18137  10.851   7.864   0.921 -0.4681  2.1757  1.1824
  895MOL0     H18138  11.232   7.792   0.768  1.3609  2.2306  1.5814
  895MOL0     H18139  10.523   7.818   1.300  1.4565  0.2549  0.0827
  895MOL0     H18140  10.279   7.811   1.283 -1.0018 -0.4649  0.0542
  896MOL0     O18141   4.818   3.245   9.760  0.9943  0.0991  0.0711
  896MOL0     C18142   4.873   3.173   9.675 -0.3130  0.1311  0.6854
  896MOL0     O18143   4.807   3.097   9.583 -0.5501  0.1936 -0.3623
  896MOL0     C18144   4.673   3.114   9.579 -0.5377 -0.2433  0.4706
  896MOL0     C18145   4.613   3.240   9.566  1.1117  0.4712 -0.9510
  896MOL0     C18146   4.474   3.249   9.544  0.1051 -0.4384  0.2023
  896MOL0     C18147   4.391   3.133   9.541 -0.2779 -0.5432  0.2036
  896MOL0     O18148   4.257   3.124   9.514  0.5533 -0.3035 -0.7465
  896MOL0     C18149   4.183   3.227   9.444  0.4854  0.0428  0.1059
  896MOL0     C18150   4.045   3.172   9.398  0.0953  0.2329  0.5154
  896MOL0     C18151   3.975   3.269   9.300 -0.3581 -0.2796  0.1544
  896MOL0     C18152   3.855   3.200   9.228  0.6020 -0.5236 -0.4269
  896MOL0     C18153   3.725   3.204   9.306  0.8593  0.4297 -0.4243
  896MOL0     C18154   3.714   3.090   9.406  0.2340  0.4832  1.5189
  896MOL0     C18155   3.573   3.066   9.455  0.0192  0.3951  0.9395
  896MOL0     C18156   3.568   2.953   9.560 -0.3376  0.2752 -0.1730
  896MOL0     N18157   3.426   2.929   9.582  0.1706 -0.0103  0.1837
  896MOL0     C18158   3.327   2.926   9.490 -0.0748  0.2013  0.0182
  896MOL0     C18159   3.213   2.946   9.561  0.3254 -0.0830  0.2145
  896MOL0     C18160   3.077   2.975   9.508  0.2727 -1.0037  0.4570
  896MOL0     C18161   2.966   2.942   9.611 -0.2905  0.4576  0.6250
  896MOL0     C18162   2.823   2.983   9.561  0.1115  0.0034  0.5975
  896MOL0     C18163   2.713   2.973   9.659  0.7986 -0.0693 -0.3874
  896MOL0     O18164   2.697   2.833   9.706  0.1397  0.2889 -1.0349
  896MOL0     C18165   2.569   2.799   9.747 -0.2304 -0.2446  0.6834
  896MOL0     C18166   2.462   2.883   9.772 -0.3317  0.1135  0.7944
  896MOL0     C18167   2.334   2.843   9.805 -0.5352 -0.5874 -0.5537
  896MOL0     C18168   2.307   2.708   9.804  0.3596  0.2591 -0.3970
  896MOL0     C18169   2.169   2.663   9.845 -0.1783  0.4063  0.0472
  896MOL0     O18170   2.066   2.759   9.867  0.0369 -0.0019 -0.8148
  896MOL0     C18171   1.936   2.716   9.872  0.0328  0.4552  0.5468
  896MOL0     C18172   1.846   2.783   9.780  0.6102 -0.3507  0.5703
  896MOL0     C18173   1.708   2.759   9.785  0.3364  0.4691 -0.3071
  896MOL0     C18174   1.655   2.660   9.874  0.0085 -0.3348  0.3655
  896MOL0     O18175   1.527   2.625   9.860 -0.2295  0.9369  0.1569
  896MOL0     C18176   1.509   2.529   9.748  0.3257 -0.2098  0.5679
  896MOL0     C18177   1.372   2.545   9.686  0.1879 -0.5191 -0.0037
  896MOL0     C18178   1.266   2.534   9.795  0.9611  0.4942 -0.4548
  896MOL0     C18179   1.126   2.495   9.729 -0.0585 -0.2440 -0.6123
  896MOL0     C18180   1.013   2.545   9.833 -0.6372  0.2492 -0.3658
  896MOL0     C18181   1.020   2.692   9.860  0.0323 -0.2200  0.3306
  896MOL0     C18182   0.894   2.730   9.925  0.6814 -0.0286  0.1439
  896MOL0     C18183   0.911   2.861   9.990 -0.6545 -0.1847 -0.4573
  896MOL0    Cl18184   0.763   2.901  10.092  0.1775  0.3650  0.4089
  896MOL0     C18185   1.739   2.607   9.966 -0.8439  1.1083 -0.7741
  896MOL0     C18186   1.881   2.629   9.972 -1.3500 -0.1788  0.3467
  896MOL0     O18187   2.152   2.541   9.836 -0.1355  0.2154 -0.0197
  896MOL0     C18188   2.416   2.619   9.782  0.1447  0.6547  0.6407
  896MOL0     C18189   2.543   2.665   9.751 -0.8374 -0.2328  1.1464
  896MOL0     N18190   3.247   2.945   9.692 -0.1560  0.1927  0.3690
  896MOL0     N18191   3.370   2.927   9.704  0.1189 -0.8028 -0.2907
  896MOL0     C18192   4.456   3.013   9.559 -0.0939  0.5334  0.3340
  896MOL0     C18193   4.593   3.004   9.570  0.3231 -0.3372 -0.7924
  896MOL0     C18194   5.020   3.179   9.683  0.1399 -0.4813  0.4799
  896MOL0     C18195   5.104   3.077   9.638  0.2956 -0.8792  0.4117
  896MOL0     C18196   5.244   3.092   9.652  0.2950  0.1338 -0.5149
  896MOL0     C18197   5.293   3.199   9.725 -0.5089 -0.2038 -0.4690
  896MOL0     O18198   5.427   3.217   9.750 -0.0786  0.3808  0.9835
  896MOL0     C18199   5.528   3.135   9.678  0.5963  1.1001 -0.0281
  896MOL0     C18200   5.670   3.190   9.706  0.2953  0.0572  0.1759
  896MOL0     C18201   5.683   3.336   9.693  0.8419 -0.8009  0.1204
  896MOL0     C18202   5.826   3.380   9.730 -0.2292  0.7039 -0.6837
  896MOL0     C18203   5.921   3.318   9.638 -0.9037 -0.2765  0.4402
  896MOL0     C18204   5.995   3.265   9.558  0.3128 -0.0526  0.4937
  896MOL0     C18205   5.219   3.290   9.785 -0.0282 -0.1175 -0.1826
  896MOL0     C18206   5.080   3.288   9.758 -0.1939 -0.3962 -0.0746
  896MOL0     H18207   4.676   3.328   9.572 -1.8673  2.8030 -1.7515
  896MOL0     H18208   4.436   3.350   9.536  4.1784  1.2365 -0.4756
  896MOL0     H18209   4.221   3.258   9.347 -3.6118  3.2154 -0.7823
  896MOL0     H18210   4.173   3.316   9.506 -1.8353  0.9016 -1.3748
  896MOL0     H18211   3.986   3.157   9.489 -1.0845  0.3212 -0.2024
  896MOL0     H18212   4.062   3.074   9.355  0.3624  0.5174 -0.0349
  896MOL0     H18213   4.050   3.288   9.223 -0.7657  0.5315 -0.0559
  896MOL0     H18214   3.955   3.365   9.349  1.3885 -0.8524  2.1612
  896MOL0     H18215   3.844   3.264   9.140 -1.1097  0.9743  0.8102
  896MOL0     H18216   3.877   3.097   9.198 -0.1324 -0.4880 -1.1354
  896MOL0     H18217   3.643   3.202   9.234 -0.3763  1.1514  0.9178
  896MOL0     H18218   3.717   3.300   9.359  2.2723 -1.3699  3.4593
  896MOL0     H18219   3.780   3.118   9.489  4.2654 -3.1749 -0.0757
  896MOL0     H18220   3.754   2.995   9.368 -0.4838 -0.2837  2.6136
  896MOL0     H18221   3.538   3.165   9.485 -0.1277  1.8906 -3.4691
  896MOL0     H18222   3.525   3.032   9.363  1.5643 -0.9870  0.6010
  896MOL0     H18223   3.613   2.983   9.655  0.6156 -0.3468 -0.4103
  896MOL0     H18224   3.623   2.868   9.518  1.1338  1.3636 -0.5329
  896MOL0     H18225   3.332   2.927   9.381 -2.9721  1.0854 -0.1843
  896MOL0     H18226   3.059   2.923   9.414  0.8582  0.5542 -0.5632
  896MOL0     H18227   3.068   3.083   9.493  0.2699 -0.6807  2.4811
  896MOL0     H18228   2.987   3.006   9.696 -0.5064  2.4429 -0.7469
  896MOL0     H18229   2.969   2.834   9.631 -1.2958  0.3042  0.0126
  896MOL0     H18230   2.831   3.085   9.523 -2.5715  0.0356 -0.0729
  896MOL0     H18231   2.799   2.927   9.471  3.7149  0.8635 -1.1042
  896MOL0     H18232   2.616   3.016   9.631  0.2778 -1.4260 -0.7288
  896MOL0     H18233   2.740   3.033   9.747  0.5315 -0.0290 -0.3337
  896MOL0     H18234   2.471   2.991   9.773 -2.4516  0.4724 -2.5986
  896MOL0     H18235   2.254   2.916   9.819 -0.3109 -0.1230 -1.6034
  896MOL0     H18236   1.880   2.855   9.707 -1.4727  0.1813  0.0369
  896MOL0     H18237   1.639   2.797   9.710 -2.6424 -1.6553  1.1296
  896MOL0     H18238   1.516   2.435   9.804  3.0368 -1.9389 -2.3906
  896MOL0     H18239   1.588   2.525   9.673 -0.3071 -3.4372 -0.0684
  896MOL0     H18240   1.354   2.467   9.611  0.0976 -0.2955 -0.2165
  896MOL0     H18241   1.370   2.641   9.634  2.9402 -0.0392  0.6095
  896MOL0     H18242   1.266   2.627   9.852 -0.8291  1.5409 -2.0475
  896MOL0     H18243   1.290   2.455   9.866  0.3120  1.9718  1.4853
  896MOL0     H18244   1.117   2.543   9.631  2.2267 -0.5635 -1.0342
  896MOL0     H18245   1.115   2.387   9.723 -0.6778 -0.2230  0.0638
  896MOL0     H18246   1.031   2.496   9.928 -0.7626  2.5968  0.9385
  896MOL0     H18247   0.916   2.516   9.791  0.2070 -0.9396 -1.5821
  896MOL0     H18248   1.044   2.756   9.775  1.0420  0.2246  0.9394
  896MOL0     H18249   1.099   2.708   9.933 -1.2985  5.2991  0.9628
  896MOL0     H18250   0.805   2.752   9.865 -1.1151  3.7054  3.7304
  896MOL0     H18251   0.871   2.657  10.003  1.0272 -0.6338 -0.3171
  896MOL0     H18252   0.924   2.936   9.911 -3.0139  0.6717 -0.1004
  896MOL0     H18253   1.003   2.862  10.049 -1.3422 -0.9399  0.6547
  896MOL0     H18254   1.691   2.538  10.035  0.4339  1.2709  0.3433
  896MOL0     H18255   1.942   2.574  10.042 -0.0731  2.3530  1.3508
  896MOL0     H18256   2.409   2.513   9.805  1.2744  0.7283  1.4000
  896MOL0     H18257   2.626   2.601   9.725 -0.7805 -0.4113  1.7365
  896MOL0     H18258   4.394   2.925   9.570 -1.2648  1.0257 -1.8192
  896MOL0     H18259   4.628   2.902   9.582 -0.5721 -0.3301  3.3534
  896MOL0     H18260   5.057   2.999   9.580 -1.8283  0.1128  0.7044
  896MOL0     H18261   5.302   3.013   9.606 -1.2642 -0.0291 -2.3740
  896MOL0     H18262   5.501   3.148   9.572  1.9192  0.7654 -0.4245
  896MOL0     H18263   5.509   3.030   9.700 -0.6611  1.0266 -1.2623
  896MOL0     H18264   5.702   3.151   9.804  1.4206  1.0541  0.2364
  896MOL0     H18265   5.735   3.151   9.628 -0.1195  2.3078 -1.4030
  896MOL0     H18266   5.614   3.379   9.767  1.0315 -1.2523  0.5713
  896MOL0     H18267   5.650   3.364   9.593 -0.4296  2.2534  1.2489
  896MOL0     H18268   5.844   3.488   9.736  2.8880  0.1809  2.8809
  896MOL0     H18269   5.841   3.362   9.837 -3.9225  0.7926 -0.0458
  896MOL0     H18270   6.048   3.214   9.480  2.0748 -0.2215  1.7606
  896MOL0     H18271   5.265   3.367   9.846 -2.4142  1.2596  0.0420
  896MOL0     H18272   5.027   3.377   9.791  0.7189  0.0156  0.3151
  897MOL0     O18273   0.803   5.793   8.835  0.8014  0.7236 -0.7171
  897MOL0     C18274   0.820   5.702   8.920  0.0114 -0.1989  0.2154
  897MOL0     O18275   0.739   5.676   9.028  0.0628  0.4113  0.6223
  897MOL0     C18276   0.616   5.738   9.038  0.0153 -0.2574 -0.7774
  897MOL0     C18277   0.597   5.869   9.088  0.4116  0.0196 -1.0332
  897MOL0     C18278   0.464   5.910   9.098 -0.0665  0.1404 -0.2421
  897MOL0     C18279   0.354   5.837   9.061  0.9171  0.1920 -0.2449
  897MOL0     O18280   0.228   5.887   9.074 -0.8887 -0.2727 -0.0004
  897MOL0     C18281   0.213   5.992   9.170 -0.0759  0.1202  0.4451
  897MOL0     C18282   0.074   6.001   9.228 -0.0320  1.2116 -0.0009
  897MOL0     C18283  -0.032   6.015   9.113  0.4803  1.4083 -0.2900
  897MOL0     C18284  -0.172   6.033   9.174  0.4234  0.3460 -0.3432
  897MOL0     C18285  -0.284   6.059   9.073 -0.3232  0.4312 -0.0510
  897MOL0     C18286  -0.415   6.087   9.139 -0.0992  0.1388 -0.9832
  897MOL0     C18287  -0.540   6.106   9.049 -0.5932  0.5809  1.1056
  897MOL0     C18288  -0.653   6.143   9.141 -0.1826 -0.2154  0.9417
  897MOL0     N18289  -0.761   6.181   9.057 -0.4663 -0.2222 -0.6064
  897MOL0     C18290  -0.772   6.303   8.991  0.3076  0.2587 -0.7527
  897MOL0     C18291  -0.901   6.296   8.938 -0.1626 -0.5939 -0.1907
  897MOL0     C18292  -0.958   6.411   8.864 -0.5749 -0.3167  0.3213
  897MOL0     C18293  -1.115   6.410   8.861  1.1462 -0.2507 -0.5494
  897MOL0     C18294  -1.174   6.501   8.762  0.0132  0.3344  0.2343
  897MOL0     C18295  -1.314   6.512   8.782  0.2073 -0.2900  0.0390
  897MOL0     O18296  -1.385   6.414   8.699 -0.3190  0.2989  0.0609
  897MOL0     C18297  -1.523   6.411   8.699  0.1273  0.1602 -0.9572
  897MOL0     C18298  -1.609   6.506   8.759 -0.5283  0.7851  0.8106
  897MOL0     C18299  -1.750   6.478   8.762  0.1128  0.0778 -0.0014
  897MOL0     C18300  -1.809   6.367   8.697 -0.5628  0.4308  0.1682
  897MOL0     C18301  -1.956   6.352   8.695 -1.0363 -0.0385 -0.4228
  897MOL0     O18302  -2.029   6.411   8.795 -0.0694 -0.1237 -0.3481
  897MOL0     C18303  -2.166   6.421   8.796 -0.1447  0.5327  0.4765
  897MOL0     C18304  -2.250   6.377   8.899  0.2203  0.3679 -0.2112
  897MOL0     C18305  -2.384   6.405   8.906  0.6302  0.0535 -0.2594
  897MOL0     C18306  -2.447   6.481   8.802 -0.2240  0.9113  0.5071
  897MOL0     O18307  -2.578   6.521   8.829  0.8217 -0.4235  0.3115
  897MOL0     C18308  -2.651   6.596   8.728  0.2775 -0.1413  0.0661
  897MOL0     C18309  -2.804   6.588   8.748 -0.1121 -0.9385  0.0335
  897MOL0     C18310  -2.861   6.650   8.871 -0.0393  0.0859  0.4845
  897MOL0     C18311  -3.009   6.654   8.858  1.0202 -0.0108 -0.0772
  897MOL0     C18312  -3.079   6.679   9.004  0.3931  0.6130 -0.0593
  897MOL0     C18313  -3.221   6.733   8.976 -0.4728  0.6433 -0.8580
  897MOL0     C18314  -3.325   6.707   9.080  0.0511 -0.2066  0.6411
  897MOL0     C18315  -3.370   6.567   9.093 -0.1372  0.3588  0.0454
  897MOL0    Cl18316  -3.489   6.563   9.224 -0.2469  0.3446  0.7799
  897MOL0     C18317  -2.362   6.524   8.694  0.2410  0.2654  0.0840
  897MOL0     C18318  -2.226   6.494   8.698  1.1719  0.5046  0.1196
  897MOL0     O18319  -2.002   6.286   8.605 -0.0295 -0.4271  0.3980
  897MOL0     C18320  -1.719   6.284   8.628 -0.5738 -0.1378 -0.2022
  897MOL0     C18321  -1.578   6.302   8.632  0.4297  0.3503 -0.3900
  897MOL0     N18322  -0.968   6.187   8.993 -0.4564  0.2619  0.4183
  897MOL0     N18323  -0.876   6.113   9.049  0.5249 -0.0571 -0.2631
  897MOL0     C18324   0.375   5.709   9.006  0.0130 -1.0334  0.2887
  897MOL0     C18325   0.503   5.662   9.007 -0.6403  1.0261  0.5889
  897MOL0     C18326   0.930   5.605   8.900 -0.5968  0.7234 -0.9376
  897MOL0     C18327   0.981   5.543   9.015  0.3000 -0.1568 -0.0573
  897MOL0     C18328   1.102   5.463   8.994 -0.1294 -0.0092 -0.6582
  897MOL0     C18329   1.155   5.435   8.869  0.0256 -0.5113  0.2142
  897MOL0     O18330   1.273   5.364   8.853 -0.1152  0.2842 -0.1828
  897MOL0     C18331   1.312   5.328   8.722 -1.1501  0.0935 -0.2065
  897MOL0     C18332   1.452   5.273   8.715  0.5653  0.6768 -0.0127
  897MOL0     C18333   1.549   5.383   8.683 -0.1061  0.2673  0.3000
  897MOL0     C18334   1.696   5.337   8.700 -0.5400  0.0301 -0.0931
  897MOL0     C18335   1.784   5.446   8.650 -0.3353 -0.1017  0.1548
  897MOL0     C18336   1.857   5.541   8.611 -0.5504  0.5510 -0.0635
  897MOL0     C18337   1.086   5.494   8.764  1.0682  0.8144  0.1459
  897MOL0     C18338   0.979   5.582   8.775  0.5379  0.1833  0.7156
  897MOL0     H18339   0.686   5.912   9.134 -0.8073  0.0331  1.5177
  897MOL0     H18340   0.461   6.014   9.132 -0.3160  0.4098 -1.0691
  897MOL0     H18341   0.259   6.086   9.139  3.3524 -1.6643 -0.3979
  897MOL0     H18342   0.261   5.958   9.263 -0.1720 -0.9394  0.1275
  897MOL0     H18343   0.077   6.078   9.306 -2.1329  0.4736  0.8905
  897MOL0     H18344   0.054   5.905   9.278 -3.8440 -0.1415 -3.5511
  897MOL0     H18345  -0.032   5.932   9.042  0.6840  2.0967 -1.1116
  897MOL0     H18346  -0.020   6.108   9.056 -1.0965  0.6344 -1.9985
  897MOL0     H18347  -0.204   5.944   9.230 -0.2541  1.0692  0.4436
  897MOL0     H18348  -0.173   6.119   9.242  1.2994  1.7532 -2.0388
  897MOL0     H18349  -0.286   5.979   8.999 -1.5883 -0.5177  0.9727
  897MOL0     H18350  -0.263   6.150   9.016 -2.8428 -0.1849 -2.1434
  897MOL0     H18351  -0.389   6.175   9.198  5.0023 -1.0235 -1.0336
  897MOL0     H18352  -0.441   6.002   9.203  0.6935 -1.0814 -2.2348
  897MOL0     H18353  -0.536   6.181   8.970  0.5437 -0.3879  0.2041
  897MOL0     H18354  -0.570   6.016   8.994  0.6530  1.3853 -0.9656
  897MOL0     H18355  -0.627   6.228   9.205  1.0395  2.1418 -2.3963
  897MOL0     H18356  -0.692   6.055   9.194 -2.1858  0.4187  0.5810
  897MOL0     H18357  -0.693   6.376   8.984  0.9986 -0.4346 -0.3737
  897MOL0     H18358  -0.929   6.407   8.759 -0.0012  0.1071  0.4556
  897MOL0     H18359  -0.908   6.504   8.894  1.0178 -0.4983 -1.5633
  897MOL0     H18360  -1.154   6.443   8.958 -2.4988  1.3858 -2.3967
  897MOL0     H18361  -1.152   6.308   8.843 -0.2887  0.4680 -1.8580
  897MOL0     H18362  -1.125   6.598   8.776  0.0816  0.5116 -1.0792
  897MOL0     H18363  -1.146   6.450   8.669  0.4114  0.5126  0.2535
  897MOL0     H18364  -1.352   6.612   8.759  0.3113  0.0761  1.3748
  897MOL0     H18365  -1.350   6.509   8.885  0.4628  1.6203  0.2245
  897MOL0     H18366  -1.568   6.599   8.797 -0.0274  0.3708  1.2888
  897MOL0     H18367  -1.811   6.552   8.814  0.4607  0.8244 -0.6263
  897MOL0     H18368  -2.205   6.315   8.976 -1.4619 -1.8788 -0.9432
  897MOL0     H18369  -2.453   6.387   8.988 -2.1861 -0.5854 -2.6295
  897MOL0     H18370  -2.644   6.548   8.630 -1.2334 -1.7020  0.6689
  897MOL0     H18371  -2.623   6.701   8.723 -3.1248  0.9007  0.2531
  897MOL0     H18372  -2.828   6.481   8.753 -3.0087 -0.3313  1.2780
  897MOL0     H18373  -2.859   6.635   8.667 -1.2235  1.6787  2.1399
  897MOL0     H18374  -2.821   6.751   8.884 -0.8945  0.4174  0.6086
  897MOL0     H18375  -2.819   6.595   8.956  0.3267 -2.9872 -1.5173
  897MOL0     H18376  -3.032   6.738   8.791  0.8620  0.2690  0.3194
  897MOL0     H18377  -3.046   6.559   8.818 -0.3887  0.4445  0.0580
  897MOL0     H18378  -3.019   6.739   9.074  0.8855 -1.0513  1.0175
  897MOL0     H18379  -3.089   6.584   9.058  0.5792  0.0737 -0.9573
  897MOL0     H18380  -3.265   6.692   8.884 -0.6818  2.9022 -1.8237
  897MOL0     H18381  -3.226   6.841   8.963 -0.4185  0.8373  0.6033
  897MOL0     H18382  -3.289   6.762   9.168  3.8001 -1.8593  0.3163
  897MOL0     H18383  -3.412   6.761   9.043  1.6576  1.6677 -0.5881
  897MOL0     H18384  -3.289   6.498   9.121 -1.2035 -1.3046 -0.7887
  897MOL0     H18385  -3.415   6.536   8.998  0.4218  0.1752 -0.1642
  897MOL0     H18386  -2.397   6.589   8.614  1.0549  1.0137  0.3211
  897MOL0     H18387  -2.167   6.531   8.615  0.4420  0.5315 -0.3961
  897MOL0     H18388  -1.759   6.205   8.565  0.5589 -0.3896 -0.6280
  897MOL0     H18389  -1.519   6.226   8.581  2.7864  3.0810 -2.0374
  897MOL0     H18390   0.285   5.661   8.968 -1.2694  0.2790  1.5226
  897MOL0     H18391   0.521   5.562   8.967  2.1245  2.3496 -1.8581
  897MOL0     H18392   0.943   5.547   9.117 -1.5719 -1.2266 -0.6773
  897MOL0     H18393   1.146   5.421   9.084 -2.8393  1.7359  1.6322
  897MOL0     H18394   1.321   5.420   8.664 -1.4282  0.9746  1.0903
  897MOL0     H18395   1.241   5.252   8.689  1.1138 -1.0619 -2.7599
  897MOL0     H18396   1.468   5.220   8.810 -3.3840 -2.8307 -1.0076
  897MOL0     H18397   1.445   5.187   8.647  2.3303 -0.0276  0.6292
  897MOL0     H18398   1.549   5.470   8.749  2.5220  0.5925 -0.0477
  897MOL0     H18399   1.526   5.417   8.581  0.2115 -0.7745 -0.1307
  897MOL0     H18400   1.713   5.320   8.806 -0.0599 -2.9062 -0.5465
  897MOL0     H18401   1.712   5.238   8.657 -0.8283 -0.8569  1.7734
  897MOL0     H18402   1.905   5.630   8.575  0.5823  0.5367  1.3134
  897MOL0     H18403   1.115   5.469   8.663 -2.8091 -1.0042 -0.7181
  897MOL0     H18404   0.927   5.626   8.690  0.0323 -2.5980 -0.5309
  898MOL0     O18405   5.512  10.726   8.307  0.9623 -0.0274  0.9038
  898MOL0     C18406   5.581  10.631   8.282  0.0899 -0.2379  0.0960
  898MOL0     O18407   5.559  10.537   8.184 -0.2465 -0.5066  0.1970
  898MOL0     C18408   5.434  10.550   8.133  0.9032 -0.2471 -0.3985
  898MOL0     C18409   5.406  10.582   7.995 -0.3028 -0.1293 -1.4792
  898MOL0     C18410   5.275  10.595   7.950  0.4613 -0.6378 -0.1520
  898MOL0     C18411   5.171  10.570   8.036  0.3723  0.6815  0.1866
  898MOL0     O18412   5.040  10.575   7.998 -0.2325 -0.0767 -0.3324
  898MOL0     C18413   4.996  10.614   7.868 -0.5339  0.0887  0.5837
  898MOL0     C18414   4.993  10.497   7.774  1.0458  0.7770 -0.0214
  898MOL0     C18415   4.964  10.510   7.626  0.4335  0.6370  0.1510
  898MOL0     C18416   4.845  10.594   7.594  0.0311 -0.0367  0.0167
  898MOL0     C18417   4.822  10.592   7.434  0.4598  0.0412 -0.3249
  898MOL0     C18418   4.716  10.677   7.369  0.3040 -0.6094  0.3194
  898MOL0     C18419   4.574  10.634   7.412  0.3469  0.0518 -0.3152
  898MOL0     C18420   4.474  10.713   7.332  1.3854 -0.3719  0.6154
  898MOL0     N18421   4.340  10.734   7.405  0.0402  0.7580  0.0934
  898MOL0     C18422   4.209  10.707   7.358 -0.1269 -0.7645  1.3723
  898MOL0     C18423   4.133  10.763   7.452  0.6071 -0.6019 -0.5474
  898MOL0     C18424   3.982  10.763   7.459 -0.1381  1.3173 -0.8133
  898MOL0     C18425   3.913  10.847   7.353 -0.2378 -0.4329  0.0846
  898MOL0     C18426   3.936  10.991   7.369 -0.8052 -0.0714  0.4829
  898MOL0     C18427   3.902  11.063   7.232  0.1781 -1.3753  0.4526
  898MOL0     O18428   3.757  11.057   7.213 -0.0423  0.7491  0.3441
  898MOL0     C18429   3.673  11.106   7.305 -0.2951  0.3949  0.5480
  898MOL0     C18430   3.695  11.228   7.378 -0.0279 -0.2795  0.0083
  898MOL0     C18431   3.598  11.264   7.478  0.1912 -0.1273  0.3985
  898MOL0     C18432   3.488  11.185   7.508  0.6669 -0.6291 -0.1617
  898MOL0     C18433   3.409  11.214   7.627  0.6424  0.2385 -0.6591
  898MOL0     O18434   3.444  11.317   7.711 -0.4391 -0.0496  0.3171
  898MOL0     C18435   3.361  11.338   7.815 -0.2625 -0.8995 -0.1268
  898MOL0     C18436   3.405  11.320   7.941  0.6130 -0.1742  0.2354
  898MOL0     C18437   3.315  11.349   8.051 -0.3218 -0.3003  0.1375
  898MOL0     C18438   3.187  11.394   8.027  0.5838 -0.1553 -0.2524
  898MOL0     O18439   3.115  11.421   8.137 -0.0354 -0.5437 -0.3568
  898MOL0     C18440   3.023  11.530   8.132 -0.0814 -0.0600 -0.5359
  898MOL0     C18441   3.093  11.661   8.101 -0.5811  1.0058  1.0645
  898MOL0     C18442   3.009  11.788   8.128 -0.0903 -0.5992  0.7279
  898MOL0     C18443   2.868  11.774   8.063 -0.0967 -0.3916 -0.1390
  898MOL0     C18444   2.792  11.904   8.079 -0.1860 -1.2475 -0.6422
  898MOL0     C18445   2.648  11.877   8.029  0.0831  0.1687 -0.8403
  898MOL0     C18446   2.563  12.003   8.005 -0.2952 -0.8293 -0.4500
  898MOL0     C18447   2.572  12.101   8.134  0.3420 -0.8287  0.2856
  898MOL0    Cl18448   2.501  11.996   8.261  0.5373  0.3739 -0.1208
  898MOL0     C18449   3.133  11.402   7.897 -0.5859 -0.1978 -0.6275
  898MOL0     C18450   3.227  11.391   7.794  1.2614  1.0492 -0.2955
  898MOL0     O18451   3.307  11.149   7.641  0.0571  0.0560  0.0019
  898MOL0     C18452   3.468  11.071   7.434  0.1994 -0.6552  0.0030
  898MOL0     C18453   3.562  11.025   7.337 -0.2680 -0.1431 -1.0197
  898MOL0     N18454   4.215  10.826   7.547  0.0399 -0.0274 -0.0284
  898MOL0     N18455   4.337  10.816   7.513  0.2525 -0.1357  0.4377
  898MOL0     C18456   5.195  10.537   8.163 -0.6114  0.3095 -0.5631
  898MOL0     C18457   5.324  10.527   8.223  0.5652 -0.0090  0.4034
  898MOL0     C18458   5.719  10.639   8.348 -0.0038 -0.0237 -1.3222
  898MOL0     C18459   5.745  10.738   8.447  0.1956  0.3879  0.4793
  898MOL0     C18460   5.867  10.736   8.515 -0.0438 -0.0771 -0.2684
  898MOL0     C18461   5.980  10.667   8.471  0.7191  1.0410  0.1249
  898MOL0     O18462   6.103  10.680   8.528  0.2515  0.1283 -0.2589
  898MOL0     C18463   6.140  10.810   8.577  0.4097  0.2526 -0.4687
  898MOL0     C18464   6.161  10.807   8.727 -0.0772 -0.1663  0.4076
  898MOL0     C18465   6.279  10.718   8.757 -0.3098  0.8977 -0.1236
  898MOL0     C18466   6.298  10.684   8.903 -0.1320  0.2694 -0.4708
  898MOL0     C18467   6.431  10.610   8.920 -0.2996  0.8681  0.2880
  898MOL0     C18468   6.532  10.535   8.935 -0.0760  0.1600 -0.1254
  898MOL0     C18469   5.954  10.570   8.366 -0.4202 -0.3189  0.1564
  898MOL0     C18470   5.830  10.559   8.306  0.0952 -0.4569  0.6411
  898MOL0     H18471   5.485  10.602   7.923 -0.3916 -1.2347 -1.8995
  898MOL0     H18472   5.251  10.637   7.852  1.0835  0.7947  0.2723
  898MOL0     H18473   5.051  10.700   7.829  0.3049 -0.0051  1.5077
  898MOL0     H18474   4.896  10.657   7.879  0.1219  1.7358  0.3423
  898MOL0     H18475   4.911  10.437   7.812  1.0382 -0.5423 -1.9862
  898MOL0     H18476   5.090  10.446   7.779  1.6111  1.8793  0.8130
  898MOL0     H18477   4.960  10.413   7.578 -0.9151  0.7788 -0.0457
  898MOL0     H18478   5.052  10.564   7.589 -0.4771  2.4389  0.5045
  898MOL0     H18479   4.746  10.562   7.629 -0.0403 -0.0097 -0.1573
  898MOL0     H18480   4.865  10.697   7.624  2.9592  0.9763 -4.4489
  898MOL0     H18481   4.793  10.490   7.408 -1.3953  0.4410 -0.0111
  898MOL0     H18482   4.917  10.609   7.383  1.0778 -2.4442 -0.1217
  898MOL0     H18483   4.713  10.659   7.261 -0.5380 -1.3774  0.4567
  898MOL0     H18484   4.732  10.784   7.384 -0.9545 -0.4286  0.4872
  898MOL0     H18485   4.550  10.528   7.401 -2.0622  0.4083  0.7234
  898MOL0     H18486   4.552  10.650   7.518 -0.3346 -3.8769  0.3073
  898MOL0     H18487   4.458  10.664   7.236 -0.9844  0.0641  0.7373
  898MOL0     H18488   4.497  10.818   7.315 -2.5376  0.6699  0.7656
  898MOL0     H18489   4.186  10.649   7.269 -1.7220  0.2575  1.0861
  898MOL0     H18490   3.943  10.797   7.555 -3.1468 -0.4586 -1.2717
  898MOL0     H18491   3.949  10.659   7.455  1.1143  0.9348 -2.2145
  898MOL0     H18492   3.806  10.832   7.366 -0.0718 -0.0499  2.1907
  898MOL0     H18493   3.942  10.809   7.254  0.0206  1.5126 -0.6356
  898MOL0     H18494   3.871  11.026   7.449  0.0867 -4.5209  3.5748
  898MOL0     H18495   4.040  11.022   7.381 -1.0477  1.7133 -1.3700
  898MOL0     H18496   3.953  11.016   7.147  0.1226  1.0598 -1.0253
  898MOL0     H18497   3.940  11.166   7.234 -3.8323  0.3547 -1.5289
  898MOL0     H18498   3.782  11.284   7.347 -0.3135 -1.8597 -4.1621
  898MOL0     H18499   3.620  11.355   7.533  0.0952  2.4503 -3.5044
  898MOL0     H18500   3.503  11.289   7.977  1.0500  1.4457  0.5261
  898MOL0     H18501   3.360  11.322   8.146 -0.4408 -2.8007 -0.4375
  898MOL0     H18502   2.963  11.535   8.223 -1.9895  2.7545 -1.8101
  898MOL0     H18503   2.949  11.513   8.053 -1.1895  1.6490  0.0697
  898MOL0     H18504   3.125  11.660   7.997 -1.7039  2.8305  0.6624
  898MOL0     H18505   3.178  11.681   8.166  0.8480  0.7300 -0.6568
  898MOL0     H18506   3.061  11.870   8.078 -1.1467  1.3107  2.6219
  898MOL0     H18507   3.006  11.802   8.237  0.0537 -2.7986  1.0715
  898MOL0     H18508   2.878  11.758   7.955 -0.8317  2.1137 -0.6314
  898MOL0     H18509   2.812  11.686   8.097 -1.6961  0.3923 -0.6080
  898MOL0     H18510   2.835  11.989   8.025  0.9131  0.2949  2.4296
  898MOL0     H18511   2.810  11.943   8.179 -1.0714  0.4044 -1.0876
  898MOL0     H18512   2.604  11.821   8.111  2.3949  0.7934  0.9243
  898MOL0     H18513   2.645  11.805   7.946  0.0353  0.3978 -1.0400
  898MOL0     H18514   2.598  12.057   7.916  2.1443  0.6437  1.2992
  898MOL0     H18515   2.459  11.975   7.984 -1.7109  2.6811  1.1072
  898MOL0     H18516   2.521  12.195   8.112  0.8978 -1.0773 -2.3503
  898MOL0     H18517   2.677  12.130   8.146 -0.7818  3.7620  0.9308
  898MOL0     H18518   3.025  11.413   7.894 -0.9948  0.9042  5.4810
  898MOL0     H18519   3.195  11.415   7.694  0.2575  0.7385 -0.0538
  898MOL0     H18520   3.379  11.017   7.466 -0.5157  0.4833 -0.0072
  898MOL0     H18521   3.554  10.928   7.290 -0.7901 -1.5500  1.7502
  898MOL0     H18522   5.113  10.521   8.231  0.6087 -1.0483  0.6546
  898MOL0     H18523   5.337  10.511   8.330 -2.0707  0.9933  0.9554
  898MOL0     H18524   5.678  10.817   8.478  2.7569  3.2467 -0.6485
  898MOL0     H18525   5.875  10.801   8.602 -0.7817  1.6288 -1.4142
  898MOL0     H18526   6.068  10.891   8.558  1.0236  0.6145 -1.3279
  898MOL0     H18527   6.226  10.841   8.517 -0.2414 -1.0730 -2.1566
  898MOL0     H18528   6.177  10.904   8.773  0.2223 -0.7589  1.5861
  898MOL0     H18529   6.071  10.760   8.766 -0.3016  1.8731  2.4861
  898MOL0     H18530   6.374  10.764   8.726 -2.2649  5.7685  0.1952
  898MOL0     H18531   6.261  10.627   8.700 -2.1342  1.6673 -0.8372
  898MOL0     H18532   6.295  10.771   8.970  2.8588 -0.8121  1.2608
  898MOL0     H18533   6.217  10.620   8.938 -0.1499 -0.8250 -2.4076
  898MOL0     H18534   6.613  10.465   8.929 -0.8303 -0.8772  1.2969
  898MOL0     H18535   6.046  10.525   8.330  0.0306  1.6379 -1.2512
  898MOL0     H18536   5.822  10.481   8.232  0.3651  1.7238 -1.8469
  899MOL0     O18537  10.391   0.819   9.274 -0.0324  0.1962 -0.2298
  899MOL0     C18538  10.453   0.798   9.381 -0.1230 -0.5415  0.1685
  899MOL0     O18539  10.393   0.776   9.500  0.0815  0.1979 -0.0132
  899MOL0     C18540  10.255   0.781   9.502 -0.2007  0.7596 -0.3903
  899MOL0     C18541  10.183   0.684   9.576 -0.0709 -0.3050  0.3754
  899MOL0     C18542  10.042   0.694   9.586  0.4766 -1.1349 -0.7267
  899MOL0     C18543   9.972   0.793   9.514  1.1151 -0.3629  0.1190
  899MOL0     O18544   9.832   0.789   9.537 -0.1345 -0.3547  0.7743
  899MOL0     C18545   9.758   0.896   9.494 -0.7953 -0.5586 -0.6776
  899MOL0     C18546   9.614   0.872   9.529  0.1053  0.7851  0.6154
  899MOL0     C18547   9.528   1.004   9.540  0.0241 -0.0905 -0.2889
  899MOL0     C18548   9.381   0.978   9.547  0.2337  0.0719  0.0688
  899MOL0     C18549   9.306   1.108   9.593  1.0725 -0.1946 -0.9276
  899MOL0     C18550   9.158   1.082   9.622  0.4317  0.2129 -0.2215
  899MOL0     C18551   9.078   1.213   9.660  0.2580 -0.8238 -0.1722
  899MOL0     C18552   8.941   1.185   9.718  0.5456  0.1961 -0.2657
  899MOL0     N18553   8.880   1.305   9.778  1.2352 -0.5099 -0.6153
  899MOL0     C18554   8.874   1.437   9.721  0.7943  0.2260 -0.2338
  899MOL0     C18555   8.812   1.511   9.818 -0.3883 -0.1815  0.1161
  899MOL0     C18556   8.771   1.655   9.793 -0.5258  0.1209 -0.1457
  899MOL0     C18557   8.885   1.743   9.732  0.3532 -0.4367  0.5892
  899MOL0     C18558   9.004   1.756   9.835 -0.8829  0.9630  0.7249
  899MOL0     C18559   9.128   1.827   9.782 -0.1298  1.0439  0.0914
  899MOL0     O18560   9.194   1.723   9.701 -0.0333 -0.4115 -0.2589
  899MOL0     C18561   9.323   1.736   9.651  0.2577  0.0149 -0.0352
  899MOL0     C18562   9.388   1.625   9.604  0.5557 -0.3974 -0.0693
  899MOL0     C18563   9.513   1.637   9.538 -0.0437  0.3432 -0.1344
  899MOL0     C18564   9.583   1.758   9.544 -0.0219  0.3458 -0.8443
  899MOL0     C18565   9.715   1.766   9.479 -0.1452  1.3395  0.2210
  899MOL0     O18566   9.760   1.660   9.410  0.7150 -0.4087 -0.2658
  899MOL0     C18567   9.887   1.665   9.357  0.6228 -0.0015 -0.1743
  899MOL0     C18568   9.911   1.570   9.262 -0.2271  0.4474 -0.8006
  899MOL0     C18569  10.030   1.551   9.193  0.3193 -0.4281 -0.0893
  899MOL0     C18570  10.138   1.633   9.225  0.2317  0.3533  0.5030
  899MOL0     O18571  10.256   1.607   9.161  0.0266 -0.2804 -0.0560
  899MOL0     C18572  10.373   1.608   9.256 -0.1093 -0.5446  0.3703
  899MOL0     C18573  10.494   1.542   9.183 -0.3727 -0.0712  0.6822
  899MOL0     C18574  10.532   1.614   9.052  0.1251 -0.0191 -0.9495
  899MOL0     C18575  10.646   1.546   8.982 -1.0267 -0.8593  0.8329
  899MOL0     C18576  10.664   1.578   8.828 -0.7306  0.3323 -0.5733
  899MOL0     C18577  10.759   1.471   8.769  0.8438 -0.0291  0.5211
  899MOL0     C18578  10.789   1.518   8.628  0.0076  0.1007 -0.1037
  899MOL0     C18579  10.861   1.411   8.544 -0.5602  0.8598  0.7335
  899MOL0    Cl18580  11.029   1.406   8.593  0.5743  0.2578 -0.3880
  899MOL0     C18581  10.113   1.736   9.321 -0.8071  0.3999  0.4393
  899MOL0     C18582   9.996   1.748   9.391 -0.8120  0.1691  0.8464
  899MOL0     O18583   9.769   1.875   9.481  0.6515 -0.2613  0.3743
  899MOL0     C18584   9.523   1.866   9.599  0.6817 -0.3405 -1.1397
  899MOL0     C18585   9.390   1.862   9.642  0.5740  0.1051  0.3585
  899MOL0     N18586   8.788   1.432   9.926  0.0593 -0.4247  0.3148
  899MOL0     N18587   8.826   1.315   9.903 -0.3152  0.4162 -1.0036
  899MOL0     C18588  10.040   0.887   9.433  0.0376 -0.2689  0.2773
  899MOL0     C18589  10.179   0.885   9.441  0.5256 -0.2274  0.5234
  899MOL0     C18590  10.597   0.802   9.357  0.1856  0.4352 -0.2097
  899MOL0     C18591  10.698   0.824   9.453  0.2417  0.8059  0.5635
  899MOL0     C18592  10.835   0.820   9.416 -0.3204  0.2031  0.4317
  899MOL0     C18593  10.874   0.796   9.283 -0.9839  0.0307 -0.1954
  899MOL0     O18594  11.001   0.793   9.235 -0.0437 -0.0782  0.3475
  899MOL0     C18595  11.094   0.866   9.309 -0.4586  0.0422 -0.6470
  899MOL0     C18596  11.225   0.831   9.247 -1.6932 -0.5762 -0.0493
  899MOL0     C18597  11.267   0.693   9.278  0.6020 -0.2084 -0.5211
  899MOL0     C18598  11.415   0.671   9.305  0.4691 -0.2111 -0.1738
  899MOL0     C18599  11.499   0.743   9.211  0.4344 -0.1355 -0.7187
  899MOL0     C18600  11.559   0.801   9.122  0.3449 -0.5765 -1.2144
  899MOL0     C18601  10.774   0.770   9.192 -0.8061  0.1057 -0.3223
  899MOL0     C18602  10.638   0.773   9.225 -0.2475  0.1814  0.0287
  899MOL0     H18603  10.234   0.600   9.624  2.4444  1.3070  0.6863
  899MOL0     H18604   9.986   0.621   9.642  1.1855 -0.6934  0.6136
  899MOL0     H18605   9.766   0.915   9.387  0.6243 -2.3072 -0.9384
  899MOL0     H18606   9.797   0.977   9.556 -2.4285  0.1173 -0.5006
  899MOL0     H18607   9.614   0.819   9.624  1.4368 -1.4930 -0.5912
  899MOL0     H18608   9.559   0.813   9.455  0.6094  3.4462 -2.1140
  899MOL0     H18609   9.542   1.073   9.456 -1.5572  0.8278  0.1604
  899MOL0     H18610   9.553   1.056   9.633 -3.7726  0.7867  0.3980
  899MOL0     H18611   9.334   0.953   9.451 -1.0444 -2.1218  1.1851
  899MOL0     H18612   9.370   0.886   9.605 -0.8865 -0.2751 -0.6489
  899MOL0     H18613   9.307   1.187   9.518  1.3259  0.2066 -0.5079
  899MOL0     H18614   9.355   1.135   9.687 -2.0326  0.8909  0.5166
  899MOL0     H18615   9.143   1.019   9.711 -3.6291  2.3201  0.8696
  899MOL0     H18616   9.111   1.049   9.529  0.7314  1.3302 -0.7959
  899MOL0     H18617   9.131   1.273   9.734 -0.6042  1.2187 -1.1423
  899MOL0     H18618   9.063   1.271   9.568  3.0486 -0.9140 -0.7759
  899MOL0     H18619   8.952   1.108   9.795  1.7276 -0.3355 -0.9301
  899MOL0     H18620   8.868   1.145   9.646  0.1071  1.1894 -0.3803
  899MOL0     H18621   8.910   1.471   9.624  0.1162  0.4976 -0.3927
  899MOL0     H18622   8.739   1.702   9.887 -0.7103  2.1536 -1.1748
  899MOL0     H18623   8.689   1.655   9.720  0.0867  1.7099 -0.8800
  899MOL0     H18624   8.843   1.844   9.724  1.2326 -0.1030 -0.0250
  899MOL0     H18625   8.922   1.689   9.644  1.2206 -0.6717  1.0862
  899MOL0     H18626   8.976   1.810   9.926  2.7531  0.0745  2.5397
  899MOL0     H18627   9.036   1.656   9.867  0.8171 -0.9175 -5.4149
  899MOL0     H18628   9.199   1.846   9.863  0.7872 -0.3826 -0.3320
  899MOL0     H18629   9.108   1.921   9.730 -0.0023  0.9351 -0.1621
  899MOL0     H18630   9.335   1.530   9.607 -0.8517  0.3307 -0.8913
  899MOL0     H18631   9.559   1.552   9.488 -1.8954 -0.9308  0.2057
  899MOL0     H18632   9.828   1.500   9.258 -2.1632  2.4652  0.9970
  899MOL0     H18633  10.030   1.472   9.119  0.1791 -1.1928  0.7062
  899MOL0     H18634  10.358   1.562   9.354  0.9906  0.7144  1.1680
  899MOL0     H18635  10.402   1.714   9.264  0.3303 -0.6366  0.0186
  899MOL0     H18636  10.460   1.441   9.158 -4.7018  0.9453  1.6851
  899MOL0     H18637  10.582   1.531   9.248  1.9724 -1.4158 -2.4699
  899MOL0     H18638  10.557   1.721   9.059  0.9719 -0.1996 -1.0827
  899MOL0     H18639  10.440   1.602   8.995 -1.3209 -0.4854  1.3262
  899MOL0     H18640  10.743   1.579   9.021 -1.5914  0.4086  1.2055
  899MOL0     H18641  10.630   1.438   8.990 -3.0556 -0.5869  0.8974
  899MOL0     H18642  10.704   1.679   8.811 -1.7335  0.8237 -0.0991
  899MOL0     H18643  10.566   1.566   8.781 -1.2916  0.7851  0.4448
  899MOL0     H18644  10.713   1.372   8.780 -1.7640  1.2971  2.5472
  899MOL0     H18645  10.851   1.464   8.828  0.2931 -3.1663  1.1825
  899MOL0     H18646  10.698   1.552   8.578  1.0770 -0.2156 -2.3726
  899MOL0     H18647  10.854   1.607   8.626  0.5488 -0.2165  1.5460
  899MOL0     H18648  10.864   1.457   8.444  1.2926 -0.9111 -0.0856
  899MOL0     H18649  10.812   1.314   8.552 -0.5336  0.7840  0.0373
  899MOL0     H18650  10.183   1.818   9.334 -0.3906 -0.1402  1.8657
  899MOL0     H18651  10.002   1.818   9.473 -2.6953  1.8457 -0.3552
  899MOL0     H18652   9.574   1.962   9.603 -1.2329  0.7295 -1.1647
  899MOL0     H18653   9.355   1.961   9.666  1.1216  0.7715 -1.4336
  899MOL0     H18654  10.000   0.955   9.358 -0.4498  0.2003  0.9504
  899MOL0     H18655  10.228   0.953   9.372 -2.0840 -0.3831 -1.6568
  899MOL0     H18656  10.668   0.849   9.554  3.5181  0.3011  1.7843
  899MOL0     H18657  10.904   0.841   9.497 -0.5358  2.2810  0.1136
  899MOL0     H18658  11.083   0.829   9.411 -1.2873 -0.2855 -0.8518
  899MOL0     H18659  11.074   0.973   9.306 -5.0237 -0.6241 -1.6944
  899MOL0     H18660  11.224   0.842   9.138  0.6545 -0.9908 -0.1726
  899MOL0     H18661  11.302   0.887   9.300 -2.2420 -3.7472  4.7146
  899MOL0     H18662  11.247   0.637   9.186  1.6385  1.7106 -2.0035
  899MOL0     H18663  11.217   0.653   9.366  0.3535  0.0567 -0.5418
  899MOL0     H18664  11.433   0.706   9.407 -2.3972  1.7133 -0.2060
  899MOL0     H18665  11.435   0.563   9.302  1.5078 -0.0209 -1.6390
  899MOL0     H18666  11.601   0.854   9.039  1.5307 -1.9779 -1.5611
  899MOL0     H18667  10.806   0.739   9.093 -0.8097 -1.7101  0.1955
  899MOL0     H18668  10.573   0.739   9.145 -0.0379 -2.4256  0.8771
  900MOL0     O18669  11.174   0.773   6.657 -0.7455  0.4655  0.0427
  900MOL0     C18670  11.269   0.725   6.712 -0.0629  0.1343 -0.0318
  900MOL0     O18671  11.265   0.670   6.836 -0.5070  0.6153  0.4355
  900MOL0     C18672  11.147   0.660   6.897 -0.1426 -0.4050  0.0176
  900MOL0     C18673  11.159   0.650   7.037  0.3646 -0.4512  0.5006
  900MOL0     C18674  11.051   0.639   7.128  0.2233 -0.5925  0.1466
  900MOL0     C18675  10.918   0.649   7.079 -0.8799 -0.6966 -0.5489
  900MOL0     O18676  10.808   0.634   7.154  0.3645  0.0129 -0.0481
  900MOL0     C18677  10.830   0.666   7.292 -0.1682 -1.2589  0.2909
  900MOL0     C18678  10.702   0.655   7.371 -0.2349  0.5414 -0.0756
  900MOL0     C18679  10.572   0.667   7.289 -0.6287  0.0679 -0.1028
  900MOL0     C18680  10.441   0.639   7.368 -1.1407  0.9618 -0.9984
  900MOL0     C18681  10.304   0.703   7.327  1.3425 -0.0803 -0.3564
  900MOL0     C18682  10.227   0.709   7.460 -0.0267  0.0629 -0.5372
  900MOL0     C18683  10.087   0.756   7.426  0.3329 -0.4814 -0.5239
  900MOL0     C18684  10.002   0.747   7.554 -0.1440 -0.2777  0.5116
  900MOL0     N18685   9.863   0.795   7.525  0.4956  0.4992 -0.3302
  900MOL0     C18686   9.755   0.741   7.452 -0.2573  0.1968  0.5535
  900MOL0     C18687   9.641   0.812   7.487 -0.9140  0.2356  0.1380
  900MOL0     C18688   9.507   0.790   7.424 -0.4873 -0.2945  0.7952
  900MOL0     C18689   9.499   0.860   7.296  0.2207 -0.5540 -0.0385
  900MOL0     C18690   9.496   1.013   7.298  0.3243  0.2692 -0.8954
  900MOL0     C18691   9.504   1.066   7.155  1.3061 -0.4450  0.6866
  900MOL0     O18692   9.396   1.033   7.069  0.6896 -0.2283 -0.6927
  900MOL0     C18693   9.276   1.092   7.088 -0.1417 -0.0618  0.4732
  900MOL0     C18694   9.170   1.031   7.027  0.3378  0.4927  0.1281
  900MOL0     C18695   9.032   1.074   7.048 -0.3682  0.1560  0.6358
  900MOL0     C18696   9.004   1.189   7.129  0.6303  0.8487 -0.0425
  900MOL0     C18697   8.866   1.227   7.163  0.0795 -0.1405  0.2709
  900MOL0     O18698   8.847   1.351   7.216 -0.5115 -0.2519  0.3703
  900MOL0     C18699   8.714   1.387   7.235 -0.3315  0.1183 -0.7234
  900MOL0     C18700   8.627   1.399   7.123 -0.2227  0.0636 -0.4333
  900MOL0     C18701   8.500   1.444   7.147 -0.6606  0.2735 -1.0265
  900MOL0     C18702   8.454   1.474   7.280  0.5868  0.2051  1.4053
  900MOL0     O18703   8.319   1.514   7.282  0.7827  1.1089  0.4831
  900MOL0     C18704   8.251   1.550   7.402  0.2740  0.3341 -0.5241
  900MOL0     C18705   8.097   1.557   7.383 -0.0893  0.2667  0.1253
  900MOL0     C18706   8.048   1.446   7.294  0.2483  0.1008  0.1912
  900MOL0     C18707   7.895   1.437   7.310  0.2081 -0.8019 -0.2165
  900MOL0     C18708   7.842   1.315   7.222 -0.3749 -0.2991 -0.6382
  900MOL0     C18709   7.687   1.330   7.222 -0.5852 -0.0902  0.4060
  900MOL0     C18710   7.623   1.210   7.153  0.0999  0.2712 -0.2642
  900MOL0     C18711   7.472   1.239   7.134 -0.6913 -0.0868  0.5710
  900MOL0    Cl18712   7.376   1.316   7.254 -0.2278 -0.0456  0.0445
  900MOL0     C18713   8.545   1.460   7.385 -0.1982 -1.0226 -0.9399
  900MOL0     C18714   8.677   1.420   7.364  0.4401 -0.8802 -0.5288
  900MOL0     O18715   8.775   1.146   7.139 -0.4828 -0.5978  0.3810
  900MOL0     C18716   9.114   1.253   7.185 -0.4799  0.2789 -0.4928
  900MOL0     C18717   9.251   1.209   7.168 -0.0051  0.1456 -0.3394
  900MOL0     N18718   9.683   0.912   7.579  0.4970 -0.1404 -0.5544
  900MOL0     N18719   9.810   0.902   7.589  0.0635  1.0512 -0.5556
  900MOL0     C18720  10.908   0.659   6.935 -0.1914 -0.2325  0.2030
  900MOL0     C18721  11.017   0.668   6.854  0.1908 -0.2607 -0.5879
  900MOL0     C18722  11.402   0.747   6.645 -0.1451 -0.0715 -0.8853
  900MOL0     C18723  11.517   0.779   6.724 -0.2433  0.2308 -0.2560
  900MOL0     C18724  11.634   0.807   6.658 -0.2131 -0.2089 -0.4931
  900MOL0     C18725  11.648   0.805   6.524 -0.4402 -0.1249 -0.3872
  900MOL0     O18726  11.766   0.842   6.473 -0.1324  0.6528 -0.1207
  900MOL0     C18727  11.780   0.878   6.328  0.3489 -0.1765 -0.9999
  900MOL0     C18728  11.900   0.960   6.323  0.0468  0.2931 -1.1293
  900MOL0     C18729  12.031   0.887   6.283  0.3318  0.3767  0.3268
  900MOL0     C18730  12.121   0.996   6.219  0.1606  0.6144  0.5851
  900MOL0     C18731  12.268   0.978   6.247  0.4913  0.4655  0.5205
  900MOL0     C18732  12.385   0.943   6.254 -0.2647  0.4891  0.0958
  900MOL0     C18733  11.539   0.771   6.441  0.6434 -0.0129 -0.7383
  900MOL0     C18734  11.419   0.730   6.504  0.2241 -0.1265  0.5312
  900MOL0     H18735  11.260   0.652   7.077  1.3040  0.8476 -1.7329
  900MOL0     H18736  11.081   0.647   7.232  0.7777  5.6252 -0.1506
  900MOL0     H18737  10.872   0.765   7.309 -0.0984 -1.3512  0.6835
  900MOL0     H18738  10.904   0.601   7.341  1.6648  1.7634  1.8148
  900MOL0     H18739  10.703   0.732   7.448 -1.0028  0.9284 -0.4382
  900MOL0     H18740  10.689   0.554   7.412  2.0859  0.0483 -0.4242
  900MOL0     H18741  10.569   0.595   7.207 -1.2552  0.5619 -0.5276
  900MOL0     H18742  10.566   0.772   7.257  0.6520  0.5982  1.3011
  900MOL0     H18743  10.422   0.532   7.385  1.4169  0.7727  1.2572
  900MOL0     H18744  10.468   0.683   7.465  1.6118  0.2895 -1.3893
  900MOL0     H18745  10.244   0.637   7.263 -1.2826  0.8136  1.0517
  900MOL0     H18746  10.311   0.802   7.282 -1.7400 -0.1149 -1.1158
  900MOL0     H18747  10.278   0.776   7.529  2.1270 -1.0004 -1.0012
  900MOL0     H18748  10.231   0.609   7.504  0.1434 -0.7108 -2.2346
  900MOL0     H18749  10.095   0.859   7.388 -2.1422  1.2503  3.0172
  900MOL0     H18750  10.034   0.694   7.354 -1.0158 -0.2929  0.2801
  900MOL0     H18751  10.042   0.815   7.630 -0.7058 -0.5095  1.0187
  900MOL0     H18752  10.006   0.639   7.568  0.8036 -0.0126  2.7043
  900MOL0     H18753   9.762   0.660   7.380 -1.7873  1.3051 -0.9189
  900MOL0     H18754   9.433   0.822   7.497  0.0286  2.8486  0.0848
  900MOL0     H18755   9.493   0.687   7.391 -1.5836  0.8418 -2.7377
  900MOL0     H18756   9.414   0.818   7.241 -0.3019  0.3780  0.0430
  900MOL0     H18757   9.587   0.836   7.236 -0.3879 -1.2280 -0.6793
  900MOL0     H18758   9.414   1.051   7.360  0.5872 -1.1923  0.3993
  900MOL0     H18759   9.585   1.044   7.353 -1.6944  0.3890  2.5926
  900MOL0     H18760   9.597   1.030   7.111 -0.0770 -2.2419 -0.9173
  900MOL0     H18761   9.526   1.173   7.144  1.8235 -0.6066  0.1064
  900MOL0     H18762   9.190   0.948   6.960  0.3535  0.7557 -0.1936
  900MOL0     H18763   8.948   1.025   7.000 -1.9728  2.3191  1.0553
  900MOL0     H18764   8.652   1.361   7.024 -0.0673 -1.9892  0.3553
  900MOL0     H18765   8.427   1.456   7.067 -0.7649  1.6730 -0.7568
  900MOL0     H18766   8.285   1.650   7.432  0.8523  0.2516 -0.8819
  900MOL0     H18767   8.273   1.480   7.483 -1.5046  0.4292  0.0908
  900MOL0     H18768   8.056   1.643   7.330  1.6148  1.7935  1.1891
  900MOL0     H18769   8.045   1.555   7.480  1.0262 -0.2638  0.7245
  900MOL0     H18770   8.086   1.350   7.332  0.3647  0.6793  1.5914
  900MOL0     H18771   8.067   1.457   7.187 -1.0226 -0.4545 -0.1115
  900MOL0     H18772   7.864   1.425   7.414  0.0203  0.3003 -0.1424
  900MOL0     H18773   7.849   1.524   7.263  2.4496 -0.7922 -2.6471
  900MOL0     H18774   7.865   1.220   7.270  0.2123  0.1003 -0.1056
  900MOL0     H18775   7.884   1.321   7.121 -0.2060  2.6631 -0.4955
  900MOL0     H18776   7.668   1.424   7.170 -1.1748 -1.8170 -2.6848
  900MOL0     H18777   7.650   1.336   7.325 -0.1894 -1.1688  0.6296
  900MOL0     H18778   7.675   1.187   7.059  1.3630  0.4063  0.3831
  900MOL0     H18779   7.625   1.116   7.209  0.6422 -0.2604 -1.1457
  900MOL0     H18780   7.426   1.141   7.113  0.0857 -0.2933 -0.2294
  900MOL0     H18781   7.458   1.311   7.053 -1.1417  0.5707  1.2174
  900MOL0     H18782   8.508   1.476   7.486  0.3642 -3.6617 -0.2419
  900MOL0     H18783   8.746   1.419   7.447 -1.0817  1.8269  0.8960
  900MOL0     H18784   9.105   1.348   7.236 -1.6598  1.7005 -3.1320
  900MOL0     H18785   9.335   1.261   7.212  2.3630 -3.1986 -0.5068
  900MOL0     H18786  10.816   0.652   6.878 -0.5293  1.7127  0.4641
  900MOL0     H18787  10.996   0.664   6.748 -0.7681 -1.1328 -0.3772
  900MOL0     H18788  11.515   0.796   6.831 -0.8900  1.2450 -0.4141
  900MOL0     H18789  11.723   0.829   6.716 -0.5329  0.1462 -0.1305
  900MOL0     H18790  11.693   0.939   6.306 -1.4035 -1.0550  2.6880
  900MOL0     H18791  11.779   0.784   6.271 -3.0934  0.5450 -2.3084
  900MOL0     H18792  11.885   1.052   6.265 -0.3139  0.1482 -1.2676
  900MOL0     H18793  11.916   0.996   6.425 -0.2746 -0.0587 -0.9530
  900MOL0     H18794  12.009   0.798   6.223 -0.9117  1.2138 -0.5207
  900MOL0     H18795  12.072   0.850   6.378  0.2853 -0.0441  0.1845
  900MOL0     H18796  12.104   1.001   6.111  0.9850 -2.0090  0.2805
  900MOL0     H18797  12.096   1.093   6.263  1.9863  0.4986  2.0052
  900MOL0     H18798  12.482   0.910   6.284 -0.7798  0.8084  2.2940
  900MOL0     H18799  11.538   0.780   6.333 -0.1357  1.6874 -0.6321
  900MOL0     H18800  11.333   0.689   6.453  1.9716 -1.0545 -1.8770
  901MOL0     O18801   9.607   6.111   6.301 -0.5794  0.0024  0.1535
  901MOL0     C18802   9.652   5.991   6.307  0.0672  0.4539 -0.0683
  901MOL0     O18803   9.580   5.882   6.277 -0.1881 -0.4521  0.5530
  901MOL0     C18804   9.450   5.897   6.240  0.0193 -0.4609 -0.3956
  901MOL0     C18805   9.350   5.839   6.323 -0.2641  0.4297 -0.2419
  901MOL0     C18806   9.212   5.842   6.294  1.4704 -0.2304  1.2766
  901MOL0     C18807   9.174   5.907   6.176 -0.6389 -0.3882  0.8360
  901MOL0     O18808   9.047   5.920   6.133 -0.4256 -0.2808 -0.3556
  901MOL0     C18809   8.958   5.970   6.238  0.4972 -1.0950  0.2534
  901MOL0     C18810   8.812   5.922   6.216 -0.5085  0.5077 -0.2745
  901MOL0     C18811   8.786   5.766   6.250 -0.6883  0.4040  0.3294
  901MOL0     C18812   8.642   5.733   6.277 -0.3076  0.7107  0.4796
  901MOL0     C18813   8.605   5.587   6.319 -0.1204 -1.5260 -0.1572
  901MOL0     C18814   8.683   5.472   6.258  0.0812 -1.0781 -0.1902
  901MOL0     C18815   8.653   5.440   6.114  0.2180  0.3273 -0.0958
  901MOL0     C18816   8.696   5.288   6.085  0.1204 -0.5281  0.2795
  901MOL0     N18817   8.677   5.256   5.946 -0.7519  0.5351 -0.2761
  901MOL0     C18818   8.742   5.311   5.838 -0.0162  0.2549  0.0504
  901MOL0     C18819   8.675   5.261   5.731  0.1412 -0.6779 -0.4769
  901MOL0     C18820   8.729   5.288   5.597 -0.2116  0.5041  0.5065
  901MOL0     C18821   8.621   5.262   5.492  0.2921 -0.2228  0.1751
  901MOL0     C18822   8.490   5.348   5.508 -0.0372 -0.2066  0.9279
  901MOL0     C18823   8.514   5.499   5.520 -0.1615  0.1095  0.3302
  901MOL0     O18824   8.387   5.567   5.509  0.2461 -0.1415 -0.2462
  901MOL0     C18825   8.303   5.572   5.617  0.3641 -0.0194 -0.6936
  901MOL0     C18826   8.323   5.510   5.742 -0.3131  0.3865 -0.1659
  901MOL0     C18827   8.223   5.504   5.838  0.3604  0.4652  0.5840
  901MOL0     C18828   8.094   5.552   5.810  0.3855 -0.5940 -0.3597
  901MOL0     C18829   7.984   5.548   5.909 -0.9830  0.0609 -1.0442
  901MOL0     O18830   7.860   5.576   5.858  0.7239 -0.0624 -0.3646
  901MOL0     C18831   7.748   5.542   5.926 -0.2590 -0.4901 -0.0111
  901MOL0     C18832   7.727   5.585   6.056 -0.4038  0.8870  0.4199
  901MOL0     C18833   7.599   5.558   6.114  0.5864  0.1466  0.3740
  901MOL0     C18834   7.507   5.473   6.052 -0.7377  0.4054  0.6947
  901MOL0     O18835   7.384   5.439   6.107 -0.3523 -0.7563  0.0679
  901MOL0     C18836   7.354   5.483   6.244 -0.8569  0.3864  0.1420
  901MOL0     C18837   7.213   5.423   6.286 -0.3790 -0.3627 -0.4672
  901MOL0     C18838   7.117   5.408   6.166 -0.1667 -0.3938 -0.2109
  901MOL0     C18839   6.970   5.377   6.204  0.4260  0.5613  0.3834
  901MOL0     C18840   6.888   5.361   6.079  0.3384  0.5264  0.3892
  901MOL0     C18841   6.766   5.269   6.103 -0.5818 -0.3300 -0.3822
  901MOL0     C18842   6.660   5.346   6.192  0.0610 -0.3235 -1.0794
  901MOL0     C18843   6.536   5.261   6.200  0.2365  0.5812  0.9745
  901MOL0    Cl18844   6.397   5.362   6.273 -0.3980 -0.0811  0.0366
  901MOL0     C18845   7.545   5.425   5.920  0.0068  1.0507  0.6748
  901MOL0     C18846   7.653   5.466   5.855 -0.4420 -0.0599 -0.3726
  901MOL0     O18847   8.009   5.521   6.026  0.5185 -0.4923  0.5057
  901MOL0     C18848   8.074   5.611   5.681 -0.3726 -0.0990 -0.5731
  901MOL0     C18849   8.176   5.613   5.587 -0.0843 -0.0596 -0.2653
  901MOL0     N18850   8.562   5.193   5.774  0.3264 -0.6134 -0.7116
  901MOL0     N18851   8.566   5.189   5.903 -0.1811 -0.0200  0.4922
  901MOL0     C18852   9.272   5.959   6.088 -0.0617 -0.1976  0.1136
  901MOL0     C18853   9.406   5.962   6.125 -0.0337  0.0827  0.5474
  901MOL0     C18854   9.795   5.973   6.331 -0.9721 -0.1004 -1.2398
  901MOL0     C18855   9.891   6.072   6.380  0.7193  0.1347 -0.4947
  901MOL0     C18856  10.025   6.042   6.397 -0.3716  0.7350 -0.2756
  901MOL0     C18857  10.077   5.916   6.360 -0.1600 -0.2550 -0.1249
  901MOL0     O18858  10.218   5.912   6.357 -0.8233 -0.4273  0.2571
  901MOL0     C18859  10.281   5.796   6.299 -0.0412  0.6224  0.4182
  901MOL0     C18860  10.430   5.785   6.335 -0.4994  0.0341 -0.6230
  901MOL0     C18861  10.519   5.864   6.243 -0.3368 -0.3836 -0.4736
  901MOL0     C18862  10.653   5.883   6.319  0.1446 -0.4360  0.1493
  901MOL0     C18863  10.763   5.922   6.233  0.1585 -0.4284 -0.7235
  901MOL0     C18864  10.850   5.951   6.157 -0.3936  0.2609  0.1453
  901MOL0     C18865   9.987   5.817   6.308 -1.4382  0.0737 -0.7896
  901MOL0     C18866   9.856   5.839   6.308  0.6959 -0.0912  0.1557
  901MOL0     H18867   9.380   5.798   6.419 -1.2270  3.1687  1.3489
  901MOL0     H18868   9.133   5.812   6.362 -1.1549  3.4707  0.1344
  901MOL0     H18869   8.965   6.079   6.235  1.1201 -1.1250  0.5601
  901MOL0     H18870   8.985   5.947   6.341 -0.8664  0.2561  0.9613
  901MOL0     H18871   8.775   5.953   6.118 -0.9644 -1.3547 -0.7354
  901MOL0     H18872   8.749   5.974   6.289  1.0448  0.3741  1.2129
  901MOL0     H18873   8.860   5.735   6.324  2.2049  2.5645 -1.4408
  901MOL0     H18874   8.806   5.710   6.158 -3.0680 -1.6560  0.9524
  901MOL0     H18875   8.599   5.805   6.348 -3.3011 -1.3636  0.9991
  901MOL0     H18876   8.591   5.766   6.186  2.6757  1.0375 -1.2034
  901MOL0     H18877   8.498   5.565   6.314 -0.1048 -1.7115  0.2845
  901MOL0     H18878   8.626   5.589   6.426  0.9928  1.2117 -0.3439
  901MOL0     H18879   8.633   5.391   6.312 -1.6097 -0.5734 -0.9222
  901MOL0     H18880   8.790   5.476   6.281  0.6449 -1.3949 -2.5099
  901MOL0     H18881   8.548   5.462   6.097  0.3365  2.1904  1.2589
  901MOL0     H18882   8.713   5.501   6.046 -0.0310  0.2508 -0.3837
  901MOL0     H18883   8.638   5.210   6.135  0.2956 -1.4638 -0.9440
  901MOL0     H18884   8.799   5.256   6.107  0.0888 -0.6636  0.2323
  901MOL0     H18885   8.820   5.385   5.842 -0.1710  0.4375 -0.3060
  901MOL0     H18886   8.811   5.216   5.596 -0.4203  0.1743  2.5041
  901MOL0     H18887   8.777   5.386   5.585 -0.5369  0.9066  2.2464
  901MOL0     H18888   8.583   5.160   5.508 -3.9317  1.0589 -0.2804
  901MOL0     H18889   8.647   5.272   5.386 -1.7248 -0.6305 -0.4040
  901MOL0     H18890   8.434   5.335   5.415  3.5521  0.0657 -1.4855
  901MOL0     H18891   8.421   5.305   5.581 -1.0480  0.1307  0.1954
  901MOL0     H18892   8.585   5.540   5.448  0.2683 -0.2089  0.5589
  901MOL0     H18893   8.556   5.518   5.620  1.9120 -1.8847 -0.0655
  901MOL0     H18894   8.417   5.463   5.771  0.4384  1.4930 -0.7320
  901MOL0     H18895   8.258   5.471   5.935  0.5335 -1.0246  0.0440
  901MOL0     H18896   7.804   5.651   6.094  1.9879 -0.5641 -1.6041
  901MOL0     H18897   7.578   5.594   6.215  1.8240 -0.5187  0.8974
  901MOL0     H18898   7.345   5.592   6.235 -3.8878  0.2424  0.5914
  901MOL0     H18899   7.431   5.458   6.317 -2.4113 -0.1600  1.6489
  901MOL0     H18900   7.176   5.495   6.360 -1.2498 -0.8303 -0.4368
  901MOL0     H18901   7.228   5.323   6.328 -1.1154  1.4489  4.8223
  901MOL0     H18902   7.155   5.325   6.107 -1.3544 -4.0194  3.6112
  901MOL0     H18903   7.121   5.501   6.108 -1.3000  0.1997  0.6245
  901MOL0     H18904   6.966   5.281   6.254  1.7236 -0.0973 -0.7062
  901MOL0     H18905   6.929   5.453   6.272  1.8645 -1.2722  3.4818
  901MOL0     H18906   6.937   5.311   5.995 -0.0247  2.9347 -1.3704
  901MOL0     H18907   6.852   5.461   6.051  1.6251 -0.1676 -4.6874
  901MOL0     H18908   6.804   5.180   6.155  2.1157  1.0265  0.1799
  901MOL0     H18909   6.721   5.241   6.007 -0.8882 -0.4926 -0.1925
  901MOL0     H18910   6.693   5.353   6.296 -0.1047 -1.9332 -0.8816
  901MOL0     H18911   6.637   5.442   6.146  0.8393 -0.4316 -1.7263
  901MOL0     H18912   6.543   5.172   6.263 -2.9847  0.8526  1.9045
  901MOL0     H18913   6.502   5.235   6.099 -1.8361  0.9067  1.5556
  901MOL0     H18914   7.473   5.361   5.870  0.5052  1.8344 -1.1049
  901MOL0     H18915   7.667   5.459   5.748  3.2020  3.6796 -0.4036
  901MOL0     H18916   7.979   5.636   5.637 -0.3029 -2.5034 -2.2742
  901MOL0     H18917   8.146   5.633   5.484 -2.6468  2.2680  0.8228
  901MOL0     H18918   9.243   6.000   5.992  0.2120 -3.1267 -1.3264
  901MOL0     H18919   9.478   5.997   6.051  0.8267 -2.4502  0.0877
  901MOL0     H18920   9.854   6.168   6.416  1.0100 -0.4296  1.4264
  901MOL0     H18921  10.091   6.120   6.434 -1.2458  1.2293  0.2753
  901MOL0     H18922  10.275   5.797   6.190 -2.5524  0.4005  0.4878
  901MOL0     H18923  10.225   5.708   6.331  1.6976 -0.9454 -0.6927
  901MOL0     H18924  10.438   5.814   6.440 -1.7640  0.5413 -0.6489
  901MOL0     H18925  10.456   5.679   6.323 -0.3004 -0.2240  1.7650
  901MOL0     H18926  10.478   5.963   6.222  1.7623  0.5135 -0.5911
  901MOL0     H18927  10.539   5.809   6.150 -1.7549 -1.7178 -0.0379
  901MOL0     H18928  10.655   5.957   6.400  3.5862 -0.4398  0.2349
  901MOL0     H18929  10.683   5.787   6.361 -0.4126 -0.6342  0.1009
  901MOL0     H18930  10.929   5.979   6.091 -0.1194  3.3530  1.6275
  901MOL0     H18931  10.020   5.723   6.266  3.2750  1.1381 -0.0882
  901MOL0     H18932   9.792   5.763   6.264 -0.0578  0.2100  0.7027
  902MOL0     O18933   7.791   5.685  10.378 -0.9605  0.2161 -0.0330
  902MOL0     C18934   7.789   5.757  10.283  1.0623  0.4856  0.0437
  902MOL0     O18935   7.892   5.830  10.227 -0.0275 -0.5307  0.5298
  902MOL0     C18936   8.019   5.817  10.285 -0.4333  0.7492  0.4140
  902MOL0     C18937   8.033   5.856  10.420  0.0713 -0.7554  0.2482
  902MOL0     C18938   8.155   5.834  10.487 -0.0979  1.0075  0.0847
  902MOL0     C18939   8.253   5.764  10.417 -0.3169  0.4594 -0.0745
  902MOL0     O18940   8.362   5.728  10.487  0.3233 -0.0542 -0.8853
  902MOL0     C18941   8.394   5.589  10.494  0.6154 -0.7256  0.5552
  902MOL0     C18942   8.533   5.564  10.550 -0.2255 -0.4568 -0.2747
  902MOL0     C18943   8.645   5.529  10.452  0.1317  0.0705  0.2945
  902MOL0     C18944   8.773   5.480  10.522  0.2363 -0.9768 -0.4585
  902MOL0     C18945   8.886   5.421  10.428  0.4612 -1.1186  0.0538
  902MOL0     C18946   8.939   5.539  10.342 -1.1591  0.8889 -0.5763
  902MOL0     C18947   9.044   5.501  10.239 -0.3987 -0.2540  0.3915
  902MOL0     C18948   8.991   5.448  10.101  0.2538 -0.0727  0.6947
  902MOL0     N18949   8.923   5.318  10.107  0.0107 -0.3275 -0.2262
  902MOL0     C18950   8.789   5.292  10.113 -0.0704  0.0184  0.5171
  902MOL0     C18951   8.771   5.162  10.134 -0.6792 -0.0230 -0.2886
  902MOL0     C18952   8.647   5.081  10.170  0.1784  0.4588  0.0738
  902MOL0     C18953   8.607   5.115  10.314  0.5631 -0.9525 -0.1598
  902MOL0     C18954   8.489   5.030  10.367  0.3614 -0.2919 -0.0245
  902MOL0     C18955   8.349   5.045  10.298  0.3596 -0.4806 -0.0598
  902MOL0     O18956   8.310   5.180  10.291 -0.3428 -0.9716 -0.7073
  902MOL0     C18957   8.178   5.211  10.264  0.2115  0.2137 -0.6059
  902MOL0     C18958   8.117   5.330  10.319 -0.0425  1.0815  1.2902
  902MOL0     C18959   7.987   5.361  10.286 -0.3601  0.0935 -0.5631
  902MOL0     C18960   7.910   5.279  10.208  0.1029  0.4964  0.6178
  902MOL0     C18961   7.775   5.316  10.165  0.2597 -0.1310  0.2796
  902MOL0     O18962   7.699   5.219  10.094  0.6153  0.3145 -0.0584
  902MOL0     C18963   7.581   5.268  10.044  0.0036  0.5591 -0.5672
  902MOL0     C18964   7.472   5.230  10.117  0.1112 -1.1614 -0.8317
  902MOL0     C18965   7.352   5.278  10.069  0.2263  0.7005  0.0161
  902MOL0     C18966   7.341   5.363   9.957 -0.6679  0.5023 -0.9307
  902MOL0     O18967   7.223   5.408   9.903  0.6687  0.3903  0.0654
  902MOL0     C18968   7.111   5.335   9.932  0.6132  0.3721  1.0550
  902MOL0     C18969   6.992   5.379   9.837  0.0082 -0.1886 -0.4623
  902MOL0     C18970   6.872   5.282   9.849  0.3827  0.3990  0.3792
  902MOL0     C18971   6.782   5.271   9.721  0.3614 -0.1167  0.3024
  902MOL0     C18972   6.657   5.173   9.729  0.0996  0.1297  0.6203
  902MOL0     C18973   6.538   5.240   9.665  0.3755 -0.6937  0.0721
  902MOL0     C18974   6.484   5.351   9.757  0.3864 -0.3763  0.6344
  902MOL0     C18975   6.382   5.293   9.847  0.4013  0.2829 -0.2601
  902MOL0    Cl18976   6.359   5.405   9.988 -0.0515 -0.1683  0.4091
  902MOL0     C18977   7.455   5.407   9.890 -0.2148 -0.8118  0.0757
  902MOL0     C18978   7.578   5.354   9.929 -0.3388  0.3341  0.0538
  902MOL0     O18979   7.733   5.429  10.203 -0.3037 -0.0308  0.3748
  902MOL0     C18980   7.962   5.159  10.168 -0.2016  0.7843  0.2137
  902MOL0     C18981   8.093   5.123  10.197 -1.1182  0.5470 -0.3506
  902MOL0     N18982   8.895   5.106  10.146 -0.0229  0.1807  0.1697
  902MOL0     N18983   8.985   5.196  10.130  0.4814  0.3016  0.3244
  902MOL0     C18984   8.239   5.736  10.277  0.0860 -0.5842  0.5691
  902MOL0     C18985   8.125   5.766  10.212  0.3444 -0.0103 -0.1931
  902MOL0     C18986   7.656   5.777  10.208 -0.9150 -0.6515 -0.6204
  902MOL0     C18987   7.644   5.890  10.123 -0.2099 -0.4590  0.2268
  902MOL0     C18988   7.519   5.912  10.066 -0.4098  0.5692  0.3057
  902MOL0     C18989   7.406   5.833  10.096  0.2177 -0.1208  0.4411
  902MOL0     O18990   7.281   5.848  10.038 -0.2260 -0.3522  0.4399
  902MOL0     C18991   7.258   5.969   9.975 -0.4660 -0.4648  0.4147
  902MOL0     C18992   7.111   5.968   9.953  0.4347  0.3859  0.6364
  902MOL0     C18993   7.069   6.093   9.864 -0.3513 -0.3845  0.0580
  902MOL0     C18994   6.918   6.092   9.851 -0.3392  0.3127  0.6425
  902MOL0     C18995   6.870   6.213   9.785 -0.3496  0.9479 -0.4711
  902MOL0     C18996   6.804   6.305   9.749  0.1627  0.7575 -1.1108
  902MOL0     C18997   7.424   5.720  10.183  0.4023  0.7786  0.2391
  902MOL0     C18998   7.547   5.701  10.241  0.2872  0.7966  0.8248
  902MOL0     H18999   7.946   5.901  10.467 -0.6312 -1.8597  0.0415
  902MOL0     H19000   8.165   5.859  10.592 -2.9730 -0.8661  0.9326
  902MOL0     H19001   8.393   5.556  10.390 -1.8240 -0.0527  0.3124
  902MOL0     H19002   8.323   5.534  10.556  0.1554 -0.3755  0.3509
  902MOL0     H19003   8.522   5.481  10.621  0.3602 -1.9870 -1.8953
  902MOL0     H19004   8.572   5.648  10.608 -1.7403 -0.1440  0.3443
  902MOL0     H19005   8.683   5.610  10.390  2.6048 -1.8097 -0.7926
  902MOL0     H19006   8.606   5.452  10.384  0.4360 -0.9774  1.2633
  902MOL0     H19007   8.817   5.562  10.580  0.1267 -0.2619 -1.3619
  902MOL0     H19008   8.740   5.402  10.591 -1.6505  0.4441  0.3676
  902MOL0     H19009   8.842   5.346  10.363 -3.2224  0.0612  0.9291
  902MOL0     H19010   8.968   5.379  10.487  0.9017  0.0601  0.3107
  902MOL0     H19011   8.977   5.618  10.406  1.5168  1.2167 -2.4124
  902MOL0     H19012   8.868   5.583  10.270 -2.5500 -0.6080 -0.1944
  902MOL0     H19013   9.104   5.591  10.220  0.1371  0.2897  3.9474
  902MOL0     H19014   9.114   5.426  10.278 -1.8868 -0.3153  3.1488
  902MOL0     H19015   9.081   5.429  10.041 -0.5725  0.3735 -0.7337
  902MOL0     H19016   8.926   5.519  10.049 -0.2809 -0.8825  0.2229
  902MOL0     H19017   8.711   5.367  10.112  0.1071  0.2387  1.6582
  902MOL0     H19018   8.668   4.975  10.153 -1.1539  0.1563  0.1934
  902MOL0     H19019   8.573   5.119  10.099  1.7772  0.7817 -1.4726
  902MOL0     H19020   8.575   5.218  10.330  2.4372  0.0580 -2.3365
  902MOL0     H19021   8.699   5.097  10.370 -0.1557  2.3951  2.4325
  902MOL0     H19022   8.517   4.925  10.354  1.0751 -0.1425  0.3089
  902MOL0     H19023   8.475   5.054  10.472 -0.6077  3.3434 -0.8595
  902MOL0     H19024   8.276   4.976  10.341 -0.8285  0.4827 -0.5116
  902MOL0     H19025   8.366   5.015  10.194 -0.3723 -3.0049  0.4753
  902MOL0     H19026   8.176   5.393  10.385 -0.2166  0.3493  2.1721
  902MOL0     H19027   7.940   5.452  10.323 -0.3833 -0.1920  0.1267
  902MOL0     H19028   7.478   5.168  10.206  3.3826 -0.0080 -0.0962
  902MOL0     H19029   7.259   5.243  10.114  0.4017  0.0442 -0.1207
  902MOL0     H19030   7.074   5.366  10.030  0.2467  0.3983  0.9077
  902MOL0     H19031   7.121   5.227   9.919 -2.9926  0.1286 -1.0260
  902MOL0     H19032   7.026   5.385   9.733 -0.0157 -0.2850 -0.4754
  902MOL0     H19033   6.961   5.482   9.858  1.1006  0.3261 -1.2453
  902MOL0     H19034   6.806   5.316   9.930 -0.4605 -1.7677  0.6956
  902MOL0     H19035   6.903   5.180   9.873 -0.6712  0.0984  0.5401
  902MOL0     H19036   6.747   5.373   9.703  1.3159 -0.0265 -1.1725
  902MOL0     H19037   6.835   5.247   9.629  0.4901 -1.7938  0.7830
  902MOL0     H19038   6.647   5.129   9.828  3.2093 -1.9653  0.1527
  902MOL0     H19039   6.697   5.090   9.669 -0.5820 -0.0323  0.3830
  902MOL0     H19040   6.460   5.168   9.642 -0.0293  0.4083 -2.3474
  902MOL0     H19041   6.569   5.277   9.566  0.5733 -3.4109 -0.9806
  902MOL0     H19042   6.570   5.383   9.816  1.2927 -2.4328  0.5030
  902MOL0     H19043   6.446   5.437   9.700 -0.8559 -1.0239  0.4576
  902MOL0     H19044   6.409   5.188   9.861  2.0343  0.4211 -2.0202
  902MOL0     H19045   6.286   5.301   9.796  0.4533  1.7688 -0.1696
  902MOL0     H19046   7.463   5.474   9.805 -0.0953  2.6990  2.6665
  902MOL0     H19047   7.673   5.382   9.884  0.2143  3.0977  2.6076
  902MOL0     H19048   7.916   5.100  10.088 -0.9432  1.8976 -0.2084
  902MOL0     H19049   8.144   5.037  10.153  0.2393  1.7135 -1.1428
  902MOL0     H19050   8.319   5.689  10.220  3.1334  1.0948  3.1110
  902MOL0     H19051   8.120   5.750  10.105  0.8644  0.0150 -0.2204
  902MOL0     H19052   7.733   5.948  10.100 -1.1690  1.1084  0.3226
  902MOL0     H19053   7.516   5.995   9.996  0.1691  0.6552  0.3805
  902MOL0     H19054   7.314   5.969   9.881  0.5233  0.6066  0.9823
  902MOL0     H19055   7.282   6.063  10.026 -0.0242 -0.8912  1.0089
  902MOL0     H19056   7.089   5.878   9.895 -1.7430 -0.3063  2.3957
  902MOL0     H19057   7.043   5.985  10.037 -0.0975  2.4477 -0.1349
  902MOL0     H19058   7.107   6.101   9.762 -1.1423 -1.9957 -0.3906
  902MOL0     H19059   7.101   6.178   9.926  2.6523 -1.4175  0.0805
  902MOL0     H19060   6.909   6.007   9.782  0.1269  0.9323 -0.1907
  902MOL0     H19061   6.875   6.062   9.947 -0.9700  0.1959  0.3298
  902MOL0     H19062   6.742   6.388   9.723 -3.0595 -0.0342  2.8726
  902MOL0     H19063   7.350   5.642  10.196  0.2030  0.5733 -1.8590
  902MOL0     H19064   7.573   5.615  10.302 -2.6114 -2.6046 -2.2171
  903MOL0     O19065   7.160   0.305  10.163  0.0941  0.0423 -0.1590
  903MOL0     C19066   7.224   0.251  10.254 -0.8292 -0.6794 -0.6236
  903MOL0     O19067   7.200   0.260  10.390 -0.8467 -0.2439 -0.1943
  903MOL0     C19068   7.084   0.298  10.444  0.2825  1.3167  0.3020
  903MOL0     C19069   6.975   0.205  10.469 -0.6811 -0.0756 -0.0320
  903MOL0     C19070   6.865   0.246  10.546 -0.5667  0.5659  0.3986
  903MOL0     C19071   6.858   0.378  10.591  0.7047 -0.6019  0.4888
  903MOL0     O19072   6.756   0.427  10.664  0.0794  0.3139 -0.4019
  903MOL0     C19073   6.624   0.362  10.659 -0.0245 -0.9458 -0.1234
  903MOL0     C19074   6.526   0.419  10.757 -0.3078  0.6324  0.3396
  903MOL0     C19075   6.385   0.374  10.731  0.8341  1.0613 -0.3013
  903MOL0     C19076   6.291   0.403  10.845 -0.5103 -0.1985 -0.0894
  903MOL0     C19077   6.137   0.385  10.816  0.0544 -0.1518 -0.5160
  903MOL0     C19078   6.061   0.423  10.948 -0.3733  0.7114  0.1085
  903MOL0     C19079   5.917   0.385  10.942  0.0979  0.2492  0.7359
  903MOL0     C19080   5.837   0.438  11.071  0.0761  0.4979  0.0100
  903MOL0     N19081   5.706   0.380  11.092  0.3188  0.3852  0.2701
  903MOL0     C19082   5.641   0.371  11.207  0.3940  0.0557  0.2005
  903MOL0     C19083   5.516   0.323  11.169  0.6552  0.3638 -0.0263
  903MOL0     C19084   5.399   0.289  11.262  0.6754  0.0227  0.1148
  903MOL0     C19085   5.298   0.405  11.272 -0.0324 -0.1496  0.1137
  903MOL0     C19086   5.226   0.405  11.400  0.4280 -0.7479 -0.2288
  903MOL0     C19087   5.114   0.510  11.386 -0.1562  0.0739 -0.5499
  903MOL0     O19088   4.993   0.454  11.343 -0.0817 -0.2094  0.8133
  903MOL0     C19089   4.897   0.422  11.438 -0.7384  0.3332 -0.0855
  903MOL0     C19090   4.770   0.437  11.397  0.2985 -0.0645 -0.1356
  903MOL0     C19091   4.657   0.406  11.470  0.3821 -0.7537 -0.0224
  903MOL0     C19092   4.680   0.366  11.611  0.2790 -0.0297  0.1526
  903MOL0     C19093   4.566   0.343  11.711  0.0034  0.1884  1.4705
  903MOL0     O19094   4.601   0.286  11.829  0.0523 -0.4927  0.0636
  903MOL0     C19095   4.513   0.297  11.932  0.1493 -0.7259  0.5736
  903MOL0     C19096   4.402   0.216  11.934 -1.1182  0.2390 -0.0114
  903MOL0     C19097   4.301   0.232  12.030  0.6036  0.0767 -1.5423
  903MOL0     C19098   4.313   0.338  12.125  0.0785  0.2984  0.2812
  903MOL0     O19099   4.200   0.354  12.204 -0.0324 -0.9017  0.2238
  903MOL0     C19100   4.193   0.475  12.283 -0.3215 -0.0825 -0.7384
  903MOL0     C19101   4.069   0.475  12.355  0.0333 -0.1402  0.5334
  903MOL0     C19102   4.060   0.367  12.470  1.5126  0.9434 -0.7235
  903MOL0     C19103   3.910   0.355  12.523 -0.8644  0.4069  0.5071
  903MOL0     C19104   3.911   0.247  12.633 -0.1299 -0.4448 -0.4761
  903MOL0     C19105   3.777   0.250  12.709  0.3888  0.4732 -0.2504
  903MOL0     C19106   3.650   0.234  12.626  0.4282 -0.3258  0.3515
  903MOL0     C19107   3.535   0.222  12.718 -0.7310  0.3589 -0.1621
  903MOL0    Cl19108   3.456   0.384  12.740 -0.1684 -0.3973  0.3314
  903MOL0     C19109   4.429   0.415  12.133  0.1534  0.1470 -0.4121
  903MOL0     C19110   4.525   0.391  12.031 -0.6485 -0.0741  0.0387
  903MOL0     O19111   4.457   0.361  11.663  0.9717  0.5425  0.4365
  903MOL0     C19112   4.822   0.355  11.654 -1.1432  0.2038 -0.0391
  903MOL0     C19113   4.931   0.372  11.561  0.7499  0.2956  0.4368
  903MOL0     N19114   5.511   0.314  11.029  0.2547 -0.2728 -0.2546
  903MOL0     N19115   5.627   0.344  10.991 -0.1064  0.2084  0.3816
  903MOL0     C19116   6.957   0.469  10.558 -0.3815 -0.0472 -0.4263
  903MOL0     C19117   7.073   0.430  10.481  0.7973 -0.6897 -0.6372
  903MOL0     C19118   7.354   0.206  10.214  0.4386 -0.6057  0.2912
  903MOL0     C19119   7.460   0.180  10.310  1.1258  0.2731  0.9068
  903MOL0     C19120   7.587   0.133  10.252 -0.1906 -0.7703 -0.1067
  903MOL0     C19121   7.601   0.115  10.118  0.1003 -0.0248  0.7658
  903MOL0     O19122   7.727   0.078  10.075  0.5335  0.0816  0.3102
  903MOL0     C19123   7.752   0.098   9.935  0.5025 -0.0665  0.6204
  903MOL0     C19124   7.907   0.085   9.918  0.0556 -1.0866 -0.3434
  903MOL0     C19125   7.971  -0.051   9.949  0.4468  0.5699  0.1161
  903MOL0     C19126   7.989  -0.091  10.099  0.2363 -0.0977  0.8062
  903MOL0     C19127   8.062   0.010  10.176  0.1611  0.1226  0.1448
  903MOL0     C19128   8.125   0.087  10.242 -0.4443 -0.4265  0.4930
  903MOL0     C19129   7.495   0.140  10.032  0.2002  0.1033  0.0333
  903MOL0     C19130   7.373   0.182  10.074 -0.0122 -0.4292 -0.1510
  903MOL0     H19131   6.986   0.100  10.444 -0.0138 -0.4407  1.6456
  903MOL0     H19132   6.787   0.174  10.568 -1.0727  1.6134  2.2186
  903MOL0     H19133   6.637   0.254  10.676  2.9165 -0.5000  0.8753
  903MOL0     H19134   6.576   0.371  10.561 -1.5388  4.4724  0.7798
  903MOL0     H19135   6.540   0.527  10.749 -0.3415  0.7378  1.5259
  903MOL0     H19136   6.551   0.386  10.859 -3.0472  0.3993  1.0190
  903MOL0     H19137   6.380   0.268  10.704 -0.3895  1.1451 -0.4998
  903MOL0     H19138   6.349   0.437  10.649  1.1794  0.7565 -0.6870
  903MOL0     H19139   6.329   0.345  10.929  1.9999  0.9946 -0.3306
  903MOL0     H19140   6.298   0.511  10.863 -1.0061 -0.3650  1.2395
  903MOL0     H19141   6.120   0.280  10.792 -0.0481 -0.2612  0.0153
  903MOL0     H19142   6.096   0.449  10.737  0.9742 -1.7042 -2.3277
  903MOL0     H19143   6.063   0.530  10.971 -2.2489  0.4750  1.6575
  903MOL0     H19144   6.107   0.378  11.036 -1.2988  2.7504  1.7362
  903MOL0     H19145   5.881   0.421  10.845  0.2073 -4.9267 -1.6053
  903MOL0     H19146   5.908   0.276  10.935  2.0448  0.1569 -2.3804
  903MOL0     H19147   5.819   0.545  11.056 -0.2783  0.1355 -2.4800
  903MOL0     H19148   5.897   0.427  11.162  1.9735  1.3100 -1.0759
  903MOL0     H19149   5.659   0.411  11.307 -1.6860 -1.8984  1.4557
  903MOL0     H19150   5.447   0.269  11.359  3.5233  1.1357 -0.9654
  903MOL0     H19151   5.351   0.199  11.221  2.3681 -0.6034 -0.5647
  903MOL0     H19152   5.222   0.389  11.194 -0.6413 -0.6890  0.7970
  903MOL0     H19153   5.348   0.502  11.260 -1.6005  1.1649  3.0595
  903MOL0     H19154   5.182   0.306  11.415  1.1157 -1.0265 -0.0223
  903MOL0     H19155   5.294   0.417  11.484 -0.5440 -2.6151  0.8957
  903MOL0     H19156   5.159   0.582  11.317 -0.6853 -0.4608 -1.4774
  903MOL0     H19157   5.099   0.563  11.480 -0.4175  1.3703 -1.2940
  903MOL0     H19158   4.743   0.472  11.298 -0.9271 -2.4703 -0.7390
  903MOL0     H19159   4.559   0.397  11.424  0.6772 -1.5133 -0.5267
  903MOL0     H19160   4.401   0.133  11.865  0.2588 -0.9298  1.3144
  903MOL0     H19161   4.219   0.161  12.017  1.8744 -1.2357 -2.7379
  903MOL0     H19162   4.183   0.564  12.221  0.5146  0.6486  0.1394
  903MOL0     H19163   4.273   0.485  12.358 -2.3077  0.9016  1.3792
  903MOL0     H19164   3.999   0.440  12.279  0.6720 -1.8998  0.7224
  903MOL0     H19165   4.038   0.573  12.393 -2.5962  0.0997 -1.8985
  903MOL0     H19166   4.137   0.382  12.546  0.1841  0.4809  0.7722
  903MOL0     H19167   4.077   0.271  12.420 -1.6386  0.6982 -1.5656
  903MOL0     H19168   3.898   0.454  12.567 -2.6354  1.0160 -1.1898
  903MOL0     H19169   3.836   0.342  12.443  0.2179 -0.2071 -0.4131
  903MOL0     H19170   3.993   0.267  12.704 -0.1007 -0.6633 -0.4469
  903MOL0     H19171   3.945   0.150  12.596  4.7327  0.5874  0.4966
  903MOL0     H19172   3.766   0.350  12.751  0.8268  0.1571  0.6423
  903MOL0     H19173   3.788   0.178  12.790  2.3756  0.4644 -0.4621
  903MOL0     H19174   3.630   0.308  12.548 -2.8093 -0.1857  1.1873
  903MOL0     H19175   3.668   0.135  12.584 -0.9475  0.8988 -3.6086
  903MOL0     H19176   3.561   0.179  12.815 -0.5812  1.7956  0.4687
  903MOL0     H19177   3.460   0.156  12.675  2.0977 -3.2077 -0.0611
  903MOL0     H19178   4.437   0.490  12.211  0.2159 -2.3215  2.0897
  903MOL0     H19179   4.617   0.448  12.017 -0.9090  0.8024  1.6623
  903MOL0     H19180   4.849   0.336  11.757  3.1035  0.5123 -0.9133
  903MOL0     H19181   5.029   0.331  11.583 -0.1936 -1.9553  0.6992
  903MOL0     H19182   6.956   0.561  10.616  0.3793 -1.6788  2.3542
  903MOL0     H19183   7.154   0.498  10.460  0.7270 -0.1096  0.8426
  903MOL0     H19184   7.453   0.190  10.417 -1.2472  2.8473  0.6117
  903MOL0     H19185   7.662   0.115  10.329 -1.1498 -0.4195  0.9422
  903MOL0     H19186   7.723   0.201   9.912 -2.3696 -0.7656  0.8068
  903MOL0     H19187   7.703   0.022   9.874  2.3444  0.0237 -1.0949
  903MOL0     H19188   7.930   0.111   9.814  0.6996 -0.3389 -0.0264
  903MOL0     H19189   7.957   0.161   9.978 -1.3311  0.2213 -0.7648
  903MOL0     H19190   8.064  -0.069   9.895 -0.3526 -1.0879 -0.8022
  903MOL0     H19191   7.898  -0.125   9.914 -0.7308  1.7463  0.0171
  903MOL0     H19192   7.892  -0.108  10.146  0.8376  0.5111  2.3675
  903MOL0     H19193   8.048  -0.183  10.096  0.0548 -0.2066 -2.4090
  903MOL0     H19194   8.174   0.148  10.315 -1.8221  2.2158 -0.6418
  903MOL0     H19195   7.507   0.131   9.925  0.0397  0.4383 -0.0149
  903MOL0     H19196   7.294   0.192  10.000  1.3061 -0.0035 -1.5399
  904MOL0     O19197   1.935   5.652   6.505  0.1322 -0.3688  0.5527
  904MOL0     C19198   2.020   5.730   6.451  0.4543  0.0334 -0.4914
  904MOL0     O19199   2.015   5.861   6.456 -0.1937 -0.6734 -0.4305
  904MOL0     C19200   1.898   5.936   6.487 -0.1197  0.3430 -0.0871
  904MOL0     C19201   1.766   5.908   6.440  0.0759  0.0985 -1.3660
  904MOL0     C19202   1.666   5.999   6.461  0.5260  0.1179  0.0826
  904MOL0     C19203   1.690   6.126   6.524 -0.3801  0.1425  0.7698
  904MOL0     O19204   1.598   6.227   6.525 -0.0967 -0.1795  0.7165
  904MOL0     C19205   1.466   6.201   6.568 -0.0574  0.3920  0.6757
  904MOL0     C19206   1.424   6.308   6.663 -0.6666  0.0323 -0.9825
  904MOL0     C19207   1.293   6.274   6.740 -0.4680 -0.4614  0.3083
  904MOL0     C19208   1.160   6.297   6.661 -0.6748 -0.6136  0.4960
  904MOL0     C19209   1.037   6.291   6.742 -0.4132 -0.3036 -0.3384
  904MOL0     C19210   1.016   6.152   6.803 -0.3171 -0.3788 -0.7638
  904MOL0     C19211   0.872   6.115   6.835  0.3183 -0.6276 -0.0189
  904MOL0     C19212   0.780   6.069   6.722  0.6693  0.1095 -0.2088
  904MOL0     N19213   0.647   6.042   6.774  0.3323  0.1092  0.1358
  904MOL0     C19214   0.555   6.128   6.837  0.5754 -0.5725 -0.2715
  904MOL0     C19215   0.463   6.041   6.887  0.2367 -0.4535  0.2684
  904MOL0     C19216   0.336   6.068   6.962  0.3357  0.5594 -0.2562
  904MOL0     C19217   0.256   6.183   6.926 -0.2848  0.3455  0.4646
  904MOL0     C19218   0.175   6.248   7.039  0.8711 -0.6846 -0.4108
  904MOL0     C19219   0.064   6.168   7.107  0.6257 -0.7701  0.2000
  904MOL0     O19220  -0.033   6.131   7.006 -0.3941 -1.0793  0.7242
  904MOL0     C19221  -0.150   6.066   7.054 -0.1084 -0.7151 -1.1071
  904MOL0     C19222  -0.265   6.052   6.972  0.2160  0.7399 -0.1243
  904MOL0     C19223  -0.391   5.992   7.021  0.2490  0.2886  1.0767
  904MOL0     C19224  -0.400   5.948   7.154  0.3286 -0.1974 -0.8621
  904MOL0     C19225  -0.534   5.885   7.201 -0.3845 -0.2859 -0.1029
  904MOL0     O19226  -0.616   5.851   7.101  0.4397 -0.1046  0.2786
  904MOL0     C19227  -0.734   5.778   7.120 -0.1768  0.4427 -0.1313
  904MOL0     C19228  -0.833   5.791   7.017 -0.6472  0.1840  0.2791
  904MOL0     C19229  -0.952   5.720   7.019  0.5313 -0.7612 -0.3650
  904MOL0     C19230  -0.978   5.633   7.126  0.3618 -0.0187 -0.0818
  904MOL0     O19231  -1.075   5.536   7.128 -0.2769  0.4987  0.5244
  904MOL0     C19232  -1.210   5.584   7.112 -0.7174  0.1128 -1.2344
  904MOL0     C19233  -1.306   5.473   7.156  0.1707  0.6860  0.2955
  904MOL0     C19234  -1.430   5.483   7.067 -0.9210  0.0874  0.9386
  904MOL0     C19235  -1.529   5.380   7.099 -0.4353  0.4608 -1.0013
  904MOL0     C19236  -1.653   5.402   7.014 -0.5766 -1.1164  0.3277
  904MOL0     C19237  -1.753   5.288   7.037  0.5726  0.4686 -0.8769
  904MOL0     C19238  -1.878   5.311   6.946 -0.5414 -0.0691 -0.7718
  904MOL0     C19239  -1.970   5.197   6.956  0.1300  0.7595 -0.5888
  904MOL0    Cl19240  -2.129   5.259   6.881  0.0473 -0.1002 -0.1070
  904MOL0     C19241  -0.881   5.617   7.220  0.0684 -0.4841  0.2866
  904MOL0     C19242  -0.765   5.691   7.230 -0.3579  0.0721  0.0647
  904MOL0     O19243  -0.546   5.853   7.323 -0.2893  0.3475  0.7906
  904MOL0     C19244  -0.282   5.966   7.236 -0.8756 -0.7289  0.4965
  904MOL0     C19245  -0.168   6.021   7.185 -0.6580  0.1948 -0.2781
  904MOL0     N19246   0.492   5.908   6.857 -0.6809 -0.2406  0.1304
  904MOL0     N19247   0.602   5.911   6.788 -1.2572  0.2419 -0.1640
  904MOL0     C19248   1.817   6.151   6.575  1.1025 -0.2877 -0.2702
  904MOL0     C19249   1.915   6.055   6.559 -0.1690 -0.6128 -0.0616
  904MOL0     C19250   2.148   5.677   6.398  0.4820  0.8362 -0.3278
  904MOL0     C19251   2.241   5.750   6.333 -0.9535  0.3927  0.6619
  904MOL0     C19252   2.355   5.697   6.273  0.2498 -0.4011 -0.1425
  904MOL0     C19253   2.390   5.561   6.295 -1.0091  0.2055  0.5457
  904MOL0     O19254   2.513   5.526   6.253 -0.1815  0.7864 -0.3208
  904MOL0     C19255   2.548   5.389   6.283  0.4049  1.3298 -0.6388
  904MOL0     C19256   2.698   5.355   6.247  0.5044  0.8465 -0.7984
  904MOL0     C19257   2.796   5.465   6.276  0.2450  0.6899 -0.2544
  904MOL0     C19258   2.950   5.423   6.263 -0.4814  0.3246  0.3907
  904MOL0     C19259   2.990   5.296   6.333  0.3387  0.5496 -0.2553
  904MOL0     C19260   3.022   5.197   6.397 -0.4695 -0.4238 -1.1500
  904MOL0     C19261   2.304   5.484   6.378 -0.1594 -0.0793 -0.3130
  904MOL0     C19262   2.184   5.544   6.423 -1.0712 -0.2824  0.8889
  904MOL0     H19263   1.733   5.818   6.390 -0.9107 -1.1026  1.2409
  904MOL0     H19264   1.570   5.966   6.425 -0.8811  3.2244  0.6806
  904MOL0     H19265   1.467   6.103   6.616  0.5570  0.1170  0.1099
  904MOL0     H19266   1.398   6.181   6.485  1.7524  1.8697 -1.2688
  904MOL0     H19267   1.424   6.405   6.612 -0.2993  0.1957 -0.6760
  904MOL0     H19268   1.486   6.310   6.753 -2.2813 -2.5706  0.3019
  904MOL0     H19269   1.285   6.329   6.835 -0.6718  2.1223 -1.1118
  904MOL0     H19270   1.302   6.170   6.773 -0.1994 -0.3777  0.5113
  904MOL0     H19271   1.162   6.393   6.608  1.9932  0.3259  2.1178
  904MOL0     H19272   1.156   6.230   6.575  0.8057  0.3001 -0.3342
  904MOL0     H19273   0.953   6.308   6.674 -0.0041 -1.5775 -1.1930
  904MOL0     H19274   1.035   6.368   6.820  1.4055  1.4798 -1.9671
  904MOL0     H19275   1.081   6.140   6.890  1.5132 -0.3331 -2.0532
  904MOL0     H19276   1.051   6.073   6.735 -0.8090  0.1649 -1.6633
  904MOL0     H19277   0.889   6.030   6.902  3.3474 -1.3747 -1.5499
  904MOL0     H19278   0.823   6.190   6.898  0.1896 -0.2862 -0.5202
  904MOL0     H19279   0.817   5.987   6.660  0.3799 -0.6380  0.5986
  904MOL0     H19280   0.772   6.151   6.649 -0.4531 -1.3219 -1.7657
  904MOL0     H19281   0.552   6.236   6.853 -2.4958 -0.4365 -0.9905
  904MOL0     H19282   0.374   6.080   7.063  0.3949  1.0951 -0.3358
  904MOL0     H19283   0.269   5.981   6.965  0.1618  0.7038  0.1027
  904MOL0     H19284   0.176   6.146   6.862 -0.1727 -0.0606  0.5535
  904MOL0     H19285   0.314   6.262   6.876 -1.0979  0.4099 -0.3997
  904MOL0     H19286   0.244   6.282   7.117 -1.4863 -0.1397  1.5829
  904MOL0     H19287   0.125   6.339   7.005 -0.0033 -0.5598  1.0754
  904MOL0     H19288   0.019   6.224   7.189  1.0118 -0.8423  0.4598
  904MOL0     H19289   0.108   6.075   7.144 -1.4138 -1.7589  0.3134
  904MOL0     H19290  -0.255   6.094   6.872 -0.0187 -1.4331 -1.1165
  904MOL0     H19291  -0.469   5.978   6.946  0.9281 -0.3150  0.4667
  904MOL0     H19292  -0.802   5.862   6.940  1.0431  1.3061  1.9116
  904MOL0     H19293  -1.019   5.724   6.934 -0.7769  1.3332  0.6799
  904MOL0     H19294  -1.218   5.608   7.006  1.2652 -0.1311 -1.4733
  904MOL0     H19295  -1.221   5.675   7.171 -1.4971 -0.1183 -0.9995
  904MOL0     H19296  -1.324   5.467   7.264 -2.4206  1.5212 -0.0424
  904MOL0     H19297  -1.257   5.378   7.130 -0.8415  0.1666  0.2575
  904MOL0     H19298  -1.412   5.480   6.959 -0.0110  1.3015  1.0371
  904MOL0     H19299  -1.477   5.579   7.089 -4.0621 -1.9895  4.8170
  904MOL0     H19300  -1.486   5.284   7.067 -1.0948  0.2339 -1.2210
  904MOL0     H19301  -1.545   5.373   7.207  0.7125  3.9693 -0.4691
  904MOL0     H19302  -1.628   5.394   6.908 -0.9687  2.4658 -0.1394
  904MOL0     H19303  -1.701   5.499   7.027 -0.0733 -0.6879 -0.9132
  904MOL0     H19304  -1.785   5.302   7.141 -0.7385  2.1375 -1.4557
  904MOL0     H19305  -1.703   5.195   7.011 -1.9020 -0.8137 -1.2998
  904MOL0     H19306  -1.927   5.404   6.978 -0.8469  0.3674 -2.3952
  904MOL0     H19307  -1.843   5.318   6.843 -0.3854  0.3649 -0.6911
  904MOL0     H19308  -1.980   5.190   7.065  0.6790  1.0893 -0.5115
  904MOL0     H19309  -1.933   5.102   6.916  2.3752  1.6956 -0.8827
  904MOL0     H19310  -0.908   5.550   7.301 -1.9289  0.0761  0.1272
  904MOL0     H19311  -0.702   5.676   7.317 -0.9445  1.8562  0.8543
  904MOL0     H19312  -0.275   5.922   7.335  1.9255 -0.4017  0.5156
  904MOL0     H19313  -0.078   6.009   7.244 -0.8464 -1.8224 -0.3178
  904MOL0     H19314   1.853   6.242   6.623  1.1184 -0.9706  1.0313
  904MOL0     H19315   2.012   6.081   6.599  0.1385  1.5715 -1.9789
  904MOL0     H19316   2.226   5.857   6.325 -3.6336  0.0758  0.5161
  904MOL0     H19317   2.420   5.771   6.227 -0.9279 -0.1997 -1.5701
  904MOL0     H19318   2.492   5.321   6.218 -0.4694  1.2014  0.2267
  904MOL0     H19319   2.523   5.358   6.385 -1.1776  0.7165 -1.1751
  904MOL0     H19320   2.718   5.264   6.305  0.9145  1.2420 -0.3183
  904MOL0     H19321   2.687   5.320   6.144  2.0307 -0.1336 -0.6601
  904MOL0     H19322   2.789   5.494   6.382  1.3441  0.0029  0.0256
  904MOL0     H19323   2.783   5.548   6.207  1.6783  0.3913 -0.9317
  904MOL0     H19324   2.972   5.404   6.157 -0.1191  3.3004 -0.1420
  904MOL0     H19325   2.997   5.517   6.291 -1.0325  1.3080 -1.7584
  904MOL0     H19326   3.055   5.120   6.464  2.1314  2.2481  0.8964
  904MOL0     H19327   2.321   5.379   6.399  0.9313  0.1310 -0.0779
  904MOL0     H19328   2.121   5.475   6.478 -2.7934 -0.7463 -1.4818
  905MOL0     O19329   2.595   0.621   9.190 -0.5510 -0.0088 -0.2618
  905MOL0     C19330   2.607   0.522   9.263 -0.2705  0.2131 -0.0114
  905MOL0     O19331   2.502   0.444   9.306 -0.5229  0.4274  0.3510
  905MOL0     C19332   2.378   0.485   9.264 -0.0294  0.3166  0.0133
  905MOL0     C19333   2.337   0.497   9.132  0.4966 -0.0649  0.6311
  905MOL0     C19334   2.203   0.533   9.098 -0.4646  0.1214  0.0100
  905MOL0     C19335   2.104   0.555   9.198 -0.7161 -0.1830 -0.1974
  905MOL0     O19336   1.966   0.574   9.172 -0.2045  0.3011  0.0536
  905MOL0     C19337   1.931   0.621   9.046  0.6262  0.4225  0.5889
  905MOL0     C19338   1.776   0.666   9.048 -1.0331  0.1346  0.3207
  905MOL0     C19339   1.677   0.552   9.074  0.1882 -0.6711  0.0411
  905MOL0     C19340   1.540   0.625   9.103 -0.2262  0.4939  0.0439
  905MOL0     C19341   1.416   0.534   9.116  0.7391  0.0215 -0.8365
  905MOL0     C19342   1.279   0.609   9.134  1.0196  0.4386 -0.7171
  905MOL0     C19343   1.264   0.680   9.270 -0.2417  0.2750 -0.0771
  905MOL0     C19344   1.135   0.762   9.290 -0.7265  0.5085  0.0908
  905MOL0     N19345   1.025   0.675   9.324 -0.7443  0.3266  0.3362
  905MOL0     C19346   0.914   0.653   9.259 -0.6714  0.3131  0.7498
  905MOL0     C19347   0.839   0.572   9.345  0.0312  0.2019 -0.0359
  905MOL0     C19348   0.708   0.507   9.294 -0.0732 -0.6057 -0.5362
  905MOL0     C19349   0.583   0.532   9.383  0.3468 -0.0090  0.4651
  905MOL0     C19350   0.607   0.487   9.530 -0.3177 -0.0636 -0.3293
  905MOL0     C19351   0.485   0.534   9.620  0.1338  0.3709 -1.0410
  905MOL0     O19352   0.366   0.483   9.567  0.3719  0.4818 -0.3374
  905MOL0     C19353   0.255   0.512   9.636  0.9975 -0.4554  0.4005
  905MOL0     C19354   0.142   0.448   9.587  0.5356  0.8420 -0.5154
  905MOL0     C19355   0.012   0.475   9.633  0.5226  0.2336  0.2035
  905MOL0     C19356  -0.010   0.554   9.750 -1.3236  0.1286 -0.7004
  905MOL0     C19357  -0.149   0.573   9.801 -0.6407  0.3679 -0.1536
  905MOL0     O19358  -0.244   0.488   9.744  0.2445 -0.3165  0.0285
  905MOL0     C19359  -0.375   0.506   9.793 -0.3322 -0.4911  0.3571
  905MOL0     C19360  -0.405   0.484   9.928  0.1393 -0.0374 -0.4183
  905MOL0     C19361  -0.528   0.530   9.975  0.8905  0.4162 -0.4977
  905MOL0     C19362  -0.616   0.593   9.884  0.1521 -0.0806 -0.8928
  905MOL0     O19363  -0.745   0.626   9.918  0.4288 -0.0367  0.0644
  905MOL0     C19364  -0.820   0.523   9.988 -0.2259  0.3483  0.5793
  905MOL0     C19365  -0.963   0.552   9.961  0.0089 -0.4129 -0.7360
  905MOL0     C19366  -1.043   0.448  10.034 -0.5067 -1.2150 -0.3003
  905MOL0     C19367  -1.198   0.465  10.030  0.2923 -0.2884  0.4326
  905MOL0     C19368  -1.272   0.358  10.127 -0.0760 -0.8103 -1.0131
  905MOL0     C19369  -1.264   0.400  10.275 -0.8400 -0.1748  0.2553
  905MOL0     C19370  -1.319   0.286  10.360  0.5193 -0.2580 -0.9242
  905MOL0     C19371  -1.273   0.286  10.504  0.0169 -0.1450  0.2121
  905MOL0    Cl19372  -1.367   0.154  10.583  0.0808  0.1376  0.4549
  905MOL0     C19373  -0.589   0.599   9.753  0.8479  0.3880 -0.3346
  905MOL0     C19374  -0.464   0.569   9.704  0.1322  0.6572 -0.1630
  905MOL0     O19375  -0.173   0.667   9.870 -0.0980  0.4565 -0.3476
  905MOL0     C19376   0.098   0.624   9.796  0.8965  0.4668 -0.2690
  905MOL0     C19377   0.230   0.603   9.749  0.6098  0.8746  0.0367
  905MOL0     N19378   0.915   0.549   9.457  0.4467  0.0314  0.2341
  905MOL0     N19379   1.026   0.606   9.441  0.4092  0.1083  0.0501
  905MOL0     C19380   2.150   0.540   9.329  0.0964  0.3735 -0.0299
  905MOL0     C19381   2.283   0.501   9.358 -0.2776  0.1679 -0.0391
  905MOL0     C19382   2.757   0.480   9.292  0.2830 -0.1711  0.5064
  905MOL0     C19383   2.863   0.551   9.225  0.1585  0.0271  0.3709
  905MOL0     C19384   2.992   0.512   9.243 -0.5017 -0.3358 -0.3041
  905MOL0     C19385   3.023   0.412   9.333  0.5958 -0.8457  0.2992
  905MOL0     O19386   3.159   0.387   9.355  0.6588 -0.6460 -0.8573
  905MOL0     C19387   3.209   0.286   9.437 -0.1448  0.9763  0.2629
  905MOL0     C19388   3.355   0.327   9.465 -0.5617  0.7837 -0.0886
  905MOL0     C19389   3.449   0.303   9.343  0.8129 -0.0718 -0.2329
  905MOL0     C19390   3.587   0.260   9.394  0.6738  0.1012  0.6862
  905MOL0     C19391   3.690   0.269   9.285 -0.6409 -0.0064 -0.1634
  905MOL0     C19392   3.798   0.275   9.226 -0.1422 -0.1354  0.2231
  905MOL0     C19393   2.919   0.340   9.399 -0.7052 -0.0973  0.8822
  905MOL0     C19394   2.789   0.379   9.380  0.3704 -0.6093 -0.5611
  905MOL0     H19395   2.417   0.493   9.058  0.9532  0.4095  1.0897
  905MOL0     H19396   2.168   0.552   8.998 -2.3709  2.2117  0.9975
  905MOL0     H19397   1.943   0.549   8.964 -1.6225 -1.2280  1.5869
  905MOL0     H19398   1.994   0.701   9.007  1.0881 -0.8207 -1.3920
  905MOL0     H19399   1.751   0.721   8.956 -0.8877 -2.0229 -1.0787
  905MOL0     H19400   1.755   0.745   9.121 -5.3190  0.9564 -1.4617
  905MOL0     H19401   1.705   0.501   9.166  0.0788 -0.9569 -0.0814
  905MOL0     H19402   1.664   0.482   8.990 -0.8346 -0.2186 -0.1966
  905MOL0     H19403   1.555   0.674   9.199  0.2243 -2.1096  1.4147
  905MOL0     H19404   1.521   0.701   9.027  0.1752  0.8084  0.2538
  905MOL0     H19405   1.428   0.468   9.203 -2.4879 -2.3443 -2.0178
  905MOL0     H19406   1.406   0.473   9.027  2.7132 -3.6429  1.2187
  905MOL0     H19407   1.192   0.546   9.112 -0.7673  2.7970 -0.8739
  905MOL0     H19408   1.282   0.687   9.057  1.6381  0.9749 -0.1645
  905MOL0     H19409   1.274   0.609   9.352  1.2661 -0.1063 -0.5661
  905MOL0     H19410   1.342   0.756   9.264  0.5237 -0.6138 -2.0964
  905MOL0     H19411   1.127   0.819   9.197  0.6210 -0.8332 -0.8934
  905MOL0     H19412   1.153   0.836   9.368  0.3193  2.4442 -1.8560
  905MOL0     H19413   0.886   0.702   9.166  0.4697 -0.2326  0.0972
  905MOL0     H19414   0.731   0.401   9.286  2.1190 -0.1050 -1.8402
  905MOL0     H19415   0.685   0.540   9.193 -3.1514 -0.4200  0.1243
  905MOL0     H19416   0.500   0.472   9.344  0.9592  0.6891 -2.0792
  905MOL0     H19417   0.565   0.639   9.372  3.4399  0.6059  0.6751
  905MOL0     H19418   0.634   0.382   9.546  1.3271  0.2873 -0.6363
  905MOL0     H19419   0.688   0.556   9.556  0.6459 -1.0604 -0.6348
  905MOL0     H19420   0.479   0.642   9.630  1.4170  0.2232  3.9568
  905MOL0     H19421   0.503   0.500   9.723  1.5610 -0.0527 -1.4119
  905MOL0     H19422   0.160   0.379   9.506  3.1540  1.2532 -0.3606
  905MOL0     H19423  -0.070   0.429   9.581  1.9929  0.0989 -2.1194
  905MOL0     H19424  -0.337   0.451  10.005 -0.3909 -1.8657 -0.6784
  905MOL0     H19425  -0.541   0.536  10.083  3.0249 -3.3511  0.1623
  905MOL0     H19426  -0.801   0.527  10.096 -0.2693 -0.0842  0.6025
  905MOL0     H19427  -0.790   0.422   9.958 -0.3827 -0.1336  1.9595
  905MOL0     H19428  -0.990   0.543   9.855  2.5115 -0.6896 -1.4110
  905MOL0     H19429  -0.989   0.653   9.994 -1.3534 -0.6465 -1.0421
  905MOL0     H19430  -1.009   0.427  10.136  1.1546 -2.3129 -1.0458
  905MOL0     H19431  -1.026   0.349   9.991 -1.7704 -2.3835  1.6896
  905MOL0     H19432  -1.224   0.567  10.059 -0.0034 -0.3618  0.4271
  905MOL0     H19433  -1.226   0.445   9.926  3.5169  1.5287 -0.9249
  905MOL0     H19434  -1.228   0.259  10.120  1.2837 -0.2367 -0.8708
  905MOL0     H19435  -1.377   0.358  10.096 -0.8560 -2.1689  1.4165
  905MOL0     H19436  -1.323   0.491  10.287  1.5145  1.4988 -0.1213
  905MOL0     H19437  -1.161   0.421  10.304 -0.3704 -0.3734 -1.1811
  905MOL0     H19438  -1.428   0.298  10.357  0.2226 -2.2723  0.2266
  905MOL0     H19439  -1.291   0.185  10.329 -0.8675 -0.9323 -0.0919
  905MOL0     H19440  -1.287   0.380  10.558  0.7309  2.2354 -3.3894
  905MOL0     H19441  -1.166   0.264  10.510 -0.2155 -0.9297  2.2698
  905MOL0     H19442  -0.672   0.639   9.695  0.3585  1.0690  0.8230
  905MOL0     H19443  -0.432   0.571   9.600  0.8663 -1.0667  0.0006
  905MOL0     H19444   0.069   0.700   9.868 -1.5400  0.7424 -1.4272
  905MOL0     H19445   0.312   0.656   9.798  1.2542  0.0243 -0.1071
  905MOL0     H19446   2.079   0.551   9.411 -0.7368 -1.3082 -0.4777
  905MOL0     H19447   2.306   0.472   9.460  3.7710  1.0037 -0.5460
  905MOL0     H19448   2.847   0.635   9.158  4.0345  0.5534 -0.1613
  905MOL0     H19449   3.067   0.579   9.203  1.0966 -2.0675 -0.3341
  905MOL0     H19450   3.200   0.191   9.384 -0.2292  1.9305 -1.5282
  905MOL0     H19451   3.158   0.277   9.533  3.1967  0.6406  2.1625
  905MOL0     H19452   3.357   0.434   9.487  0.3313  1.0900 -1.4898
  905MOL0     H19453   3.391   0.262   9.545  2.1263 -0.2204 -1.9518
  905MOL0     H19454   3.463   0.396   9.287  0.3333  0.4273  0.4559
  905MOL0     H19455   3.397   0.231   9.279 -1.0211 -1.5518  2.6885
  905MOL0     H19456   3.618   0.324   9.477 -1.7269 -0.6826  2.3195
  905MOL0     H19457   3.581   0.164   9.446  1.2061  0.1307  0.8038
  905MOL0     H19458   3.885   0.285   9.163  0.8147 -2.5303  1.0669
  905MOL0     H19459   2.933   0.262   9.473  1.1721 -0.8528 -0.1867
  905MOL0     H19460   2.706   0.329   9.430 -0.6413 -0.7133 -2.2824
  906MOL0     O19461   6.109   6.871   1.577 -0.3827  0.8351  0.3680
  906MOL0     C19462   6.175   6.972   1.602 -0.1315  0.1104  1.0456
  906MOL0     O19463   6.131   7.096   1.654 -0.0969 -0.2995  0.3716
  906MOL0     C19464   5.992   7.114   1.680  0.2519 -0.1119 -1.2567
  906MOL0     C19465   5.914   7.023   1.745 -0.9029 -0.3278  0.2045
  906MOL0     C19466   5.776   7.056   1.780 -0.0737 -0.9775  0.5501
  906MOL0     C19467   5.721   7.176   1.731  0.4101  0.1262  0.0713
  906MOL0     O19468   5.586   7.205   1.731  0.0129  0.2365  0.7153
  906MOL0     C19469   5.485   7.098   1.747 -0.0800  0.4466  0.1218
  906MOL0     C19470   5.354   7.160   1.702  0.4080  0.4324  0.4449
  906MOL0     C19471   5.246   7.050   1.730  0.5687 -0.4428  0.2828
  906MOL0     C19472   5.108   7.122   1.706 -0.2708  0.5207 -0.0313
  906MOL0     C19473   4.986   7.039   1.764 -0.2649 -0.2584  0.8306
  906MOL0     C19474   4.852   7.095   1.730  0.2477  0.0795  0.4206
  906MOL0     C19475   4.812   7.051   1.585  0.0773  0.3196 -0.5049
  906MOL0     C19476   4.696   7.133   1.533 -0.1716  0.3329 -0.1485
  906MOL0     N19477   4.570   7.088   1.579  0.3088 -0.2235 -1.0047
  906MOL0     C19478   4.480   7.159   1.666 -0.3892 -0.6714  0.2985
  906MOL0     C19479   4.376   7.068   1.677  0.5963  0.3600  0.5043
  906MOL0     C19480   4.241   7.102   1.749 -0.2773 -0.2353 -0.5682
  906MOL0     C19481   4.235   7.045   1.890  0.3455  0.0702 -0.0127
  906MOL0     C19482   4.106   7.100   1.968  0.1505 -0.4537  1.0405
  906MOL0     C19483   3.969   7.034   1.919  0.7070 -0.3113  0.2327
  906MOL0     O19484   3.865   7.061   2.016 -0.0844  0.1809 -0.0073
  906MOL0     C19485   3.730   7.032   1.990  0.5832  0.1682 -0.5110
  906MOL0     C19486   3.683   6.964   1.881 -0.2581  0.1119  0.3271
  906MOL0     C19487   3.546   6.939   1.867 -0.5437 -0.2481  0.2352
  906MOL0     C19488   3.449   6.990   1.954 -0.7333 -0.7777  0.1153
  906MOL0     C19489   3.305   6.974   1.926  0.0891 -0.6495 -0.0089
  906MOL0     O19490   3.266   6.923   1.803  1.2536  0.2790  0.7408
  906MOL0     C19491   3.138   6.870   1.792  0.4392 -0.9039 -0.3081
  906MOL0     C19492   3.113   6.734   1.797  0.3823  0.7138  0.8433
  906MOL0     C19493   2.982   6.679   1.776 -0.4536  0.7265 -0.6849
  906MOL0     C19494   2.868   6.765   1.770  0.0462 -0.2306 -0.0201
  906MOL0     O19495   2.730   6.729   1.777 -0.1135  0.1189  0.2007
  906MOL0     C19496   2.660   6.694   1.661 -0.0666 -0.1093  0.4176
  906MOL0     C19497   2.509   6.697   1.699 -0.1047  0.0051  0.0727
  906MOL0     C19498   2.440   6.603   1.600 -0.1614  0.4952  0.7726
  906MOL0     C19499   2.287   6.636   1.615  0.2057  0.6748  0.2859
  906MOL0     C19500   2.193   6.525   1.604  0.8797  0.5239 -0.0406
  906MOL0     C19501   2.052   6.578   1.569  0.2827 -0.1367 -0.2841
  906MOL0     C19502   1.959   6.455   1.586  0.4520 -0.2944 -1.1167
  906MOL0     C19503   1.816   6.483   1.589  0.5065  0.4988  0.0302
  906MOL0    Cl19504   1.774   6.552   1.430  0.4530 -0.4286  0.7270
  906MOL0     C19505   2.892   6.906   1.767  0.2422  0.4555  0.7552
  906MOL0     C19506   3.031   6.962   1.779  1.0389 -0.5017 -0.3725
  906MOL0     O19507   3.228   6.994   2.025  0.2920 -0.2180 -0.0512
  906MOL0     C19508   3.497   7.084   2.056  0.2855 -1.5374  0.4623
  906MOL0     C19509   3.634   7.092   2.076  0.2470 -0.4374  0.4484
  906MOL0     N19510   4.401   6.953   1.602 -0.0964 -0.0294 -0.2645
  906MOL0     N19511   4.516   6.970   1.554 -1.1315  0.3344  0.6471
  906MOL0     C19512   5.796   7.274   1.674 -0.0591  0.2874  0.6079
  906MOL0     C19513   5.931   7.241   1.652 -0.1066 -0.8617  0.1913
  906MOL0     C19514   6.324   6.970   1.574 -0.9139 -0.2181  0.0637
  906MOL0     C19515   6.406   7.073   1.632 -0.5327 -0.1589 -0.5488
  906MOL0     C19516   6.546   7.072   1.615 -0.1294 -0.4887  1.3461
  906MOL0     C19517   6.609   6.984   1.536  0.0984 -0.7185  0.3294
  906MOL0     O19518   6.744   7.005   1.527 -0.7274 -0.3962 -0.5225
  906MOL0     C19519   6.825   6.912   1.457 -0.1134  0.2052 -0.5370
  906MOL0     C19520   6.959   6.970   1.440 -0.8757  0.6439 -0.0379
  906MOL0     C19521   7.045   6.980   1.569 -0.0771 -0.3802  1.0245
  906MOL0     C19522   7.093   6.845   1.619 -0.0134  0.0182  0.9536
  906MOL0     C19523   6.988   6.793   1.709  0.3524 -0.2009  0.3384
  906MOL0     C19524   6.898   6.748   1.777 -0.8439 -0.6467 -0.7620
  906MOL0     C19525   6.535   6.883   1.475  0.3459  0.5838  0.6290
  906MOL0     C19526   6.395   6.873   1.498 -0.0382 -0.0145  0.6418
  906MOL0     H19527   5.968   6.934   1.775 -0.0094 -0.1024 -0.6749
  906MOL0     H19528   5.714   6.975   1.820  1.9003 -2.8050  0.0611
  906MOL0     H19529   5.477   7.084   1.855 -0.2684 -0.3591  0.0111
  906MOL0     H19530   5.502   6.999   1.702  3.0315  1.6490 -1.5991
  906MOL0     H19531   5.352   7.184   1.596 -1.1338 -2.0455 -0.1755
  906MOL0     H19532   5.329   7.243   1.768  0.1942 -0.1027  1.0569
  906MOL0     H19533   5.255   7.003   1.828  1.5143 -4.3398 -1.4890
  906MOL0     H19534   5.264   6.976   1.652 -0.9779 -0.7645  0.2144
  906MOL0     H19535   5.095   7.226   1.738 -1.4581  1.1732 -2.4348
  906MOL0     H19536   5.089   7.142   1.600  2.0252  3.4953 -0.0057
  906MOL0     H19537   4.994   7.037   1.873 -3.0111  0.0025  1.0892
  906MOL0     H19538   4.997   6.933   1.739 -1.7824 -0.3531  0.5001
  906MOL0     H19539   4.842   7.204   1.732  1.5097  0.2374  2.8526
  906MOL0     H19540   4.788   7.045   1.803 -0.3742  0.7760  0.3636
  906MOL0     H19541   4.904   7.060   1.526 -0.3271 -1.6032 -1.5236
  906MOL0     H19542   4.784   6.945   1.583  2.5494 -0.4011 -2.1288
  906MOL0     H19543   4.689   7.122   1.424 -3.2144  1.6171 -0.1853
  906MOL0     H19544   4.707   7.242   1.539 -1.1355  0.5240 -1.4084
  906MOL0     H19545   4.489   7.256   1.714 -2.4329  0.5713 -1.6561
  906MOL0     H19546   4.163   7.044   1.698 -2.4960 -0.4193  2.7123
  906MOL0     H19547   4.221   7.210   1.752 -0.8855 -0.3278  2.9505
  906MOL0     H19548   4.326   7.071   1.945 -1.2253 -0.5577  3.1307
  906MOL0     H19549   4.214   6.937   1.885 -0.3243  0.2298 -1.0482
  906MOL0     H19550   4.114   7.075   2.075  1.2327 -1.8544  0.6567
  906MOL0     H19551   4.089   7.208   1.960  1.1745 -0.3488  0.1118
  906MOL0     H19552   3.986   6.926   1.916  0.7009 -0.2860 -1.9488
  906MOL0     H19553   3.944   7.071   1.819  1.5257  2.6534  1.0382
  906MOL0     H19554   3.749   6.920   1.807 -1.7301 -0.1777 -0.8787
  906MOL0     H19555   3.522   6.880   1.779 -0.9779 -1.5609  1.2057
  906MOL0     H19556   3.199   6.668   1.796  0.0953  0.2704 -1.5916
  906MOL0     H19557   2.969   6.571   1.770  1.8617  0.4827 -3.0708
  906MOL0     H19558   2.694   6.597   1.624  0.3758  0.7197 -1.4686
  906MOL0     H19559   2.673   6.760   1.574  1.1105 -1.8812 -0.8141
  906MOL0     H19560   2.471   6.798   1.682  0.9792  0.2283 -1.2331
  906MOL0     H19561   2.485   6.677   1.804 -0.3698  0.0472  0.0212
  906MOL0     H19562   2.459   6.496   1.614 -1.0808  0.2812  0.4507
  906MOL0     H19563   2.469   6.631   1.499  0.8234  1.1754  1.2310
  906MOL0     H19564   2.263   6.693   1.705  3.6616  0.4707  1.5057
  906MOL0     H19565   2.274   6.699   1.526  0.3456 -1.3670 -1.2631
  906MOL0     H19566   2.209   6.478   1.701 -0.6025  2.6767  1.3407
  906MOL0     H19567   2.229   6.457   1.527 -1.0464  2.4830 -2.8657
  906MOL0     H19568   2.052   6.624   1.470 -0.4341  0.8930  0.1834
  906MOL0     H19569   2.026   6.655   1.641 -0.7189 -0.8395  0.1371
  906MOL0     H19570   1.989   6.377   1.516  3.1049 -1.6495  1.3370
  906MOL0     H19571   1.973   6.406   1.683  0.6429  2.8061  0.5627
  906MOL0     H19572   1.796   6.556   1.668  1.4825  0.4248  0.3624
  906MOL0     H19573   1.756   6.393   1.603  0.9826  0.2144  0.2798
  906MOL0     H19574   2.802   6.964   1.754 -0.0250 -0.2911 -0.9209
  906MOL0     H19575   3.052   7.066   1.800  1.9668 -1.0793  1.9533
  906MOL0     H19576   3.427   7.146   2.112  0.5262  0.6270 -1.4582
  906MOL0     H19577   3.667   7.143   2.166  4.3312 -1.6844 -0.1274
  906MOL0     H19578   5.751   7.368   1.645 -1.4797  1.1667  4.8492
  906MOL0     H19579   5.996   7.310   1.598  2.1814 -5.0238 -2.9739
  906MOL0     H19580   6.358   7.148   1.694  1.2414 -0.1533  0.9139
  906MOL0     H19581   6.601   7.162   1.643  0.5530  0.1507 -1.7602
  906MOL0     H19582   6.787   6.901   1.355  0.7526 -0.4807 -0.7999
  906MOL0     H19583   6.826   6.818   1.512  0.3119  0.4898 -0.0479
  906MOL0     H19584   7.019   6.909   1.372 -0.2561  1.3015 -0.0862
  906MOL0     H19585   6.946   7.072   1.404 -0.5637  0.8373  0.3873
  906MOL0     H19586   6.996   7.036   1.649 -1.2450 -1.1110  0.8437
  906MOL0     H19587   7.136   7.036   1.545 -1.4176  1.4529 -0.0811
  906MOL0     H19588   7.117   6.781   1.534  1.3400  1.0720  0.4994
  906MOL0     H19589   7.188   6.856   1.673  1.4842  3.8814 -1.9981
  906MOL0     H19590   6.816   6.705   1.830 -2.4864  0.4666 -2.2847
  906MOL0     H19591   6.586   6.802   1.424 -2.0230 -2.0778  2.1927
  906MOL0     H19592   6.348   6.784   1.460 -0.4184 -0.3057  1.7475
  907MOL0     O19593   1.942   6.736   2.148  0.2071  0.5849 -0.1197
  907MOL0     C19594   1.973   6.813   2.242  0.4478  0.3470  0.3461
  907MOL0     O19595   1.888   6.886   2.312  0.3089  0.1241 -0.7616
  907MOL0     C19596   1.764   6.903   2.256  1.0208  0.0221 -0.3857
  907MOL0     C19597   1.711   7.034   2.241  0.2005 -0.2246 -0.1892
  907MOL0     C19598   1.582   7.067   2.197  0.0006  0.5020 -0.0405
  907MOL0     C19599   1.494   6.956   2.166  0.0654 -0.1956 -0.0121
  907MOL0     O19600   1.373   6.984   2.102 -0.1022  0.0687  0.5989
  907MOL0     C19601   1.275   6.890   2.068  0.4072 -0.1607 -1.1066
  907MOL0     C19602   1.146   6.968   2.052  0.8310 -0.4176  0.4285
  907MOL0     C19603   1.015   6.881   2.034 -1.2121 -0.1144  0.3200
  907MOL0     C19604   0.898   6.966   1.990 -0.3534 -0.3247  0.5714
  907MOL0     C19605   0.843   7.081   2.080 -0.1234 -0.2664 -0.1696
  907MOL0     C19606   0.810   7.040   2.219 -0.1645 -0.7132 -0.0781
  907MOL0     C19607   0.753   7.158   2.302 -0.3113  1.7750  0.1859
  907MOL0     C19608   0.841   7.277   2.334 -0.3165 -0.5030  0.5474
  907MOL0     N19609   0.757   7.389   2.382  0.0323 -0.4852  0.3123
  907MOL0     C19610   0.689   7.400   2.500  0.0441  1.6379 -0.6317
  907MOL0     C19611   0.582   7.478   2.487 -1.2882  0.3768 -0.8080
  907MOL0     C19612   0.489   7.518   2.598 -0.3350  1.0015  0.5801
  907MOL0     C19613   0.349   7.550   2.535 -0.3099 -0.4929  0.7137
  907MOL0     C19614   0.249   7.577   2.644 -0.2954 -0.5746  0.6365
  907MOL0     C19615   0.108   7.582   2.597 -0.6181  0.3023 -0.5650
  907MOL0     O19616   0.028   7.594   2.717  0.1490 -0.0994  0.5118
  907MOL0     C19617  -0.109   7.618   2.703  0.2810  0.0753 -0.5572
  907MOL0     C19618  -0.167   7.684   2.807  1.0835  1.0091 -0.1088
  907MOL0     C19619  -0.303   7.710   2.811  0.6112  0.2605  0.8062
  907MOL0     C19620  -0.380   7.677   2.696 -0.3277  0.1405  0.7939
  907MOL0     C19621  -0.524   7.721   2.685 -0.3225 -0.9536  0.7200
  907MOL0     O19622  -0.577   7.794   2.786  0.4265  0.0580 -0.2971
  907MOL0     C19623  -0.715   7.816   2.790 -0.4795 -0.2476 -1.1508
  907MOL0     C19624  -0.783   7.889   2.690 -0.5511  0.3020  0.3340
  907MOL0     C19625  -0.920   7.915   2.703  0.1941 -0.3251 -0.9227
  907MOL0     C19626  -0.989   7.866   2.812 -0.3735  0.8334  0.5412
  907MOL0     O19627  -1.118   7.882   2.843 -0.5886 -0.1126 -0.6227
  907MOL0     C19628  -1.207   7.866   2.736 -0.1874 -0.3750 -0.0018
  907MOL0     C19629  -1.349   7.870   2.785  1.1231  0.6919 -0.4688
  907MOL0     C19630  -1.444   7.807   2.677 -0.4747 -0.0627  0.0732
  907MOL0     C19631  -1.588   7.844   2.682 -0.0288 -0.5978 -1.0181
  907MOL0     C19632  -1.666   7.763   2.577  0.4372  0.1804  0.3911
  907MOL0     C19633  -1.657   7.611   2.592 -0.1276 -0.6232 -0.8180
  907MOL0     C19634  -1.746   7.525   2.497  0.8021 -0.0162 -0.8253
  907MOL0     C19635  -1.895   7.574   2.495 -0.5640  0.3977  0.8060
  907MOL0    Cl19636  -1.949   7.576   2.663  0.4954 -0.2104  0.2724
  907MOL0     C19637  -0.920   7.799   2.909 -0.8921  0.3699 -0.1289
  907MOL0     C19638  -0.783   7.773   2.904  0.1548  0.2881  0.1891
  907MOL0     O19639  -0.586   7.687   2.585  0.8596  0.3375  0.1554
  907MOL0     C19640  -0.326   7.608   2.585  0.0225  0.3214  0.7998
  907MOL0     C19641  -0.185   7.587   2.585 -0.6539  0.7720  0.5221
  907MOL0     N19642   0.602   7.528   2.358  0.0559  0.1624 -0.6264
  907MOL0     N19643   0.711   7.479   2.301  0.5917  0.7178  0.6471
  907MOL0     C19644   1.542   6.829   2.202  0.4604 -0.1273  0.7350
  907MOL0     C19645   1.675   6.800   2.238 -0.3516  0.6633 -0.5809
  907MOL0     C19646   2.114   6.821   2.289 -0.0488 -0.2110  0.0256
  907MOL0     C19647   2.195   6.698   2.283 -0.6632 -0.7068  0.6136
  907MOL0     C19648   2.327   6.687   2.331 -1.0018  0.6010 -0.3537
  907MOL0     C19649   2.380   6.806   2.382  0.1613 -0.3368  0.3682
  907MOL0     O19650   2.510   6.819   2.421  0.0499  0.0049  0.2992
  907MOL0     C19651   2.581   6.693   2.433 -0.4782  0.7793  0.9442
  907MOL0     C19652   2.715   6.704   2.511  0.3068  0.1815  0.9595
  907MOL0     C19653   2.795   6.575   2.496 -0.6330  0.2592  0.3156
  907MOL0     C19654   2.762   6.476   2.607 -0.0487 -0.2486 -0.5224
  907MOL0     C19655   2.660   6.379   2.573  0.9758  0.4989 -0.8545
  907MOL0     C19656   2.581   6.287   2.546 -0.4028 -0.3502  0.3313
  907MOL0     C19657   2.310   6.924   2.394  0.6661 -0.0196 -0.1768
  907MOL0     C19658   2.176   6.928   2.355  0.6064 -0.9319  0.2040
  907MOL0     H19659   1.781   7.116   2.254 -1.1141  1.1348 -1.3861
  907MOL0     H19660   1.547   7.167   2.172 -3.4723 -1.1423 -2.4568
  907MOL0     H19661   1.271   6.817   2.150 -0.3358  2.0357  0.9197
  907MOL0     H19662   1.298   6.840   1.974 -0.9949 -1.7920 -0.6440
  907MOL0     H19663   1.148   7.037   1.967 -3.1304  0.7709  1.1299
  907MOL0     H19664   1.120   7.022   2.144  0.6581  1.3764 -0.6124
  907MOL0     H19665   0.985   6.833   2.128 -1.4079  1.4972  1.1152
  907MOL0     H19666   1.036   6.796   1.969 -3.2993 -2.3104  2.2780
  907MOL0     H19667   0.926   7.009   1.893  1.2292  1.3547  1.7332
  907MOL0     H19668   0.814   6.898   1.974 -0.3280 -0.1353 -0.4274
  907MOL0     H19669   0.751   7.116   2.033  1.5784  1.2256 -2.6236
  907MOL0     H19670   0.901   7.174   2.085 -0.5316  0.0637 -1.3437
  907MOL0     H19671   0.893   6.987   2.266  0.9794  1.8245  0.9484
  907MOL0     H19672   0.729   6.966   2.213 -0.4932 -0.2455 -1.8860
  907MOL0     H19673   0.675   7.202   2.240 -0.9171 -1.6722 -1.7871
  907MOL0     H19674   0.714   7.108   2.392  1.0963 -1.8704 -1.0279
  907MOL0     H19675   0.891   7.312   2.243 -3.5620 -0.1538 -1.2281
  907MOL0     H19676   0.921   7.256   2.406  0.0731  1.1661  0.6537
  907MOL0     H19677   0.699   7.336   2.587  0.1029  0.3142 -1.5801
  907MOL0     H19678   0.524   7.599   2.662 -0.7461  1.6216  0.0402
  907MOL0     H19679   0.484   7.429   2.661  1.9465 -1.3544 -2.2875
  907MOL0     H19680   0.313   7.465   2.476  3.0074 -1.9599  0.6171
  907MOL0     H19681   0.355   7.640   2.473 -0.2872 -0.4818  0.7319
  907MOL0     H19682   0.270   7.498   2.717  0.0403 -2.9056 -1.8246
  907MOL0     H19683   0.267   7.664   2.708 -0.2823  0.3856 -0.6197
  907MOL0     H19684   0.085   7.498   2.531  3.5392 -0.1627 -1.6889
  907MOL0     H19685   0.093   7.671   2.535 -3.1517 -1.2468 -2.3853
  907MOL0     H19686  -0.108   7.697   2.897  1.0542  1.9477 -0.2182
  907MOL0     H19687  -0.345   7.769   2.892  0.3898 -1.9968  2.4231
  907MOL0     H19688  -0.734   7.920   2.598 -0.2846  0.7249  0.6157
  907MOL0     H19689  -0.967   7.966   2.620 -0.2727  1.0206  0.1391
  907MOL0     H19690  -1.188   7.775   2.679  0.5706 -0.1467 -0.1355
  907MOL0     H19691  -1.192   7.952   2.669 -2.7020  1.7162  1.8714
  907MOL0     H19692  -1.380   7.971   2.813  2.3577  0.7105  0.9965
  907MOL0     H19693  -1.359   7.807   2.874  0.5371 -0.3453 -1.2533
  907MOL0     H19694  -1.424   7.699   2.681  3.0580  0.2990 -2.7788
  907MOL0     H19695  -1.404   7.833   2.579 -1.0754  0.1158 -0.1255
  907MOL0     H19696  -1.617   7.824   2.786  0.7183 -0.4372 -0.7693
  907MOL0     H19697  -1.586   7.951   2.662 -1.0150 -0.1413  1.0408
  907MOL0     H19698  -1.624   7.781   2.477 -2.1634  0.1159 -0.7851
  907MOL0     H19699  -1.768   7.802   2.574 -0.2176 -1.4999 -1.5212
  907MOL0     H19700  -1.672   7.584   2.697  1.4259  2.2867  0.2478
  907MOL0     H19701  -1.556   7.579   2.565 -0.4327 -0.1493 -2.6701
  907MOL0     H19702  -1.695   7.518   2.401  1.7471  1.5388 -0.4733
  907MOL0     H19703  -1.736   7.424   2.537  2.2119 -0.7235 -2.8307
  907MOL0     H19704  -1.957   7.512   2.430 -1.6153  1.4882  0.7434
  907MOL0     H19705  -1.905   7.672   2.446  1.3546 -1.5770 -4.2717
  907MOL0     H19706  -0.980   7.768   2.994  1.2259  0.5435  1.5032
  907MOL0     H19707  -0.733   7.722   2.986 -0.4685  0.7614  0.8707
  907MOL0     H19708  -0.386   7.582   2.498  1.4070  0.6275 -0.2840
  907MOL0     H19709  -0.132   7.536   2.506 -2.5279 -0.0911 -0.2235
  907MOL0     H19710   1.472   6.748   2.186  1.1692 -1.0837  2.1505
  907MOL0     H19711   1.710   6.700   2.262 -2.0017  0.3278  0.5721
  907MOL0     H19712   2.155   6.605   2.243  0.0543 -1.1166  0.8313
  907MOL0     H19713   2.388   6.598   2.331 -2.3610 -0.3788  0.4474
  907MOL0     H19714   2.610   6.642   2.341 -1.6136 -2.1421  2.0889
  907MOL0     H19715   2.527   6.611   2.482  1.2375 -0.7242  0.4112
  907MOL0     H19716   2.761   6.783   2.451 -0.0809 -0.8551 -0.7985
  907MOL0     H19717   2.687   6.734   2.612 -2.6003 -0.1149  0.3266
  907MOL0     H19718   2.902   6.599   2.503 -1.0261  2.2171  0.2409
  907MOL0     H19719   2.795   6.543   2.392  0.7403 -1.1873  0.7230
  907MOL0     H19720   2.857   6.428   2.634 -0.3760 -1.0593 -0.7650
  907MOL0     H19721   2.717   6.524   2.694 -0.4179 -1.1117 -0.2203
  907MOL0     H19722   2.505   6.212   2.532 -1.8502  1.3768 -1.9298
  907MOL0     H19723   2.357   7.011   2.438  1.0027 -0.4654  0.3628
  907MOL0     H19724   2.118   7.017   2.377  0.2508 -1.7065  2.6854
  908MOL0     O19725   6.155   5.267   7.447 -0.6435 -0.0643  0.0529
  908MOL0     C19726   6.183   5.339   7.546  1.0996  0.2890 -0.4590
  908MOL0     O19727   6.130   5.325   7.671 -0.0254  0.1094 -0.1133
  908MOL0     C19728   6.031   5.233   7.695  0.2693 -0.1464 -0.4886
  908MOL0     C19729   5.951   5.267   7.805 -0.0690 -0.2890  0.0350
  908MOL0     C19730   5.832   5.205   7.831 -0.2117 -0.3680 -0.5480
  908MOL0     C19731   5.781   5.099   7.751 -0.1884 -0.2119 -0.4101
  908MOL0     O19732   5.656   5.056   7.788  0.3215 -0.3704  0.2751
  908MOL0     C19733   5.594   4.939   7.741 -0.4070  0.1688  0.4303
  908MOL0     C19734   5.463   4.921   7.808 -0.4120 -0.2420  1.2114
  908MOL0     C19735   5.378   4.822   7.730 -0.4155  0.4123  0.0767
  908MOL0     C19736   5.246   4.786   7.813 -0.5291  0.1038 -0.0413
  908MOL0     C19737   5.144   4.712   7.729 -0.7420 -0.1281  0.5388
  908MOL0     C19738   5.074   4.798   7.615  0.5528  0.8232 -0.8078
  908MOL0     C19739   4.956   4.713   7.555  0.6782 -0.1912 -0.5211
  908MOL0     C19740   4.869   4.793   7.456 -0.0192 -0.5466 -0.9621
  908MOL0     N19741   4.928   4.822   7.327  0.0278  0.1588  0.6354
  908MOL0     C19742   5.026   4.917   7.300  0.2961  1.1723 -0.5197
  908MOL0     C19743   5.043   4.908   7.168 -0.1436 -0.1391  0.1417
  908MOL0     C19744   5.135   5.002   7.093 -0.0058 -0.1673  0.5218
  908MOL0     C19745   5.276   4.937   7.072  0.4396  0.2891  0.2124
  908MOL0     C19746   5.356   5.044   6.994  0.3234 -0.2498  0.3705
  908MOL0     C19747   5.488   4.984   6.953  0.2544 -0.0647 -0.3585
  908MOL0     O19748   5.558   5.096   6.893 -0.9022  0.5027 -0.1974
  908MOL0     C19749   5.685   5.067   6.851 -0.3121 -0.3479 -1.2154
  908MOL0     C19750   5.749   5.159   6.767  0.1668  0.1447 -0.0690
  908MOL0     C19751   5.883   5.132   6.717  0.0766  0.0291 -0.2881
  908MOL0     C19752   5.953   5.023   6.762  0.1646 -0.3715 -0.3377
  908MOL0     C19753   6.095   5.016   6.733 -0.7326  1.2241  1.3201
  908MOL0     O19754   6.163   5.132   6.702  0.5807 -0.3336 -0.7328
  908MOL0     C19755   6.296   5.129   6.713 -1.4181  0.7968  0.9653
  908MOL0     C19756   6.371   5.060   6.810  0.4028 -0.6101  0.1901
  908MOL0     C19757   6.513   5.071   6.811 -0.1112 -0.1044 -0.3856
  908MOL0     C19758   6.578   5.159   6.719 -0.2030  0.0239 -0.0347
  908MOL0     O19759   6.716   5.168   6.718  0.6394 -0.3295  0.8340
  908MOL0     C19760   6.781   5.278   6.785 -0.3523 -0.1735  0.5770
  908MOL0     C19761   6.925   5.242   6.813  0.1929 -0.2244 -0.1036
  908MOL0     C19762   7.002   5.222   6.682  0.1294 -0.9276  1.2709
  908MOL0     C19763   7.157   5.205   6.699 -0.5151  0.5000 -0.2511
  908MOL0     C19764   7.221   5.348   6.710 -0.6537 -0.4045  0.4982
  908MOL0     C19765   7.375   5.343   6.735 -0.1488  0.0295 -0.1896
  908MOL0     C19766   7.415   5.309   6.882 -0.0679 -0.7544  0.6837
  908MOL0     C19767   7.546   5.348   6.938  0.3563 -1.2849  0.2559
  908MOL0    Cl19768   7.584   5.509   6.871 -0.3741  0.3019 -0.1604
  908MOL0     C19769   6.498   5.223   6.621  0.2967 -0.0564  0.6205
  908MOL0     C19770   6.361   5.208   6.621  0.3540  0.0742  0.2594
  908MOL0     O19771   6.143   4.910   6.745 -0.3521  1.3665 -0.1836
  908MOL0     C19772   5.897   4.943   6.868  0.0709 -0.4309  0.4249
  908MOL0     C19773   5.764   4.964   6.903  0.0750 -0.4897 -0.3126
  908MOL0     N19774   4.956   4.816   7.109 -0.2583  0.2165  0.1445
  908MOL0     N19775   4.894   4.763   7.205 -0.2883 -0.0755 -0.0101
  908MOL0     C19776   5.863   5.058   7.650 -0.1300 -0.1515  0.0997
  908MOL0     C19777   5.987   5.121   7.628 -0.4714  0.5676  0.3053
  908MOL0     C19778   6.274   5.455   7.527 -0.3164 -0.2130  0.2183
  908MOL0     C19779   6.319   5.537   7.635  0.4238  0.1038 -0.1646
  908MOL0     C19780   6.394   5.653   7.615 -0.5221 -0.0467 -0.0917
  908MOL0     C19781   6.436   5.687   7.485 -0.9767  0.0832 -0.9278
  908MOL0     O19782   6.504   5.804   7.461  0.1799  0.5925 -0.1250
  908MOL0     C19783   6.575   5.874   7.568 -1.0267  0.1388  0.8435
  908MOL0     C19784   6.730   5.845   7.557 -0.6197 -0.2535  0.5801
  908MOL0     C19785   6.766   5.685   7.566 -0.8490 -0.4323  0.5974
  908MOL0     C19786   6.734   5.617   7.704  0.0235  0.4320  0.7629
  908MOL0     C19787   6.761   5.472   7.683  0.2309 -0.5696 -0.0361
  908MOL0     C19788   6.791   5.353   7.686  0.0195  0.1997  0.4227
  908MOL0     C19789   6.396   5.600   7.385 -0.0078  0.1083 -0.1216
  908MOL0     C19790   6.315   5.487   7.401  0.1122 -0.3480 -1.4006
  908MOL0     H19791   5.982   5.359   7.854 -1.1241  0.6352 -0.9538
  908MOL0     H19792   5.776   5.245   7.915 -0.5018  0.0782 -0.9512
  908MOL0     H19793   5.655   4.851   7.761  1.4461  1.4160  0.4587
  908MOL0     H19794   5.576   4.954   7.634 -0.3514  2.3173  0.6839
  908MOL0     H19795   5.413   5.018   7.812 -0.3900 -0.1364 -0.3382
  908MOL0     H19796   5.474   4.896   7.914  0.2525  2.4230  1.8559
  908MOL0     H19797   5.433   4.729   7.713 -1.6462 -0.7817  2.3076
  908MOL0     H19798   5.346   4.856   7.631 -3.7864  0.1556  0.9548
  908MOL0     H19799   5.271   4.732   7.905 -2.4819  2.9857  2.3902
  908MOL0     H19800   5.206   4.879   7.853 -0.0880  1.6750 -2.9663
  908MOL0     H19801   5.068   4.673   7.798 -0.3256  1.1172  1.7355
  908MOL0     H19802   5.200   4.629   7.685  0.8530  0.9008  0.5460
  908MOL0     H19803   5.152   4.832   7.546  3.3075  0.4409  1.8769
  908MOL0     H19804   5.026   4.879   7.671 -1.4634 -0.0760 -1.1622
  908MOL0     H19805   5.002   4.641   7.487 -0.9486 -0.8262 -1.0154
  908MOL0     H19806   4.885   4.665   7.623 -0.9535 -0.5049 -2.3535
  908MOL0     H19807   4.838   4.886   7.505 -0.4564 -1.0638 -0.2300
  908MOL0     H19808   4.774   4.744   7.435 -0.1797 -1.3972  1.4404
  908MOL0     H19809   5.071   4.989   7.368 -1.1879  1.6423  0.0081
  908MOL0     H19810   5.146   5.097   7.147  2.2270 -0.3603  0.4920
  908MOL0     H19811   5.078   5.031   7.004 -0.1136  0.6535  0.8475
  908MOL0     H19812   5.268   4.841   7.021  0.4401  0.7023 -0.5821
  908MOL0     H19813   5.318   4.919   7.172 -1.2332 -1.6935  0.6275
  908MOL0     H19814   5.306   5.092   6.909 -1.8839  0.5265  2.0090
  908MOL0     H19815   5.372   5.122   7.069 -1.1993  2.2315 -1.7101
  908MOL0     H19816   5.462   4.904   6.883 -1.8427  0.6781 -0.5183
  908MOL0     H19817   5.541   4.942   7.039  1.3831  2.6722  0.3796
  908MOL0     H19818   5.685   5.232   6.719 -0.2334 -0.1104  0.0727
  908MOL0     H19819   5.926   5.197   6.642  1.0615 -0.6412 -0.3234
  908MOL0     H19820   6.318   4.991   6.873 -2.0489  1.9461  1.1447
  908MOL0     H19821   6.571   5.009   6.879 -0.8904 -1.1420 -0.6418
  908MOL0     H19822   6.723   5.304   6.875  0.8888  2.0816  0.7882
  908MOL0     H19823   6.777   5.367   6.722 -0.9638  0.1462  1.0581
  908MOL0     H19824   6.915   5.148   6.867 -2.6049  0.4387  0.6800
  908MOL0     H19825   6.966   5.313   6.886 -0.0072 -0.6868  0.4669
  908MOL0     H19826   6.987   5.306   6.613  2.7512 -0.0031  1.7049
  908MOL0     H19827   6.974   5.127   6.635  2.0382 -0.7274 -0.4238
  908MOL0     H19828   7.180   5.155   6.793 -0.6803 -2.4920 -1.6999
  908MOL0     H19829   7.194   5.149   6.613 -0.5368 -0.4382  0.3342
  908MOL0     H19830   7.165   5.400   6.788 -2.9820 -1.7303 -0.1941
  908MOL0     H19831   7.208   5.408   6.620  1.9295 -1.5889 -0.7762
  908MOL0     H19832   7.405   5.445   6.709 -2.5381  0.4514 -1.5838
  908MOL0     H19833   7.430   5.280   6.665 -0.2251 -1.4094  0.9791
  908MOL0     H19834   7.338   5.347   6.950  0.5669 -1.0094  1.5721
  908MOL0     H19835   7.393   5.203   6.892 -2.3165 -0.2535  1.6949
  908MOL0     H19836   7.633   5.284   6.918  1.1132 -0.2249  0.1113
  908MOL0     H19837   7.541   5.352   7.047  0.6419  1.2886  0.2271
  908MOL0     H19838   6.537   5.290   6.545 -3.5552  1.5589 -0.1676
  908MOL0     H19839   6.303   5.262   6.547 -0.5531 -0.9018  0.2375
  908MOL0     H19840   5.953   4.870   6.925  0.7859  0.9981  1.6129
  908MOL0     H19841   5.724   4.904   6.984  0.1667  1.3324  1.1363
  908MOL0     H19842   5.831   4.974   7.588 -0.9455  2.0319 -2.7018
  908MOL0     H19843   6.040   5.082   7.541 -3.1708 -1.0636 -0.7151
  908MOL0     H19844   6.279   5.517   7.734  0.9407  1.7267  0.3984
  908MOL0     H19845   6.409   5.719   7.699  2.6715 -0.9070  0.1650
  908MOL0     H19846   6.539   5.859   7.670  1.8684  1.3128  2.1623
  908MOL0     H19847   6.560   5.979   7.542  0.3973  0.3955  0.9732
  908MOL0     H19848   6.770   5.889   7.466  1.3794 -1.0522  1.0128
  908MOL0     H19849   6.785   5.895   7.638 -0.5331 -0.6988  0.7978
  908MOL0     H19850   6.873   5.676   7.542 -0.3775  1.3255  1.8071
  908MOL0     H19851   6.724   5.628   7.482  0.5380 -1.6210  0.6752
  908MOL0     H19852   6.801   5.652   7.783  0.4941 -1.0900  1.0764
  908MOL0     H19853   6.632   5.643   7.734 -0.5194 -0.8095  0.0842
  908MOL0     H19854   6.820   5.250   7.691 -2.0148 -0.4411 -0.1230
  908MOL0     H19855   6.428   5.619   7.282 -2.5167 -0.4719 -1.0653
  908MOL0     H19856   6.291   5.428   7.313 -0.6544 -0.1148 -1.3556
  909MOL0     O19857   1.249  10.526   9.463  0.2855 -0.3502 -0.5466
  909MOL0     C19858   1.337  10.598   9.516  0.0520 -0.0786 -0.0628
  909MOL0     O19859   1.317  10.728   9.565 -1.1209  0.1983 -0.0062
  909MOL0     C19860   1.189  10.779   9.567  0.2420 -0.0598 -0.2213
  909MOL0     C19861   1.182  10.914   9.540 -0.2884 -0.5164 -0.3910
  909MOL0     C19862   1.067  10.991   9.562  0.1588  0.0337 -0.1410
  909MOL0     C19863   0.952  10.935   9.612 -0.0068 -0.1131  0.2625
  909MOL0     O19864   0.846  11.007   9.650 -0.5993 -0.2062  0.2091
  909MOL0     C19865   0.785  11.072   9.535 -0.8831  0.0686 -0.1867
  909MOL0     C19866   0.638  11.118   9.569  0.4380  0.2993  0.6422
  909MOL0     C19867   0.580  11.194   9.443 -0.3110 -0.0743  0.5782
  909MOL0     C19868   0.427  11.216   9.442 -1.3255 -0.4484  0.2998
  909MOL0     C19869   0.375  11.209   9.290 -0.3818 -0.6370  0.5466
  909MOL0     C19870   0.222  11.178   9.292 -1.2862 -0.1052  0.2433
  909MOL0     C19871   0.133  11.169   9.161  0.2962  0.5705  0.3884
  909MOL0     C19872   0.128  11.303   9.085 -0.7647 -0.2021  0.2354
  909MOL0     N19873   0.052  11.410   9.158  0.5046  0.0869  0.3619
  909MOL0     C19874  -0.071  11.461   9.125  0.2049  0.6251  0.6344
  909MOL0     C19875  -0.095  11.547   9.223 -0.0058 -0.8519  0.7551
  909MOL0     C19876  -0.224  11.616   9.255  0.2767 -0.0045 -0.0256
  909MOL0     C19877  -0.349  11.518   9.251 -0.6912  0.0019 -0.6647
  909MOL0     C19878  -0.484  11.587   9.252 -0.6446 -0.8502  0.0100
  909MOL0     C19879  -0.514  11.674   9.366  0.1442  0.3928 -0.4327
  909MOL0     O19880  -0.537  11.576   9.471  0.2249  0.0740  0.1622
  909MOL0     C19881  -0.667  11.556   9.507 -0.5296  0.7740 -0.1491
  909MOL0     C19882  -0.673  11.508   9.632 -0.2049 -0.5708  0.3040
  909MOL0     C19883  -0.797  11.483   9.698 -0.2368 -0.3408  0.7335
  909MOL0     C19884  -0.918  11.505   9.625  0.3612 -0.2216 -0.2745
  909MOL0     C19885  -1.045  11.472   9.682 -0.4422  0.0228 -0.0251
  909MOL0     O19886  -1.160  11.523   9.621  0.3792 -0.6058 -0.2256
  909MOL0     C19887  -1.291  11.495   9.652  0.8734 -1.0093  0.0199
  909MOL0     C19888  -1.391  11.597   9.613 -0.2935  0.3361  0.1684
  909MOL0     C19889  -1.515  11.594   9.661  0.4997  0.3886  0.5832
  909MOL0     C19890  -1.556  11.489   9.750  0.5602 -0.4092  0.6310
  909MOL0     O19891  -1.676  11.493   9.819  0.2758 -0.3186 -0.1860
  909MOL0     C19892  -1.778  11.590   9.780 -0.2148  0.0861  0.8247
  909MOL0     C19893  -1.913  11.532   9.818  1.1672 -0.0618 -0.2540
  909MOL0     C19894  -1.952  11.397   9.748 -0.4108 -0.4550  0.7979
  909MOL0     C19895  -2.093  11.341   9.790 -0.1639  0.1148  0.3569
  909MOL0     C19896  -2.125  11.204   9.734  0.5061 -0.4219 -0.0112
  909MOL0     C19897  -2.018  11.098   9.773 -0.4087  0.3615 -0.6639
  909MOL0     C19898  -1.977  11.103   9.926 -0.0212  0.5304  0.3655
  909MOL0     C19899  -2.100  11.066  10.006 -0.5204  0.6076 -0.2171
  909MOL0    Cl19900  -2.043  11.018  10.169  0.0590  0.2211 -0.1402
  909MOL0     C19901  -1.466  11.387   9.785  0.2659 -0.5578  1.5271
  909MOL0     C19902  -1.336  11.392   9.726 -0.5012  0.6724 -0.1476
  909MOL0     O19903  -1.044  11.409   9.786  0.0077  0.4155 -0.4583
  909MOL0     C19904  -0.910  11.554   9.500 -0.0746 -0.3904  0.7529
  909MOL0     C19905  -0.786  11.578   9.438 -1.0805 -0.4747  0.2641
  909MOL0     N19906   0.020  11.574   9.298  0.6840  0.8972 -0.7222
  909MOL0     N19907   0.102  11.491   9.260 -0.6588  0.1552 -0.2280
  909MOL0     C19908   0.965  10.789   9.640  0.2852  0.3369 -0.2546
  909MOL0     C19909   1.080  10.712   9.618 -0.0098  0.4182  0.1058
  909MOL0     C19910   1.475  10.552   9.517  0.4111  0.2440  1.4433
  909MOL0     C19911   1.568  10.624   9.593  0.6543  0.6288 -0.2786
  909MOL0     C19912   1.706  10.584   9.592 -0.2296  0.5488  0.3434
  909MOL0     C19913   1.745  10.472   9.520  0.1049  0.0573 -0.3217
  909MOL0     O19914   1.880  10.456   9.528 -0.5347 -0.6613 -0.1119
  909MOL0     C19915   1.927  10.325   9.486  0.2373  1.4096  0.5933
  909MOL0     C19916   2.072  10.299   9.532 -0.2496 -0.6966 -0.2133
  909MOL0     C19917   2.180  10.404   9.474  0.0234 -0.2747 -0.1362
  909MOL0     C19918   2.333  10.363   9.491 -0.3013 -0.5815  0.3717
  909MOL0     C19919   2.382  10.304   9.363  0.5509 -1.2706 -0.6446
  909MOL0     C19920   2.445  10.265   9.267 -0.4890  0.4381  0.2293
  909MOL0     C19921   1.650  10.396   9.448 -0.8290  0.0517 -0.4952
  909MOL0     C19922   1.518  10.435   9.447  0.7967  0.2146  0.1145
  909MOL0     H19923   1.269  10.967   9.502  1.1251 -0.3115  2.8220
  909MOL0     H19924   1.078  11.095   9.534  1.1819  0.3336  1.2382
  909MOL0     H19925   0.777  10.996   9.456  1.5447 -1.3024  0.7875
  909MOL0     H19926   0.847  11.151   9.494  0.9172 -1.0481  0.2939
  909MOL0     H19927   0.622  11.189   9.650 -0.0612 -0.0061  0.8145
  909MOL0     H19928   0.572  11.032   9.584 -0.4283  1.4393  4.3585
  909MOL0     H19929   0.598  11.128   9.358 -2.4500  1.7222 -1.3944
  909MOL0     H19930   0.628  11.290   9.426 -1.3334  0.6739  1.7164
  909MOL0     H19931   0.384  11.133   9.497 -3.7081  1.4059  1.4039
  909MOL0     H19932   0.395  11.310   9.488  0.5425 -0.4839  1.7762
  909MOL0     H19933   0.428  11.130   9.236 -3.0645 -2.6137  0.6098
  909MOL0     H19934   0.386  11.307   9.244 -0.3710  0.5393  2.9083
  909MOL0     H19935   0.189  11.248   9.369  1.8043  1.5480  0.2283
  909MOL0     H19936   0.205  11.081   9.342 -7.9744  0.3985 -0.0863
  909MOL0     H19937   0.177  11.095   9.094 -0.0379  0.8450 -0.1362
  909MOL0     H19938   0.031  11.135   9.181  0.3436  0.9541  1.3041
  909MOL0     H19939   0.092  11.291   8.983 -1.4196 -1.1547  0.5687
  909MOL0     H19940   0.227  11.347   9.075 -0.5692 -0.4908  0.8787
  909MOL0     H19941  -0.136  11.421   9.047  1.6145 -0.4451 -0.0487
  909MOL0     H19942  -0.238  11.692   9.178  1.9894 -2.0920 -2.5977
  909MOL0     H19943  -0.220  11.678   9.345 -0.4994  2.1846 -1.4260
  909MOL0     H19944  -0.348  11.445   9.332 -0.6789  2.6394  1.8831
  909MOL0     H19945  -0.346  11.451   9.164 -0.3097 -1.4998  0.4780
  909MOL0     H19946  -0.493  11.647   9.160  1.0563 -0.4056  0.0921
  909MOL0     H19947  -0.555  11.506   9.241 -0.8421 -0.7456  0.5058
  909MOL0     H19948  -0.596  11.740   9.338  1.9776  2.3974 -1.2904
  909MOL0     H19949  -0.428  11.736   9.394  2.6639 -1.8410 -2.6831
  909MOL0     H19950  -0.579  11.491   9.683 -1.3775 -1.7160  2.1917
  909MOL0     H19951  -0.786  11.447   9.800 -0.0590 -0.4415  0.6794
  909MOL0     H19952  -1.367  11.677   9.544 -4.5174  0.9304 -0.9081
  909MOL0     H19953  -1.567  11.688   9.647 -0.5190 -0.1574  0.6239
  909MOL0     H19954  -1.777  11.610   9.673  1.2280 -0.8792  0.6182
  909MOL0     H19955  -1.753  11.682   9.832 -2.8328  0.9132  0.7335
  909MOL0     H19956  -1.987  11.607   9.791  1.8170  0.8024  0.2974
  909MOL0     H19957  -1.929  11.509   9.924 -2.2091  1.9045 -0.2054
  909MOL0     H19958  -1.870  11.329   9.775 -0.0073 -0.0972  0.4824
  909MOL0     H19959  -1.944  11.423   9.642  2.1793 -0.3651  0.9436
  909MOL0     H19960  -2.106  11.350   9.898 -2.7636  1.2450  0.0216
  909MOL0     H19961  -2.170  11.396   9.736  0.5751 -1.1880 -2.1953
  909MOL0     H19962  -2.141  11.202   9.625  0.9936 -1.8077 -0.0713
  909MOL0     H19963  -2.219  11.159   9.769  0.4756 -0.5374 -0.2346
  909MOL0     H19964  -1.925  11.114   9.718 -0.0338 -1.7005 -0.7065
  909MOL0     H19965  -2.044  10.996   9.744  1.9849 -0.2331 -0.9232
  909MOL0     H19966  -1.900  11.026   9.938  1.8663  2.0464 -1.3903
  909MOL0     H19967  -1.937  11.197   9.966  1.2114 -0.6913  2.1606
  909MOL0     H19968  -2.156  10.982   9.963  1.0338 -1.3657  1.4500
  909MOL0     H19969  -2.165  11.154  10.015 -1.7089 -0.1017 -1.5514
  909MOL0     H19970  -1.488  11.333   9.877  1.6267  0.2032  2.3449
  909MOL0     H19971  -1.263  11.325   9.770 -0.6600 -0.8541 -2.0749
  909MOL0     H19972  -0.996  11.560   9.434 -0.0961 -2.5944  0.5076
  909MOL0     H19973  -0.792  11.619   9.338 -1.2016 -2.1736 -0.4491
  909MOL0     H19974   0.875  10.747   9.683 -1.2114  1.8729 -1.7450
  909MOL0     H19975   1.086  10.605   9.636 -0.5300  0.1475 -1.2081
  909MOL0     H19976   1.546  10.711   9.654  0.2487 -0.3442  0.9987
  909MOL0     H19977   1.776  10.636   9.657  1.5779 -0.9238 -0.3055
  909MOL0     H19978   1.927  10.323   9.377  1.3301 -2.6033  0.5121
  909MOL0     H19979   1.866  10.243   9.524  0.9722  0.4578 -0.2213
  909MOL0     H19980   2.085  10.299   9.640 -0.1144  0.5524 -0.2182
  909MOL0     H19981   2.100  10.198   9.498  1.0704  0.3265 -2.4127
  909MOL0     H19982   2.154  10.493   9.532 -2.0831 -0.5761 -0.5630
  909MOL0     H19983   2.158  10.428   9.369  0.5146  2.4374  0.2903
  909MOL0     H19984   2.388  10.457   9.505 -0.9572 -0.1278 -0.0393
  909MOL0     H19985   2.348  10.295   9.575  0.6807 -1.6757 -0.6594
  909MOL0     H19986   2.495  10.206   9.193 -2.4883  0.2803 -1.0772
  909MOL0     H19987   1.674  10.308   9.388 -0.6218  0.3241 -0.8167
  909MOL0     H19988   1.453  10.377   9.382 -0.0485 -1.0447  1.9690
  910MOL0     O19989   6.211   3.014   5.016  0.3115  0.8185  0.2146
  910MOL0     C19990   6.302   3.086   4.973  0.3360 -0.5010  0.0336
  910MOL0     O19991   6.288   3.194   4.884  1.0651  0.8184  0.2073
  910MOL0     C19992   6.166   3.250   4.856 -0.1475 -0.3220  0.0241
  910MOL0     C19993   6.174   3.330   4.743  0.4614  0.1585 -0.2141
  910MOL0     C19994   6.061   3.396   4.700  0.0567 -0.4583  0.5281
  910MOL0     C19995   5.934   3.401   4.768  1.4865 -0.1802  1.1631
  910MOL0     O19996   5.822   3.474   4.710 -0.9821  0.0509 -0.0534
  910MOL0     C19997   5.689   3.455   4.751 -0.0869 -0.5642 -0.7562
  910MOL0     C19998   5.650   3.555   4.859 -0.2303 -0.2817  0.6833
  910MOL0     C19999   5.693   3.694   4.809  0.2676 -0.9432 -0.5069
  910MOL0     C20000   5.605   3.800   4.868 -0.1045  0.7297  0.1483
  910MOL0     C20001   5.641   3.944   4.825  0.4474  0.0782 -0.9101
  910MOL0     C20002   5.537   4.058   4.851  0.6366  0.6326 -0.0530
  910MOL0     C20003   5.567   4.183   4.768 -0.1197  0.0648 -0.7445
  910MOL0     C20004   5.498   4.300   4.829 -0.9683 -0.4759  0.0689
  910MOL0     N20005   5.508   4.402   4.713 -0.5145 -0.0815  0.2972
  910MOL0     C20006   5.401   4.467   4.649 -0.3646  0.1865  0.2379
  910MOL0     C20007   5.462   4.565   4.586  0.0639 -0.5156  0.2027
  910MOL0     C20008   5.392   4.673   4.503 -0.0731 -0.1752  0.0571
  910MOL0     C20009   5.305   4.632   4.385 -0.4371  0.5674 -0.2027
  910MOL0     C20010   5.259   4.746   4.291  0.4081  0.1526  0.4713
  910MOL0     C20011   5.195   4.875   4.358 -0.8211 -1.3527  0.3560
  910MOL0     O20012   5.063   4.855   4.408 -0.2005  0.7618 -0.5534
  910MOL0     C20013   4.990   4.950   4.477  0.0575 -0.1003 -0.6525
  910MOL0     C20014   4.858   4.928   4.515 -0.0368  0.7460 -0.2543
  910MOL0     C20015   4.787   5.027   4.586  0.6477 -0.4783 -0.1734
  910MOL0     C20016   4.843   5.151   4.619 -0.2225  0.3532  0.2017
  910MOL0     C20017   4.776   5.252   4.699 -0.8564 -0.0978  0.3061
  910MOL0     O20018   4.656   5.224   4.745  0.1425  0.1739  0.5998
  910MOL0     C20019   4.573   5.315   4.805 -0.8262  0.5243 -0.8155
  910MOL0     C20020   4.556   5.443   4.760  0.2677  0.3920  0.4293
  910MOL0     C20021   4.468   5.531   4.812 -0.4035 -0.0695 -0.2137
  910MOL0     C20022   4.404   5.496   4.932 -0.7050 -0.2112 -0.0838
  910MOL0     O20023   4.318   5.589   4.991  0.1398  0.0057  1.0460
  910MOL0     C20024   4.215   5.536   5.074  0.1014 -0.5485  0.0129
  910MOL0     C20025   4.119   5.650   5.129 -0.3881 -0.2249 -0.3244
  910MOL0     C20026   4.003   5.601   5.211 -0.7174  0.3376 -0.2335
  910MOL0     C20027   3.902   5.711   5.233  0.6299  0.8204  0.5708
  910MOL0     C20028   3.797   5.659   5.344  0.6214 -0.6353  0.3261
  910MOL0     C20029   3.692   5.771   5.373 -0.3971  0.1074 -0.3118
  910MOL0     C20030   3.568   5.704   5.435  0.7373  0.3756 -0.0495
  910MOL0     C20031   3.488   5.803   5.521 -0.1542  0.3276 -0.2071
  910MOL0    Cl20032   3.328   5.730   5.580  0.3599  0.3291  0.0808
  910MOL0     C20033   4.421   5.363   4.985 -0.3620 -0.1319 -0.8295
  910MOL0     C20034   4.508   5.271   4.920  0.2007  1.0112 -0.2465
  910MOL0     O20035   4.835   5.358   4.724 -0.1179  0.2923 -0.8544
  910MOL0     C20036   4.974   5.182   4.570 -0.0899 -0.6510 -0.1243
  910MOL0     C20037   5.046   5.074   4.509 -0.2915 -0.5453  0.3234
  910MOL0     N20038   5.597   4.569   4.609 -0.1621  0.5976  0.1207
  910MOL0     N20039   5.621   4.473   4.687 -0.1728 -0.1233 -0.1038
  910MOL0     C20040   5.929   3.321   4.883 -0.6130 -0.3047 -0.0231
  910MOL0     C20041   6.047   3.247   4.935  0.1406  0.1422  0.8947
  910MOL0     C20042   6.438   3.042   5.003 -0.5427  0.0459 -0.4904
  910MOL0     C20043   6.541   3.129   4.971  0.5987  0.2687  0.6027
  910MOL0     C20044   6.675   3.091   5.004 -0.0836  0.3340 -0.0325
  910MOL0     C20045   6.709   2.969   5.062 -0.5036 -0.5891 -0.0081
  910MOL0     O20046   6.839   2.956   5.088  0.5346 -0.0737 -0.4463
  910MOL0     C20047   6.879   2.843   5.173 -0.0959 -0.4398 -0.3848
  910MOL0     C20048   7.028   2.834   5.196 -0.2300 -0.1269  0.6338
  910MOL0     C20049   7.087   2.965   5.245 -0.1104  1.1465  0.2680
  910MOL0     C20050   7.040   3.037   5.370 -0.1204  0.6694  0.1163
  910MOL0     C20051   7.144   3.108   5.441  0.2026 -0.4350  0.1644
  910MOL0     C20052   7.224   3.187   5.486 -0.1026 -0.0232  1.1739
  910MOL0     C20053   6.605   2.884   5.100 -0.6326 -0.2732  0.2597
  910MOL0     C20054   6.469   2.917   5.071 -0.1283  0.2408  0.0070
  910MOL0     H20055   6.264   3.322   4.684  1.3443  1.6215  0.8754
  910MOL0     H20056   6.059   3.442   4.602 -0.0313 -1.1352  0.2068
  910MOL0     H20057   5.658   3.359   4.794 -0.7816 -0.3601 -0.7862
  910MOL0     H20058   5.627   3.471   4.662 -1.6869  3.7093  0.8477
  910MOL0     H20059   5.695   3.534   4.956 -1.0584 -0.6153  1.0033
  910MOL0     H20060   5.546   3.533   4.881  0.2773 -2.7807  0.9056
  910MOL0     H20061   5.681   3.690   4.701  3.6538  1.8743 -1.1405
  910MOL0     H20062   5.799   3.702   4.833 -0.0211 -2.2104  1.4281
  910MOL0     H20063   5.503   3.773   4.838  0.4918  0.7353 -2.0210
  910MOL0     H20064   5.608   3.793   4.978  3.5065  1.1173  0.1923
  910MOL0     H20065   5.651   3.939   4.716 -0.1637  0.2909 -0.9794
  910MOL0     H20066   5.725   3.980   4.885 -1.6803 -1.1824  3.2260
  910MOL0     H20067   5.535   4.083   4.957 -1.8141  0.9776 -0.1167
  910MOL0     H20068   5.441   4.023   4.813  1.5715  0.4218 -2.3953
  910MOL0     H20069   5.675   4.200   4.757 -0.1297  0.1024 -0.7869
  910MOL0     H20070   5.526   4.166   4.668  0.5218 -0.0109 -0.9990
  910MOL0     H20071   5.552   4.332   4.919 -2.8589  0.0190  1.0738
  910MOL0     H20072   5.394   4.284   4.857 -1.0762 -0.2195 -0.1750
  910MOL0     H20073   5.296   4.444   4.663 -0.2575  0.3012  1.3058
  910MOL0     H20074   5.465   4.744   4.463 -0.0765 -0.6905 -0.8936
  910MOL0     H20075   5.326   4.725   4.573 -0.2143 -2.1768  1.5103
  910MOL0     H20076   5.223   4.577   4.431  1.4713 -1.3464  1.0727
  910MOL0     H20077   5.365   4.561   4.328  0.3505 -0.6155  2.0206
  910MOL0     H20078   5.351   4.764   4.233  0.9383 -0.5013  1.0955
  910MOL0     H20079   5.183   4.697   4.229 -0.3901  1.0703  0.7064
  910MOL0     H20080   5.197   4.960   4.289 -1.2390 -2.3233 -0.8870
  910MOL0     H20081   5.262   4.894   4.442 -0.1087  1.2184 -0.7091
  910MOL0     H20082   4.829   4.826   4.494  2.1823  0.2380 -1.0464
  910MOL0     H20083   4.684   5.006   4.613  0.7744 -0.6952  0.1467
  910MOL0     H20084   4.595   5.484   4.667  0.5618  3.4518  1.7778
  910MOL0     H20085   4.456   5.627   4.762 -0.3422 -0.2643 -0.6093
  910MOL0     H20086   4.251   5.475   5.158  1.0562 -1.0556 -0.7505
  910MOL0     H20087   4.152   5.470   5.015  0.5639 -0.0250 -1.1055
  910MOL0     H20088   4.077   5.709   5.047 -2.1071  0.9745  1.3175
  910MOL0     H20089   4.180   5.714   5.193  0.6205 -0.8760 -0.6215
  910MOL0     H20090   4.033   5.555   5.306  0.3579  2.9844  0.7991
  910MOL0     H20091   3.952   5.520   5.157  0.9650 -0.1834 -1.1195
  910MOL0     H20092   3.960   5.793   5.277  2.3137 -0.6333  1.1758
  910MOL0     H20093   3.854   5.734   5.137  0.0394 -2.4269 -0.0174
  910MOL0     H20094   3.853   5.618   5.428  0.6600 -1.4809 -0.1006
  910MOL0     H20095   3.746   5.569   5.311  0.7239 -0.3897 -0.5442
  910MOL0     H20096   3.661   5.832   5.288 -0.1759  1.0723  0.2879
  910MOL0     H20097   3.747   5.837   5.441  1.9660 -1.5394 -0.4933
  910MOL0     H20098   3.508   5.651   5.361 -0.7379  1.1116  0.5667
  910MOL0     H20099   3.604   5.630   5.508 -0.0367 -1.1948 -1.2125
  910MOL0     H20100   3.463   5.891   5.461  0.5056 -0.5972 -1.8941
  910MOL0     H20101   3.558   5.834   5.599  0.0785  0.3257 -0.4144
  910MOL0     H20102   4.380   5.333   5.081  1.0749  2.0333  0.5745
  910MOL0     H20103   4.523   5.174   4.968  2.1796  0.9603 -0.8812
  910MOL0     H20104   5.025   5.276   4.589  1.5486 -1.3182 -0.9739
  910MOL0     H20105   5.150   5.086   4.481  0.4394 -4.1280  0.9890
  910MOL0     H20106   5.840   3.326   4.945  0.1598 -1.0050  1.1992
  910MOL0     H20107   6.040   3.180   5.020  2.2391 -1.4183 -0.0839
  910MOL0     H20108   6.519   3.226   4.929 -1.8805 -0.6001 -0.2975
  910MOL0     H20109   6.748   3.171   5.008 -0.4133  0.7678 -1.9664
  910MOL0     H20110   6.839   2.751   5.128  1.6574 -1.7498  0.6001
  910MOL0     H20111   6.841   2.865   5.274  2.4581 -1.7934  0.9563
  910MOL0     H20112   7.046   2.755   5.269 -3.4758 -0.4741  1.2119
  910MOL0     H20113   7.080   2.806   5.104  0.9054  0.7286  0.9928
  910MOL0     H20114   7.089   3.036   5.162 -0.9771  0.9905  0.1049
  910MOL0     H20115   7.191   2.932   5.257  0.3334  1.8148 -1.4451
  910MOL0     H20116   6.973   3.118   5.340 -2.1591 -1.9246 -2.9407
  910MOL0     H20117   6.972   2.976   5.431 -1.0716  1.7285  0.1500
  910MOL0     H20118   7.296   3.258   5.522 -1.0587  2.2344 -1.0641
  910MOL0     H20119   6.607   2.788   5.150 -2.4869 -0.9908 -0.9180
  910MOL0     H20120   6.387   2.855   5.106  2.0124 -0.5721  4.2685
  911MOL0     O20121   3.206   3.075   4.885  0.7103  0.0760 -0.5661
  911MOL0     C20122   3.304   3.146   4.865  0.1046  0.8413 -0.1832
  911MOL0     O20123   3.322   3.276   4.905  0.5489 -0.6992  0.0458
  911MOL0     C20124   3.239   3.343   5.001  0.4002 -0.3775  0.5664
  911MOL0     C20125   3.115   3.301   5.047  0.4777 -0.3156 -0.6085
  911MOL0     C20126   3.044   3.375   5.138 -0.2934  0.3689 -0.0640
  911MOL0     C20127   3.091   3.498   5.185  0.3769  0.3564 -0.4227
  911MOL0     O20128   3.023   3.559   5.288  0.0393  0.5524 -0.1630
  911MOL0     C20129   2.879   3.538   5.311 -0.5465 -0.6277 -0.7334
  911MOL0     C20130   2.831   3.651   5.401 -0.3279  0.0808  0.0652
  911MOL0     C20131   2.695   3.623   5.457  0.1577  0.4010  0.3754
  911MOL0     C20132   2.640   3.755   5.515 -0.1413 -0.0360 -0.9128
  911MOL0     C20133   2.507   3.731   5.584  0.1609 -0.3208  0.6326
  911MOL0     C20134   2.459   3.856   5.638 -0.9148 -0.0202 -0.2558
  911MOL0     C20135   2.322   3.834   5.703  0.3036  0.4470  0.6172
  911MOL0     C20136   2.310   3.754   5.839  0.2684  0.5132 -0.1763
  911MOL0     N20137   2.173   3.755   5.871  0.2317  0.3277 -0.5330
  911MOL0     C20138   2.087   3.660   5.829 -0.2379 -0.7815  0.2718
  911MOL0     C20139   1.967   3.719   5.867  0.7055  0.5161 -0.6026
  911MOL0     C20140   1.841   3.664   5.808 -0.6112  0.3856 -0.2364
  911MOL0     C20141   1.711   3.696   5.884  0.1259 -0.6642  0.5390
  911MOL0     C20142   1.662   3.840   5.852 -0.2136  0.2965  0.0624
  911MOL0     C20143   1.517   3.859   5.889 -0.5233  0.3342  0.1407
  911MOL0     O20144   1.506   3.815   6.027 -0.2096 -0.0449  0.9169
  911MOL0     C20145   1.388   3.825   6.096  0.4897  0.1315  0.5033
  911MOL0     C20146   1.266   3.840   6.031  0.0925  0.2531 -0.1717
  911MOL0     C20147   1.143   3.841   6.106 -0.5100 -0.7023 -0.6164
  911MOL0     C20148   1.138   3.827   6.244  0.0012  0.6058 -0.9011
  911MOL0     C20149   1.010   3.836   6.311  0.4889  0.5981 -0.1243
  911MOL0     O20150   0.896   3.881   6.253 -0.5819 -0.5648 -0.3301
  911MOL0     C20151   0.791   3.912   6.331  0.5499  0.0917  0.3780
  911MOL0     C20152   0.804   4.011   6.427  1.2733  0.6924 -0.5451
  911MOL0     C20153   0.693   4.045   6.500  1.1271 -0.9003  0.3005
  911MOL0     C20154   0.570   3.989   6.474  0.1172  0.1745 -0.8523
  911MOL0     O20155   0.460   4.030   6.550 -0.4287  0.0991  0.4791
  911MOL0     C20156   0.349   3.937   6.565  0.1527 -0.1182  0.6616
  911MOL0     C20157   0.253   3.997   6.678 -0.1973 -0.0052  0.7365
  911MOL0     C20158   0.202   4.137   6.643  0.1631  0.0465 -0.3248
  911MOL0     C20159   0.168   4.213   6.770 -0.0529 -0.5340 -0.0406
  911MOL0     C20160   0.093   4.337   6.740 -0.2039 -0.6177  0.0464
  911MOL0     C20161   0.156   4.449   6.664 -0.7257  0.7239  0.3256
  911MOL0     C20162   0.058   4.556   6.614 -0.7183 -0.5554 -0.5401
  911MOL0     C20163  -0.018   4.619   6.732 -0.6572 -0.3635  0.8426
  911MOL0    Cl20164  -0.105   4.757   6.668 -0.1640  0.1610 -0.1124
  911MOL0     C20165   0.552   3.897   6.367 -0.2562 -0.2984  0.2373
  911MOL0     C20166   0.662   3.855   6.293 -0.0896  0.4863  0.0549
  911MOL0     O20167   1.018   3.800   6.430 -0.5225 -0.6312  0.3002
  911MOL0     C20168   1.267   3.805   6.307  0.1171  0.3591 -0.0627
  911MOL0     C20169   1.381   3.808   6.234  0.4831 -0.5660 -0.2697
  911MOL0     N20170   1.980   3.846   5.928 -0.2391  0.1219  0.0590
  911MOL0     N20171   2.108   3.862   5.926  0.2864 -0.3399  0.7118
  911MOL0     C20172   3.216   3.546   5.141  0.4544 -0.1373  0.4032
  911MOL0     C20173   3.283   3.469   5.045 -0.4759 -0.7805 -0.3608
  911MOL0     C20174   3.421   3.081   4.802 -0.9072  0.8963 -0.7004
  911MOL0     C20175   3.449   2.945   4.816  0.4349 -0.5604  0.2030
  911MOL0     C20176   3.569   2.883   4.771  0.1348  0.5937 -0.4388
  911MOL0     C20177   3.658   2.971   4.693  0.1207 -0.6284 -0.0973
  911MOL0     O20178   3.778   2.918   4.657 -1.0027  0.3329  0.6906
  911MOL0     C20179   3.891   2.998   4.613  0.1188 -0.0071  0.2434
  911MOL0     C20180   3.997   2.909   4.530  0.1127  0.6234 -0.1316
  911MOL0     C20181   4.127   2.983   4.512 -0.5349  0.6093  0.1034
  911MOL0     C20182   4.241   2.897   4.455  0.7412  0.2607  0.0355
  911MOL0     C20183   4.271   2.782   4.540 -0.4569  0.2923 -0.1371
  911MOL0     C20184   4.291   2.693   4.621  0.9461  0.4136  0.0039
  911MOL0     C20185   3.622   3.104   4.665 -0.2678 -0.8796 -0.3475
  911MOL0     C20186   3.507   3.153   4.725 -0.1787  0.0266 -0.3516
  911MOL0     H20187   3.074   3.204   5.021  1.1369 -0.2903 -1.7996
  911MOL0     H20188   2.958   3.332   5.189  0.9897 -1.4141  0.6857
  911MOL0     H20189   2.859   3.445   5.366 -2.5239  0.8168  1.1647
  911MOL0     H20190   2.813   3.524   5.225 -3.6225 -0.8550  1.4559
  911MOL0     H20191   2.829   3.749   5.353 -0.3594  0.4210  0.7494
  911MOL0     H20192   2.899   3.661   5.487 -0.7628  1.5765  0.2576
  911MOL0     H20193   2.699   3.550   5.538 -1.6845  0.3064  0.4260
  911MOL0     H20194   2.614   3.593   5.390  1.1940  0.4893 -0.9686
  911MOL0     H20195   2.713   3.789   5.589  1.0485 -1.2348 -1.5043
  911MOL0     H20196   2.623   3.839   5.446  1.2998  1.6080  0.6253
  911MOL0     H20197   2.527   3.663   5.667  0.1759  1.0488  1.7929
  911MOL0     H20198   2.437   3.683   5.515  0.5442  0.9190 -0.6775
  911MOL0     H20199   2.444   3.936   5.566 -1.2388  2.0335  1.9511
  911MOL0     H20200   2.529   3.900   5.710 -1.7932  1.3682 -0.2106
  911MOL0     H20201   2.274   3.932   5.713  0.1876  0.3313  1.2637
  911MOL0     H20202   2.267   3.773   5.631  1.6538  2.4504 -2.3084
  911MOL0     H20203   2.363   3.809   5.917 -1.3548  3.0931 -0.7599
  911MOL0     H20204   2.342   3.653   5.811 -2.3690  0.1156 -2.1797
  911MOL0     H20205   2.104   3.568   5.776  3.3928  0.0021 -0.1762
  911MOL0     H20206   1.840   3.555   5.814  0.9078  0.3787  0.3369
  911MOL0     H20207   1.836   3.700   5.705  0.1231  1.9366  0.2414
  911MOL0     H20208   1.725   3.686   5.992 -0.3585  0.8522  0.7610
  911MOL0     H20209   1.639   3.620   5.853  1.0997 -0.8392 -1.4811
  911MOL0     H20210   1.724   3.917   5.898  0.4287 -0.6997  0.9054
  911MOL0     H20211   1.667   3.854   5.743 -1.2588  4.2434  0.3795
  911MOL0     H20212   1.464   3.799   5.815  3.7001 -1.4543 -1.7362
  911MOL0     H20213   1.494   3.965   5.877 -1.3601  0.5248  2.6984
  911MOL0     H20214   1.263   3.846   5.922  0.8437  0.4966 -0.1888
  911MOL0     H20215   1.055   3.870   6.050 -0.1260  0.7439 -0.5011
  911MOL0     H20216   0.897   4.059   6.457  0.4727  0.5388  2.4921
  911MOL0     H20217   0.701   4.120   6.578 -0.4145 -1.4245  0.9864
  911MOL0     H20218   0.389   3.841   6.599 -0.6883 -0.5891  0.3303
  911MOL0     H20219   0.285   3.927   6.477 -2.1559  4.0843  1.6349
  911MOL0     H20220   0.310   3.998   6.771  1.7401 -1.8263 -0.3362
  911MOL0     H20221   0.163   3.935   6.690 -0.8520  0.2056 -2.3605
  911MOL0     H20222   0.120   4.124   6.572  1.2833 -1.8767 -1.3461
  911MOL0     H20223   0.282   4.192   6.592  1.5395 -2.3093 -0.8734
  911MOL0     H20224   0.114   4.144   6.835  1.1774 -0.9504  0.5580
  911MOL0     H20225   0.254   4.253   6.825 -0.0576 -1.1982  0.4573
  911MOL0     H20226   0.064   4.374   6.839 -3.6545 -0.5169 -0.8841
  911MOL0     H20227   0.005   4.307   6.683 -0.6103 -1.8216  1.2442
  911MOL0     H20228   0.214   4.411   6.580 -0.2107  2.3846 -0.1094
  911MOL0     H20229   0.232   4.491   6.732  0.4664 -0.4607 -0.2289
  911MOL0     H20230   0.126   4.629   6.569 -0.6004  0.4686  1.2099
  911MOL0     H20231  -0.018   4.520   6.544  1.2593 -1.2417 -2.4698
  911MOL0     H20232   0.035   4.657   6.820 -2.4132 -0.4498  1.9866
  911MOL0     H20233  -0.093   4.550   6.772  1.6596 -2.0201  2.5689
  911MOL0     H20234   0.449   3.876   6.339 -0.4280  0.1393  0.5357
  911MOL0     H20235   0.671   3.779   6.216  0.3808 -1.7286  2.1751
  911MOL0     H20236   1.279   3.784   6.412 -0.7120  4.4003  1.0128
  911MOL0     H20237   1.472   3.801   6.292  0.7772  0.0299 -0.6380
  911MOL0     H20238   3.270   3.632   5.180 -0.8146  0.4829  0.8624
  911MOL0     H20239   3.381   3.504   5.016  0.8931 -4.1309 -0.2226
  911MOL0     H20240   3.372   2.888   4.868  1.1561 -0.7007  1.1518
  911MOL0     H20241   3.591   2.779   4.790 -2.2357 -0.1181 -1.1697
  911MOL0     H20242   3.940   3.043   4.700 -1.8029  0.7999  0.9655
  911MOL0     H20243   3.868   3.082   4.547 -0.5479  0.8239  1.4798
  911MOL0     H20244   4.013   2.820   4.591 -1.1438  0.9870  0.7899
  911MOL0     H20245   3.959   2.862   4.439  1.4734 -4.3169  1.5125
  911MOL0     H20246   4.160   3.035   4.603  1.6181  1.3665 -1.0345
  911MOL0     H20247   4.116   3.068   4.444 -0.2368 -0.9267 -1.9522
  911MOL0     H20248   4.206   2.861   4.358  0.4965 -3.4253  1.3370
  911MOL0     H20249   4.329   2.962   4.450 -0.4539  1.8670 -1.0511
  911MOL0     H20250   4.298   2.617   4.696 -1.2776  1.0055  0.9054
  911MOL0     H20251   3.696   3.163   4.611  2.7138 -2.7556  1.4499
  911MOL0     H20252   3.483   3.257   4.705 -1.4801 -0.0258  0.7633
  912MOL0     O20253   8.905   1.240   5.199  0.2712 -0.3976  0.5752
  912MOL0     C20254   8.913   1.289   5.309 -0.5296 -0.0041 -0.6140
  912MOL0     O20255   8.807   1.358   5.371  0.3648  0.3287 -0.3794
  912MOL0     C20256   8.677   1.331   5.360 -0.4411  0.0943 -0.4826
  912MOL0     C20257   8.601   1.414   5.439  0.6299  0.2518  0.7631
  912MOL0     C20258   8.467   1.409   5.445  0.7522  0.8404 -0.3203
  912MOL0     C20259   8.387   1.307   5.369 -0.3525  1.4364 -0.6404
  912MOL0     O20260   8.252   1.303   5.374  0.2103  0.4477 -0.4985
  912MOL0     C20261   8.182   1.274   5.250  0.1755 -0.4785 -0.0315
  912MOL0     C20262   8.035   1.304   5.257  0.0716 -0.9435  0.0065
  912MOL0     C20263   7.966   1.212   5.355  0.0691 -0.2408 -0.8086
  912MOL0     C20264   7.814   1.225   5.334  0.4548  0.3675 -0.8709
  912MOL0     C20265   7.748   1.124   5.436 -0.7780  0.1063  0.5945
  912MOL0     C20266   7.616   1.162   5.469 -0.9691  0.0734  0.4334
  912MOL0     C20267   7.571   1.089   5.596  0.7846 -0.0355 -0.4704
  912MOL0     C20268   7.426   1.126   5.646  0.2682 -0.4510 -0.5973
  912MOL0     N20269   7.329   1.135   5.537  0.3296 -0.0750 -0.1238
  912MOL0     C20270   7.276   1.023   5.478  0.2356  0.9206  0.4383
  912MOL0     C20271   7.171   1.081   5.411  0.1998 -0.1266 -0.7032
  912MOL0     C20272   7.044   1.015   5.356 -0.4572 -0.0840  0.0899
  912MOL0     C20273   6.932   0.995   5.459  0.3431 -0.4384 -0.2411
  912MOL0     C20274   6.819   0.929   5.388 -0.1443  0.3219  0.5415
  912MOL0     C20275   6.693   0.922   5.474 -0.0531 -0.0139  0.1236
  912MOL0     O20276   6.581   0.873   5.397  0.1654 -0.1448 -0.2016
  912MOL0     C20277   6.458   0.860   5.471  0.6105 -0.4674 -0.4179
  912MOL0     C20278   6.355   0.791   5.406  0.0384 -0.9378  0.0100
  912MOL0     C20279   6.228   0.783   5.456 -0.4469 -0.3288  0.2442
  912MOL0     C20280   6.208   0.834   5.588 -0.4945 -0.3474  0.6312
  912MOL0     C20281   6.080   0.818   5.650 -0.3166  0.4408 -0.2310
  912MOL0     O20282   6.070   0.845   5.787  0.0820 -0.8098 -0.2324
  912MOL0     C20283   5.946   0.862   5.845 -0.1612  0.3886 -0.4219
  912MOL0     C20284   5.933   0.854   5.984  0.2598  0.7024 -0.6470
  912MOL0     C20285   5.809   0.856   6.054 -0.8894 -0.2766  0.2444
  912MOL0     C20286   5.701   0.881   5.978 -0.4322 -0.3787  0.3284
  912MOL0     O20287   5.578   0.880   6.034  0.1546  1.0099  0.0780
  912MOL0     C20288   5.525   1.007   6.089  0.1197 -0.0133 -0.5941
  912MOL0     C20289   5.378   1.003   6.136  0.1254 -0.2741  0.3270
  912MOL0     C20290   5.362   0.977   6.287  0.0462 -0.2750 -0.4101
  912MOL0     C20291   5.215   0.973   6.335 -0.2006  0.2223  1.1376
  912MOL0     C20292   5.157   1.116   6.342  0.1937 -0.8364  0.6851
  912MOL0     C20293   5.015   1.109   6.385 -0.2666 -0.1514 -1.0204
  912MOL0     C20294   4.913   1.081   6.275 -0.1669  0.4599  0.2041
  912MOL0     C20295   4.770   1.095   6.327 -0.2684  0.2323  0.4070
  912MOL0    Cl20296   4.739   1.260   6.373 -0.2525 -0.2172  0.2693
  912MOL0     C20297   5.709   0.898   5.837  0.0851  0.2556  0.4587
  912MOL0     C20298   5.831   0.889   5.774  0.3916 -0.1405  0.0451
  912MOL0     O20299   5.991   0.770   5.581  0.5510  0.1684  0.3457
  912MOL0     C20300   6.312   0.895   5.658 -0.1736  0.2656  0.2288
  912MOL0     C20301   6.439   0.908   5.602  0.5272 -0.0974  0.2023
  912MOL0     N20302   7.177   1.215   5.402 -0.4180 -0.0034  0.0570
  912MOL0     N20303   7.273   1.248   5.484 -0.5643  0.4480  0.2932
  912MOL0     C20304   8.468   1.229   5.290  0.0251  1.2421  0.1613
  912MOL0     C20305   8.609   1.241   5.282 -0.7087  0.2122 -0.0869
  912MOL0     C20306   9.043   1.280   5.385 -0.1569 -0.2437  0.9324
  912MOL0     C20307   9.039   1.324   5.521  0.2069  0.5812 -0.4631
  912MOL0     C20308   9.162   1.326   5.593 -0.6415  0.0706  0.3297
  912MOL0     C20309   9.286   1.310   5.532  0.3349  0.4141 -0.5021
  912MOL0     O20310   9.401   1.300   5.612  0.3226  0.1390  0.2372
  912MOL0     C20311   9.469   1.421   5.594 -0.7127 -0.2975 -0.9083
  912MOL0     C20312   9.425   1.520   5.708 -0.3105  0.9809 -0.8892
  912MOL0     C20313   9.483   1.668   5.717  0.6322  1.1342 -0.1353
  912MOL0     C20314   9.450   1.755   5.594 -0.1841  0.1015  0.1162
  912MOL0     C20315   9.304   1.769   5.568 -0.2482  0.5878 -0.3467
  912MOL0     C20316   9.185   1.784   5.536  0.0476 -0.4395  0.4533
  912MOL0     C20317   9.290   1.258   5.398  0.0460 -0.9129  0.1069
  912MOL0     C20318   9.166   1.241   5.328  0.0730 -0.0786 -0.0769
  912MOL0     H20319   8.659   1.483   5.498  1.9611  1.7116 -2.0371
  912MOL0     H20320   8.425   1.476   5.519 -1.4272 -1.7385  0.9704
  912MOL0     H20321   8.195   1.169   5.224  0.0973 -0.8931  1.5132
  912MOL0     H20322   8.224   1.335   5.169 -2.2286  2.9904  1.0935
  912MOL0     H20323   7.986   1.290   5.160 -1.7383  1.0738  0.5616
  912MOL0     H20324   8.024   1.407   5.291 -1.8227 -1.0369 -0.1981
  912MOL0     H20325   7.986   1.242   5.458 -2.5282  2.2628 -0.8790
  912MOL0     H20326   8.002   1.110   5.339 -0.1732 -0.2550 -1.3169
  912MOL0     H20327   7.781   1.327   5.356 -1.7101 -0.0230 -2.0013
  912MOL0     H20328   7.786   1.202   5.231 -0.0948 -3.1697 -0.0562
  912MOL0     H20329   7.803   1.129   5.530 -1.4519 -0.4752  1.0278
  912MOL0     H20330   7.754   1.020   5.401  1.8623  0.5542 -0.5203
  912MOL0     H20331   7.547   1.152   5.386 -0.0660  0.2916 -0.3651
  912MOL0     H20332   7.613   1.269   5.491 -0.3860 -0.1205  1.5574
  912MOL0     H20333   7.570   0.983   5.570 -1.4375 -0.3001  0.4269
  912MOL0     H20334   7.646   1.098   5.674 -1.4151  0.9213  1.6768
  912MOL0     H20335   7.433   1.219   5.704 -2.6905  0.0160 -0.7937
  912MOL0     H20336   7.388   1.051   5.716  0.4179  0.7126  0.7871
  912MOL0     H20337   7.299   0.919   5.501 -2.6340  0.3452  1.0273
  912MOL0     H20338   7.078   0.916   5.322 -0.0840  0.4682 -1.2215
  912MOL0     H20339   7.010   1.067   5.266 -0.2010 -1.5155 -0.8795
  912MOL0     H20340   6.892   1.088   5.500 -2.1549 -1.1759 -0.8616
  912MOL0     H20341   6.960   0.931   5.543 -0.5328 -0.3745  0.1074
  912MOL0     H20342   6.792   0.993   5.304 -0.3351  1.9897  1.8311
  912MOL0     H20343   6.837   0.829   5.347 -1.7137  1.0883 -2.2945
  912MOL0     H20344   6.668   1.024   5.505 -4.2336 -1.3261  1.8419
  912MOL0     H20345   6.716   0.858   5.560  1.7926  0.1153 -0.2402
  912MOL0     H20346   6.374   0.750   5.307  1.4053 -1.7018  0.5555
  912MOL0     H20347   6.152   0.734   5.395  0.4374 -1.0011 -0.3362
  912MOL0     H20348   6.020   0.827   6.042  0.0621  0.7851 -0.3129
  912MOL0     H20349   5.795   0.838   6.160 -2.0817 -0.4223  0.0695
  912MOL0     H20350   5.536   1.082   6.010  2.1216 -1.2721 -1.5847
  912MOL0     H20351   5.591   1.036   6.171 -0.9617  2.7377 -0.5646
  912MOL0     H20352   5.336   0.918   6.080 -2.9968  1.9809 -1.0471
  912MOL0     H20353   5.325   1.097   6.121  1.4990  0.8898  2.2886
  912MOL0     H20354   5.412   1.061   6.335  0.1402 -0.5993  0.0597
  912MOL0     H20355   5.414   0.886   6.318  2.1165  1.3419  1.1134
  912MOL0     H20356   5.154   0.911   6.268 -0.0966  0.3079  0.9639
  912MOL0     H20357   5.215   0.933   6.437  0.8225 -0.6150  0.8228
  912MOL0     H20358   5.166   1.168   6.246  1.2647 -0.4255  0.9939
  912MOL0     H20359   5.212   1.177   6.414  0.5650 -0.6056  0.2130
  912MOL0     H20360   4.991   1.208   6.423 -0.7861 -1.0130  1.0134
  912MOL0     H20361   5.008   1.040   6.470 -2.4650  0.3262 -0.7574
  912MOL0     H20362   4.917   1.151   6.191  1.1262 -0.9927 -1.0157
  912MOL0     H20363   4.926   0.980   6.234  1.5405  0.7528 -0.0440
  912MOL0     H20364   4.745   1.043   6.421  0.7580 -0.4917  0.2888
  912MOL0     H20365   4.692   1.056   6.261 -0.1225  0.6648 -0.0219
  912MOL0     H20366   5.617   0.927   5.788  0.9704  1.0894 -0.7835
  912MOL0     H20367   5.826   0.906   5.667 -3.4768 -0.4088  0.0704
  912MOL0     H20368   6.289   0.923   5.761  0.8595 -1.7854  1.0741
  912MOL0     H20369   6.515   0.955   5.663 -0.3987 -0.0599  1.3733
  912MOL0     H20370   8.420   1.156   5.226 -1.2923 -0.4551  2.9179
  912MOL0     H20371   8.667   1.179   5.214  0.5288  0.1153  1.0120
  912MOL0     H20372   8.946   1.360   5.563 -1.0624  2.6320 -4.4834
  912MOL0     H20373   9.162   1.358   5.697 -3.2304 -2.5749  1.2623
  912MOL0     H20374   9.457   1.460   5.492  0.2359  1.7046 -0.3181
  912MOL0     H20375   9.573   1.393   5.613 -1.2418 -1.7254  0.0722
  912MOL0     H20376   9.316   1.523   5.715 -0.1837  3.6235  1.5991
  912MOL0     H20377   9.469   1.475   5.797  1.2174 -0.2245 -2.1662
  912MOL0     H20378   9.590   1.665   5.739  0.7928  1.5098 -0.8242
  912MOL0     H20379   9.426   1.718   5.796 -1.5220  0.2095 -1.0026
  912MOL0     H20380   9.502   1.850   5.607  0.2388 -0.0251 -0.5786
  912MOL0     H20381   9.490   1.707   5.504 -0.5133  1.8097 -0.9707
  912MOL0     H20382   9.084   1.798   5.504 -0.4896  1.2353  2.6646
  912MOL0     H20383   9.384   1.236   5.350  0.2799 -1.3961  0.7736
  912MOL0     H20384   9.165   1.219   5.222 -1.1865 -0.7947  0.0579
  913MOL0     O20385   7.235   8.617   4.284 -0.1671 -0.2216  0.0220
  913MOL0     C20386   7.234   8.730   4.338 -1.1931  0.3773 -0.7190
  913MOL0     O20387   7.128   8.797   4.385 -0.1066  0.3278  0.0600
  913MOL0     C20388   7.010   8.726   4.391 -0.7333  0.2445 -0.1476
  913MOL0     C20389   6.894   8.764   4.324 -0.1391 -0.0832  0.6567
  913MOL0     C20390   6.770   8.697   4.336  0.4571  1.0529 -0.9300
  913MOL0     C20391   6.769   8.573   4.408  0.4854 -0.1911 -0.1070
  913MOL0     O20392   6.658   8.501   4.421  0.3984  0.1549  0.0453
  913MOL0     C20393   6.528   8.541   4.372  0.1806 -0.6177 -0.6470
  913MOL0     C20394   6.430   8.444   4.435 -0.0197 -0.2138  0.3742
  913MOL0     C20395   6.289   8.503   4.439 -0.4328  0.7023 -0.2819
  913MOL0     C20396   6.189   8.402   4.482  0.3837  0.2575  0.7306
  913MOL0     C20397   6.103   8.350   4.365 -0.1175  0.3268 -0.0021
  913MOL0     C20398   6.008   8.241   4.422  0.4566  0.0866 -0.1345
  913MOL0     C20399   5.930   8.174   4.310  0.0880 -0.1678  0.1044
  913MOL0     C20400   5.821   8.079   4.359  0.0590  0.1869  0.1007
  913MOL0     N20401   5.696   8.151   4.384  0.2513  0.0936  1.2778
  913MOL0     C20402   5.610   8.195   4.285  0.1138  0.3482 -0.6804
  913MOL0     C20403   5.524   8.282   4.346 -0.5692  0.2508 -0.7247
  913MOL0     C20404   5.418   8.373   4.281  0.0925  0.4299 -0.4151
  913MOL0     C20405   5.286   8.290   4.296 -0.1533 -0.3190  0.3222
  913MOL0     C20406   5.169   8.372   4.275  0.5644  0.0262  0.1561
  913MOL0     C20407   5.150   8.426   4.129 -0.0863 -0.3923 -0.6997
  913MOL0     O20408   5.042   8.527   4.117 -0.3363  0.4223 -0.6147
  913MOL0     C20409   4.913   8.491   4.124  0.0057 -0.2901 -0.5117
  913MOL0     C20410   4.858   8.361   4.116 -0.1673 -0.3387 -0.5310
  913MOL0     C20411   4.719   8.340   4.118 -0.5090  0.1990  0.6511
  913MOL0     C20412   4.626   8.448   4.124  0.5161  0.3157  0.4308
  913MOL0     C20413   4.480   8.436   4.112 -0.1280  0.3488 -0.1262
  913MOL0     O20414   4.409   8.536   4.169 -0.0316  0.3754 -0.0328
  913MOL0     C20415   4.278   8.533   4.204  0.0483 -0.3262  0.4366
  913MOL0     C20416   4.189   8.423   4.181  0.5967  0.5512 -0.3042
  913MOL0     C20417   4.052   8.450   4.196  0.0868 -0.7743 -0.5877
  913MOL0     C20418   4.005   8.576   4.239 -0.2628 -0.1222  0.1005
  913MOL0     O20419   3.875   8.607   4.250  0.2449  0.5653 -0.1643
  913MOL0     C20420   3.775   8.518   4.192 -0.1324 -0.1572 -0.0889
  913MOL0     C20421   3.639   8.589   4.204 -0.6219  0.7262  0.0060
  913MOL0     C20422   3.527   8.488   4.183  0.1601  0.1159  0.5097
  913MOL0     C20423   3.388   8.561   4.211 -0.0112 -0.3133  0.8485
  913MOL0     C20424   3.278   8.452   4.197 -0.5613  0.2232 -0.9650
  913MOL0     C20425   3.142   8.504   4.209  0.3112 -0.2178  0.1030
  913MOL0     C20426   3.105   8.546   4.353  0.8927  1.2851 -0.2580
  913MOL0     C20427   2.955   8.575   4.361 -0.3428  0.4304  0.3922
  913MOL0    Cl20428   2.911   8.713   4.270  0.0680 -0.2608  0.4889
  913MOL0     C20429   4.092   8.676   4.264  0.5198 -0.0353  0.3619
  913MOL0     C20430   4.226   8.655   4.246 -0.9785 -0.3851 -0.3775
  913MOL0     O20431   4.431   8.331   4.062 -0.2486  0.1528 -0.2547
  913MOL0     C20432   4.679   8.575   4.125 -1.1758 -0.4872  0.0987
  913MOL0     C20433   4.816   8.592   4.125  0.2815 -0.9801 -0.5359
  913MOL0     N20434   5.566   8.295   4.477  0.1617  0.6473  0.0149
  913MOL0     N20435   5.670   8.219   4.493  0.5175 -0.4853 -0.0846
  913MOL0     C20436   6.890   8.538   4.470 -0.5944  0.8042  0.7012
  913MOL0     C20437   6.998   8.620   4.473 -0.1293 -0.0811  0.1696
  913MOL0     C20438   7.365   8.808   4.356 -0.4437  0.2163 -0.6402
  913MOL0     C20439   7.472   8.780   4.263  0.0004 -0.1680 -0.3375
  913MOL0     C20440   7.593   8.856   4.269  0.7954  0.1320  0.8465
  913MOL0     C20441   7.607   8.962   4.358 -0.2520 -1.8164  0.4266
  913MOL0     O20442   7.711   9.050   4.371  0.1473 -0.7393 -0.3088
  913MOL0     C20443   7.832   9.040   4.287  0.2198 -0.2628  0.0075
  913MOL0     C20444   7.948   9.139   4.330  1.0461  0.5046 -0.2847
  913MOL0     C20445   8.078   9.094   4.262  0.5005  0.1605  0.2317
  913MOL0     C20446   8.075   9.114   4.106  0.4200  0.2152 -0.8954
  913MOL0     C20447   8.206   9.098   4.041 -0.9763  0.8434  0.4398
  913MOL0     C20448   8.319   9.079   3.995  0.2212 -0.6064 -0.3595
  913MOL0     C20449   7.496   8.988   4.448 -0.3689  0.0548  0.7113
  913MOL0     C20450   7.376   8.918   4.441  0.2043 -0.3025  0.0368
  913MOL0     H20451   6.895   8.857   4.269  0.2285 -0.5870 -0.2164
  913MOL0     H20452   6.683   8.732   4.281 -3.0558 -1.3959  2.5362
  913MOL0     H20453   6.532   8.537   4.263 -0.4581  1.3096 -0.7835
  913MOL0     H20454   6.504   8.644   4.402 -1.4955 -0.5021 -2.1540
  913MOL0     H20455   6.459   8.423   4.539  0.5437  0.3981  0.3463
  913MOL0     H20456   6.426   8.346   4.386 -0.1698  0.0014 -0.0439
  913MOL0     H20457   6.254   8.541   4.343  3.8419  0.1397 -2.3080
  913MOL0     H20458   6.291   8.588   4.508 -2.5341  1.0293 -0.5433
  913MOL0     H20459   6.250   8.322   4.526  0.6708 -0.7716 -1.4133
  913MOL0     H20460   6.115   8.438   4.554 -0.4070 -0.6771  0.4100
  913MOL0     H20461   6.167   8.309   4.287  2.3654  0.8219  1.6552
  913MOL0     H20462   6.047   8.432   4.320  3.0234  1.7428 -1.6112
  913MOL0     H20463   5.939   8.301   4.483 -0.3489 -0.1494 -0.7893
  913MOL0     H20464   6.064   8.160   4.468 -0.3628 -2.6010 -3.4837
  913MOL0     H20465   5.896   8.248   4.237  2.8315  1.2152  0.0960
  913MOL0     H20466   6.002   8.108   4.261 -0.0286 -2.0953  2.3129
  913MOL0     H20467   5.850   8.023   4.449 -3.0289 -1.6734  0.0891
  913MOL0     H20468   5.816   8.001   4.283  3.5999  0.9348 -1.0457
  913MOL0     H20469   5.601   8.177   4.178 -2.2563 -0.2389 -0.4341
  913MOL0     H20470   5.447   8.397   4.179  0.4582 -0.0273 -0.4235
  913MOL0     H20471   5.411   8.463   4.343  1.7488 -0.3259  0.9362
  913MOL0     H20472   5.286   8.244   4.395 -2.8057 -1.6356 -0.1919
  913MOL0     H20473   5.295   8.211   4.221  1.8202  0.5681 -0.4505
  913MOL0     H20474   5.092   8.300   4.303 -0.3184  0.7298 -0.4264
  913MOL0     H20475   5.166   8.455   4.346  3.2266  0.6281 -0.3051
  913MOL0     H20476   5.143   8.341   4.060  2.5282 -1.1350 -0.1867
  913MOL0     H20477   5.242   8.476   4.099  0.2507 -1.7472 -2.0554
  913MOL0     H20478   4.928   8.278   4.119  3.3095  2.3435 -0.0072
  913MOL0     H20479   4.685   8.237   4.110 -0.7507  0.3423 -0.2697
  913MOL0     H20480   4.222   8.323   4.154 -0.1140  0.3042 -0.2760
  913MOL0     H20481   3.980   8.374   4.166  2.9153 -3.0547 -2.0831
  913MOL0     H20482   3.776   8.417   4.233  0.9024 -0.3208 -0.4635
  913MOL0     H20483   3.790   8.507   4.084  0.9495 -0.7539  0.1040
  913MOL0     H20484   3.638   8.667   4.128  1.2384 -1.0038 -1.9510
  913MOL0     H20485   3.626   8.636   4.302  2.1055  1.6064  0.0500
  913MOL0     H20486   3.540   8.407   4.255 -0.4025  0.3938  0.9381
  913MOL0     H20487   3.538   8.465   4.077  1.3114  1.7779  0.2279
  913MOL0     H20488   3.386   8.600   4.313  2.4133  1.3492  0.3682
  913MOL0     H20489   3.360   8.644   4.145 -1.1749 -0.1078  1.5683
  913MOL0     H20490   3.299   8.372   4.269  1.8998  1.3116 -0.3744
  913MOL0     H20491   3.288   8.401   4.100  1.6544  2.1620 -1.8551
  913MOL0     H20492   3.072   8.427   4.176 -0.6933 -0.1303  1.9029
  913MOL0     H20493   3.127   8.592   4.145 -0.2728  0.2009  0.8057
  913MOL0     H20494   3.131   8.461   4.417 -0.6844 -0.4103 -1.7339
  913MOL0     H20495   3.157   8.632   4.396  1.5319 -1.1760  4.6789
  913MOL0     H20496   2.915   8.586   4.462 -0.7138 -1.6317  0.5151
  913MOL0     H20497   2.906   8.486   4.322 -1.6792  1.0846  0.5438
  913MOL0     H20498   4.053   8.775   4.285 -1.0395 -0.9389  1.9769
  913MOL0     H20499   4.304   8.730   4.256  2.9258 -4.1995  1.8504
  913MOL0     H20500   4.611   8.659   4.124 -0.7791 -0.1373  1.2260
  913MOL0     H20501   4.856   8.693   4.128  1.2843 -1.3923  1.4615
  913MOL0     H20502   6.896   8.441   4.517 -0.5595  0.7238  0.5300
  913MOL0     H20503   7.091   8.586   4.517 -0.7002 -1.1934  0.5548
  913MOL0     H20504   7.463   8.703   4.188 -0.0503 -1.2381  0.7385
  913MOL0     H20505   7.667   8.816   4.201 -0.2857 -1.4317  0.5189
  913MOL0     H20506   7.804   9.052   4.182 -0.8105  0.5415  0.3548
  913MOL0     H20507   7.883   8.944   4.299  3.6402  1.4098 -0.1062
  913MOL0     H20508   7.923   9.244   4.314 -0.1850  0.1670 -0.6462
  913MOL0     H20509   7.974   9.120   4.434  3.3217 -1.8300 -1.1682
  913MOL0     H20510   8.100   8.990   4.288  0.2247  0.0189 -0.0878
  913MOL0     H20511   8.155   9.157   4.307 -1.3345  2.0933  0.7666
  913MOL0     H20512   7.999   9.052   4.057  1.7045 -0.9822 -1.4568
  913MOL0     H20513   8.048   9.216   4.078  1.2646  0.6649 -0.1278
  913MOL0     H20514   8.409   9.079   3.937  0.5547  0.8543  0.1008
  913MOL0     H20515   7.502   9.073   4.516 -0.8477  0.0562  0.7580
  913MOL0     H20516   7.292   8.943   4.506 -0.6538 -0.0150 -1.1371
  914MOL0     O20517   0.163   6.929   9.049 -0.4393  0.2873 -0.6381
  914MOL0     C20518   0.140   6.853   8.955 -0.3645 -0.1848  0.6054
  914MOL0     O20519   0.012   6.820   8.909  0.3492 -0.4710 -1.0040
  914MOL0     C20520  -0.098   6.895   8.950 -0.5441 -0.4029 -0.6226
  914MOL0     C20521  -0.174   6.943   8.851 -0.6018  0.2534 -0.3828
  914MOL0     C20522  -0.294   7.010   8.878 -0.2682  0.0728 -0.8522
  914MOL0     C20523  -0.336   7.032   9.008  0.1446 -0.1495 -0.1034
  914MOL0     O20524  -0.445   7.106   9.040 -0.0294 -0.0528 -0.0735
  914MOL0     C20525  -0.491   7.125   9.181 -0.2850  1.2964  0.1408
  914MOL0     C20526  -0.613   7.212   9.161  0.4972 -0.2879 -0.8928
  914MOL0     C20527  -0.740   7.125   9.146 -0.2396 -0.2880 -0.2730
  914MOL0     C20528  -0.866   7.216   9.147 -0.4496  0.4813 -0.5757
  914MOL0     C20529  -0.997   7.152   9.111  0.3650 -0.9906 -0.1623
  914MOL0     C20530  -1.114   7.253   9.099  1.0435  0.2840  0.4028
  914MOL0     C20531  -1.238   7.173   9.063 -0.3422  0.4537  0.1453
  914MOL0     C20532  -1.365   7.259   9.036  1.0295  0.2861 -0.5820
  914MOL0     N20533  -1.480   7.169   9.003  0.3884 -0.4216 -0.0227
  914MOL0     C20534  -1.516   7.047   9.049 -0.3499  0.2941  0.5799
  914MOL0     C20535  -1.626   7.004   8.967 -0.9695 -0.1498 -0.1802
  914MOL0     C20536  -1.688   6.869   8.994  0.6087 -0.1997  0.2603
  914MOL0     C20537  -1.847   6.881   9.002 -0.2853 -0.0677 -0.2154
  914MOL0     C20538  -1.911   6.744   9.038 -0.4281 -0.0164  0.5536
  914MOL0     C20539  -2.060   6.758   9.036  0.6309  0.3361 -0.0495
  914MOL0     O20540  -2.110   6.823   9.157  0.0324  0.3871  0.3099
  914MOL0     C20541  -2.247   6.827   9.185 -0.2147  0.3535  0.9093
  914MOL0     C20542  -2.340   6.759   9.101 -0.3408  0.1533 -0.3847
  914MOL0     C20543  -2.476   6.740   9.128 -0.6651  0.1119 -0.7237
  914MOL0     C20544  -2.520   6.807   9.244 -0.2593  0.0300  0.5493
  914MOL0     C20545  -2.661   6.801   9.280  0.0708 -0.1046 -0.1741
  914MOL0     O20546  -2.710   6.905   9.362  0.0696 -0.3294 -0.4229
  914MOL0     C20547  -2.847   6.919   9.389 -1.0448 -0.7209  0.1051
  914MOL0     C20548  -2.900   7.047   9.384 -0.4922 -0.3034  0.0891
  914MOL0     C20549  -3.029   7.076   9.405  0.0491  0.3259 -0.5287
  914MOL0     C20550  -3.124   6.972   9.425 -0.6858 -0.5856  0.2373
  914MOL0     O20551  -3.255   7.001   9.455 -0.3728  0.1268 -0.1403
  914MOL0     C20552  -3.303   7.135   9.450 -0.2558 -0.5153  0.8720
  914MOL0     C20553  -3.451   7.127   9.497  0.2842  0.1851 -0.3559
  914MOL0     C20554  -3.554   7.092   9.385  0.3012 -0.6125  0.2701
  914MOL0     C20555  -3.534   6.957   9.327  0.1818 -0.1279 -0.3657
  914MOL0     C20556  -3.648   6.872   9.285  0.6554 -0.0350  0.1354
  914MOL0     C20557  -3.746   6.939   9.180 -0.3137 -0.2764  0.5521
  914MOL0     C20558  -3.860   6.842   9.148 -0.1607 -0.1935 -0.2460
  914MOL0     C20559  -3.940   6.882   9.024 -0.1183 -0.3618 -0.0894
  914MOL0    Cl20560  -4.061   6.752   9.001 -0.1888 -0.1630  0.3170
  914MOL0     C20561  -3.076   6.842   9.425 -0.1940 -0.1000 -0.2677
  914MOL0     C20562  -2.945   6.818   9.403 -0.4466  0.5103  0.0551
  914MOL0     O20563  -2.731   6.722   9.221  0.5138  0.3316  0.1457
  914MOL0     C20564  -2.440   6.896   9.321 -0.1930 -0.7403  0.1474
  914MOL0     C20565  -2.300   6.898   9.290 -0.5442  0.3206 -0.8607
  914MOL0     N20566  -1.667   7.118   8.890 -0.5577  0.2203  0.1967
  914MOL0     N20567  -1.573   7.208   8.903 -0.4104  0.7067  0.4864
  914MOL0     C20568  -0.256   6.976   9.111 -0.7485  0.2390  0.1226
  914MOL0     C20569  -0.139   6.904   9.084 -0.2721  0.8245  0.6368
  914MOL0     C20570   0.242   6.803   8.870  0.4358  0.2983  0.3613
  914MOL0     C20571   0.215   6.706   8.774 -0.6100 -0.2520  0.2960
  914MOL0     C20572   0.317   6.647   8.694 -0.2147 -0.1126 -0.4809
  914MOL0     C20573   0.453   6.677   8.709  0.4457 -0.2721  0.1640
  914MOL0     O20574   0.545   6.612   8.634 -0.9586  0.3702  0.1176
  914MOL0     C20575   0.683   6.651   8.655 -0.0173 -0.3478 -0.3782
  914MOL0     C20576   0.785   6.569   8.575 -0.3103  0.5568  0.1993
  914MOL0     C20577   0.769   6.419   8.610 -0.9359  0.5987 -0.3402
  914MOL0     C20578   0.871   6.342   8.530 -0.6133  0.5261  0.5043
  914MOL0     C20579   0.857   6.204   8.577  0.4586  0.2566  0.3588
  914MOL0     C20580   0.832   6.089   8.614  0.8010  0.3154  0.1333
  914MOL0     C20581   0.481   6.775   8.807  0.8548 -0.6746 -0.0987
  914MOL0     C20582   0.376   6.835   8.888 -0.0472  0.4452 -0.0392
  914MOL0     H20583  -0.139   6.920   8.750  2.7908 -0.3809  0.8063
  914MOL0     H20584  -0.348   7.054   8.795 -0.4579 -2.5462 -2.2440
  914MOL0     H20585  -0.418   7.169   9.249 -2.2467  0.2904  3.0879
  914MOL0     H20586  -0.505   7.024   9.220  3.0893 -0.3799 -2.3748
  914MOL0     H20587  -0.603   7.275   9.071  0.2305 -0.8366 -1.3131
  914MOL0     H20588  -0.618   7.283   9.244  0.7935  0.6280 -1.6247
  914MOL0     H20589  -0.753   7.053   9.227 -3.5272  1.4201  0.9066
  914MOL0     H20590  -0.731   7.066   9.054  2.9602 -2.5243  1.3164
  914MOL0     H20591  -0.872   7.260   9.247 -0.8167 -1.4652  0.3043
  914MOL0     H20592  -0.841   7.292   9.073  1.8358  2.4565  2.0303
  914MOL0     H20593  -1.017   7.068   9.179  0.0210  0.2804  1.3595
  914MOL0     H20594  -0.971   7.100   9.018 -1.0396 -1.3515 -0.3702
  914MOL0     H20595  -1.098   7.336   9.028  0.1045  1.7705  1.8514
  914MOL0     H20596  -1.132   7.313   9.189 -2.4693  1.5049 -0.9363
  914MOL0     H20597  -1.210   7.120   8.972  0.2600 -0.0479  0.6153
  914MOL0     H20598  -1.248   7.098   9.143  0.5964  0.8956  0.6894
  914MOL0     H20599  -1.348   7.343   8.968  1.8676  1.5998  1.1686
  914MOL0     H20600  -1.381   7.301   9.136 -1.5071 -1.5399 -0.1414
  914MOL0     H20601  -1.463   6.991   9.124 -0.4425  0.8990  1.1057
  914MOL0     H20602  -1.644   6.837   9.089  1.0418 -0.5015 -0.0401
  914MOL0     H20603  -1.659   6.805   8.911 -0.9077 -0.9500  0.2742
  914MOL0     H20604  -1.874   6.898   8.898  1.9419 -4.0933 -1.6897
  914MOL0     H20605  -1.882   6.959   9.070  1.3180  0.9694 -0.5335
  914MOL0     H20606  -1.880   6.664   8.970 -5.4476 -1.5147 -0.4325
  914MOL0     H20607  -1.886   6.706   9.137 -3.1973  0.2120  1.4221
  914MOL0     H20608  -2.100   6.657   9.019 -2.6317  1.4856  0.1008
  914MOL0     H20609  -2.080   6.819   8.948  1.3600 -1.0620 -1.2274
  914MOL0     H20610  -2.296   6.728   9.007  3.1610  0.3017  1.0874
  914MOL0     H20611  -2.536   6.687   9.054 -1.4736  0.2266 -0.1582
  914MOL0     H20612  -2.823   7.119   9.357 -2.7335  1.2048 -2.9312
  914MOL0     H20613  -3.061   7.180   9.408 -2.7090 -0.3843 -2.0974
  914MOL0     H20614  -3.306   7.174   9.348 -1.9381  1.4034  1.5878
  914MOL0     H20615  -3.241   7.195   9.518  1.1554  0.6455 -1.3286
  914MOL0     H20616  -3.484   7.220   9.546  0.4733  0.0656 -0.0021
  914MOL0     H20617  -3.455   7.048   9.572 -0.7770 -1.0522 -1.6608
  914MOL0     H20618  -3.558   7.166   9.305  0.0876  0.9621  1.6796
  914MOL0     H20619  -3.654   7.093   9.430  1.1686  1.1273  2.3390
  914MOL0     H20620  -3.462   6.965   9.244  0.8146  1.2861  0.2925
  914MOL0     H20621  -3.501   6.908   9.418 -2.1627 -0.6967  0.2411
  914MOL0     H20622  -3.701   6.835   9.373  2.2325 -0.9272  0.7542
  914MOL0     H20623  -3.606   6.782   9.240 -0.0467 -1.6083  2.4564
  914MOL0     H20624  -3.690   6.973   9.093 -1.0290  0.3555  0.3256
  914MOL0     H20625  -3.786   7.027   9.232 -2.5975 -2.1997  2.3348
  914MOL0     H20626  -3.817   6.744   9.130 -1.9975 -1.0431 -0.2932
  914MOL0     H20627  -3.929   6.838   9.233 -2.5348 -1.6835 -2.1068
  914MOL0     H20628  -3.875   6.906   8.940  0.2271  0.4480  0.3901
  914MOL0     H20629  -3.991   6.975   9.054  0.6563  0.7628 -2.0882
  914MOL0     H20630  -3.138   6.754   9.416 -0.4103  0.2077 -2.3947
  914MOL0     H20631  -2.908   6.718   9.386  0.9636  0.6683  1.8369
  914MOL0     H20632  -2.461   6.962   9.405 -0.3911  3.3903 -2.8351
  914MOL0     H20633  -2.229   6.954   9.350 -1.5008 -0.1115  0.7508
  914MOL0     H20634  -0.268   6.970   9.219 -0.1224  0.7820  0.2270
  914MOL0     H20635  -0.069   6.878   9.162 -0.1394  1.2328  0.6546
  914MOL0     H20636   0.120   6.663   8.745  0.4009 -0.7840 -2.6020
  914MOL0     H20637   0.281   6.579   8.617 -0.9239  1.5374 -1.6533
  914MOL0     H20638   0.698   6.645   8.764 -0.6011 -2.2100 -0.3567
  914MOL0     H20639   0.695   6.755   8.626  0.6607 -0.3089  0.0002
  914MOL0     H20640   0.767   6.579   8.467 -3.5869 -0.1719  0.5548
  914MOL0     H20641   0.886   6.603   8.597 -0.4723  1.8188 -0.8814
  914MOL0     H20642   0.668   6.387   8.583 -1.2300 -0.5422  1.9082
  914MOL0     H20643   0.780   6.396   8.716 -2.2380  1.4942  0.0231
  914MOL0     H20644   0.839   6.345   8.425 -1.2433  0.4919  0.6932
  914MOL0     H20645   0.973   6.382   8.528 -0.5240  0.3454  1.1720
  914MOL0     H20646   0.807   5.992   8.652 -1.0755  0.4103 -0.7546
  914MOL0     H20647   0.583   6.804   8.831  0.2793 -0.7043  2.7982
  914MOL0     H20648   0.408   6.901   8.968 -1.2514 -0.3750  1.1700
  915MOL0     O20649   4.263   7.491   6.731 -0.0588  0.6993  0.4258
  915MOL0     C20650   4.284   7.560   6.635  0.5290  0.2174 -0.2309
  915MOL0     O20651   4.200   7.652   6.583 -0.3049  0.2066 -0.1101
  915MOL0     C20652   4.066   7.635   6.592 -0.1673 -0.1870  0.1611
  915MOL0     C20653   3.994   7.519   6.620 -0.5056 -0.4446 -0.3669
  915MOL0     C20654   3.854   7.517   6.609 -0.9836 -0.0708 -0.3445
  915MOL0     C20655   3.779   7.634   6.586 -0.3557  0.4973 -0.3624
  915MOL0     O20656   3.645   7.623   6.591  0.1153  0.0118 -0.0160
  915MOL0     C20657   3.572   7.693   6.490 -0.3123  0.0398  0.6783
  915MOL0     C20658   3.441   7.619   6.475 -0.6787 -0.9555  0.0625
  915MOL0     C20659   3.332   7.666   6.376 -0.6120 -1.1433  0.8884
  915MOL0     C20660   3.310   7.814   6.372  0.5273 -1.1278  0.3086
  915MOL0     C20661   3.172   7.842   6.314  0.8034 -0.9025 -0.1701
  915MOL0     C20662   3.134   7.995   6.312  0.4214 -0.1500  0.3777
  915MOL0     C20663   3.003   8.019   6.229  0.0186  0.2316  0.0000
  915MOL0     C20664   2.882   7.926   6.278 -0.5413 -0.8357  0.0307
  915MOL0     N20665   2.745   7.960   6.243 -0.2901 -0.1750  0.2732
  915MOL0     C20666   2.711   7.989   6.110 -0.5541  0.2653 -0.2111
  915MOL0     C20667   2.592   8.049   6.120 -0.1892  0.0109 -0.1481
  915MOL0     C20668   2.511   8.099   5.993 -0.4795  0.1411  0.8829
  915MOL0     C20669   2.460   8.232   6.030  0.3646  0.0657  0.1674
  915MOL0     C20670   2.381   8.301   5.912 -0.1025 -0.2118  0.5414
  915MOL0     C20671   2.319   8.441   5.955 -0.0667  0.2154  0.8700
  915MOL0     O20672   2.213   8.482   5.869  0.1601 -0.3993  0.4542
  915MOL0     C20673   2.091   8.420   5.877  0.1939  0.2354  0.2447
  915MOL0     C20674   2.047   8.332   5.979  0.4450 -0.4671 -0.5305
  915MOL0     C20675   1.909   8.287   5.986  0.3764 -0.5841 -0.3949
  915MOL0     C20676   1.821   8.325   5.889 -0.6313 -0.1050  0.6475
  915MOL0     C20677   1.679   8.279   5.884  0.0592 -0.7107  0.1461
  915MOL0     O20678   1.590   8.362   5.817  0.4622  0.8446 -0.1472
  915MOL0     C20679   1.453   8.330   5.807 -0.0942  0.0386 -0.3867
  915MOL0     C20680   1.407   8.254   5.704 -0.4216  0.6163  0.4289
  915MOL0     C20681   1.271   8.216   5.695 -0.4097  0.3021 -0.0643
  915MOL0     C20682   1.184   8.258   5.799 -0.0992  0.3375  0.0554
  915MOL0     O20683   1.046   8.233   5.781 -0.4099 -0.1379 -0.2999
  915MOL0     C20684   0.954   8.305   5.867 -0.8047  0.2699 -0.5027
  915MOL0     C20685   0.814   8.317   5.802 -0.5172 -1.1039  0.9838
  915MOL0     C20686   0.723   8.386   5.907  0.0238 -0.8619  0.1135
  915MOL0     C20687   0.589   8.429   5.850  0.3829 -0.3277  0.3056
  915MOL0     C20688   0.505   8.516   5.949 -0.5900  0.1876 -0.2020
  915MOL0     C20689   0.372   8.554   5.896  0.5477 -0.5306  0.3332
  915MOL0     C20690   0.305   8.625   6.010  0.1197 -0.5173  0.2130
  915MOL0     C20691   0.160   8.608   6.009  0.2422  0.4457 -0.1876
  915MOL0    Cl20692   0.095   8.668   5.854  0.1918 -0.3294  0.1299
  915MOL0     C20693   1.238   8.334   5.908 -0.2097  0.0031 -1.1196
  915MOL0     C20694   1.369   8.378   5.906 -0.1795  1.0882  0.2488
  915MOL0     O20695   1.645   8.181   5.947 -0.0859  0.3661 -0.2646
  915MOL0     C20696   1.862   8.413   5.789  0.4952 -0.1276  0.0386
  915MOL0     C20697   2.000   8.460   5.785  0.3289 -0.7299  0.2629
  915MOL0     N20698   2.555   8.052   6.256  0.6560  0.1315 -0.0378
  915MOL0     N20699   2.651   7.992   6.324  0.2858 -0.4037  0.1365
  915MOL0     C20700   3.852   7.755   6.583  0.4871  0.7650  0.1028
  915MOL0     C20701   3.990   7.753   6.577  0.0639  0.1678  0.0604
  915MOL0     C20702   4.423   7.544   6.586 -0.0105 -0.4998 -0.1378
  915MOL0     C20703   4.497   7.423   6.592  0.8442  0.3271  0.4331
  915MOL0     C20704   4.630   7.421   6.543  1.3238  0.2662 -0.6033
  915MOL0     C20705   4.687   7.530   6.496 -0.7018 -0.0646  0.1528
  915MOL0     O20706   4.814   7.531   6.440  0.6034  0.6259 -0.2721
  915MOL0     C20707   4.896   7.416   6.437  0.1768 -0.3865 -0.4399
  915MOL0     C20708   4.973   7.406   6.582 -0.0770 -0.0723 -0.2707
  915MOL0     C20709   5.087   7.299   6.582  0.0927  1.0530  0.2138
  915MOL0     C20710   5.091   7.227   6.719  0.0372 -0.9548  0.1491
  915MOL0     C20711   5.204   7.130   6.718  0.1743 -0.8589 -0.2821
  915MOL0     C20712   5.289   7.048   6.698 -0.4230  0.0876  0.8852
  915MOL0     C20713   4.614   7.649   6.483 -0.6940 -0.8075  0.1806
  915MOL0     C20714   4.484   7.659   6.522  0.2185 -0.3060 -0.1159
  915MOL0     H20715   4.046   7.425   6.636 -1.9567 -1.4763 -1.4813
  915MOL0     H20716   3.807   7.422   6.632  0.6319 -0.4460  1.6405
  915MOL0     H20717   3.614   7.697   6.389  1.4214  2.2310  1.4030
  915MOL0     H20718   3.544   7.795   6.515  1.8888  0.5198  1.3428
  915MOL0     H20719   3.395   7.625   6.574 -1.9924  0.2655 -0.5763
  915MOL0     H20720   3.471   7.517   6.450 -0.3210 -1.2032  1.4122
  915MOL0     H20721   3.251   7.593   6.385 -1.7344 -0.1703 -0.8331
  915MOL0     H20722   3.364   7.649   6.272 -0.9987  0.6911  0.4329
  915MOL0     H20723   3.292   7.865   6.467 -2.3674  0.3802 -0.9181
  915MOL0     H20724   3.381   7.860   6.303  0.1472 -1.9474 -0.6396
  915MOL0     H20725   3.093   7.788   6.367  0.3726 -0.7615 -0.6638
  915MOL0     H20726   3.174   7.800   6.213 -1.4432 -4.7960  1.1585
  915MOL0     H20727   3.215   8.061   6.280 -0.5710  0.4155 -1.0810
  915MOL0     H20728   3.111   8.028   6.414  2.7680  0.0134  0.9147
  915MOL0     H20729   2.976   8.125   6.236  1.5174  0.9009 -2.9633
  915MOL0     H20730   3.023   8.002   6.123 -0.7742  4.1740 -0.9483
  915MOL0     H20731   2.890   7.933   6.387 -0.3000  1.6793 -0.1019
  915MOL0     H20732   2.909   7.823   6.253 -3.0391 -1.9458  1.5392
  915MOL0     H20733   2.777   7.974   6.026  2.6809 -0.1500  2.2402
  915MOL0     H20734   2.431   8.028   5.971  1.1268 -1.5479  0.1687
  915MOL0     H20735   2.576   8.093   5.905 -0.2817 -2.7554  1.1277
  915MOL0     H20736   2.541   8.298   6.062  1.3235 -1.7888  1.7678
  915MOL0     H20737   2.399   8.218   6.119 -1.0167 -0.9200 -0.8823
  915MOL0     H20738   2.449   8.305   5.827 -1.1249 -0.1325 -0.2855
  915MOL0     H20739   2.303   8.235   5.873  1.3653 -1.9858  0.4259
  915MOL0     H20740   2.401   8.513   5.966  0.5266 -0.1140 -1.0722
  915MOL0     H20741   2.270   8.443   6.053 -1.8942  1.7246 -0.0272
  915MOL0     H20742   2.103   8.300   6.066 -0.4134  2.2495  1.1250
  915MOL0     H20743   1.875   8.230   6.071  1.7953 -0.2499  0.4339
  915MOL0     H20744   1.474   8.227   5.622 -2.6326  0.4947 -1.4396
  915MOL0     H20745   1.240   8.168   5.603  4.6562  0.7670 -2.4164
  915MOL0     H20746   0.987   8.407   5.891  1.7436 -0.1878 -1.7030
  915MOL0     H20747   0.952   8.258   5.965 -1.5873  1.1433 -0.0770
  915MOL0     H20748   0.775   8.221   5.767  0.6216 -0.7132 -1.5674
  915MOL0     H20749   0.829   8.383   5.716 -1.6190 -0.9921  0.8715
  915MOL0     H20750   0.770   8.471   5.956  3.4796 -2.8803  0.6524
  915MOL0     H20751   0.695   8.307   5.977 -1.5468  1.0143  1.6855
  915MOL0     H20752   0.611   8.481   5.756  0.8496 -2.0351 -0.5733
  915MOL0     H20753   0.518   8.348   5.832 -0.9938  1.2559 -1.9224
  915MOL0     H20754   0.566   8.601   5.978  0.4665 -1.3818  2.5290
  915MOL0     H20755   0.493   8.449   6.035  1.8753 -0.3314 -0.2035
  915MOL0     H20756   0.331   8.457   5.867  2.9931 -0.8497 -2.4777
  915MOL0     H20757   0.386   8.623   5.812 -1.0798  1.2946  1.4734
  915MOL0     H20758   0.340   8.584   6.105  1.8533  1.6158  0.5658
  915MOL0     H20759   0.333   8.730   5.999  0.2145 -0.7663 -2.5883
  915MOL0     H20760   0.114   8.666   6.090  0.9196 -0.0408  0.5560
  915MOL0     H20761   0.126   8.504   6.011 -2.5399  1.0601 -4.0804
  915MOL0     H20762   1.182   8.378   5.991 -0.7831  2.1590 -2.5599
  915MOL0     H20763   1.415   8.439   5.983  0.9476 -0.3710  0.7698
  915MOL0     H20764   1.791   8.438   5.712  2.3924 -0.3241 -1.8827
  915MOL0     H20765   2.034   8.525   5.705 -0.2863 -1.2720 -0.4549
  915MOL0     H20766   3.802   7.851   6.578  1.5916  1.2964 -1.6258
  915MOL0     H20767   4.032   7.846   6.540 -2.4287  0.9563 -0.9658
  915MOL0     H20768   4.464   7.331   6.640 -1.0945  1.2652  0.9921
  915MOL0     H20769   4.673   7.323   6.559 -1.0642 -0.4060  2.7102
  915MOL0     H20770   4.957   7.411   6.347 -0.9477 -2.7581 -1.1431
  915MOL0     H20771   4.833   7.331   6.411  1.4601 -0.6824 -2.8159
  915MOL0     H20772   5.014   7.502   6.613 -0.2798 -0.5359  1.5975
  915MOL0     H20773   4.904   7.370   6.659 -0.1463 -0.2507 -0.4147
  915MOL0     H20774   5.186   7.337   6.558  0.4103  0.3749  0.4152
  915MOL0     H20775   5.054   7.221   6.512 -0.8190  1.2598  0.3973
  915MOL0     H20776   5.107   7.308   6.790 -1.0732 -1.3348  0.8540
  915MOL0     H20777   4.991   7.188   6.737 -0.4694  0.8782  1.5150
  915MOL0     H20778   5.371   6.982   6.677  0.1412  0.7782  0.8699
  915MOL0     H20779   4.658   7.736   6.435  1.1671 -2.0656 -0.5443
  915MOL0     H20780   4.429   7.752   6.512 -1.7131 -1.4483 -0.5688
  916MOL0     O20781   2.029   7.444   3.711  0.4793  0.5314  0.0864
  916MOL0     C20782   2.113   7.355   3.677 -0.1646  0.1309  0.2457
  916MOL0     O20783   2.091   7.224   3.673 -0.1094 -0.1324  0.9516
  916MOL0     C20784   1.975   7.160   3.716  0.0096 -0.3806  0.1929
  916MOL0     C20785   1.936   7.037   3.664 -0.9133 -0.1879 -0.3870
  916MOL0     C20786   1.811   6.982   3.697 -0.4703 -0.3892  0.9493
  916MOL0     C20787   1.723   7.041   3.793 -0.1642  0.7104 -0.4351
  916MOL0     O20788   1.598   6.976   3.807 -0.8484 -0.2726 -0.4017
  916MOL0     C20789   1.492   7.037   3.881 -0.0919 -0.2867  0.1829
  916MOL0     C20790   1.364   6.955   3.880  0.0496 -0.2690  0.0908
  916MOL0     C20791   1.238   7.032   3.938 -0.6319 -0.4599  0.0079
  916MOL0     C20792   1.111   6.944   3.933  0.3034 -0.3594  0.0979
  916MOL0     C20793   0.992   7.021   3.996 -0.7893  0.0097 -0.0836
  916MOL0     C20794   0.862   6.947   3.962  0.3475 -0.8952 -0.2837
  916MOL0     C20795   0.868   6.802   4.009  0.4214 -0.9280 -0.6399
  916MOL0     C20796   0.730   6.744   4.012 -0.6559 -0.2075 -0.4239
  916MOL0     N20797   0.739   6.617   4.084 -0.2190  0.1130 -0.0441
  916MOL0     C20798   0.638   6.550   4.143 -0.1345 -0.2441  0.6568
  916MOL0     C20799   0.697   6.442   4.191 -0.1852  0.1998 -0.3202
  916MOL0     C20800   0.621   6.348   4.287 -0.5041  0.3878  0.8679
  916MOL0     C20801   0.627   6.203   4.243 -0.1096 -0.2052 -0.1147
  916MOL0     C20802   0.492   6.142   4.230 -0.2821  1.0145  0.3613
  916MOL0     C20803   0.411   6.137   4.358 -0.2102  0.1256  0.4052
  916MOL0     O20804   0.325   6.027   4.344 -0.2220 -0.8999 -0.2737
  916MOL0     C20805   0.209   6.014   4.421  0.4886  0.4404 -0.6436
  916MOL0     C20806   0.174   6.095   4.529  0.0509  0.1683 -0.2714
  916MOL0     C20807   0.060   6.048   4.598  0.7608 -1.1172 -0.6594
  916MOL0     C20808  -0.024   5.944   4.569  0.3755 -0.3560 -0.9808
  916MOL0     C20809  -0.150   5.919   4.645 -0.1901  0.2882 -0.4415
  916MOL0     O20810  -0.234   5.811   4.610  0.0903 -0.8173 -0.4300
  916MOL0     C20811  -0.351   5.803   4.676 -0.0871 -0.8304 -0.7091
  916MOL0     C20812  -0.364   5.694   4.769 -0.3309  0.5399  0.0093
  916MOL0     C20813  -0.481   5.676   4.842  0.4272  0.2180 -0.3089
  916MOL0     C20814  -0.586   5.763   4.819  0.1122  0.1901 -0.0985
  916MOL0     O20815  -0.691   5.752   4.900  0.0732  0.6082  0.0018
  916MOL0     C20816  -0.812   5.819   4.864 -0.6189 -0.4288 -0.1752
  916MOL0     C20817  -0.926   5.760   4.936  0.1693  0.1216 -0.2418
  916MOL0     C20818  -0.922   5.784   5.090  1.0462  0.6425  0.2104
  916MOL0     C20819  -1.072   5.766   5.148 -0.9834  0.2670 -0.6420
  916MOL0     C20820  -1.064   5.784   5.296 -0.9080 -0.8210  0.4623
  916MOL0     C20821  -1.197   5.774   5.360  0.8326  0.4257  0.7705
  916MOL0     C20822  -1.192   5.753   5.511 -0.4005  0.1238  0.2180
  916MOL0     C20823  -1.333   5.746   5.561  0.0028 -0.0370  0.4753
  916MOL0    Cl20824  -1.403   5.910   5.544  0.3960 -0.1061 -0.0604
  916MOL0     C20825  -0.569   5.875   4.735 -0.5722 -0.4544  0.2687
  916MOL0     C20826  -0.451   5.895   4.664  0.2231  0.3951  0.4715
  916MOL0     O20827  -0.159   5.975   4.756 -0.1322  0.0303 -0.1596
  916MOL0     C20828   0.018   5.860   4.468 -0.3128 -0.5131 -0.7261
  916MOL0     C20829   0.137   5.895   4.398 -0.1185  0.1516  0.0636
  916MOL0     N20830   0.833   6.437   4.164 -0.9756  0.0972  0.0845
  916MOL0     N20831   0.851   6.545   4.096 -0.1725  0.1040 -0.1175
  916MOL0     C20832   1.759   7.155   3.854 -0.8910  0.4417 -0.4536
  916MOL0     C20833   1.886   7.211   3.818  0.0688 -0.4103 -0.3941
  916MOL0     C20834   2.249   7.402   3.638 -0.7144 -0.0147  0.1181
  916MOL0     C20835   2.351   7.304   3.605  0.5261 -0.9004 -0.2507
  916MOL0     C20836   2.473   7.345   3.559  0.8310  0.0150 -0.5084
  916MOL0     C20837   2.516   7.478   3.560  0.4375  0.2452  0.7369
  916MOL0     O20838   2.652   7.505   3.535  0.4890  0.0038 -0.0253
  916MOL0     C20839   2.688   7.640   3.552  0.0106  0.6342  0.1599
  916MOL0     C20840   2.836   7.642   3.559 -0.4642  0.0189  0.5428
  916MOL0     C20841   2.913   7.559   3.664 -0.0525  0.2896  0.1095
  916MOL0     C20842   2.903   7.603   3.807 -0.6345 -0.1800 -0.2161
  916MOL0     C20843   2.954   7.744   3.821  0.8593 -0.2451  0.0287
  916MOL0     C20844   3.009   7.849   3.825 -0.1233 -0.5651 -0.1486
  916MOL0     C20845   2.423   7.577   3.608 -0.0162  0.2499 -0.1365
  916MOL0     C20846   2.290   7.538   3.642  0.4405 -0.1097  0.0108
  916MOL0     H20847   2.009   6.990   3.600  0.5108  0.9633  0.3483
  916MOL0     H20848   1.778   6.885   3.664  1.3649 -0.1762 -1.8360
  916MOL0     H20849   1.476   7.137   3.839 -3.1812 -1.1393 -1.0123
  916MOL0     H20850   1.523   7.053   3.984  0.5443  0.5290 -0.1203
  916MOL0     H20851   1.390   6.869   3.942 -2.0151 -1.5758 -0.7687
  916MOL0     H20852   1.335   6.925   3.780 -2.4497 -0.9184  0.9452
  916MOL0     H20853   1.218   7.120   3.876  1.3976  1.0543  1.3725
  916MOL0     H20854   1.262   7.055   4.042  1.2938 -0.7247 -0.3329
  916MOL0     H20855   1.084   6.930   3.828  0.3436 -1.6301  0.2366
  916MOL0     H20856   1.133   6.853   3.989  0.1086  0.2864  1.2559
  916MOL0     H20857   0.985   7.126   3.968 -3.7007  0.1045  0.6012
  916MOL0     H20858   0.998   7.027   4.105  0.0656 -2.0862  0.0314
  916MOL0     H20859   0.842   6.949   3.854  0.7221 -1.0729 -0.3578
  916MOL0     H20860   0.784   7.005   4.012  0.8591  0.0828 -0.5932
  916MOL0     H20861   0.930   6.746   3.939  3.6001  0.4378  0.8551
  916MOL0     H20862   0.894   6.801   4.116 -2.8066  2.2178  0.4065
  916MOL0     H20863   0.698   6.741   3.907  2.7147  0.2928 -1.5985
  916MOL0     H20864   0.659   6.801   4.072 -0.6134 -0.3581 -0.2307
  916MOL0     H20865   0.533   6.573   4.161 -1.0961 -1.0727 -2.9948
  916MOL0     H20866   0.514   6.371   4.282 -0.5237  0.9357  2.8649
  916MOL0     H20867   0.662   6.363   4.387 -4.6016 -2.1150  3.2203
  916MOL0     H20868   0.690   6.158   4.320  1.1239  1.1882 -0.2644
  916MOL0     H20869   0.686   6.195   4.151  0.2383  0.6384  0.0259
  916MOL0     H20870   0.434   6.201   4.158  0.4844  1.1744 -0.1291
  916MOL0     H20871   0.495   6.041   4.189 -2.1122  0.9572  0.2949
  916MOL0     H20872   0.353   6.230   4.365  2.2528  1.7414  0.7899
  916MOL0     H20873   0.480   6.110   4.438  0.7604  1.3398  0.0176
  916MOL0     H20874   0.233   6.184   4.551  0.4624  0.7521 -3.3871
  916MOL0     H20875   0.014   6.117   4.668  0.0369 -1.2256 -1.0164
  916MOL0     H20876  -0.272   5.643   4.795 -2.0028 -2.6761 -0.0028
  916MOL0     H20877  -0.509   5.594   4.908 -0.3498  0.4286 -0.3662
  916MOL0     H20878  -0.824   5.813   4.756  2.8329 -3.3257 -0.5940
  916MOL0     H20879  -0.807   5.923   4.898  0.6469 -0.6662  0.4317
  916MOL0     H20880  -0.940   5.653   4.918 -4.6447  0.0155  2.4253
  916MOL0     H20881  -1.018   5.807   4.900 -0.1046 -0.4818 -0.3408
  916MOL0     H20882  -0.891   5.887   5.109  1.1728  0.3017  1.9781
  916MOL0     H20883  -0.852   5.718   5.142  0.3958  0.4111  0.8031
  916MOL0     H20884  -1.149   5.831   5.105 -2.0756 -1.4720 -1.4031
  916MOL0     H20885  -1.095   5.660   5.136  2.7561 -0.8000  0.2662
  916MOL0     H20886  -1.011   5.877   5.319  0.8740 -1.6168 -0.2007
  916MOL0     H20887  -1.002   5.704   5.337 -0.9183  0.0058  2.1663
  916MOL0     H20888  -1.263   5.705   5.307  0.8004  1.1626 -0.1943
  916MOL0     H20889  -1.249   5.870   5.356  0.7432  0.3894  1.0828
  916MOL0     H20890  -1.144   5.658   5.538 -1.1087  0.7615  4.3255
  916MOL0     H20891  -1.143   5.835   5.565 -1.1928  1.6976 -1.3177
  916MOL0     H20892  -1.325   5.703   5.661 -1.0473  0.3501  0.7384
  916MOL0     H20893  -1.385   5.672   5.500  0.8040 -0.3938  0.2051
  916MOL0     H20894  -0.644   5.951   4.717  0.0118 -0.4803 -2.6503
  916MOL0     H20895  -0.439   5.975   4.592  0.8817 -0.8246 -0.8249
  916MOL0     H20896  -0.045   5.779   4.432 -0.4863  0.0141 -1.6469
  916MOL0     H20897   0.168   5.835   4.314  2.0569 -1.3174  1.8035
  916MOL0     H20898   1.689   7.208   3.918  0.7817  2.2916 -0.0458
  916MOL0     H20899   1.919   7.305   3.859  0.6894  0.3463 -2.5284
  916MOL0     H20900   2.342   7.197   3.622 -0.2511 -0.4199  2.9134
  916MOL0     H20901   2.555   7.281   3.528  0.9521 -0.2755  0.3748
  916MOL0     H20902   2.653   7.687   3.645  0.2849  2.4088 -0.5975
  916MOL0     H20903   2.656   7.704   3.470  2.0032  2.9147  1.0687
  916MOL0     H20904   2.883   7.620   3.462  1.5373  0.0041  1.4712
  916MOL0     H20905   2.859   7.747   3.578 -1.3015  0.1426  0.9071
  916MOL0     H20906   3.017   7.551   3.633  0.1940  0.9808  0.7543
  916MOL0     H20907   2.867   7.460   3.654 -1.3296  0.8614  0.1279
  916MOL0     H20908   2.797   7.600   3.834 -0.5530 -0.4574  0.0774
  916MOL0     H20909   2.951   7.533   3.876 -0.7487 -0.6270 -0.5842
  916MOL0     H20910   3.052   7.942   3.857 -1.6174  0.2373 -0.3476
  916MOL0     H20911   2.453   7.681   3.609  3.4050 -0.6183  0.6297
  916MOL0     H20912   2.215   7.609   3.674 -1.8514 -1.5632 -1.7954
  917MOL0     O20913   7.621   8.789  10.117 -0.0311 -0.1382  0.0404
  917MOL0     C20914   7.652   8.676  10.139  0.2680 -0.8835  0.0495
  917MOL0     O20915   7.593   8.567  10.084  0.0158  0.2406  0.0413
  917MOL0     C20916   7.488   8.571   9.990  0.7369 -0.3500 -0.7380
  917MOL0     C20917   7.386   8.482  10.001  0.5778 -0.1927  0.5817
  917MOL0     C20918   7.281   8.474   9.911 -0.2207  0.4000  0.1436
  917MOL0     C20919   7.295   8.541   9.788  0.3971  0.9929 -0.0988
  917MOL0     O20920   7.209   8.504   9.695 -0.2999 -0.1013 -0.0823
  917MOL0     C20921   7.241   8.526   9.563  0.5362  0.4179 -0.3846
  917MOL0     C20922   7.193   8.394   9.502 -0.1290  0.9053 -0.5159
  917MOL0     C20923   7.212   8.406   9.345  0.5931 -0.0491 -0.5099
  917MOL0     C20924   7.095   8.469   9.277 -1.0061 -0.4028  0.0798
  917MOL0     C20925   7.116   8.448   9.125  0.7954  0.4814  0.5954
  917MOL0     C20926   7.245   8.515   9.062 -0.4626  0.1074 -0.0482
  917MOL0     C20927   7.262   8.481   8.913  0.0057  0.5851  0.2075
  917MOL0     C20928   7.335   8.598   8.850 -0.0590  0.1349 -0.1719
  917MOL0     N20929   7.470   8.637   8.908  0.3689  0.0124  0.1270
  917MOL0     C20930   7.592   8.568   8.913  0.1769  0.0151 -0.3086
  917MOL0     C20931   7.676   8.648   8.977  0.3108 -0.3298 -0.4522
  917MOL0     C20932   7.816   8.603   9.022 -0.7098  0.6234 -1.1776
  917MOL0     C20933   7.936   8.664   8.940 -0.5263  0.5974 -0.5301
  917MOL0     C20934   7.937   8.822   8.951 -0.0089 -0.3527  0.1909
  917MOL0     C20935   8.063   8.880   8.900 -0.4686  0.0119  0.2556
  917MOL0     O20936   8.171   8.841   8.985  0.0004 -0.2176 -0.4075
  917MOL0     C20937   8.293   8.887   8.948  0.1387  0.6261  0.1491
  917MOL0     C20938   8.356   8.994   9.023  0.2015  0.1845  0.2344
  917MOL0     C20939   8.480   9.045   8.984  0.3463  0.1997  0.0553
  917MOL0     C20940   8.553   8.988   8.873 -0.5693 -0.1595 -0.5230
  917MOL0     C20941   8.688   9.036   8.833 -0.0679 -1.0544 -0.2131
  917MOL0     O20942   8.742   8.989   8.724  0.2348 -0.3977 -0.3493
  917MOL0     C20943   8.851   9.040   8.665 -0.4834 -0.3346  0.1040
  917MOL0     C20944   8.888   9.173   8.664 -0.1806  1.0969 -0.1299
  917MOL0     C20945   9.004   9.217   8.610 -0.5208 -0.2985  0.4615
  917MOL0     C20946   9.084   9.128   8.535  0.4100  0.4982 -1.2239
  917MOL0     O20947   9.190   9.173   8.474 -0.6349 -1.1598 -0.0933
  917MOL0     C20948   9.277   9.088   8.401 -1.5628 -0.6262  0.2307
  917MOL0     C20949   9.389   9.169   8.354 -0.7555 -0.3996  0.0400
  917MOL0     C20950   9.489   9.075   8.280  0.0238 -0.2096  0.5051
  917MOL0     C20951   9.616   9.150   8.247  0.1647 -0.1890  0.0772
  917MOL0     C20952   9.714   9.076   8.151  0.5137 -0.4566 -0.2303
  917MOL0     C20953   9.851   9.124   8.157 -0.3826 -0.0977  0.3985
  917MOL0     C20954   9.931   9.031   8.066 -0.3910  0.1601  0.1891
  917MOL0     C20955  10.075   9.084   8.065  0.1342  0.1287  0.6699
  917MOL0    Cl20956  10.169   8.955   7.976  0.4248 -0.0380 -0.0856
  917MOL0     C20957   9.048   8.991   8.539  0.4608 -0.8190  0.1361
  917MOL0     C20958   8.929   8.946   8.601  0.5815  0.3162 -0.0029
  917MOL0     O20959   8.737   9.125   8.902  0.9866  0.6588 -0.8369
  917MOL0     C20960   8.493   8.882   8.812  0.2381 -0.2866 -0.3911
  917MOL0     C20961   8.364   8.827   8.844 -0.7697  0.1044 -0.4312
  917MOL0     N20962   7.611   8.769   8.994  0.0880 -0.7024 -0.0043
  917MOL0     N20963   7.486   8.759   8.954 -0.0200  0.0957  0.5683
  917MOL0     C20964   7.383   8.647   9.784 -0.2795 -0.1246 -0.0331
  917MOL0     C20965   7.477   8.662   9.885  0.2982 -0.2245 -0.2185
  917MOL0     C20966   7.754   8.659  10.241 -0.0324  0.5480 -0.1376
  917MOL0     C20967   7.815   8.529  10.242 -0.6952 -0.3880  0.0689
  917MOL0     C20968   7.926   8.508  10.328 -0.7256 -0.5594 -0.5175
  917MOL0     C20969   7.975   8.606  10.409  0.8269  0.4052  0.2654
  917MOL0     O20970   8.097   8.593  10.469 -0.0614 -0.2417  0.3273
  917MOL0     C20971   8.202   8.588  10.370  0.6558 -0.0553  0.0483
  917MOL0     C20972   8.339   8.607  10.436 -0.8816  0.3554 -0.2494
  917MOL0     C20973   8.385   8.746  10.469 -0.2389 -0.3391 -0.2266
  917MOL0     C20974   8.538   8.752  10.520  0.1341  0.0839  0.6805
  917MOL0     C20975   8.627   8.733  10.405  0.7055  1.0604  0.1520
  917MOL0     C20976   8.698   8.724  10.315  0.3096  0.8703  0.5480
  917MOL0     C20977   7.915   8.735  10.402  0.1547  0.3053 -0.1875
  917MOL0     C20978   7.807   8.764  10.321 -0.3012 -0.5541 -0.1721
  917MOL0     H20979   7.395   8.412  10.084 -1.8502 -0.9549  0.2738
  917MOL0     H20980   7.205   8.399   9.929 -1.7203  1.4874 -1.2776
  917MOL0     H20981   7.344   8.543   9.530  0.6085  1.6415  0.4034
  917MOL0     H20982   7.176   8.603   9.519  1.2269  0.9130 -0.5627
  917MOL0     H20983   7.089   8.381   9.533  0.2524  2.0865  1.3601
  917MOL0     H20984   7.258   8.315   9.541 -1.0931  0.1720 -0.3477
  917MOL0     H20985   7.222   8.303   9.308 -0.9851  0.2074 -1.7938
  917MOL0     H20986   7.303   8.464   9.329  0.5758  0.2520  0.4171
  917MOL0     H20987   7.004   8.414   9.301 -1.3855 -1.2940 -2.9798
  917MOL0     H20988   7.089   8.578   9.288  0.8208  0.1725 -3.3132
  917MOL0     H20989   7.031   8.492   9.071  0.8220  1.0551  1.0085
  917MOL0     H20990   7.120   8.342   9.097  2.9290  1.2422 -2.4935
  917MOL0     H20991   7.320   8.479   9.133 -2.0704 -0.8887  1.2024
  917MOL0     H20992   7.246   8.622   9.086 -0.7221 -0.1357  1.1157
  917MOL0     H20993   7.322   8.391   8.893  0.7791  1.4587 -1.6568
  917MOL0     H20994   7.165   8.463   8.866 -0.4318 -1.9526  1.9042
  917MOL0     H20995   7.272   8.687   8.862  2.6841  2.0620  1.1439
  917MOL0     H20996   7.343   8.570   8.745  0.8866  0.8094 -0.2887
  917MOL0     H20997   7.611   8.462   8.894 -1.3429 -0.4048  0.3532
  917MOL0     H20998   7.830   8.495   9.028  1.6550  0.9372  1.1367
  917MOL0     H20999   7.836   8.640   9.123  2.1179 -1.1863 -0.9498
  917MOL0     H21000   7.932   8.632   8.835  2.5181  4.7645 -2.1929
  917MOL0     H21001   8.025   8.622   8.990  0.4950  2.6341 -0.5270
  917MOL0     H21002   7.856   8.860   8.889  0.1743 -0.4152 -0.0879
  917MOL0     H21003   7.943   8.845   9.058  0.0719  1.6337 -0.2122
  917MOL0     H21004   8.045   8.988   8.905  1.4427  0.4998 -1.6496
  917MOL0     H21005   8.091   8.854   8.797 -1.7553 -0.5417  0.0297
  917MOL0     H21006   8.309   9.035   9.112  1.4188  0.8324  0.6056
  917MOL0     H21007   8.528   9.127   9.036 -1.3564  1.1537  0.1990
  917MOL0     H21008   8.816   9.239   8.712 -0.1590  0.7245  0.4227
  917MOL0     H21009   9.032   9.321   8.601 -1.2499 -0.2490 -1.7587
  917MOL0     H21010   9.221   9.050   8.316 -0.3543  3.1431 -2.5157
  917MOL0     H21011   9.304   9.010   8.473  0.9698 -0.3672 -0.3461
  917MOL0     H21012   9.445   9.214   8.436 -4.0522  2.9432  0.7341
  917MOL0     H21013   9.350   9.249   8.290 -0.4180  0.5469  0.9863
  917MOL0     H21014   9.457   9.038   8.182  0.7290  0.7780 -0.1152
  917MOL0     H21015   9.515   8.992   8.346 -1.8908 -1.2117  0.0533
  917MOL0     H21016   9.595   9.254   8.220 -0.3741 -0.1136  0.7502
  917MOL0     H21017   9.681   9.142   8.335  1.9545 -0.5887 -1.2326
  917MOL0     H21018   9.686   9.087   8.046 -1.9759 -0.3062  0.3887
  917MOL0     H21019   9.708   8.968   8.167 -0.0059 -0.5976 -1.2917
  917MOL0     H21020   9.895   9.119   8.257  0.7183  0.4776 -0.0369
  917MOL0     H21021   9.856   9.229   8.127  0.7096 -0.6204 -1.4244
  917MOL0     H21022   9.928   8.941   8.128 -0.6237  1.3477  1.9763
  917MOL0     H21023   9.891   9.017   7.965 -1.7615 -0.8159  0.8334
  917MOL0     H21024  10.121   9.096   8.164 -1.9840 -1.8968  2.0203
  917MOL0     H21025  10.088   9.173   8.003 -0.3470  0.9817  1.7599
  917MOL0     H21026   9.109   8.917   8.488 -1.5255 -2.9572  0.7034
  917MOL0     H21027   8.886   8.849   8.581 -1.8901  1.3917 -0.2892
  917MOL0     H21028   8.544   8.834   8.729 -0.0793 -0.3348 -0.5602
  917MOL0     H21029   8.313   8.750   8.788  0.1782 -1.9598  1.4229
  917MOL0     H21030   7.388   8.703   9.691  1.8637  0.2113  0.2285
  917MOL0     H21031   7.547   8.745   9.881 -0.1302  0.1227 -0.5747
  917MOL0     H21032   7.784   8.451  10.173  0.0847 -1.5795  1.0147
  917MOL0     H21033   7.976   8.412  10.335  4.5317  1.9018  1.3184
  917MOL0     H21034   8.179   8.662  10.293 -2.0398 -1.0065 -0.1925
  917MOL0     H21035   8.199   8.486  10.329  1.6915  0.1065 -0.4685
  917MOL0     H21036   8.340   8.545  10.526 -3.3625  0.2113 -0.2694
  917MOL0     H21037   8.410   8.558  10.369 -0.6117  0.5518 -0.1109
  917MOL0     H21038   8.319   8.793  10.542 -0.7473  2.8968 -2.5677
  917MOL0     H21039   8.385   8.809  10.380 -2.1553 -0.3245 -0.2629
  917MOL0     H21040   8.569   8.841  10.575 -0.5779 -0.6313  2.2850
  917MOL0     H21041   8.543   8.671  10.594  1.2932  0.7509  1.3558
  917MOL0     H21042   8.753   8.700  10.227 -1.4052 -1.4499  0.0245
  917MOL0     H21043   7.966   8.804  10.469  0.2779 -0.4124  0.4637
  917MOL0     H21044   7.769   8.865  10.314  3.0068  0.8293 -0.1094
  918MOL0     O21045   4.347   0.520   8.804 -0.0005 -0.1962 -0.2953
  918MOL0     C21046   4.411   0.476   8.706 -0.0384 -0.3934 -0.3054
  918MOL0     O21047   4.367   0.476   8.573 -0.2763 -0.6141  0.1545
  918MOL0     C21048   4.241   0.510   8.538 -0.6030 -0.0117 -0.4208
  918MOL0     C21049   4.226   0.642   8.484  0.3149  0.5410 -0.3554
  918MOL0     C21050   4.095   0.693   8.461  0.7192  0.7151  0.3838
  918MOL0     C21051   3.983   0.617   8.495 -0.0018  0.3944 -0.7985
  918MOL0     O21052   3.864   0.675   8.458  0.4861  0.4223  0.4399
  918MOL0     C21053   3.740   0.616   8.514 -0.3832 -0.0312 -0.0136
  918MOL0     C21054   3.619   0.699   8.479  0.8246 -0.9085  0.2631
  918MOL0     C21055   3.494   0.655   8.550  0.9369 -0.3727  0.1340
  918MOL0     C21056   3.451   0.516   8.510  0.2407  0.4426 -0.7191
  918MOL0     C21057   3.301   0.485   8.553  0.6821 -0.5870 -0.1738
  918MOL0     C21058   3.251   0.360   8.491 -0.0257 -0.0809 -0.2080
  918MOL0     C21059   3.102   0.328   8.520  0.6247  0.1652  0.3855
  918MOL0     C21060   3.014   0.455   8.511 -0.1127 -0.2864 -0.2083
  918MOL0     N21061   2.874   0.413   8.505 -0.2479  0.7581  0.1076
  918MOL0     C21062   2.805   0.339   8.609 -0.0165  0.0451  0.2057
  918MOL0     C21063   2.687   0.300   8.550 -0.5236  1.1465  0.5605
  918MOL0     C21064   2.580   0.208   8.600  0.3424  0.2590 -0.2138
  918MOL0     C21065   2.472   0.288   8.681 -0.5889  0.1506 -0.4629
  918MOL0     C21066   2.366   0.207   8.755 -0.5122 -0.0139  0.3269
  918MOL0     C21067   2.253   0.297   8.798  0.0674  0.0176  0.0526
  918MOL0     O21068   2.151   0.221   8.864 -0.0724  0.4386  1.0046
  918MOL0     C21069   2.022   0.230   8.832  0.0556 -0.1638  0.8256
  918MOL0     C21070   1.931   0.137   8.885  0.1333 -0.2899  0.5402
  918MOL0     C21071   1.792   0.131   8.857  0.0765  0.0351 -0.9034
  918MOL0     C21072   1.736   0.242   8.790  0.2445 -0.6123 -0.4051
  918MOL0     C21073   1.594   0.251   8.778  0.3956 -0.9146 -0.2652
  918MOL0     O21074   1.522   0.135   8.803  0.5007 -0.1081  0.4267
  918MOL0     C21075   1.383   0.132   8.771  0.2272  0.4673  0.1379
  918MOL0     C21076   1.289   0.167   8.863  0.1015  1.4528 -0.0500
  918MOL0     C21077   1.154   0.146   8.831  0.5015  0.3435  0.3435
  918MOL0     C21078   1.108   0.108   8.706 -0.5765  0.0607  0.7700
  918MOL0     O21079   0.971   0.093   8.681 -0.5415  0.3546  0.0928
  918MOL0     C21080   0.929   0.102   8.543 -0.0157  1.3400  0.2074
  918MOL0     C21081   0.773   0.119   8.547  0.0064  0.0537  0.1570
  918MOL0     C21082   0.702   0.085   8.419 -0.8352 -0.8518  1.2799
  918MOL0     C21083   0.549   0.074   8.441  0.6316  0.1934  1.3115
  918MOL0     C21084   0.486  -0.002   8.319 -0.4065  0.0599  0.1869
  918MOL0     C21085   0.483  -0.150   8.337  0.1412  0.4202 -0.4196
  918MOL0     C21086   0.367  -0.210   8.264  0.4283  0.5212  1.0648
  918MOL0     C21087   0.365  -0.358   8.294  0.5623 -0.5162  0.4781
  918MOL0    Cl21088   0.200  -0.427   8.279  0.0151  0.0059 -0.3255
  918MOL0     C21089   1.208   0.073   8.612  0.1335 -0.5507  0.6357
  918MOL0     C21090   1.346   0.088   8.645 -0.4648  1.2337  0.5673
  918MOL0     O21091   1.557   0.366   8.764 -0.2526 -0.0433 -0.5250
  918MOL0     C21092   1.826   0.342   8.745  0.1503  0.4743  0.3260
  918MOL0     C21093   1.963   0.339   8.768  0.1312  0.2300 -0.0312
  918MOL0     N21094   2.679   0.357   8.424 -0.0567  0.1774  0.5057
  918MOL0     N21095   2.792   0.420   8.397 -0.9114  0.5489 -0.0503
  918MOL0     C21096   3.992   0.487   8.554  0.4236  0.2883 -0.3200
  918MOL0     C21097   4.121   0.437   8.576 -1.0373 -0.5112  0.5015
  918MOL0     C21098   4.541   0.420   8.733  0.0890  0.4470  0.0491
  918MOL0     C21099   4.588   0.383   8.863  0.3280 -0.1072  0.5594
  918MOL0     C21100   4.706   0.310   8.869  0.2819  0.0937  1.0093
  918MOL0     C21101   4.769   0.256   8.754  0.1553 -0.0456 -0.2224
  918MOL0     O21102   4.867   0.163   8.753 -0.8943  0.1771  0.9413
  918MOL0     C21103   4.929   0.120   8.881  0.2657 -0.3080  0.2792
  918MOL0     C21104   5.022   0.236   8.936  0.0721 -0.1138 -0.3306
  918MOL0     C21105   5.105   0.167   9.050  0.1590  0.4047 -0.1910
  918MOL0     C21106   5.216   0.251   9.110 -0.8030 -0.2668  0.3366
  918MOL0     C21107   5.165   0.379   9.160 -0.2145  0.7555 -0.1930
  918MOL0     C21108   5.116   0.476   9.213 -0.1600  0.1673 -0.5279
  918MOL0     C21109   4.735   0.303   8.628  0.9048  0.6193  0.4313
  918MOL0     C21110   4.615   0.373   8.610 -0.3925 -0.1591 -0.5255
  918MOL0     H21111   4.313   0.697   8.451 -1.0354  1.3441 -2.8484
  918MOL0     H21112   4.095   0.793   8.420  1.1929  2.5404  4.3668
  918MOL0     H21113   3.751   0.607   8.623  1.0999 -3.0671 -0.2886
  918MOL0     H21114   3.710   0.518   8.476 -2.1290 -0.1552  1.5550
  918MOL0     H21115   3.601   0.696   8.371  1.9068  3.0170 -0.1977
  918MOL0     H21116   3.634   0.801   8.517 -0.7859 -0.5854  0.0868
  918MOL0     H21117   3.414   0.729   8.540  0.8232 -0.5917 -0.7128
  918MOL0     H21118   3.519   0.653   8.656  1.6950  0.2645 -0.0270
  918MOL0     H21119   3.451   0.510   8.401 -3.5488 -0.5092 -0.8091
  918MOL0     H21120   3.509   0.432   8.549  0.9122  0.4953 -1.5816
  918MOL0     H21121   3.240   0.572   8.527  0.2462 -1.2147 -1.2680
  918MOL0     H21122   3.301   0.475   8.662  2.3296  1.3129  0.0677
  918MOL0     H21123   3.304   0.276   8.536 -0.5081  0.1665  0.8663
  918MOL0     H21124   3.270   0.373   8.384 -3.4086  1.0127 -0.8113
  918MOL0     H21125   3.062   0.255   8.449 -4.7776  2.3904  0.6298
  918MOL0     H21126   3.090   0.276   8.616 -3.0370  2.1505  1.1921
  918MOL0     H21127   3.030   0.525   8.428  1.0457  0.9538  0.9854
  918MOL0     H21128   3.023   0.516   8.602  1.4259  1.8458 -1.6951
  918MOL0     H21129   2.839   0.303   8.705  0.2866 -1.7786 -0.5405
  918MOL0     H21130   2.629   0.142   8.672 -1.1695  1.3659  1.9789
  918MOL0     H21131   2.535   0.143   8.525  0.8918 -0.4103  0.0226
  918MOL0     H21132   2.436   0.355   8.603  1.0046 -0.2642 -1.6175
  918MOL0     H21133   2.514   0.357   8.755  1.2938 -1.3345 -0.0545
  918MOL0     H21134   2.323   0.129   8.691 -0.6484  0.8742 -0.6919
  918MOL0     H21135   2.412   0.156   8.840  0.3972  1.9046  1.0360
  918MOL0     H21136   2.220   0.349   8.707 -0.0078 -2.2940 -1.3272
  918MOL0     H21137   2.289   0.371   8.869  1.6444 -0.6482 -0.0171
  918MOL0     H21138   1.976   0.058   8.944  0.4152 -1.3340 -1.0051
  918MOL0     H21139   1.740   0.045   8.898  0.2018  0.4394  0.1421
  918MOL0     H21140   1.328   0.169   8.965 -1.9348  1.5107  0.7680
  918MOL0     H21141   1.077   0.153   8.907  1.3651  2.6333  1.0807
  918MOL0     H21142   0.959   0.004   8.505 -1.4426  1.5118 -1.4865
  918MOL0     H21143   0.965   0.186   8.484  0.4388 -0.5963 -2.4300
  918MOL0     H21144   0.758   0.225   8.572  1.0613  0.3136 -0.2274
  918MOL0     H21145   0.734   0.062   8.631  2.8891 -0.6891  1.1181
  918MOL0     H21146   0.737  -0.008   8.374  0.1989  0.2105 -0.1949
  918MOL0     H21147   0.723   0.157   8.340  0.5392  0.2871  2.6180
  918MOL0     H21148   0.530   0.020   8.534  0.1824 -0.5401  0.8080
  918MOL0     H21149   0.499   0.171   8.445 -0.2090 -0.1621 -0.0457
  918MOL0     H21150   0.547   0.017   8.230  0.6916 -0.3539  0.8192
  918MOL0     H21151   0.389   0.047   8.308 -0.1752  0.6886  0.8241
  918MOL0     H21152   0.468  -0.163   8.444 -2.6544  1.3178 -0.6244
  918MOL0     H21153   0.574  -0.200   8.302  0.2090 -1.7547  2.4587
  918MOL0     H21154   0.278  -0.159   8.303 -1.5342 -1.0655 -1.0148
  918MOL0     H21155   0.366  -0.181   8.158  2.3020 -1.1836  0.5277
  918MOL0     H21156   0.394  -0.374   8.398 -0.4632  0.3048  0.9062
  918MOL0     H21157   0.432  -0.415   8.229 -1.7404 -1.8357 -0.8873
  918MOL0     H21158   1.190   0.032   8.513  0.2327 -2.4693  1.3625
  918MOL0     H21159   1.428   0.061   8.579 -1.5173 -0.8168  0.0007
  918MOL0     H21160   1.784   0.431   8.700  0.0547  0.1227 -0.2999
  918MOL0     H21161   2.006   0.433   8.735 -2.5267  1.3304 -0.6370
  918MOL0     H21162   3.905   0.432   8.588  0.8243  0.4235  0.9761
  918MOL0     H21163   4.135   0.338   8.616 -0.1129  0.0113  1.5160
  918MOL0     H21164   4.517   0.394   8.945 -1.3514 -0.0761 -0.8212
  918MOL0     H21165   4.724   0.275   8.970 -0.1442 -0.8398  0.7827
  918MOL0     H21166   4.986   0.030   8.855  0.5198  0.3127 -1.4760
  918MOL0     H21167   4.856   0.104   8.961  0.1300 -1.0542  0.0136
  918MOL0     H21168   5.092   0.266   8.857 -0.8780  2.8288 -0.1989
  918MOL0     H21169   4.973   0.324   8.980  0.1999 -0.5186  0.6514
  918MOL0     H21170   5.132   0.069   9.009 -2.0110 -0.3121 -0.0249
  918MOL0     H21171   5.042   0.138   9.134 -2.5657  0.1044 -2.2205
  918MOL0     H21172   5.271   0.207   9.194 -0.8100  0.1773  0.5771
  918MOL0     H21173   5.289   0.275   9.032 -1.4226  2.3257  0.4834
  918MOL0     H21174   5.076   0.563   9.262 -2.6141 -0.9453 -0.4341
  918MOL0     H21175   4.782   0.265   8.538 -2.3188  1.0579 -1.6117
  918MOL0     H21176   4.595   0.400   8.507 -1.5922  2.3033  0.2619
  919MOL0     O21177   8.492   9.253   7.755 -0.0231 -0.8645  0.2222
  919MOL0     C21178   8.595   9.312   7.794  0.1298  0.4860  0.1630
  919MOL0     O21179   8.598   9.410   7.888  0.0924 -0.3851  0.6072
  919MOL0     C21180   8.476   9.444   7.948 -0.3629  0.0459 -0.0139
  919MOL0     C21181   8.439   9.574   7.969  0.1080  0.4426 -0.2026
  919MOL0     C21182   8.324   9.606   8.052 -0.6263 -0.5857  0.6603
  919MOL0     C21183   8.242   9.508   8.107 -0.2968  0.3597 -1.0291
  919MOL0     O21184   8.140   9.545   8.193  1.2635 -0.0283 -0.2406
  919MOL0     C21185   8.153   9.518   8.336 -0.5489  0.2481 -0.0662
  919MOL0     C21186   8.267   9.609   8.393  0.2645 -0.4021  0.5820
  919MOL0     C21187   8.231   9.762   8.389 -0.3609 -0.5412  0.3515
  919MOL0     C21188   8.346   9.854   8.426 -0.0535  0.5195  0.6651
  919MOL0     C21189   8.456   9.862   8.320 -0.1861  0.4332 -0.1409
  919MOL0     C21190   8.560   9.962   8.360 -0.4177  0.2340 -0.1995
  919MOL0     C21191   8.658   9.994   8.244  0.0022  0.7215 -0.3398
  919MOL0     C21192   8.759   9.895   8.190 -0.2499 -0.4198  1.5109
  919MOL0     N21193   8.885   9.918   8.251 -0.3268  0.5083 -1.1510
  919MOL0     C21194   8.985   9.994   8.205  0.6769 -0.6420  0.1003
  919MOL0     C21195   9.077   9.998   8.303 -0.5311 -0.3620  0.3499
  919MOL0     C21196   9.195  10.096   8.301  0.3770  0.2560  0.0624
  919MOL0     C21197   9.162  10.237   8.253  0.5983 -0.1209 -0.1872
  919MOL0     C21198   9.066  10.320   8.344  0.6740 -0.5110 -0.3918
  919MOL0     C21199   9.141  10.355   8.483  0.0078 -0.2110  0.1509
  919MOL0     O21200   9.066  10.441   8.569  0.1687 -0.1485 -0.3859
  919MOL0     C21201   8.932  10.403   8.586  0.1931 -1.0957 -0.4316
  919MOL0     C21202   8.843  10.516   8.600  0.7124 -0.3035 -0.7102
  919MOL0     C21203   8.705  10.503   8.624 -0.5620 -0.1370  0.8351
  919MOL0     C21204   8.650  10.375   8.615 -0.5935 -0.4518  0.4491
  919MOL0     C21205   8.507  10.364   8.626  0.6505  0.0717  0.2100
  919MOL0     O21206   8.443  10.472   8.686  0.5637  1.2354  0.1905
  919MOL0     C21207   8.304  10.483   8.689 -0.5917  0.4108 -0.1629
  919MOL0     C21208   8.199  10.405   8.618 -0.0226  0.8269  0.1152
  919MOL0     C21209   8.062  10.430   8.636 -1.0319 -0.8164  0.7611
  919MOL0     C21210   8.018  10.530   8.716  0.5484 -0.7952 -0.5055
  919MOL0     O21211   7.881  10.548   8.727  0.3941  0.2711  0.6403
  919MOL0     C21212   7.823  10.589   8.849  1.3054  0.0634  0.1258
  919MOL0     C21213   7.675  10.569   8.824 -0.1297 -0.4963  0.9438
  919MOL0     C21214   7.618  10.690   8.743 -0.6769  0.2366  0.1952
  919MOL0     C21215   7.471  10.662   8.717 -0.0504  0.9204 -0.1392
  919MOL0     C21216   7.414  10.751   8.603 -0.0873 -0.3459 -0.7552
  919MOL0     C21217   7.449  10.896   8.620  0.6573  0.2234 -0.1183
  919MOL0     C21218   7.396  10.970   8.501  0.6043 -0.8085  0.3788
  919MOL0     C21219   7.426  11.118   8.518 -0.5472 -0.5540 -0.2719
  919MOL0    Cl21220   7.599  11.139   8.522  0.0821 -0.0392  0.2715
  919MOL0     C21221   8.113  10.597   8.798  0.2888 -0.6881 -0.5979
  919MOL0     C21222   8.255  10.570   8.787  0.5620 -0.1450  0.5625
  919MOL0     O21223   8.450  10.267   8.579 -0.5699 -0.1368  0.1410
  919MOL0     C21224   8.736  10.261   8.604  0.7842 -0.1980 -0.6409
  919MOL0     C21225   8.874  10.277   8.581  0.0999  0.3623 -1.0368
  919MOL0     N21226   9.039   9.919   8.405  0.9760 -0.5342 -0.7695
  919MOL0     N21227   8.927   9.862   8.367 -0.3139  0.1980  0.0144
  919MOL0     C21228   8.291   9.376   8.099  0.4403 -0.7205 -0.3310
  919MOL0     C21229   8.403   9.347   8.025  0.0191 -0.3504  0.1473
  919MOL0     C21230   8.720   9.270   7.734  0.7451  0.4027  0.8232
  919MOL0     C21231   8.842   9.326   7.778 -0.7158  0.3298 -0.7065
  919MOL0     C21232   8.960   9.302   7.709  0.4049  0.2951  0.4937
  919MOL0     C21233   8.962   9.211   7.599  0.5062  0.0275 -0.4845
  919MOL0     O21234   9.079   9.187   7.533  0.5759 -0.3493 -0.3621
  919MOL0     C21235   9.136   9.293   7.464  0.3967 -0.7597  0.2952
  919MOL0     C21236   9.236   9.232   7.365  0.4364  0.6115  0.6418
  919MOL0     C21237   9.328   9.132   7.427 -0.5776 -0.6160  0.5684
  919MOL0     C21238   9.441   9.098   7.326  0.1585  0.2638 -0.3127
  919MOL0     C21239   9.560   9.042   7.397  0.0645  0.9758  0.6242
  919MOL0     C21240   9.662   8.991   7.444 -0.4815 -1.0874  0.2168
  919MOL0     C21241   8.842   9.155   7.557  0.6136  0.1939 -0.8609
  919MOL0     C21242   8.722   9.193   7.616  0.7155 -0.4893  1.0187
  919MOL0     H21243   8.502   9.652   7.927 -0.9781  0.5846 -1.6242
  919MOL0     H21244   8.295   9.710   8.062  5.1290  1.1456  3.5724
  919MOL0     H21245   8.170   9.413   8.364 -1.1914  0.4768  1.2517
  919MOL0     H21246   8.059   9.549   8.382 -0.7013 -0.1910 -0.0756
  919MOL0     H21247   8.356   9.581   8.335  2.8259  0.4998  3.7340
  919MOL0     H21248   8.284   9.578   8.497  1.8402 -0.2594  0.3998
  919MOL0     H21249   8.150   9.774   8.461 -0.0495 -1.7031  0.9227
  919MOL0     H21250   8.185   9.796   8.296  0.0770  0.4959  0.5072
  919MOL0     H21251   8.301   9.953   8.431 -0.3913  0.6940 -2.8431
  919MOL0     H21252   8.403   9.823   8.514  1.9208  2.0145 -0.0067
  919MOL0     H21253   8.407   9.885   8.225 -1.9369 -1.1073  0.3394
  919MOL0     H21254   8.505   9.765   8.309  1.8336  1.0995  1.9321
  919MOL0     H21255   8.616   9.932   8.449  0.1595 -1.0544 -0.9659
  919MOL0     H21256   8.510  10.054   8.391 -0.0592  0.2671  0.2970
  919MOL0     H21257   8.607  10.022   8.151 -2.8776 -2.2083  0.1611
  919MOL0     H21258   8.708  10.086   8.274 -0.4009  0.2446  2.0385
  919MOL0     H21259   8.782   9.911   8.084  2.8782 -2.3512  1.7711
  919MOL0     H21260   8.720   9.793   8.201 -2.3118 -0.2092 -2.2882
  919MOL0     H21261   8.980  10.056   8.116 -0.8864 -0.0742  0.5474
  919MOL0     H21262   9.258  10.055   8.222 -1.3783 -2.0015 -0.2340
  919MOL0     H21263   9.253  10.082   8.393 -0.5883  1.0286  0.8094
  919MOL0     H21264   9.116  10.227   8.154  0.9381 -2.9577 -0.1563
  919MOL0     H21265   9.256  10.293   8.248  1.4646 -1.2850  1.7887
  919MOL0     H21266   9.036  10.414   8.297  0.7078 -0.0030  0.5786
  919MOL0     H21267   8.976  10.258   8.350  0.3256 -0.1189 -1.3086
  919MOL0     H21268   9.229  10.417   8.463  1.0745 -1.8470 -0.3739
  919MOL0     H21269   9.174  10.263   8.531  1.7939 -0.0776 -0.7364
  919MOL0     H21270   8.881  10.618   8.601 -0.1084  0.0074 -0.6769
  919MOL0     H21271   8.649  10.593   8.650  0.0321 -0.0024  1.6705
  919MOL0     H21272   8.238  10.335   8.545  0.1360 -1.2705  2.1248
  919MOL0     H21273   7.990  10.375   8.576 -0.5993  0.8652 -1.4652
  919MOL0     H21274   7.844  10.695   8.866  4.4172 -0.7592  2.2983
  919MOL0     H21275   7.858  10.534   8.937 -1.2647 -1.6523  0.1780
  919MOL0     H21276   7.627  10.565   8.922 -2.4805  1.4880 -0.0303
  919MOL0     H21277   7.651  10.475   8.772  1.7418  0.2734 -1.5151
  919MOL0     H21278   7.664  10.702   8.644  1.4823  0.1236  1.1448
  919MOL0     H21279   7.627  10.786   8.793 -1.4173  0.9227 -0.9439
  919MOL0     H21280   7.443  10.560   8.691 -2.9705  1.7993 -0.8658
  919MOL0     H21281   7.421  10.681   8.813  0.3872  1.9708 -0.1005
  919MOL0     H21282   7.305  10.745   8.596 -0.1674  1.3922 -1.3813
  919MOL0     H21283   7.455  10.718   8.507  1.3341 -1.0815  0.0703
  919MOL0     H21284   7.556  10.914   8.631  0.8649 -0.9549 -0.0811
  919MOL0     H21285   7.397  10.925   8.712  0.7813  0.9710 -0.2783
  919MOL0     H21286   7.440  10.941   8.405  1.2271  1.4217 -0.0701
  919MOL0     H21287   7.290  10.952   8.482  1.0602 -1.0295 -2.2893
  919MOL0     H21288   7.378  11.154   8.609  0.9580  1.0928 -0.0844
  919MOL0     H21289   7.383  11.179   8.439 -3.5699 -0.8015  1.0415
  919MOL0     H21290   8.069  10.663   8.872 -0.9614 -1.8886 -0.2186
  919MOL0     H21291   8.330  10.623   8.844  0.9133 -0.2534  0.2071
  919MOL0     H21292   8.694  10.162   8.618 -1.5305  0.8025  0.1160
  919MOL0     H21293   8.943  10.194   8.579  1.2433  1.2977 -1.6928
  919MOL0     H21294   8.234   9.299   8.150 -0.2640 -0.5831 -0.8991
  919MOL0     H21295   8.432   9.242   8.025  0.7999 -0.1848 -1.8237
  919MOL0     H21296   8.852   9.387   7.867 -0.3691 -0.0970 -0.4497
  919MOL0     H21297   9.052   9.345   7.746  0.0978  1.3732  0.0426
  919MOL0     H21298   9.176   9.372   7.528  3.1256 -0.8915 -1.1147
  919MOL0     H21299   9.054   9.340   7.409  1.6580 -0.6293 -1.5709
  919MOL0     H21300   9.176   9.180   7.291 -0.2027 -1.5454  2.5638
  919MOL0     H21301   9.291   9.314   7.317  0.6402  0.0011 -0.1938
  919MOL0     H21302   9.270   9.039   7.430  1.3172 -1.9259 -0.8267
  919MOL0     H21303   9.359   9.155   7.529  1.5127  1.4786 -0.4383
  919MOL0     H21304   9.394   9.037   7.248  1.0453  1.7938 -2.1226
  919MOL0     H21305   9.474   9.184   7.268  2.5105 -1.1347 -1.1907
  919MOL0     H21306   9.752   8.949   7.484 -1.2749 -1.5551  1.5799
  919MOL0     H21307   8.829   9.080   7.481  0.4245  0.0720 -0.7101
  919MOL0     H21308   8.628   9.158   7.575  0.6008  1.0446 -0.1550
  920MOL0     O21309   3.947   6.228   8.248 -0.1216 -0.0903  0.5042
  920MOL0     C21310   3.942   6.124   8.303 -0.1174 -0.3348  0.6194
  920MOL0     O21311   4.042   6.036   8.320 -0.2959  0.1340  0.6084
  920MOL0     C21312   4.173   6.052   8.290  0.8829 -0.3226  0.9424
  920MOL0     C21313   4.215   6.110   8.173  0.8981 -0.6832  0.8750
  920MOL0     C21314   4.349   6.099   8.128 -0.4223 -0.5842  0.3213
  920MOL0     C21315   4.440   6.031   8.211  0.0048 -0.4799  0.1647
  920MOL0     O21316   4.569   6.001   8.186  0.3391 -0.5204  0.5738
  920MOL0     C21317   4.606   5.995   8.051 -0.3750 -0.4609 -0.1187
  920MOL0     C21318   4.751   5.946   8.033  0.4338  0.0775  1.2961
  920MOL0     C21319   4.786   5.942   7.884 -0.9333 -0.6685 -0.3468
  920MOL0     C21320   4.923   5.877   7.851  0.1512  0.9681 -0.0243
  920MOL0     C21321   4.913   5.818   7.707 -0.2250 -0.5277  0.3031
  920MOL0     C21322   5.044   5.745   7.673  0.3885  0.8006 -0.0949
  920MOL0     C21323   5.168   5.833   7.667 -0.5413 -0.3521  1.3896
  920MOL0     C21324   5.280   5.757   7.601 -1.0133 -0.2315  0.9527
  920MOL0     N21325   5.397   5.846   7.580  0.5718  0.2314 -0.1991
  920MOL0     C21326   5.412   5.938   7.473 -0.2944 -0.4273 -0.3131
  920MOL0     C21327   5.534   5.987   7.486 -0.3822 -0.6897  0.9821
  920MOL0     C21328   5.604   6.072   7.382 -0.2953 -0.0187 -0.8691
  920MOL0     C21329   5.558   6.220   7.375  0.4155  0.8478  0.5580
  920MOL0     C21330   5.412   6.213   7.342  0.2485 -0.1763 -0.3948
  920MOL0     C21331   5.362   6.341   7.283 -0.5203 -0.2343 -0.2449
  920MOL0     O21332   5.225   6.327   7.247  0.4089 -0.6861 -0.4390
  920MOL0     C21333   5.128   6.310   7.340 -0.4846 -0.6069 -0.2602
  920MOL0     C21334   5.018   6.249   7.292  0.2110  0.0402 -0.2648
  920MOL0     C21335   4.904   6.235   7.367  0.9226  0.0472  0.8136
  920MOL0     C21336   4.900   6.275   7.500 -0.3224 -0.1725  0.3184
  920MOL0     C21337   4.789   6.246   7.596  0.5876 -0.3193  0.5075
  920MOL0     O21338   4.717   6.127   7.579 -0.2345  0.4215 -0.3771
  920MOL0     C21339   4.596   6.100   7.640  0.3039  0.4502  0.4658
  920MOL0     C21340   4.550   5.965   7.647 -0.7125  0.1476  0.2248
  920MOL0     C21341   4.434   5.924   7.717  0.4404  0.1432  0.0297
  920MOL0     C21342   4.348   6.022   7.767  1.3579 -0.4528 -0.1691
  920MOL0     O21343   4.227   6.004   7.824  0.0423  0.7263  0.3311
  920MOL0     C21344   4.176   5.871   7.818 -0.9095  0.2181 -0.4229
  920MOL0     C21345   4.035   5.864   7.875  0.3893  0.0416 -0.3175
  920MOL0     C21346   3.945   5.921   7.771 -0.4288 -0.2598  1.1831
  920MOL0     C21347   3.799   5.954   7.818  1.0335  0.0303  1.0982
  920MOL0     C21348   3.782   6.078   7.903 -0.0778  0.0091  0.2844
  920MOL0     C21349   3.635   6.125   7.914 -0.1489  0.2693  0.4249
  920MOL0     C21350   3.545   6.026   7.966 -0.1612 -0.0976 -0.1581
  920MOL0     C21351   3.396   6.071   7.979 -0.8494 -0.1368  0.5431
  920MOL0    Cl21352   3.310   5.930   8.027 -0.0231 -0.0713  0.3553
  920MOL0     C21353   4.395   6.150   7.767  0.5272 -0.0292  0.9693
  920MOL0     C21354   4.511   6.193   7.708 -0.7485  0.3746  1.0789
  920MOL0     O21355   4.773   6.321   7.692 -0.2621 -0.4880  0.2195
  920MOL0     C21356   5.010   6.353   7.543  0.3833  0.8759 -0.3511
  920MOL0     C21357   5.130   6.366   7.468  0.2826  0.6722  0.4158
  920MOL0     N21358   5.587   5.947   7.605  0.4383  0.1025 -0.7650
  920MOL0     N21359   5.502   5.863   7.663 -0.2993  0.0384  0.6313
  920MOL0     C21360   4.402   5.979   8.334 -0.1622 -0.2197  0.4959
  920MOL0     C21361   4.268   5.996   8.376  0.0830  0.0876  0.3900
  920MOL0     C21362   3.811   6.084   8.336 -0.4023  0.3282 -0.2198
  920MOL0     C21363   3.784   5.981   8.434 -0.1997 -0.4644  0.1289
  920MOL0     C21364   3.655   5.937   8.468  1.5972 -0.1403  0.0481
  920MOL0     C21365   3.542   5.993   8.409 -0.1062 -0.6492 -0.5914
  920MOL0     O21366   3.419   5.940   8.455 -0.2609 -0.9401  0.4076
  920MOL0     C21367   3.301   6.011   8.425 -0.0018 -0.5141 -0.5762
  920MOL0     C21368   3.192   5.908   8.432  0.2739  0.0430  0.3151
  920MOL0     C21369   3.049   5.973   8.419  0.2236 -0.5178  0.1874
  920MOL0     C21370   2.934   5.876   8.403 -0.0694 -0.6482  0.2281
  920MOL0     C21371   2.814   5.948   8.357  0.4982  0.0845  0.2192
  920MOL0     C21372   2.712   6.003   8.333 -0.2736 -0.6133  0.3573
  920MOL0     C21373   3.567   6.105   8.318 -0.1572 -0.3519 -0.6601
  920MOL0     C21374   3.697   6.148   8.289 -0.5073  0.0687  0.4084
  920MOL0     H21375   4.142   6.166   8.115  1.4629 -0.5096  0.3185
  920MOL0     H21376   4.377   6.150   8.037  0.0516 -0.3924  0.5686
  920MOL0     H21377   4.595   6.089   7.995 -0.2202  0.1246  0.8080
  920MOL0     H21378   4.541   5.925   7.999 -0.9038 -0.0450 -0.0273
  920MOL0     H21379   4.770   5.846   8.074  2.9349  0.9201  2.3394
  920MOL0     H21380   4.819   6.020   8.075 -0.3962  1.6504 -0.0523
  920MOL0     H21381   4.802   6.043   7.845 -2.0722 -1.5514 -3.4427
  920MOL0     H21382   4.704   5.897   7.827 -1.5025 -1.2026  0.8574
  920MOL0     H21383   5.003   5.951   7.855 -0.1987  1.4087 -0.8399
  920MOL0     H21384   4.956   5.798   7.919  1.3749  1.8706  0.4612
  920MOL0     H21385   4.885   5.894   7.633 -1.6354 -0.0207  1.3090
  920MOL0     H21386   4.830   5.747   7.705 -1.9092  1.3767 -0.7921
  920MOL0     H21387   5.013   5.695   7.581 -0.4855  3.6835 -1.4888
  920MOL0     H21388   5.053   5.680   7.761 -3.0903  0.5180  0.1831
  920MOL0     H21389   5.140   5.928   7.620  0.3906  0.0217  1.5582
  920MOL0     H21390   5.206   5.874   7.761 -2.9266  2.1652  1.3941
  920MOL0     H21391   5.248   5.722   7.503 -2.2250  2.4509  0.2821
  920MOL0     H21392   5.301   5.671   7.665  1.0842  1.0917  2.1382
  920MOL0     H21393   5.347   5.958   7.388 -0.1960  1.3815 -0.0037
  920MOL0     H21394   5.577   6.026   7.287 -1.8545 -0.0770 -0.4106
  920MOL0     H21395   5.712   6.069   7.401 -0.2462  3.7190  0.3128
  920MOL0     H21396   5.619   6.272   7.300 -0.5146 -0.1032 -0.9196
  920MOL0     H21397   5.560   6.274   7.470 -1.8338  1.4970  0.2901
  920MOL0     H21398   5.385   6.132   7.273 -0.9514  0.2309 -0.4096
  920MOL0     H21399   5.361   6.200   7.438 -1.4358 -0.0369 -1.2349
  920MOL0     H21400   5.419   6.369   7.194 -0.2969 -0.7848 -0.2780
  920MOL0     H21401   5.378   6.424   7.353 -2.6525  0.3175 -0.3606
  920MOL0     H21402   5.024   6.201   7.195  0.7685 -1.2640  0.4007
  920MOL0     H21403   4.826   6.176   7.322  1.0496  1.6887 -1.7965
  920MOL0     H21404   4.603   5.886   7.596 -1.8513 -0.0280 -0.7193
  920MOL0     H21405   4.404   5.823   7.742 -2.8038  1.2412  1.2010
  920MOL0     H21406   4.245   5.805   7.872 -0.7893  1.7494  1.3862
  920MOL0     H21407   4.173   5.838   7.713  0.3099  1.6711 -0.9571
  920MOL0     H21408   4.025   5.932   7.959 -1.8885  0.8625 -1.1608
  920MOL0     H21409   4.008   5.766   7.916  1.0742 -0.1965 -0.4220
  920MOL0     H21410   3.928   5.856   7.685 -0.2319  0.6023  0.4740
  920MOL0     H21411   3.986   6.018   7.742 -1.7182  0.6113  2.1454
  920MOL0     H21412   3.744   5.971   7.724  0.6445 -0.7150  1.1789
  920MOL0     H21413   3.749   5.865   7.860 -1.4084 -1.1073 -3.4840
  920MOL0     H21414   3.836   6.166   7.866  2.1250 -0.2855  2.5369
  920MOL0     H21415   3.820   6.049   8.001  0.3119 -3.5908 -0.7925
  920MOL0     H21416   3.605   6.156   7.814  1.6567  3.6244  0.7614
  920MOL0     H21417   3.650   6.219   7.969  0.0783  0.4709  0.0271
  920MOL0     H21418   3.539   5.934   7.906  1.1935 -2.3883  2.9542
  920MOL0     H21419   3.582   5.993   8.063 -2.2240 -0.8092  0.4456
  920MOL0     H21420   3.366   6.117   7.885  3.2137 -1.2883 -1.5575
  920MOL0     H21421   3.400   6.148   8.057  0.4810 -0.5767  0.9445
  920MOL0     H21422   4.331   6.230   7.802 -0.1010  0.4181 -1.0859
  920MOL0     H21423   4.542   6.297   7.713 -0.5061  0.4518 -1.1217
  920MOL0     H21424   5.010   6.398   7.642  0.8970 -0.4786  0.2798
  920MOL0     H21425   5.217   6.419   7.504 -0.8299  2.0390  1.1986
  920MOL0     H21426   4.478   5.935   8.398  1.0092  1.7834  0.5662
  920MOL0     H21427   4.224   5.955   8.466 -3.3282 -0.7284 -1.5012
  920MOL0     H21428   3.866   5.943   8.494 -0.8772 -0.2432  1.2349
  920MOL0     H21429   3.646   5.858   8.543  0.8630 -0.6202 -0.5189
  920MOL0     H21430   3.305   6.054   8.325 -1.8905 -0.5026 -0.6772
  920MOL0     H21431   3.274   6.094   8.491 -4.2287 -1.8260 -0.3337
  920MOL0     H21432   3.191   5.843   8.344  0.5481  0.8505 -0.3027
  920MOL0     H21433   3.199   5.855   8.527 -0.3169  0.6921  0.7295
  920MOL0     H21434   3.056   6.046   8.338  2.4051 -0.3970  0.4189
  920MOL0     H21435   3.030   6.030   8.511  1.1912 -1.0294  0.7181
  920MOL0     H21436   2.953   5.792   8.336 -0.9664 -1.4905  1.0075
  920MOL0     H21437   2.912   5.824   8.496 -3.9771 -0.9315 -0.6869
  920MOL0     H21438   2.610   6.035   8.323 -1.3127 -3.7487 -0.4554
  920MOL0     H21439   3.491   6.169   8.273  0.1845 -1.0535 -2.2924
  920MOL0     H21440   3.706   6.218   8.206  0.8023 -0.8714 -0.2850
  921MOL0     O21441   7.858   5.680   2.060  0.4645 -0.0836 -0.3664
  921MOL0     C21442   7.951   5.661   1.975 -0.5665 -0.5194 -0.4660
  921MOL0     O21443   7.959   5.558   1.886 -0.4726  0.2071 -0.0130
  921MOL0     C21444   7.848   5.481   1.868 -0.4643 -0.6221  0.8051
  921MOL0     C21445   7.797   5.463   1.732  0.5645  0.9073  0.0895
  921MOL0     C21446   7.703   5.369   1.701  0.5485 -0.3894 -0.0702
  921MOL0     C21447   7.634   5.297   1.804 -0.0381 -0.3499  0.5867
  921MOL0     O21448   7.553   5.190   1.787  0.3229 -0.4864 -0.5007
  921MOL0     C21449   7.442   5.214   1.694 -0.1272  0.5686  0.4096
  921MOL0     C21450   7.351   5.089   1.708 -0.0939 -0.2032  0.6111
  921MOL0     C21451   7.230   5.112   1.615 -0.1671  0.0709 -0.1873
  921MOL0     C21452   7.149   4.984   1.630 -0.0007  0.4383 -0.1562
  921MOL0     C21453   7.029   4.975   1.537 -1.0484 -0.1546 -0.1261
  921MOL0     C21454   6.910   5.067   1.567 -0.2342 -0.6180  0.0532
  921MOL0     C21455   6.791   5.070   1.463 -0.3089  0.3226 -0.2502
  921MOL0     C21456   6.759   4.929   1.420  0.4203 -1.2882 -0.6027
  921MOL0     N21457   6.625   4.915   1.348 -0.7613 -0.8836  0.1439
  921MOL0     C21458   6.588   4.989   1.238 -0.3027  0.0723 -0.0683
  921MOL0     C21459   6.464   4.952   1.215  0.5356 -0.5363 -0.4289
  921MOL0     C21460   6.383   5.016   1.101 -0.6636  0.0921 -0.1321
  921MOL0     C21461   6.288   4.908   1.049 -0.1686 -0.3680  0.7178
  921MOL0     C21462   6.214   4.958   0.913  1.5140  0.1062  0.1882
  921MOL0     C21463   6.073   4.902   0.888  0.1814 -0.0356 -0.4784
  921MOL0     O21464   5.999   4.983   0.973  0.0297  0.4498 -0.5175
  921MOL0     C21465   5.876   4.936   0.993  1.0423 -0.6212  0.1235
  921MOL0     C21466   5.829   4.921   1.114  0.0514  0.2967 -0.7030
  921MOL0     C21467   5.691   4.893   1.138 -0.4116  0.3716 -0.2657
  921MOL0     C21468   5.602   4.888   1.031  0.1828  0.3367 -0.8680
  921MOL0     C21469   5.468   4.845   1.047 -0.4558 -0.5467 -0.3531
  921MOL0     O21470   5.382   4.865   0.946 -0.0496  0.4342  0.2150
  921MOL0     C21471   5.285   4.775   0.914 -0.1190  0.2885 -0.6825
  921MOL0     C21472   5.205   4.813   0.816 -0.3459  0.3270 -0.1782
  921MOL0     C21473   5.108   4.731   0.766  0.7004  0.7807 -0.6009
  921MOL0     C21474   5.090   4.599   0.817  0.9617 -0.4548 -0.5108
  921MOL0     O21475   4.993   4.519   0.769 -0.2362 -0.0650 -0.0384
  921MOL0     C21476   4.865   4.542   0.831 -0.3780  0.5317 -0.2988
  921MOL0     C21477   4.859   4.460   0.957 -0.1161  0.3864  0.1996
  921MOL0     C21478   4.719   4.469   1.010 -0.3376  0.0890 -0.1352
  921MOL0     C21479   4.700   4.399   1.142 -0.3745 -0.0394 -0.4703
  921MOL0     C21480   4.568   4.440   1.196  0.3346 -0.1275 -0.6745
  921MOL0     C21481   4.534   4.375   1.336 -0.8888 -1.0652 -0.0484
  921MOL0     C21482   4.616   4.440   1.458  0.4025  0.3947 -0.0667
  921MOL0     C21483   4.618   4.333   1.577  0.4671 -0.7271 -0.1182
  921MOL0    Cl21484   4.754   4.376   1.686 -0.0557  0.3014  0.0750
  921MOL0     C21485   5.183   4.555   0.912  0.1904  0.2039 -0.1908
  921MOL0     C21486   5.281   4.638   0.958 -0.5219  0.7579 -0.5470
  921MOL0     O21487   5.444   4.789   1.151 -0.1593 -0.0395 -0.6883
  921MOL0     C21488   5.653   4.928   0.907  0.7436 -0.2729  0.0392
  921MOL0     C21489   5.788   4.953   0.893  0.1654 -0.0530  0.3443
  921MOL0     N21490   6.429   4.849   1.301  0.3390  0.2454  0.3161
  921MOL0     N21491   6.526   4.828   1.385 -0.1949 -0.3369  0.1112
  921MOL0     C21492   7.678   5.332   1.934  0.2892  0.2469 -0.1625
  921MOL0     C21493   7.791   5.407   1.966 -0.3059 -0.2704  0.3988
  921MOL0     C21494   8.065   5.751   1.988 -0.1313 -0.2629 -0.0379
  921MOL0     C21495   8.084   5.843   2.089 -0.2442  0.3009  0.7248
  921MOL0     C21496   8.193   5.929   2.093  0.2418 -0.0118 -0.9939
  921MOL0     C21497   8.283   5.927   1.998  0.0221  0.4017  0.6079
  921MOL0     O21498   8.381   6.018   2.023  0.6408  0.8050 -0.0294
  921MOL0     C21499   8.503   6.017   1.953 -0.1525  0.6683 -1.3041
  921MOL0     C21500   8.591   5.899   2.007  0.5571 -0.3157  0.2176
  921MOL0     C21501   8.746   5.917   1.968  0.9767 -0.1250 -0.3941
  921MOL0     C21502   8.774   5.884   1.816  0.1445  0.3876 -0.1734
  921MOL0     C21503   8.911   5.898   1.765 -0.4951  0.1688 -0.5814
  921MOL0     C21504   9.023   5.917   1.723 -0.3011  0.0909 -0.2008
  921MOL0     C21505   8.270   5.847   1.884 -0.4046 -0.1940  0.0169
  921MOL0     C21506   8.167   5.754   1.885  0.3317  0.6799 -0.4203
  921MOL0     H21507   7.849   5.499   1.644  0.0240 -1.1113 -1.1309
  921MOL0     H21508   7.672   5.348   1.599 -3.4523 -0.3597  0.9484
  921MOL0     H21509   7.471   5.223   1.589 -0.8162 -1.0368  0.0518
  921MOL0     H21510   7.388   5.299   1.736 -1.9377  0.7766 -2.1329
  921MOL0     H21511   7.319   5.075   1.812 -2.7751  0.0549 -0.0893
  921MOL0     H21512   7.391   4.991   1.679 -0.0822 -0.2653  0.8384
  921MOL0     H21513   7.275   5.114   1.515  0.2595 -3.0614 -0.1776
  921MOL0     H21514   7.178   5.204   1.642  0.2010 -0.3960  2.3758
  921MOL0     H21515   7.204   4.890   1.629 -0.8559 -0.0901  0.7856
  921MOL0     H21516   7.104   4.995   1.729  0.4232  1.7123 -0.0825
  921MOL0     H21517   6.999   4.869   1.539 -1.6519  0.0061  2.1410
  921MOL0     H21518   7.053   5.001   1.433  0.5482  0.5739  0.4095
  921MOL0     H21519   6.942   5.171   1.577 -1.2094 -0.3297  0.2136
  921MOL0     H21520   6.872   5.055   1.668  1.3831 -0.7238  0.6763
  921MOL0     H21521   6.706   5.121   1.510 -1.5913  0.3619 -2.4928
  921MOL0     H21522   6.820   5.124   1.373  1.6113 -1.9100 -1.0777
  921MOL0     H21523   6.771   4.858   1.503 -0.0670 -0.2101  0.4142
  921MOL0     H21524   6.841   4.908   1.351  1.6795  0.9909  0.0983
  921MOL0     H21525   6.642   5.058   1.174  1.0967 -0.6821  0.2654
  921MOL0     H21526   6.448   5.060   1.024 -2.2152  0.0664 -1.5115
  921MOL0     H21527   6.323   5.096   1.145 -0.6191  0.0502  0.0051
  921MOL0     H21528   6.213   4.891   1.127 -1.2729 -1.4579 -0.5306
  921MOL0     H21529   6.332   4.809   1.037 -0.8764 -0.8114  1.6544
  921MOL0     H21530   6.205   5.065   0.897 -1.6348 -0.2455 -1.0467
  921MOL0     H21531   6.279   4.917   0.835  1.8171 -0.2636  0.6298
  921MOL0     H21532   6.066   4.795   0.907 -0.1342 -0.3016 -1.9412
  921MOL0     H21533   6.046   4.910   0.782 -1.7042 -0.5949 -0.0734
  921MOL0     H21534   5.892   4.913   1.201  0.2068 -2.0901 -0.9810
  921MOL0     H21535   5.666   4.869   1.241 -2.7431 -2.0991 -1.2814
  921MOL0     H21536   5.222   4.912   0.774  0.0017 -0.2270 -1.4060
  921MOL0     H21537   5.045   4.764   0.684  0.7107  0.3685 -0.7782
  921MOL0     H21538   4.781   4.514   0.767 -0.9731 -0.1940  0.7698
  921MOL0     H21539   4.851   4.647   0.861 -1.1734  0.0999  0.8804
  921MOL0     H21540   4.921   4.510   1.031 -1.9199  1.9280  0.7607
  921MOL0     H21541   4.891   4.357   0.939  0.7881  0.6512  0.2515
  921MOL0     H21542   4.649   4.426   0.938  0.7795 -1.0492 -0.5867
  921MOL0     H21543   4.692   4.575   1.013  1.3401  0.5904  3.9843
  921MOL0     H21544   4.715   4.291   1.147 -1.5601 -0.1770  3.4154
  921MOL0     H21545   4.772   4.452   1.205  0.7056  2.9663 -3.9102
  921MOL0     H21546   4.486   4.415   1.128  1.1585 -2.0366 -1.0060
  921MOL0     H21547   4.565   4.549   1.206  0.5282 -0.3195  3.0684
  921MOL0     H21548   4.558   4.268   1.333 -0.8767 -1.0474 -1.9682
  921MOL0     H21549   4.430   4.383   1.366 -0.7192  0.5613  0.1693
  921MOL0     H21550   4.718   4.455   1.423 -0.2074  1.8838 -1.3365
  921MOL0     H21551   4.582   4.537   1.494  2.3311  0.8326  0.6695
  921MOL0     H21552   4.637   4.234   1.533  1.6693  1.0002 -3.9255
  921MOL0     H21553   4.524   4.339   1.632 -1.5290  0.8668 -3.4149
  921MOL0     H21554   5.185   4.452   0.945 -1.9269  0.4720  1.0043
  921MOL0     H21555   5.359   4.595   1.020 -0.1077 -0.7915 -2.0907
  921MOL0     H21556   5.597   4.943   0.815  1.2820  0.8402 -0.1291
  921MOL0     H21557   5.834   4.991   0.802  0.1358 -1.0947 -0.1170
  921MOL0     H21558   7.650   5.267   2.015  0.8996 -0.3820 -0.4468
  921MOL0     H21559   7.824   5.427   2.068  0.3367 -1.2509  0.3926
  921MOL0     H21560   8.004   5.867   2.159  0.1369  2.6806  0.4388
  921MOL0     H21561   8.197   6.007   2.168  2.1922  0.2323 -1.2870
  921MOL0     H21562   8.548   6.114   1.976  0.7264  0.1980 -1.0156
  921MOL0     H21563   8.503   6.000   1.845  1.0961 -1.1086 -1.0576
  921MOL0     H21564   8.571   5.896   2.115 -2.1900 -0.3235 -0.2138
  921MOL0     H21565   8.548   5.809   1.963 -1.3336  0.3850  0.5211
  921MOL0     H21566   8.790   5.840   2.033  0.6646 -1.3528 -1.5907
  921MOL0     H21567   8.788   6.015   1.992  0.6516  0.2153 -1.1718
  921MOL0     H21568   8.729   5.787   1.793  0.5264 -0.4505  2.3057
  921MOL0     H21569   8.721   5.956   1.753  1.6865 -0.1406 -2.1946
  921MOL0     H21570   9.124   5.940   1.696 -0.0383 -0.8889 -0.0916
  921MOL0     H21571   8.342   5.850   1.803 -0.9886  0.7745 -0.4784
  921MOL0     H21572   8.169   5.684   1.802  0.1517  0.5981 -0.3562
  922MOL0     O21573   7.382   6.733   1.376  0.2131 -0.3698  0.3771
  922MOL0     C21574   7.459   6.671   1.453 -0.4536 -0.1483  0.0044
  922MOL0     O21575   7.425   6.560   1.532 -0.1318 -0.7916  0.4725
  922MOL0     C21576   7.296   6.511   1.535 -0.3091 -0.3016  0.5794
  922MOL0     C21577   7.222   6.491   1.417 -0.2538 -0.0306 -0.4057
  922MOL0     C21578   7.097   6.437   1.431 -0.2458 -0.4079 -0.3485
  922MOL0     C21579   7.037   6.420   1.560  0.5365 -0.2476  0.4897
  922MOL0     O21580   6.911   6.379   1.588 -0.1743  0.1162  0.1373
  922MOL0     C21581   6.808   6.422   1.493 -0.0828  0.2029 -0.7688
  922MOL0     C21582   6.757   6.311   1.407 -0.1128 -0.4442  1.3232
  922MOL0     C21583   6.625   6.356   1.326  0.6235 -0.2954  0.2199
  922MOL0     C21584   6.525   6.411   1.426 -0.7297  0.4223  0.6412
  922MOL0     C21585   6.385   6.415   1.353  0.3348 -0.6017  0.1299
  922MOL0     C21586   6.279   6.433   1.463 -0.4076  0.5302 -0.7656
  922MOL0     C21587   6.141   6.411   1.414  0.2953 -0.5918  0.0286
  922MOL0     C21588   6.042   6.464   1.519 -0.0472  0.7285  0.8767
  922MOL0     N21589   5.906   6.393   1.498 -0.0184 -0.2850 -0.2427
  922MOL0     C21590   5.839   6.368   1.380  0.0381  0.5034  0.2051
  922MOL0     C21591   5.708   6.356   1.410  0.2699  0.2697 -0.4467
  922MOL0     C21592   5.591   6.346   1.320 -0.1303  0.4693  0.9742
  922MOL0     C21593   5.537   6.494   1.285 -1.2452  0.4426  0.8109
  922MOL0     C21594   5.392   6.484   1.237  0.3981 -1.3591  0.4604
  922MOL0     C21595   5.328   6.624   1.215  0.3329  0.7193  0.5736
  922MOL0     O21596   5.290   6.626   1.073 -0.0570 -0.5283 -0.0443
  922MOL0     C21597   5.263   6.755   1.024 -0.3222 -0.0968 -0.2144
  922MOL0     C21598   5.239   6.768   0.891  0.1397  0.1312 -0.1356
  922MOL0     C21599   5.211   6.888   0.828  0.1506  0.0998 -0.8015
  922MOL0     C21600   5.223   7.007   0.899  0.5569  0.3850 -0.1462
  922MOL0     C21601   5.194   7.136   0.826 -0.3203 -0.1817 -0.1145
  922MOL0     O21602   5.230   7.245   0.897 -0.4821 -1.2820  0.2712
  922MOL0     C21603   5.181   7.368   0.862 -0.5951 -0.6605  0.4477
  922MOL0     C21604   5.069   7.420   0.932  0.2287  0.6250  0.2566
  922MOL0     C21605   5.010   7.543   0.899 -0.5116 -0.3765 -0.1792
  922MOL0     C21606   5.065   7.622   0.799 -0.5624 -0.3764 -0.1125
  922MOL0     O21607   5.009   7.739   0.765  0.3551 -0.3490  0.3058
  922MOL0     C21608   5.096   7.851   0.730 -0.3459  1.1600 -0.6789
  922MOL0     C21609   5.012   7.972   0.707  0.1777  0.5998 -0.1114
  922MOL0     C21610   5.077   8.110   0.685 -0.6424  0.4520  0.7414
  922MOL0     C21611   4.993   8.232   0.715 -0.6504 -0.5851  0.3381
  922MOL0     C21612   5.085   8.351   0.738 -0.5147 -0.1716  0.0207
  922MOL0     C21613   5.011   8.483   0.773 -0.1016  0.0598 -0.2544
  922MOL0     C21614   4.923   8.549   0.666  1.6235  0.2460 -0.1754
  922MOL0     C21615   4.858   8.669   0.733 -0.5996  0.3511 -0.3049
  922MOL0    Cl21616   4.730   8.725   0.626  0.0908 -0.2341 -0.4967
  922MOL0     C21617   5.177   7.571   0.729  0.0491 -0.5544  0.6938
  922MOL0     C21618   5.232   7.444   0.760 -0.3738 -0.1343 -0.1967
  922MOL0     O21619   5.139   7.137   0.715 -0.0286  0.5216 -0.0037
  922MOL0     C21620   5.258   7.003   1.037  0.8073  0.2566 -0.8970
  922MOL0     C21621   5.272   6.879   1.100  0.0673 -0.3120  0.3942
  922MOL0     N21622   5.689   6.377   1.542 -0.0243 -0.2048 -0.0252
  922MOL0     N21623   5.814   6.413   1.589  0.2222  0.3531  0.2696
  922MOL0     C21624   7.117   6.432   1.671  0.6804 -0.5005 -0.2094
  922MOL0     C21625   7.250   6.477   1.659  0.9545 -0.4292  0.2064
  922MOL0     C21626   7.601   6.710   1.447 -0.4980  0.6875  0.0543
  922MOL0     C21627   7.663   6.773   1.336 -0.6954 -0.7548 -0.4505
  922MOL0     C21628   7.793   6.813   1.330 -0.2221  0.3423 -0.2446
  922MOL0     C21629   7.884   6.758   1.423  0.2103  0.1841 -0.3348
  922MOL0     O21630   8.024   6.763   1.421 -0.0652  0.0881 -0.2798
  922MOL0     C21631   8.088   6.784   1.302  0.1095 -0.1578  1.2111
  922MOL0     C21632   8.229   6.756   1.325  0.2904  0.0041 -0.0127
  922MOL0     C21633   8.339   6.815   1.235 -0.3107  0.1039 -1.0802
  922MOL0     C21634   8.479   6.750   1.243  0.0504  0.2890  0.2176
  922MOL0     C21635   8.566   6.800   1.139 -0.1468 -0.4692 -0.8809
  922MOL0     C21636   8.637   6.854   1.057 -0.7281  0.4528 -0.2639
  922MOL0     C21637   7.829   6.688   1.531 -0.0994 -0.4521 -0.0981
  922MOL0     C21638   7.694   6.663   1.540 -0.2188  0.5266  0.0917
  922MOL0     H21639   7.257   6.535   1.324  1.0597  0.5782  0.3491
  922MOL0     H21640   7.045   6.411   1.340  3.4541 -1.0479 -2.4725
  922MOL0     H21641   6.849   6.509   1.442  1.2880  0.7531  1.1693
  922MOL0     H21642   6.732   6.445   1.569  0.7416 -0.6034  0.3369
  922MOL0     H21643   6.739   6.226   1.474 -0.4125 -0.4770  1.2005
  922MOL0     H21644   6.833   6.275   1.337  0.3205  1.9580  0.4457
  922MOL0     H21645   6.579   6.269   1.278  0.5112  0.6205 -1.4099
  922MOL0     H21646   6.646   6.430   1.248 -0.4027  0.7878  0.9408
  922MOL0     H21647   6.507   6.348   1.513 -1.3848  0.3144  0.4339
  922MOL0     H21648   6.547   6.517   1.441 -1.3588  0.8533 -1.1635
  922MOL0     H21649   6.360   6.322   1.301  0.6985 -0.3136 -0.5652
  922MOL0     H21650   6.394   6.492   1.276 -1.1017 -1.6448 -1.1341
  922MOL0     H21651   6.288   6.537   1.496 -0.2950  0.3085 -0.0912
  922MOL0     H21652   6.290   6.358   1.542 -0.7652 -0.8194 -1.9420
  922MOL0     H21653   6.131   6.466   1.320  0.8031 -2.2755 -1.0480
  922MOL0     H21654   6.137   6.304   1.393  0.8838 -0.5665 -0.2155
  922MOL0     H21655   6.033   6.571   1.497  1.1459  0.8174  0.7827
  922MOL0     H21656   6.083   6.445   1.618  0.0419 -1.1355  0.5100
  922MOL0     H21657   5.872   6.378   1.277 -1.3808 -0.5400 -0.3829
  922MOL0     H21658   5.512   6.294   1.374 -1.0252 -2.1863 -2.5092
  922MOL0     H21659   5.618   6.298   1.225 -1.4676 -1.2591  1.4160
  922MOL0     H21660   5.595   6.535   1.202 -0.9680 -1.4903 -0.0148
  922MOL0     H21661   5.549   6.556   1.374  2.5193 -3.2209  3.2685
  922MOL0     H21662   5.378   6.413   1.155  0.3477  0.6955 -1.3978
  922MOL0     H21663   5.334   6.444   1.321 -1.2682 -1.7207 -0.8176
  922MOL0     H21664   5.409   6.694   1.236  0.1797  0.8695  0.6679
  922MOL0     H21665   5.249   6.649   1.287  0.8221 -2.1887  2.2602
  922MOL0     H21666   5.230   6.679   0.828  1.1871  1.5795 -2.4848
  922MOL0     H21667   5.191   6.889   0.721  0.9004 -0.5600 -0.9571
  922MOL0     H21668   5.022   7.358   1.008 -3.3027  3.2159  0.3965
  922MOL0     H21669   4.926   7.587   0.950 -2.1272 -0.2178 -2.7894
  922MOL0     H21670   5.149   7.830   0.637 -3.1470  0.4903 -2.2558
  922MOL0     H21671   5.169   7.873   0.809 -1.8720  0.1473  1.1251
  922MOL0     H21672   4.946   7.975   0.794 -0.3571 -2.1892 -0.3517
  922MOL0     H21673   4.954   7.946   0.618  3.0578 -1.3664 -1.5796
  922MOL0     H21674   5.104   8.119   0.579 -0.6026  0.6631  0.7702
  922MOL0     H21675   5.166   8.114   0.747 -1.0103  0.0209  1.3105
  922MOL0     H21676   4.927   8.256   0.631  0.6281  0.8862 -0.3080
  922MOL0     H21677   4.941   8.215   0.809  1.3792 -1.6714  1.3391
  922MOL0     H21678   5.131   8.364   0.640 -2.3499 -1.1694 -1.0361
  922MOL0     H21679   5.153   8.323   0.819 -2.5363 -2.2651  1.1170
  922MOL0     H21680   5.089   8.559   0.786  1.2263 -1.1241 -1.0560
  922MOL0     H21681   4.957   8.476   0.868  0.3246 -2.2672 -0.1408
  922MOL0     H21682   4.974   8.568   0.572 -0.1042 -0.3373 -1.2776
  922MOL0     H21683   4.844   8.476   0.645  0.2286  1.0702  1.8548
  922MOL0     H21684   4.937   8.742   0.748 -0.4936  0.0227  0.8101
  922MOL0     H21685   4.813   8.642   0.829 -2.5662  0.9589 -1.0067
  922MOL0     H21686   5.222   7.627   0.648 -0.4898  1.7416  1.8984
  922MOL0     H21687   5.312   7.387   0.714 -0.5984 -0.5041 -0.1382
  922MOL0     H21688   5.262   7.090   1.102 -0.4943 -1.7985  2.1262
  922MOL0     H21689   5.300   6.888   1.205  0.4273  1.7017  0.1699
  922MOL0     H21690   7.070   6.423   1.769  1.8642 -1.4706  0.2926
  922MOL0     H21691   7.307   6.485   1.751 -1.1724  0.5939  1.5244
  922MOL0     H21692   7.601   6.800   1.251 -0.6945 -2.3176 -0.9762
  922MOL0     H21693   7.836   6.862   1.243  0.6212  1.0143  0.5199
  922MOL0     H21694   8.072   6.884   1.260 -0.7391 -1.6587 -2.4906
  922MOL0     H21695   8.042   6.716   1.230 -2.2142  0.9422  1.5618
  922MOL0     H21696   8.257   6.784   1.427  2.1670  1.9998 -0.9924
  922MOL0     H21697   8.237   6.649   1.307 -1.2542 -0.0773 -0.4069
  922MOL0     H21698   8.350   6.921   1.261 -3.3736  0.7229 -1.9112
  922MOL0     H21699   8.307   6.799   1.132 -0.0822 -1.2789 -0.9514
  922MOL0     H21700   8.533   6.766   1.337  3.0636 -0.5523 -1.2428
  922MOL0     H21701   8.465   6.642   1.229 -4.2065  0.6992 -0.2125
  922MOL0     H21702   8.700   6.908   0.989  1.2909  0.0643  1.2160
  922MOL0     H21703   7.895   6.662   1.613  4.7809  5.3821 -1.4531
  922MOL0     H21704   7.664   6.611   1.630  1.6536  2.3664  1.9016
  923MOL0     O21705   5.812   7.392  11.195  0.6676  0.1527 -0.1210
  923MOL0     C21706   5.846   7.294  11.129  0.2369 -0.9678  0.5718
  923MOL0     O21707   5.790   7.256  11.009  0.1278  0.3464 -0.8673
  923MOL0     C21708   5.680   7.320  10.957 -0.0935  0.5147 -0.5002
  923MOL0     C21709   5.657   7.298  10.822 -1.1560 -0.1100  1.3975
  923MOL0     C21710   5.553   7.364  10.751  0.4059  0.0303 -0.2538
  923MOL0     C21711   5.465   7.451  10.824  0.6718  0.4131  0.0326
  923MOL0     O21712   5.364   7.527  10.759  0.2016 -0.4778 -0.0890
  923MOL0     C21713   5.301   7.481  10.639  0.0528 -0.3973 -0.7724
  923MOL0     C21714   5.175   7.565  10.602  0.2134 -0.2132  0.5178
  923MOL0     C21715   5.088   7.583  10.727 -0.2693 -0.2074  0.5270
  923MOL0     C21716   4.977   7.687  10.685  0.0249  0.4037 -1.3259
  923MOL0     C21717   4.839   7.649  10.752  0.7337 -0.2801 -0.7179
  923MOL0     C21718   4.849   7.624  10.904 -0.9266  0.2151  0.1834
  923MOL0     C21719   4.737   7.539  10.965 -0.0999  0.2361 -0.0634
  923MOL0     C21720   4.751   7.522  11.118 -0.1675  0.0950 -0.2985
  923MOL0     N21721   4.685   7.630  11.191  0.2614  0.1317  0.4225
  923MOL0     C21722   4.689   7.767  11.178 -0.9826  0.1364  0.8041
  923MOL0     C21723   4.585   7.822  11.247 -0.3949  0.5618 -0.3900
  923MOL0     C21724   4.569   7.966  11.270 -0.2364 -0.8861  0.6220
  923MOL0     C21725   4.522   7.996  11.415  0.2901  0.1967 -0.5790
  923MOL0     C21726   4.550   8.142  11.441  0.2516 -0.2694 -0.2288
  923MOL0     C21727   4.519   8.186  11.579 -0.2671  0.1760 -1.0263
  923MOL0     O21728   4.524   8.328  11.599  0.1861 -0.3750  0.5237
  923MOL0     C21729   4.416   8.393  11.658 -0.1877 -0.0329 -0.8042
  923MOL0     C21730   4.448   8.515  11.714  0.0063  0.0553 -0.7263
  923MOL0     C21731   4.340   8.587  11.768  0.0073  0.2796  0.3173
  923MOL0     C21732   4.209   8.543  11.766  0.5135  0.6442 -0.9385
  923MOL0     C21733   4.102   8.602  11.844 -0.2626  0.4270 -0.8696
  923MOL0     O21734   3.980   8.611  11.780  0.2986  0.0718 -0.7342
  923MOL0     C21735   3.878   8.672  11.847 -0.6199 -0.1999  0.6985
  923MOL0     C21736   3.764   8.597  11.869 -0.1544  0.4809  0.3055
  923MOL0     C21737   3.661   8.662  11.935 -0.5148  0.0173  0.2715
  923MOL0     C21738   3.661   8.796  11.959  0.9466  0.0208  0.0650
  923MOL0     O21739   3.554   8.866  12.011  0.0299  0.3061  1.1587
  923MOL0     C21740   3.462   8.798  12.094  0.4835 -0.5965  0.1310
  923MOL0     C21741   3.349   8.897  12.142 -0.8346  0.0464  0.1989
  923MOL0     C21742   3.268   8.837  12.256  0.4509  0.7239 -0.2406
  923MOL0     C21743   3.165   8.930  12.328  0.2991 -0.5602  0.6181
  923MOL0     C21744   3.083   8.864  12.437  0.0107  0.0561  0.0460
  923MOL0     C21745   2.985   8.952  12.514  0.2172 -0.1490 -0.6729
  923MOL0     C21746   2.905   9.045  12.424  0.5992 -0.3052 -0.9565
  923MOL0     C21747   2.803   9.122  12.503 -0.2738 -0.8527 -0.3149
  923MOL0    Cl21748   2.650   9.015  12.527 -0.5670  0.4751  0.4064
  923MOL0     C21749   3.775   8.863  11.941 -0.2320  0.7800 -0.4757
  923MOL0     C21750   3.888   8.802  11.894  0.7654 -0.7804  0.3754
  923MOL0     O21751   4.132   8.660  11.952  0.7241 -0.0334  0.8626
  923MOL0     C21752   4.187   8.424  11.705 -0.4643 -0.1811 -0.5910
  923MOL0     C21753   4.281   8.350  11.644 -1.1111  0.3166 -0.0381
  923MOL0     N21754   4.511   7.717  11.303  0.2280  0.7409  0.1037
  923MOL0     N21755   4.581   7.608  11.275 -0.7388 -0.2830  0.1497
  923MOL0     C21756   5.479   7.464  10.961  0.2042 -0.1187  0.0872
  923MOL0     C21757   5.586   7.402  11.024 -0.5701  0.1342 -0.5055
  923MOL0     C21758   5.973   7.224  11.169  0.4898  0.1799 -1.0702
  923MOL0     C21759   6.057   7.274  11.273 -0.5379 -0.2228  0.1621
  923MOL0     C21760   6.182   7.214  11.304 -0.2284 -0.4791  0.8407
  923MOL0     C21761   6.223   7.097  11.235 -0.5789  0.5269 -0.4967
  923MOL0     O21762   6.346   7.044  11.240 -0.2239 -0.2764  0.2962
  923MOL0     C21763   6.405   7.019  11.371  0.3570  0.4240  0.1797
  923MOL0     C21764   6.420   6.873  11.383  0.1341  1.0246  0.3780
  923MOL0     C21765   6.527   6.820  11.298 -0.0299  0.0671 -0.5441
  923MOL0     C21766   6.665   6.827  11.366 -0.1936 -0.6828 -0.6015
  923MOL0     C21767   6.752   6.710  11.324  0.9288 -0.0881  0.0428
  923MOL0     C21768   6.810   6.611  11.286  0.1271  0.5818  0.5344
  923MOL0     C21769   6.143   7.046  11.134 -0.2396 -1.1317 -0.1693
  923MOL0     C21770   6.022   7.106  11.103  0.0482  1.1917  0.1103
  923MOL0     H21771   5.717   7.227  10.767 -2.2794  1.3507 -1.9363
  923MOL0     H21772   5.545   7.356  10.643 -0.4386  0.4230 -0.2276
  923MOL0     H21773   5.262   7.379  10.649 -2.0611  0.2421 -1.9851
  923MOL0     H21774   5.368   7.472  10.552  0.0467  2.3080 -1.1322
  923MOL0     H21775   5.123   7.516  10.519  0.9903  0.8713 -0.6530
  923MOL0     H21776   5.204   7.665  10.566 -1.7911 -0.3444 -1.7528
  923MOL0     H21777   5.146   7.616  10.814 -0.7548  0.0233  0.7663
  923MOL0     H21778   5.043   7.484  10.735 -0.4844 -0.1116  0.5275
  923MOL0     H21779   4.999   7.787  10.725  2.2970 -0.7925  0.6172
  923MOL0     H21780   4.958   7.698  10.578 -1.0541  0.7984 -1.1114
  923MOL0     H21781   4.810   7.556  10.702  2.5513 -1.6634  0.6718
  923MOL0     H21782   4.760   7.722  10.735 -0.2056 -0.1756  3.1411
  923MOL0     H21783   4.864   7.718  10.957 -3.0510  0.2597  0.7676
  923MOL0     H21784   4.937   7.560  10.921 -2.4025 -2.4513 -1.3940
  923MOL0     H21785   4.644   7.593  10.945  0.3829  0.9822 -0.3486
  923MOL0     H21786   4.740   7.443  10.911 -1.5493 -0.2199  0.6022
  923MOL0     H21787   4.857   7.520  11.147  0.1795 -0.9937 -1.5280
  923MOL0     H21788   4.706   7.426  11.146  0.5507 -0.3765 -0.6928
  923MOL0     H21789   4.759   7.832  11.127 -1.5278  1.9591  2.2531
  923MOL0     H21790   4.491   8.009  11.208  0.2458 -0.7705  0.0879
  923MOL0     H21791   4.666   8.016  11.258 -0.1842 -0.9193  0.8796
  923MOL0     H21792   4.565   7.926  11.487  0.4663  2.3973  1.5869
  923MOL0     H21793   4.413   7.985  11.425  0.3622  0.0682  0.1237
  923MOL0     H21794   4.652   8.164  11.411  0.0253 -1.2249 -1.8408
  923MOL0     H21795   4.472   8.190  11.380  0.7735 -1.4941 -1.9392
  923MOL0     H21796   4.601   8.145  11.637 -0.4615 -0.6985 -1.3496
  923MOL0     H21797   4.426   8.136  11.610  1.1641 -2.7065 -1.0666
  923MOL0     H21798   4.549   8.554  11.704  0.1782 -0.0541  0.4938
  923MOL0     H21799   4.367   8.679  11.820 -1.4421  0.4870  0.7478
  923MOL0     H21800   3.755   8.494  11.836 -0.3606  0.0622  1.5931
  923MOL0     H21801   3.579   8.597  11.964 -1.2377  0.8289  0.0641
  923MOL0     H21802   3.509   8.750  12.181 -3.0468 -3.4754  0.7220
  923MOL0     H21803   3.414   8.712  12.047 -0.2617 -1.1673  1.8398
  923MOL0     H21804   3.291   8.931  12.056  0.8856  1.4045 -0.4734
  923MOL0     H21805   3.403   8.982  12.184 -1.7925  0.3514  0.8415
  923MOL0     H21806   3.334   8.792  12.331 -0.8277 -2.0886 -0.6945
  923MOL0     H21807   3.216   8.753  12.209  0.6547  0.1027  0.6100
  923MOL0     H21808   3.210   9.016  12.378  0.2139 -0.5546  0.6849
  923MOL0     H21809   3.090   8.972  12.259 -0.8088 -1.6557  1.1210
  923MOL0     H21810   3.158   8.837  12.511 -0.0538 -0.7151 -0.1614
  923MOL0     H21811   3.039   8.770  12.402  1.1504 -0.5687  0.2488
  923MOL0     H21812   3.054   9.018  12.567 -0.1475 -1.5722  1.7277
  923MOL0     H21813   2.909   8.899  12.573 -2.2117  0.1834 -3.2687
  923MOL0     H21814   2.971   9.122  12.384 -1.1220  0.6958 -1.9985
  923MOL0     H21815   2.864   8.996  12.335 -1.0140  1.2437 -1.1140
  923MOL0     H21816   2.788   9.220  12.457  1.0490 -0.3923  0.1853
  923MOL0     H21817   2.842   9.146  12.602  0.1481  1.6557 -1.0213
  923MOL0     H21818   3.782   8.966  11.974  0.0900  1.1869 -1.7562
  923MOL0     H21819   3.977   8.860  11.873  1.8857 -2.5500  0.0124
  923MOL0     H21820   4.087   8.382  11.700  0.1189 -1.5938 -0.9353
  923MOL0     H21821   4.254   8.272  11.575 -3.8395 -0.5971  1.9049
  923MOL0     H21822   5.397   7.518  11.007  0.7568  0.2003  0.7032
  923MOL0     H21823   5.591   7.409  11.132 -0.7444  0.8888 -0.5389
  923MOL0     H21824   6.029   7.368  11.320  1.7663 -0.5064  2.3055
  923MOL0     H21825   6.251   7.257  11.377 -0.9015  2.3493 -0.0408
  923MOL0     H21826   6.335   7.056  11.446 -0.2450 -0.9982  0.3516
  923MOL0     H21827   6.501   7.071  11.368  0.1596  0.7532 -1.7339
  923MOL0     H21828   6.444   6.850  11.487 -0.7820 -3.1932 -0.1563
  923MOL0     H21829   6.328   6.822  11.355  1.6552 -1.3281 -0.6746
  923MOL0     H21830   6.527   6.875  11.204 -1.5945 -1.0437 -1.2360
  923MOL0     H21831   6.505   6.719  11.265  4.4113 -1.1597 -0.3926
  923MOL0     H21832   6.715   6.920  11.339  1.2246 -1.7092 -1.6256
  923MOL0     H21833   6.649   6.840  11.474 -1.9324 -0.8807 -0.7978
  923MOL0     H21834   6.878   6.535  11.253 -0.8748  0.0978 -0.4946
  923MOL0     H21835   6.167   6.952  11.086  0.5365 -2.4132  2.5732
  923MOL0     H21836   5.965   7.041  11.038  1.9775 -1.4375  0.8751
  924MOL0     O21837   8.650  10.711   9.290 -0.4270  0.4602 -0.1074
  924MOL0     C21838   8.648  10.661   9.178 -0.3504  0.0730 -0.4883
  924MOL0     O21839   8.535  10.622   9.118  0.3429  0.9194 -0.5424
  924MOL0     C21840   8.414  10.656   9.171  0.6675  0.3675 -0.1490
  924MOL0     C21841   8.389  10.791   9.191 -0.0594 -0.3660 -0.1974
  924MOL0     C21842   8.263  10.823   9.248 -0.3096 -0.1784  0.2522
  924MOL0     C21843   8.164  10.730   9.268 -0.1048 -0.4191 -0.4733
  924MOL0     O21844   8.051  10.770   9.322 -0.2911  0.2165  0.0732
  924MOL0     C21845   7.932  10.753   9.235  0.1204 -0.5039 -0.2850
  924MOL0     C21846   7.810  10.828   9.297 -0.0409 -1.1814 -0.1079
  924MOL0     C21847   7.688  10.827   9.205 -0.7946  0.3951 -0.1948
  924MOL0     C21848   7.595  10.951   9.219 -0.3258 -0.0044  0.0221
  924MOL0     C21849   7.509  10.974   9.096  0.6048 -0.0017 -0.4328
  924MOL0     C21850   7.415  10.860   9.069  0.0350  0.2630 -0.7587
  924MOL0     C21851   7.318  10.833   9.198 -0.2965 -0.4041  0.1148
  924MOL0     C21852   7.249  10.955   9.260 -0.4419  0.4217  0.0162
  924MOL0     N21853   7.135  10.986   9.164  0.5954  0.5413 -0.5763
  924MOL0     C21854   7.132  11.087   9.071 -0.1409 -0.2437 -0.4434
  924MOL0     C21855   7.005  11.086   9.016 -0.3334 -0.3969 -0.9389
  924MOL0     C21856   6.960  11.169   8.902 -0.4770 -0.4627  0.0265
  924MOL0     C21857   7.026  11.101   8.770  0.7878  0.0039 -0.6040
  924MOL0     C21858   6.980  11.164   8.639  0.3023 -0.4514 -0.5918
  924MOL0     C21859   6.839  11.128   8.598  0.5071 -0.2910 -0.0173
  924MOL0     O21860   6.785  11.221   8.504 -0.2910 -0.3285 -0.6133
  924MOL0     C21861   6.663  11.195   8.453 -0.5062  0.0560  0.1675
  924MOL0     C21862   6.595  11.071   8.447 -0.2670 -0.4872 -0.4650
  924MOL0     C21863   6.479  11.063   8.375 -0.2197 -0.2178  0.7390
  924MOL0     C21864   6.416  11.184   8.327  0.7218  0.3427  0.1476
  924MOL0     C21865   6.284  11.175   8.268 -0.4911 -0.3088 -0.3112
  924MOL0     O21866   6.253  11.277   8.193  0.0983 -0.4224  0.4427
  924MOL0     C21867   6.117  11.288   8.148 -0.7799  0.9253 -0.8920
  924MOL0     C21868   6.029  11.365   8.227  0.2829 -0.8558 -0.1842
  924MOL0     C21869   5.898  11.394   8.180 -0.1494 -0.1474  0.1998
  924MOL0     C21870   5.851  11.342   8.055 -0.7498 -0.5774 -0.3051
  924MOL0     O21871   5.724  11.373   8.009 -0.3743  0.4395 -0.0796
  924MOL0     C21872   5.684  11.347   7.877  0.4730 -0.1957 -0.5233
  924MOL0     C21873   5.537  11.377   7.868 -0.3199 -0.1439  0.8546
  924MOL0     C21874   5.482  11.342   7.731 -0.2352 -0.6853 -0.2801
  924MOL0     C21875   5.338  11.370   7.733 -0.1036 -0.0123  0.2941
  924MOL0     C21876   5.296  11.401   7.588  0.1980  0.0548  0.4296
  924MOL0     C21877   5.145  11.384   7.568 -0.2890 -0.1441 -0.7628
  924MOL0     C21878   5.110  11.444   7.432 -0.2965  0.5773  0.0834
  924MOL0     C21879   4.977  11.403   7.387  0.4070  0.7526 -0.0591
  924MOL0    Cl21880   4.852  11.461   7.488  0.4557  0.1608  0.1641
  924MOL0     C21881   5.935  11.261   7.986 -0.0630  0.5075  0.4012
  924MOL0     C21882   6.065  11.227   8.034 -0.7196 -0.3316 -0.4924
  924MOL0     O21883   6.210  11.086   8.307 -0.5810 -0.3484  0.1275
  924MOL0     C21884   6.472  11.309   8.342 -0.0957  0.4607  0.3549
  924MOL0     C21885   6.598  11.312   8.398  0.2782  0.3470 -0.5507
  924MOL0     N21886   6.928  10.987   9.085 -0.0207 -0.0769 -0.2368
  924MOL0     N21887   7.007  10.939   9.172 -0.1016 -0.5808 -0.3364
  924MOL0     C21888   8.188  10.594   9.237 -0.1487 -0.6831  0.5222
  924MOL0     C21889   8.314  10.561   9.187 -0.4625 -0.3084 -0.0533
  924MOL0     C21890   8.776  10.637   9.113 -0.0985  0.0672  0.0295
  924MOL0     C21891   8.800  10.549   9.011 -0.1326  0.5345 -0.4168
  924MOL0     C21892   8.930  10.526   8.956  0.3676 -0.1521 -0.5126
  924MOL0     C21893   9.045  10.589   9.014  0.7618 -0.5599 -0.2124
  924MOL0     O21894   9.178  10.564   8.983 -0.3840 -0.3404 -0.7873
  924MOL0     C21895   9.209  10.471   8.876 -0.6183 -0.6913  0.2654
  924MOL0     C21896   9.358  10.461   8.853  0.8015 -0.4239 -0.8550
  924MOL0     C21897   9.449  10.432   8.972 -0.2244  0.3317  0.0912
  924MOL0     C21898   9.593  10.418   8.920 -0.1585  0.3412 -0.4500
  924MOL0     C21899   9.630  10.275   8.901  0.1133  0.0945 -0.1146
  924MOL0     C21900   9.652  10.157   8.885 -0.0602 -0.2721 -0.0799
  924MOL0     C21901   9.025  10.679   9.121 -0.1113 -0.5620 -0.0306
  924MOL0     C21902   8.890  10.706   9.165  0.5115  0.2529 -0.2547
  924MOL0     H21903   8.464  10.864   9.163 -0.1089 -0.1002  0.3525
  924MOL0     H21904   8.244  10.928   9.268  0.5978  0.3399 -1.4729
  924MOL0     H21905   7.913  10.647   9.214  0.0474 -0.3366 -1.1401
  924MOL0     H21906   7.949  10.799   9.137  3.7566  2.7492  1.5977
  924MOL0     H21907   7.839  10.933   9.306  1.5416 -1.5955 -0.0531
  924MOL0     H21908   7.793  10.779   9.393  2.7395 -1.8844  0.1181
  924MOL0     H21909   7.640  10.731   9.223  0.7828 -0.5772 -0.9126
  924MOL0     H21910   7.724  10.816   9.102  0.5790  0.8916  0.2062
  924MOL0     H21911   7.532  10.939   9.308 -2.2795 -0.3197 -1.3357
  924MOL0     H21912   7.657  11.040   9.227 -3.5343  2.5768 -1.3404
  924MOL0     H21913   7.572  10.993   9.009  2.2335 -0.0285  0.6973
  924MOL0     H21914   7.455  11.069   9.100  1.7851  0.7219 -1.0066
  924MOL0     H21915   7.472  10.767   9.069  1.2285  0.9281  1.7359
  924MOL0     H21916   7.356  10.867   8.977 -0.4276 -0.6386 -0.5403
  924MOL0     H21917   7.244  10.765   9.154  0.9619  0.2471 -3.3535
  924MOL0     H21918   7.378  10.786   9.276  0.6797  1.9505  0.8848
  924MOL0     H21919   7.309  11.046   9.266 -0.8390  0.6441  0.6980
  924MOL0     H21920   7.202  10.928   9.356 -0.6263 -3.2887 -0.9422
  924MOL0     H21921   7.208  11.162   9.054 -0.9872  0.9530  0.8745
  924MOL0     H21922   6.996  11.271   8.912 -2.7168  0.3788  0.1897
  924MOL0     H21923   6.850  11.170   8.894 -0.3823 -0.4766 -1.7429
  924MOL0     H21924   6.998  10.995   8.779  2.9287 -0.4932  1.2748
  924MOL0     H21925   7.134  11.119   8.774  0.5092  2.0726 -1.6978
  924MOL0     H21926   6.977  11.274   8.638 -3.7676 -0.3879 -1.0475
  924MOL0     H21927   7.052  11.119   8.571  1.5521 -0.5532  0.7736
  924MOL0     H21928   6.762  11.133   8.675 -0.9475 -0.6720 -1.4163
  924MOL0     H21929   6.840  11.025   8.559 -0.3488 -0.1549 -0.4150
  924MOL0     H21930   6.631  10.977   8.488 -0.1484  0.3948  1.5823
  924MOL0     H21931   6.437  10.965   8.354 -0.0491 -0.1192 -0.1088
  924MOL0     H21932   6.063  11.390   8.327  0.3450 -2.5780  0.2534
  924MOL0     H21933   5.824  11.443   8.242 -1.6653 -1.4935 -0.4509
  924MOL0     H21934   5.705  11.242   7.854  1.7051 -0.5648  1.9502
  924MOL0     H21935   5.746  11.404   7.807  0.9562 -1.3909 -1.0892
  924MOL0     H21936   5.517  11.481   7.895  0.5659  0.0905  0.6487
  924MOL0     H21937   5.483  11.311   7.936 -0.4011  0.3226  1.2426
  924MOL0     H21938   5.488  11.235   7.707 -1.5915 -0.9194  0.3117
  924MOL0     H21939   5.529  11.396   7.648 -2.0842 -2.5021 -2.6541
  924MOL0     H21940   5.296  11.278   7.774 -0.2946  0.0158  0.1647
  924MOL0     H21941   5.303  11.458   7.788  0.0893  0.2203  0.0488
  924MOL0     H21942   5.339  11.322   7.526  0.8294 -0.4015  1.4255
  924MOL0     H21943   5.327  11.504   7.567 -0.6307 -0.1189 -2.0491
  924MOL0     H21944   5.093  11.440   7.646  0.2935  1.1474 -1.2704
  924MOL0     H21945   5.124  11.277   7.567 -3.3200  0.3883 -1.5222
  924MOL0     H21946   5.108  11.554   7.439  1.8968  0.8215 -1.9698
  924MOL0     H21947   5.183  11.432   7.352  1.6986  0.2664  1.8523
  924MOL0     H21948   4.973  11.295   7.372 -0.5872  0.7921 -0.1359
  924MOL0     H21949   4.961  11.454   7.291 -2.7427 -0.7785 -0.4834
  924MOL0     H21950   5.916  11.231   7.883 -1.4924  1.9120  0.2078
  924MOL0     H21951   6.131  11.161   7.979  1.5070  1.6259 -0.3581
  924MOL0     H21952   6.421  11.403   8.325  1.1290  1.2182  0.8043
  924MOL0     H21953   6.653  11.404   8.417 -0.5019  1.8725 -4.7343
  924MOL0     H21954   8.109  10.523   9.260 -1.3223 -0.1886 -1.6691
  924MOL0     H21955   8.326  10.459   9.150 -4.0422 -1.2034  0.8539
  924MOL0     H21956   8.724  10.484   8.968  1.2611 -0.8287 -0.9028
  924MOL0     H21957   8.933  10.453   8.876 -3.4188 -1.5358  0.3683
  924MOL0     H21958   9.144  10.501   8.794 -3.4445 -1.9650  1.8935
  924MOL0     H21959   9.176  10.368   8.895  1.9457 -1.5987  0.2384
  924MOL0     H21960   9.368  10.380   8.780  0.0879  0.2420 -1.7206
  924MOL0     H21961   9.385  10.552   8.798 -0.5001  0.7094  0.3139
  924MOL0     H21962   9.409  10.346   9.026 -0.1443 -0.9859 -1.8144
  924MOL0     H21963   9.452  10.518   9.038 -0.8326 -0.9212  1.8272
  924MOL0     H21964   9.597  10.453   8.817  1.0777 -0.2265 -0.6059
  924MOL0     H21965   9.667  10.471   8.981 -0.4657  0.5258 -0.2372
  924MOL0     H21966   9.690  10.059   8.862 -2.7928 -1.6016  0.6199
  924MOL0     H21967   9.098  10.746   9.166 -2.2900  0.4738  2.1992
  924MOL0     H21968   8.878  10.771   9.251 -0.6233 -0.6663  0.2935
  925MOL0     O21969   8.794   4.402   1.805  0.3798 -0.6887  0.2250
  925MOL0     C21970   8.822   4.491   1.881  0.5652  0.2736  0.3286
  925MOL0     O21971   8.731   4.552   1.966 -0.1212  0.3014 -0.0413
  925MOL0     C21972   8.595   4.504   1.969  0.3007  0.0109 -0.6425
  925MOL0     C21973   8.538   4.482   2.097  0.3436 -0.2182  0.1162
  925MOL0     C21974   8.402   4.458   2.107  0.8285 -0.5669 -1.2830
  925MOL0     C21975   8.325   4.440   1.994 -0.0869  0.5549 -0.4671
  925MOL0     O21976   8.191   4.408   2.005  0.5079  0.5670  0.7370
  925MOL0     C21977   8.123   4.404   2.138 -0.0274 -0.1202  0.2160
  925MOL0     C21978   7.973   4.425   2.121  0.0539 -0.0461  0.3947
  925MOL0     C21979   7.895   4.395   2.255 -0.0985 -0.0962 -0.0651
  925MOL0     C21980   7.739   4.390   2.236  0.1643  0.6393  0.2265
  925MOL0     C21981   7.688   4.516   2.153 -0.3429 -1.5071  0.6079
  925MOL0     C21982   7.538   4.533   2.156  0.0722  0.0171 -0.6315
  925MOL0     C21983   7.465   4.407   2.124  0.4995  0.4799 -0.5204
  925MOL0     C21984   7.315   4.434   2.111 -0.4773 -0.2925  0.3104
  925MOL0     N21985   7.240   4.327   2.041 -0.4947  0.4290  1.1080
  925MOL0     C21986   7.171   4.340   1.922  0.0238 -0.7299  0.2568
  925MOL0     C21987   7.090   4.233   1.918  0.1967  0.5718 -0.8255
  925MOL0     C21988   7.010   4.190   1.795  0.1760  0.4001 -0.0243
  925MOL0     C21989   6.866   4.236   1.792  0.1901  0.0445 -0.0822
  925MOL0     C21990   6.777   4.182   1.909  0.0551 -0.3960  0.7383
  925MOL0     C21991   6.627   4.211   1.874 -0.0481 -0.3445  0.1993
  925MOL0     O21992   6.543   4.136   1.965  0.3374  0.6297  0.2390
  925MOL0     C21993   6.407   4.161   1.975  0.2705  0.5509 -0.3428
  925MOL0     C21994   6.328   4.096   2.064 -0.2822 -0.3807 -0.3809
  925MOL0     C21995   6.189   4.121   2.078 -0.4910 -0.3932 -0.2778
  925MOL0     C21996   6.111   4.185   1.983  0.0639  0.4195  0.1638
  925MOL0     C21997   5.968   4.201   2.009 -0.8791 -0.1352 -0.0179
  925MOL0     O21998   5.906   4.287   1.922 -0.3781  0.4287 -0.3306
  925MOL0     C21999   5.769   4.324   1.919 -0.5275  0.1065  0.1295
  925MOL0     C22000   5.727   4.404   1.811  0.4273  0.1629 -0.3551
  925MOL0     C22001   5.604   4.463   1.800  0.1903 -0.0382  0.4518
  925MOL0     C22002   5.514   4.441   1.898  0.2494 -0.2604 -0.1923
  925MOL0     O22003   5.397   4.511   1.880 -0.5397 -0.3244 -0.0837
  925MOL0     C22004   5.273   4.447   1.900  0.2329 -0.2766  0.1415
  925MOL0     C22005   5.183   4.462   1.784 -0.5632  0.8186  0.3051
  925MOL0     C22006   5.156   4.609   1.770  0.3244 -0.3327  0.2490
  925MOL0     C22007   5.031   4.624   1.678 -0.0189  0.1771  0.1840
  925MOL0     C22008   5.009   4.769   1.633  0.0067 -0.2542  0.7231
  925MOL0     C22009   4.897   4.809   1.544  1.0705 -0.2950  0.2295
  925MOL0     C22010   4.910   4.748   1.407  0.2716  0.8053 -0.1921
  925MOL0     C22011   4.795   4.778   1.309 -0.4834 -0.3983  0.6003
  925MOL0    Cl22012   4.741   4.952   1.327  0.6181  0.1427  0.4966
  925MOL0     C22013   5.540   4.353   2.003 -0.7899  0.1289 -0.3345
  925MOL0     C22014   5.671   4.295   2.012 -0.3094  0.7056 -0.6635
  925MOL0     O22015   5.915   4.146   2.102 -0.4675  0.0598 -0.6975
  925MOL0     C22016   6.191   4.243   1.888  0.4845  0.2210  0.7748
  925MOL0     C22017   6.329   4.232   1.883 -0.0419 -0.4465 -0.3218
  925MOL0     N22018   7.107   4.156   2.029  0.3690  0.3711 -0.2494
  925MOL0     N22019   7.191   4.220   2.108 -0.1123  0.2081  0.5875
  925MOL0     C22020   8.387   4.457   1.869  0.9248  0.6294  0.3652
  925MOL0     C22021   8.519   4.494   1.857 -0.2663  0.2894 -0.2334
  925MOL0     C22022   8.965   4.526   1.885  0.3591 -0.1225  0.3193
  925MOL0     C22023   9.029   4.599   1.996  0.2853  0.6856 -0.2727
  925MOL0     C22024   9.163   4.642   1.975  0.9031  0.5063 -1.1104
  925MOL0     C22025   9.234   4.601   1.864  0.1159  0.1319  0.1529
  925MOL0     O22026   9.373   4.617   1.838  0.6742  0.1012 -0.1830
  925MOL0     C22027   9.454   4.610   1.952 -0.0186  0.1988  0.4049
  925MOL0     C22028   9.594   4.580   1.907 -0.3429 -0.7254  0.3527
  925MOL0     C22029   9.697   4.636   2.005  0.0874 -1.2239 -0.0775
  925MOL0     C22030   9.841   4.602   1.962 -0.0495  0.0900 -0.0448
  925MOL0     C22031   9.889   4.665   1.840 -0.1723  0.6151 -0.4358
  925MOL0     C22032   9.937   4.726   1.749 -0.5217  0.3488  0.6799
  925MOL0     C22033   9.174   4.525   1.768  0.2835 -0.2071  0.3622
  925MOL0     C22034   9.045   4.490   1.773 -0.0904 -0.4791 -0.0068
  925MOL0     H22035   8.598   4.516   2.181 -0.3360  2.9561 -0.5366
  925MOL0     H22036   8.353   4.454   2.204 -1.0965 -0.7074 -2.2185
  925MOL0     H22037   8.154   4.479   2.211 -1.4988 -0.5274  1.2948
  925MOL0     H22038   8.129   4.304   2.183 -1.0419  0.0358  0.7333
  925MOL0     H22039   7.940   4.354   2.044  3.1279 -1.5110  0.2948
  925MOL0     H22040   7.962   4.531   2.096  2.4119  0.1806  0.1111
  925MOL0     H22041   7.924   4.472   2.327 -0.7667  2.2612 -2.1781
  925MOL0     H22042   7.925   4.297   2.292  3.1324  0.4925 -0.7990
  925MOL0     H22043   7.716   4.302   2.176  0.7897  1.4200 -1.1796
  925MOL0     H22044   7.686   4.393   2.332 -0.1110  0.4633  0.0835
  925MOL0     H22045   7.728   4.511   2.051 -1.4297  0.8614 -0.0086
  925MOL0     H22046   7.731   4.609   2.193 -1.1834 -1.7636  2.1645
  925MOL0     H22047   7.509   4.604   2.078 -1.8159  0.8990  0.7942
  925MOL0     H22048   7.512   4.571   2.255  1.6177 -2.1270  0.6899
  925MOL0     H22049   7.508   4.364   2.033  1.7451  2.2884 -0.8422
  925MOL0     H22050   7.472   4.340   2.210  0.1130  1.1747  0.0680
  925MOL0     H22051   7.297   4.527   2.056  2.3434 -0.0035 -0.2516
  925MOL0     H22052   7.274   4.451   2.211  0.4841  1.3791  0.4390
  925MOL0     H22053   7.182   4.413   1.842 -0.7784 -0.9245 -0.0441
  925MOL0     H22054   7.008   4.081   1.785  1.6399  0.4130 -0.8221
  925MOL0     H22055   7.063   4.223   1.705 -0.1659 -2.7201 -1.5246
  925MOL0     H22056   6.817   4.200   1.701  3.1746 -2.6881 -0.7780
  925MOL0     H22057   6.866   4.345   1.784  0.9374 -0.1088 -3.5873
  925MOL0     H22058   6.808   4.077   1.908  1.8034 -0.0057 -3.1491
  925MOL0     H22059   6.794   4.228   2.007 -1.7732 -0.7398  1.2478
  925MOL0     H22060   6.604   4.171   1.775 -0.7214 -0.2409  0.3098
  925MOL0     H22061   6.609   4.319   1.871  1.1429 -0.1290  0.4538
  925MOL0     H22062   6.377   4.037   2.141  0.7082  1.0207  0.0948
  925MOL0     H22063   6.141   4.096   2.172  2.5436  2.5979  2.3338
  925MOL0     H22064   5.794   4.418   1.727  1.3426 -1.7331  0.0194
  925MOL0     H22065   5.576   4.526   1.716 -0.1421 -2.7710 -1.6431
  925MOL0     H22066   5.235   4.501   1.987  1.7153 -0.8485  1.1799
  925MOL0     H22067   5.293   4.344   1.928  2.6053  0.0984  0.0400
  925MOL0     H22068   5.091   4.406   1.801 -1.3420  1.6020 -1.1073
  925MOL0     H22069   5.236   4.416   1.700  0.0861 -1.4560  1.8697
  925MOL0     H22070   5.250   4.650   1.733 -1.8828  2.9983 -2.2514
  925MOL0     H22071   5.120   4.662   1.858 -0.7894 -0.6921  0.0269
  925MOL0     H22072   5.047   4.559   1.592  1.5585  1.8119 -0.8364
  925MOL0     H22073   4.941   4.603   1.737  0.1355  0.7591  0.6421
  925MOL0     H22074   5.104   4.787   1.581  1.0789 -0.9092  2.3687
  925MOL0     H22075   4.993   4.829   1.724  0.1097 -1.7735  1.7748
  925MOL0     H22076   4.897   4.918   1.547  0.9589 -0.2358 -1.2917
  925MOL0     H22077   4.802   4.772   1.585  0.8685 -1.3139 -1.0996
  925MOL0     H22078   5.008   4.778   1.370  1.5516 -0.4016  1.9661
  925MOL0     H22079   4.920   4.639   1.410  0.1021  0.7264 -1.7081
  925MOL0     H22080   4.709   4.713   1.328 -0.7561 -0.5036 -0.8344
  925MOL0     H22081   4.829   4.771   1.205  0.2843  1.7875  0.6557
  925MOL0     H22082   5.473   4.315   2.079  0.8081 -1.7756  0.2264
  925MOL0     H22083   5.703   4.227   2.091  0.6529  1.2255 -0.5833
  925MOL0     H22084   6.147   4.299   1.806  0.0920 -2.7085 -1.1880
  925MOL0     H22085   6.384   4.275   1.800 -0.1305  2.0491  0.8273
  925MOL0     H22086   8.331   4.435   1.778  0.6902  1.6283  0.2597
  925MOL0     H22087   8.562   4.495   1.757  1.8780  0.5050  0.6363
  925MOL0     H22088   8.970   4.615   2.085 -1.2865 -1.2819 -0.8788
  925MOL0     H22089   9.213   4.703   2.050  0.7710  1.7669 -2.0009
  925MOL0     H22090   9.427   4.526   2.016 -3.2989 -0.0375 -1.0547
  925MOL0     H22091   9.441   4.700   2.013 -2.3151  1.3431 -1.6040
  925MOL0     H22092   9.598   4.472   1.892 -0.5403 -0.8973  1.4591
  925MOL0     H22093   9.621   4.627   1.811 -2.4423 -1.0339 -0.4369
  925MOL0     H22094   9.690   4.597   2.107 -0.2825 -2.8087 -0.6904
  925MOL0     H22095   9.680   4.744   1.994 -1.3735 -1.4737 -0.4199
  925MOL0     H22096   9.908   4.626   2.045  2.2294 -0.0261 -1.7647
  925MOL0     H22097   9.847   4.493   1.960 -0.8112  0.0186  0.8732
  925MOL0     H22098  10.005   4.764   1.676 -1.2198 -0.4492 -0.4040
  925MOL0     H22099   9.228   4.490   1.681 -2.4298  0.7572 -1.8670
  925MOL0     H22100   9.008   4.432   1.689 -0.8702  0.2768 -0.1963
  926MOL0     O22101   7.254  11.039   3.676 -0.8277 -0.2041 -0.0658
  926MOL0     C22102   7.291  11.106   3.581 -0.4257 -0.7897 -1.3974
  926MOL0     O22103   7.247  11.096   3.451 -0.1869 -0.3327 -0.4810
  926MOL0     C22104   7.148  11.002   3.423  0.0897 -0.0558 -0.9124
  926MOL0     C22105   7.014  11.045   3.436  0.5062 -0.6296  0.8240
  926MOL0     C22106   6.911  10.960   3.402  0.7735 -0.1991 -0.6277
  926MOL0     C22107   6.926  10.821   3.376 -0.3897  0.1655 -0.5631
  926MOL0     O22108   6.819  10.751   3.341  0.2046 -0.2394  0.2085
  926MOL0     C22109   6.826  10.631   3.274 -0.1024  0.5318 -1.0595
  926MOL0     C22110   6.687  10.582   3.286  0.1248 -1.4121  0.1573
  926MOL0     C22111   6.659  10.452   3.213 -0.0915  0.5993 -0.0503
  926MOL0     C22112   6.510  10.425   3.223 -0.6867 -0.1339 -0.4256
  926MOL0     C22113   6.467  10.382   3.367 -0.3061 -0.9661 -0.2026
  926MOL0     C22114   6.337  10.448   3.412  0.5041  0.3365 -0.1297
  926MOL0     C22115   6.224  10.431   3.305 -0.2004  0.0289 -0.4520
  926MOL0     C22116   6.197  10.287   3.261 -0.1042 -0.3995  0.8958
  926MOL0     N22117   6.110  10.216   3.359 -0.3240 -0.6588  0.3019
  926MOL0     C22118   5.969  10.223   3.367 -0.7568 -0.2272 -0.0991
  926MOL0     C22119   5.947  10.156   3.485  1.0322  0.6636 -0.1160
  926MOL0     C22120   5.806  10.147   3.539 -0.3183  0.0180  0.5489
  926MOL0     C22121   5.722  10.057   3.452 -0.1085 -1.0464 -0.2809
  926MOL0     C22122   5.611   9.985   3.525  0.5134 -0.4840  0.1887
  926MOL0     C22123   5.511  10.091   3.570  0.0896 -0.5068 -0.0863
  926MOL0     O22124   5.396  10.015   3.608  0.7580 -0.2227  0.6880
  926MOL0     C22125   5.270  10.077   3.642 -0.2403 -0.3568  1.0198
  926MOL0     C22126   5.150  10.012   3.625  0.1786 -0.7881 -0.8991
  926MOL0     C22127   5.028  10.074   3.646 -0.4235 -0.7871 -0.6531
  926MOL0     C22128   5.034  10.214   3.692  0.4673 -0.1081 -1.0285
  926MOL0     C22129   4.910  10.292   3.716  0.1496 -0.0266  0.4119
  926MOL0     O22130   4.907  10.409   3.776 -0.2696  0.0750  0.2895
  926MOL0     C22131   4.790  10.462   3.814  0.1544  0.1599 -0.1444
  926MOL0     C22132   4.669  10.467   3.740 -0.1721  0.8146  0.0770
  926MOL0     C22133   4.550  10.525   3.787 -0.0825 -0.4715  0.3572
  926MOL0     C22134   4.548  10.567   3.918  0.0383  0.3525  0.3806
  926MOL0     O22135   4.429  10.615   3.984 -0.2762  0.2755 -0.0455
  926MOL0     C22136   4.301  10.571   3.934 -0.3379 -0.3610 -0.0593
  926MOL0     C22137   4.275  10.427   3.963  0.3043 -0.6338 -0.3303
  926MOL0     C22138   4.126  10.381   3.941 -0.9947 -0.6344 -0.2988
  926MOL0     C22139   4.049  10.442   4.060  0.2467  0.5415  0.0689
  926MOL0     C22140   3.903  10.378   4.068  0.3086  0.7758  0.6069
  926MOL0     C22141   3.799  10.424   4.168  0.0911 -0.4344  0.2827
  926MOL0     C22142   3.781  10.575   4.168  0.1551 -1.2398 -0.5302
  926MOL0     C22143   3.666  10.607   4.256  0.0412  0.1306 -0.0779
  926MOL0    Cl22144   3.600  10.771   4.236  0.2017 -0.0968 -0.2170
  926MOL0     C22145   4.659  10.565   3.994  0.3320  0.1243 -0.8080
  926MOL0     C22146   4.780  10.506   3.951 -0.9026  0.5080 -1.0113
  926MOL0     O22147   4.810  10.235   3.681 -0.2759 -0.5398  0.5071
  926MOL0     C22148   5.154  10.280   3.700  0.5996  0.0929 -0.2768
  926MOL0     C22149   5.270  10.212   3.684 -0.4144  0.3407  0.4651
  926MOL0     N22150   6.069  10.120   3.535 -0.4557 -0.3075  0.3616
  926MOL0     N22151   6.158  10.144   3.456 -0.2748 -0.2476  0.3843
  926MOL0     C22152   7.068  10.784   3.375 -0.4202  0.4070  0.3073
  926MOL0     C22153   7.171  10.869   3.408  0.4934 -0.1049 -0.8010
  926MOL0     C22154   7.397  11.204   3.604 -0.1203  0.1482 -0.5889
  926MOL0     C22155   7.482  11.238   3.496 -0.6556  0.4726 -0.0733
  926MOL0     C22156   7.598  11.314   3.516  0.8270  1.0799 -0.1166
  926MOL0     C22157   7.642  11.356   3.635  0.9299 -0.8278 -0.3730
  926MOL0     O22158   7.761  11.418   3.634  0.5012  0.2029 -0.7600
  926MOL0     C22159   7.816  11.423   3.768 -0.2612 -0.3940 -0.2226
  926MOL0     C22160   7.963  11.458   3.762 -0.1548 -0.2320 -0.1203
  926MOL0     C22161   7.979  11.603   3.721 -0.5385 -0.9186 -0.3028
  926MOL0     C22162   8.120  11.642   3.674 -0.0391  0.6830  0.7127
  926MOL0     C22163   8.140  11.783   3.647 -0.5396  0.4254 -0.8492
  926MOL0     C22164   8.153  11.895   3.613 -0.0391 -0.2324  0.2110
  926MOL0     C22165   7.565  11.318   3.747  0.3812 -0.2928 -0.5720
  926MOL0     C22166   7.444  11.237   3.736 -0.1093  0.4341  0.1425
  926MOL0     H22167   7.000  11.149   3.461 -1.2222 -0.4765 -0.6244
  926MOL0     H22168   6.807  10.992   3.397  0.6625 -0.6904 -1.7127
  926MOL0     H22169   6.886  10.554   3.324 -0.2063  0.6449 -0.7598
  926MOL0     H22170   6.855  10.633   3.168  0.5475 -0.5715 -0.9186
  926MOL0     H22171   6.626  10.664   3.247  1.6463 -0.8866 -1.2776
  926MOL0     H22172   6.653  10.575   3.390  1.7616 -0.3886  0.7998
  926MOL0     H22173   6.714  10.369   3.256 -0.6961  1.6179  2.9175
  926MOL0     H22174   6.689  10.462   3.108 -2.9230  0.5811 -0.9486
  926MOL0     H22175   6.452  10.514   3.195 -1.1071 -0.4181 -0.4619
  926MOL0     H22176   6.486  10.347   3.150 -1.3261 -0.7091  0.3901
  926MOL0     H22177   6.541  10.407   3.444  0.1934  0.3820 -1.0914
  926MOL0     H22178   6.463  10.273   3.372 -1.4504 -0.9907 -1.0981
  926MOL0     H22179   6.365  10.551   3.438  0.6686  0.7682 -1.8790
  926MOL0     H22180   6.296  10.407   3.504 -0.4294  2.6134  0.5436
  926MOL0     H22181   6.128  10.471   3.339 -0.6241  0.9227 -2.5062
  926MOL0     H22182   6.245  10.486   3.212  1.4375 -1.4913 -1.0417
  926MOL0     H22183   6.286  10.224   3.255 -1.5665 -2.6731  1.3221
  926MOL0     H22184   6.136  10.273   3.171  1.2526  1.4826 -0.3984
  926MOL0     H22185   5.898  10.262   3.295 -1.9475 -1.1311  0.5420
  926MOL0     H22186   5.765  10.249   3.545 -0.9548 -0.2850  1.6433
  926MOL0     H22187   5.808  10.109   3.642  0.5453  1.2773  1.0264
  926MOL0     H22188   5.786   9.979   3.409  0.6723 -0.5537 -0.0322
  926MOL0     H22189   5.686  10.118   3.369 -0.9160  0.9005  1.4029
  926MOL0     H22190   5.566   9.904   3.467  1.7513 -1.4799  0.5594
  926MOL0     H22191   5.646   9.944   3.621 -1.2328  0.1898  1.1509
  926MOL0     H22192   5.490  10.173   3.500  0.0929 -0.5853 -0.1797
  926MOL0     H22193   5.554  10.148   3.653 -1.6847  2.6544 -1.1641
  926MOL0     H22194   5.156   9.910   3.590  2.0553 -0.3534 -1.9986
  926MOL0     H22195   4.934  10.024   3.625 -0.1742 -0.3189 -3.1657
  926MOL0     H22196   4.672  10.427   3.639 -0.9985 -0.7861  0.6491
  926MOL0     H22197   4.464  10.520   3.721 -1.0674 -0.3969  1.6005
  926MOL0     H22198   4.293  10.600   3.828  2.4296  1.4946  0.1282
  926MOL0     H22199   4.227  10.631   3.987 -0.1100 -1.1936  1.2528
  926MOL0     H22200   4.294  10.395   4.066 -4.9613 -1.5219  0.6453
  926MOL0     H22201   4.340  10.365   3.901 -1.6781 -3.2551  0.0844
  926MOL0     H22202   4.130  10.272   3.952  1.2282 -0.5726  0.1250
  926MOL0     H22203   4.092  10.411   3.842 -0.6472  1.7044  0.2388
  926MOL0     H22204   4.095  10.414   4.156 -0.4180  1.0634  0.5434
  926MOL0     H22205   4.057  10.550   4.053  1.1820  0.3745 -2.5598
  926MOL0     H22206   3.905  10.270   4.087 -6.3223  0.2579  0.4843
  926MOL0     H22207   3.859  10.385   3.968  0.3637  0.3657  0.5502
  926MOL0     H22208   3.821  10.387   4.268 -2.1424 -1.6147  0.4150
  926MOL0     H22209   3.708  10.365   4.154  0.2469 -0.9416  1.3276
  926MOL0     H22210   3.879  10.611   4.202  0.3058 -2.2270  0.0991
  926MOL0     H22211   3.756  10.616   4.070 -2.2134  0.5320  0.7104
  926MOL0     H22212   3.700  10.591   4.359  0.1715 -0.5804 -0.2225
  926MOL0     H22213   3.585  10.535   4.239 -0.7476  1.4351 -2.2215
  926MOL0     H22214   4.660  10.598   4.098  4.0486 -0.1491 -0.6013
  926MOL0     H22215   4.874  10.509   4.004 -0.5308  2.8458 -1.6838
  926MOL0     H22216   5.154  10.386   3.723  0.2508 -0.0647  0.4960
  926MOL0     H22217   5.361  10.270   3.684 -2.0760  3.3376 -2.9686
  926MOL0     H22218   7.108  10.685   3.355  2.2471  1.5604 -0.4305
  926MOL0     H22219   7.276  10.842   3.408  0.9752  1.5967 -1.6976
  926MOL0     H22220   7.459  11.198   3.398  1.1399 -3.4429  0.9082
  926MOL0     H22221   7.655  11.346   3.429  1.0752 -2.1370 -1.2688
  926MOL0     H22222   7.798  11.328   3.819 -2.7984 -0.4950 -1.1407
  926MOL0     H22223   7.755  11.497   3.820 -1.0859 -0.2427 -1.3554
  926MOL0     H22224   8.015  11.442   3.857  2.1898  1.8711 -0.9517
  926MOL0     H22225   8.020  11.404   3.685  2.5292  2.5823 -0.3092
  926MOL0     H22226   7.964  11.667   3.808 -1.2385  0.4648 -1.3982
  926MOL0     H22227   7.895  11.624   3.654 -2.8815  1.0466  2.9839
  926MOL0     H22228   8.188  11.604   3.751 -0.8745  0.2431  1.2497
  926MOL0     H22229   8.144  11.597   3.578  0.2365  3.5873 -0.6936
  926MOL0     H22230   8.188  11.978   3.555  2.9992 -0.6433  1.2483
  926MOL0     H22231   7.585  11.346   3.849 -2.7201  1.7093 -0.3679
  926MOL0     H22232   7.385  11.190   3.815  2.1231 -1.7251  0.6658
  927MOL0     O22233   7.135   5.428   8.808  0.4100  0.3471 -0.0400
  927MOL0     C22234   7.169   5.319   8.864 -0.5535 -0.4448 -0.0284
  927MOL0     O22235   7.088   5.229   8.927  0.2430 -0.8514 -0.4214
  927MOL0     C22236   6.953   5.267   8.940  0.4230 -0.0132  0.5310
  927MOL0     C22237   6.856   5.174   8.885  0.2744 -0.1948 -1.0632
  927MOL0     C22238   6.718   5.208   8.889  0.9716  0.0050 -0.0949
  927MOL0     C22239   6.674   5.332   8.946 -0.9579  0.0602  0.4855
  927MOL0     O22240   6.535   5.365   8.938 -0.0257  0.2630 -0.2983
  927MOL0     C22241   6.489   5.505   8.952 -0.7361  0.0006 -0.2208
  927MOL0     C22242   6.338   5.491   8.952  0.0653 -0.1458  0.2075
  927MOL0     C22243   6.273   5.616   8.988 -0.1914  0.0513  0.4328
  927MOL0     C22244   6.133   5.616   8.966  0.3309 -0.3405  0.4469
  927MOL0     C22245   6.078   5.753   9.011  0.5442 -0.4026 -0.5536
  927MOL0     C22246   5.925   5.753   9.027  0.5366 -0.4646 -0.3925
  927MOL0     C22247   5.860   5.804   8.887 -0.1404  0.0480 -0.2317
  927MOL0     C22248   5.805   5.956   8.874 -0.6014  0.2038  0.1649
  927MOL0     N22249   5.687   5.963   8.963  0.7579  0.6973 -0.0329
  927MOL0     C22250   5.573   5.894   8.938 -0.3711 -0.0542  0.1688
  927MOL0     C22251   5.488   5.919   9.038  0.0211  0.7926 -1.4852
  927MOL0     C22252   5.350   5.866   9.044 -0.4755  0.1651  0.7719
  927MOL0     C22253   5.263   5.939   9.135 -0.0505 -0.1508 -0.2310
  927MOL0     C22254   5.113   5.873   9.129  0.3136 -0.9760 -0.1749
  927MOL0     C22255   5.046   5.907   8.999  0.5979 -0.8044  0.6771
  927MOL0     O22256   5.023   5.778   8.933 -0.0921  0.4754  0.2129
  927MOL0     C22257   4.927   5.689   8.976 -0.6249 -0.0097  0.3480
  927MOL0     C22258   4.792   5.721   8.968 -0.2365  0.4142 -0.3614
  927MOL0     C22259   4.686   5.637   8.984 -0.6035  0.4569 -0.3075
  927MOL0     C22260   4.717   5.503   9.026 -0.4431 -0.1567 -0.9522
  927MOL0     C22261   4.603   5.408   9.047 -0.8195  0.4320 -0.4734
  927MOL0     O22262   4.483   5.447   9.001  0.2694  0.1271 -0.1187
  927MOL0     C22263   4.364   5.413   9.059 -0.8060 -0.2540 -0.5742
  927MOL0     C22264   4.256   5.382   8.982 -0.2566 -1.0132  0.3798
  927MOL0     C22265   4.124   5.382   9.030 -0.2786  0.4880  0.1376
  927MOL0     C22266   4.112   5.400   9.167 -0.6447 -0.6967 -0.2522
  927MOL0     O22267   3.992   5.415   9.234 -0.6815 -0.3103  0.4286
  927MOL0     C22268   3.866   5.373   9.181 -0.2545  0.3415  1.0793
  927MOL0     C22269   3.741   5.407   9.277 -0.1535  0.1517 -0.2817
  927MOL0     C22270   3.611   5.371   9.221  0.1311 -0.0492 -0.0895
  927MOL0     C22271   3.502   5.428   9.310 -0.0245  0.2295 -0.2802
  927MOL0     C22272   3.373   5.342   9.298 -0.6040 -0.7624 -0.2300
  927MOL0     C22273   3.257   5.394   9.385 -0.1636  0.2615 -0.4609
  927MOL0     C22274   3.134   5.313   9.378  0.0661  0.2459  0.4734
  927MOL0     C22275   3.109   5.256   9.235  0.2150  0.3193  0.3326
  927MOL0    Cl22276   2.954   5.169   9.240  0.2860 -0.0834 -0.0289
  927MOL0     C22277   4.214   5.429   9.255  0.3830 -0.4350  0.6973
  927MOL0     C22278   4.344   5.433   9.201 -0.2084 -0.4800 -0.4590
  927MOL0     O22279   4.619   5.314   9.127  0.3425  1.1689  0.1020
  927MOL0     C22280   4.852   5.467   9.033 -0.0580 -0.8613  0.2233
  927MOL0     C22281   4.958   5.549   8.994  0.4885 -0.2059  0.3356
  927MOL0     N22282   5.559   5.998   9.134 -0.7635 -0.4138 -0.2367
  927MOL0     N22283   5.679   6.016   9.090  0.0063  0.3088 -0.0285
  927MOL0     C22284   6.768   5.413   9.019 -0.5509 -0.1815  0.2236
  927MOL0     C22285   6.911   5.381   9.010  0.2263  0.3221 -1.7574
  927MOL0     C22286   7.313   5.283   8.863 -0.3352 -0.4551 -0.4821
  927MOL0     C22287   7.408   5.387   8.836 -0.5433  0.3770  0.5301
  927MOL0     C22288   7.548   5.359   8.829 -0.0257  0.1795  0.2080
  927MOL0     C22289   7.591   5.221   8.839  0.3856  0.7266 -0.3283
  927MOL0     O22290   7.721   5.202   8.802 -0.0529  0.4018 -0.3233
  927MOL0     C22291   7.769   5.067   8.811  0.2948  0.1259 -0.0521
  927MOL0     C22292   7.916   5.066   8.855 -0.7092  0.2876  0.8655
  927MOL0     C22293   7.947   4.920   8.907 -0.2440  0.5597 -0.1410
  927MOL0     C22294   8.098   4.893   8.931 -0.3815 -0.0611 -0.1541
  927MOL0     C22295   8.174   4.919   8.803  0.4162 -0.8433  0.0387
  927MOL0     C22296   8.250   4.920   8.709  0.3247  0.2322 -0.6597
  927MOL0     C22297   7.494   5.129   8.867  0.2854  0.5768  0.2517
  927MOL0     C22298   7.355   5.152   8.887  0.7229  0.1040  0.7790
  927MOL0     H22299   6.883   5.089   8.823  1.0407 -0.7557  0.0050
  927MOL0     H22300   6.634   5.150   8.853 -1.8712  2.6032  1.8871
  927MOL0     H22301   6.521   5.569   8.870  0.4168  0.9550  0.9255
  927MOL0     H22302   6.522   5.558   9.042 -1.2519  0.3652 -0.2453
  927MOL0     H22303   6.301   5.404   9.006 -2.2103  0.0976 -0.8272
  927MOL0     H22304   6.310   5.464   8.849  2.9297 -1.8590 -0.2416
  927MOL0     H22305   6.314   5.700   8.931 -2.3603  1.7606  1.2485
  927MOL0     H22306   6.302   5.639   9.091  0.2120  2.3115 -0.1352
  927MOL0     H22307   6.110   5.607   8.860  0.6749  0.0252  0.3393
  927MOL0     H22308   6.081   5.536   9.020 -2.3963  0.2056 -1.1639
  927MOL0     H22309   6.119   5.828   8.942 -0.6936  1.4482  0.6459
  927MOL0     H22310   6.110   5.774   9.113 -0.8881 -0.8891  0.0226
  927MOL0     H22311   5.889   5.820   9.105  0.2434  0.1000 -0.9985
  927MOL0     H22312   5.883   5.654   9.048 -0.9475 -0.3099 -2.3003
  927MOL0     H22313   5.924   5.779   8.802 -1.8575  1.9949 -2.2544
  927MOL0     H22314   5.776   5.734   8.877 -0.6317  0.2691  1.9570
  927MOL0     H22315   5.783   5.974   8.768  0.0669 -2.0777 -0.4188
  927MOL0     H22316   5.891   6.017   8.902 -0.6567 -0.1097  1.0366
  927MOL0     H22317   5.553   5.827   8.855  1.9446 -1.4530  0.6341
  927MOL0     H22318   5.364   5.765   9.083  2.8901  0.3582  0.3448
  927MOL0     H22319   5.310   5.847   8.944 -2.6850 -2.7545  2.0527
  927MOL0     H22320   5.253   6.039   9.092 -0.6664 -0.7825 -1.6335
  927MOL0     H22321   5.299   5.947   9.238 -0.1680  2.0647 -0.3066
  927MOL0     H22322   5.124   5.765   9.147  0.6552 -0.7726  0.9293
  927MOL0     H22323   5.046   5.911   9.207  2.1521 -2.8028  2.4659
  927MOL0     H22324   5.098   5.975   8.931  0.1674  0.1417  1.2804
  927MOL0     H22325   4.957   5.966   9.021 -0.5410 -1.6794 -1.2566
  927MOL0     H22326   4.760   5.823   8.952  2.3568  2.1231  3.6574
  927MOL0     H22327   4.583   5.664   8.966 -1.7340 -2.6886  0.7532
  927MOL0     H22328   4.274   5.376   8.875 -1.4620  1.7117 -0.0486
  927MOL0     H22329   4.039   5.364   8.965  0.7586  2.4250 -1.8882
  927MOL0     H22330   3.870   5.264   9.167 -2.2799  0.4865 -1.2244
  927MOL0     H22331   3.859   5.406   9.077  4.6810 -1.4429 -0.1494
  927MOL0     H22332   3.734   5.515   9.296  2.3700  0.9600 -3.1946
  927MOL0     H22333   3.746   5.347   9.369 -0.2401 -1.5961 -1.3699
  927MOL0     H22334   3.621   5.262   9.221  0.1210 -0.0511 -0.1816
  927MOL0     H22335   3.613   5.417   9.122  0.1280  5.2331  2.0807
  927MOL0     H22336   3.537   5.429   9.414 -0.1760 -2.0305 -0.1468
  927MOL0     H22337   3.480   5.529   9.276  0.5621  0.2998 -0.4515
  927MOL0     H22338   3.402   5.241   9.329  2.7431 -0.3493 -1.5894
  927MOL0     H22339   3.339   5.337   9.195 -2.5876 -3.1929  0.4562
  927MOL0     H22340   3.237   5.498   9.359 -2.6485  0.0018  0.1275
  927MOL0     H22341   3.279   5.391   9.492  0.6852  0.8446 -0.6127
  927MOL0     H22342   3.129   5.229   9.448 -1.8369 -0.1878 -0.1323
  927MOL0     H22343   3.052   5.380   9.403  0.2935  0.8392 -0.3380
  927MOL0     H22344   3.184   5.178   9.218 -0.7039 -0.5623  0.1953
  927MOL0     H22345   3.104   5.326   9.151 -1.0195  0.3806  0.4477
  927MOL0     H22346   4.192   5.455   9.358 -0.5882 -0.2822  0.4602
  927MOL0     H22347   4.430   5.458   9.261  0.1431 -1.1625 -0.6639
  927MOL0     H22348   4.873   5.363   9.057 -0.1457  0.1084  5.8763
  927MOL0     H22349   5.062   5.518   9.003  0.7821  1.1166  2.0748
  927MOL0     H22350   6.726   5.500   9.068  0.6713 -0.4393  1.8292
  927MOL0     H22351   6.989   5.444   9.050  3.1203 -3.1512 -1.4200
  927MOL0     H22352   7.373   5.489   8.823 -0.1187  0.3927 -0.6412
  927MOL0     H22353   7.631   5.427   8.812  0.3435 -0.6917 -1.8110
  927MOL0     H22354   7.742   5.003   8.726 -1.1092  0.6589 -0.0438
  927MOL0     H22355   7.726   5.014   8.897  1.9782 -2.1728 -0.5362
  927MOL0     H22356   7.969   5.096   8.765 -1.1993 -0.6831  0.2365
  927MOL0     H22357   7.931   5.139   8.936 -3.4238  0.0595  1.6646
  927MOL0     H22358   7.911   4.857   8.826 -1.4778 -0.6886  1.3090
  927MOL0     H22359   7.893   4.890   8.998 -2.6601  0.9880 -1.3459
  927MOL0     H22360   8.127   4.959   9.014 -3.0775  0.0391  0.8098
  927MOL0     H22361   8.117   4.791   8.966 -1.9731 -0.4054 -0.2152
  927MOL0     H22362   8.327   4.906   8.636 -0.7308 -1.4998 -1.5020
  927MOL0     H22363   7.519   5.025   8.888  0.7857  0.1026 -2.2952
  927MOL0     H22364   7.284   5.071   8.897  1.8811 -1.3463 -1.7575
  928MOL0     O22365   0.327   9.564   4.953 -0.3117 -0.0236 -0.2694
  928MOL0     C22366   0.343   9.651   4.868 -0.3969  0.5705 -0.1608
  928MOL0     O22367   0.250   9.723   4.808  0.3856  0.3563  0.7898
  928MOL0     C22368   0.123   9.718   4.854  0.4466 -0.1700 -0.3740
  928MOL0     C22369   0.078   9.726   4.988  0.0357 -0.0852 -0.6236
  928MOL0     C22370  -0.061   9.741   5.023 -0.2370 -0.6282  0.8316
  928MOL0     C22371  -0.152   9.757   4.922  0.1088  0.1887 -0.6160
  928MOL0     O22372  -0.285   9.793   4.942 -0.5200  0.5334  1.0295
  928MOL0     C22373  -0.343   9.814   5.066 -0.0239  0.7223  0.2984
  928MOL0     C22374  -0.497   9.813   5.047  0.2739  0.1989 -0.3299
  928MOL0     C22375  -0.571   9.764   5.175  0.0010 -0.7516 -1.0172
  928MOL0     C22376  -0.716   9.784   5.162  0.3281 -0.0051 -0.6253
  928MOL0     C22377  -0.797   9.749   5.284 -0.8048  0.7088 -0.0180
  928MOL0     C22378  -0.958   9.751   5.255 -0.9042 -0.4576  0.0810
  928MOL0     C22379  -1.004   9.903   5.226 -0.4739  0.8645  0.4656
  928MOL0     C22380  -1.158   9.918   5.206 -1.3613  0.7539  0.4358
  928MOL0     N22381  -1.222   9.845   5.088 -0.9551 -0.3800  0.0271
  928MOL0     C22382  -1.350   9.805   5.079 -0.1630  0.6232  0.4888
  928MOL0     C22383  -1.354   9.732   4.962 -0.0246 -0.1537 -0.7226
  928MOL0     C22384  -1.469   9.647   4.923  0.5356  0.1713  0.9435
  928MOL0     C22385  -1.581   9.729   4.869 -0.1232 -0.8967  0.0354
  928MOL0     C22386  -1.704   9.642   4.832  0.4511 -0.3932  0.5447
  928MOL0     C22387  -1.796   9.696   4.726 -0.3984 -0.0545  0.2296
  928MOL0     O22388  -1.884   9.598   4.680  0.8985 -0.0675 -0.4392
  928MOL0     C22389  -1.989   9.575   4.766 -0.8107 -0.2841  0.0106
  928MOL0     C22390  -1.981   9.475   4.861 -1.2663 -0.1335  0.1352
  928MOL0     C22391  -2.086   9.444   4.942 -0.0226  0.6026  0.6882
  928MOL0     C22392  -2.213   9.506   4.925 -0.9279 -0.1727  0.2757
  928MOL0     C22393  -2.320   9.472   5.022 -0.1974 -0.3148 -0.5322
  928MOL0     O22394  -2.433   9.538   5.007  0.2890  0.6285 -0.1669
  928MOL0     C22395  -2.540   9.496   5.084 -1.0753 -0.7501 -0.7395
  928MOL0     C22396  -2.638   9.407   5.017  0.1943  0.5232  0.2591
  928MOL0     C22397  -2.757   9.369   5.083 -0.3760  1.0983  0.4195
  928MOL0     C22398  -2.782   9.420   5.215  0.0766 -0.1476 -0.1300
  928MOL0     O22399  -2.897   9.383   5.282 -0.6135 -0.6732 -0.3860
  928MOL0     C22400  -3.015   9.450   5.238  0.4027  0.1192  0.1203
  928MOL0     C22401  -3.127   9.409   5.325  0.5305  0.0662 -0.0801
  928MOL0     C22402  -3.185   9.268   5.297 -0.0715  0.4998 -0.2257
  928MOL0     C22403  -3.091   9.149   5.325 -0.9625  0.3137 -0.5971
  928MOL0     C22404  -3.175   9.017   5.316 -0.1174  0.8642  0.0294
  928MOL0     C22405  -3.078   8.900   5.337 -0.0954  0.8131 -0.1470
  928MOL0     C22406  -3.037   8.893   5.485 -0.3788 -0.4341 -0.8335
  928MOL0     C22407  -2.961   8.768   5.523  0.0744 -0.6675  0.3473
  928MOL0    Cl22408  -2.921   8.781   5.698 -0.4290  0.4425 -0.2758
  928MOL0     C22409  -2.694   9.507   5.269  0.9201 -0.1254 -0.6893
  928MOL0     C22410  -2.575   9.543   5.213  0.3327 -0.5221  0.4061
  928MOL0     O22411  -2.294   9.395   5.115  0.1968  0.1963 -0.1843
  928MOL0     C22412  -2.231   9.606   4.823  0.2113  0.1905  0.0633
  928MOL0     C22413  -2.120   9.627   4.738 -0.1665  0.6515 -0.5893
  928MOL0     N22414  -1.233   9.764   4.896 -0.0279  0.4302  0.7630
  928MOL0     N22415  -1.167   9.842   4.967  0.3437 -0.2522  0.1433
  928MOL0     C22416  -0.112   9.749   4.786 -0.3173  0.2564 -0.4500
  928MOL0     C22417   0.026   9.729   4.753 -0.3294  0.4187 -0.0068
  928MOL0     C22418   0.479   9.659   4.813  0.5998  0.1330 -0.3810
  928MOL0     C22419   0.582   9.597   4.885  0.1555  0.2640  0.1605
  928MOL0     C22420   0.712   9.612   4.836 -0.3019 -0.0188  0.8126
  928MOL0     C22421   0.729   9.693   4.712 -0.5046 -0.5729 -1.5934
  928MOL0     O22422   0.846   9.731   4.660 -0.2505  0.4338  0.6139
  928MOL0     C22423   0.966   9.649   4.700 -0.3490  0.1395 -0.0750
  928MOL0     C22424   1.085   9.658   4.595  0.0770 -0.6361  1.0773
  928MOL0     C22425   1.159   9.786   4.583  0.3779  0.3812 -0.2232
  928MOL0     C22426   1.264   9.767   4.471  0.0491  0.3265  0.1884
  928MOL0     C22427   1.358   9.879   4.470  0.2086 -0.5361 -0.2730
  928MOL0     C22428   1.413   9.984   4.482  0.2142 -0.6588  0.1940
  928MOL0     C22429   0.620   9.759   4.647 -0.8464  0.0904  0.7407
  928MOL0     C22430   0.502   9.742   4.705  0.3566  0.1325  1.0174
  928MOL0     H22431   0.149   9.704   5.067 -3.3495 -3.0741  1.9419
  928MOL0     H22432  -0.077   9.749   5.130  1.5967  2.0065  1.0006
  928MOL0     H22433  -0.306   9.903   5.118  0.2034 -0.4625  2.2656
  928MOL0     H22434  -0.314   9.731   5.131  0.9276  2.3636  2.0732
  928MOL0     H22435  -0.528   9.744   4.968  2.2390 -1.0342 -0.1013
  928MOL0     H22436  -0.528   9.914   5.020  0.0922  0.2348  0.0194
  928MOL0     H22437  -0.532   9.814   5.264 -0.3500  0.0787 -1.3198
  928MOL0     H22438  -0.554   9.657   5.191 -1.2583 -0.6410  1.5218
  928MOL0     H22439  -0.732   9.890   5.140 -1.8501  0.2608  1.7997
  928MOL0     H22440  -0.746   9.721   5.077 -0.9180  1.0965 -1.0370
  928MOL0     H22441  -0.768   9.812   5.369  2.8314 -0.1550 -0.4314
  928MOL0     H22442  -0.765   9.648   5.312  1.8233  1.9123  1.7725
  928MOL0     H22443  -1.011   9.709   5.340  0.2291 -1.1033  0.5017
  928MOL0     H22444  -0.985   9.679   5.177 -0.6569 -0.4803  0.0124
  928MOL0     H22445  -0.977   9.963   5.313 -0.8681  2.0545 -0.2082
  928MOL0     H22446  -0.953   9.937   5.136  0.7181  1.0522  1.1894
  928MOL0     H22447  -1.171  10.027   5.209  3.5448  1.5690  0.5706
  928MOL0     H22448  -1.193   9.872   5.299 -1.7449  1.7067  0.7711
  928MOL0     H22449  -1.420   9.813   5.161  1.7320 -2.4579  2.6288
  928MOL0     H22450  -1.504   9.590   5.010 -2.3792  0.9391  0.3671
  928MOL0     H22451  -1.434   9.585   4.840 -2.4913  0.7146 -0.8686
  928MOL0     H22452  -1.542   9.777   4.779 -0.5848  0.8059  0.7209
  928MOL0     H22453  -1.609   9.804   4.942  0.1891 -0.8059  0.0614
  928MOL0     H22454  -1.681   9.537   4.812 -1.6105 -1.2488  2.2116
  928MOL0     H22455  -1.757   9.629   4.927 -2.6122  0.1803 -0.9607
  928MOL0     H22456  -1.735   9.715   4.637 -0.2029 -2.7246 -0.3013
  928MOL0     H22457  -1.847   9.781   4.773  0.2733  0.1268  0.6553
  928MOL0     H22458  -1.886   9.423   4.857 -1.6878 -0.8643 -1.2595
  928MOL0     H22459  -2.072   9.367   5.017 -1.4790 -2.0939 -1.6374
  928MOL0     H22460  -2.639   9.357   4.921 -1.3537 -2.0700  1.4935
  928MOL0     H22461  -2.830   9.298   5.046  2.5832 -1.7047 -0.5342
  928MOL0     H22462  -3.031   9.431   5.131  2.6746 -1.1953 -0.0596
  928MOL0     H22463  -3.004   9.557   5.254 -0.8445  0.4858 -1.2232
  928MOL0     H22464  -3.208   9.482   5.314  0.0848 -0.1772  1.4225
  928MOL0     H22465  -3.096   9.420   5.429  1.6938 -1.3542 -0.2373
  928MOL0     H22466  -3.209   9.257   5.191 -2.6993 -2.7443  0.5367
  928MOL0     H22467  -3.276   9.244   5.353  2.2418 -1.8570  2.8450
  928MOL0     H22468  -3.009   9.145   5.252  0.0788  2.3799  0.3694
  928MOL0     H22469  -3.049   9.171   5.424 -1.6607  4.5537 -1.0759
  928MOL0     H22470  -3.214   9.014   5.214  0.3536  0.8758 -0.1501
  928MOL0     H22471  -3.261   9.006   5.383 -1.3923  2.2408 -1.3051
  928MOL0     H22472  -2.986   8.902   5.277  1.1662  0.8273  1.6897
  928MOL0     H22473  -3.127   8.807   5.309  0.1078  0.2910  1.1268
  928MOL0     H22474  -2.970   8.979   5.499 -0.4559 -0.7859  2.5434
  928MOL0     H22475  -3.120   8.909   5.554  0.3328  2.6123 -0.5237
  928MOL0     H22476  -2.873   8.763   5.458  0.0482 -0.9513  0.3330
  928MOL0     H22477  -3.029   8.684   5.506  1.2374 -1.4102 -0.7629
  928MOL0     H22478  -2.729   9.557   5.359 -0.7296 -1.0944 -0.7508
  928MOL0     H22479  -2.511   9.614   5.264 -1.0205  0.2045  1.1490
  928MOL0     H22480  -2.317   9.667   4.797 -0.4306 -0.1942  1.2168
  928MOL0     H22481  -2.126   9.692   4.652  0.4569  0.5156 -0.7416
  928MOL0     H22482  -0.177   9.743   4.699 -0.7776  1.2323 -0.1879
  928MOL0     H22483   0.041   9.737   4.646 -1.3143  1.6689 -0.0717
  928MOL0     H22484   0.572   9.536   4.975  3.6600 -1.7541 -0.6382
  928MOL0     H22485   0.802   9.568   4.879  1.4047  0.4648 -2.0305
  928MOL0     H22486   0.942   9.544   4.718  0.4336  0.2007  1.6006
  928MOL0     H22487   1.005   9.695   4.792  1.2957  0.9023 -1.1148
  928MOL0     H22488   1.153   9.574   4.608 -1.1478 -2.0045 -0.8754
  928MOL0     H22489   1.046   9.644   4.494 -1.7084 -2.4521  1.9668
  928MOL0     H22490   1.203   9.815   4.679 -0.1838 -2.3466  0.9385
  928MOL0     H22491   1.103   9.875   4.551  1.6809  0.9156 -1.1233
  928MOL0     H22492   1.318   9.674   4.492  0.7923  0.5383 -0.7247
  928MOL0     H22493   1.216   9.752   4.374 -0.7495 -2.3157  0.8915
  928MOL0     H22494   1.467  10.077   4.492 -0.4162 -0.3157  0.4325
  928MOL0     H22495   0.632   9.823   4.561 -1.0053  0.2283  0.8216
  928MOL0     H22496   0.422   9.803   4.663  0.5657 -0.7932 -0.8578
  929MOL0     O22497   8.312  10.973   0.227 -0.0655  0.3502 -0.7658
  929MOL0     C22498   8.397  10.883   0.236  0.0466  0.6418  0.2822
  929MOL0     O22499   8.362  10.757   0.209 -0.1134  0.3778  0.0484
  929MOL0     C22500   8.245  10.694   0.251 -0.0580  0.5894 -0.1272
  929MOL0     C22501   8.255  10.557   0.296  0.2513  0.4968  1.4283
  929MOL0     C22502   8.141  10.494   0.339  0.7078 -0.0080  0.2273
  929MOL0     C22503   8.019  10.555   0.352 -0.0289 -0.4778 -0.0078
  929MOL0     O22504   7.915  10.483   0.394  0.5147  0.5728 -0.2023
  929MOL0     C22505   7.785  10.532   0.367 -0.3818 -0.4097  0.5932
  929MOL0     C22506   7.692  10.411   0.400 -0.9753  0.7386 -0.2174
  929MOL0     C22507   7.545  10.449   0.357 -0.8546 -0.3553  1.0816
  929MOL0     C22508   7.446  10.339   0.381  0.1014 -0.4493  0.6130
  929MOL0     C22509   7.305  10.387   0.419  0.1218  0.6137  0.2426
  929MOL0     C22510   7.211  10.278   0.458 -0.7494  0.5675 -0.7930
  929MOL0     C22511   7.083  10.316   0.539 -0.6143 -0.8821  0.3069
  929MOL0     C22512   7.003  10.417   0.456 -0.2060 -0.2165 -1.0193
  929MOL0     N22513   6.887  10.462   0.522  0.4673  0.0648 -0.2376
  929MOL0     C22514   6.890  10.551   0.625 -0.2978  0.4218  0.2634
  929MOL0     C22515   6.758  10.577   0.652  0.1654  0.0283  0.1330
  929MOL0     C22516   6.718  10.658   0.771 -0.3003 -0.1235  1.2664
  929MOL0     C22517   6.588  10.735   0.730 -0.6391  0.2670  0.4681
  929MOL0     C22518   6.570  10.856   0.832  0.3963  0.1899  0.0305
  929MOL0     C22519   6.451  10.954   0.799 -1.1999  0.3870  0.0416
  929MOL0     O22520   6.331  10.887   0.834 -0.7064 -0.5704  0.5106
  929MOL0     C22521   6.212  10.951   0.817  0.5186 -0.5652  0.4700
  929MOL0     C22522   6.195  11.075   0.752 -0.0526  0.5513  0.3192
  929MOL0     C22523   6.074  11.136   0.726 -0.0370  0.6891 -0.1008
  929MOL0     C22524   5.955  11.070   0.764 -0.0007  0.6287 -0.0936
  929MOL0     C22525   5.824  11.120   0.728 -0.5070 -0.3948  0.5210
  929MOL0     O22526   5.715  11.042   0.767  0.5855 -0.5925  0.0742
  929MOL0     C22527   5.592  11.106   0.792 -0.1094  0.4316 -0.0602
  929MOL0     C22528   5.579  11.232   0.863 -0.3079  0.7682 -0.0877
  929MOL0     C22529   5.454  11.292   0.892 -0.3530  0.2331  0.2966
  929MOL0     C22530   5.335  11.216   0.856 -0.6676 -0.2840 -0.7584
  929MOL0     O22531   5.210  11.260   0.888 -0.0532 -0.2475  0.4600
  929MOL0     C22532   5.186  11.381   0.959  0.0487 -0.2672  0.2342
  929MOL0     C22533   5.043  11.414   0.934  0.4029  0.1604 -0.7944
  929MOL0     C22534   4.953  11.334   1.021 -0.4395  0.1447  0.1308
  929MOL0     C22535   4.817  11.399   0.982  0.2409  0.4167 -0.5286
  929MOL0     C22536   4.709  11.367   1.089 -0.4631  0.0582  0.3526
  929MOL0     C22537   4.711  11.456   1.217 -0.1720 -0.4175  0.0099
  929MOL0     C22538   4.572  11.441   1.277  0.4718 -0.1031 -0.4083
  929MOL0     C22539   4.554  11.497   1.418 -1.1375  0.2445 -0.0727
  929MOL0    Cl22540   4.385  11.543   1.449 -0.1322  0.0221 -0.5210
  929MOL0     C22541   5.350  11.099   0.794 -0.2311  0.0550 -0.6506
  929MOL0     C22542   5.471  11.048   0.750 -0.0818  0.1510 -0.5758
  929MOL0     O22543   5.814  11.236   0.690 -0.0738  0.4673 -0.5118
  929MOL0     C22544   5.966  10.945   0.826 -0.0030 -0.0915 -0.4717
  929MOL0     C22545   6.095  10.885   0.854 -0.5881 -0.0767  0.5062
  929MOL0     N22546   6.684  10.496   0.570 -0.2144  0.7177  0.2513
  929MOL0     N22547   6.760  10.424   0.498  0.5819  0.2284 -0.0143
  929MOL0     C22548   8.014  10.693   0.318 -0.1702  0.6715  0.3939
  929MOL0     C22549   8.121  10.761   0.258 -0.3849 -0.6886 -0.0875
  929MOL0     C22550   8.545  10.917   0.237  0.1488 -0.8658  0.4279
  929MOL0     C22551   8.600  11.044   0.202  0.7849 -0.2572  0.8985
  929MOL0     C22552   8.741  11.057   0.190 -0.2967  0.4769 -0.6466
  929MOL0     C22553   8.820  10.956   0.223 -0.2884 -0.6546 -0.0741
  929MOL0     O22554   8.958  10.968   0.232  0.1130 -0.2043 -0.8118
  929MOL0     C22555   9.029  11.033   0.126 -0.1569 -0.2272 -0.2256
  929MOL0     C22556   8.997  10.971  -0.016  0.3981 -0.2548  0.7000
  929MOL0     C22557   9.079  10.842  -0.050  0.2216 -0.2701  0.2031
  929MOL0     C22558   9.064  10.794  -0.195  0.5058  0.0688  0.2158
  929MOL0     C22559   8.929  10.741  -0.217 -0.1711 -0.3753  0.4565
  929MOL0     C22560   8.816  10.699  -0.218 -0.1825  0.1096  0.0139
  929MOL0     C22561   8.770  10.830   0.261 -0.5712 -0.1169 -0.5788
  929MOL0     C22562   8.632  10.816   0.264  0.0337  0.5123 -0.3613
  929MOL0     H22563   8.344  10.496   0.291 -0.9692 -1.2928  0.2883
  929MOL0     H22564   8.148  10.401   0.395 -0.3751  0.3024  0.9183
  929MOL0     H22565   7.778  10.561   0.262  2.1952  0.4435  0.5995
  929MOL0     H22566   7.757  10.621   0.425  0.9245  0.8919 -0.7074
  929MOL0     H22567   7.693  10.394   0.507  2.3068  2.5433  0.1874
  929MOL0     H22568   7.742  10.323   0.358  0.9898  0.5584  2.2385
  929MOL0     H22569   7.537  10.476   0.251 -0.9652 -0.9503  0.9347
  929MOL0     H22570   7.517  10.537   0.416 -1.3664 -1.6379  2.8549
  929MOL0     H22571   7.435  10.295   0.281  1.4330  0.3433  0.0955
  929MOL0     H22572   7.484  10.256   0.440 -1.4535  0.4282  3.0032
  929MOL0     H22573   7.267  10.462   0.349 -0.0789 -0.4395 -0.8210
  929MOL0     H22574   7.317  10.441   0.513 -1.1748  1.2745  0.0571
  929MOL0     H22575   7.264  10.199   0.512 -2.1694  1.1349  1.5796
  929MOL0     H22576   7.178  10.220   0.371  0.6802 -2.0159  0.2783
  929MOL0     H22577   7.021  10.229   0.563 -1.0833 -0.3477  1.1011
  929MOL0     H22578   7.103  10.362   0.637 -2.1857  1.5821 -0.4406
  929MOL0     H22579   6.979  10.385   0.354 -0.4924  0.0232 -1.0291
  929MOL0     H22580   7.065  10.506   0.449 -1.6095  1.1349  1.9577
  929MOL0     H22581   6.976  10.601   0.669  0.3364 -0.0978 -0.3567
  929MOL0     H22582   6.795  10.731   0.798  1.1848 -1.0155 -0.3745
  929MOL0     H22583   6.689  10.592   0.854  0.1418 -0.5445  1.0902
  929MOL0     H22584   6.505  10.663   0.735  0.3435 -1.0736 -1.1566
  929MOL0     H22585   6.597  10.774   0.628 -0.9904 -0.7232  0.0390
  929MOL0     H22586   6.554  10.812   0.931  0.3075 -2.8515 -1.2215
  929MOL0     H22587   6.663  10.913   0.828  0.1996  0.4789 -0.6084
  929MOL0     H22588   6.458  10.975   0.692  0.7334 -0.0986  0.0307
  929MOL0     H22589   6.460  11.050   0.850 -1.4994 -0.2519  1.3569
  929MOL0     H22590   6.279  11.129   0.712 -1.0015 -0.2124 -2.9896
  929MOL0     H22591   6.073  11.227   0.667  0.5617 -0.7921 -2.5177
  929MOL0     H22592   5.673  11.281   0.888  1.1722 -1.2193 -1.4511
  929MOL0     H22593   5.442  11.390   0.937  0.5281  0.6004 -0.2419
  929MOL0     H22594   5.254  11.461   0.928 -0.8935  0.7379  0.6768
  929MOL0     H22595   5.209  11.366   1.065  0.2184  1.3234  0.4416
  929MOL0     H22596   5.016  11.403   0.829 -0.9835  1.4553 -0.6087
  929MOL0     H22597   5.042  11.522   0.953 -0.4959  0.3442 -1.8210
  929MOL0     H22598   4.973  11.357   1.126  0.3675  0.8242 -0.1546
  929MOL0     H22599   4.956  11.225   1.009  0.1601  0.3679 -2.1715
  929MOL0     H22600   4.827  11.507   0.968  1.0978  0.3537 -0.4395
  929MOL0     H22601   4.788  11.354   0.887 -0.3140 -1.9197  0.6528
  929MOL0     H22602   4.698  11.262   1.117 -3.8888 -0.0958 -1.0671
  929MOL0     H22603   4.611  11.381   1.042 -1.1711 -1.2495  1.3907
  929MOL0     H22604   4.737  11.560   1.193  0.5984 -0.3129  1.2349
  929MOL0     H22605   4.793  11.429   1.285  0.7145  2.4199  0.1872
  929MOL0     H22606   4.503  11.488   1.207  0.5836 -1.6877 -1.6597
  929MOL0     H22607   4.546  11.334   1.274  1.0264 -0.3005  1.1551
  929MOL0     H22608   4.610  11.590   1.435 -0.9109  0.1421 -0.2499
  929MOL0     H22609   4.594  11.418   1.483  1.5586  0.5972 -1.1557
  929MOL0     H22610   5.257  11.046   0.776 -0.9204  0.2769  1.8961
  929MOL0     H22611   5.481  10.954   0.696  1.3626 -1.0130  1.5308
  929MOL0     H22612   5.885  10.877   0.849  2.0467 -1.8616  2.1788
  929MOL0     H22613   6.103  10.791   0.907 -1.5624  0.4215  1.5781
  929MOL0     H22614   7.924  10.751   0.336 -0.3622  0.8526 -1.0140
  929MOL0     H22615   8.110  10.867   0.238 -1.9665 -1.2664 -2.7377
  929MOL0     H22616   8.530  11.123   0.176 -0.8271 -1.5472  1.1447
  929MOL0     H22617   8.788  11.151   0.162  2.3388  0.5449  3.1959
  929MOL0     H22618   9.138  11.030   0.140  0.4032 -0.0373 -3.7028
  929MOL0     H22619   9.011  11.141   0.119  2.7694  0.2920 -1.5231
  929MOL0     H22620   8.890  10.959  -0.031  0.1108  0.1081  2.2509
  929MOL0     H22621   9.037  11.043  -0.088  1.2445 -0.8378  0.5786
  929MOL0     H22622   9.051  10.760   0.017 -0.3045  0.0590  0.3962
  929MOL0     H22623   9.185  10.866  -0.039  0.1631  0.2238 -0.2882
  929MOL0     H22624   9.077  10.882  -0.259 -0.4755  0.0178 -0.0675
  929MOL0     H22625   9.143  10.729  -0.234  1.1606  1.0128 -0.0937
  929MOL0     H22626   8.719  10.657  -0.199 -0.1700  0.6621  1.4285
  929MOL0     H22627   8.838  10.757   0.302  2.1602  1.3300 -2.2373
  929MOL0     H22628   8.591  10.720   0.294  0.0749  0.5529 -0.1725
  930MOL0     O22629   3.122   5.637   4.286  0.1539  0.1128  0.2200
  930MOL0     C22630   3.209   5.556   4.311  0.2902 -0.0549 -0.1994
  930MOL0     O22631   3.210   5.467   4.418  0.0019 -1.0109 -0.0671
  930MOL0     C22632   3.099   5.465   4.504 -0.7473 -0.5985  0.0585
  930MOL0     C22633   2.973   5.456   4.454 -0.6019  0.6102 -0.7490
  930MOL0     C22634   2.863   5.455   4.538 -0.7249 -0.5487 -0.1066
  930MOL0     C22635   2.884   5.479   4.676  0.2369 -0.8090  0.2974
  930MOL0     O22636   2.787   5.479   4.769  0.6993 -0.4420  0.0145
  930MOL0     C22637   2.660   5.539   4.722  0.4775  0.4597  0.5574
  930MOL0     C22638   2.569   5.571   4.838  0.0884 -0.1696 -0.0025
  930MOL0     C22639   2.440   5.650   4.808 -0.0449 -0.0669  0.4540
  930MOL0     C22640   2.351   5.649   4.936  0.0926  0.6003  0.7983
  930MOL0     C22641   2.218   5.731   4.909  0.4857  0.1793  0.1327
  930MOL0     C22642   2.120   5.640   4.834  0.1010  0.0548 -0.4397
  930MOL0     C22643   1.997   5.702   4.777  1.1381 -0.9186 -0.4562
  930MOL0     C22644   1.875   5.706   4.871  0.6913 -0.1870 -0.3459
  930MOL0     N22645   1.757   5.714   4.788  0.5659 -1.1303 -0.0528
  930MOL0     C22646   1.684   5.603   4.750 -0.1005  0.6886 -1.1098
  930MOL0     C22647   1.571   5.648   4.687  0.5974 -0.6287  0.6714
  930MOL0     C22648   1.454   5.569   4.636 -0.1687  0.1832  0.1054
  930MOL0     C22649   1.314   5.643   4.639  0.4244 -0.8836 -0.0109
  930MOL0     C22650   1.272   5.692   4.779 -0.2666 -0.2103 -0.5076
  930MOL0     C22651   1.326   5.605   4.896 -0.2568 -0.0078  0.8637
  930MOL0     O22652   1.251   5.626   5.018  0.0275 -0.2877 -0.1206
  930MOL0     C22653   1.113   5.601   5.030 -0.2854 -0.3151  0.1278
  930MOL0     C22654   1.036   5.514   4.946  0.5194 -0.3227  0.3600
  930MOL0     C22655   0.901   5.502   4.973  0.1007 -0.2341  0.9406
  930MOL0     C22656   0.837   5.588   5.068 -0.4699  0.1698  0.6530
  930MOL0     C22657   0.692   5.574   5.081  0.8914  1.2835  1.0382
  930MOL0     O22658   0.654   5.433   5.090  0.2777 -0.1293  0.7071
  930MOL0     C22659   0.523   5.399   5.118  0.3800  0.2806  0.0249
  930MOL0     C22660   0.409   5.477   5.093 -0.0965  0.2587 -0.0310
  930MOL0     C22661   0.283   5.421   5.125  0.4741  0.6073  0.3318
  930MOL0     C22662   0.272   5.290   5.178 -0.4076 -0.0434  0.5524
  930MOL0     O22663   0.150   5.220   5.207 -1.0724  0.4865 -0.3311
  930MOL0     C22664   0.034   5.301   5.244 -0.2523 -0.0235 -1.0709
  930MOL0     C22665  -0.082   5.219   5.291  0.5451 -0.3817  0.3949
  930MOL0     C22666  -0.208   5.311   5.323 -0.5411 -0.0578 -0.7425
  930MOL0     C22667  -0.264   5.397   5.206 -0.6053  0.1016 -0.5663
  930MOL0     C22668  -0.363   5.503   5.250  0.3058 -0.2190 -0.8650
  930MOL0     C22669  -0.508   5.450   5.277  0.6806  0.6346  0.2920
  930MOL0     C22670  -0.620   5.560   5.260 -1.2621  0.9044 -1.0440
  930MOL0     C22671  -0.742   5.518   5.339  0.3797 -0.0675 -0.7053
  930MOL0    Cl22672  -0.817   5.360   5.276  0.4624 -0.0343  0.1445
  930MOL0     C22673   0.383   5.214   5.199 -1.1877 -0.6314  0.3683
  930MOL0     C22674   0.505   5.269   5.164  0.4811  0.5374  0.2485
  930MOL0     O22675   0.622   5.669   5.121  0.2182 -0.0686 -0.5381
  930MOL0     C22676   0.913   5.675   5.149  0.1713 -0.0605 -0.0298
  930MOL0     C22677   1.056   5.680   5.132 -0.0142  0.1879  0.1783
  930MOL0     N22678   1.570   5.790   4.698 -0.1232 -0.1914  0.4352
  930MOL0     N22679   1.681   5.823   4.756 -0.1014 -0.9946  0.4615
  930MOL0     C22680   3.015   5.500   4.726  0.3659  0.4780  0.2436
  930MOL0     C22681   3.130   5.484   4.637  0.4389 -0.9784 -0.4664
  930MOL0     C22682   3.313   5.544   4.213 -0.8537 -0.2269  0.3517
  930MOL0     C22683   3.349   5.655   4.135 -0.2717 -0.4028 -0.2724
  930MOL0     C22684   3.460   5.662   4.056 -0.6662 -0.5579  0.1954
  930MOL0     C22685   3.548   5.558   4.060 -0.5176  0.1981  0.8153
  930MOL0     O22686   3.666   5.540   3.982  0.0785  0.0412 -0.0509
  930MOL0     C22687   3.730   5.660   3.939 -0.0534  0.4229 -0.4651
  930MOL0     C22688   3.880   5.638   3.919 -0.5420 -0.0001  0.1065
  930MOL0     C22689   3.921   5.707   3.789  0.2500 -0.3489  0.1432
  930MOL0     C22690   3.907   5.863   3.774  0.1075  0.4145  0.2471
  930MOL0     C22691   3.983   5.931   3.877 -0.2511 -0.1939 -0.6212
  930MOL0     C22692   4.068   5.990   3.943 -0.5802 -0.8124  0.0252
  930MOL0     C22693   3.519   5.445   4.134  0.1192  0.2996 -0.1871
  930MOL0     C22694   3.405   5.437   4.208  0.2246  0.0350 -0.2169
  930MOL0     H22695   2.960   5.436   4.348  2.8137  2.0462 -1.5549
  930MOL0     H22696   2.762   5.439   4.502 -0.4475 -0.4022 -0.9707
  930MOL0     H22697   2.603   5.461   4.671  0.8007 -0.5866  1.7496
  930MOL0     H22698   2.679   5.624   4.655  1.2467  0.6901  1.0487
  930MOL0     H22699   2.623   5.621   4.920 -3.1790 -0.7629  2.7184
  930MOL0     H22700   2.539   5.474   4.878 -0.9243 -0.2466 -0.9227
  930MOL0     H22701   2.384   5.600   4.729  0.6181  2.1259 -1.5341
  930MOL0     H22702   2.468   5.754   4.787  2.0832 -0.4180  1.2465
  930MOL0     H22703   2.320   5.548   4.967 -3.1180  0.9657 -0.8108
  930MOL0     H22704   2.414   5.690   5.015  0.1310 -2.0740  2.2847
  930MOL0     H22705   2.235   5.826   4.857 -2.8802 -0.2565 -2.0276
  930MOL0     H22706   2.173   5.747   5.008 -0.6705 -0.6858 -0.2396
  930MOL0     H22707   2.094   5.562   4.907  0.2051  1.7378  1.4974
  930MOL0     H22708   2.172   5.596   4.749 -3.3932 -0.2318 -2.6075
  930MOL0     H22709   2.017   5.806   4.750 -1.7120  0.1442  1.1609
  930MOL0     H22710   1.958   5.658   4.685 -0.2311 -2.3904  0.7489
  930MOL0     H22711   1.889   5.796   4.931 -0.0009 -0.2557 -0.0746
  930MOL0     H22712   1.866   5.622   4.939  0.3630  2.5981  3.3513
  930MOL0     H22713   1.712   5.501   4.772 -1.5534  0.6461  0.9365
  930MOL0     H22714   1.462   5.475   4.692 -4.7085  0.1276  1.0631
  930MOL0     H22715   1.472   5.534   4.534  0.1737  2.5601 -0.7027
  930MOL0     H22716   1.241   5.581   4.586  1.2290 -2.7151  0.9725
  930MOL0     H22717   1.320   5.735   4.580 -2.0099 -0.7548 -0.1478
  930MOL0     H22718   1.322   5.787   4.802  0.0131 -0.3497 -0.5306
  930MOL0     H22719   1.164   5.707   4.780 -0.5841 -2.2051 -1.0058
  930MOL0     H22720   1.429   5.626   4.926  0.0257  0.7262 -0.5250
  930MOL0     H22721   1.325   5.498   4.875  0.8293 -0.0308  0.8669
  930MOL0     H22722   1.086   5.449   4.875  1.4825  1.4130 -0.6204
  930MOL0     H22723   0.847   5.414   4.939  0.5555 -0.7348  1.4739
  930MOL0     H22724   0.419   5.575   5.046  3.8447 -0.1778 -0.4665
  930MOL0     H22725   0.193   5.480   5.112  0.7815  0.8000 -1.0764
  930MOL0     H22726   0.020   5.356   5.151 -2.5381  2.0653  0.3747
  930MOL0     H22727   0.059   5.385   5.309 -2.3229  0.8044 -1.2602
  930MOL0     H22728  -0.060   5.166   5.385 -0.7436  1.9518  2.1192
  930MOL0     H22729  -0.100   5.137   5.220 -0.6765  0.1840  0.0194
  930MOL0     H22730  -0.175   5.369   5.411  1.5891 -3.2512  0.7400
  930MOL0     H22731  -0.291   5.253   5.364  0.2876 -1.2970 -0.7773
  930MOL0     H22732  -0.177   5.446   5.161  0.4279 -0.0818  1.1272
  930MOL0     H22733  -0.307   5.320   5.142  1.5285  0.3645 -2.4457
  930MOL0     H22734  -0.381   5.582   5.176  0.0318 -0.2600 -0.8442
  930MOL0     H22735  -0.334   5.559   5.339  0.7738 -2.2270  0.2819
  930MOL0     H22736  -0.522   5.416   5.380 -1.3526  3.9263  1.2623
  930MOL0     H22737  -0.534   5.365   5.213  0.2878  0.6380  0.4392
  930MOL0     H22738  -0.587   5.660   5.287 -1.1105  0.7956 -0.8239
  930MOL0     H22739  -0.651   5.574   5.156 -0.5965 -0.6473 -1.4718
  930MOL0     H22740  -0.807   5.606   5.341  1.5563  0.8345  0.9705
  930MOL0     H22741  -0.702   5.502   5.440 -2.4095 -1.2898  0.3112
  930MOL0     H22742   0.372   5.111   5.231  0.5208 -0.9182  0.0904
  930MOL0     H22743   0.594   5.207   5.158 -0.0944 -0.3126  0.3280
  930MOL0     H22744   0.863   5.745   5.214  2.2015  1.4623 -0.0237
  930MOL0     H22745   1.115   5.739   5.203 -0.8797  0.0497  1.0337
  930MOL0     H22746   3.028   5.507   4.833  3.3723  1.1203 -0.0777
  930MOL0     H22747   3.231   5.489   4.675  1.0702 -0.1724 -2.1606
  930MOL0     H22748   3.271   5.730   4.123 -0.9392 -1.4057 -3.0166
  930MOL0     H22749   3.471   5.754   3.999  0.5811 -0.5708  0.4022
  930MOL0     H22750   3.710   5.746   4.004 -0.2277  1.9393 -2.4241
  930MOL0     H22751   3.685   5.687   3.844 -0.6361  2.1807  0.2800
  930MOL0     H22752   3.934   5.679   4.006 -0.9029  0.0052  0.3288
  930MOL0     H22753   3.904   5.532   3.910  0.2812  0.2132 -0.3391
  930MOL0     H22754   3.869   5.658   3.707 -1.2356 -0.3658  1.0467
  930MOL0     H22755   4.027   5.683   3.779  0.3487 -0.3797  1.1209
  930MOL0     H22756   3.933   5.890   3.672 -1.5639 -4.0968 -1.6458
  930MOL0     H22757   3.807   5.895   3.803 -0.3105 -1.7338  1.4551
  930MOL0     H22758   4.147   6.035   3.999  0.4850 -3.2557  0.5687
  930MOL0     H22759   3.585   5.360   4.128  1.8857  1.6611 -0.8676
  930MOL0     H22760   3.376   5.346   4.260 -0.7203 -0.4815 -1.5811
  931MOL0     O22761   8.599   8.716   8.513 -0.5154 -0.6995 -0.0190
  931MOL0     C22762   8.589   8.743   8.395  0.0167 -0.2952  0.0373
  931MOL0     O22763   8.474   8.750   8.319  0.1096 -0.0275  0.1143
  931MOL0     C22764   8.351   8.734   8.375 -0.7600  0.2394  0.6419
  931MOL0     C22765   8.309   8.835   8.463 -0.2615 -0.2447  1.0517
  931MOL0     C22766   8.183   8.832   8.516  0.0670  0.0768 -0.3584
  931MOL0     C22767   8.096   8.728   8.483 -0.0469  0.9916  0.0420
  931MOL0     O22768   7.967   8.705   8.527  0.0446  0.0925 -0.0545
  931MOL0     C22769   7.884   8.823   8.543 -0.5418 -0.1821  0.2412
  931MOL0     C22770   7.748   8.772   8.590 -0.3637  0.3166 -0.1320
  931MOL0     C22771   7.662   8.708   8.480 -0.8245 -0.4059 -0.2658
  931MOL0     C22772   7.613   8.799   8.365 -0.2658 -0.2665  0.0247
  931MOL0     C22773   7.523   8.709   8.284 -0.2442 -0.0509 -0.5169
  931MOL0     C22774   7.452   8.799   8.179  0.2698  0.5923 -0.1608
  931MOL0     C22775   7.376   8.728   8.070 -0.2074  0.3630 -0.6465
  931MOL0     C22776   7.275   8.622   8.114  0.3585  0.3547  0.4173
  931MOL0     N22777   7.161   8.606   8.018 -0.6349 -0.5375  0.1579
  931MOL0     C22778   7.127   8.489   7.962  1.1346 -0.2883  0.0790
  931MOL0     C22779   7.005   8.518   7.906  0.1796 -0.3116 -0.1320
  931MOL0     C22780   6.921   8.424   7.839 -0.5044  0.3421  0.3607
  931MOL0     C22781   6.925   8.480   7.693 -0.4561 -0.1338  0.3105
  931MOL0     C22782   6.835   8.402   7.602  0.5339 -0.4719  0.3268
  931MOL0     C22783   6.835   8.455   7.455  0.3231  0.1886 -0.1226
  931MOL0     O22784   6.791   8.591   7.447  0.2975  0.0220  0.2629
  931MOL0     C22785   6.663   8.603   7.397 -0.3465 -0.0071 -0.9690
  931MOL0     C22786   6.586   8.708   7.463 -0.1322 -0.0859  0.3325
  931MOL0     C22787   6.453   8.727   7.444  0.5138 -0.3883  0.3061
  931MOL0     C22788   6.385   8.638   7.357  0.5438 -0.7728  0.0337
  931MOL0     C22789   6.239   8.645   7.344 -0.0443 -0.0651 -0.4338
  931MOL0     O22790   6.176   8.534   7.298  0.6562  0.2753  0.5502
  931MOL0     C22791   6.035   8.526   7.312  0.4415 -0.4667 -0.6590
  931MOL0     C22792   5.955   8.576   7.420  0.4075 -0.4791 -0.0990
  931MOL0     C22793   5.822   8.562   7.421  1.6777 -0.1715  0.6141
  931MOL0     C22794   5.757   8.498   7.310 -0.1366 -0.1494 -0.2548
  931MOL0     O22795   5.621   8.504   7.309  0.5134  0.2224  0.0327
  931MOL0     C22796   5.553   8.495   7.174  0.4925 -0.2802  0.1621
  931MOL0     C22797   5.402   8.500   7.192  0.7579 -0.1822  0.7033
  931MOL0     C22798   5.337   8.639   7.166 -1.0265  1.0133  0.4098
  931MOL0     C22799   5.190   8.640   7.201 -0.5486  0.2707  0.0403
  931MOL0     C22800   5.141   8.787   7.195 -0.0554  0.4310 -0.2596
  931MOL0     C22801   4.994   8.811   7.239  0.1748 -0.4125  0.1845
  931MOL0     C22802   4.890   8.726   7.167 -0.0083 -0.5356 -1.1003
  931MOL0     C22803   4.751   8.731   7.232 -0.7651  0.4374  0.0151
  931MOL0    Cl22804   4.673   8.888   7.241  0.1366 -0.0120  0.5050
  931MOL0     C22805   5.832   8.435   7.210 -0.9498  0.4056 -0.0506
  931MOL0     C22806   5.975   8.452   7.209 -0.7260 -0.3855 -0.1508
  931MOL0     O22807   6.181   8.746   7.379 -0.9271  0.2016  0.3197
  931MOL0     C22808   6.461   8.544   7.283 -0.2331 -0.0379 -0.7505
  931MOL0     C22809   6.595   8.528   7.303 -0.3257  0.6271  0.2471
  931MOL0     N22810   6.983   8.656   7.930  0.3305  0.1256  0.0133
  931MOL0     N22811   7.076   8.706   7.995 -0.5987 -0.4591  0.1942
  931MOL0     C22812   8.136   8.637   8.386 -0.2410  0.0737  0.8440
  931MOL0     C22813   8.265   8.635   8.337  0.0993 -0.3859  0.4223
  931MOL0     C22814   8.701   8.785   8.310 -0.1858 -0.2729 -1.7804
  931MOL0     C22815   8.670   8.845   8.185 -0.2100 -0.3012  0.1527
  931MOL0     C22816   8.774   8.890   8.096  0.8856 -0.1503 -0.5401
  931MOL0     C22817   8.908   8.876   8.138 -0.3516  0.6958  1.0953
  931MOL0     O22818   9.021   8.906   8.062  0.4546 -0.1013 -0.1032
  931MOL0     C22819   9.011   9.001   7.950  0.4126  0.1635 -0.1736
  931MOL0     C22820   9.150   9.049   7.907 -0.4619 -0.5443 -0.3537
  931MOL0     C22821   9.215   9.132   8.020 -0.1855  0.9701 -0.7409
  931MOL0     C22822   9.337   9.214   7.966 -0.2488  0.3743  0.4161
  931MOL0     C22823   9.420   9.150   7.859  1.0476  0.7007 -0.0911
  931MOL0     C22824   9.481   9.090   7.773 -0.5095  0.4997 -0.0865
  931MOL0     C22825   8.938   8.813   8.253 -0.1741  0.5271 -0.1210
  931MOL0     C22826   8.834   8.762   8.341  0.2465 -0.3857  0.0374
  931MOL0     H22827   8.367   8.924   8.484 -2.3268  2.3302 -2.7270
  931MOL0     H22828   8.145   8.917   8.572  2.7069  2.0842 -1.4065
  931MOL0     H22829   7.874   8.890   8.456 -2.7415  2.0231  2.0315
  931MOL0     H22830   7.910   8.890   8.625 -1.9051  2.7663 -1.5686
  931MOL0     H22831   7.682   8.847   8.635 -1.6075  0.0427 -1.4313
  931MOL0     H22832   7.762   8.709   8.678 -0.3294  1.5551  0.7802
  931MOL0     H22833   7.568   8.670   8.521 -1.7041 -0.1564 -1.9209
  931MOL0     H22834   7.716   8.621   8.440  1.6053  0.0165  1.8168
  931MOL0     H22835   7.566   8.893   8.396 -2.7937 -1.4111 -0.0376
  931MOL0     H22836   7.698   8.827   8.303 -0.1870 -1.5311 -0.4750
  931MOL0     H22837   7.440   8.666   8.342 -0.1988 -1.4046 -1.4109
  931MOL0     H22838   7.582   8.631   8.235  1.4475 -1.3832  3.2553
  931MOL0     H22839   7.526   8.861   8.128  1.1168 -0.4496 -0.2281
  931MOL0     H22840   7.383   8.865   8.234  0.1088  0.0539  0.2891
  931MOL0     H22841   7.330   8.804   8.006  0.2250  0.2480 -1.1048
  931MOL0     H22842   7.446   8.682   7.999 -0.6989  0.8245 -1.4408
  931MOL0     H22843   7.231   8.652   8.210  2.5197  1.5932  1.0946
  931MOL0     H22844   7.331   8.528   8.121  1.2296  0.8161 -0.1061
  931MOL0     H22845   7.178   8.394   7.976  0.8019 -0.6248 -0.8488
  931MOL0     H22846   6.818   8.426   7.877 -0.3219  1.1451  0.8405
  931MOL0     H22847   6.964   8.325   7.856  0.6057  1.1819  2.8587
  931MOL0     H22848   7.028   8.487   7.657 -0.6194 -0.6712 -0.2811
  931MOL0     H22849   6.895   8.585   7.702  0.4403  0.0377  1.6609
  931MOL0     H22850   6.861   8.296   7.611 -2.2058 -1.2750 -0.3258
  931MOL0     H22851   6.732   8.406   7.638  0.1847  0.2682 -0.6862
  931MOL0     H22852   6.792   8.375   7.395  2.9551 -1.4845  0.0340
  931MOL0     H22853   6.940   8.468   7.426  0.5346  0.6614  0.7862
  931MOL0     H22854   6.638   8.775   7.530  1.7109 -0.8469 -0.2781
  931MOL0     H22855   6.405   8.798   7.512  0.2395 -2.0166  1.8784
  931MOL0     H22856   6.007   8.624   7.503 -0.6183  2.7680 -1.1717
  931MOL0     H22857   5.769   8.609   7.503  1.7461 -0.8256  1.0431
  931MOL0     H22858   5.574   8.413   7.104 -2.2163  1.9579 -3.6529
  931MOL0     H22859   5.585   8.590   7.132  0.7623  0.6632  2.3380
  931MOL0     H22860   5.376   8.464   7.292  2.1051 -1.2222  0.7012
  931MOL0     H22861   5.355   8.446   7.109 -1.7850  2.1608  0.4812
  931MOL0     H22862   5.344   8.654   7.058  0.6812  2.2253  0.6497
  931MOL0     H22863   5.393   8.716   7.220  1.7027 -1.8010  1.9903
  931MOL0     H22864   5.133   8.567   7.142 -1.3429  0.8588  0.0633
  931MOL0     H22865   5.181   8.605   7.305 -2.3144  0.1645 -0.1056
  931MOL0     H22866   5.146   8.812   7.088  2.9684 -0.8789 -0.5287
  931MOL0     H22867   5.192   8.863   7.255 -1.6978  0.4290  1.1961
  931MOL0     H22868   4.961   8.915   7.227  1.3641  0.1251  1.4287
  931MOL0     H22869   4.993   8.775   7.342 -2.4875 -0.3847  0.2490
  931MOL0     H22870   4.884   8.776   7.070 -2.9754  0.5315 -0.4558
  931MOL0     H22871   4.924   8.622   7.164  1.7649  0.0390 -2.3966
  931MOL0     H22872   4.764   8.689   7.332  1.6978  0.5792 -0.1767
  931MOL0     H22873   4.686   8.664   7.176 -3.0524  0.1510  2.7616
  931MOL0     H22874   5.788   8.383   7.126  1.4344  1.8485 -2.3318
  931MOL0     H22875   6.041   8.425   7.127 -1.4744 -0.4481 -0.7376
  931MOL0     H22876   6.404   8.480   7.216  1.3858 -1.0576 -1.2003
  931MOL0     H22877   6.632   8.434   7.264 -2.5687 -0.6667  1.0014
  931MOL0     H22878   8.081   8.552   8.347  1.8596 -0.7586 -0.4544
  931MOL0     H22879   8.289   8.566   8.257 -1.7308  0.7895 -1.2181
  931MOL0     H22880   8.573   8.846   8.137 -0.1389  3.9365 -0.2220
  931MOL0     H22881   8.762   8.931   7.995  3.3890  2.2183 -0.0162
  931MOL0     H22882   8.942   9.083   7.973 -0.5891 -0.0620 -2.1783
  931MOL0     H22883   8.969   8.948   7.864  0.2348 -3.0899  1.7256
  931MOL0     H22884   9.219   8.970   7.875  0.7006 -0.5698  2.0652
  931MOL0     H22885   9.141   9.121   7.825 -0.9977  0.7773  0.8294
  931MOL0     H22886   9.240   9.067   8.104 -1.8655  0.0958 -0.8696
  931MOL0     H22887   9.145   9.198   8.072 -0.3193  1.5409 -1.6056
  931MOL0     H22888   9.291   9.308   7.934  2.8884  1.1200 -2.4829
  931MOL0     H22889   9.394   9.248   8.053 -0.6348  1.2154  0.3470
  931MOL0     H22890   9.525   9.044   7.687 -0.9618 -0.8959  0.3964
  931MOL0     H22891   9.043   8.798   8.279 -0.0276 -0.0837 -1.0363
  931MOL0     H22892   8.856   8.717   8.437 -2.8032 -1.2157  0.4457
  932MOL0     O22893   0.154  10.089   1.726 -0.2411 -0.2514 -1.3109
  932MOL0     C22894   0.161  10.065   1.846 -0.0536  0.1705  0.0584
  932MOL0     O22895   0.066  10.001   1.919 -0.4638 -0.0087 -0.6980
  932MOL0     C22896  -0.047   9.950   1.852 -0.0503  0.2784 -0.3302
  932MOL0     C22897  -0.039   9.856   1.743  0.6479 -0.4717 -0.1455
  932MOL0     C22898  -0.161   9.805   1.693  0.4796 -1.2591  0.9986
  932MOL0     C22899  -0.282   9.845   1.742  0.5393  0.0535 -0.0259
  932MOL0     O22900  -0.412   9.806   1.691 -0.9376  0.1291 -0.2202
  932MOL0     C22901  -0.422   9.796   1.549 -0.1071  0.4623  0.4086
  932MOL0     C22902  -0.561   9.809   1.497  0.3405 -0.1542 -0.0577
  932MOL0     C22903  -0.625   9.945   1.518 -0.2260 -0.0676  0.1620
  932MOL0     C22904  -0.765   9.954   1.456 -0.1949  0.5301  0.0423
  932MOL0     C22905  -0.868   9.866   1.532  0.1853  0.7262  0.7177
  932MOL0     C22906  -1.008   9.904   1.484 -0.0646 -0.6771 -0.8148
  932MOL0     C22907  -1.120   9.825   1.544 -0.5829  0.0494 -0.9464
  932MOL0     C22908  -1.119   9.830   1.698 -0.1985  0.1751 -0.5120
  932MOL0     N22909  -1.247   9.793   1.765 -0.0037  0.0741 -0.9298
  932MOL0     C22910  -1.332   9.885   1.827  0.0861 -0.3899  0.2596
  932MOL0     C22911  -1.426   9.801   1.880 -0.1207  0.5643 -0.1075
  932MOL0     C22912  -1.550   9.848   1.961  0.3765  0.0131 -0.3557
  932MOL0     C22913  -1.669   9.806   1.869  0.4669 -0.5679  0.1268
  932MOL0     C22914  -1.801   9.849   1.938 -0.1622 -0.6525 -0.1536
  932MOL0     C22915  -1.926   9.778   1.873 -0.0662 -0.0658 -0.3635
  932MOL0     O22916  -2.042   9.840   1.911  0.2199 -0.0552  0.0792
  932MOL0     C22917  -2.163   9.793   1.868 -0.4594  0.0776  0.0365
  932MOL0     C22918  -2.274   9.869   1.892 -0.5148 -1.0002  0.6742
  932MOL0     C22919  -2.407   9.825   1.865 -0.0265  0.4480 -0.4072
  932MOL0     C22920  -2.430   9.698   1.814  0.7578  0.4196 -0.1318
  932MOL0     C22921  -2.570   9.646   1.777 -0.2909 -0.7418 -0.4293
  932MOL0     O22922  -2.600   9.517   1.742 -0.1511  0.4436  0.1849
  932MOL0     C22923  -2.727   9.469   1.733  0.1321  0.2630 -0.4392
  932MOL0     C22924  -2.850   9.536   1.747  0.8160  0.4609 -1.3135
  932MOL0     C22925  -2.968   9.481   1.711 -0.3525  0.3425  0.0665
  932MOL0     C22926  -2.978   9.354   1.660  0.0519 -0.0825 -0.0455
  932MOL0     O22927  -3.096   9.293   1.626  0.0367 -0.4354  0.4840
  932MOL0     C22928  -3.217   9.324   1.701 -0.1446 -0.2852 -0.2410
  932MOL0     C22929  -3.326   9.268   1.616 -0.2660 -0.0142 -0.5974
  932MOL0     C22930  -3.467   9.277   1.664 -0.5112  0.0976 -0.5556
  932MOL0     C22931  -3.559   9.268   1.547  0.4576 -0.5782 -0.1065
  932MOL0     C22932  -3.712   9.249   1.572 -0.1188 -0.4479 -0.3629
  932MOL0     C22933  -3.760   9.347   1.679 -0.6145 -0.2349 -0.2457
  932MOL0     C22934  -3.916   9.333   1.716 -0.8005 -0.9768 -0.0341
  932MOL0     C22935  -3.947   9.374   1.858  1.0045 -0.0806  0.0283
  932MOL0    Cl22936  -4.101   9.293   1.920 -0.6751 -0.2906  0.3025
  932MOL0     C22937  -2.858   9.277   1.662 -0.2339 -0.3351  0.3004
  932MOL0     C22938  -2.734   9.332   1.692 -0.4363 -0.2187  0.6340
  932MOL0     O22939  -2.647   9.744   1.775  0.4334  0.1033  0.0530
  932MOL0     C22940  -2.319   9.624   1.773  0.8515  0.6830 -0.3076
  932MOL0     C22941  -2.191   9.673   1.803  0.3576 -0.3930 -0.1866
  932MOL0     N22942  -1.400   9.671   1.836 -0.5248  0.3816 -0.1175
  932MOL0     N22943  -1.299   9.664   1.768 -0.1054  0.0479 -0.7156
  932MOL0     C22944  -0.282   9.928   1.857  0.2337  0.2860 -0.5161
  932MOL0     C22945  -0.160   9.973   1.918  0.3963 -0.0938 -0.0804
  932MOL0     C22946   0.288  10.105   1.907  0.6473  0.4720 -0.9441
  932MOL0     C22947   0.306  10.118   2.042  0.4178 -0.6487  0.3949
  932MOL0     C22948   0.434  10.152   2.097  0.2063 -0.4631 -0.3484
  932MOL0     C22949   0.546  10.167   2.013  0.1340 -0.3447 -0.0020
  932MOL0     O22950   0.672  10.201   2.055 -0.4158  0.2354  0.0622
  932MOL0     C22951   0.682  10.280   2.172 -0.5558 -0.1851 -1.0415
  932MOL0     C22952   0.817  10.288   2.224 -0.8296  0.2131 -1.1231
  932MOL0     C22953   0.883  10.151   2.247  0.2658 -0.1364 -0.2860
  932MOL0     C22954   1.024  10.177   2.288 -0.4356  0.2269 -0.4842
  932MOL0     C22955   1.084  10.057   2.343  0.2990  0.8560  0.3360
  932MOL0     C22956   1.138   9.957   2.388 -0.1909 -0.4660 -0.2899
  932MOL0     C22957   0.527  10.149   1.882 -0.7051 -0.1047 -0.1147
  932MOL0     C22958   0.401  10.118   1.831 -0.4067  0.6754  0.4487
  932MOL0     H22959   0.055   9.819   1.702 -0.2381  0.5693 -3.4431
  932MOL0     H22960  -0.171   9.727   1.619 -4.6832 -2.2979  2.3371
  932MOL0     H22961  -0.383   9.699   1.517 -0.9519  0.3907 -0.4569
  932MOL0     H22962  -0.366   9.874   1.495 -1.2818  1.3045  0.3526
  932MOL0     H22963  -0.618   9.747   1.567  0.3032  0.2973  0.3169
  932MOL0     H22964  -0.580   9.767   1.398  0.1507 -0.7497  0.2217
  932MOL0     H22965  -0.564  10.019   1.465  0.1859 -0.2063  0.4415
  932MOL0     H22966  -0.625   9.959   1.626 -0.9756 -1.6755  0.4059
  932MOL0     H22967  -0.795  10.059   1.466 -2.4491 -0.2462  2.7678
  932MOL0     H22968  -0.755   9.926   1.351  0.1319 -0.0473  0.2231
  932MOL0     H22969  -0.847   9.898   1.634 -3.4478  1.8998  1.2484
  932MOL0     H22970  -0.856   9.758   1.517 -1.8133  0.7421 -1.6893
  932MOL0     H22971  -1.009   9.888   1.376 -2.4866 -2.1063 -0.6666
  932MOL0     H22972  -1.026  10.011   1.497  1.1807 -0.4038 -1.2406
  932MOL0     H22973  -1.208   9.869   1.497  0.4149  0.4691 -2.4759
  932MOL0     H22974  -1.122   9.721   1.512 -3.8044 -0.4855  0.5442
  932MOL0     H22975  -1.096   9.928   1.742  1.3248 -0.4495  0.1664
  932MOL0     H22976  -1.045   9.755   1.727 -1.1143 -0.7828 -0.6250
  932MOL0     H22977  -1.325   9.993   1.831  2.6947 -0.5200  1.0187
  932MOL0     H22978  -1.534   9.955   1.979  2.7842 -0.6085  1.7720
  932MOL0     H22979  -1.543   9.801   2.060  0.9447 -1.1872 -0.9428
  932MOL0     H22980  -1.669   9.699   1.845  1.1823 -0.9802  1.8117
  932MOL0     H22981  -1.659   9.869   1.780  1.5112  0.0400  0.6554
  932MOL0     H22982  -1.816   9.834   2.046  1.9668 -4.3870 -0.1918
  932MOL0     H22983  -1.813   9.956   1.917 -1.4081 -0.9056 -0.8528
  932MOL0     H22984  -1.933   9.670   1.886 -1.2744  0.1767  1.3936
  932MOL0     H22985  -1.920   9.797   1.765 -3.2293 -0.5212 -0.7216
  932MOL0     H22986  -2.254   9.970   1.927  2.0942 -1.2510  0.1272
  932MOL0     H22987  -2.493   9.890   1.875 -0.5873 -0.5541  2.1242
  932MOL0     H22988  -2.853   9.641   1.773  1.7290  0.5487 -1.5172
  932MOL0     H22989  -3.054   9.547   1.707  1.4882  2.8528 -0.6231
  932MOL0     H22990  -3.230   9.433   1.700  3.7014  0.3305 -2.6922
  932MOL0     H22991  -3.212   9.288   1.804 -3.0361  0.8433  0.4044
  932MOL0     H22992  -3.310   9.160   1.610 -1.5537 -0.2594  0.0537
  932MOL0     H22993  -3.313   9.319   1.520  0.8000  1.8251  0.4608
  932MOL0     H22994  -3.466   9.376   1.712  1.2816 -1.6541  3.4949
  932MOL0     H22995  -3.499   9.199   1.734  0.9798  0.9212  1.1285
  932MOL0     H22996  -3.549   9.354   1.481 -1.9486 -1.4648 -1.7908
  932MOL0     H22997  -3.535   9.181   1.485 -2.1114  0.0824 -2.2238
  932MOL0     H22998  -3.735   9.151   1.615 -1.1950  0.4580  1.2052
  932MOL0     H22999  -3.765   9.258   1.477  1.4668 -0.8735 -1.3361
  932MOL0     H23000  -3.745   9.454   1.661 -1.0531 -0.1036  0.1320
  932MOL0     H23001  -3.704   9.332   1.771 -3.6595 -2.2665  1.4665
  932MOL0     H23002  -3.981   9.397   1.656 -1.7327 -1.6143  0.2767
  932MOL0     H23003  -3.961   9.234   1.704 -3.2305 -0.2590  2.3064
  932MOL0     H23004  -3.964   9.482   1.868 -2.8259 -0.5805  0.4645
  932MOL0     H23005  -3.864   9.334   1.916  0.4557 -2.9137 -1.0028
  932MOL0     H23006  -2.859   9.175   1.627  1.1697  0.1908 -1.4163
  932MOL0     H23007  -2.644   9.273   1.680 -0.3920  0.0678 -0.6550
  932MOL0     H23008  -2.332   9.535   1.713 -1.7026  0.5362  0.3309
  932MOL0     H23009  -2.111   9.608   1.768 -1.6186 -1.7208 -2.6520
  932MOL0     H23010  -0.374   9.969   1.898  1.1186  0.7829  1.0903
  932MOL0     H23011  -0.183  10.031   2.007 -4.1948 -1.6581 -0.0104
  932MOL0     H23012   0.222  10.123   2.110  0.7743 -0.0949  0.8053
  932MOL0     H23013   0.440  10.167   2.204 -0.6479 -2.3884  0.0128
  932MOL0     H23014   0.621  10.240   2.253 -1.2760  2.8912  0.0500
  932MOL0     H23015   0.647  10.382   2.154  0.2948 -0.0453 -1.9839
  932MOL0     H23016   0.881  10.341   2.152 -0.0468  0.6691 -0.1112
  932MOL0     H23017   0.818  10.337   2.322 -2.2277 -2.4333  0.3348
  932MOL0     H23018   0.896  10.095   2.154  0.3255  0.3867 -0.5957
  932MOL0     H23019   0.827  10.098   2.324  2.3038 -1.5809  0.3023
  932MOL0     H23020   1.081  10.200   2.198 -2.2028 -2.7496 -2.5221
  932MOL0     H23021   1.032  10.253   2.367  0.0724  0.1283 -0.4349
  932MOL0     H23022   1.181   9.865   2.422 -0.1255 -0.6892 -0.9646
  932MOL0     H23023   0.607  10.159   1.809  2.3635 -1.7702  2.7596
  932MOL0     H23024   0.392  10.109   1.723 -2.4637  0.2032  0.6223
  933MOL0     O23025   8.412  10.710   6.650  0.0080 -0.4798 -0.5878
  933MOL0     C23026   8.464  10.708   6.540 -0.1845  0.1649  0.0958
  933MOL0     O23027   8.415  10.765   6.427 -0.2495  0.4694 -0.3264
  933MOL0     C23028   8.309  10.846   6.438  0.1050  0.3134 -0.0347
  933MOL0     C23029   8.178  10.813   6.394 -0.0668 -0.3720  0.2595
  933MOL0     C23030   8.067  10.902   6.390  0.1203  0.1638  0.6824
  933MOL0     C23031   8.094  11.039   6.431  1.1169  0.3661  0.5071
  933MOL0     O23032   8.004  11.138   6.413 -0.0788 -0.4192 -0.0972
  933MOL0     C23033   7.866  11.099   6.438 -0.0859  0.0281 -0.3906
  933MOL0     C23034   7.782  11.220   6.432 -0.6647  0.4605  0.7083
  933MOL0     C23035   7.636  11.188   6.435  0.4927 -0.1265  0.3542
  933MOL0     C23036   7.547  11.311   6.414 -0.2539 -0.0311  0.2945
  933MOL0     C23037   7.392  11.295   6.447  0.0424 -0.0342 -0.0599
  933MOL0     C23038   7.322  11.201   6.355 -0.2683  0.5007 -0.8487
  933MOL0     C23039   7.172  11.211   6.369 -0.3003 -0.4008 -0.5233
  933MOL0     C23040   7.097  11.104   6.280 -0.3836 -0.5009  0.0616
  933MOL0     N23041   6.951  11.105   6.294  0.7190 -0.0514 -0.2320
  933MOL0     C23042   6.866  11.024   6.228 -0.4940  0.6150  0.8662
  933MOL0     C23043   6.739  11.056   6.274 -1.1846  0.1528 -0.6638
  933MOL0     C23044   6.618  10.989   6.228 -0.1724 -0.1056 -0.8920
  933MOL0     C23045   6.595  11.031   6.075  0.0379 -0.9190  0.4544
  933MOL0     C23046   6.444  11.019   6.036 -0.1485 -0.6642 -0.5216
  933MOL0     C23047   6.435  11.063   5.882  0.3560  0.0255 -0.2178
  933MOL0     O23048   6.339  11.181   5.882 -0.0691 -0.5703 -0.9665
  933MOL0     C23049   6.203  11.167   5.895  0.6414 -0.0595  0.0270
  933MOL0     C23050   6.135  11.286   5.917  0.7305  0.7055 -0.2415
  933MOL0     C23051   6.000  11.289   5.939  0.8627 -0.2746 -0.3210
  933MOL0     C23052   5.922  11.174   5.918 -1.0278 -1.2131 -0.8318
  933MOL0     C23053   5.779  11.188   5.919  0.6899  0.1002 -0.2896
  933MOL0     O23054   5.734  11.305   5.867  0.2066 -0.8385  0.5168
  933MOL0     C23055   5.598  11.329   5.885  0.3133  0.6936  0.8308
  933MOL0     C23056   5.508  11.241   5.819 -0.1134  0.4609  0.0517
  933MOL0     C23057   5.368  11.258   5.827 -0.7395 -0.0332 -0.5645
  933MOL0     C23058   5.319  11.374   5.901 -0.3283 -0.0333 -0.2231
  933MOL0     O23059   5.185  11.403   5.913 -1.0815  0.6804  0.3174
  933MOL0     C23060   5.097  11.336   5.829 -0.4665 -0.1362 -0.1418
  933MOL0     C23061   4.953  11.385   5.836 -0.1671  0.1192  0.3199
  933MOL0     C23062   4.879  11.421   5.713 -0.4754  0.0812 -0.7234
  933MOL0     C23063   4.736  11.472   5.740  0.4921  0.7872  0.1368
  933MOL0     C23064   4.644  11.444   5.617 -0.0492 -0.2967 -0.6919
  933MOL0     C23065   4.545  11.560   5.590  0.0331 -0.2487  0.0699
  933MOL0     C23066   4.453  11.543   5.472  0.6990  0.1894 -0.1223
  933MOL0     C23067   4.396  11.674   5.419  0.3870 -0.6351 -0.6269
  933MOL0    Cl23068   4.324  11.777   5.550  0.3752  0.1336  0.6217
  933MOL0     C23069   5.415  11.462   5.968 -0.3413  0.8128 -0.4653
  933MOL0     C23070   5.553  11.430   5.957 -0.2314  0.0619  0.1855
  933MOL0     O23071   5.713  11.095   5.974  0.1324 -0.0260 -0.1919
  933MOL0     C23072   5.986  11.057   5.888 -0.2475  0.1807  0.2682
  933MOL0     C23073   6.127  11.053   5.874  0.7107  0.4198  0.1955
  933MOL0     N23074   6.749  11.146   6.377  0.4831 -0.2391  0.3942
  933MOL0     N23075   6.878  11.177   6.389 -0.2158  1.1005  0.3189
  933MOL0     C23076   8.229  11.076   6.465  0.3521 -0.4452  0.1587
  933MOL0     C23077   8.330  10.977   6.480  0.3744  0.2193 -0.0133
  933MOL0     C23078   8.594  10.643   6.533 -0.1046  0.1145  0.4346
  933MOL0     C23079   8.669  10.610   6.646  0.2981  0.8577  0.1820
  933MOL0     C23080   8.807  10.568   6.643 -0.5867 -0.1968  0.7558
  933MOL0     C23081   8.869  10.556   6.519 -0.1336 -0.0925  0.1059
  933MOL0     O23082   8.992  10.512   6.502  0.1792 -0.3195  0.0011
  933MOL0     C23083   9.076  10.490   6.621  0.4807 -0.4102  0.6250
  933MOL0     C23084   9.222  10.449   6.589  0.1138  0.2267  0.4728
  933MOL0     C23085   9.299  10.391   6.715  0.3423  0.0886  1.0685
  933MOL0     C23086   9.451  10.390   6.692 -0.2292 -0.2122  0.1425
  933MOL0     C23087   9.517  10.521   6.694  0.1088  0.9508 -0.4149
  933MOL0     C23088   9.571  10.630   6.676  0.6689 -0.1723 -0.9890
  933MOL0     C23089   8.796  10.594   6.399 -0.6688  0.1911 -0.6240
  933MOL0     C23090   8.661  10.631   6.405 -0.3339 -0.0130 -0.0398
  933MOL0     H23091   8.172  10.709   6.364  2.6578  0.1220 -2.4865
  933MOL0     H23092   7.971  10.868   6.352  0.5601  0.9652 -1.2354
  933MOL0     H23093   7.855  11.046   6.534  0.7085  0.1538 -0.2193
  933MOL0     H23094   7.834  11.020   6.370  1.0696 -2.1409  1.4191
  933MOL0     H23095   7.783  11.270   6.335 -1.4790 -0.4840  0.1933
  933MOL0     H23096   7.816  11.289   6.509 -1.3717  0.5009  0.9981
  933MOL0     H23097   7.613  11.139   6.530 -0.1964  0.8413  0.7074
  933MOL0     H23098   7.600  11.120   6.358  0.3513  0.1267  0.1963
  933MOL0     H23099   7.586  11.381   6.488  0.8102 -1.3492  1.0169
  933MOL0     H23100   7.568  11.362   6.319  1.3959 -1.2311 -0.0490
  933MOL0     H23101   7.344  11.391   6.426 -0.1256 -0.0891  0.0695
  933MOL0     H23102   7.373  11.270   6.552  0.7889 -1.1587 -0.1696
  933MOL0     H23103   7.361  11.103   6.385 -1.0023  0.6852  0.8657
  933MOL0     H23104   7.359  11.221   6.255 -1.1612 -0.5125 -1.4057
  933MOL0     H23105   7.139  11.195   6.472  0.4758 -0.7585 -0.3228
  933MOL0     H23106   7.124  11.305   6.342 -1.4825 -0.7813  0.1922
  933MOL0     H23107   7.126  11.002   6.305  0.2800 -0.4560 -0.5339
  933MOL0     H23108   7.114  11.110   6.173  0.4689 -3.5661 -0.0685
  933MOL0     H23109   6.887  10.971   6.135 -0.4563  1.4462  0.3887
  933MOL0     H23110   6.538  11.030   6.290  0.5221 -3.2800  2.4904
  933MOL0     H23111   6.609  10.881   6.246  1.0702  0.2314  2.4933
  933MOL0     H23112   6.659  10.967   6.014  0.5129  0.1114 -0.1566
  933MOL0     H23113   6.617  11.134   6.046 -0.9958 -1.7742 -4.2516
  933MOL0     H23114   6.409  10.916   6.048  0.6094 -1.2517 -2.7338
  933MOL0     H23115   6.379  11.077   6.102  0.8210 -0.8198  0.6051
  933MOL0     H23116   6.407  10.976   5.822  3.2395 -2.2278  1.4597
  933MOL0     H23117   6.531  11.096   5.840  0.3318  0.5750  0.1418
  933MOL0     H23118   6.189  11.373   5.951  0.8187  0.4357  0.3396
  933MOL0     H23119   5.956  11.385   5.963 -1.5859 -1.4465  0.1674
  933MOL0     H23120   5.555  11.162   5.761  0.4918  2.3169 -2.1690
  933MOL0     H23121   5.301  11.182   5.790  1.0585 -2.5507  1.0263
  933MOL0     H23122   5.107  11.231   5.857  1.8460  0.3225  1.0460
  933MOL0     H23123   5.119  11.352   5.724 -1.8206  0.4109 -0.3679
  933MOL0     H23124   4.955  11.477   5.895  0.9351  1.8406 -2.2225
  933MOL0     H23125   4.891  11.321   5.900 -1.2598  0.5249 -0.3061
  933MOL0     H23126   4.883  11.338   5.642  3.1442  0.6438 -1.3523
  933MOL0     H23127   4.938  11.500   5.664 -0.0206 -2.0093 -3.8544
  933MOL0     H23128   4.698  11.427   5.832 -2.2785  2.8248  0.1210
  933MOL0     H23129   4.725  11.578   5.764 -1.8429  0.5607  0.3334
  933MOL0     H23130   4.593  11.349   5.636 -0.8768 -0.0840 -1.7219
  933MOL0     H23131   4.689  11.439   5.517  0.1797  0.8560 -0.6595
  933MOL0     H23132   4.612  11.645   5.572  0.8068 -0.2233  2.6532
  933MOL0     H23133   4.491  11.587   5.681 -0.1162 -1.8802  0.4950
  933MOL0     H23134   4.511  11.482   5.401  3.4544  3.4071 -0.9253
  933MOL0     H23135   4.363  11.488   5.498  0.2287  1.9800  2.3284
  933MOL0     H23136   4.318  11.650   5.346  1.0207 -3.0327 -0.5819
  933MOL0     H23137   4.475  11.731   5.369 -1.0428  3.4635  1.3278
  933MOL0     H23138   5.381  11.546   6.027  0.9767  1.9037 -1.1921
  933MOL0     H23139   5.621  11.482   6.024  2.5705 -2.2823 -0.6626
  933MOL0     H23140   5.922  10.973   5.862 -0.5340  0.9368 -1.6158
  933MOL0     H23141   6.170  10.956   5.852 -1.4275 -0.4792 -0.3452
  933MOL0     H23142   8.261  11.176   6.494 -0.5738 -0.5183  1.4991
  933MOL0     H23143   8.429  11.009   6.511 -0.3580  0.7820  1.9117
  933MOL0     H23144   8.627  10.634   6.743 -1.1074  0.2570 -0.2446
  933MOL0     H23145   8.856  10.549   6.738 -0.8100  1.1596  1.1619
  933MOL0     H23146   9.040  10.410   6.687  0.7471  0.5206  1.9458
  933MOL0     H23147   9.080  10.577   6.688  1.7780 -2.2561  3.1607
  933MOL0     H23148   9.221  10.366   6.519 -2.9802 -0.0167  0.7045
  933MOL0     H23149   9.270  10.540   6.552 -0.2671  1.1275  2.0953
  933MOL0     H23150   9.257  10.292   6.735 -1.6297  0.4769 -0.7976
  933MOL0     H23151   9.270  10.456   6.798 -4.1853  1.2359 -1.1034
  933MOL0     H23152   9.495  10.326   6.769 -0.9242 -0.5663  0.2613
  933MOL0     H23153   9.467  10.335   6.599 -0.9424 -1.9501  0.9809
  933MOL0     H23154   9.610  10.727   6.653  0.1602  1.0786  2.7765
  933MOL0     H23155   8.847  10.583   6.303  0.2121  1.1134 -0.2855
  933MOL0     H23156   8.620  10.640   6.305  2.3392  0.7508 -1.1739
  934MOL0     O23157   0.361   2.489   8.625  0.4440 -0.0047  0.1172
  934MOL0     C23158   0.350   2.372   8.593 -0.0425  0.6170  0.1487
  934MOL0     O23159   0.231   2.300   8.591  0.5242  0.4132 -0.5337
  934MOL0     C23160   0.108   2.364   8.621 -1.2326  0.6416 -0.2491
  934MOL0     C23161   0.082   2.459   8.718 -0.0014 -0.3181  0.3245
  934MOL0     C23162  -0.042   2.508   8.724  0.1817 -0.1435  0.3833
  934MOL0     C23163  -0.148   2.458   8.653 -0.1747  0.5717 -0.4568
  934MOL0     O23164  -0.272   2.509   8.673  0.6487  0.8738  0.3003
  934MOL0     C23165  -0.351   2.533   8.554 -0.2067 -0.2538 -0.4541
  934MOL0     C23166  -0.483   2.607   8.599 -0.0530 -0.2257 -1.0850
  934MOL0     C23167  -0.568   2.638   8.480  0.6937 -0.7788 -0.1621
  934MOL0     C23168  -0.666   2.744   8.529  0.7154 -0.3706  0.1198
  934MOL0     C23169  -0.799   2.720   8.452  0.1071 -0.2436 -0.7929
  934MOL0     C23170  -0.910   2.831   8.460  0.0108  0.4460  0.1221
  934MOL0     C23171  -0.991   2.834   8.593  0.4771  0.0515  0.0686
  934MOL0     C23172  -1.064   2.965   8.620  0.0229 -0.3659 -0.1686
  934MOL0     N23173  -1.147   3.011   8.507 -0.7700  0.3173 -0.7883
  934MOL0     C23174  -1.273   2.976   8.495 -0.4300 -0.4806  0.4838
  934MOL0     C23175  -1.317   3.045   8.392  0.0122 -0.0624  0.5742
  934MOL0     C23176  -1.462   3.035   8.349 -0.2763  0.8936 -0.4066
  934MOL0     C23177  -1.510   2.898   8.291  0.5832 -0.0021  0.0394
  934MOL0     C23178  -1.655   2.907   8.233  0.1751 -0.4219  0.2255
  934MOL0     C23179  -1.732   2.776   8.222  0.4175  0.4398  0.4348
  934MOL0     O23180  -1.817   2.790   8.104  0.0857  0.6037  0.2244
  934MOL0     C23181  -1.896   2.679   8.076 -0.6542 -0.1069  0.5014
  934MOL0     C23182  -1.848   2.555   8.066 -0.4881  0.5953 -0.1624
  934MOL0     C23183  -1.938   2.450   8.034 -0.3075 -0.1998 -0.2011
  934MOL0     C23184  -2.073   2.476   8.000 -0.2689  0.0139  0.4158
  934MOL0     C23185  -2.168   2.363   7.971 -0.1091  0.2090  0.3934
  934MOL0     O23186  -2.290   2.393   7.918 -0.0680  0.1705  0.2316
  934MOL0     C23187  -2.376   2.293   7.860 -0.3182 -0.9234  0.1189
  934MOL0     C23188  -2.495   2.346   7.802  0.7633  0.9158 -1.0767
  934MOL0     C23189  -2.598   2.263   7.751 -0.7462 -0.9156  0.0155
  934MOL0     C23190  -2.570   2.121   7.751 -0.7705 -0.5726 -0.4421
  934MOL0     O23191  -2.656   2.024   7.700 -0.1274 -0.6044 -0.0922
  934MOL0     C23192  -2.790   2.063   7.658 -0.6963 -0.3416  0.1607
  934MOL0     C23193  -2.865   1.941   7.612  1.0168  1.0023 -0.0618
  934MOL0     C23194  -3.004   1.984   7.556 -0.4075 -0.9272 -0.8551
  934MOL0     C23195  -3.110   1.880   7.582 -0.3078  0.3402  0.0750
  934MOL0     C23196  -3.250   1.929   7.538 -0.2889  0.1648 -0.4398
  934MOL0     C23197  -3.358   1.810   7.551 -0.8896  0.3632 -0.1856
  934MOL0     C23198  -3.499   1.865   7.527  0.4270  1.1929 -0.3938
  934MOL0     C23199  -3.597   1.743   7.520  0.4626 -0.0026 -0.2179
  934MOL0    Cl23200  -3.548   1.651   7.379  0.5703  0.5303  0.3391
  934MOL0     C23201  -2.457   2.074   7.811 -0.3185  0.0332 -0.2701
  934MOL0     C23202  -2.356   2.151   7.861  0.2137 -0.2192  0.6757
  934MOL0     O23203  -2.133   2.253   8.006 -0.2005  0.1500 -0.6302
  934MOL0     C23204  -2.114   2.614   8.005 -0.8126  0.2512 -0.3520
  934MOL0     C23205  -2.026   2.716   8.039  0.1066 -0.1526 -0.0923
  934MOL0     N23206  -1.210   3.115   8.339 -0.5309 -0.3372 -0.2550
  934MOL0     N23207  -1.103   3.101   8.417  0.8425 -0.1008 -0.2583
  934MOL0     C23208  -0.127   2.348   8.571  0.2154  0.5671 -0.4881
  934MOL0     C23209   0.004   2.297   8.557 -0.4935  0.6045  0.5145
  934MOL0     C23210   0.473   2.297   8.563 -0.1272  0.2619  0.0986
  934MOL0     C23211   0.462   2.156   8.531  0.3282  0.6602 -1.1416
  934MOL0     C23212   0.574   2.083   8.487  0.5487 -0.0377 -0.7958
  934MOL0     C23213   0.697   2.145   8.484 -0.8426 -0.7535  1.0466
  934MOL0     O23214   0.813   2.082   8.457  0.0279  0.2315  0.1324
  934MOL0     C23215   0.814   1.935   8.438 -0.0012 -0.5731  0.4906
  934MOL0     C23216   0.940   1.893   8.355  0.5768  0.5014  0.0505
  934MOL0     C23217   1.071   1.937   8.424 -0.8758  0.8122  0.0616
  934MOL0     C23218   1.198   1.914   8.339  0.0407  0.7369  0.1705
  934MOL0     C23219   1.220   1.772   8.316 -0.5648 -0.4322  0.8087
  934MOL0     C23220   1.260   1.662   8.296  0.2715  0.6873  0.2645
  934MOL0     C23221   0.712   2.283   8.528  0.1879 -0.1926  0.2843
  934MOL0     C23222   0.599   2.357   8.568  0.1510  0.3521 -0.4421
  934MOL0     H23223   0.165   2.509   8.767 -1.0532  1.5222  0.3134
  934MOL0     H23224  -0.065   2.584   8.798  0.8120 -2.7915  3.5574
  934MOL0     H23225  -0.390   2.445   8.503 -0.6996  0.7558 -1.8895
  934MOL0     H23226  -0.294   2.593   8.482  1.3203  1.8537  2.3156
  934MOL0     H23227  -0.458   2.703   8.645 -0.7212 -0.9420  0.8432
  934MOL0     H23228  -0.540   2.553   8.675  1.9923  0.8664  1.3587
  934MOL0     H23229  -0.624   2.551   8.446  2.2354 -2.0996  0.5509
  934MOL0     H23230  -0.502   2.680   8.403 -0.3786 -0.3607 -0.8714
  934MOL0     H23231  -0.685   2.729   8.636 -1.7077 -0.5098 -0.2629
  934MOL0     H23232  -0.624   2.844   8.520  3.8922 -1.6243 -0.0278
  934MOL0     H23233  -0.851   2.628   8.479 -1.4157  0.9784  0.6014
  934MOL0     H23234  -0.782   2.693   8.347 -0.8102 -0.9432 -0.7719
  934MOL0     H23235  -0.989   2.802   8.390 -1.9464 -0.1145  2.4163
  934MOL0     H23236  -0.870   2.928   8.430 -0.6935  1.0814  1.1783
  934MOL0     H23237  -1.068   2.757   8.592  0.2137  0.2296  2.0600
  934MOL0     H23238  -0.930   2.815   8.682 -2.5326  1.2689  2.6147
  934MOL0     H23239  -0.990   3.043   8.642 -1.3262  0.7868  0.4546
  934MOL0     H23240  -1.127   2.961   8.709  1.2532 -1.7487  0.6937
  934MOL0     H23241  -1.338   2.912   8.555  0.4473 -3.8087 -1.8441
  934MOL0     H23242  -1.485   3.116   8.278  0.2204 -1.0219 -2.9248
  934MOL0     H23243  -1.535   3.043   8.430 -1.6826 -0.2372 -1.5068
  934MOL0     H23244  -1.498   2.820   8.367  2.9074  1.3660  1.1778
  934MOL0     H23245  -1.441   2.860   8.215  0.4569 -1.3185  0.5595
  934MOL0     H23246  -1.713   2.975   8.297  0.2074  1.2044 -1.3711
  934MOL0     H23247  -1.645   2.959   8.138  1.0584  0.7926  0.9445
  934MOL0     H23248  -1.775   2.742   8.317 -2.9103  1.9853 -0.3698
  934MOL0     H23249  -1.654   2.704   8.197 -1.1154 -2.1372  2.6156
  934MOL0     H23250  -1.744   2.534   8.090 -0.2710 -1.2093 -2.3830
  934MOL0     H23251  -1.911   2.345   8.029 -0.7546 -0.2726 -1.4724
  934MOL0     H23252  -2.525   2.449   7.813 -0.8403  0.3275  0.6112
  934MOL0     H23253  -2.686   2.304   7.703  0.4422  2.9518  0.8081
  934MOL0     H23254  -2.775   2.133   7.576  3.4740 -0.2670  0.7377
  934MOL0     H23255  -2.848   2.114   7.736  1.7566  1.7831  0.7367
  934MOL0     H23256  -2.875   1.874   7.698  0.5328  0.4319 -0.5479
  934MOL0     H23257  -2.815   1.887   7.532  0.2998 -1.3929  1.0158
  934MOL0     H23258  -3.001   1.988   7.446 -2.2929 -0.5908 -0.9388
  934MOL0     H23259  -3.043   2.077   7.600 -0.0951 -1.0152 -0.3961
  934MOL0     H23260  -3.076   1.785   7.540  0.9685  0.4068  0.9040
  934MOL0     H23261  -3.111   1.866   7.690 -0.5839 -0.8436 -0.0674
  934MOL0     H23262  -3.245   1.969   7.436 -0.7050  3.1142  0.6179
  934MOL0     H23263  -3.288   2.015   7.593 -0.2303  1.9138 -2.9403
  934MOL0     H23264  -3.342   1.773   7.652  1.3031 -1.4026 -1.1277
  934MOL0     H23265  -3.328   1.730   7.483  0.2301 -0.0860  0.8139
  934MOL0     H23266  -3.528   1.940   7.601  2.5317  0.2037  1.5593
  934MOL0     H23267  -3.496   1.898   7.422  1.6727 -2.0343 -1.4954
  934MOL0     H23268  -3.694   1.793   7.520  1.8867  3.0333  0.3837
  934MOL0     H23269  -3.588   1.686   7.612 -0.6437  0.5893  0.2683
  934MOL0     H23270  -2.437   1.967   7.813  3.0257  0.5246 -1.3590
  934MOL0     H23271  -2.265   2.106   7.900  1.5842  2.4867  0.9037
  934MOL0     H23272  -2.213   2.642   7.970 -0.5718  1.1430 -0.3531
  934MOL0     H23273  -2.056   2.820   8.043  1.9380  0.3828  0.8245
  934MOL0     H23274  -0.213   2.288   8.544 -0.4309  1.9276 -1.6090
  934MOL0     H23275   0.021   2.212   8.493 -1.0185  1.4676 -0.8267
  934MOL0     H23276   0.364   2.110   8.537 -0.2302  2.0040  1.5323
  934MOL0     H23277   0.556   1.979   8.461  6.0691 -1.6577  0.3257
  934MOL0     H23278   0.722   1.896   8.393 -0.5406 -0.3052  1.3477
  934MOL0     H23279   0.806   1.891   8.537  0.7413  0.0896  0.8517
  934MOL0     H23280   0.947   1.788   8.324 -0.3881  0.7990 -1.2818
  934MOL0     H23281   0.946   1.949   8.261 -0.9674  0.2340 -0.2364
  934MOL0     H23282   1.084   1.885   8.519  0.1448  1.8407  0.4936
  934MOL0     H23283   1.058   2.043   8.446 -1.8416  0.6725  0.2267
  934MOL0     H23284   1.182   1.963   8.242 -2.3262 -0.7754 -0.2830
  934MOL0     H23285   1.291   1.949   8.384  0.5161 -1.2333  0.8011
  934MOL0     H23286   1.295   1.562   8.281 -1.4625 -0.0136  0.6363
  934MOL0     H23287   0.815   2.317   8.520 -0.5485  2.7004  1.7356
  934MOL0     H23288   0.605   2.461   8.597 -0.4871  0.3173 -0.1564
  935MOL0     O23289   4.158   3.545   9.966 -1.0721  0.3908  0.3072
  935MOL0     C23290   4.235   3.493   9.888  0.1247  0.0451  0.3489
  935MOL0     O23291   4.206   3.388   9.805  0.6894 -0.5423  0.4910
  935MOL0     C23292   4.070   3.360   9.788 -0.0062  0.1521  1.0127
  935MOL0     C23293   3.973   3.458   9.771 -0.1833 -0.1339  0.6118
  935MOL0     C23294   3.834   3.426   9.761  0.0995  0.2396  0.5120
  935MOL0     C23295   3.791   3.288   9.753  0.0865  0.2400  0.2958
  935MOL0     O23296   3.660   3.242   9.745 -0.7290  0.6907 -0.1289
  935MOL0     C23297   3.555   3.333   9.807  0.4389  0.2729 -0.2933
  935MOL0     C23298   3.416   3.256   9.807  0.0367 -0.2436  0.5081
  935MOL0     C23299   3.297   3.336   9.862 -0.3783 -0.8967  0.4106
  935MOL0     C23300   3.167   3.254   9.890  0.0331  0.4013 -0.2968
  935MOL0     C23301   3.049   3.333   9.930  0.3477  0.2199  0.1140
  935MOL0     C23302   2.938   3.241   9.974  0.6512 -0.5376  0.5380
  935MOL0     C23303   2.799   3.308   9.983 -0.0710 -0.4229 -0.4163
  935MOL0     C23304   2.701   3.203  10.043 -0.3411 -0.5700  0.3586
  935MOL0     N23305   2.573   3.267  10.046  0.1290  0.3993 -0.0193
  935MOL0     C23306   2.501   3.316  10.157  0.6427  0.1469 -0.2937
  935MOL0     C23307   2.386   3.367  10.120  0.4042  0.3287 -0.3429
  935MOL0     C23308   2.284   3.436  10.203  0.2644 -0.1219 -1.1568
  935MOL0     C23309   2.153   3.350  10.219  0.2546  0.2019  0.7711
  935MOL0     C23310   2.054   3.413  10.312 -0.4138 -0.8555 -0.3268
  935MOL0     C23311   1.932   3.317  10.318  0.8659 -0.3618 -0.7980
  935MOL0     O23312   1.841   3.353  10.435  0.3022 -0.4680  0.0711
  935MOL0     C23313   1.754   3.456  10.419 -1.1267  1.0495 -0.6841
  935MOL0     C23314   1.655   3.453  10.523 -0.4601 -0.3547  0.7235
  935MOL0     C23315   1.551   3.544  10.531 -0.4050  0.3523 -0.1988
  935MOL0     C23316   1.546   3.652  10.434  0.2131  0.1634 -0.6466
  935MOL0     C23317   1.426   3.737  10.415 -0.2898 -0.2238 -0.8659
  935MOL0     O23318   1.326   3.731  10.503  0.0511  0.3643 -0.3430
  935MOL0     C23319   1.209   3.798  10.483 -0.8638 -0.6180 -0.0066
  935MOL0     C23320   1.158   3.869  10.592  1.1046 -0.5612 -0.2431
  935MOL0     C23321   1.036   3.947  10.574 -0.3797  0.4499 -0.5725
  935MOL0     C23322   0.975   3.959  10.451 -0.1641  0.3894  0.6862
  935MOL0     O23323   0.862   4.024  10.444  0.2496 -0.1059  0.0177
  935MOL0     C23324   0.828   4.078  10.317 -0.1654  1.2859 -0.3361
  935MOL0     C23325   0.718   4.181  10.343 -0.0054 -0.0087  1.1394
  935MOL0     C23326   0.585   4.114  10.382 -0.3415 -0.0761  1.8185
  935MOL0     C23327   0.512   4.048  10.263  0.9160 -0.0935  0.4101
  935MOL0     C23328   0.373   3.997  10.299  0.2971  0.1103  0.1750
  935MOL0     C23329   0.284   3.971  10.175  0.9492  0.2957 -0.3665
  935MOL0     C23330   0.138   3.965  10.215  0.6789 -0.1087  0.2380
  935MOL0     C23331   0.048   3.968  10.097 -0.2084 -0.9083  0.7855
  935MOL0    Cl23332  -0.118   3.899  10.123 -0.1178 -0.5445 -0.1957
  935MOL0     C23333   1.034   3.885  10.344  0.4670 -0.2613 -0.0711
  935MOL0     C23334   1.139   3.805  10.355  0.4912 -0.8054 -0.3976
  935MOL0     O23335   1.432   3.808  10.315 -0.1255  0.3979 -0.2920
  935MOL0     C23336   1.649   3.655  10.333 -0.1168 -0.0698 -0.2281
  935MOL0     C23337   1.754   3.562  10.328  0.4685  0.9031 -1.3170
  935MOL0     N23338   2.375   3.334   9.982  0.2777 -0.4501 -0.2413
  935MOL0     N23339   2.477   3.257   9.953 -0.0126 -0.4704  0.5928
  935MOL0     C23340   3.891   3.191   9.767  0.0988  0.2758 -0.2676
  935MOL0     C23341   4.029   3.227   9.769  0.0331 -0.0481 -0.2523
  935MOL0     C23342   4.371   3.546   9.885  0.2587 -0.2712 -0.5102
  935MOL0     C23343   4.473   3.469   9.827  0.0859  0.5271 -0.5446
  935MOL0     C23344   4.599   3.528   9.802  0.8234  0.7170 -0.3446
  935MOL0     C23345   4.625   3.662   9.835  0.7530  0.0012  0.2860
  935MOL0     O23346   4.747   3.732   9.816 -0.0351 -0.1170  0.4973
  935MOL0     C23347   4.871   3.661   9.825  0.4423  0.3100  0.8147
  935MOL0     C23348   4.909   3.600   9.955 -0.2189 -0.2771  0.0805
  935MOL0     C23349   4.933   3.703  10.062  0.1314 -1.0637  0.0859
  935MOL0     C23350   5.074   3.770  10.050  0.1103 -0.5344 -0.2252
  935MOL0     C23351   5.171   3.684  10.123 -0.3236 -0.1086 -0.2895
  935MOL0     C23352   5.245   3.605  10.179  0.1938  0.5974  0.1332
  935MOL0     C23353   4.524   3.739   9.879  0.6076 -0.2451 -0.7250
  935MOL0     C23354   4.397   3.679   9.902 -0.2782  0.0891  0.4795
  935MOL0     H23355   3.999   3.563   9.761  0.2860 -0.3750 -0.8674
  935MOL0     H23356   3.760   3.505   9.752  2.5274  2.7274  1.2286
  935MOL0     H23357   3.534   3.418   9.741  0.9920 -0.3024 -1.2401
  935MOL0     H23358   3.577   3.367   9.908  1.1252  0.8417 -0.6220
  935MOL0     H23359   3.430   3.171   9.875  0.0764  1.4151  2.6608
  935MOL0     H23360   3.393   3.208   9.711  2.1189 -1.5888  0.6076
  935MOL0     H23361   3.281   3.427   9.803  1.3938  0.5136  1.9987
  935MOL0     H23362   3.344   3.363   9.957  1.0489 -0.9375 -0.2686
  935MOL0     H23363   3.134   3.189   9.808 -2.8316  0.1584  0.9248
  935MOL0     H23364   3.195   3.194   9.977 -0.9684  0.3821  0.0235
  935MOL0     H23365   3.030   3.399   9.844 -1.2543 -0.2912  0.0509
  935MOL0     H23366   3.082   3.405  10.006 -0.6601  1.8835 -0.9463
  935MOL0     H23367   2.961   3.196  10.071  2.8746 -1.8587 -0.5319
  935MOL0     H23368   2.929   3.157   9.904 -0.6855  1.8144 -2.3593
  935MOL0     H23369   2.814   3.398  10.043  2.3363 -0.3526 -1.0108
  935MOL0     H23370   2.748   3.341   9.892 -3.1760  1.0838  1.7020
  935MOL0     H23371   2.734   3.178  10.144  0.1594 -0.4059  0.2411
  935MOL0     H23372   2.688   3.120   9.972  1.4739 -0.6529  0.0738
  935MOL0     H23373   2.532   3.310  10.261 -0.8924 -0.1599  0.1691
  935MOL0     H23374   2.262   3.538  10.170 -2.8936 -0.0474  0.7524
  935MOL0     H23375   2.328   3.443  10.303 -1.6890 -2.1716 -0.0601
  935MOL0     H23376   2.172   3.245  10.246  1.1275  0.7889  2.5661
  935MOL0     H23377   2.108   3.342  10.120  2.8434  0.3425 -0.5064
  935MOL0     H23378   2.100   3.431  10.410 -1.2476  1.3231 -0.2895
  935MOL0     H23379   2.037   3.512  10.270  3.6967  1.1753  2.0931
  935MOL0     H23380   1.961   3.212  10.326 -2.3373 -1.2854  0.1636
  935MOL0     H23381   1.873   3.317  10.226 -1.3257  4.6815  0.2723
  935MOL0     H23382   1.647   3.371  10.593 -0.4794 -0.0574  1.0747
  935MOL0     H23383   1.471   3.531  10.603 -0.3952  1.4911  0.0394
  935MOL0     H23384   1.205   3.862  10.690  1.2206  1.8587 -0.0811
  935MOL0     H23385   1.001   3.997  10.664  2.2273  0.6667  0.3923
  935MOL0     H23386   0.794   3.996  10.252  0.7615  0.4895  0.1535
  935MOL0     H23387   0.910   4.133  10.271 -3.1230  4.3532 -2.4471
  935MOL0     H23388   0.706   4.237  10.250 -0.2916 -2.2093 -0.2034
  935MOL0     H23389   0.764   4.252  10.413  1.1689 -1.1481  1.5589
  935MOL0     H23390   0.512   4.184  10.423 -1.5981  1.0292 -1.9527
  935MOL0     H23391   0.605   4.037  10.457 -0.5364 -2.1670 -0.1834
  935MOL0     H23392   0.518   4.118  10.179  1.6134 -0.8318 -0.1761
  935MOL0     H23393   0.574   3.968  10.219 -0.0444  1.0918 -3.5356
  935MOL0     H23394   0.331   4.079  10.357  1.2697  2.0725 -1.7805
  935MOL0     H23395   0.381   3.898  10.346 -0.0239 -0.4447 -0.9082
  935MOL0     H23396   0.314   3.883  10.119 -0.3085 -1.0287  0.9691
  935MOL0     H23397   0.297   4.058  10.109 -2.9893  0.5591 -1.0370
  935MOL0     H23398   0.124   3.874  10.274  2.6481 -2.0140 -1.9976
  935MOL0     H23399   0.127   4.049  10.284  1.7558  0.9230 -0.7890
  935MOL0     H23400   0.093   3.915  10.013  0.9548 -1.2530  1.5946
  935MOL0     H23401   0.039   4.072  10.064  0.4277 -1.0903  0.0073
  935MOL0     H23402   0.988   3.885  10.245 -1.2790 -1.0287  0.7020
  935MOL0     H23403   1.182   3.755  10.269  1.7945  0.6823 -0.6515
  935MOL0     H23404   1.646   3.733  10.258 -1.3161 -1.4076 -1.6398
  935MOL0     H23405   1.828   3.564  10.249  0.7019  1.0609 -1.0966
  935MOL0     H23406   3.862   3.087   9.765 -1.6405  0.7039  0.5986
  935MOL0     H23407   4.105   3.150   9.772 -1.3872 -1.4876  0.4227
  935MOL0     H23408   4.467   3.364   9.798 -1.7455  0.2137  0.7719
  935MOL0     H23409   4.670   3.459   9.759 -3.2211 -3.4509 -1.1371
  935MOL0     H23410   4.950   3.730   9.793  1.8747 -0.4699  2.4835
  935MOL0     H23411   4.875   3.577   9.756 -2.2757  0.4636  0.3610
  935MOL0     H23412   4.826   3.535   9.984  1.1360 -2.0242  0.2010
  935MOL0     H23413   4.999   3.538   9.951 -0.3913 -0.5094 -0.2632
  935MOL0     H23414   4.918   3.656  10.159  0.0394  0.9967  1.1277
  935MOL0     H23415   4.857   3.780  10.051 -0.3748 -1.3091  1.6271
  935MOL0     H23416   5.102   3.769   9.945 -1.6872  0.2501 -0.7451
  935MOL0     H23417   5.070   3.866  10.103  0.0516  0.3581 -1.7942
  935MOL0     H23418   5.304   3.530  10.227 -0.4610 -0.2053 -0.2871
  935MOL0     H23419   4.541   3.846   9.891 -1.6013  0.5082 -3.3814
  935MOL0     H23420   4.321   3.749   9.933  0.3283  0.7583  0.4718
  936MOL0     O23421   1.876   1.513   1.323 -0.3518 -0.6889 -0.0271
  936MOL0     C23422   1.958   1.605   1.301 -0.5042 -0.1485  0.5728
  936MOL0     O23423   1.936   1.741   1.298  0.6892  0.4356  1.0029
  936MOL0     C23424   1.811   1.790   1.316  0.4134  0.5304 -0.5359
  936MOL0     C23425   1.718   1.747   1.417  0.0363 -0.1555  0.4713
  936MOL0     C23426   1.593   1.810   1.423  0.2200  0.6600  0.5650
  936MOL0     C23427   1.568   1.924   1.348  0.4401  0.1262  1.1957
  936MOL0     O23428   1.456   2.004   1.374  0.8896  0.3926  0.6229
  936MOL0     C23429   1.473   2.095   1.481  0.4530  0.8962 -0.0821
  936MOL0     C23430   1.408   2.225   1.447 -0.1579 -0.2559 -0.4547
  936MOL0     C23431   1.264   2.202   1.410  0.0651 -0.2817  0.3746
  936MOL0     C23432   1.165   2.318   1.445 -0.1346 -0.1114  0.1562
  936MOL0     C23433   1.024   2.312   1.376  0.0446 -0.1873  0.3064
  936MOL0     C23434   0.915   2.388   1.463 -0.2778  0.1853  0.5328
  936MOL0     C23435   0.796   2.439   1.389  0.7375  0.0181 -0.2657
  936MOL0     C23436   0.711   2.335   1.328  1.2146  0.1193 -0.6241
  936MOL0     N23437   0.599   2.384   1.257  0.0565  0.0401  0.0440
  936MOL0     C23438   0.467   2.381   1.303 -0.7003 -0.2438 -0.4361
  936MOL0     C23439   0.400   2.444   1.200  0.1990 -0.3378  1.1210
  936MOL0     C23440   0.249   2.480   1.190  0.2361 -0.3905 -0.0545
  936MOL0     C23441   0.218   2.589   1.093  0.3518 -0.4648  0.3234
  936MOL0     C23442   0.198   2.544   0.945  0.7075 -0.6354  0.3220
  936MOL0     C23443   0.056   2.492   0.917 -0.1036  0.1419 -0.0036
  936MOL0     O23444   0.017   2.519   0.786  0.4779 -0.3519 -0.1272
  936MOL0     C23445  -0.109   2.478   0.743 -0.6830  0.7500  0.2239
  936MOL0     C23446  -0.165   2.511   0.621  0.1081  0.5404 -0.7142
  936MOL0     C23447  -0.281   2.452   0.566  0.1986  0.0876  0.8727
  936MOL0     C23448  -0.359   2.368   0.638  0.1477  0.7046 -0.2742
  936MOL0     C23449  -0.491   2.317   0.585  0.6875 -0.7425  0.6143
  936MOL0     O23450  -0.532   2.358   0.457  0.1018 -0.4722 -0.5365
  936MOL0     C23451  -0.633   2.286   0.414  0.9809  0.0698  0.2919
  936MOL0     C23452  -0.765   2.306   0.467 -0.2591 -0.0539 -0.1454
  936MOL0     C23453  -0.873   2.213   0.438 -0.5773 -1.1187  0.1659
  936MOL0     C23454  -0.858   2.108   0.353 -1.2468 -0.5118  0.1121
  936MOL0     O23455  -0.962   2.024   0.325 -0.1792  0.3723  0.2651
  936MOL0     C23456  -0.991   1.995   0.184  0.7415  0.2098 -0.5312
  936MOL0     C23457  -0.935   1.857   0.135 -0.8525 -0.1276 -0.8416
  936MOL0     C23458  -0.919   1.855  -0.022 -0.3558  0.8518  0.6142
  936MOL0     C23459  -0.883   1.719  -0.092  0.3257 -0.1896 -0.3002
  936MOL0     C23460  -0.885   1.732  -0.252  0.2770 -0.4053  0.6860
  936MOL0     C23461  -0.746   1.746  -0.307 -0.0139 -1.0267 -0.0819
  936MOL0     C23462  -0.747   1.723  -0.456  0.0676 -0.0521 -0.1449
  936MOL0     C23463  -0.606   1.683  -0.504 -0.0953  0.9775  0.6829
  936MOL0    Cl23464  -0.485   1.816  -0.482 -0.1386 -0.1665 -0.0856
  936MOL0     C23465  -0.727   2.092   0.297 -0.4994 -0.0099  0.5991
  936MOL0     C23466  -0.622   2.181   0.328 -0.4385  0.3418  0.8692
  936MOL0     O23467  -0.552   2.241   0.663 -0.2224 -0.2279  0.5639
  936MOL0     C23468  -0.319   2.342   0.769 -0.0299 -0.4235 -0.8528
  936MOL0     C23469  -0.193   2.389   0.820 -0.4910 -0.0555 -0.1764
  936MOL0     N23470   0.491   2.473   1.098  0.3898 -0.7909 -0.9594
  936MOL0     N23471   0.603   2.432   1.132  0.0460  0.6827  0.3299
  936MOL0     C23472   1.664   1.968   1.256 -0.2146  0.1430 -0.5935
  936MOL0     C23473   1.780   1.898   1.236 -1.1431  0.5079 -0.0130
  936MOL0     C23474   2.091   1.562   1.282 -0.6609 -0.2108  0.7860
  936MOL0     C23475   2.115   1.426   1.251 -0.3420 -0.0387 -0.2541
  936MOL0     C23476   2.250   1.391   1.228 -0.2333 -0.4160  0.3954
  936MOL0     C23477   2.354   1.485   1.218 -0.3976 -0.0321 -0.3648
  936MOL0     O23478   2.487   1.462   1.194 -0.8113 -0.9726 -0.1517
  936MOL0     C23479   2.529   1.332   1.162 -0.0985  0.0844 -0.6748
  936MOL0     C23480   2.683   1.320   1.153 -0.0648  0.0185  0.3866
  936MOL0     C23481   2.739   1.174   1.168  0.0949 -0.5562  0.2255
  936MOL0     C23482   2.893   1.175   1.161 -0.0711 -0.1011 -0.0170
  936MOL0     C23483   2.931   1.210   1.024  0.3552 -0.8562  0.7374
  936MOL0     C23484   2.964   1.244   0.911 -0.0612 -0.2340  0.0483
  936MOL0     C23485   2.324   1.617   1.250 -0.1820  0.4636 -0.7724
  936MOL0     C23486   2.192   1.659   1.279  0.9318 -0.5503 -0.1186
  936MOL0     H23487   1.749   1.672   1.488 -0.9077 -2.0539 -1.0173
  936MOL0     H23488   1.520   1.784   1.500  1.0855 -1.3538  0.7702
  936MOL0     H23489   1.578   2.101   1.514  1.1250 -2.0394 -1.3599
  936MOL0     H23490   1.415   2.053   1.564 -1.2752 -0.1649 -1.7630
  936MOL0     H23491   1.461   2.280   1.369 -0.7393  1.0126  0.0195
  936MOL0     H23492   1.410   2.286   1.537  0.1306  1.7696 -1.7736
  936MOL0     H23493   1.231   2.104   1.445 -0.8269  0.1831  0.8605
  936MOL0     H23494   1.261   2.189   1.302 -0.5768 -1.6948  0.5485
  936MOL0     H23495   1.155   2.322   1.554  0.3255  0.3866  0.1823
  936MOL0     H23496   1.221   2.410   1.427 -0.3412 -0.2342 -1.2088
  936MOL0     H23497   1.000   2.205   1.374  1.2214 -0.4539 -1.2738
  936MOL0     H23498   1.022   2.348   1.273 -0.3837 -1.7026 -0.2413
  936MOL0     H23499   0.953   2.471   1.523  0.8238 -0.7726  1.1965
  936MOL0     H23500   0.881   2.310   1.532  0.2107  0.4840  1.1152
  936MOL0     H23501   0.731   2.501   1.451  1.6353  1.7453 -0.9723
  936MOL0     H23502   0.825   2.516   1.317  0.2077  0.2060 -0.2781
  936MOL0     H23503   0.687   2.253   1.396  0.4250 -0.2421 -1.3215
  936MOL0     H23504   0.773   2.283   1.254  1.3729 -0.0266 -0.3861
  936MOL0     H23505   0.424   2.338   1.393  0.1546  0.0287  0.1137
  936MOL0     H23506   0.204   2.503   1.287 -2.8492 -1.8292 -1.0126
  936MOL0     H23507   0.197   2.388   1.162 -0.7798  0.7968 -2.3705
  936MOL0     H23508   0.297   2.664   1.104  0.4900 -0.6657  0.7082
  936MOL0     H23509   0.128   2.641   1.126  0.7710  0.9162 -0.6172
  936MOL0     H23510   0.214   2.633   0.884  2.3937 -0.4221  1.0255
  936MOL0     H23511   0.279   2.476   0.919  2.2473  0.6413  1.5728
  936MOL0     H23512  -0.012   2.534   0.992  0.2466 -1.7138  1.4316
  936MOL0     H23513   0.063   2.387   0.945  1.4861  0.3222  0.3575
  936MOL0     H23514  -0.111   2.578   0.554 -0.3303  0.8262 -0.7874
  936MOL0     H23515  -0.307   2.483   0.465 -0.0293 -1.1788  0.5302
  936MOL0     H23516  -0.776   2.385   0.541 -0.0852  1.2417 -1.4779
  936MOL0     H23517  -0.967   2.239   0.486  0.2197  1.0924  0.6872
  936MOL0     H23518  -0.934   2.071   0.130 -1.4307  2.1442 -0.2522
  936MOL0     H23519  -1.097   2.007   0.159  0.5881 -4.2949 -3.1063
  936MOL0     H23520  -1.010   1.780   0.157 -3.6649  2.6820 -0.0286
  936MOL0     H23521  -0.838   1.847   0.185 -0.9177  3.6666  0.3322
  936MOL0     H23522  -0.844   1.931  -0.047  0.1231 -0.1580 -1.1366
  936MOL0     H23523  -1.012   1.887  -0.070 -0.8214  0.9629  1.5721
  936MOL0     H23524  -0.786   1.677  -0.063  0.5118 -0.3769 -1.1833
  936MOL0     H23525  -0.965   1.653  -0.062  0.8281  0.5041  3.1021
  936MOL0     H23526  -0.944   1.813  -0.296 -0.5256 -0.5781  1.4155
  936MOL0     H23527  -0.926   1.637  -0.288  0.5974 -0.3835  0.2534
  936MOL0     H23528  -0.690   1.666  -0.258 -2.3069 -2.3630  0.5200
  936MOL0     H23529  -0.717   1.848  -0.282  1.9449 -0.7754 -2.8513
  936MOL0     H23530  -0.806   1.634  -0.479  0.6132 -0.3339 -0.4576
  936MOL0     H23531  -0.791   1.809  -0.508 -1.5849 -1.6300 -1.4982
  936MOL0     H23532  -0.620   1.659  -0.609  0.0701  3.0664  0.1348
  936MOL0     H23533  -0.565   1.595  -0.454  3.2778  1.3059 -1.2304
  936MOL0     H23534  -0.702   2.007   0.235 -1.2363  0.8312 -0.8896
  936MOL0     H23535  -0.523   2.168   0.286  0.4960  1.5109  2.6250
  936MOL0     H23536  -0.378   2.282   0.838  0.9735 -1.3552 -0.7768
  936MOL0     H23537  -0.168   2.359   0.921  0.1416  4.5291  1.2149
  936MOL0     H23538   1.640   2.050   1.190 -0.5138 -1.3894 -2.5064
  936MOL0     H23539   1.847   1.929   1.156  0.1425  0.3809  0.9772
  936MOL0     H23540   2.037   1.352   1.258  0.4685 -0.7562  2.1248
  936MOL0     H23541   2.271   1.289   1.198 -0.5209 -0.1386 -0.7752
  936MOL0     H23542   2.479   1.312   1.066  0.5850  0.0988 -1.0396
  936MOL0     H23543   2.500   1.260   1.239  2.0419  0.4963  0.5825
  936MOL0     H23544   2.723   1.366   1.062  2.0979  1.3399  1.8961
  936MOL0     H23545   2.726   1.377   1.236  0.5479  2.1442 -1.3213
  936MOL0     H23546   2.700   1.104   1.095  0.8723 -1.1832  0.4006
  936MOL0     H23547   2.703   1.134   1.263 -0.7580 -1.6088 -0.5164
  936MOL0     H23548   2.933   1.251   1.229 -2.4144  0.7703  0.4645
  936MOL0     H23549   2.932   1.080   1.199  0.3663  0.1817  0.2556
  936MOL0     H23550   3.005   1.247   0.813  1.4272 -3.3474  0.4666
  936MOL0     H23551   2.414   1.677   1.251  0.1198  0.0595 -1.9868
  936MOL0     H23552   2.177   1.764   1.303  2.1362 -0.9525  2.7780
  937MOL0     O23553   2.657   1.893   4.558  0.4845 -0.2647  0.2784
  937MOL0     C23554   2.677   1.807   4.477  0.7436  0.2016  0.0686
  937MOL0     O23555   2.589   1.702   4.449  0.3873 -0.0244 -0.4705
  937MOL0     C23556   2.462   1.719   4.491  0.0867  1.3600 -0.4503
  937MOL0     C23557   2.378   1.831   4.473 -0.6849 -0.3096  0.0715
  937MOL0     C23558   2.245   1.834   4.510 -0.3579  0.3486 -0.1138
  937MOL0     C23559   2.194   1.719   4.568 -0.3233  0.0937 -0.1350
  937MOL0     O23560   2.062   1.737   4.598 -0.4137  0.0474  0.1957
  937MOL0     C23561   2.026   1.690   4.733 -0.1330  0.5943 -0.3420
  937MOL0     C23562   1.875   1.723   4.759  0.1861 -0.3509  0.1028
  937MOL0     C23563   1.837   1.683   4.901 -0.2180  0.4830 -1.0259
  937MOL0     C23564   1.697   1.738   4.946 -0.3613  0.3459 -0.2551
  937MOL0     C23565   1.573   1.686   4.881  0.2507 -0.5331  0.5182
  937MOL0     C23566   1.460   1.741   4.965  0.5860 -0.5261 -0.2047
  937MOL0     C23567   1.328   1.686   4.917 -0.0574 -0.6531 -0.4700
  937MOL0     C23568   1.281   1.559   4.985  0.1300 -0.3042 -0.2984
  937MOL0     N23569   1.138   1.522   4.973 -0.1974  0.1568  0.1727
  937MOL0     C23570   1.102   1.389   4.956  0.9126 -0.3988  0.4499
  937MOL0     C23571   0.968   1.390   4.947 -0.5087  0.6616  0.1987
  937MOL0     C23572   0.898   1.255   4.941  0.4805 -0.8022 -0.2936
  937MOL0     C23573   0.816   1.222   4.819  0.3896 -0.4247  0.0787
  937MOL0     C23574   0.695   1.318   4.827  0.3688 -0.6766  0.6103
  937MOL0     C23575   0.699   1.438   4.725 -0.0021 -0.8635  0.0961
  937MOL0     O23576   0.714   1.395   4.586 -0.5296  0.4718 -0.4827
  937MOL0     C23577   0.615   1.330   4.517 -0.6261  0.4990 -0.5996
  937MOL0     C23578   0.484   1.312   4.574  0.3279  0.6213  0.0469
  937MOL0     C23579   0.380   1.255   4.506 -0.3896  0.1660  0.3299
  937MOL0     C23580   0.395   1.242   4.365 -0.1823  0.4648 -0.3197
  937MOL0     C23581   0.272   1.199   4.281 -0.3546 -0.0779 -0.6122
  937MOL0     O23582   0.151   1.193   4.347  0.3015 -0.8578 -0.2397
  937MOL0     C23583   0.032   1.164   4.279 -0.1713  0.1689 -0.0408
  937MOL0     C23584  -0.029   1.038   4.286 -0.4895  0.0737 -0.1998
  937MOL0     C23585  -0.148   1.009   4.223  0.0382 -0.2900 -0.8225
  937MOL0     C23586  -0.207   1.113   4.147 -0.2970  0.4498  0.5685
  937MOL0     O23587  -0.330   1.089   4.083  0.2429 -0.3430  0.3935
  937MOL0     C23588  -0.415   1.203   4.048  0.2260 -0.0535 -0.1893
  937MOL0     C23589  -0.558   1.179   4.017  0.5833  0.1068  1.1409
  937MOL0     C23590  -0.633   1.109   4.128  0.0025  0.3604 -0.5871
  937MOL0     C23591  -0.781   1.095   4.085 -0.5350 -0.3814  0.1085
  937MOL0     C23592  -0.879   1.041   4.188  1.0377 -0.2328  0.7397
  937MOL0     C23593  -1.020   1.025   4.118  0.0447  0.7620  0.2347
  937MOL0     C23594  -1.020   0.913   4.006  0.4851  0.3111  0.5286
  937MOL0     C23595  -1.165   0.905   3.955  0.4672 -0.2682  0.6656
  937MOL0    Cl23596  -1.234   1.052   3.886 -0.0036 -0.1174 -0.4859
  937MOL0     C23597  -0.140   1.235   4.129  0.8197  0.0746  0.8493
  937MOL0     C23598  -0.026   1.268   4.201 -0.4804  0.1359  0.3740
  937MOL0     O23599   0.283   1.182   4.158  0.6051 -0.2122  0.7586
  937MOL0     C23600   0.519   1.268   4.302  0.0690  0.1910  0.8913
  937MOL0     C23601   0.629   1.310   4.378  0.1664  0.1240 -0.1655
  937MOL0     N23602   0.931   1.522   4.963  0.5031  0.1668 -0.1808
  937MOL0     N23603   1.032   1.597   4.982  0.2222  0.5007  0.6794
  937MOL0     C23604   2.273   1.612   4.597 -0.3247  1.0245  0.0924
  937MOL0     C23605   2.411   1.603   4.552 -0.3020  0.8131  0.4039
  937MOL0     C23606   2.801   1.818   4.399 -0.0696  0.5607 -0.0746
  937MOL0     C23607   2.823   1.721   4.296 -0.4508  0.1442 -0.4147
  937MOL0     C23608   2.941   1.732   4.228 -1.0005 -0.6641 -0.0050
  937MOL0     C23609   3.046   1.831   4.254  0.1134 -0.4919 -0.7134
  937MOL0     O23610   3.163   1.845   4.189 -0.4772 -0.6012 -0.1735
  937MOL0     C23611   3.185   1.761   4.081 -0.5670  0.6359  0.0230
  937MOL0     C23612   3.322   1.774   4.028 -0.0545  0.4420  0.7311
  937MOL0     C23613   3.412   1.706   4.120 -0.3549 -0.0028 -0.6095
  937MOL0     C23614   3.560   1.716   4.077  0.5308  0.4920  0.4764
  937MOL0     C23615   3.638   1.632   4.170  0.0393 -0.4008 -0.0931
  937MOL0     C23616   3.706   1.564   4.245  0.1216 -0.5299 -0.1725
  937MOL0     C23617   3.020   1.921   4.356  0.6423  0.5078 -0.2151
  937MOL0     C23618   2.901   1.912   4.434 -0.1660  0.3916  0.9226
  937MOL0     H23619   2.421   1.911   4.413  5.5634 -1.6951  2.0484
  937MOL0     H23620   2.178   1.916   4.487 -1.5826 -0.8861 -1.1895
  937MOL0     H23621   2.086   1.745   4.805 -2.8106  3.1850  0.1311
  937MOL0     H23622   2.062   1.589   4.753  2.6668  1.8616  1.6298
  937MOL0     H23623   1.809   1.665   4.694  0.2111 -1.2858  0.8872
  937MOL0     H23624   1.858   1.830   4.743 -2.7937 -0.6745  0.6487
  937MOL0     H23625   1.911   1.731   4.967 -0.3810  1.9619 -1.8774
  937MOL0     H23626   1.835   1.575   4.912 -4.4101  0.5803  1.2180
  937MOL0     H23627   1.692   1.727   5.055  2.4969 -2.1438 -0.2423
  937MOL0     H23628   1.717   1.841   4.915 -4.3269  1.0468 -0.9252
  937MOL0     H23629   1.563   1.577   4.882 -0.2975 -0.4867  0.2701
  937MOL0     H23630   1.574   1.728   4.780  1.0813 -0.8258  0.3885
  937MOL0     H23631   1.460   1.850   4.970 -2.6724 -0.4886  1.8337
  937MOL0     H23632   1.475   1.706   5.068  1.0634  0.2391 -0.0040
  937MOL0     H23633   1.252   1.757   4.948  2.5900  2.3253 -0.2285
  937MOL0     H23634   1.337   1.683   4.807  0.0699  0.0610 -0.4825
  937MOL0     H23635   1.310   1.571   5.090 -0.3924  0.1380 -0.2042
  937MOL0     H23636   1.350   1.487   4.940  0.6217  0.5407 -0.9298
  937MOL0     H23637   1.162   1.302   4.931  0.4455  0.4929 -4.7052
  937MOL0     H23638   0.840   1.253   5.034  3.5807  1.4329  1.8979
  937MOL0     H23639   0.986   1.190   4.949  2.3993  1.6053 -0.7946
  937MOL0     H23640   0.795   1.115   4.830  2.4243 -0.6975  2.0882
  937MOL0     H23641   0.878   1.237   4.731  1.7432  0.8765  1.2004
  937MOL0     H23642   0.613   1.253   4.796 -0.0993  0.7404 -1.2846
  937MOL0     H23643   0.666   1.352   4.928 -2.0988 -0.0771 -0.2202
  937MOL0     H23644   0.776   1.510   4.755  1.1154 -2.0738  0.1990
  937MOL0     H23645   0.603   1.491   4.735 -0.1210 -0.3195 -3.0726
  937MOL0     H23646   0.479   1.347   4.677 -0.3368  1.5001 -0.2739
  937MOL0     H23647   0.279   1.272   4.543 -0.1068  4.0304 -0.3032
  937MOL0     H23648   0.023   0.960   4.341  1.1244  0.0871 -1.6135
  937MOL0     H23649  -0.191   0.909   4.221 -0.8609  0.0493  0.6995
  937MOL0     H23650  -0.368   1.265   3.971 -0.9688  2.3598  0.9119
  937MOL0     H23651  -0.422   1.277   4.129 -0.1469  0.5008 -0.7156
  937MOL0     H23652  -0.574   1.122   3.925 -4.7969  2.4265  0.2374
  937MOL0     H23653  -0.608   1.276   4.007  2.2114  0.8780 -0.1498
  937MOL0     H23654  -0.626   1.168   4.220 -0.8492  0.8549 -0.8295
  937MOL0     H23655  -0.597   1.006   4.140 -1.6392 -0.6747 -3.4971
  937MOL0     H23656  -0.817   1.194   4.056 -0.5857 -0.5408 -0.3763
  937MOL0     H23657  -0.780   1.034   3.994 -0.0810 -2.5814  1.4945
  937MOL0     H23658  -0.888   1.121   4.262  2.1455  0.7773 -0.1751
  937MOL0     H23659  -0.845   0.948   4.235  1.5708 -0.1333  0.5579
  937MOL0     H23660  -1.024   1.122   4.069  0.2491  2.2484  2.9517
  937MOL0     H23661  -1.099   1.007   4.191  0.1591  1.4855  0.5429
  937MOL0     H23662  -0.962   0.939   3.917 -0.3905 -0.0382 -0.1611
  937MOL0     H23663  -0.986   0.816   4.043  2.6159  0.9249  0.2769
  937MOL0     H23664  -1.217   0.867   4.043  0.6253 -0.8235  0.5238
  937MOL0     H23665  -1.163   0.827   3.878 -1.8686 -1.6110  1.8359
  937MOL0     H23666  -0.172   1.313   4.061  1.5012 -1.1490 -0.9651
  937MOL0     H23667   0.033   1.360   4.201  2.1903 -1.4526  1.2402
  937MOL0     H23668   0.524   1.260   4.194  0.3747  0.2201  0.9029
  937MOL0     H23669   0.722   1.342   4.333 -0.3022  1.2133 -0.3962
  937MOL0     H23670   2.222   1.519   4.618 -0.6142  0.7281 -1.7481
  937MOL0     H23671   2.469   1.512   4.546 -0.2810  0.9274 -2.3805
  937MOL0     H23672   2.759   1.636   4.273  0.5585 -1.0453  0.9495
  937MOL0     H23673   2.944   1.666   4.141  3.4268 -0.7750  0.0185
  937MOL0     H23674   3.125   1.793   3.994 -0.9317  0.9152  0.3751
  937MOL0     H23675   3.178   1.655   4.104  0.6278  0.8087  1.2818
  937MOL0     H23676   3.328   1.715   3.936  0.3132 -1.8319  2.1447
  937MOL0     H23677   3.356   1.874   4.002  1.5199 -0.6292 -1.7073
  937MOL0     H23678   3.381   1.602   4.135 -1.4357 -0.3571 -4.3479
  937MOL0     H23679   3.398   1.755   4.217 -0.3506 -0.4871 -0.3600
  937MOL0     H23680   3.584   1.688   3.974  2.6913  0.9150  0.8145
  937MOL0     H23681   3.584   1.821   4.094 -1.2584  1.1251 -0.6552
  937MOL0     H23682   3.757   1.499   4.313  1.2005 -0.4111 -0.8607
  937MOL0     H23683   3.095   1.997   4.374  2.4654 -1.3552  0.4125
  937MOL0     H23684   2.879   1.985   4.511 -1.9477  0.1962  0.6470
  938MOL0     O23685   3.517   6.201   4.730  0.5387 -0.2756  0.1252
  938MOL0     C23686   3.604   6.271   4.783  0.8990 -0.6996  0.6251
  938MOL0     O23687   3.585   6.353   4.891  0.4580  0.4709 -0.4451
  938MOL0     C23688   3.456   6.364   4.943 -0.0295  0.0978  0.5200
  938MOL0     C23689   3.390   6.484   4.949 -0.0777  0.1297  0.2635
  938MOL0     C23690   3.257   6.494   5.007 -0.1539  0.1368 -0.3860
  938MOL0     C23691   3.197   6.385   5.067  0.2682 -0.0504 -0.3110
  938MOL0     O23692   3.069   6.399   5.102 -0.0586 -0.1656 -0.1473
  938MOL0     C23693   3.015   6.286   5.174  0.4299 -0.5270 -0.5976
  938MOL0     C23694   2.859   6.297   5.179  0.2902 -0.4040 -0.6923
  938MOL0     C23695   2.809   6.421   5.259 -0.1309  0.6661  0.5267
  938MOL0     C23696   2.672   6.387   5.317  0.3204 -0.7523  0.5509
  938MOL0     C23697   2.627   6.499   5.410  0.3382  0.2901  0.2220
  938MOL0     C23698   2.521   6.450   5.517  0.0068  0.1143  0.1349
  938MOL0     C23699   2.386   6.407   5.452 -0.8482 -1.4208  0.5739
  938MOL0     C23700   2.379   6.265   5.401  0.4770 -0.0821 -0.3074
  938MOL0     N23701   2.335   6.160   5.497  0.0870  0.8081 -0.2631
  938MOL0     C23702   2.215   6.147   5.558 -0.4882  0.1489 -0.2229
  938MOL0     C23703   2.235   6.047   5.648  0.1469  0.4577  0.2805
  938MOL0     C23704   2.129   6.024   5.749 -0.3611 -0.8635 -0.0119
  938MOL0     C23705   2.114   5.880   5.796  0.2746  0.4676  0.9137
  938MOL0     C23706   2.076   5.865   5.935  0.6446 -0.2194 -0.5630
  938MOL0     C23707   2.064   5.722   6.000  0.2543  0.1386  0.2077
  938MOL0     O23708   1.952   5.639   5.963  0.0853  0.5530 -0.3148
  938MOL0     C23709   1.830   5.670   6.020 -0.2818 -0.6556  0.0234
  938MOL0     C23710   1.797   5.778   6.104 -0.0765 -0.4090  0.7686
  938MOL0     C23711   1.657   5.794   6.137 -0.1239  0.0807  0.1565
  938MOL0     C23712   1.555   5.707   6.081  0.3794 -0.6451  0.4572
  938MOL0     C23713   1.412   5.738   6.106 -0.0303 -0.6518  0.6084
  938MOL0     O23714   1.319   5.639   6.080 -0.4133  0.2763  0.1828
  938MOL0     C23715   1.189   5.663   6.050  0.9015  0.2077  0.2673
  938MOL0     C23716   1.131   5.585   5.956 -0.4267 -0.1796  0.2759
  938MOL0     C23717   0.994   5.585   5.925 -0.0371  0.1499 -0.3773
  938MOL0     C23718   0.898   5.654   5.998 -0.2055  1.1089  0.8415
  938MOL0     O23719   0.765   5.631   5.960 -0.6526 -0.4364 -0.1871
  938MOL0     C23720   0.672   5.732   5.995 -0.1666 -0.2122  0.7016
  938MOL0     C23721   0.540   5.659   6.013 -0.7406  0.0048 -0.2416
  938MOL0     C23722   0.423   5.754   6.035  0.1201  0.7129  0.1536
  938MOL0     C23723   0.312   5.679   6.113 -0.4992 -0.1776  1.4268
  938MOL0     C23724   0.174   5.744   6.115  0.2495  0.2989 -0.9450
  938MOL0     C23725   0.097   5.693   6.240 -0.0451 -0.0222 -0.2817
  938MOL0     C23726  -0.048   5.738   6.237 -0.1152  0.7278 -1.1942
  938MOL0     C23727  -0.142   5.642   6.169 -0.1870  0.2900  0.1824
  938MOL0    Cl23728  -0.235   5.550   6.286 -0.4570  0.2534 -0.1432
  938MOL0     C23729   0.960   5.742   6.098  0.8866  0.0794 -0.3462
  938MOL0     C23730   1.099   5.741   6.126 -0.0710  0.0295 -0.0896
  938MOL0     O23731   1.384   5.847   6.158  0.1490 -0.0660 -0.4936
  938MOL0     C23732   1.593   5.595   6.007 -0.1293  0.1568 -0.6617
  938MOL0     C23733   1.731   5.578   5.986  0.5704 -0.1764 -0.7330
  938MOL0     N23734   2.362   5.997   5.643  0.4536  0.2129 -0.1074
  938MOL0     N23735   2.413   6.061   5.547 -0.3317  0.0208  0.2905
  938MOL0     C23736   3.276   6.266   5.071  0.7870 -0.4717  0.0938
  938MOL0     C23737   3.397   6.253   5.000  0.3922 -0.1751 -0.0567
  938MOL0     C23738   3.745   6.262   4.725 -0.3869  0.7090  0.5013
  938MOL0     C23739   3.853   6.287   4.811  0.2232  1.2141 -0.4477
  938MOL0     C23740   3.976   6.258   4.762 -0.5945 -0.2756 -0.4023
  938MOL0     C23741   4.003   6.216   4.626  1.0989 -0.8361 -0.6673
  938MOL0     O23742   4.134   6.192   4.587  1.0319  0.0163 -0.5865
  938MOL0     C23743   4.154   6.099   4.484  0.7559  0.3550 -0.1267
  938MOL0     C23744   4.144   6.185   4.353 -0.0443 -0.0966  0.2331
  938MOL0     C23745   4.244   6.304   4.335 -0.2605  0.2705 -0.2166
  938MOL0     C23746   4.212   6.394   4.216  0.1836 -0.3983  0.2442
  938MOL0     C23747   4.315   6.494   4.212 -0.0598 -0.0933  0.2804
  938MOL0     C23748   4.412   6.557   4.216 -0.2329 -0.6395 -0.3483
  938MOL0     C23749   3.894   6.184   4.548 -0.2467 -0.9594  0.3348
  938MOL0     C23750   3.770   6.215   4.594 -0.2994  0.3743 -0.2377
  938MOL0     H23751   3.431   6.572   4.901 -3.2812  1.2035 -0.7348
  938MOL0     H23752   3.205   6.589   4.995  0.9995  0.8314 -0.0769
  938MOL0     H23753   3.058   6.289   5.275  0.2110 -0.7725 -0.4943
  938MOL0     H23754   3.038   6.191   5.126  1.1649 -0.9488  0.5358
  938MOL0     H23755   2.824   6.203   5.224  3.7757 -2.1133 -1.2006
  938MOL0     H23756   2.808   6.315   5.085 -0.9450  0.7219  0.1714
  938MOL0     H23757   2.803   6.503   5.186  0.6373 -0.5260 -0.9334
  938MOL0     H23758   2.882   6.450   5.335  1.2231  1.0822 -0.8808
  938MOL0     H23759   2.602   6.376   5.234  1.3876 -0.1145 -0.4561
  938MOL0     H23760   2.687   6.299   5.381  2.0714 -0.4327  0.6444
  938MOL0     H23761   2.586   6.581   5.350 -1.2498 -1.2155 -0.8505
  938MOL0     H23762   2.712   6.543   5.462  2.7733 -1.0484 -2.3241
  938MOL0     H23763   2.500   6.533   5.584 -2.6791  0.0589 -0.5107
  938MOL0     H23764   2.569   6.370   5.575 -0.2184 -0.8346 -0.9554
  938MOL0     H23765   2.306   6.429   5.523 -0.2156  0.9907  0.6143
  938MOL0     H23766   2.361   6.471   5.367 -0.2798 -2.8379 -0.7194
  938MOL0     H23767   2.463   6.231   5.340 -0.8329 -2.7621 -0.7960
  938MOL0     H23768   2.309   6.264   5.317  0.4595  1.2172 -0.3170
  938MOL0     H23769   2.134   6.219   5.553 -0.5322  0.0148 -1.8737
  938MOL0     H23770   2.030   6.052   5.711 -1.5284 -4.9593 -0.5686
  938MOL0     H23771   2.151   6.082   5.838 -2.5441  0.0091  0.0188
  938MOL0     H23772   2.206   5.823   5.782 -0.4101 -0.7233  1.1313
  938MOL0     H23773   2.042   5.834   5.727  0.6244  1.2533 -0.0091
  938MOL0     H23774   2.157   5.908   5.995 -1.1548  0.2365  1.6817
  938MOL0     H23775   1.983   5.919   5.952 -0.0215 -1.0722 -1.4189
  938MOL0     H23776   2.060   5.740   6.108  2.4108  2.2205  0.0202
  938MOL0     H23777   2.154   5.666   5.976 -0.4998 -0.1507 -2.2575
  938MOL0     H23778   1.868   5.845   6.151 -2.2685  1.4696  1.6449
  938MOL0     H23779   1.635   5.872   6.209  2.2162 -1.4214  2.7116
  938MOL0     H23780   1.193   5.514   5.902  0.5678 -2.9544  4.5751
  938MOL0     H23781   0.952   5.519   5.851 -1.0572  1.1264 -0.6991
  938MOL0     H23782   0.671   5.807   5.916  0.2099 -1.3742 -0.4271
  938MOL0     H23783   0.696   5.787   6.087  1.3080  1.9454 -0.8865
  938MOL0     H23784   0.559   5.591   6.096 -1.2561  2.8455  2.4095
  938MOL0     H23785   0.519   5.602   5.922  0.9223 -0.8648 -0.1250
  938MOL0     H23786   0.395   5.788   5.935 -0.1595 -1.4753 -0.5531
  938MOL0     H23787   0.447   5.839   6.100  1.4390 -1.2788  2.4411
  938MOL0     H23788   0.299   5.583   6.062 -1.0490  1.3622 -1.5850
  938MOL0     H23789   0.348   5.649   6.212  0.5962 -0.3230  1.0002
  938MOL0     H23790   0.113   5.715   6.030  3.3742 -0.4087 -3.1160
  938MOL0     H23791   0.197   5.849   6.138  2.1263 -0.5086  1.2518
  938MOL0     H23792   0.147   5.732   6.328 -1.3999 -0.5515  0.7506
  938MOL0     H23793   0.106   5.584   6.246  3.1958  0.0311 -2.0237
  938MOL0     H23794  -0.082   5.750   6.340 -1.8329 -0.7170 -1.5540
  938MOL0     H23795  -0.052   5.838   6.192 -2.5618 -0.0205 -2.8434
  938MOL0     H23796  -0.093   5.573   6.100  0.5771 -0.3820  1.3585
  938MOL0     H23797  -0.217   5.702   6.117  0.9296  0.3417 -1.4223
  938MOL0     H23798   0.903   5.805   6.166  1.6157 -0.7370  1.0661
  938MOL0     H23799   1.142   5.798   6.208 -0.5676  0.3315 -0.0320
  938MOL0     H23800   1.519   5.525   5.971 -1.9006  0.4900  1.9900
  938MOL0     H23801   1.753   5.498   5.917  2.0983  0.5917 -1.1786
  938MOL0     H23802   3.239   6.179   5.125 -1.2623 -1.0345 -2.0629
  938MOL0     H23803   3.458   6.163   5.007 -2.8560 -2.4454  1.3523
  938MOL0     H23804   3.836   6.323   4.912  1.1563 -0.0115  0.1716
  938MOL0     H23805   4.059   6.265   4.831 -0.5450  0.0088 -0.4876
  938MOL0     H23806   4.074   6.024   4.493  1.4186 -0.1972  1.7343
  938MOL0     H23807   4.250   6.046   4.480 -0.4652 -2.1355  1.0637
  938MOL0     H23808   4.161   6.115   4.270  0.2310 -1.2684  1.2426
  938MOL0     H23809   4.048   6.236   4.342 -1.6088 -3.0745 -1.2750
  938MOL0     H23810   4.343   6.263   4.313  0.2195  0.7316  0.9942
  938MOL0     H23811   4.244   6.360   4.428  0.4932 -0.3415  0.1649
  938MOL0     H23812   4.222   6.336   4.124  1.1143 -1.5703  1.0370
  938MOL0     H23813   4.110   6.432   4.216  0.5851  1.0049 -3.3260
  938MOL0     H23814   4.491   6.628   4.202  0.1755 -1.2170 -1.0499
  938MOL0     H23815   3.898   6.153   4.444 -2.0715 -1.3472  0.3442
  938MOL0     H23816   3.690   6.192   4.525 -1.0526 -2.5101  1.4623
  939MOL0     O23817   4.200   0.965   6.570  0.4948 -0.3604 -0.4355
  939MOL0     C23818   4.198   1.008   6.684 -0.4456 -0.0468  0.2637
  939MOL0     O23819   4.099   1.093   6.730  0.0532  0.3007 -0.3575
  939MOL0     C23820   4.008   1.152   6.641 -0.0889  0.0576 -0.1778
  939MOL0     C23821   3.872   1.162   6.684  0.1466  0.0506  0.2070
  939MOL0     C23822   3.779   1.213   6.594 -0.2071 -0.0021  0.3494
  939MOL0     C23823   3.818   1.258   6.463 -0.6687 -0.2557  0.4771
  939MOL0     O23824   3.736   1.322   6.361  0.8316 -0.1976 -0.1365
  939MOL0     C23825   3.611   1.260   6.335 -0.1047  0.4798 -0.3504
  939MOL0     C23826   3.494   1.367   6.316 -0.4113 -0.0391 -0.0145
  939MOL0     C23827   3.524   1.454   6.195 -0.2214 -0.4428  0.5172
  939MOL0     C23828   3.405   1.548   6.179 -0.5516 -1.3064  0.2495
  939MOL0     C23829   3.426   1.666   6.076  0.4112  0.4593  0.4375
  939MOL0     C23830   3.532   1.774   6.124  0.0467  0.1440  0.4158
  939MOL0     C23831   3.494   1.852   6.257  0.5361 -0.3975 -0.6865
  939MOL0     C23832   3.354   1.921   6.247  0.4458  0.2347 -0.0684
  939MOL0     N23833   3.312   1.981   6.376  0.3434  0.3377  0.8891
  939MOL0     C23834   3.234   1.924   6.480 -0.0490 -0.3090  0.4543
  939MOL0     C23835   3.194   2.021   6.567  0.1824 -0.1631  0.7557
  939MOL0     C23836   3.119   2.007   6.692 -0.4571 -0.4385  1.2418
  939MOL0     C23837   2.983   2.078   6.690  0.0606 -0.0539 -0.1605
  939MOL0     C23838   2.902   2.065   6.816 -0.6771  0.9370  0.5958
  939MOL0     C23839   2.752   2.090   6.788  0.0077 -1.1276  0.7218
  939MOL0     O23840   2.728   2.233   6.776 -0.3672 -0.1576  0.0840
  939MOL0     C23841   2.596   2.260   6.749  0.2819  0.0541  0.1068
  939MOL0     C23842   2.488   2.170   6.757 -0.6708  0.0912  0.2322
  939MOL0     C23843   2.358   2.202   6.732 -0.2841 -0.3710 -0.4262
  939MOL0     C23844   2.320   2.337   6.712 -0.3164  0.5711  0.0218
  939MOL0     C23845   2.178   2.370   6.683  0.0800  1.1242 -0.3356
  939MOL0     O23846   2.162   2.493   6.629 -0.4853 -0.1317 -0.2588
  939MOL0     C23847   2.036   2.541   6.630 -0.0681 -0.0626  0.4785
  939MOL0     C23848   1.999   2.627   6.734 -0.2256 -0.5364 -0.3511
  939MOL0     C23849   1.883   2.704   6.721  0.3456  0.3602  0.5159
  939MOL0     C23850   1.796   2.684   6.612  0.2795 -0.2920 -0.9029
  939MOL0     O23851   1.674   2.748   6.588  0.0767 -0.2361  0.0421
  939MOL0     C23852   1.665   2.874   6.647  0.2230  0.4368 -0.8377
  939MOL0     C23853   1.562   2.958   6.574 -0.8069 -0.0569 -0.6077
  939MOL0     C23854   1.540   3.089   6.652  0.3389  0.5671  0.0257
  939MOL0     C23855   1.420   3.176   6.600 -0.6517 -0.2551  0.7027
  939MOL0     C23856   1.395   3.302   6.689  0.0292  0.4545 -0.3648
  939MOL0     C23857   1.273   3.390   6.632  0.1862  0.9137 -0.1708
  939MOL0     C23858   1.240   3.491   6.730  0.3980  0.7063  0.4527
  939MOL0     C23859   1.138   3.593   6.675  0.9214  0.4703  0.1491
  939MOL0    Cl23860   0.983   3.533   6.613  0.3688 -0.1364 -0.2679
  939MOL0     C23861   1.832   2.594   6.514 -0.3187 -0.4917  0.3650
  939MOL0     C23862   1.959   2.533   6.510  0.4428  0.3444 -0.1062
  939MOL0     O23863   2.090   2.290   6.710  0.6759 -0.1039  0.2363
  939MOL0     C23864   2.419   2.437   6.712 -0.9523 -0.0298  0.4018
  939MOL0     C23865   2.555   2.392   6.731  0.6965 -0.7405 -0.0760
  939MOL0     N23866   3.244   2.139   6.520  0.1829  0.2830  0.0493
  939MOL0     N23867   3.313   2.111   6.405  0.0646  0.0352  0.2027
  939MOL0     C23868   3.953   1.244   6.430  0.4335 -0.3509 -0.1202
  939MOL0     C23869   4.043   1.197   6.517 -0.4950  0.8196 -0.1814
  939MOL0     C23870   4.289   0.949   6.792 -0.3865  0.8235 -0.3138
  939MOL0     C23871   4.392   0.868   6.747 -0.3582 -0.3193 -0.1856
  939MOL0     C23872   4.488   0.813   6.831  0.6504 -0.1377 -0.1954
  939MOL0     C23873   4.484   0.840   6.968  0.2558 -0.5128 -0.1407
  939MOL0     O23874   4.563   0.790   7.062 -0.6052  0.8990  0.1172
  939MOL0     C23875   4.649   0.673   7.030  0.3661 -0.6067 -0.1012
  939MOL0     C23876   4.741   0.646   7.144  0.3061 -0.6212 -0.1578
  939MOL0     C23877   4.861   0.556   7.096 -0.8147 -0.9959 -0.6174
  939MOL0     C23878   4.963   0.554   7.214  0.6207  0.3580  0.9369
  939MOL0     C23879   5.101   0.508   7.175 -0.2477 -0.1928 -0.3245
  939MOL0     C23880   5.212   0.475   7.150 -0.1670  0.4332 -0.1745
  939MOL0     C23881   4.385   0.930   7.018  0.0023 -0.1719  0.5336
  939MOL0     C23882   4.288   0.982   6.927  0.0654  0.2104 -0.0309
  939MOL0     H23883   3.845   1.147   6.788 -1.1367 -0.0805 -0.1295
  939MOL0     H23884   3.683   1.243   6.635 -0.0659 -0.8377  1.3166
  939MOL0     H23885   3.575   1.198   6.418  1.0312  1.8575  1.2642
  939MOL0     H23886   3.624   1.197   6.247  2.3648 -0.2427  0.4469
  939MOL0     H23887   3.491   1.430   6.406  1.5735 -1.0713  0.8474
  939MOL0     H23888   3.404   1.308   6.297  1.8276 -3.8998  0.3339
  939MOL0     H23889   3.530   1.401   6.100 -2.8937  2.0348 -1.2155
  939MOL0     H23890   3.606   1.525   6.212 -0.9135 -0.1271  3.0152
  939MOL0     H23891   3.319   1.493   6.141  0.6312 -1.7133 -2.1044
  939MOL0     H23892   3.382   1.592   6.276  0.7196  4.1993 -1.5705
  939MOL0     H23893   3.333   1.721   6.059 -0.5718 -1.9014 -2.7256
  939MOL0     H23894   3.454   1.625   5.979 -2.5511 -2.3177  0.5995
  939MOL0     H23895   3.524   1.854   6.050 -0.3163  1.0930  1.4471
  939MOL0     H23896   3.631   1.729   6.113  0.3997  1.1814 -0.7534
  939MOL0     H23897   3.491   1.784   6.342 -0.3623  0.0502 -0.3510
  939MOL0     H23898   3.570   1.928   6.279 -0.2856  1.0956 -2.7457
  939MOL0     H23899   3.277   1.851   6.213 -1.6031  0.9682  2.7349
  939MOL0     H23900   3.351   1.996   6.167 -2.4135  1.0085  0.6459
  939MOL0     H23901   3.207   1.819   6.475 -0.8087 -0.1692  1.4553
  939MOL0     H23902   3.189   2.060   6.756  0.2360 -0.4484  0.5105
  939MOL0     H23903   3.106   1.903   6.722  1.0894 -0.9210  0.3561
  939MOL0     H23904   2.937   2.025   6.606 -3.4217  0.4081  1.3056
  939MOL0     H23905   3.014   2.179   6.662  1.3187 -0.0323  1.2123
  939MOL0     H23906   2.912   1.963   6.855 -1.9918  0.8029  0.6091
  939MOL0     H23907   2.943   2.132   6.893 -0.0203  1.8100 -0.4727
  939MOL0     H23908   2.688   2.055   6.870 -1.1099  1.4747  1.0918
  939MOL0     H23909   2.721   2.051   6.691 -2.4009  2.5148 -0.2161
  939MOL0     H23910   2.508   2.063   6.763  1.1142  0.2719 -1.5798
  939MOL0     H23911   2.289   2.120   6.721  1.0680 -1.7545  0.8419
  939MOL0     H23912   2.060   2.641   6.823  1.6838 -1.3978 -1.4702
  939MOL0     H23913   1.853   2.777   6.795  1.3636  0.3161  0.9787
  939MOL0     H23914   1.764   2.920   6.651  1.7222 -2.5661  0.4181
  939MOL0     H23915   1.636   2.854   6.751 -0.3218 -1.0167 -1.2479
  939MOL0     H23916   1.475   2.894   6.561 -0.6085 -0.2802 -0.8542
  939MOL0     H23917   1.616   2.974   6.480  2.0594 -0.1600  0.8975
  939MOL0     H23918   1.636   3.141   6.646  0.8818 -0.3994  0.0792
  939MOL0     H23919   1.524   3.072   6.758  0.6662 -0.8762 -0.1363
  939MOL0     H23920   1.442   3.211   6.498 -0.6815 -1.9829  0.0672
  939MOL0     H23921   1.334   3.110   6.580  1.0698 -1.8967 -1.9304
  939MOL0     H23922   1.487   3.359   6.707  0.8829 -1.4459  1.8333
  939MOL0     H23923   1.380   3.268   6.792  0.4942  0.8085 -0.1761
  939MOL0     H23924   1.185   3.331   6.604 -1.3468  2.7322  0.5996
  939MOL0     H23925   1.317   3.442   6.546  0.6191 -0.6844 -0.9629
  939MOL0     H23926   1.197   3.446   6.820 -0.5496  0.1482 -0.2482
  939MOL0     H23927   1.328   3.544   6.767  0.0417  2.1184 -0.6322
  939MOL0     H23928   1.189   3.653   6.599 -1.7335  1.8678 -0.6689
  939MOL0     H23929   1.106   3.666   6.750  1.8989  4.8363 -3.2480
  939MOL0     H23930   1.763   2.581   6.432  0.3211 -1.9435  0.0178
  939MOL0     H23931   2.000   2.487   6.421  5.6174  1.9338  1.1251
  939MOL0     H23932   2.389   2.539   6.691 -0.2034  0.0593 -0.3020
  939MOL0     H23933   2.629   2.471   6.743 -0.2937 -0.0235  1.7255
  939MOL0     H23934   3.973   1.273   6.327  0.1283 -0.7242 -0.2879
  939MOL0     H23935   4.145   1.199   6.478 -0.4122  1.4517  0.0604
  939MOL0     H23936   4.402   0.845   6.641 -2.0577 -2.8996  0.1302
  939MOL0     H23937   4.559   0.741   6.791 -0.6500 -0.9869 -1.0245
  939MOL0     H23938   4.710   0.705   6.945 -0.0223 -0.2782 -0.2621
  939MOL0     H23939   4.596   0.587   6.989  0.1980 -0.5939  0.0857
  939MOL0     H23940   4.770   0.746   7.177 -0.5342 -1.6274  4.3164
  939MOL0     H23941   4.675   0.604   7.220 -0.7856  1.5718  0.1579
  939MOL0     H23942   4.916   0.601   7.013  0.7499  0.7615  1.2556
  939MOL0     H23943   4.827   0.455   7.075 -2.5052 -0.5287 -0.3566
  939MOL0     H23944   4.985   0.659   7.235 -1.2295  1.4495 -1.9485
  939MOL0     H23945   4.924   0.506   7.305 -3.3552  1.0682 -0.1784
  939MOL0     H23946   5.311   0.457   7.114 -0.7976 -0.4700 -1.5442
  939MOL0     H23947   4.380   0.956   7.123 -1.6230 -0.9157  0.6705
  939MOL0     H23948   4.203   1.032   6.972 -0.6787 -0.9993 -0.0519
  940MOL0     O23949   4.002   9.373   8.507 -0.0651 -0.2147  0.0086
  940MOL0     C23950   4.085   9.402   8.588  0.1084  0.8667 -0.6229
  940MOL0     O23951   4.064   9.413   8.723 -0.2867 -0.4215  0.4873
  940MOL0     C23952   3.933   9.393   8.769 -0.0549 -0.3295 -0.3567
  940MOL0     C23953   3.922   9.323   8.891  0.8892 -0.1965 -0.3398
  940MOL0     C23954   3.801   9.316   8.964  0.7111  1.0473 -0.3804
  940MOL0     C23955   3.686   9.382   8.908  0.2513 -0.1936 -1.4023
  940MOL0     O23956   3.568   9.373   8.984 -0.3286 -0.7883 -0.1851
  940MOL0     C23957   3.448   9.418   8.924  0.6197 -0.9357 -0.2021
  940MOL0     C23958   3.332   9.384   9.012  0.8511  0.0782  0.0251
  940MOL0     C23959   3.196   9.436   8.967  0.4172 -0.2272  0.1511
  940MOL0     C23960   3.084   9.408   9.065  0.5148  0.1921 -0.4223
  940MOL0     C23961   2.958   9.490   9.047 -0.8049  0.5406 -0.6725
  940MOL0     C23962   2.842   9.463   9.154 -0.5000 -0.3938  0.5926
  940MOL0     C23963   2.722   9.550   9.112 -0.3383  0.0564  0.1827
  940MOL0     C23964   2.623   9.553   9.221 -1.0717  0.2107  1.1431
  940MOL0     N23965   2.503   9.632   9.196  0.7808 -0.6854  0.5554
  940MOL0     C23966   2.487   9.770   9.197 -0.3871 -0.0998 -0.7854
  940MOL0     C23967   2.360   9.799   9.179 -0.3460  1.0358  0.3567
  940MOL0     C23968   2.299   9.937   9.169 -0.1529  0.3039 -0.7326
  940MOL0     C23969   2.141   9.937   9.148 -0.5142  0.3368  0.1042
  940MOL0     C23970   2.080  10.060   9.207 -0.9857 -0.5077  0.1452
  940MOL0     C23971   1.939  10.082   9.163 -1.0740  0.6437 -0.0403
  940MOL0     O23972   1.852  10.015   9.263 -0.0865 -0.3049 -0.3289
  940MOL0     C23973   1.724  10.057   9.272  0.1536 -0.5149 -0.2518
  940MOL0     C23974   1.670  10.046   9.391 -0.0192  0.0910 -0.1815
  940MOL0     C23975   1.532  10.075   9.409  0.4822 -0.5432 -0.1231
  940MOL0     C23976   1.450  10.112   9.302 -0.4085  1.1824  0.9716
  940MOL0     C23977   1.307  10.130   9.319  0.2936 -0.2419 -0.4038
  940MOL0     O23978   1.257  10.114   9.449 -0.2848  0.0943  0.4090
  940MOL0     C23979   1.121  10.106   9.459  0.3448  0.3888  0.1858
  940MOL0     C23980   1.061   9.984   9.492 -0.3388  0.4328 -0.5074
  940MOL0     C23981   0.928   9.978   9.520  1.3510  0.1178 -1.3670
  940MOL0     C23982   0.846  10.093   9.529 -0.3172 -0.0009 -0.2445
  940MOL0     O23983   0.719  10.082   9.570  0.4717 -0.0965 -0.0622
  940MOL0     C23984   0.665  10.177   9.658  0.5957 -0.6913 -0.3194
  940MOL0     C23985   0.527  10.141   9.727  0.2374  0.1781  0.0392
  940MOL0     C23986   0.418  10.144   9.620 -0.1036 -0.0486 -0.0274
  940MOL0     C23987   0.384  10.283   9.572  0.2713 -0.5025 -0.8879
  940MOL0     C23988   0.330  10.285   9.430 -0.7683  0.6321  0.4383
  940MOL0     C23989   0.190  10.207   9.430  0.2635  0.8991  0.1264
  940MOL0     C23990   0.149  10.176   9.288 -0.0917  0.3560  0.3615
  940MOL0     C23991   0.008  10.117   9.271  0.6842 -0.3340  0.6676
  940MOL0    Cl23992  -0.001  10.007   9.131  0.3311  0.0077 -0.1718
  940MOL0     C23993   0.911  10.218   9.504 -0.7329 -0.0222  0.2049
  940MOL0     C23994   1.044  10.225   9.464 -0.1524  0.2910  0.5734
  940MOL0     O23995   1.248  10.185   9.225 -0.4350 -0.4985  0.4746
  940MOL0     C23996   1.513  10.133   9.180 -0.0210  0.4156  0.3268
  940MOL0     C23997   1.650  10.105   9.161  0.8235 -0.2155 -0.2074
  940MOL0     N23998   2.294   9.676   9.158  0.0855  0.0506  0.4567
  940MOL0     N23999   2.381   9.580   9.172 -0.7221  0.2594  0.4895
  940MOL0     C24000   3.698   9.457   8.794  0.1404 -0.1025  0.1532
  940MOL0     C24001   3.820   9.471   8.727  0.3812  0.0126 -0.6979
  940MOL0     C24002   4.227   9.409   8.544  0.4798  0.7907 -0.4900
  940MOL0     C24003   4.287   9.304   8.471 -0.0934  0.4551 -0.2544
  940MOL0     C24004   4.414   9.316   8.414 -0.2269  1.0048  0.4270
  940MOL0     C24005   4.487   9.437   8.434  0.0867 -0.2206  0.1335
  940MOL0     O24006   4.616   9.458   8.384  0.2508 -0.1012  0.4254
  940MOL0     C24007   4.684   9.351   8.310  0.0229 -0.3550 -0.0541
  940MOL0     C24008   4.837   9.375   8.286 -0.3475 -0.2302  0.2508
  940MOL0     C24009   4.911   9.411   8.412  1.2497  0.3761  0.3267
  940MOL0     C24010   5.048   9.349   8.432  0.8528  0.0774 -0.6263
  940MOL0     C24011   5.124   9.357   8.311 -0.4379  0.0843  0.7325
  940MOL0     C24012   5.202   9.367   8.218  0.8277  0.1460 -0.4802
  940MOL0     C24013   4.424   9.537   8.511  0.5562 -0.3476 -0.4833
  940MOL0     C24014   4.300   9.525   8.564  0.2653  0.4217 -0.3753
  940MOL0     H24015   4.019   9.287   8.922  1.3540  0.8784 -0.5099
  940MOL0     H24016   3.789   9.257   9.053  1.7135 -0.7133 -1.3584
  940MOL0     H24017   3.434   9.368   8.828  2.4881 -0.1792 -0.9149
  940MOL0     H24018   3.460   9.526   8.911  0.3344 -0.8806 -0.0205
  940MOL0     H24019   3.343   9.409   9.118 -1.0198 -1.2701  0.5965
  940MOL0     H24020   3.332   9.275   9.018  3.6653 -0.0193 -0.6577
  940MOL0     H24021   3.154   9.390   8.878 -1.1572 -2.6226  2.0117
  940MOL0     H24022   3.197   9.542   8.942  0.8235 -0.1449  0.4979
  940MOL0     H24023   3.066   9.300   9.067 -0.9875  0.4171  2.2428
  940MOL0     H24024   3.111   9.427   9.169  1.2032 -1.4374 -0.2698
  940MOL0     H24025   2.919   9.474   8.946  0.8979  0.4725 -1.3451
  940MOL0     H24026   2.996   9.592   9.057 -0.6825  0.3133  1.7758
  940MOL0     H24027   2.878   9.501   9.250 -1.4735  1.5982  0.2039
  940MOL0     H24028   2.820   9.356   9.155 -0.1342 -0.4679  1.4315
  940MOL0     H24029   2.755   9.651   9.087  0.2172 -0.0970  0.2906
  940MOL0     H24030   2.694   9.510   9.014  2.7589 -0.8783 -0.4237
  940MOL0     H24031   2.676   9.580   9.312  0.4739  0.7761  0.1164
  940MOL0     H24032   2.588   9.452   9.247  1.2395 -0.5407  1.5582
  940MOL0     H24033   2.561   9.849   9.204 -1.1062  0.7459 -2.2332
  940MOL0     H24034   2.339   9.977   9.075  0.4675 -2.3911 -1.6888
  940MOL0     H24035   2.336   9.998   9.252 -2.3130  1.2938 -0.4092
  940MOL0     H24036   2.089   9.854   9.197 -0.8967 -0.9544 -2.3403
  940MOL0     H24037   2.111   9.941   9.043 -0.6093  2.5824  0.1686
  940MOL0     H24038   2.093  10.060   9.316 -0.7731  1.0567  0.1379
  940MOL0     H24039   2.137  10.147   9.173  3.0937 -2.7710  0.4142
  940MOL0     H24040   1.921  10.035   9.066  1.6187  1.9236 -1.2848
  940MOL0     H24041   1.918  10.189   9.152 -0.3372  0.9659  1.4768
  940MOL0     H24042   1.728  10.006   9.474 -0.1040  0.2045 -0.0686
  940MOL0     H24043   1.487  10.067   9.507 -0.8365 -2.6014 -0.8174
  940MOL0     H24044   1.131   9.902   9.505  0.7750  1.4491  0.0768
  940MOL0     H24045   0.880   9.884   9.544  0.1506  0.7276 -1.2673
  940MOL0     H24046   0.659  10.273   9.606  1.3029  1.3769  3.0784
  940MOL0     H24047   0.733  10.205   9.739  1.1598 -0.0772 -0.9828
  940MOL0     H24048   0.508  10.207   9.812  1.6307 -1.2404  1.5397
  940MOL0     H24049   0.542  10.038   9.763  2.2081  1.2036  2.4479
  940MOL0     H24050   0.324  10.103   9.657 -0.3057 -1.1470 -1.6624
  940MOL0     H24051   0.444  10.078   9.537  1.8088 -3.0086  2.7015
  940MOL0     H24052   0.306  10.327   9.635  0.9540 -0.6147  0.0612
  940MOL0     H24053   0.470  10.351   9.571  0.5725 -0.8668 -2.3314
  940MOL0     H24054   0.400  10.248   9.354 -1.9010  1.3395 -1.0216
  940MOL0     H24055   0.299  10.386   9.400  1.1584  0.2326 -3.5535
  940MOL0     H24056   0.112  10.259   9.485  1.1319 -0.8714  3.3138
  940MOL0     H24057   0.205  10.112   9.482 -0.0639  0.4502 -0.5793
  940MOL0     H24058   0.149  10.269   9.231  1.0260  0.0945 -0.0824
  940MOL0     H24059   0.217  10.108   9.236 -2.1317 -0.5232 -1.3400
  940MOL0     H24060  -0.060  10.201   9.255 -0.1637 -1.1856 -0.3923
  940MOL0     H24061  -0.019  10.067   9.364 -1.0879 -0.0697  0.3391
  940MOL0     H24062   0.863  10.315   9.495  3.5953  2.4175  0.6810
  940MOL0     H24063   1.089  10.317   9.427  0.6772 -0.1352  0.5022
  940MOL0     H24064   1.447  10.162   9.099 -1.1412 -1.1596  0.6219
  940MOL0     H24065   1.706  10.107   9.068  0.3171  1.7938 -0.5279
  940MOL0     H24066   3.605   9.497   8.753 -0.8972 -2.4518  0.0444
  940MOL0     H24067   3.839   9.538   8.644  1.4002 -0.7508 -1.1017
  940MOL0     H24068   4.229   9.212   8.468 -3.1016  2.1869  0.7603
  940MOL0     H24069   4.453   9.228   8.364  1.0479  2.8207 -1.9797
  940MOL0     H24070   4.627   9.339   8.217  0.4474 -0.4290 -0.3100
  940MOL0     H24071   4.676   9.254   8.361  1.8404 -1.4684 -1.7470
  940MOL0     H24072   4.893   9.291   8.242  0.1188 -0.9751  2.1490
  940MOL0     H24073   4.847   9.468   8.230  0.5930 -0.1332  0.5499
  940MOL0     H24074   4.851   9.374   8.496 -1.8330 -2.6347 -2.8850
  940MOL0     H24075   4.918   9.520   8.407 -2.7196  0.8165  1.4085
  940MOL0     H24076   5.093   9.401   8.517 -2.6006 -1.0240  2.1325
  940MOL0     H24077   5.042   9.242   8.450  1.8382 -0.1281 -1.4131
  940MOL0     H24078   5.271   9.364   8.136  3.0404 -0.7728  1.3030
  940MOL0     H24079   4.482   9.622   8.544  0.6631 -0.8284  0.6250
  940MOL0     H24080   4.265   9.608   8.624  3.6323  1.2871  0.6369
  941MOL0     O24081   1.231   5.869   2.780 -0.4221  0.2290  0.2450
  941MOL0     C24082   1.264   5.984   2.790 -0.1604 -0.2408 -0.0701
  941MOL0     O24083   1.217   6.072   2.889 -0.6655 -0.2350  0.3716
  941MOL0     C24084   1.131   6.028   2.982  0.3684 -0.4173  0.3313
  941MOL0     C24085   1.179   5.989   3.109 -0.6317  0.2629 -0.3333
  941MOL0     C24086   1.084   5.933   3.197  0.0312  0.0672  0.4150
  941MOL0     C24087   0.947   5.939   3.172 -0.0913 -0.0032 -0.5836
  941MOL0     O24088   0.847   5.905   3.259  0.9611 -0.4846  0.3375
  941MOL0     C24089   0.856   5.919   3.401 -0.0491  0.3752  0.4967
  941MOL0     C24090   0.720   5.943   3.470 -0.4065  0.3445 -0.5432
  941MOL0     C24091   0.606   5.870   3.395  0.1974  0.1987  0.6195
  941MOL0     C24092   0.466   5.899   3.458  0.1537  0.3537 -0.0273
  941MOL0     C24093   0.355   5.868   3.358  1.1482  0.3769 -0.5786
  941MOL0     C24094   0.222   5.923   3.399  0.0236 -0.6994  0.8392
  941MOL0     C24095   0.122   5.929   3.272 -0.6212  0.5208 -0.8681
  941MOL0     C24096   0.093   5.797   3.197  0.7309  0.6207 -0.4486
  941MOL0     N24097   0.014   5.698   3.286  0.1150  0.3492  0.1337
  941MOL0     C24098   0.059   5.563   3.299  0.4122 -0.7587 -0.3799
  941MOL0     C24099  -0.012   5.520   3.406 -0.3937 -0.9064 -0.0859
  941MOL0     C24100   0.013   5.389   3.482 -0.4299 -0.6215 -0.2062
  941MOL0     C24101  -0.116   5.337   3.538  0.4228 -0.5707 -0.1043
  941MOL0     C24102  -0.094   5.234   3.653 -0.2153  0.8584  0.2884
  941MOL0     C24103  -0.233   5.182   3.705 -1.1142  0.0064 -0.3136
  941MOL0     O24104  -0.202   5.052   3.773 -0.5960 -0.1797  0.3754
  941MOL0     C24105  -0.294   4.956   3.776  0.4039 -0.4163 -0.5839
  941MOL0     C24106  -0.253   4.822   3.774 -0.0231  0.4988  0.4443
  941MOL0     C24107  -0.354   4.720   3.780  0.2129 -0.5484  0.5843
  941MOL0     C24108  -0.488   4.755   3.806  0.3838  0.2438 -0.7649
  941MOL0     C24109  -0.596   4.645   3.790  0.3894 -0.1605 -0.2241
  941MOL0     O24110  -0.561   4.514   3.788 -0.3964  0.5001 -0.1823
  941MOL0     C24111  -0.655   4.414   3.782 -0.4735 -0.3694  0.4660
  941MOL0     C24112  -0.613   4.294   3.724  0.5562  0.2208  0.3975
  941MOL0     C24113  -0.704   4.181   3.719 -0.1425 -0.1123  0.1801
  941MOL0     C24114  -0.836   4.184   3.771 -0.4991  0.1868 -0.3164
  941MOL0     O24115  -0.922   4.073   3.760 -0.1083 -0.8478 -0.0101
  941MOL0     C24116  -1.051   4.076   3.820  0.2736  0.6268  0.3237
  941MOL0     C24117  -1.150   4.163   3.742  1.0645  0.7755 -0.2519
  941MOL0     C24118  -1.295   4.152   3.791 -0.0254 -0.0072 -0.3295
  941MOL0     C24119  -1.392   4.220   3.706  0.8821 -0.1521 -0.4477
  941MOL0     C24120  -1.513   4.260   3.802  0.6928 -0.5280 -1.0565
  941MOL0     C24121  -1.488   4.386   3.894  0.6055  0.0796  0.0682
  941MOL0     C24122  -1.616   4.456   3.948 -0.5860  0.6718 -0.0293
  941MOL0     C24123  -1.686   4.365   4.042 -0.2078  0.3351 -0.4957
  941MOL0    Cl24124  -1.576   4.338   4.193 -0.0197  0.0909  0.2298
  941MOL0     C24125  -0.870   4.305   3.819 -0.2026 -0.3944  0.1846
  941MOL0     C24126  -0.785   4.413   3.828 -0.5098 -0.8047 -0.0241
  941MOL0     O24127  -0.706   4.694   3.765 -0.3330  0.6378  0.2026
  941MOL0     C24128  -0.520   4.883   3.845 -0.5677 -0.3403 -0.2735
  941MOL0     C24129  -0.425   4.986   3.821 -0.1002 -0.2909 -0.6620
  941MOL0     N24130  -0.092   5.623   3.457 -0.0677  0.4226  0.6948
  941MOL0     N24131  -0.069   5.727   3.390  0.4471  0.0921 -0.2544
  941MOL0     C24132   0.903   5.986   3.043 -0.2351 -0.1614 -0.1781
  941MOL0     C24133   0.996   6.025   2.951 -0.2494 -0.1286 -0.3635
  941MOL0     C24134   1.362   6.038   2.687  0.7690  0.0113 -0.1181
  941MOL0     C24135   1.368   6.175   2.663 -0.4035  0.3660  0.2876
  941MOL0     C24136   1.464   6.225   2.570  0.4522 -0.6394 -0.5375
  941MOL0     C24137   1.548   6.150   2.491 -0.0028  0.4713 -0.7689
  941MOL0     O24138   1.639   6.201   2.404 -0.1644 -0.4115  0.5045
  941MOL0     C24139   1.652   6.343   2.387  0.3140 -0.5221 -0.1684
  941MOL0     C24140   1.736   6.382   2.265  0.2783  0.1907 -0.0024
  941MOL0     C24141   1.884   6.392   2.302  0.7515 -0.1164 -0.4901
  941MOL0     C24142   1.947   6.256   2.311 -0.4693  0.5264 -0.5597
  941MOL0     C24143   2.088   6.268   2.320 -0.0964 -0.2156 -0.6061
  941MOL0     C24144   2.203   6.297   2.350 -0.4868  0.3890  0.1109
  941MOL0     C24145   1.536   6.017   2.522  0.1768  1.1326  1.2882
  941MOL0     C24146   1.441   5.955   2.608  0.4451 -0.3914  0.6155
  941MOL0     H24147   1.283   5.996   3.138 -0.9040  1.6024  0.3991
  941MOL0     H24148   1.114   5.909   3.299  3.9815 -1.3349 -0.8937
  941MOL0     H24149   0.916   6.008   3.424 -0.5507  1.2112 -1.2684
  941MOL0     H24150   0.890   5.826   3.448  0.0403  1.1207  1.9621
  941MOL0     H24151   0.703   6.051   3.475  0.8368  0.4715  2.1790
  941MOL0     H24152   0.724   5.900   3.570 -0.3845  0.4904 -0.4821
  941MOL0     H24153   0.631   5.764   3.407  0.6665  0.3154  0.6928
  941MOL0     H24154   0.613   5.889   3.287 -0.4074  0.7281  0.6709
  941MOL0     H24155   0.451   5.833   3.543 -1.5716  0.5032 -0.1927
  941MOL0     H24156   0.460   6.002   3.494 -1.2226 -0.4910  2.3373
  941MOL0     H24157   0.348   5.759   3.346  2.1223  0.3411 -0.9807
  941MOL0     H24158   0.378   5.908   3.259  2.3805 -0.3415 -0.6093
  941MOL0     H24159   0.233   6.029   3.426 -1.7805  0.2468 -1.6555
  941MOL0     H24160   0.185   5.871   3.488 -0.6403  0.4678  1.2706
  941MOL0     H24161   0.026   5.970   3.305 -1.2694  0.1747 -2.2260
  941MOL0     H24162   0.159   6.002   3.199  1.9303  0.8610  0.6682
  941MOL0     H24163   0.186   5.757   3.157 -0.2854 -0.8258 -1.4898
  941MOL0     H24164   0.024   5.826   3.116  1.4076 -0.2826 -1.3705
  941MOL0     H24165   0.128   5.512   3.232  0.2560 -1.4597 -0.0103
  941MOL0     H24166   0.079   5.414   3.566  1.9927 -0.0399 -2.1743
  941MOL0     H24167   0.067   5.309   3.431  1.0613  0.4873 -0.4506
  941MOL0     H24168  -0.160   5.291   3.449  0.1461  0.7063 -0.6508
  941MOL0     H24169  -0.173   5.422   3.577  1.1429  0.1036 -0.4992
  941MOL0     H24170  -0.049   5.145   3.608  0.9629  1.5713 -0.0098
  941MOL0     H24171  -0.030   5.263   3.738  0.1739  0.6843  0.0590
  941MOL0     H24172  -0.291   5.153   3.617  0.2073 -1.8968 -0.6128
  941MOL0     H24173  -0.287   5.254   3.767  1.8026 -0.0678  2.5873
  941MOL0     H24174  -0.151   4.788   3.775  0.2254  1.2186  0.5196
  941MOL0     H24175  -0.326   4.619   3.752 -0.4020 -1.1188  1.9805
  941MOL0     H24176  -0.513   4.293   3.682 -0.0216  0.0345 -1.0451
  941MOL0     H24177  -0.689   4.083   3.675  1.3753  0.4739 -0.6836
  941MOL0     H24178  -1.053   4.117   3.921 -2.4939  0.2932  0.4862
  941MOL0     H24179  -1.093   3.975   3.813 -0.4766  0.8773  1.1013
  941MOL0     H24180  -1.157   4.127   3.639 -1.5225  3.5207 -1.2029
  941MOL0     H24181  -1.121   4.269   3.742 -1.8252  1.6843 -1.5625
  941MOL0     H24182  -1.295   4.197   3.891 -1.3659  1.4548 -0.9483
  941MOL0     H24183  -1.316   4.044   3.786 -0.1087  0.0601 -1.6786
  941MOL0     H24184  -1.350   4.314   3.670 -1.2284  1.1397  0.2384
  941MOL0     H24185  -1.430   4.159   3.624 -2.8184  0.5597  0.5479
  941MOL0     H24186  -1.535   4.170   3.861  2.9958  1.3310  2.9860
  941MOL0     H24187  -1.592   4.279   3.729  1.6307 -0.1397 -2.0064
  941MOL0     H24188  -1.434   4.460   3.835  0.5597  0.0252 -0.0422
  941MOL0     H24189  -1.417   4.372   3.976  1.8770 -1.6024 -1.2483
  941MOL0     H24190  -1.578   4.541   4.005 -0.1862  0.4014  0.1086
  941MOL0     H24191  -1.682   4.491   3.868 -0.0650  1.8444  0.0313
  941MOL0     H24192  -1.711   4.270   3.993 -0.2876 -0.3585  0.8287
  941MOL0     H24193  -1.779   4.416   4.070 -0.6896 -1.1780  0.8458
  941MOL0     H24194  -0.968   4.308   3.866  0.0302 -2.2877  0.8842
  941MOL0     H24195  -0.817   4.510   3.865 -1.2466  0.0668 -2.6799
  941MOL0     H24196  -0.621   4.916   3.865 -0.0609  0.6304  0.7570
  941MOL0     H24197  -0.457   5.089   3.834  2.4560  0.3608  1.1870
  941MOL0     H24198   0.801   5.981   3.007 -1.6059  1.1812  3.1706
  941MOL0     H24199   0.972   6.061   2.851  1.3672 -2.8525 -1.8397
  941MOL0     H24200   1.302   6.249   2.708 -0.3379 -0.5493  1.9659
  941MOL0     H24201   1.440   6.330   2.553  0.1168 -0.8570 -1.4266
  941MOL0     H24202   1.685   6.391   2.480 -0.0048  2.0323 -1.2777
  941MOL0     H24203   1.555   6.390   2.371 -0.3431 -2.0331 -0.7995
  941MOL0     H24204   1.730   6.302   2.190  2.7056 -1.8379  1.7970
  941MOL0     H24205   1.704   6.479   2.226 -3.1182 -0.5880  0.4793
  941MOL0     H24206   1.905   6.454   2.389 -1.3827  0.8148 -0.5862
  941MOL0     H24207   1.932   6.449   2.222  3.2750 -2.5955 -0.9004
  941MOL0     H24208   1.901   6.198   2.391 -3.3525  1.9183 -1.0689
  941MOL0     H24209   1.933   6.201   2.217  2.5824 -0.9012 -0.3143
  941MOL0     H24210   2.307   6.322   2.356 -0.2186 -0.8166  0.6234
  941MOL0     H24211   1.597   5.951   2.462  1.9184 -0.2201  4.3286
  941MOL0     H24212   1.416   5.850   2.619 -2.6600  0.3317  1.3364
  942MOL0     O24213  11.191  10.898   2.829 -0.9116  0.1426  0.6424
  942MOL0     C24214  11.176  11.016   2.832 -0.1858  0.0760  0.0323
  942MOL0     O24215  11.060  11.084   2.809  0.5440  0.3999 -0.1181
  942MOL0     C24216  10.962  11.023   2.737  0.4647 -0.8474  0.0376
  942MOL0     C24217  10.970  10.978   2.608  0.1267  0.0401  0.2241
  942MOL0     C24218  10.858  10.930   2.534 -0.8498  0.1803 -0.7319
  942MOL0     C24219  10.735  10.936   2.598  0.0292  0.7629  0.7260
  942MOL0     O24220  10.621  10.880   2.536  0.2199  0.4004 -0.3426
  942MOL0     C24221  10.645  10.735   2.533  0.2497  0.5969  0.8061
  942MOL0     C24222  10.514  10.667   2.535 -0.7040 -0.0022  0.9731
  942MOL0     C24223  10.427  10.717   2.417  0.0894  0.3167 -0.5403
  942MOL0     C24224  10.323  10.605   2.379 -0.0705  0.1108  1.0910
  942MOL0     C24225  10.216  10.657   2.288  0.1487  0.6790  0.4574
  942MOL0     C24226  10.092  10.553   2.300 -0.2382  0.2067  1.3440
  942MOL0     C24227  10.129  10.402   2.293 -0.5391 -0.1512  0.5645
  942MOL0     C24228  10.014  10.304   2.307 -0.1327 -0.2501  0.7228
  942MOL0     N24229   9.933  10.295   2.187  0.6827 -0.1135  0.3479
  942MOL0     C24230   9.830  10.371   2.162  1.2597  0.0454  0.0770
  942MOL0     C24231   9.786  10.315   2.045  0.2217  0.0899 -0.2858
  942MOL0     C24232   9.679  10.358   1.951 -0.2505  0.0192  0.4447
  942MOL0     C24233   9.715  10.503   1.908  0.5869 -0.0796  0.6991
  942MOL0     C24234   9.628  10.551   1.790  0.5155  0.0203  0.1930
  942MOL0     C24235   9.635  10.704   1.757  0.2882  0.5216 -0.1280
  942MOL0     O24236   9.612  10.776   1.878 -0.4708  0.0553 -0.0730
  942MOL0     C24237   9.643  10.912   1.883  0.8834  0.3922 -0.4400
  942MOL0     C24238   9.705  10.990   1.790 -0.2486  0.6284 -0.0236
  942MOL0     C24239   9.745  11.128   1.817 -0.3449 -0.1149  0.4078
  942MOL0     C24240   9.716  11.192   1.943  0.4222  0.4719  0.8332
  942MOL0     C24241   9.765  11.327   1.977 -0.3297 -0.8760 -0.6757
  942MOL0     O24242   9.878  11.371   1.900 -0.7173  0.0264 -0.1866
  942MOL0     C24243   9.929  11.499   1.909 -0.3482 -0.2995 -0.0270
  942MOL0     C24244  10.058  11.503   1.856  0.2356 -1.3592  0.1436
  942MOL0     C24245  10.125  11.627   1.851 -0.9523  0.6415 -0.2703
  942MOL0     C24246  10.074  11.741   1.897 -0.0232 -0.3767  0.0443
  942MOL0     O24247  10.151  11.856   1.881 -0.1171  0.1603 -0.1534
  942MOL0     C24248  10.081  11.984   1.914  0.4984  0.2147 -0.4854
  942MOL0     C24249  10.154  12.104   1.845 -0.0454 -0.4838 -0.6687
  942MOL0     C24250  10.299  12.133   1.897  0.2217 -0.6070  0.0216
  942MOL0     C24251  10.304  12.283   1.942  0.6731  0.5256 -0.8165
  942MOL0     C24252  10.450  12.312   1.981  0.4388 -0.1580 -0.1204
  942MOL0     C24253  10.455  12.466   2.023 -0.6864 -0.5661  0.4481
  942MOL0     C24254  10.591  12.523   2.062  0.8069  0.2663 -0.7040
  942MOL0     C24255  10.641  12.469   2.193  0.1349  0.6136 -0.1138
  942MOL0    Cl24256  10.536  12.497   2.342  0.2977 -0.0780  0.0701
  942MOL0     C24257   9.945  11.737   1.954  0.4107 -0.3248 -1.1569
  942MOL0     C24258   9.870  11.615   1.957  0.1732 -0.6117 -0.0756
  942MOL0     O24259   9.715  11.393   2.068 -0.2561 -0.1443 -0.1294
  942MOL0     C24260   9.638  11.117   2.032 -0.9506 -0.7411  0.0713
  942MOL0     C24261   9.607  10.982   1.999 -0.1266  0.0669 -0.2692
  942MOL0     N24262   9.871  10.206   2.017  0.0776 -0.2655 -0.3105
  942MOL0     N24263   9.963  10.197   2.097 -0.2065 -0.3279 -0.6542
  942MOL0     C24264  10.720  10.981   2.723 -0.3308 -0.0911  0.2144
  942MOL0     C24265  10.834  11.025   2.793  0.3679 -0.6735 -0.0141
  942MOL0     C24266  11.292  11.090   2.887  0.5197 -0.0407 -0.4678
  942MOL0     C24267  11.288  11.219   2.933 -0.2403 -0.6155 -0.3623
  942MOL0     C24268  11.410  11.289   2.973 -0.1368  0.1998  0.3652
  942MOL0     C24269  11.534  11.231   2.961 -0.1498  0.3813  0.2214
  942MOL0     O24270  11.650  11.300   2.982  0.2729 -0.7748 -0.0910
  942MOL0     C24271  11.774  11.238   3.006 -0.0797 -0.6702  0.4649
  942MOL0     C24272  11.866  11.352   2.973  0.4027  0.3299  0.3868
  942MOL0     C24273  12.006  11.295   2.977  0.2936 -0.1464 -0.2397
  942MOL0     C24274  12.053  11.271   3.121 -0.5026 -0.0112 -0.1566
  942MOL0     C24275  12.035  11.138   3.168  0.4306  0.7106  0.5390
  942MOL0     C24276  12.015  11.033   3.215 -0.3105  0.8548 -0.3873
  942MOL0     C24277  11.532  11.097   2.916 -0.0562 -0.7177  0.4177
  942MOL0     C24278  11.420  11.024   2.886 -0.3710 -0.5458  0.2996
  942MOL0     H24279  11.067  10.949   2.569 -0.9010 -2.1806 -0.8804
  942MOL0     H24280  10.871  10.866   2.446  1.5776 -0.8402  0.2527
  942MOL0     H24281  10.706  10.707   2.620  2.1481 -1.5172 -1.1099
  942MOL0     H24282  10.697  10.697   2.445 -0.2103  0.4210  0.6066
  942MOL0     H24283  10.479  10.681   2.637 -1.5075  0.1215  0.6820
  942MOL0     H24284  10.541  10.563   2.513 -1.9339 -0.4253  1.3935
  942MOL0     H24285  10.485  10.743   2.328 -1.2110  0.3931 -1.3797
  942MOL0     H24286  10.368  10.805   2.443  0.9871  0.9076 -0.4492
  942MOL0     H24287  10.379  10.523   2.333  0.1915  0.9770 -0.1940
  942MOL0     H24288  10.270  10.562   2.464 -0.7933 -0.9787  0.1170
  942MOL0     H24289  10.257  10.655   2.187  1.7704 -0.0586  1.1018
  942MOL0     H24290  10.183  10.758   2.313 -0.0642  0.8802 -0.5845
  942MOL0     H24291  10.020  10.566   2.219  2.1542  0.4948 -0.8792
  942MOL0     H24292  10.029  10.566   2.388  0.3063  1.2927  1.5962
  942MOL0     H24293  10.180  10.387   2.197 -1.1904 -0.1691  0.2205
  942MOL0     H24294  10.193  10.371   2.376 -0.9173 -1.3195  0.4358
  942MOL0     H24295   9.953  10.343   2.389  2.4580  2.6332  1.4987
  942MOL0     H24296  10.061  10.212   2.343  1.9382  0.4591  0.0114
  942MOL0     H24297   9.781  10.450   2.219 -0.8738 -2.3124  1.7621
  942MOL0     H24298   9.587  10.363   2.010  0.8645  1.3385  2.1738
  942MOL0     H24299   9.666  10.291   1.865  0.2332  2.8421 -1.9938
  942MOL0     H24300   9.819  10.507   1.874  0.6263  1.5175  0.9442
  942MOL0     H24301   9.680  10.569   1.987 -0.3099 -0.1695  0.3830
  942MOL0     H24302   9.658  10.499   1.699  3.6049  2.3945 -0.3195
  942MOL0     H24303   9.526  10.515   1.804 -0.0664 -0.4176 -3.9419
  942MOL0     H24304   9.563  10.726   1.678  0.5512 -1.1584 -0.8844
  942MOL0     H24305   9.733  10.730   1.717  0.7098  0.6150  0.9191
  942MOL0     H24306   9.742  10.949   1.696  0.4289  1.0492  0.0524
  942MOL0     H24307   9.792  11.181   1.735 -0.1910 -0.9821 -0.0765
  942MOL0     H24308  10.108  11.421   1.807  0.0089 -0.6668 -1.2920
  942MOL0     H24309  10.222  11.645   1.806 -1.9271 -0.2278 -2.8803
  942MOL0     H24310  10.073  12.002   2.021  2.7875  0.9642 -0.3834
  942MOL0     H24311   9.975  11.977   1.888 -0.3986  0.6561  2.6982
  942MOL0     H24312  10.098  12.198   1.854  0.3421 -0.3743  0.7715
  942MOL0     H24313  10.155  12.075   1.740  2.3711 -1.3678 -0.4521
  942MOL0     H24314  10.373  12.113   1.818  0.0079  1.4770 -0.7682
  942MOL0     H24315  10.314  12.071   1.986  1.6081  0.6351  0.6997
  942MOL0     H24316  10.282  12.353   1.861  0.0500  0.9382 -0.2992
  942MOL0     H24317  10.238  12.313   2.024  1.4601  0.7960 -0.2716
  942MOL0     H24318  10.517  12.293   1.897 -0.3054 -1.8326 -0.3655
  942MOL0     H24319  10.484  12.244   2.060  1.4227  0.8895  0.3944
  942MOL0     H24320  10.390  12.487   2.108 -0.8958 -2.0351  0.6779
  942MOL0     H24321  10.422  12.536   1.945  5.7742  3.1566  0.3581
  942MOL0     H24322  10.660  12.493   1.982 -0.8371 -3.3692 -0.9514
  942MOL0     H24323  10.585  12.632   2.070 -1.2819  0.4215 -3.0800
  942MOL0     H24324  10.738  12.516   2.214  0.8770 -0.9163 -0.0011
  942MOL0     H24325  10.647  12.361   2.176 -0.6304  0.5130  0.2556
  942MOL0     H24326   9.917  11.824   2.012 -0.5863 -0.8427 -0.8457
  942MOL0     H24327   9.780  11.645   2.010 -1.4835  4.5007 -4.8793
  942MOL0     H24328   9.608  11.149   2.131 -2.0308 -0.9048 -0.1833
  942MOL0     H24329   9.557  10.920   2.073  0.3436  2.4651  2.2203
  942MOL0     H24330  10.620  10.979   2.765 -1.3640 -2.5884 -2.0854
  942MOL0     H24331  10.808  11.087   2.878  0.4975 -2.6061  1.5070
  942MOL0     H24332  11.193  11.272   2.923 -0.1540 -0.8201 -3.1091
  942MOL0     H24333  11.410  11.394   3.003 -0.0568  0.9463 -2.0367
  942MOL0     H24334  11.797  11.150   2.945  0.3786 -1.1896  1.3659
  942MOL0     H24335  11.772  11.205   3.110  0.5576  1.7842  1.3211
  942MOL0     H24336  11.839  11.397   2.877  0.0838  0.5235  0.5647
  942MOL0     H24337  11.852  11.437   3.041 -4.6173 -0.3274  0.6075
  942MOL0     H24338  12.071  11.376   2.943 -0.3693  0.3676 -0.3025
  942MOL0     H24339  12.021  11.208   2.912  0.2407  0.7368 -1.4502
  942MOL0     H24340  12.159  11.300   3.122 -0.8603  1.4734 -1.5443
  942MOL0     H24341  11.993  11.325   3.195 -0.5797 -2.5830  1.7930
  942MOL0     H24342  11.994  10.934   3.250  2.0979 -0.0167 -1.1963
  942MOL0     H24343  11.620  11.034   2.923 -0.3525 -1.2873 -0.7389
  942MOL0     H24344  11.431  10.919   2.859 -0.2019 -0.6910  0.9191
  943MOL0     O24345   9.125   1.631   3.337  0.2765 -0.0837  0.2012
  943MOL0     C24346   9.225   1.597   3.398 -0.4936  0.3702 -0.1555
  943MOL0     O24347   9.240   1.465   3.448 -0.2518 -0.4913  0.7946
  943MOL0     C24348   9.147   1.369   3.424 -0.1209 -0.4580 -0.1594
  943MOL0     C24349   9.050   1.351   3.324 -0.2642  0.6692  0.1381
  943MOL0     C24350   8.976   1.238   3.319 -0.3046 -0.0510 -0.2970
  943MOL0     C24351   8.981   1.129   3.413 -0.0800 -0.1650 -0.0838
  943MOL0     O24352   8.900   1.025   3.401 -0.8434 -0.4280 -0.0673
  943MOL0     C24353   8.775   1.031   3.468 -0.7987 -0.1168  0.3014
  943MOL0     C24354   8.688   0.914   3.433  0.4131 -0.0798  0.3545
  943MOL0     C24355   8.753   0.790   3.494 -0.1006  1.3165 -0.1965
  943MOL0     C24356   8.646   0.678   3.503  0.1442 -0.3770 -0.2080
  943MOL0     C24357   8.708   0.555   3.575  0.0999  0.2150  0.1059
  943MOL0     C24358   8.601   0.461   3.634  0.2621  0.2397  0.0049
  943MOL0     C24359   8.519   0.402   3.513  0.5550 -0.7967  0.3871
  943MOL0     C24360   8.435   0.276   3.553 -0.1731 -0.1132 -0.1162
  943MOL0     N24361   8.498   0.153   3.501  0.3249 -0.1395 -0.6606
  943MOL0     C24362   8.502   0.099   3.378 -0.2912 -0.0203  0.4299
  943MOL0     C24363   8.565  -0.019   3.396  0.7680 -0.0922  1.0471
  943MOL0     C24364   8.612  -0.102   3.274  0.3355 -0.4282 -0.6262
  943MOL0     C24365   8.530  -0.230   3.259 -0.4813  0.1579  0.3371
  943MOL0     C24366   8.380  -0.180   3.229  0.6731  0.8348  0.1859
  943MOL0     C24367   8.287  -0.306   3.213  0.4692 -0.5905 -0.5922
  943MOL0     O24368   8.244  -0.365   3.340  0.2219  0.4256  0.1894
  943MOL0     C24369   8.143  -0.455   3.324 -0.3463  0.8680  0.1605
  943MOL0     C24370   8.081  -0.501   3.209  0.3997 -0.6704  0.4011
  943MOL0     C24371   7.978  -0.594   3.224  0.7934 -1.4214 -0.0431
  943MOL0     C24372   7.937  -0.649   3.344 -0.2040  0.0932 -0.4104
  943MOL0     C24373   7.822  -0.748   3.353  0.1055  0.5742 -0.3096
  943MOL0     O24374   7.795  -0.833   3.247  0.0677  0.6026  0.2616
  943MOL0     C24375   7.703  -0.934   3.268  0.0750  0.3429 -0.5776
  943MOL0     C24376   7.642  -0.974   3.154 -0.2106 -0.3084  0.6533
  943MOL0     C24377   7.544  -1.073   3.145  0.6934  0.1887 -0.6820
  943MOL0     C24378   7.510  -1.143   3.260  0.5476  0.0741  1.6027
  943MOL0     O24379   7.413  -1.237   3.238 -0.0462  0.7709  0.0142
  943MOL0     C24380   7.356  -1.300   3.347  0.5583  0.2903  0.5318
  943MOL0     C24381   7.201  -1.306   3.327  0.0102  1.3792  0.1003
  943MOL0     C24382   7.173  -1.375   3.192 -0.2016 -0.6421  0.5585
  943MOL0     C24383   7.022  -1.389   3.178  0.3715 -0.1335 -0.2600
  943MOL0     C24384   6.964  -1.515   3.253  0.6835 -0.8071 -0.1614
  943MOL0     C24385   7.015  -1.641   3.205 -0.2153 -0.0076 -0.6844
  943MOL0     C24386   6.931  -1.762   3.264 -0.2315  0.2346  0.7983
  943MOL0     C24387   6.993  -1.900   3.246 -0.3532 -0.1521  0.1105
  943MOL0    Cl24388   7.040  -1.928   3.066 -0.1938  0.4061  0.0082
  943MOL0     C24389   7.586  -1.118   3.376  0.2414 -0.9584 -0.1828
  943MOL0     C24390   7.678  -1.016   3.381 -0.2817 -1.0367 -0.4180
  943MOL0     O24391   7.760  -0.746   3.460  0.3104  0.1431  0.5545
  943MOL0     C24392   7.995  -0.601   3.464 -0.2503 -0.0797 -0.0823
  943MOL0     C24393   8.096  -0.500   3.452  0.2973  1.0377  0.0003
  943MOL0     N24394   8.596  -0.041   3.534 -0.0984  0.6377  0.6414
  943MOL0     N24395   8.554   0.067   3.597 -0.4723 -0.1351  0.8050
  943MOL0     C24396   9.071   1.149   3.515  0.2489  0.3336  0.5507
  943MOL0     C24397   9.162   1.263   3.516  0.1981  0.5887 -0.9500
  943MOL0     C24398   9.331   1.691   3.420 -0.1434  0.2392  0.2800
  943MOL0     C24399   9.439   1.656   3.505 -0.3400  0.6838 -0.7007
  943MOL0     C24400   9.540   1.738   3.543 -0.3320  0.3224 -0.3996
  943MOL0     C24401   9.533   1.877   3.497  1.1090 -0.9959  0.1742
  943MOL0     O24402   9.621   1.982   3.515 -1.2509  0.6622  0.0943
  943MOL0     C24403   9.645   2.015   3.655  0.0090  0.3168  0.3215
  943MOL0     C24404   9.730   2.140   3.674 -0.9480  0.3860  0.3668
  943MOL0     C24405   9.792   2.153   3.812  0.1931  0.0632  0.4399
  943MOL0     C24406   9.898   2.265   3.816 -0.2665  0.8400 -0.2367
  943MOL0     C24407   9.960   2.276   3.952  0.3761  0.3388 -0.7111
  943MOL0     C24408  10.021   2.277   4.057 -0.6372  0.0438  0.4858
  943MOL0     C24409   9.419   1.916   3.412 -0.0639  0.3370 -0.3343
  943MOL0     C24410   9.321   1.824   3.375  0.7960  0.9861 -0.3560
  943MOL0     H24411   9.038   1.420   3.241  1.0832  1.6102  0.6842
  943MOL0     H24412   8.905   1.240   3.236  1.1237  0.9003 -1.5450
  943MOL0     H24413   8.719   1.121   3.441  0.1916  0.5870  0.5260
  943MOL0     H24414   8.789   1.029   3.576 -1.1373  0.3172  0.3563
  943MOL0     H24415   8.659   0.901   3.328  2.4730 -1.0632 -0.1451
  943MOL0     H24416   8.603   0.935   3.498  1.2296  0.3819  1.3054
  943MOL0     H24417   8.789   0.807   3.596 -1.6087  0.2002  0.5637
  943MOL0     H24418   8.836   0.751   3.435 -2.0066 -4.3569  0.2253
  943MOL0     H24419   8.554   0.704   3.557 -0.3387 -1.0059 -0.7018
  943MOL0     H24420   8.606   0.643   3.407  2.2728 -0.2869 -1.1894
  943MOL0     H24421   8.765   0.582   3.663  0.5879  1.3554 -0.5429
  943MOL0     H24422   8.776   0.495   3.513 -0.6528 -1.2027  0.6095
  943MOL0     H24423   8.533   0.512   3.702 -0.7395  1.0787 -1.5737
  943MOL0     H24424   8.652   0.381   3.688 -3.0463 -1.9066  0.1834
  943MOL0     H24425   8.435   0.467   3.486  0.0361 -1.3493  0.6573
  943MOL0     H24426   8.593   0.369   3.440  2.5282  0.4484  1.7112
  943MOL0     H24427   8.340   0.265   3.500 -0.2896 -0.9954  0.2532
  943MOL0     H24428   8.409   0.272   3.660 -1.9046 -3.2474 -0.5388
  943MOL0     H24429   8.476   0.143   3.282  0.1936  1.4024  0.9102
  943MOL0     H24430   8.714  -0.134   3.296  0.4998  0.1863 -0.4565
  943MOL0     H24431   8.607  -0.044   3.181  0.7497 -0.0806 -0.4357
  943MOL0     H24432   8.529  -0.295   3.347 -2.6088  0.8184  0.8735
  943MOL0     H24433   8.574  -0.277   3.170 -2.5653  1.0923 -1.2820
  943MOL0     H24434   8.343  -0.130   3.320  3.2283  1.6130  0.8694
  943MOL0     H24435   8.380  -0.119   3.138  3.7008  1.2450  0.3738
  943MOL0     H24436   8.334  -0.380   3.149  1.5771 -0.9981  0.6425
  943MOL0     H24437   8.199  -0.271   3.158 -1.1184  1.2140  2.7786
  943MOL0     H24438   8.102  -0.475   3.105 -0.0615 -2.1756 -0.0982
  943MOL0     H24439   7.923  -0.624   3.135 -1.6866 -3.1305  1.9371
  943MOL0     H24440   7.672  -0.925   3.062  0.1961 -1.8514 -0.0875
  943MOL0     H24441   7.493  -1.100   3.053 -1.5693  2.2301 -0.1531
  943MOL0     H24442   7.370  -1.252   3.445 -1.3041  0.5203  0.7320
  943MOL0     H24443   7.376  -1.408   3.355 -0.6101  0.1096  1.3762
  943MOL0     H24444   7.164  -1.203   3.327 -1.3178  0.9435 -1.1413
  943MOL0     H24445   7.156  -1.363   3.408 -0.9096  1.1359 -0.5688
  943MOL0     H24446   7.229  -1.469   3.190  4.2309  1.6314  2.7457
  943MOL0     H24447   7.191  -1.317   3.100 -1.5924 -0.3312  0.4657
  943MOL0     H24448   6.963  -1.304   3.214  1.3220  1.5342 -2.3502
  943MOL0     H24449   6.998  -1.398   3.071 -0.3952 -0.7046 -0.0458
  943MOL0     H24450   6.855  -1.506   3.248  0.6616  0.5268  1.6368
  943MOL0     H24451   6.981  -1.499   3.360 -3.4470 -1.5139  0.7641
  943MOL0     H24452   7.121  -1.653   3.233 -0.4229 -1.4258 -0.4272
  943MOL0     H24453   7.007  -1.646   3.096 -1.2260 -2.7733 -0.5822
  943MOL0     H24454   6.905  -1.746   3.369 -2.6236  1.6576  0.0524
  943MOL0     H24455   6.839  -1.752   3.206 -0.4040  0.8130  1.1649
  943MOL0     H24456   6.917  -1.975   3.269 -0.7715 -1.0258 -3.5662
  943MOL0     H24457   7.080  -1.903   3.313 -1.3173 -0.8755  1.3738
  943MOL0     H24458   7.567  -1.182   3.462  0.5854 -1.1324 -0.2372
  943MOL0     H24459   7.720  -0.994   3.480 -0.6813  2.8632 -0.9468
  943MOL0     H24460   7.964  -0.639   3.561 -1.0094  2.5020  0.7431
  943MOL0     H24461   8.134  -0.459   3.544 -1.8800  1.0855  0.9314
  943MOL0     H24462   9.084   1.070   3.587 -0.6017 -0.9005 -0.5994
  943MOL0     H24463   9.241   1.268   3.590  0.7032 -0.7074 -1.3808
  943MOL0     H24464   9.441   1.559   3.554 -0.9989  1.8777  1.8872
  943MOL0     H24465   9.621   1.695   3.602 -1.1078 -0.2844  0.2326
  943MOL0     H24466   9.683   1.936   3.720 -3.2757  0.0341  2.0720
  943MOL0     H24467   9.549   2.027   3.705  0.9835  2.1149  1.8620
  943MOL0     H24468   9.811   2.126   3.601 -0.5326  1.1097  0.6739
  943MOL0     H24469   9.666   2.225   3.648 -0.6728  0.2210 -0.9053
  943MOL0     H24470   9.850   2.062   3.830  2.0977  1.3270  0.8972
  943MOL0     H24471   9.714   2.163   3.888  1.2299  0.3282  1.4972
  943MOL0     H24472   9.972   2.229   3.744 -1.3536 -0.9941 -0.4970
  943MOL0     H24473   9.855   2.361   3.784  0.2312  0.0566 -3.5465
  943MOL0     H24474  10.079   2.277   4.147  3.4575 -0.5320 -1.9313
  943MOL0     H24475   9.418   2.018   3.378  1.8678  0.6749  0.4544
  943MOL0     H24476   9.234   1.866   3.325  1.0238  1.7660 -0.1056
  944MOL0     O24477   0.268   4.015   7.050 -0.3456  0.0149 -0.2666
  944MOL0     C24478   0.233   3.919   7.119  0.3960 -0.9305  0.6692
  944MOL0     O24479   0.307   3.869   7.221  0.1006  0.6400  0.4254
  944MOL0     C24480   0.409   3.934   7.280  0.2720 -0.6784 -1.2097
  944MOL0     C24481   0.394   3.987   7.411  0.4523 -0.0508 -0.2450
  944MOL0     C24482   0.499   4.038   7.482  0.2827 -0.3436 -0.7865
  944MOL0     C24483   0.630   4.045   7.425  0.0574  0.0270  0.4234
  944MOL0     O24484   0.732   4.090   7.495 -0.1324 -0.8728 -0.3994
  944MOL0     C24485   0.824   3.981   7.526 -0.0723 -0.8350 -0.4347
  944MOL0     C24486   0.963   4.034   7.558  0.6509 -0.0842 -0.2829
  944MOL0     C24487   1.025   4.055   7.427 -0.4926 -0.7592  0.2814
  944MOL0     C24488   1.173   4.112   7.434  0.3434  0.2184  0.9111
  944MOL0     C24489   1.248   4.120   7.299  0.4182  1.0780  0.3472
  944MOL0     C24490   1.393   4.112   7.331 -0.1647 -0.1884 -0.2030
  944MOL0     C24491   1.435   4.224   7.422 -0.5381  0.0534  0.1082
  944MOL0     C24492   1.585   4.254   7.388 -0.7676  0.0108  0.3325
  944MOL0     N24493   1.656   4.293   7.512  0.1310 -0.1704  0.5966
  944MOL0     C24494   1.610   4.366   7.614  0.2941 -0.6259 -0.2499
  944MOL0     C24495   1.698   4.350   7.712 -0.4395 -0.6769  0.2324
  944MOL0     C24496   1.691   4.418   7.845  0.3286  0.5315 -1.2663
  944MOL0     C24497   1.550   4.455   7.896 -1.0836  0.7241 -0.4117
  944MOL0     C24498   1.551   4.510   8.041 -0.5973 -0.1508  0.3825
  944MOL0     C24499   1.410   4.507   8.100 -0.7606 -0.1927  0.3311
  944MOL0     O24500   1.318   4.559   7.993  0.0454  0.0344  0.0858
  944MOL0     C24501   1.179   4.564   8.009 -0.1392  0.5074  0.8076
  944MOL0     C24502   1.116   4.655   7.924 -0.4635  0.0943 -0.1841
  944MOL0     C24503   0.979   4.689   7.940  0.5204  0.6728 -0.2207
  944MOL0     C24504   0.901   4.618   8.031  0.6652 -0.0838  0.0516
  944MOL0     C24505   0.762   4.652   8.051  1.1425  0.6700  0.1188
  944MOL0     O24506   0.717   4.767   7.987 -0.6851  0.1612 -0.0435
  944MOL0     C24507   0.582   4.803   7.977 -0.4389  0.5505  0.2755
  944MOL0     C24508   0.469   4.725   7.997 -0.6122  0.2546  0.3306
  944MOL0     C24509   0.345   4.786   7.985 -0.3040  0.2622 -0.4206
  944MOL0     C24510   0.328   4.923   7.950  0.0334 -0.2575 -0.6098
  944MOL0     O24511   0.211   4.983   7.954  0.6197  0.1703 -0.0803
  944MOL0     C24512   0.092   4.918   7.990 -0.6373  0.2589  0.1350
  944MOL0     C24513  -0.023   5.018   7.997 -0.0347 -0.6357  0.0897
  944MOL0     C24514  -0.162   4.946   8.018 -0.7208 -0.2367 -0.1062
  944MOL0     C24515  -0.270   5.060   8.025  0.4084 -0.3407 -0.6306
  944MOL0     C24516  -0.414   5.010   8.055 -0.1768 -0.1833  0.3046
  944MOL0     C24517  -0.472   4.908   7.957 -0.6316 -1.0027 -0.4081
  944MOL0     C24518  -0.622   4.896   7.956 -0.7899 -0.0079  0.3071
  944MOL0     C24519  -0.667   4.796   7.848 -0.1997  0.4424 -0.1319
  944MOL0    Cl24520  -0.640   4.863   7.684  0.2741  0.5102  0.0547
  944MOL0     C24521   0.441   4.995   7.925 -0.7449 -0.3227  0.4312
  944MOL0     C24522   0.564   4.936   7.943 -0.8981  0.6756 -0.7451
  944MOL0     O24523   0.687   4.577   8.110  0.0859  0.5940  0.4408
  944MOL0     C24524   0.967   4.518   8.100 -0.4496  0.8363 -0.9728
  944MOL0     C24525   1.104   4.486   8.093 -0.4138 -0.2487 -0.5385
  944MOL0     N24526   1.796   4.265   7.667 -0.2713 -0.4996 -0.3335
  944MOL0     N24527   1.766   4.230   7.545  0.3930 -0.2036 -0.7757
  944MOL0     C24528   0.633   4.008   7.286 -0.6756 -0.3678 -0.8229
  944MOL0     C24529   0.528   3.946   7.220 -0.3644  1.1536 -0.7171
  944MOL0     C24530   0.094   3.870   7.099  0.1554  0.1035  0.9269
  944MOL0     C24531   0.057   3.752   7.168  0.0681 -0.0675 -0.6891
  944MOL0     C24532  -0.078   3.706   7.164 -0.7224 -0.3915  0.1459
  944MOL0     C24533  -0.175   3.770   7.086 -0.2547 -0.0824  0.4017
  944MOL0     O24534  -0.308   3.745   7.075  0.4102  0.4155  0.1320
  944MOL0     C24535  -0.364   3.641   7.158 -0.3144 -0.2560 -0.0527
  944MOL0     C24536  -0.518   3.644   7.149  0.2563 -0.0767  0.3414
  944MOL0     C24537  -0.586   3.660   7.007 -0.3907  0.0534  0.2863
  944MOL0     C24538  -0.725   3.709   7.010 -0.0889  0.0129  1.1678
  944MOL0     C24539  -0.789   3.706   6.877 -1.0215 -0.6075  0.2623
  944MOL0     C24540  -0.851   3.715   6.770 -1.1763  0.2906  0.2110
  944MOL0     C24541  -0.135   3.893   7.026  0.2977  0.3412  0.3377
  944MOL0     C24542  -0.003   3.943   7.024 -0.2598  0.8649  0.1002
  944MOL0     H24543   0.301   3.974   7.465  1.6879 -0.0940  1.9639
  944MOL0     H24544   0.479   4.069   7.584  1.4807  0.4796 -0.7743
  944MOL0     H24545   0.827   3.908   7.445 -0.0892 -0.1980 -1.0248
  944MOL0     H24546   0.804   3.941   7.626  1.1524 -3.7015 -1.2320
  944MOL0     H24547   1.011   3.953   7.613 -0.1900  1.0024  2.1907
  944MOL0     H24548   0.955   4.127   7.616  2.0007  0.4151 -0.8480
  944MOL0     H24549   0.962   4.118   7.364  1.8222 -0.3588 -1.8059
  944MOL0     H24550   1.024   3.960   7.374 -0.2634 -0.5594 -0.0912
  944MOL0     H24551   1.174   4.208   7.485  1.8188  0.7173 -0.0155
  944MOL0     H24552   1.225   4.041   7.499  2.9171 -2.2977 -3.4524
  944MOL0     H24553   1.220   4.208   7.239  1.2197  0.2502 -1.3192
  944MOL0     H24554   1.223   4.033   7.237  0.5211  1.1194  0.2489
  944MOL0     H24555   1.437   4.126   7.232  1.1620 -0.1258  0.3752
  944MOL0     H24556   1.417   4.015   7.375 -0.5465 -0.1104  0.1805
  944MOL0     H24557   1.377   4.316   7.429 -2.6889 -1.3635  2.5297
  944MOL0     H24558   1.427   4.174   7.519  1.1554 -1.7849 -0.6032
  944MOL0     H24559   1.590   4.333   7.312 -0.4388  0.3011  0.6471
  944MOL0     H24560   1.636   4.170   7.342 -0.5743 -0.6812  1.7575
  944MOL0     H24561   1.514   4.416   7.620 -0.9260 -2.9130  0.4985
  944MOL0     H24562   1.751   4.508   7.832 -1.1073  1.5091 -1.3086
  944MOL0     H24563   1.736   4.352   7.921  0.6946  1.0867 -0.9885
  944MOL0     H24564   1.487   4.366   7.890  1.0593 -0.8556 -0.4375
  944MOL0     H24565   1.512   4.533   7.829  1.7916  0.4118 -2.5930
  944MOL0     H24566   1.620   4.447   8.099  1.3055  0.5671 -1.0232
  944MOL0     H24567   1.593   4.611   8.046  1.0571 -0.7931  0.2180
  944MOL0     H24568   1.403   4.585   8.177 -0.0214  0.2359 -0.0229
  944MOL0     H24569   1.384   4.407   8.135 -0.5336 -1.3118 -2.4541
  944MOL0     H24570   1.173   4.710   7.850 -1.1902  1.3949  0.1704
  944MOL0     H24571   0.927   4.761   7.877  1.0646  0.8770 -0.4387
  944MOL0     H24572   0.481   4.621   8.026  1.4739  0.5068  0.4882
  944MOL0     H24573   0.271   4.713   8.016  1.1370 -0.8565  0.5304
  944MOL0     H24574   0.101   4.896   8.097 -0.7915  1.2646  0.3659
  944MOL0     H24575   0.073   4.825   7.935  2.1285 -2.2271  2.9438
  944MOL0     H24576  -0.028   5.078   7.906  1.3801 -1.2737 -0.4367
  944MOL0     H24577  -0.009   5.088   8.079 -0.4722 -0.6282  0.1615
  944MOL0     H24578  -0.155   4.895   8.114 -0.1639  1.3537  0.7391
  944MOL0     H24579  -0.175   4.871   7.940  2.0698 -2.5948  1.5240
  944MOL0     H24580  -0.245   5.128   8.107 -1.7352  0.0224 -0.2168
  944MOL0     H24581  -0.270   5.127   7.938  0.5039  0.5916  0.0638
  944MOL0     H24582  -0.483   5.096   8.056  0.9705  0.7744  1.5822
  944MOL0     H24583  -0.415   4.973   8.158 -0.2115  0.7000  0.6329
  944MOL0     H24584  -0.429   4.813   7.989  1.8340  0.8858  2.3970
  944MOL0     H24585  -0.442   4.934   7.855 -0.7209 -1.7226 -0.6240
  944MOL0     H24586  -0.647   4.843   8.049  1.5952 -2.0937 -0.1130
  944MOL0     H24587  -0.667   4.992   7.931  0.1945  0.5109  0.4745
  944MOL0     H24588  -0.775   4.782   7.843 -0.1553 -3.5873  3.7951
  944MOL0     H24589  -0.620   4.698   7.863 -3.5402 -1.1083  1.1763
  944MOL0     H24590   0.431   5.098   7.894 -0.8236  1.0225  4.3997
  944MOL0     H24591   0.649   5.003   7.933 -0.5038  0.4415  0.7085
  944MOL0     H24592   0.915   4.461   8.177 -1.8133  1.3003 -1.5231
  944MOL0     H24593   1.147   4.411   8.159 -0.2775  0.4132  0.1325
  944MOL0     H24594   0.728   4.024   7.236 -1.3296 -0.0518 -1.9849
  944MOL0     H24595   0.531   3.911   7.117 -0.6007  1.5359 -0.8561
  944MOL0     H24596   0.117   3.684   7.228 -0.0903  0.3186 -0.0816
  944MOL0     H24597  -0.106   3.609   7.203 -2.6632 -0.0932 -0.3976
  944MOL0     H24598  -0.325   3.650   7.260 -0.6915 -2.5967  0.3538
  944MOL0     H24599  -0.333   3.543   7.121 -1.0948  0.1437 -1.8761
  944MOL0     H24600  -0.564   3.560   7.203 -0.1644  1.0273  1.7895
  944MOL0     H24601  -0.525   3.733   7.211  2.2574 -1.4714  2.7557
  944MOL0     H24602  -0.580   3.564   6.954  0.4793 -0.1117  0.6594
  944MOL0     H24603  -0.524   3.733   6.955  0.9296 -0.9136  0.4527
  944MOL0     H24604  -0.780   3.640   7.074  0.7877 -2.4204 -0.5587
  944MOL0     H24605  -0.721   3.813   7.043 -1.5070 -0.1300  1.8578
  944MOL0     H24606  -0.910   3.725   6.682 -0.9030 -1.7468 -0.2504
  944MOL0     H24607  -0.213   3.939   6.968  0.7037  0.1372 -0.3857
  944MOL0     H24608   0.021   4.035   6.972 -1.3336  0.9800 -0.2126
  945MOL0     O24609   5.778   7.850   5.979  0.1845  0.5103 -0.6103
  945MOL0     C24610   5.824   7.931   6.068 -1.1129 -0.1963  0.1108
  945MOL0     O24611   5.754   8.025   6.142 -0.1967 -0.4525 -0.1292
  945MOL0     C24612   5.626   8.067   6.107 -0.1892 -0.3218  0.9323
  945MOL0     C24613   5.570   8.162   6.193  0.6804 -1.2587 -0.8889
  945MOL0     C24614   5.445   8.213   6.169 -0.2474 -0.3082  0.4667
  945MOL0     C24615   5.374   8.179   6.056 -0.3512  0.5529  0.3029
  945MOL0     O24616   5.254   8.248   6.042  0.3417 -0.3142  0.7211
  945MOL0     C24617   5.173   8.236   5.927 -0.0917 -0.2689 -0.7967
  945MOL0     C24618   5.021   8.280   5.979 -0.1136  0.6993  0.3191
  945MOL0     C24619   4.932   8.316   5.860  0.7723 -0.6418 -0.0532
  945MOL0     C24620   4.864   8.199   5.796 -0.4267  0.0240 -0.1957
  945MOL0     C24621   4.802   8.239   5.659  0.1435  0.6105  0.4287
  945MOL0     C24622   4.724   8.124   5.592 -0.1214  0.2119 -0.2494
  945MOL0     C24623   4.624   8.159   5.484  1.0904  0.6199  0.3347
  945MOL0     C24624   4.683   8.242   5.371 -0.3091  0.1373  0.2082
  945MOL0     N24625   4.582   8.301   5.292  0.3131  0.2272  0.0145
  945MOL0     C24626   4.470   8.233   5.248 -0.0149  0.3561 -0.4149
  945MOL0     C24627   4.421   8.320   5.149 -0.1340 -0.4673  0.5656
  945MOL0     C24628   4.308   8.286   5.055  0.3031  0.4790 -0.1983
  945MOL0     C24629   4.187   8.387   5.078  0.1311  0.1059  0.5829
  945MOL0     C24630   4.074   8.368   4.977  0.7530  0.1626  0.0502
  945MOL0     C24631   3.990   8.244   5.017  0.3368 -0.1023 -0.0895
  945MOL0     O24632   3.876   8.222   4.927  0.0594 -0.1076 -0.0741
  945MOL0     C24633   3.761   8.289   4.952 -0.9169  0.3077  0.0190
  945MOL0     C24634   3.646   8.250   4.886 -0.4162  0.3872 -0.8698
  945MOL0     C24635   3.514   8.303   4.904 -0.2953  0.9459  0.2206
  945MOL0     C24636   3.495   8.403   4.997 -0.2643  0.4065 -0.1196
  945MOL0     C24637   3.355   8.453   5.036  0.0033  0.2957 -0.5122
  945MOL0     O24638   3.253   8.379   4.985 -0.0694 -0.3205 -0.3030
  945MOL0     C24639   3.129   8.430   4.983  0.5094 -0.1532  0.4549
  945MOL0     C24640   3.068   8.451   4.861 -0.2954  0.2321  0.7047
  945MOL0     C24641   2.943   8.503   4.859 -0.2060 -0.1828 -0.1631
  945MOL0     C24642   2.867   8.544   4.974 -0.1216 -0.7528 -1.3092
  945MOL0     O24643   2.742   8.601   4.957 -0.9763 -0.0303  0.3382
  945MOL0     C24644   2.705   8.696   5.059  0.8547  0.3271 -0.1998
  945MOL0     C24645   2.577   8.770   5.025 -1.2487 -0.5359  0.1838
  945MOL0     C24646   2.461   8.680   4.993 -0.3733 -0.1262 -0.1033
  945MOL0     C24647   2.329   8.757   4.972  0.6436 -0.2109 -0.2124
  945MOL0     C24648   2.212   8.656   4.980 -0.0192 -0.1006 -0.5816
  945MOL0     C24649   2.085   8.725   4.919  0.1727  0.4375 -0.0085
  945MOL0     C24650   2.036   8.863   4.972  0.1788  0.1303  0.5630
  945MOL0     C24651   1.904   8.888   4.908  0.0469 -0.2143  0.4482
  945MOL0    Cl24652   1.853   9.046   4.975  0.6846 -0.3854  0.1208
  945MOL0     C24653   2.930   8.520   5.102 -0.0451  0.5503 -0.1450
  945MOL0     C24654   3.063   8.466   5.107 -0.1197 -0.4375  0.7381
  945MOL0     O24655   3.336   8.555   5.101  0.4784 -0.3967 -0.1691
  945MOL0     C24656   3.609   8.445   5.063  0.1762 -0.5064  0.3434
  945MOL0     C24657   3.736   8.391   5.048 -1.4747 -0.7484 -0.0609
  945MOL0     N24658   4.488   8.435   5.156  0.2465 -0.5266  0.0557
  945MOL0     N24659   4.582   8.428   5.238  0.1129 -0.4582  0.4480
  945MOL0     C24660   5.423   8.078   5.974  0.1419 -0.2808 -0.8263
  945MOL0     C24661   5.546   8.028   5.994 -0.0990  0.2596 -0.7673
  945MOL0     C24662   5.967   7.909   6.101  0.4896 -0.3516  0.2484
  945MOL0     C24663   6.024   7.981   6.206  0.2108 -0.7110  1.1634
  945MOL0     C24664   6.159   7.972   6.222 -0.2321 -0.1136  0.1474
  945MOL0     C24665   6.244   7.881   6.151 -0.8151  0.2340  0.2618
  945MOL0     O24666   6.378   7.869   6.168  0.3929  1.0477 -0.3021
  945MOL0     C24667   6.447   7.966   6.235 -0.3835 -0.7789  0.3427
  945MOL0     C24668   6.597   7.927   6.238 -0.0593 -0.2198 -0.7047
  945MOL0     C24669   6.633   7.792   6.308 -0.1958 -0.5425 -0.5066
  945MOL0     C24670   6.775   7.775   6.365 -0.1032 -0.1275 -0.3291
  945MOL0     C24671   6.890   7.795   6.274  0.5894  0.5505 -0.6163
  945MOL0     C24672   6.983   7.807   6.195 -0.0518  0.1915 -0.8884
  945MOL0     C24673   6.177   7.800   6.050 -0.1267 -0.4682 -0.7273
  945MOL0     C24674   6.037   7.810   6.022 -0.1998  0.4302  0.3419
  945MOL0     H24675   5.623   8.207   6.277 -1.2999 -2.8932  1.3749
  945MOL0     H24676   5.398   8.294   6.224 -1.4424 -0.4613 -0.2913
  945MOL0     H24677   5.168   8.134   5.886  0.5358  0.0393 -1.6902
  945MOL0     H24678   5.216   8.303   5.852 -3.1776  1.3539 -1.2765
  945MOL0     H24679   5.027   8.374   6.034 -0.0990  2.0994 -1.9710
  945MOL0     H24680   4.981   8.201   6.043  2.3836 -2.5551 -1.8040
  945MOL0     H24681   4.979   8.367   5.775 -2.1848  1.8499 -0.3707
  945MOL0     H24682   4.855   8.389   5.888  2.5005  1.9978 -1.6363
  945MOL0     H24683   4.936   8.119   5.775  1.3202  1.5323 -0.1717
  945MOL0     H24684   4.784   8.164   5.862 -0.4122  0.6662  0.1669
  945MOL0     H24685   4.880   8.277   5.592 -2.5072  2.3094 -1.9484
  945MOL0     H24686   4.730   8.313   5.694 -0.0122  0.3137  0.7320
  945MOL0     H24687   4.678   8.066   5.673  4.0129 -1.7485  0.9681
  945MOL0     H24688   4.795   8.059   5.540  2.5500  3.0243 -0.4588
  945MOL0     H24689   4.583   8.069   5.436  1.8818  0.8706 -0.8380
  945MOL0     H24690   4.540   8.213   5.529 -0.8032  0.3454 -2.6092
  945MOL0     H24691   4.749   8.182   5.307 -2.5299 -0.1089 -2.0049
  945MOL0     H24692   4.745   8.319   5.418 -0.3089  0.3440 -0.1303
  945MOL0     H24693   4.439   8.131   5.268  0.7402  0.5487  2.1544
  945MOL0     H24694   4.279   8.189   5.097  1.9048  0.8419  1.9057
  945MOL0     H24695   4.341   8.283   4.951 -1.9235 -0.5759 -0.9483
  945MOL0     H24696   4.227   8.488   5.067  2.2503 -0.8894 -1.8611
  945MOL0     H24697   4.159   8.383   5.184  1.9904  0.5753  1.1322
  945MOL0     H24698   3.996   8.444   4.989 -0.1690 -0.9243  1.2344
  945MOL0     H24699   4.101   8.374   4.871  1.2883  0.8657  0.2193
  945MOL0     H24700   3.966   8.255   5.124  1.8010 -0.2740  0.2780
  945MOL0     H24701   4.055   8.159   4.996 -0.9431 -0.9843 -0.6182
  945MOL0     H24702   3.657   8.177   4.807 -1.4823  2.5959 -3.1946
  945MOL0     H24703   3.435   8.271   4.836 -1.1024  0.0849  1.5069
  945MOL0     H24704   3.131   8.423   4.777  1.2023  0.3936  1.7241
  945MOL0     H24705   2.901   8.527   4.761  2.8058  1.7851 -1.1411
  945MOL0     H24706   2.788   8.764   5.081  2.0014 -0.9700 -0.4062
  945MOL0     H24707   2.698   8.643   5.155  3.9973 -1.5506 -0.8622
  945MOL0     H24708   2.597   8.834   4.938  2.0237  0.1880  1.3104
  945MOL0     H24709   2.552   8.840   5.105  0.1469 -0.6277  0.7287
  945MOL0     H24710   2.441   8.616   5.080  0.1043  0.4491  0.4458
  945MOL0     H24711   2.486   8.618   4.907 -1.4621 -1.5045  0.5398
  945MOL0     H24712   2.315   8.837   5.046 -0.7680 -1.2722  0.7310
  945MOL0     H24713   2.327   8.806   4.875  1.9906 -0.6488 -0.4870
  945MOL0     H24714   2.189   8.629   5.084 -0.4208  0.1667 -0.6024
  945MOL0     H24715   2.238   8.569   4.919  3.6962  1.0829 -0.9566
  945MOL0     H24716   1.999   8.658   4.925 -0.1863  0.9643  0.8282
  945MOL0     H24717   2.101   8.732   4.811  0.6617 -1.2594 -0.0835
  945MOL0     H24718   2.027   8.873   5.080  0.9694  0.1428  0.6330
  945MOL0     H24719   2.109   8.936   4.937 -1.0901  0.9169 -0.5768
  945MOL0     H24720   1.829   8.815   4.940  1.4694 -1.9942 -0.1364
  945MOL0     H24721   1.919   8.888   4.800  1.8407 -1.8188  0.6456
  945MOL0     H24722   2.881   8.537   5.197  2.2827 -0.0806  1.2503
  945MOL0     H24723   3.125   8.439   5.191  0.7728 -1.1528 -0.1217
  945MOL0     H24724   3.589   8.527   5.132  0.4294 -0.6138  0.5434
  945MOL0     H24725   3.823   8.431   5.099 -1.7961 -1.3959  1.0327
  945MOL0     H24726   5.372   8.036   5.888  1.5098 -3.5388 -0.1999
  945MOL0     H24727   5.566   7.949   5.923  0.2448 -1.3420  1.0322
  945MOL0     H24728   5.972   8.054   6.267  0.8932 -1.0318  2.1506
  945MOL0     H24729   6.204   8.046   6.288 -0.0107  0.0503 -0.1899
  945MOL0     H24730   6.413   7.959   6.338 -2.0018  2.9777  0.2224
  945MOL0     H24731   6.433   8.061   6.183 -0.7333 -2.1802 -2.2870
  945MOL0     H24732   6.635   7.921   6.136 -2.8365 -0.2435 -1.8174
  945MOL0     H24733   6.651   8.010   6.286 -1.8724  0.2572  0.6228
  945MOL0     H24734   6.622   7.712   6.234 -0.2724  0.0718 -1.1621
  945MOL0     H24735   6.556   7.780   6.384  0.1827 -0.7005 -0.1383
  945MOL0     H24736   6.792   7.832   6.457 -0.0722 -2.7569  1.4054
  945MOL0     H24737   6.785   7.670   6.395  2.1745  0.5421  1.5806
  945MOL0     H24738   7.069   7.816   6.133  1.2953  0.8545  0.9873
  945MOL0     H24739   6.236   7.717   6.015  0.5343 -0.6033  0.6285
  945MOL0     H24740   6.004   7.753   5.935 -0.5502  0.7527  0.2575
  946MOL0     O24741   8.652   5.928   7.428  0.4543 -0.2746 -0.2588
  946MOL0     C24742   8.761   5.888   7.395 -0.6419  0.1002 -0.8091
  946MOL0     O24743   8.785   5.777   7.330  0.0305 -0.3336  0.0247
  946MOL0     C24744   8.679   5.709   7.280  0.2150 -0.7247  0.3494
  946MOL0     C24745   8.616   5.757   7.161 -0.5220 -0.5323  0.8388
  946MOL0     C24746   8.506   5.683   7.112  0.2942 -1.1005  0.3362
  946MOL0     C24747   8.454   5.574   7.182 -0.0946 -1.4229 -0.4271
  946MOL0     O24748   8.347   5.513   7.128  0.0513 -0.2563  0.5969
  946MOL0     C24749   8.300   5.385   7.174 -0.7695  0.6729 -0.3632
  946MOL0     C24750   8.216   5.316   7.070  0.0628  0.1705  0.4260
  946MOL0     C24751   8.179   5.171   7.094  0.0324  0.2546 -0.1625
  946MOL0     C24752   8.130   5.113   6.956 -0.5193  0.1062  0.0730
  946MOL0     C24753   8.088   4.967   6.952 -0.2328 -0.7769 -0.7112
  946MOL0     C24754   7.983   4.932   7.069 -0.0663  0.0544 -0.0422
  946MOL0     C24755   7.928   4.792   7.043  0.4873  0.1699 -0.2817
  946MOL0     C24756   7.816   4.763   7.136  0.9382  0.4651  0.5524
  946MOL0     N24757   7.749   4.638   7.116  0.4217 -0.2096  0.3686
  946MOL0     C24758   7.621   4.620   7.063 -0.4592  0.2572 -0.3340
  946MOL0     C24759   7.603   4.485   7.077 -0.5576 -0.5300  0.7440
  946MOL0     C24760   7.484   4.408   7.028  0.3135 -0.2441  0.8906
  946MOL0     C24761   7.365   4.419   7.127  0.8429  0.7603 -0.2582
  946MOL0     C24762   7.391   4.388   7.279 -1.3073  0.5813  0.1483
  946MOL0     C24763   7.273   4.394   7.371  0.2904 -0.2657 -0.1822
  946MOL0     O24764   7.216   4.525   7.345 -0.0820 -0.0104  0.7868
  946MOL0     C24765   7.087   4.560   7.390  0.2469 -0.7855 -0.2154
  946MOL0     C24766   7.028   4.668   7.329  0.1609 -1.0040 -0.7688
  946MOL0     C24767   6.896   4.711   7.349  0.2498 -0.0177  0.4471
  946MOL0     C24768   6.819   4.634   7.435  0.3512  0.0967 -0.1243
  946MOL0     C24769   6.674   4.672   7.453  0.7851 -0.1483 -0.3074
  946MOL0     O24770   6.595   4.579   7.512 -0.2658  0.9956 -0.0418
  946MOL0     C24771   6.470   4.607   7.550 -0.1931  0.1616  0.4676
  946MOL0     C24772   6.453   4.639   7.685 -0.4297  0.3759 -0.0508
  946MOL0     C24773   6.321   4.663   7.743  0.2506 -0.1034  0.6322
  946MOL0     C24774   6.208   4.658   7.645 -0.1446 -0.0904 -0.7264
  946MOL0     O24775   6.080   4.675   7.683  0.0147  0.0504  0.0412
  946MOL0     C24776   6.049   4.753   7.805  0.8556 -1.1128  0.5372
  946MOL0     C24777   6.006   4.676   7.923  0.5643 -0.3198  0.6569
  946MOL0     C24778   5.857   4.627   7.914 -0.8188  0.1574 -0.2573
  946MOL0     C24779   5.806   4.573   8.046 -0.4412 -0.5318 -0.1279
  946MOL0     C24780   5.658   4.537   8.037 -1.0206 -0.2957  0.2901
  946MOL0     C24781   5.631   4.430   7.934 -0.0376  0.3254  0.1261
  946MOL0     C24782   5.486   4.373   7.947 -0.2363 -0.5840  0.3580
  946MOL0     C24783   5.438   4.320   7.814  0.3164  0.3240 -0.5595
  946MOL0    Cl24784   5.561   4.215   7.732  0.2363  0.2465 -0.5554
  946MOL0     C24785   6.227   4.626   7.511 -0.0111  0.1232 -0.6700
  946MOL0     C24786   6.354   4.607   7.458 -0.8253  0.8157  0.0404
  946MOL0     O24787   6.632   4.780   7.415  0.4914 -0.8961  0.6121
  946MOL0     C24788   6.873   4.511   7.480  0.5289 -0.1257  0.4366
  946MOL0     C24789   7.007   4.476   7.466  0.7378 -0.3208 -0.3420
  946MOL0     N24790   7.700   4.441   7.160 -0.2452  0.4538  0.3026
  946MOL0     N24791   7.790   4.521   7.169  0.5377 -0.4655 -0.6241
  946MOL0     C24792   8.513   5.535   7.303  0.1717  0.4191 -0.5778
  946MOL0     C24793   8.627   5.595   7.348  0.8825  0.5643 -0.2141
  946MOL0     C24794   8.885   5.963   7.428  0.1066  0.1506  0.8679
  946MOL0     C24795   8.874   6.072   7.513 -0.2702 -0.1728 -1.3637
  946MOL0     C24796   8.987   6.150   7.549 -0.5336 -0.4593 -1.0613
  946MOL0     C24797   9.119   6.122   7.501  0.1509 -0.0051  0.4641
  946MOL0     O24798   9.226   6.185   7.557  0.5172 -0.8211  0.0106
  946MOL0     C24799   9.352   6.181   7.503 -0.4686 -0.1900 -0.5661
  946MOL0     C24800   9.418   6.055   7.553 -0.0715  0.6700  0.2472
  946MOL0     C24801   9.417   6.056   7.705  0.1631  0.6275  0.7362
  946MOL0     C24802   9.474   5.915   7.746  0.0532 -0.3021 -0.4383
  946MOL0     C24803   9.383   5.808   7.717  0.4894 -0.7226 -0.4232
  946MOL0     C24804   9.309   5.716   7.709  0.6531  0.4044 -1.4441
  946MOL0     C24805   9.133   6.019   7.409  1.2041  1.1163  0.2112
  946MOL0     C24806   9.012   5.946   7.371 -0.9063 -0.2988 -0.3465
  946MOL0     H24807   8.660   5.836   7.100  2.1468 -2.8103 -0.3785
  946MOL0     H24808   8.464   5.714   7.016  0.4383  2.3130  1.2525
  946MOL0     H24809   8.248   5.388   7.270 -0.7632  0.1613 -0.3408
  946MOL0     H24810   8.386   5.319   7.189 -0.2999  1.0244 -1.3623
  946MOL0     H24811   8.272   5.321   6.976 -0.0911  1.3546  0.3796
  946MOL0     H24812   8.122   5.368   7.046  1.3701  1.3647 -2.7357
  946MOL0     H24813   8.110   5.164   7.179  0.4726  0.0270  0.1803
  946MOL0     H24814   8.269   5.117   7.126  1.4298  1.6149 -1.6669
  946MOL0     H24815   8.037   5.161   6.925  0.5881  0.6630 -2.6566
  946MOL0     H24816   8.202   5.125   6.874 -1.1307 -0.5967 -0.5846
  946MOL0     H24817   8.174   4.901   6.963  0.4589  0.0943 -0.7463
  946MOL0     H24818   8.045   4.938   6.856 -0.5559  0.3015 -0.9053
  946MOL0     H24819   7.903   5.006   7.080 -0.9873 -0.8851 -0.3374
  946MOL0     H24820   8.035   4.930   7.166 -2.7044 -0.3287  1.4540
  946MOL0     H24821   7.896   4.787   6.938 -0.1772 -2.0572 -0.0097
  946MOL0     H24822   8.007   4.719   7.058  1.3905  1.1448 -0.2110
  946MOL0     H24823   7.742   4.843   7.126  1.5378  0.9142 -0.4478
  946MOL0     H24824   7.857   4.765   7.237  1.0282 -2.3035  0.6540
  946MOL0     H24825   7.557   4.691   7.012 -1.6554 -1.8213 -1.8718
  946MOL0     H24826   7.523   4.312   6.993  0.3133  0.8488 -2.4553
  946MOL0     H24827   7.454   4.454   6.934  1.2291  0.0307  0.7215
  946MOL0     H24828   7.289   4.350   7.089  0.6485  1.2610 -0.8130
  946MOL0     H24829   7.333   4.524   7.126 -1.7171  0.0605 -1.8483
  946MOL0     H24830   7.427   4.285   7.287 -0.7079  0.7225 -0.6123
  946MOL0     H24831   7.468   4.457   7.314 -1.2745  1.2331 -1.1668
  946MOL0     H24832   7.319   4.372   7.468  1.4911  0.1783 -0.6277
  946MOL0     H24833   7.202   4.316   7.344  0.9174 -0.6621 -0.7266
  946MOL0     H24834   7.092   4.724   7.260  0.4618  3.0317  2.3733
  946MOL0     H24835   6.858   4.802   7.304  0.8937 -0.0778 -0.2367
  946MOL0     H24836   6.532   4.630   7.759  0.1587 -3.6368 -0.9231
  946MOL0     H24837   6.320   4.683   7.849  1.0556  0.3565  0.5622
  946MOL0     H24838   5.967   4.820   7.780  1.7168 -0.6480 -1.2132
  946MOL0     H24839   6.134   4.814   7.837  0.9474 -0.0337 -1.6266
  946MOL0     H24840   6.010   4.743   8.010  2.1995  0.1250  0.2573
  946MOL0     H24841   6.069   4.586   7.925 -0.7742 -1.5269 -3.0235
  946MOL0     H24842   5.845   4.545   7.841 -1.8714  0.6483 -0.6535
  946MOL0     H24843   5.798   4.715   7.885 -1.3046  0.2878  1.0590
  946MOL0     H24844   5.857   4.488   8.091 -1.5036 -1.7872 -1.1836
  946MOL0     H24845   5.820   4.651   8.121  2.4855  0.4625 -1.5541
  946MOL0     H24846   5.605   4.629   8.011 -0.5369 -0.0732  0.0674
  946MOL0     H24847   5.621   4.507   8.136  1.8288 -1.1169  1.1965
  946MOL0     H24848   5.697   4.343   7.945 -1.4117 -0.6547  0.9470
  946MOL0     H24849   5.642   4.473   7.834  1.5728  0.7159  0.4555
  946MOL0     H24850   5.490   4.288   8.015  4.4816 -2.1095 -1.4561
  946MOL0     H24851   5.415   4.455   7.966  0.2533  0.2534 -1.2592
  946MOL0     H24852   5.429   4.412   7.755  2.0380  0.3325 -0.8524
  946MOL0     H24853   5.338   4.276   7.820  1.0336 -1.3270 -0.1943
  946MOL0     H24854   6.129   4.619   7.465 -0.6428 -0.6198  0.7052
  946MOL0     H24855   6.376   4.585   7.354  1.2637 -3.2140  1.1234
  946MOL0     H24856   6.829   4.451   7.559 -1.5030  2.2722  1.2858
  946MOL0     H24857   7.055   4.391   7.514  2.5342  0.4580 -0.6826
  946MOL0     H24858   8.468   5.458   7.365  1.5639 -0.4314 -0.5653
  946MOL0     H24859   8.670   5.564   7.442  2.7576  1.0140 -0.8763
  946MOL0     H24860   8.781   6.103   7.559 -0.1592 -1.1814 -0.4080
  946MOL0     H24861   8.973   6.233   7.619 -0.2484  1.3009 -2.9816
  946MOL0     H24862   9.410   6.269   7.532 -0.5062 -0.9410  2.0199
  946MOL0     H24863   9.345   6.173   7.394  4.0944 -0.7725 -1.0333
  946MOL0     H24864   9.362   5.970   7.514  0.4418  1.2665 -1.9316
  946MOL0     H24865   9.518   6.047   7.509  0.6579  1.8166  1.6334
  946MOL0     H24866   9.314   6.070   7.738  0.4311  0.1446  1.7974
  946MOL0     H24867   9.489   6.133   7.733  1.0549  0.3550 -0.6674
  946MOL0     H24868   9.566   5.904   7.688 -0.3306  1.9435 -1.5882
  946MOL0     H24869   9.489   5.920   7.854 -2.6831  1.2820 -0.0445
  946MOL0     H24870   9.241   5.634   7.696  2.3895 -1.5514  0.9079
  946MOL0     H24871   9.229   5.994   7.366 -0.0455  0.2004 -2.2446
  946MOL0     H24872   9.025   5.862   7.303 -0.1763  0.4966 -1.1987
  947MOL0     O24873   5.692   2.499   0.903 -0.1464  0.7109  0.1696
  947MOL0     C24874   5.703   2.621   0.919  0.2606  0.5111  0.5892
  947MOL0     O24875   5.606   2.702   0.942  0.3975  0.1940  0.3328
  947MOL0     C24876   5.475   2.651   0.923  0.3004 -0.3636 -0.5808
  947MOL0     C24877   5.393   2.677   0.813  0.1490  1.0260  0.4307
  947MOL0     C24878   5.272   2.603   0.797 -0.4500  0.6089 -0.1916
  947MOL0     C24879   5.224   2.526   0.906  0.1539 -0.9797  0.7107
  947MOL0     O24880   5.106   2.460   0.886 -0.0626 -0.3939 -0.5500
  947MOL0     C24881   5.012   2.476   0.996 -0.4829  0.6699 -0.9895
  947MOL0     C24882   4.884   2.408   0.954 -0.1439  0.1026 -0.1951
  947MOL0     C24883   4.828   2.473   0.829  0.4318 -0.4130  0.4813
  947MOL0     C24884   4.695   2.393   0.805  0.8096  0.2932 -1.0088
  947MOL0     C24885   4.619   2.454   0.689 -0.3746  0.8189 -0.2276
  947MOL0     C24886   4.488   2.382   0.660  0.1309 -0.4274  0.7477
  947MOL0     C24887   4.401   2.448   0.553  0.1065  0.1621  1.0319
  947MOL0     C24888   4.368   2.599   0.574 -0.7382 -0.0760 -1.3294
  947MOL0     N24889   4.300   2.628   0.703 -0.4309 -0.4484 -0.2092
  947MOL0     C24890   4.300   2.758   0.764  0.9158 -0.1182 -0.1731
  947MOL0     C24891   4.241   2.738   0.887  0.1323  0.0700 -0.6820
  947MOL0     C24892   4.220   2.829   1.001  0.1888  0.0932  0.2444
  947MOL0     C24893   4.078   2.874   1.019 -1.3568 -0.3745  0.0226
  947MOL0     C24894   3.972   2.780   1.078  0.2024  0.0031  0.3328
  947MOL0     C24895   3.997   2.741   1.221 -0.1217  0.1828  0.8858
  947MOL0     O24896   3.983   2.860   1.310 -0.3171  0.1559  0.1463
  947MOL0     C24897   3.870   2.871   1.392  0.0408 -0.6794  0.0216
  947MOL0     C24898   3.779   2.768   1.423 -0.1155 -0.7195  0.2229
  947MOL0     C24899   3.658   2.786   1.494 -0.5014  0.0815 -0.0817
  947MOL0     C24900   3.621   2.920   1.529  0.1239 -0.2585  0.2679
  947MOL0     C24901   3.499   2.953   1.604  0.5909 -0.1978  0.3214
  947MOL0     O24902   3.433   2.857   1.675  0.1323  0.1690 -0.1893
  947MOL0     C24903   3.298   2.856   1.678  0.0442  0.0223  0.2060
  947MOL0     C24904   3.237   2.797   1.783  0.1152  0.3058 -0.4401
  947MOL0     C24905   3.098   2.797   1.793 -0.0200  1.3435 -0.7706
  947MOL0     C24906   3.021   2.836   1.683 -0.1088  0.2103  0.2827
  947MOL0     O24907   2.884   2.833   1.701  0.1538 -0.3305  0.0457
  947MOL0     C24908   2.785   2.886   1.605  0.0345 -0.7571  0.4635
  947MOL0     C24909   2.645   2.860   1.664  0.1808  0.1496  0.4786
  947MOL0     C24910   2.524   2.869   1.568  0.4031 -0.6094 -0.3109
  947MOL0     C24911   2.499   3.009   1.513 -0.1825  0.8780 -0.0704
  947MOL0     C24912   2.369   3.019   1.422 -0.4698  0.6528 -0.5138
  947MOL0     C24913   2.237   2.978   1.485  0.0338  0.4431 -0.7508
  947MOL0     C24914   2.116   3.032   1.405 -0.9192 -0.5109 -0.9515
  947MOL0     C24915   1.985   2.992   1.467  0.2745 -0.2105  0.1477
  947MOL0    Cl24916   1.845   3.072   1.393 -0.3306  0.0112 -0.3882
  947MOL0     C24917   3.080   2.897   1.575 -0.4243 -0.5260  0.2973
  947MOL0     C24918   3.216   2.897   1.566 -1.3084 -0.0951  0.0241
  947MOL0     O24919   3.456   3.067   1.584  0.2643  0.5212  0.1567
  947MOL0     C24920   3.703   3.025   1.494 -0.8348  0.3884  0.0154
  947MOL0     C24921   3.830   3.003   1.428  0.5253 -0.1299  0.4298
  947MOL0     N24922   4.205   2.603   0.898 -0.9316  0.0002 -0.3300
  947MOL0     N24923   4.240   2.538   0.787  0.2317 -0.2793 -0.3809
  947MOL0     C24924   5.306   2.498   1.012 -0.0969 -0.5104  0.6988
  947MOL0     C24925   5.426   2.564   1.024 -0.3194 -0.3971  0.1295
  947MOL0     C24926   5.849   2.669   0.940 -0.0977  0.3099  0.3610
  947MOL0     C24927   5.894   2.793   1.006  0.6870  0.6858 -0.0901
  947MOL0     C24928   6.022   2.846   0.995  0.0835  0.7815 -0.4348
  947MOL0     C24929   6.128   2.775   0.933 -0.1719  0.3299 -0.6028
  947MOL0     O24930   6.254   2.813   0.936  0.3094 -0.5690  0.4318
  947MOL0     C24931   6.296   2.889   0.818 -0.6850  0.2393  0.3354
  947MOL0     C24932   6.335   3.030   0.851 -0.5692  0.0505 -0.1567
  947MOL0     C24933   6.453   3.035   0.950 -0.6008  0.7483  0.1997
  947MOL0     C24934   6.548   3.154   0.948 -0.0620  0.3124  1.3149
  947MOL0     C24935   6.638   3.156   1.069  0.5554 -0.7529 -0.0225
  947MOL0     C24936   6.707   3.168   1.160  0.7184 -0.5651 -0.0588
  947MOL0     C24937   6.089   2.656   0.870 -0.6670  0.2005 -0.6211
  947MOL0     C24938   5.954   2.610   0.863 -0.0311  0.0594 -1.0648
  947MOL0     H24939   5.435   2.746   0.740  1.3344  1.6690  1.6747
  947MOL0     H24940   5.225   2.610   0.700  0.0359 -4.2784 -1.0403
  947MOL0     H24941   5.010   2.580   1.028 -1.6258  0.2187  0.5209
  947MOL0     H24942   5.054   2.417   1.078 -2.3755  1.1535  0.4017
  947MOL0     H24943   4.813   2.409   1.037 -0.1465  0.8163 -0.1968
  947MOL0     H24944   4.908   2.304   0.932  2.3611  0.9032 -1.7776
  947MOL0     H24945   4.894   2.453   0.745  1.0436 -1.3939  1.1883
  947MOL0     H24946   4.821   2.581   0.849  0.6752 -0.4564  0.8059
  947MOL0     H24947   4.729   2.290   0.789  0.7435 -0.8502  4.2794
  947MOL0     H24948   4.637   2.405   0.897  0.8499  1.3045 -1.1119
  947MOL0     H24949   4.677   2.447   0.597 -0.5548 -1.2558 -0.2439
  947MOL0     H24950   4.604   2.558   0.717  4.1961  1.4500  0.5084
  947MOL0     H24951   4.423   2.372   0.748 -4.4360 -1.1916 -2.3383
  947MOL0     H24952   4.493   2.281   0.619  0.5743  0.5844 -1.9009
  947MOL0     H24953   4.441   2.444   0.451  3.1309  1.9376  2.0084
  947MOL0     H24954   4.307   2.393   0.551 -0.2437  0.6063 -2.8564
  947MOL0     H24955   4.296   2.637   0.502 -1.4918  0.0317 -0.5395
  947MOL0     H24956   4.454   2.666   0.566 -1.3105  0.6563 -1.3471
  947MOL0     H24957   4.339   2.849   0.720  1.5206 -0.3307 -0.0928
  947MOL0     H24958   4.288   2.911   0.977  1.6629 -1.2284 -0.3250
  947MOL0     H24959   4.251   2.769   1.087 -0.9343 -0.8260  0.0311
  947MOL0     H24960   4.041   2.910   0.922  1.4231 -0.3086 -1.1217
  947MOL0     H24961   4.086   2.963   1.082  0.3204 -3.0716  3.9768
  947MOL0     H24962   3.877   2.834   1.082  1.8146  3.0120  1.5750
  947MOL0     H24963   3.972   2.691   1.014  1.3977 -0.2173  0.6170
  947MOL0     H24964   4.102   2.716   1.242 -0.6013 -0.2492  3.0530
  947MOL0     H24965   3.937   2.654   1.247  0.5977 -0.0241  1.9604
  947MOL0     H24966   3.814   2.667   1.402 -1.4903 -1.2180  0.2332
  947MOL0     H24967   3.598   2.697   1.510 -1.0981  0.4799 -0.0386
  947MOL0     H24968   3.292   2.757   1.868  0.9686  0.6570 -0.8180
  947MOL0     H24969   3.039   2.757   1.876  0.2975  0.3305 -1.0153
  947MOL0     H24970   2.797   2.832   1.511 -1.8198 -2.9176  1.3990
  947MOL0     H24971   2.795   2.995   1.596 -5.1888 -0.0472  0.1753
  947MOL0     H24972   2.646   2.937   1.742 -1.4171  0.8869 -0.1859
  947MOL0     H24973   2.650   2.763   1.713  0.6659  0.0411  0.2258
  947MOL0     H24974   2.434   2.856   1.628 -0.2996  0.7641 -1.0128
  947MOL0     H24975   2.531   2.800   1.483  0.0870  1.8476 -2.4563
  947MOL0     H24976   2.499   3.090   1.587 -0.2334  2.5643 -1.8233
  947MOL0     H24977   2.577   3.035   1.440 -0.4090  3.8900  0.6030
  947MOL0     H24978   2.380   2.961   1.330 -0.5133  0.9106 -0.6844
  947MOL0     H24979   2.352   3.126   1.405  0.8714  0.9660 -0.0442
  947MOL0     H24980   2.235   3.014   1.588 -0.7488 -1.6052 -0.0043
  947MOL0     H24981   2.221   2.870   1.490 -0.5582  0.5828  2.4344
  947MOL0     H24982   2.127   3.140   1.417  0.3270 -0.2074 -3.9440
  947MOL0     H24983   2.116   3.005   1.299  0.6949  2.1273 -1.7059
  947MOL0     H24984   1.987   2.999   1.577 -3.6735 -0.6965  0.3855
  947MOL0     H24985   1.980   2.886   1.443  4.1703 -0.7316  0.9373
  947MOL0     H24986   3.017   2.949   1.504  2.8084  0.6730 -1.9689
  947MOL0     H24987   3.260   2.940   1.477  1.8912 -1.0780  0.9806
  947MOL0     H24988   3.681   3.125   1.530 -3.0556 -0.3019  0.6820
  947MOL0     H24989   3.901   3.083   1.409  0.9613 -0.6793 -0.2789
  947MOL0     H24990   5.281   2.429   1.093  2.5791 -1.5499  0.7252
  947MOL0     H24991   5.486   2.560   1.114  0.0631  1.1760 -0.0363
  947MOL0     H24992   5.815   2.858   1.045  0.5303 -0.3830  1.4319
  947MOL0     H24993   6.062   2.937   1.038  1.5808  0.5158 -1.2116
  947MOL0     H24994   6.219   2.893   0.740  2.0308 -0.0394 -2.5589
  947MOL0     H24995   6.382   2.842   0.770 -1.1154  0.3864 -0.6185
  947MOL0     H24996   6.380   3.088   0.769  2.0709 -3.2162 -1.2373
  947MOL0     H24997   6.249   3.087   0.888  0.1593  0.2398  1.3233
  947MOL0     H24998   6.511   2.943   0.942 -1.4898  0.3155 -3.2577
  947MOL0     H24999   6.402   3.029   1.046 -0.2300  0.9160  0.4042
  947MOL0     H25000   6.609   3.166   0.858 -0.7570  1.1062  0.9285
  947MOL0     H25001   6.490   3.246   0.958  1.1499  0.9714  2.7210
  947MOL0     H25002   6.770   3.199   1.242  1.1391 -0.5974 -0.3661
  947MOL0     H25003   6.156   2.593   0.811 -0.9695 -2.2670  1.4920
  947MOL0     H25004   5.936   2.515   0.815  1.7328 -0.2078 -1.2701
  948MOL0     O25005   8.142   8.616   7.091  0.6967 -0.0238 -0.6710
  948MOL0     C25006   8.145   8.520   7.015 -0.0285 -0.8642 -0.0728
  948MOL0     O25007   8.256   8.465   6.958 -0.1515 -0.0371  0.0653
  948MOL0     C25008   8.385   8.488   7.005 -0.1989 -0.0116  1.1557
  948MOL0     C25009   8.489   8.408   6.951 -0.4493  0.8154  0.1310
  948MOL0     C25010   8.627   8.414   6.991  0.4141  0.1587  0.5882
  948MOL0     C25011   8.672   8.503   7.084  0.9884 -0.1260  0.1495
  948MOL0     O25012   8.801   8.532   7.123  0.1986  0.4192 -0.0998
  948MOL0     C25013   8.897   8.440   7.077 -0.4772  0.4203 -0.1808
  948MOL0     C25014   9.025   8.481   7.151  0.7803  0.6445 -0.2522
  948MOL0     C25015   9.025   8.461   7.304 -0.9517 -0.2743  0.0121
  948MOL0     C25016   9.159   8.519   7.368  0.4008  0.4796 -0.0508
  948MOL0     C25017   9.179   8.469   7.515 -0.0049  0.7704  0.5555
  948MOL0     C25018   9.296   8.528   7.582 -0.1190 -0.0408  0.0743
  948MOL0     C25019   9.298   8.676   7.621 -0.6146 -0.4840  0.0186
  948MOL0     C25020   9.173   8.709   7.709 -0.2589 -0.1280 -0.6946
  948MOL0     N25021   9.064   8.763   7.628 -0.2516 -1.0564  0.6138
  948MOL0     C25022   8.933   8.729   7.638  0.5483  0.8288 -0.0084
  948MOL0     C25023   8.871   8.760   7.522  0.8546 -0.4650  0.1217
  948MOL0     C25024   8.735   8.729   7.475 -0.0188 -0.6421 -0.1290
  948MOL0     C25025   8.623   8.823   7.526  0.2745 -0.0760  0.4449
  948MOL0     C25026   8.598   8.813   7.676  0.4392 -0.3182 -0.4519
  948MOL0     C25027   8.480   8.899   7.726 -0.9068 -0.1342  0.8417
  948MOL0     O25028   8.457   8.888   7.870 -0.0594  0.1414  0.1193
  948MOL0     C25029   8.339   8.941   7.928  0.3120  0.3644 -1.0334
  948MOL0     C25030   8.258   9.040   7.864 -0.2089 -0.0911 -0.2047
  948MOL0     C25031   8.154   9.092   7.946  0.2331  0.0229  0.1154
  948MOL0     C25032   8.116   9.038   8.070 -0.9354  0.5294  0.3022
  948MOL0     C25033   7.988   9.084   8.130  0.4833 -0.1784 -0.4757
  948MOL0     O25034   7.909   9.179   8.053  0.1611 -0.2638 -0.3866
  948MOL0     C25035   7.778   9.202   8.086  0.1618 -1.0810  0.3596
  948MOL0     C25036   7.682   9.112   8.135 -0.0821  0.3759 -0.3985
  948MOL0     C25037   7.557   9.156   8.172 -0.2559 -0.0019 -0.7502
  948MOL0     C25038   7.513   9.284   8.149 -0.4080 -0.4316  0.0435
  948MOL0     O25039   7.388   9.309   8.190 -0.1898 -0.8247 -0.0698
  948MOL0     C25040   7.313   9.422   8.147  0.8038  0.0807 -0.4823
  948MOL0     C25041   7.172   9.416   8.218  0.6145  0.8870  0.5293
  948MOL0     C25042   7.097   9.305   8.156  0.0712 -0.2098  0.1438
  948MOL0     C25043   6.954   9.345   8.121 -1.1760  0.7320 -0.5187
  948MOL0     C25044   6.878   9.217   8.073 -0.5470  0.8876 -0.7081
  948MOL0     C25045   6.921   9.149   7.953 -0.3272 -0.3119  0.4670
  948MOL0     C25046   6.835   9.025   7.911  0.7132 -0.6922  0.2632
  948MOL0     C25047   6.897   8.977   7.775 -0.4237  0.3586  0.3144
  948MOL0    Cl25048   6.822   9.042   7.635  0.2859 -0.0780  0.2666
  948MOL0     C25049   7.603   9.384   8.101  0.4574  0.9495  0.0515
  948MOL0     C25050   7.734   9.336   8.060  0.8621  0.3543 -0.2782
  948MOL0     O25051   7.962   9.033   8.239  0.3711  0.7359  0.0524
  948MOL0     C25052   8.191   8.931   8.125 -0.6370 -0.3128  0.0855
  948MOL0     C25053   8.307   8.887   8.051  0.0682 -0.1804 -0.5244
  948MOL0     N25054   8.961   8.844   7.451  0.1584  0.1956  0.2186
  948MOL0     N25055   9.079   8.840   7.508  0.6727  0.3393  0.3323
  948MOL0     C25056   8.566   8.590   7.138  0.0541  0.1797 -0.3415
  948MOL0     C25057   8.429   8.584   7.097 -1.0287 -0.0192 -0.5404
  948MOL0     C25058   8.012   8.447   7.000 -0.7222  0.1420  0.2975
  948MOL0     C25059   7.887   8.483   7.052  0.5590 -0.3285 -0.5379
  948MOL0     C25060   7.768   8.414   7.015  0.6618 -0.0808  0.0497
  948MOL0     C25061   7.773   8.299   6.939 -0.8323 -0.6468  0.4944
  948MOL0     O25062   7.662   8.225   6.900  0.1560  0.1154  0.0017
  948MOL0     C25063   7.525   8.275   6.928 -0.5769  0.0079  0.2704
  948MOL0     C25064   7.493   8.387   6.821 -1.0893 -0.9199 -0.4340
  948MOL0     C25065   7.364   8.333   6.759 -1.0113  0.0680 -0.1427
  948MOL0     C25066   7.319   8.410   6.632  0.8782 -0.5283 -0.2125
  948MOL0     C25067   7.195   8.343   6.593 -0.4693  0.6651  0.7946
  948MOL0     C25068   7.092   8.277   6.588  0.6859  0.4128  1.7022
  948MOL0     C25069   7.895   8.257   6.891 -0.5009  0.1265 -0.7181
  948MOL0     C25070   8.016   8.324   6.927  0.3134 -0.5592  0.6389
  948MOL0     H25071   8.457   8.344   6.870 -0.4321  1.1454 -0.1436
  948MOL0     H25072   8.698   8.356   6.933 -0.9294 -1.1835  0.1943
  948MOL0     H25073   8.907   8.428   6.969  2.9908 -0.1365  0.0798
  948MOL0     H25074   8.878   8.340   7.118  2.1300 -0.4045 -0.7870
  948MOL0     H25075   9.058   8.584   7.133  0.4889  1.0633  1.4101
  948MOL0     H25076   9.104   8.417   7.111  1.1015  1.5222 -1.0620
  948MOL0     H25077   9.027   8.352   7.309  0.2727 -0.4349 -2.2367
  948MOL0     H25078   8.936   8.502   7.353 -1.3952 -1.1443 -0.0572
  948MOL0     H25079   9.249   8.490   7.313  1.0240  2.6420 -0.3002
  948MOL0     H25080   9.165   8.629   7.366 -0.7419  0.7357  3.3242
  948MOL0     H25081   9.168   8.360   7.512 -3.9294  1.0178 -2.7803
  948MOL0     H25082   9.095   8.507   7.574 -3.8052  0.4731 -4.0875
  948MOL0     H25083   9.378   8.506   7.513 -0.7229 -0.4604 -0.5209
  948MOL0     H25084   9.311   8.464   7.669  0.7113  1.6708  1.2707
  948MOL0     H25085   9.394   8.697   7.668 -0.6626 -1.0603  0.3926
  948MOL0     H25086   9.304   8.740   7.533 -1.7408  1.2173  1.1044
  948MOL0     H25087   9.200   8.788   7.780  2.1734 -2.2230  0.8605
  948MOL0     H25088   9.142   8.629   7.776 -0.8514  0.0852 -0.7073
  948MOL0     H25089   8.884   8.668   7.714 -1.6618  1.4379 -0.8834
  948MOL0     H25090   8.717   8.623   7.497  2.0370 -0.7987  1.0286
  948MOL0     H25091   8.726   8.735   7.366  0.7859 -0.0874 -0.1693
  948MOL0     H25092   8.526   8.802   7.478  1.9092  0.4331 -3.4527
  948MOL0     H25093   8.652   8.919   7.482 -1.9276 -0.3381 -1.8494
  948MOL0     H25094   8.577   8.711   7.710 -2.8810  0.0888 -0.9577
  948MOL0     H25095   8.690   8.860   7.712  0.9234  0.8926 -2.9984
  948MOL0     H25096   8.388   8.881   7.670  0.6806 -0.5265 -1.8388
  948MOL0     H25097   8.496   9.003   7.695  0.0583 -0.9454 -1.6084
  948MOL0     H25098   8.299   9.074   7.770 -2.1969 -1.8084 -1.7850
  948MOL0     H25099   8.092   9.173   7.909 -1.0515  0.5319  3.1561
  948MOL0     H25100   7.703   9.008   8.155  1.3426  0.7963  0.4239
  948MOL0     H25101   7.483   9.086   8.209 -1.1405  1.5407  0.5436
  948MOL0     H25102   7.308   9.415   8.038 -0.1256  2.0353 -0.5937
  948MOL0     H25103   7.359   9.516   8.178 -1.5017  1.3058 -0.5422
  948MOL0     H25104   7.126   9.513   8.200  0.3041  0.5464 -0.5762
  948MOL0     H25105   7.184   9.404   8.326  0.2986 -0.4483  0.4281
  948MOL0     H25106   7.092   9.222   8.227  0.2434 -0.7610 -0.4687
  948MOL0     H25107   7.148   9.263   8.068 -0.8638 -0.8741 -0.0975
  948MOL0     H25108   6.920   9.392   8.214  0.4496 -0.5363  0.7779
  948MOL0     H25109   6.958   9.418   8.039  0.3833 -0.2667 -1.3895
  948MOL0     H25110   6.776   9.248   8.050 -1.3403 -1.1814 -0.2327
  948MOL0     H25111   6.879   9.148   8.159 -0.6727  0.2329 -1.2246
  948MOL0     H25112   7.023   9.110   7.968 -0.5045  0.2520  3.8992
  948MOL0     H25113   6.914   9.228   7.878  0.6006 -0.1652  0.5232
  948MOL0     H25114   6.827   8.945   7.985 -0.8973  1.3693  2.4545
  948MOL0     H25115   6.732   9.058   7.895  1.5963  1.2679 -1.9015
  948MOL0     H25116   6.895   8.868   7.765  3.3375  0.0704  1.2333
  948MOL0     H25117   7.003   8.999   7.762 -0.1533 -1.8600 -1.8537
  948MOL0     H25118   7.574   9.487   8.085  0.5849  0.7960 -1.2377
  948MOL0     H25119   7.811   9.398   8.014 -0.2268  1.5339 -0.5616
  948MOL0     H25120   8.168   8.882   8.220 -1.0553 -2.4116 -1.0322
  948MOL0     H25121   8.369   8.814   8.100  0.7104  0.5200 -0.2775
  948MOL0     H25122   8.598   8.672   7.201  1.9179  0.2884 -1.3332
  948MOL0     H25123   8.363   8.659   7.140 -1.3060 -0.3236 -0.4284
  948MOL0     H25124   7.884   8.573   7.111  0.8790 -1.5252  1.3822
  948MOL0     H25125   7.666   8.443   7.038 -0.4592 -2.7794 -1.0887
  948MOL0     H25126   7.519   8.307   7.033 -2.4635 -3.8660  1.5475
  948MOL0     H25127   7.456   8.191   6.918  0.7848 -1.3667  1.7033
  948MOL0     H25128   7.494   8.483   6.872  0.1572 -1.7026  1.0796
  948MOL0     H25129   7.567   8.383   6.740  1.2018 -0.5282  1.5350
  948MOL0     H25130   7.290   8.330   6.840 -1.0069  0.9080 -0.0893
  948MOL0     H25131   7.374   8.232   6.719 -1.3313  0.3726 -1.0265
  948MOL0     H25132   7.292   8.513   6.655  1.9479 -0.3973  0.5328
  948MOL0     H25133   7.387   8.418   6.547  0.3994  3.6515 -0.4215
  948MOL0     H25134   7.008   8.211   6.587  1.8480 -1.3721 -3.1418
  948MOL0     H25135   7.900   8.175   6.820 -1.9222  0.1815 -0.8952
  948MOL0     H25136   8.115   8.290   6.898  0.8042  1.3548 -0.1160
  949MOL0     O25137  10.974   9.583   6.571 -0.4996  0.2813 -0.0648
  949MOL0     C25138  10.990   9.693   6.515 -0.5029  0.4441  0.0395
  949MOL0     O25139  10.896   9.757   6.442  0.6392  0.5398 -0.4245
  949MOL0     C25140  10.768   9.709   6.423  0.6192 -0.4834  0.3105
  949MOL0     C25141  10.677   9.673   6.529 -0.5449 -0.5072 -0.5408
  949MOL0     C25142  10.542   9.639   6.500  0.4820 -0.0078  1.0875
  949MOL0     C25143  10.488   9.649   6.375  0.1324 -0.9919  0.6582
  949MOL0     O25144  10.356   9.612   6.351  0.3761 -0.2716 -0.4707
  949MOL0     C25145  10.305   9.501   6.422 -0.4272 -0.0790  0.4952
  949MOL0     C25146  10.169   9.460   6.385  0.9544  0.2778  0.4558
  949MOL0     C25147  10.073   9.564   6.441  0.2485 -0.5900  0.2614
  949MOL0     C25148   9.932   9.526   6.403  0.5745 -0.2415 -0.7463
  949MOL0     C25149   9.833   9.618   6.476 -0.0766  0.4332 -0.3207
  949MOL0     C25150   9.683   9.579   6.449  0.2010  0.5889  0.1882
  949MOL0     C25151   9.654   9.445   6.524  0.0501  0.0732 -0.3852
  949MOL0     C25152   9.502   9.422   6.538  0.0003  0.3873 -0.0498
  949MOL0     N25153   9.433   9.511   6.627 -0.3510 -0.0471 -0.3147
  949MOL0     C25154   9.431   9.488   6.757 -0.6704  0.2117  0.8084
  949MOL0     C25155   9.374   9.596   6.810 -0.2453  0.2285  0.2622
  949MOL0     C25156   9.344   9.604   6.953 -0.0446 -0.6027  0.1850
  949MOL0     C25157   9.184   9.592   6.966 -0.1026  0.2475  0.2932
  949MOL0     C25158   9.152   9.567   7.112  0.5610  0.4836 -0.7856
  949MOL0     C25159   9.001   9.594   7.132  0.5283  0.1378 -0.0787
  949MOL0     O25160   8.950   9.541   7.258  0.0673  0.1744  0.5731
  949MOL0     C25161   8.814   9.548   7.278  0.1816  0.9677  0.1857
  949MOL0     C25162   8.719   9.592   7.185  0.5626 -0.0895 -0.4954
  949MOL0     C25163   8.585   9.584   7.218  0.6490  0.1911  0.7333
  949MOL0     C25164   8.537   9.545   7.346 -0.0632  0.0396  0.1451
  949MOL0     C25165   8.396   9.532   7.384  0.4569 -0.5274  0.4169
  949MOL0     O25166   8.366   9.442   7.486  0.1034  0.4377  0.2304
  949MOL0     C25167   8.235   9.443   7.528 -0.0430 -0.0144  0.1605
  949MOL0     C25168   8.130   9.426   7.444  0.2341  1.2362  0.3682
  949MOL0     C25169   7.997   9.413   7.483  0.8815 -0.0971  0.0873
  949MOL0     C25170   7.972   9.411   7.617  0.1639  0.4369 -0.4232
  949MOL0     O25171   7.848   9.388   7.673 -0.0570  0.3975 -0.3180
  949MOL0     C25172   7.733   9.397   7.581 -1.2898 -0.1249 -0.3591
  949MOL0     C25173   7.608   9.388   7.665 -0.2450  0.0247 -0.8685
  949MOL0     C25174   7.487   9.358   7.583 -0.5277  0.6105 -0.3874
  949MOL0     C25175   7.360   9.374   7.667  0.1785 -0.5082  0.0519
  949MOL0     C25176   7.238   9.346   7.573 -1.1034 -0.1178  0.9222
  949MOL0     C25177   7.229   9.430   7.439  0.0835 -0.1761 -0.0811
  949MOL0     C25178   7.205   9.581   7.470  0.9309 -0.4509  0.0774
  949MOL0     C25179   7.281   9.650   7.364  0.6787 -0.5770 -0.1298
  949MOL0    Cl25180   7.248   9.822   7.384 -0.1362  0.1546  0.3790
  949MOL0     C25181   8.080   9.402   7.706 -0.5782 -0.6564  0.1829
  949MOL0     C25182   8.211   9.422   7.662 -0.0245  0.2612 -0.0197
  949MOL0     O25183   8.317   9.613   7.330 -0.0500  0.0082  0.2344
  949MOL0     C25184   8.636   9.505   7.439  0.3587  0.2115 -0.3236
  949MOL0     C25185   8.770   9.494   7.404 -0.1647  0.1227  0.2886
  949MOL0     N25186   9.367   9.689   6.709 -0.5299 -0.1653 -0.4182
  949MOL0     N25187   9.393   9.636   6.597 -0.0877  0.4389 -0.7483
  949MOL0     C25188  10.572   9.689   6.268 -0.2736 -0.0027 -0.2884
  949MOL0     C25189  10.711   9.719   6.297 -0.3585 -0.1028 -0.0002
  949MOL0     C25190  11.124   9.743   6.502 -1.2911  0.3422 -0.4917
  949MOL0     C25191  11.158   9.851   6.416 -0.0241 -0.2996  0.0250
  949MOL0     C25192  11.285   9.888   6.390 -0.4422 -0.2050 -0.0164
  949MOL0     C25193  11.390   9.818   6.435  0.3435  0.1350 -0.1825
  949MOL0     O25194  11.507   9.846   6.371 -0.2030 -0.3849 -0.4783
  949MOL0     C25195  11.579   9.742   6.309 -0.3026  0.8431  0.0888
  949MOL0     C25196  11.702   9.799   6.241 -0.3829  0.5907  0.0524
  949MOL0     C25197  11.781   9.701   6.142  0.0931 -0.0818  0.8921
  949MOL0     C25198  11.854   9.585   6.211 -0.5802 -0.0178 -0.5821
  949MOL0     C25199  11.913   9.486   6.122  0.0979 -0.7059 -0.2798
  949MOL0     C25200  11.978   9.403   6.054 -0.5184 -0.1457  0.0423
  949MOL0     C25201  11.361   9.712   6.522  0.2556 -0.1792  0.5570
  949MOL0     C25202  11.234   9.675   6.557  0.0642  0.1384 -0.6248
  949MOL0     H25203  10.718   9.677   6.630  2.1535  0.1439 -1.5812
  949MOL0     H25204  10.474   9.617   6.581  0.7935 -3.7632  0.4746
  949MOL0     H25205  10.307   9.493   6.531 -0.3819 -1.3064  0.4172
  949MOL0     H25206  10.366   9.414   6.396 -0.0606  0.8916 -2.1898
  949MOL0     H25207  10.140   9.359   6.417  1.1923 -0.0777 -0.4130
  949MOL0     H25208  10.167   9.456   6.275  4.8449  1.4714  0.2081
  949MOL0     H25209  10.108   9.662   6.409  1.3967 -0.5105  1.6564
  949MOL0     H25210  10.072   9.561   6.551  0.3136 -1.6001  0.2484
  949MOL0     H25211   9.928   9.517   6.294  1.1854 -1.6311 -0.6853
  949MOL0     H25212   9.910   9.430   6.452 -2.6732  2.5249  4.0860
  949MOL0     H25213   9.841   9.724   6.449 -0.6486  0.9131  1.2530
  949MOL0     H25214   9.857   9.614   6.583 -2.1381 -0.3881  0.1632
  949MOL0     H25215   9.656   9.577   6.343  1.9558 -4.1293 -0.4076
  949MOL0     H25216   9.627   9.664   6.488 -1.0282  0.3875 -1.0581
  949MOL0     H25217   9.709   9.361   6.480  1.9935  1.7633 -1.3657
  949MOL0     H25218   9.690   9.448   6.627 -3.4941 -1.4164  1.0582
  949MOL0     H25219   9.484   9.322   6.579 -2.4824  0.4740 -0.7314
  949MOL0     H25220   9.463   9.420   6.435 -0.7703  2.2582  0.1724
  949MOL0     H25221   9.462   9.405   6.820  1.6704  2.6331  3.1445
  949MOL0     H25222   9.393   9.692   6.995 -0.4084 -0.4617  0.3108
  949MOL0     H25223   9.391   9.518   7.001 -0.4897 -1.7813 -1.3809
  949MOL0     H25224   9.154   9.501   6.913  2.0117 -0.5475  0.3659
  949MOL0     H25225   9.131   9.678   6.924 -0.0397 -0.2756 -0.8977
  949MOL0     H25226   9.172   9.463   7.139 -0.5966  0.0406 -1.5559
  949MOL0     H25227   9.212   9.634   7.174  0.5421  0.9701 -1.2902
  949MOL0     H25228   8.955   9.553   7.042  0.1575  2.7593 -1.1892
  949MOL0     H25229   8.978   9.701   7.124  1.8408  0.2826 -3.4581
  949MOL0     H25230   8.747   9.617   7.083  2.9587 -2.2496 -0.4731
  949MOL0     H25231   8.504   9.607   7.150  0.1829 -1.5359  0.6524
  949MOL0     H25232   8.154   9.427   7.338  1.4238  0.6748  0.6048
  949MOL0     H25233   7.925   9.400   7.403  0.7095  2.6540 -0.2907
  949MOL0     H25234   7.728   9.317   7.506  0.7584 -2.0143  1.3946
  949MOL0     H25235   7.740   9.492   7.528 -0.3585  0.8125  1.3749
  949MOL0     H25236   7.590   9.477   7.726 -0.9682 -1.1628  0.7211
  949MOL0     H25237   7.630   9.306   7.735 -1.0173 -1.3363 -2.1765
  949MOL0     H25238   7.496   9.259   7.537  2.7614 -0.0019  1.2770
  949MOL0     H25239   7.487   9.429   7.500  0.6447  1.1253  0.0243
  949MOL0     H25240   7.359   9.292   7.740  0.8079 -0.7878 -0.2443
  949MOL0     H25241   7.346   9.468   7.720 -0.1867 -1.6675  2.1132
  949MOL0     H25242   7.151   9.363   7.637  0.3525  2.2598  2.4394
  949MOL0     H25243   7.244   9.242   7.541  1.1085  0.2662 -0.1260
  949MOL0     H25244   7.146   9.393   7.378  1.3598 -4.1418  0.2756
  949MOL0     H25245   7.312   9.409   7.372  0.5552 -1.1932  0.7847
  949MOL0     H25246   7.099   9.605   7.460  0.7449 -1.1560  0.2937
  949MOL0     H25247   7.237   9.610   7.571  2.8665 -0.3229 -0.5353
  949MOL0     H25248   7.249   9.627   7.262  1.3796  0.3461 -0.5825
  949MOL0     H25249   7.387   9.626   7.381  0.6040  0.5325  2.2332
  949MOL0     H25250   8.070   9.405   7.814  0.4233  3.7241  0.3406
  949MOL0     H25251   8.302   9.433   7.720  1.2558  1.2077 -2.1138
  949MOL0     H25252   8.614   9.476   7.542  0.3028 -1.3179 -0.7398
  949MOL0     H25253   8.844   9.454   7.474  1.5175 -2.8621 -2.8506
  949MOL0     H25254  10.526   9.680   6.170 -0.2855 -1.6741 -0.1488
  949MOL0     H25255  10.773   9.752   6.214 -2.1410  1.0235 -0.9578
  949MOL0     H25256  11.076   9.910   6.376  0.0092  0.7227  1.3605
  949MOL0     H25257  11.296   9.966   6.315  0.5881  0.6970  1.0274
  949MOL0     H25258  11.527   9.693   6.226  0.6188  1.9567 -1.1820
  949MOL0     H25259  11.612   9.663   6.377  0.0729 -0.1303 -1.2013
  949MOL0     H25260  11.679   9.890   6.184  0.6974  0.4860 -0.5895
  949MOL0     H25261  11.774   9.832   6.316 -2.2401  0.2071  2.0935
  949MOL0     H25262  11.848   9.764   6.082 -0.2818  1.5056  2.0509
  949MOL0     H25263  11.711   9.658   6.071 -0.5462  1.1378  0.7475
  949MOL0     H25264  11.927   9.632   6.276  1.8970 -2.9539 -0.9967
  949MOL0     H25265  11.784   9.525   6.270  0.0581 -0.4207 -0.2256
  949MOL0     H25266  12.041   9.345   5.989  0.9550  4.2829 -3.0141
  949MOL0     H25267  11.434   9.652   6.576 -2.0473 -2.4195  1.3300
  949MOL0     H25268  11.218   9.596   6.629 -1.7546  1.9471  1.1057
  950MOL0     O25269   0.179   1.110   6.018 -0.2755  0.9952 -0.5506
  950MOL0     C25270   0.195   1.230   6.021  0.1701 -0.7738 -0.3753
  950MOL0     O25271   0.095   1.322   6.015 -0.5815 -0.8101  0.4481
  950MOL0     C25272  -0.029   1.268   6.046 -0.2794  0.7096 -0.6254
  950MOL0     C25273  -0.062   1.170   6.150 -0.7678  0.0274  0.5845
  950MOL0     C25274  -0.197   1.128   6.167  0.2671 -0.1578 -0.2499
  950MOL0     C25275  -0.305   1.173   6.091 -0.3266  0.2938 -0.1965
  950MOL0     O25276  -0.434   1.124   6.093 -0.3102 -0.3326 -0.5863
  950MOL0     C25277  -0.455   0.999   6.151  0.3452  0.2469 -0.1138
  950MOL0     C25278  -0.598   0.958   6.115  0.5234  0.3875 -0.4368
  950MOL0     C25279  -0.713   1.040   6.191  0.9630  0.1732  0.0034
  950MOL0     C25280  -0.726   0.985   6.331  1.0539  0.6838  0.3677
  950MOL0     C25281  -0.848   1.035   6.405 -0.6394  0.4012  0.1989
  950MOL0     C25282  -0.865   0.978   6.544  0.3018  0.3609  0.1172
  950MOL0     C25283  -0.963   1.061   6.623 -1.0620  0.0232  0.2750
  950MOL0     C25284  -1.108   1.055   6.565 -0.2764  0.3625 -0.7322
  950MOL0     N25285  -1.219   1.067   6.668  0.2652  0.1015  0.4493
  950MOL0     C25286  -1.234   1.186   6.733 -0.1034 -0.0673 -0.1771
  950MOL0     C25287  -1.349   1.164   6.808 -0.4434  0.1426  0.3991
  950MOL0     C25288  -1.405   1.273   6.890 -0.1784 -0.1146 -0.9210
  950MOL0     C25289  -1.550   1.324   6.860  0.3254  0.5641 -0.3648
  950MOL0     C25290  -1.580   1.401   6.738 -0.0397  0.3235  0.5757
  950MOL0     C25291  -1.727   1.404   6.693  0.8702  0.4581 -0.5530
  950MOL0     O25292  -1.775   1.293   6.614 -0.2981  0.5361  0.3266
  950MOL0     C25293  -1.910   1.256   6.620  0.1585 -0.0795  0.3650
  950MOL0     C25294  -1.978   1.211   6.507  0.3374 -0.1771  0.6295
  950MOL0     C25295  -2.120   1.181   6.514  0.4608  0.5293  0.5693
  950MOL0     C25296  -2.187   1.183   6.637 -0.0694  0.7658  0.4740
  950MOL0     C25297  -2.332   1.158   6.649 -0.6557 -0.7675  0.7646
  950MOL0     O25298  -2.391   1.178   6.767 -0.3635  0.2547 -0.2696
  950MOL0     C25299  -2.526   1.172   6.784 -0.0409 -0.6627 -0.1502
  950MOL0     C25300  -2.589   1.094   6.881  0.9390  0.9708 -0.3365
  950MOL0     C25301  -2.730   1.091   6.896 -0.0401  0.6739 -0.3907
  950MOL0     C25302  -2.812   1.169   6.811  0.5825  0.2584 -0.6609
  950MOL0     O25303  -2.950   1.177   6.818 -0.1051 -0.1217  0.1021
  950MOL0     C25304  -3.022   1.139   6.933 -0.6850 -0.7124  0.1906
  950MOL0     C25305  -3.167   1.184   6.909 -0.6102 -0.3900 -0.4739
  950MOL0     C25306  -3.221   1.105   6.783 -0.1137  0.1881  0.3150
  950MOL0     C25307  -3.356   1.180   6.746 -0.2963  0.2486  0.5076
  950MOL0     C25308  -3.409   1.105   6.627 -0.1793 -0.2119  0.2374
  950MOL0     C25309  -3.539   1.164   6.577  0.2525 -0.4411  0.6557
  950MOL0     C25310  -3.591   1.099   6.443 -0.0163 -0.8587  0.6942
  950MOL0     C25311  -3.631   0.956   6.460 -0.5624 -0.3944  0.7719
  950MOL0    Cl25312  -3.748   0.921   6.597  0.2192 -0.2415 -0.2602
  950MOL0     C25313  -2.750   1.232   6.706  0.5787 -1.1091 -0.2089
  950MOL0     C25314  -2.611   1.238   6.689  0.3135  0.0323 -0.6698
  950MOL0     O25315  -2.387   1.131   6.546  0.1957  0.2530  0.4194
  950MOL0     C25316  -2.112   1.217   6.749  0.0257  0.7210 -0.6364
  950MOL0     C25317  -1.974   1.250   6.743 -0.2108  0.3964  1.2081
  950MOL0     N25318  -1.399   1.040   6.786 -0.4077  0.6253  0.7125
  950MOL0     N25319  -1.324   0.987   6.695 -0.5740 -0.1946  0.9215
  950MOL0     C25320  -0.271   1.265   5.986 -0.1496  0.2754 -0.0008
  950MOL0     C25321  -0.136   1.308   5.966  0.9257 -0.3956  1.0367
  950MOL0     C25322   0.341   1.273   6.031 -0.2841  0.7435 -0.2302
  950MOL0     C25323   0.367   1.413   6.028 -0.6108  0.3101 -0.0058
  950MOL0     C25324   0.497   1.455   6.031 -0.1617  0.0034 -0.9388
  950MOL0     C25325   0.603   1.358   6.038 -0.1990 -0.3128  0.3320
  950MOL0     O25326   0.727   1.416   6.056 -0.4867  0.0515  0.2882
  950MOL0     C25327   0.837   1.346   6.120  0.3795 -0.5758 -0.2206
  950MOL0     C25328   0.961   1.432   6.112  0.2572  0.4958 -0.5011
  950MOL0     C25329   1.076   1.349   6.164  0.3421 -0.6100  0.6092
  950MOL0     C25330   1.204   1.428   6.150  0.4594 -0.3576  0.2328
  950MOL0     C25331   1.315   1.350   6.197  0.2743  1.0363  0.5449
  950MOL0     C25332   1.419   1.291   6.235  0.2285 -0.4595  0.0104
  950MOL0     C25333   0.575   1.218   6.053  0.5330 -0.7458 -0.8102
  950MOL0     C25334   0.446   1.175   6.044 -0.2011 -1.0221 -1.4754
  950MOL0     H25335   0.013   1.140   6.222  0.2093 -2.5221 -1.3506
  950MOL0     H25336  -0.225   1.062   6.249 -2.3163 -0.9805 -1.7096
  950MOL0     H25337  -0.444   0.996   6.260 -0.2453  3.1115  0.1245
  950MOL0     H25338  -0.384   0.926   6.113  0.1672 -0.7370  1.3572
  950MOL0     H25339  -0.614   0.850   6.126 -0.4512  0.4292 -1.2138
  950MOL0     H25340  -0.602   0.962   6.005 -0.2308 -0.7195 -0.4670
  950MOL0     H25341  -0.813   1.029   6.149  1.3704 -0.5773 -0.7860
  950MOL0     H25342  -0.685   1.146   6.187  0.0042  0.4681  0.8061
  950MOL0     H25343  -0.731   0.877   6.316  0.4545  1.0631 -3.0246
  950MOL0     H25344  -0.630   1.008   6.377  1.5909  0.9250 -0.8473
  950MOL0     H25345  -0.931   0.994   6.348 -0.1563 -2.3425  1.2869
  950MOL0     H25346  -0.856   1.144   6.414 -0.8250  0.2616  2.4440
  950MOL0     H25347  -0.768   0.969   6.594  0.9822  3.6253 -0.4169
  950MOL0     H25348  -0.917   0.884   6.524 -1.4362  1.7396 -2.3930
  950MOL0     H25349  -0.951   1.027   6.726  0.2806 -1.1212 -0.2306
  950MOL0     H25350  -0.928   1.165   6.620  0.2520 -0.3295  1.7371
  950MOL0     H25351  -1.125   0.960   6.513  1.1031 -0.8593  0.8943
  950MOL0     H25352  -1.115   1.131   6.488  0.3423  1.6348  0.4196
  950MOL0     H25353  -1.172   1.272   6.714  0.0467 -0.1168  0.0735
  950MOL0     H25354  -1.343   1.360   6.871  0.9292 -0.1633  2.0988
  950MOL0     H25355  -1.398   1.238   6.993 -1.3479 -2.1607 -1.4717
  950MOL0     H25356  -1.579   1.385   6.946 -0.3384 -0.7671  0.3749
  950MOL0     H25357  -1.616   1.237   6.851  1.4055 -0.2948 -0.2253
  950MOL0     H25358  -1.559   1.507   6.756  3.1214 -0.1714  0.3920
  950MOL0     H25359  -1.520   1.368   6.653 -0.6711  3.5117 -1.2660
  950MOL0     H25360  -1.733   1.488   6.623  1.8787 -0.1051 -1.3382
  950MOL0     H25361  -1.790   1.431   6.779  1.2756 -0.4691  0.0638
  950MOL0     H25362  -1.934   1.237   6.412 -3.0239  1.3249 -0.7008
  950MOL0     H25363  -2.181   1.171   6.425 -1.8623 -0.0719  2.1323
  950MOL0     H25364  -2.522   1.039   6.946 -1.9023 -0.9898  1.1110
  950MOL0     H25365  -2.778   1.052   6.985 -2.7776  0.1524 -2.0025
  950MOL0     H25366  -2.978   1.194   7.017 -3.2473 -0.9308  1.7696
  950MOL0     H25367  -3.011   1.032   6.952  0.2001 -0.4355  1.3877
  950MOL0     H25368  -3.169   1.292   6.892 -2.5409 -0.1215  1.0943
  950MOL0     H25369  -3.225   1.157   6.997  2.1678  0.1090  1.6409
  950MOL0     H25370  -3.235   1.001   6.813  1.2322  0.0552  0.5534
  950MOL0     H25371  -3.158   1.111   6.694 -1.9363 -2.1780 -1.2631
  950MOL0     H25372  -3.415   1.178   6.838  1.6514 -0.3773  1.7912
  950MOL0     H25373  -3.331   1.285   6.725  1.2122  0.2480  2.0838
  950MOL0     H25374  -3.415   0.999   6.649 -0.2764  0.0530  1.5406
  950MOL0     H25375  -3.339   1.111   6.543 -0.4766 -2.1434 -0.1800
  950MOL0     H25376  -3.508   1.265   6.548  2.5020 -1.9144 -2.6913
  950MOL0     H25377  -3.618   1.171   6.652  0.1994 -0.8844  0.6455
  950MOL0     H25378  -3.676   1.163   6.420  0.6442  0.1079  0.9148
  950MOL0     H25379  -3.513   1.101   6.366 -1.0492  0.4195 -0.3621
  950MOL0     H25380  -3.546   0.887   6.471 -1.9950 -2.6412 -1.2369
  950MOL0     H25381  -3.684   0.918   6.373  1.9647 -2.1312 -0.1298
  950MOL0     H25382  -2.808   1.295   6.640  1.1559 -0.9204 -0.5397
  950MOL0     H25383  -2.571   1.300   6.610 -0.9286  1.9556  0.1536
  950MOL0     H25384  -2.164   1.231   6.843 -0.8334  0.1026 -1.0110
  950MOL0     H25385  -1.918   1.286   6.828  0.1548  1.6191  0.4662
  950MOL0     H25386  -0.350   1.312   5.929 -1.8515 -2.0304  0.3456
  950MOL0     H25387  -0.111   1.379   5.889 -1.0076 -0.8787 -0.1246
  950MOL0     H25388   0.288   1.486   6.013 -0.0450  1.0874  0.7180
  950MOL0     H25389   0.518   1.561   6.029 -1.5237  0.4678  2.9136
  950MOL0     H25390   0.853   1.248   6.073 -1.8211 -0.4750 -1.3361
  950MOL0     H25391   0.809   1.336   6.225 -1.3288  0.2297 -0.5579
  950MOL0     H25392   0.963   1.471   6.010 -4.5572  2.1732 -0.2128
  950MOL0     H25393   0.942   1.517   6.179  2.1811  2.0494 -1.8113
  950MOL0     H25394   1.081   1.252   6.113 -2.6954 -2.2355  3.0521
  950MOL0     H25395   1.066   1.327   6.271  1.1439 -0.1385  0.7899
  950MOL0     H25396   1.207   1.448   6.042  1.3490 -0.6571  0.1949
  950MOL0     H25397   1.204   1.521   6.207 -2.1516  1.2543 -2.1143
  950MOL0     H25398   1.511   1.236   6.244  0.1935 -1.3775 -3.6557
  950MOL0     H25399   0.648   1.139   6.070  2.0314  1.0165  1.6772
  950MOL0     H25400   0.427   1.069   6.059 -1.9958 -0.4728  0.6635
  951MOL0     O25401   3.952   3.484   7.599 -0.1028 -0.4552  1.3448
  951MOL0     C25402   4.030   3.396   7.629 -0.8504 -0.8733 -0.2066
  951MOL0     O25403   4.032   3.316   7.743 -0.0675  0.2671 -0.0571
  951MOL0     C25404   3.924   3.328   7.829  0.5222  0.2601 -0.0512
  951MOL0     C25405   3.933   3.392   7.949 -0.0831 -0.5713 -0.6074
  951MOL0     C25406   3.821   3.388   8.036 -0.1509 -0.4376 -0.3553
  951MOL0     C25407   3.694   3.341   8.002  0.2837  0.4672  1.0572
  951MOL0     O25408   3.585   3.367   8.082  0.0782 -0.0892  0.2136
  951MOL0     C25409   3.484   3.262   8.076 -0.2553 -0.0943 -0.6707
  951MOL0     C25410   3.385   3.280   8.190 -0.2369  1.1004 -0.2797
  951MOL0     C25411   3.254   3.184   8.165  0.3276 -0.4661  0.5697
  951MOL0     C25412   3.141   3.274   8.184  0.1436 -0.6508  0.2882
  951MOL0     C25413   3.004   3.221   8.132 -0.0053 -0.0643  0.3531
  951MOL0     C25414   2.935   3.101   8.207  1.0182 -0.6316  1.0684
  951MOL0     C25415   2.952   3.113   8.356 -0.2204  0.3908 -0.3659
  951MOL0     C25416   2.893   2.989   8.432  0.3033  0.1169 -0.3821
  951MOL0     N25417   2.947   2.861   8.379  0.6321 -0.2340 -0.2219
  951MOL0     C25418   3.079   2.826   8.373 -0.1058 -0.1158 -0.4502
  951MOL0     C25419   3.085   2.693   8.337 -0.1691  0.0259 -0.1603
  951MOL0     C25420   3.201   2.599   8.341 -0.1657 -0.0759  0.6420
  951MOL0     C25421   3.297   2.609   8.217  0.3885  0.7543  0.0432
  951MOL0     C25422   3.433   2.551   8.243 -0.9780  0.5490  0.2905
  951MOL0     C25423   3.507   2.535   8.103  0.5093  0.8291 -0.1591
  951MOL0     O25424   3.647   2.527   8.126 -0.0810 -0.3616 -0.3835
  951MOL0     C25425   3.733   2.544   8.020  0.7336 -0.3016 -0.4271
  951MOL0     C25426   3.698   2.540   7.885  0.2082 -0.2508  0.2673
  951MOL0     C25427   3.789   2.556   7.782 -0.6261  0.4447  0.5260
  951MOL0     C25428   3.928   2.565   7.817  0.0070  0.6074  0.3695
  951MOL0     C25429   4.034   2.576   7.717 -0.1729  0.2429  0.8351
  951MOL0     O25430   3.988   2.583   7.587  0.1038 -0.1018 -0.0804
  951MOL0     C25431   4.058   2.544   7.472  0.6812 -0.6748 -0.0047
  951MOL0     C25432   3.982   2.518   7.363  0.0584 -0.4281 -0.0506
  951MOL0     C25433   4.030   2.504   7.232 -0.1497  0.5538 -0.0780
  951MOL0     C25434   4.170   2.506   7.222 -0.3890  1.3443  0.7940
  951MOL0     O25435   4.214   2.470   7.092  0.3464 -0.0204  0.6267
  951MOL0     C25436   4.357   2.459   7.064 -0.3809  0.9439  0.5581
  951MOL0     C25437   4.411   2.324   7.110 -0.5441  0.2836  0.1810
  951MOL0     C25438   4.341   2.209   7.039 -0.5125 -0.0532  0.2647
  951MOL0     C25439   4.225   2.157   7.124  0.0176  0.4645  0.0798
  951MOL0     C25440   4.181   2.022   7.066 -0.1356  0.3397  0.5188
  951MOL0     C25441   4.055   1.971   7.144 -0.8445 -1.1056  0.3835
  951MOL0     C25442   4.018   1.824   7.099 -0.0625 -0.1369  0.1135
  951MOL0     C25443   3.865   1.788   7.123 -0.5306 -0.1840 -0.1382
  951MOL0    Cl25444   3.811   1.854   7.289 -0.4475 -0.3992 -0.0533
  951MOL0     C25445   4.251   2.520   7.333 -0.2259  0.2926 -0.3896
  951MOL0     C25446   4.198   2.540   7.460  0.4462 -0.0174 -0.5494
  951MOL0     O25447   4.148   2.563   7.748 -0.0380 -0.0714  0.7959
  951MOL0     C25448   3.961   2.578   7.945  0.4280 -0.7743 -0.5904
  951MOL0     C25449   3.864   2.566   8.050 -0.2554 -0.0913 -0.0587
  951MOL0     N25450   2.952   2.654   8.309  0.3148 -0.2199 -0.5426
  951MOL0     N25451   2.874   2.756   8.337 -0.1706  0.1466  0.3691
  951MOL0     C25452   3.681   3.283   7.873 -0.9511  0.5036 -1.2647
  951MOL0     C25453   3.797   3.278   7.793 -0.1719  0.2215 -0.3695
  951MOL0     C25454   4.152   3.371   7.547  0.0965 -0.4059  0.0032
  951MOL0     C25455   4.251   3.275   7.572 -0.1055  0.1452  0.9292
  951MOL0     C25456   4.370   3.268   7.494  0.0006  0.2391  0.6876
  951MOL0     C25457   4.387   3.342   7.379  0.5512  0.2827  0.0607
  951MOL0     O25458   4.495   3.324   7.297 -0.1273  0.4330 -0.1184
  951MOL0     C25459   4.513   3.408   7.183 -0.2095  0.2263 -0.5316
  951MOL0     C25460   4.632   3.360   7.108 -0.0453 -0.5170  0.4514
  951MOL0     C25461   4.759   3.380   7.192 -0.6738 -0.2630  0.2160
  951MOL0     C25462   4.892   3.357   7.109  0.1592 -0.8818 -0.5501
  951MOL0     C25463   4.924   3.219   7.084  0.8803 -0.2273 -0.5501
  951MOL0     C25464   4.960   3.106   7.062 -0.7341  0.2536 -0.8360
  951MOL0     C25465   4.289   3.438   7.351 -0.0493 -0.5221  0.7799
  951MOL0     C25466   4.178   3.445   7.435  0.8373 -0.3794 -0.4991
  951MOL0     H25467   4.015   3.457   7.978 -1.0511  1.2070 -1.6197
  951MOL0     H25468   3.828   3.436   8.133 -0.9750 -0.9857 -0.0125
  951MOL0     H25469   3.532   3.165   8.090  1.1385  0.5456 -0.7588
  951MOL0     H25470   3.436   3.262   7.978 -1.3282 -0.8526 -0.1654
  951MOL0     H25471   3.357   3.386   8.195  0.6353  1.3233  0.0526
  951MOL0     H25472   3.442   3.259   8.281  2.6090 -0.8895 -2.3069
  951MOL0     H25473   3.258   3.099   8.234 -0.2064 -0.4494  0.6278
  951MOL0     H25474   3.253   3.151   8.061 -1.2503  3.7918 -0.9683
  951MOL0     H25475   3.125   3.297   8.289  2.3714  0.3904  0.4597
  951MOL0     H25476   3.156   3.368   8.130  2.3616  0.4803  2.6846
  951MOL0     H25477   3.016   3.192   8.028  4.8662 -0.7438  0.9048
  951MOL0     H25478   2.935   3.306   8.128 -0.3411 -0.3704 -0.5444
  951MOL0     H25479   2.983   3.005   8.184 -1.0732 -1.7748  1.1841
  951MOL0     H25480   2.831   3.091   8.175  1.8155 -1.1296 -1.6381
  951MOL0     H25481   3.057   3.116   8.387 -0.1094 -1.5801 -0.3967
  951MOL0     H25482   2.913   3.208   8.394  2.2207  2.9527 -3.6616
  951MOL0     H25483   2.785   2.980   8.424  0.3557 -0.2200 -0.7352
  951MOL0     H25484   2.918   2.996   8.539 -1.0976  2.9344 -0.1603
  951MOL0     H25485   3.163   2.888   8.402  0.8526 -1.3769 -0.4648
  951MOL0     H25486   3.163   2.497   8.353  0.0435 -0.2241  0.0276
  951MOL0     H25487   3.257   2.628   8.431 -0.1592  3.1774 -0.2790
  951MOL0     H25488   3.303   2.713   8.185 -2.7950  1.9235  2.7715
  951MOL0     H25489   3.247   2.553   8.136  2.6764 -1.5410  0.0835
  951MOL0     H25490   3.489   2.628   8.295 -1.3651  0.9363  0.1438
  951MOL0     H25491   3.426   2.458   8.299  2.2757 -1.3082 -2.0494
  951MOL0     H25492   3.474   2.628   8.056 -0.4583  1.1327  1.0395
  951MOL0     H25493   3.468   2.455   8.039 -0.5563  0.4744  0.8781
  951MOL0     H25494   3.594   2.541   7.855  0.3225  2.6394 -0.3226
  951MOL0     H25495   3.755   2.560   7.679 -1.2605 -2.6779  0.5235
  951MOL0     H25496   3.874   2.525   7.373  0.1427  2.0021 -0.3176
  951MOL0     H25497   3.958   2.480   7.154 -0.3808 -0.4524  0.4293
  951MOL0     H25498   4.406   2.542   7.114 -0.8948  1.4533  0.2225
  951MOL0     H25499   4.371   2.456   6.956 -3.0228 -0.1485  0.1548
  951MOL0     H25500   4.414   2.301   7.217  1.4744 -3.5311 -0.5035
  951MOL0     H25501   4.516   2.327   7.079 -0.3300  0.2747  0.9062
  951MOL0     H25502   4.414   2.128   7.030 -0.0282  0.0676  2.4439
  951MOL0     H25503   4.301   2.238   6.942 -2.8715 -0.6075  0.9991
  951MOL0     H25504   4.260   2.151   7.227  3.4695  2.1451 -0.8349
  951MOL0     H25505   4.139   2.225   7.120  1.0837  1.8096 -1.1858
  951MOL0     H25506   4.262   1.949   7.068 -2.1055 -1.9574  2.3346
  951MOL0     H25507   4.148   2.030   6.961  1.7611 -1.1076 -0.2437
  951MOL0     H25508   3.967   2.030   7.116 -1.1706 -0.8336  1.9000
  951MOL0     H25509   4.076   1.982   7.251  2.9193  0.4904 -0.3686
  951MOL0     H25510   4.039   1.814   6.992 -2.3183  0.3237 -0.4082
  951MOL0     H25511   4.070   1.752   7.163 -1.9159 -1.6843 -0.0249
  951MOL0     H25512   3.840   1.683   7.108 -0.1078 -0.3029 -0.0333
  951MOL0     H25513   3.805   1.838   7.046 -0.1724  1.3854  0.5730
  951MOL0     H25514   4.357   2.515   7.309  0.0361  0.2391  0.7090
  951MOL0     H25515   4.266   2.546   7.544 -1.6032 -2.5834  1.4579
  951MOL0     H25516   4.062   2.594   7.980  0.1328  0.9789 -0.4608
  951MOL0     H25517   3.898   2.579   8.152 -1.5174 -0.7428  0.4719
  951MOL0     H25518   3.585   3.245   7.841 -1.0929  0.6954 -1.0725
  951MOL0     H25519   3.783   3.248   7.690 -0.4308 -1.1383  0.0413
  951MOL0     H25520   4.224   3.198   7.643  3.0646  0.4859  2.6873
  951MOL0     H25521   4.436   3.184   7.512 -1.1884 -0.7884  0.3583
  951MOL0     H25522   4.528   3.509   7.222 -1.6677  0.4062 -0.3843
  951MOL0     H25523   4.423   3.411   7.122 -2.4815 -2.2748  2.3877
  951MOL0     H25524   4.623   3.255   7.077 -0.4222 -0.6223  0.9086
  951MOL0     H25525   4.633   3.419   7.015 -0.3134 -0.5516  0.4253
  951MOL0     H25526   4.762   3.310   7.276  1.0872  0.7719  1.0701
  951MOL0     H25527   4.763   3.478   7.239 -2.0873 -1.7570  3.7929
  951MOL0     H25528   4.883   3.394   7.007  2.4919 -0.5617 -0.6979
  951MOL0     H25529   4.978   3.406   7.156 -0.3923 -1.1058  0.7289
  951MOL0     H25530   5.004   3.016   7.025  0.6246  1.4809 -2.3520
  951MOL0     H25531   4.294   3.505   7.266 -4.8374 -1.8513 -0.9024
  951MOL0     H25532   4.100   3.511   7.398  1.1988 -0.0192 -0.6236
  952MOL0     O25533  10.784   3.826   3.945 -0.3156  0.0413  0.4651
  952MOL0     C25534  10.686   3.821   3.868  0.3657 -0.3334 -0.8514
  952MOL0     O25535  10.683   3.865   3.744 -0.2064  0.3801  0.0610
  952MOL0     C25536  10.799   3.876   3.683  0.2436 -0.0524  0.3628
  952MOL0     C25537  10.870   3.989   3.718  0.8316  0.2058  0.6292
  952MOL0     C25538  10.987   4.019   3.655  0.3418 -0.1683  0.0568
  952MOL0     C25539  11.019   3.949   3.540  0.2751 -0.0158 -0.1468
  952MOL0     O25540  11.128   3.971   3.460  0.0342 -0.2789  0.0993
  952MOL0     C25541  11.148   4.110   3.435 -0.3523 -0.2120  0.3462
  952MOL0     C25542  11.244   4.139   3.320  0.1620  0.2939  0.9177
  952MOL0     C25543  11.241   4.287   3.292  0.2604  0.4896 -0.1265
  952MOL0     C25544  11.359   4.311   3.185  0.3257  0.1404 -0.3631
  952MOL0     C25545  11.365   4.463   3.150  0.0458 -0.7269  0.1726
  952MOL0     C25546  11.237   4.526   3.107  0.8068  0.3222 -0.3788
  952MOL0     C25547  11.245   4.645   3.024  0.1583  0.2053  0.6965
  952MOL0     C25548  11.105   4.676   2.962  0.0669 -1.2078  0.5476
  952MOL0     N25549  11.043   4.807   3.006 -0.3046  0.4768  0.0100
  952MOL0     C25550  11.029   4.832   3.139 -0.0406  0.0127 -0.4984
  952MOL0     C25551  10.985   4.957   3.140 -0.4553  0.3831  1.0919
  952MOL0     C25552  10.954   5.040   3.263  0.1381 -0.7554 -0.1159
  952MOL0     C25553  10.800   5.032   3.281 -0.3638  0.8744 -0.1527
  952MOL0     C25554  10.759   4.893   3.335 -0.2197 -0.3581 -0.4140
  952MOL0     C25555  10.614   4.870   3.386 -0.2220 -0.2010 -0.4089
  952MOL0     O25556  10.525   4.874   3.276  0.1588  0.8053  0.3500
  952MOL0     C25557  10.392   4.893   3.303 -0.0672  0.8421  0.0328
  952MOL0     C25558  10.316   4.914   3.187  0.2760  0.1792  0.5779
  952MOL0     C25559  10.176   4.928   3.193  1.1066  0.8024 -0.6362
  952MOL0     C25560  10.111   4.919   3.318  0.0615  0.2305  1.5569
  952MOL0     C25561   9.968   4.947   3.329  0.9292 -0.9436 -0.7791
  952MOL0     O25562   9.891   4.953   3.220 -0.4185  0.2147 -0.1066
  952MOL0     C25563   9.754   4.953   3.235  0.3912 -0.7164 -0.5648
  952MOL0     C25564   9.675   4.837   3.225 -0.3485  0.2819 -0.3486
  952MOL0     C25565   9.541   4.845   3.260  0.6910 -0.3183  0.5401
  952MOL0     C25566   9.479   4.962   3.300  0.3161  0.7448  0.1953
  952MOL0     O25567   9.352   4.953   3.345  0.7053  0.6730  0.7748
  952MOL0     C25568   9.267   5.071   3.332  0.4491  1.0520  0.2037
  952MOL0     C25569   9.125   5.034   3.343 -0.5246  0.2749  0.3576
  952MOL0     C25570   9.044   5.140   3.269  0.1367  0.2725 -0.5734
  952MOL0     C25571   8.886   5.116   3.278 -0.3821  0.7668 -0.2624
  952MOL0     C25572   8.806   5.227   3.220 -0.5394 -0.7056 -0.3147
  952MOL0     C25573   8.661   5.187   3.229  0.3836  0.2214 -0.5385
  952MOL0     C25574   8.559   5.295   3.181 -0.2787  0.0254  0.4290
  952MOL0     C25575   8.412   5.258   3.202  0.0323 -0.1942  0.7470
  952MOL0    Cl25576   8.365   5.112   3.105 -0.3274  0.0846  0.3505
  952MOL0     C25577   9.553   5.081   3.316 -0.4896 -0.3439  0.3225
  952MOL0     C25578   9.692   5.074   3.284  1.4383 -0.0904  0.9973
  952MOL0     O25579   9.927   4.978   3.442 -0.1619 -0.7025  0.0366
  952MOL0     C25580  10.188   4.900   3.437 -0.2635  0.0879 -0.4147
  952MOL0     C25581  10.321   4.882   3.427  0.7812 -0.1578 -0.6701
  952MOL0     N25582  10.976   5.014   3.014 -0.3870  0.5458 -0.0850
  952MOL0     N25583  11.008   4.915   2.927  0.1298  0.0965 -0.9409
  952MOL0     C25584  10.938   3.836   3.504  0.2138 -0.3535  0.1609
  952MOL0     C25585  10.829   3.795   3.574  0.5295 -0.2850 -0.6219
  952MOL0     C25586  10.558   3.768   3.932 -0.5914 -0.5332  0.4236
  952MOL0     C25587  10.436   3.798   3.868  0.0418 -0.4557 -0.3434
  952MOL0     C25588  10.317   3.744   3.925 -1.1747  0.2792 -0.6302
  952MOL0     C25589  10.318   3.663   4.040 -0.7168 -0.6491 -0.4696
  952MOL0     O25590  10.212   3.600   4.099  0.5384 -0.5251  0.5444
  952MOL0     C25591  10.085   3.621   4.032  0.0911  0.1522 -0.1961
  952MOL0     C25592   9.971   3.532   4.090 -0.4693 -0.2890  0.5430
  952MOL0     C25593   9.966   3.522   4.247 -0.8295 -0.5423 -0.4429
  952MOL0     C25594   9.826   3.536   4.291 -0.7990  0.8933 -0.5583
  952MOL0     C25595   9.743   3.417   4.275  0.5986  1.1490 -1.0341
  952MOL0     C25596   9.672   3.316   4.272 -0.3650 -0.9195  0.4058
  952MOL0     C25597  10.442   3.631   4.095  0.8482 -0.5623  0.4041
  952MOL0     C25598  10.560   3.680   4.044 -0.0492  0.1340 -0.0527
  952MOL0     H25599  10.835   4.048   3.802  1.9434  0.3837  0.9829
  952MOL0     H25600  11.041   4.110   3.680 -3.5223  1.8445  2.0080
  952MOL0     H25601  11.189   4.158   3.524 -1.9010  1.8067  0.0343
  952MOL0     H25602  11.055   4.162   3.409  1.0442  0.6402 -3.7430
  952MOL0     H25603  11.210   4.085   3.231 -0.8948 -1.1606  2.1585
  952MOL0     H25604  11.342   4.106   3.354 -0.2992 -0.3950  1.5978
  952MOL0     H25605  11.251   4.355   3.377  1.4669  2.7503 -1.9618
  952MOL0     H25606  11.138   4.313   3.267  0.0035  0.6305  1.0380
  952MOL0     H25607  11.452   4.280   3.234  1.8946  3.0766 -1.2579
  952MOL0     H25608  11.328   4.253   3.098 -2.6534  3.4902 -1.8106
  952MOL0     H25609  11.438   4.479   3.070  0.5634  0.4700  0.8503
  952MOL0     H25610  11.396   4.512   3.243 -4.3870 -0.6523  1.8829
  952MOL0     H25611  11.172   4.544   3.193  0.0725 -1.0518 -0.6237
  952MOL0     H25612  11.182   4.448   3.053 -2.2347 -1.5196  4.6282
  952MOL0     H25613  11.289   4.730   3.078 -0.0187  1.8189 -1.5430
  952MOL0     H25614  11.307   4.631   2.935 -1.4105 -0.4171 -0.3437
  952MOL0     H25615  11.032   4.599   2.991 -0.8389 -1.4574 -2.1338
  952MOL0     H25616  11.109   4.671   2.853  1.5090 -2.8428  0.6185
  952MOL0     H25617  11.043   4.763   3.222 -1.4157 -1.7000 -1.6222
  952MOL0     H25618  10.988   5.144   3.262  0.4997 -0.8393  1.5200
  952MOL0     H25619  10.999   5.006   3.356  1.0156  3.3657  1.1941
  952MOL0     H25620  10.759   5.051   3.181 -0.9095 -0.9087 -0.3056
  952MOL0     H25621  10.761   5.114   3.343  1.5593  1.1060  0.8205
  952MOL0     H25622  10.781   4.816   3.259 -0.5462 -0.1738 -0.6966
  952MOL0     H25623  10.829   4.876   3.417 -0.3162  0.5910 -0.1311
  952MOL0     H25624  10.577   4.938   3.463 -2.0209 -1.7688  0.1631
  952MOL0     H25625  10.614   4.775   3.439  0.4835  0.1714  0.2906
  952MOL0     H25626  10.364   4.919   3.090 -1.5830 -1.0403 -0.4689
  952MOL0     H25627  10.109   4.930   3.108 -1.8478 -0.7247  1.4520
  952MOL0     H25628   9.713   4.740   3.196 -2.1618  0.0223 -2.0651
  952MOL0     H25629   9.487   4.751   3.271 -1.1519  0.4015 -1.5281
  952MOL0     H25630   9.281   5.123   3.237 -0.4709  1.2630  0.1697
  952MOL0     H25631   9.293   5.137   3.416  1.8111  1.0151 -0.1694
  952MOL0     H25632   9.091   5.014   3.445 -3.0814 -1.8707 -0.8113
  952MOL0     H25633   9.119   4.937   3.293  1.5740 -0.3987  1.3060
  952MOL0     H25634   9.065   5.149   3.162 -2.6442  1.4538 -1.1121
  952MOL0     H25635   9.067   5.237   3.315  1.9856 -0.3215 -0.1960
  952MOL0     H25636   8.878   5.019   3.229  1.5209 -1.7864  3.9088
  952MOL0     H25637   8.855   5.097   3.381 -0.8648  3.2041  0.0956
  952MOL0     H25638   8.833   5.248   3.116 -1.6439 -0.1554 -0.5081
  952MOL0     H25639   8.823   5.318   3.278 -0.8787 -1.1170  0.4492
  952MOL0     H25640   8.631   5.175   3.333 -1.4525  0.6294 -0.9803
  952MOL0     H25641   8.647   5.094   3.174  1.1437 -1.4563  1.9614
  952MOL0     H25642   8.585   5.388   3.231  1.7773 -0.2290 -0.0432
  952MOL0     H25643   8.556   5.311   3.073 -0.6947  1.2286  0.6081
  952MOL0     H25644   8.353   5.342   3.165  0.5187 -0.8302 -1.6401
  952MOL0     H25645   8.390   5.244   3.308  1.3584  0.7133  1.1664
  952MOL0     H25646   9.518   5.181   3.343 -0.3675 -0.1876 -0.0970
  952MOL0     H25647   9.738   5.169   3.306  0.5046  0.9493 -1.2613
  952MOL0     H25648  10.141   4.888   3.534  1.0754 -5.3447 -0.1247
  952MOL0     H25649  10.373   4.847   3.516  2.7012  4.1396  0.1593
  952MOL0     H25650  10.971   3.785   3.414  3.8223  2.0519 -0.0898
  952MOL0     H25651  10.751   3.721   3.559 -1.2821  1.3562  0.0949
  952MOL0     H25652  10.425   3.864   3.782 -1.0683 -1.4669 -0.9998
  952MOL0     H25653  10.222   3.762   3.876 -0.7930 -0.7682 -1.7854
  952MOL0     H25654  10.091   3.610   3.923  0.6125 -0.0822 -0.1470
  952MOL0     H25655  10.065   3.725   4.060 -0.2006  0.2522 -0.7620
  952MOL0     H25656   9.876   3.578   4.062  0.2151 -0.5168 -2.4747
  952MOL0     H25657   9.973   3.428   4.056 -0.0536 -0.8572  2.2045
  952MOL0     H25658  10.033   3.592   4.297 -1.6297  0.6661 -1.0202
  952MOL0     H25659  10.008   3.423   4.267  1.5963 -0.0189 -2.3562
  952MOL0     H25660   9.828   3.563   4.397  2.2300 -0.1453 -0.2787
  952MOL0     H25661   9.779   3.621   4.240 -1.1977  0.8487 -0.2733
  952MOL0     H25662   9.609   3.229   4.283 -0.1054 -1.3165 -1.0012
  952MOL0     H25663  10.445   3.561   4.178 -0.0093 -0.0042  0.9217
  952MOL0     H25664  10.654   3.641   4.081 -0.2067 -0.5090 -0.3119
  953MOL0     O25665   2.544   4.502   7.247  0.1411 -0.2444  0.2429
  953MOL0     C25666   2.657   4.547   7.257 -0.0881  0.0062  0.2561
  953MOL0     O25667   2.691   4.674   7.237 -0.7024 -0.0489  0.0758
  953MOL0     C25668   2.599   4.770   7.217 -0.0104 -0.0944 -0.0249
  953MOL0     C25669   2.638   4.880   7.137 -0.5648  0.5406 -0.1472
  953MOL0     C25670   2.550   4.985   7.108 -0.4254 -0.1455  0.2514
  953MOL0     C25671   2.432   4.993   7.171  0.9822 -0.0440 -0.3461
  953MOL0     O25672   2.364   5.112   7.144 -0.3368 -0.1096 -0.0821
  953MOL0     C25673   2.231   5.126   7.206  0.4600 -0.2704 -0.1242
  953MOL0     C25674   2.157   5.243   7.127  0.1167  0.5732 -0.6762
  953MOL0     C25675   2.014   5.270   7.169  0.4971 -0.3470 -0.3364
  953MOL0     C25676   1.907   5.155   7.154  0.1345  0.9968  0.1382
  953MOL0     C25677   1.759   5.197   7.181  0.4665 -0.6760 -0.1396
  953MOL0     C25678   1.702   5.182   7.326 -0.7519  0.9280 -0.7227
  953MOL0     C25679   1.551   5.206   7.344  0.0969 -0.2338  0.4996
  953MOL0     C25680   1.482   5.074   7.314  0.7560  0.0923  0.1898
  953MOL0     N25681   1.336   5.095   7.320 -0.5884  0.1902 -0.2550
  953MOL0     C25682   1.253   5.027   7.242 -0.2199  0.3453 -0.5189
  953MOL0     C25683   1.134   5.075   7.264  0.0620 -0.6910  1.0534
  953MOL0     C25684   1.004   5.015   7.218 -0.1056 -0.0100  0.1968
  953MOL0     C25685   0.984   4.886   7.290 -0.8119  0.4475 -0.3152
  953MOL0     C25686   0.965   4.876   7.453  0.3153 -0.7169  0.3443
  953MOL0     C25687   0.829   4.920   7.501 -0.3445 -0.2384  0.3981
  953MOL0     O25688   0.763   4.800   7.484 -0.6847 -0.2089  0.0993
  953MOL0     C25689   0.629   4.823   7.503 -0.2557 -0.0961 -0.7147
  953MOL0     C25690   0.573   4.795   7.626  0.3996  0.1583  0.7312
  953MOL0     C25691   0.430   4.804   7.637  0.3987 -0.4327 -0.1256
  953MOL0     C25692   0.350   4.846   7.526  0.8293 -1.3686 -0.2632
  953MOL0     C25693   0.209   4.845   7.529  0.6192 -0.2893  0.2273
  953MOL0     O25694   0.151   4.819   7.408  0.3277 -0.2269  0.1373
  953MOL0     C25695   0.012   4.827   7.394 -0.3516 -0.4448 -0.3395
  953MOL0     C25696  -0.036   4.767   7.276 -0.3207 -0.1106 -0.4625
  953MOL0     C25697  -0.165   4.791   7.238  0.1052 -0.1623 -0.8401
  953MOL0     C25698  -0.260   4.857   7.312 -0.3551 -0.5930 -0.6288
  953MOL0     O25699  -0.390   4.866   7.266 -0.9139 -0.0331 -0.3949
  953MOL0     C25700  -0.478   4.962   7.323  1.5949  0.3511  0.2094
  953MOL0     C25701  -0.625   4.945   7.285  1.0019  0.1476  0.7172
  953MOL0     C25702  -0.720   5.045   7.346  0.0245  0.0938  0.2725
  953MOL0     C25703  -0.866   4.983   7.333  0.0400 -0.8567 -0.1417
  953MOL0     C25704  -0.968   5.085   7.361  0.6922 -0.1411  0.2248
  953MOL0     C25705  -1.099   5.017   7.313 -0.8145 -0.0264 -0.5505
  953MOL0     C25706  -1.205   5.131   7.313  0.4180  0.0880  0.8838
  953MOL0     C25707  -1.352   5.083   7.299  0.1159  0.3061  0.3149
  953MOL0    Cl25708  -1.375   4.969   7.436  0.3495 -0.0488 -0.4953
  953MOL0     C25709  -0.212   4.902   7.437  0.7205 -0.1684  0.4488
  953MOL0     C25710  -0.084   4.892   7.475 -0.0700  0.9581 -0.2054
  953MOL0     O25711   0.151   4.879   7.635 -0.4788 -0.6194  0.2397
  953MOL0     C25712   0.409   4.885   7.407  0.4895  0.7108  0.1103
  953MOL0     C25713   0.545   4.861   7.393 -0.2521  0.0118  0.5195
  953MOL0     N25714   1.147   5.190   7.339  0.0795  0.5965 -0.3167
  953MOL0     N25715   1.269   5.190   7.382 -0.3984  0.5867  0.0131
  953MOL0     C25716   2.397   4.903   7.267  0.5075  0.1154 -0.3132
  953MOL0     C25717   2.475   4.788   7.285 -0.4234  0.2292  0.3365
  953MOL0     C25718   2.772   4.456   7.271  0.6610  0.5688  0.7316
  953MOL0     C25719   2.739   4.323   7.296  0.2213  0.9125 -0.1560
  953MOL0     C25720   2.851   4.231   7.310 -1.0911 -0.4563 -0.6104
  953MOL0     C25721   2.982   4.273   7.306  0.6255 -0.1268 -0.2047
  953MOL0     O25722   3.080   4.174   7.324  0.8458 -0.2324  0.0998
  953MOL0     C25723   3.215   4.214   7.337  0.4837 -0.2993  0.8434
  953MOL0     C25724   3.306   4.103   7.377 -0.1947 -0.8589  0.0361
  953MOL0     C25725   3.313   4.003   7.261 -0.3074  0.3479 -0.1440
  953MOL0     C25726   3.397   4.051   7.139 -0.2215 -0.8520  0.9638
  953MOL0     C25727   3.538   4.058   7.173  0.4667  0.5433  0.1313
  953MOL0     C25728   3.656   4.084   7.198 -0.1506 -0.2546 -0.2683
  953MOL0     C25729   3.007   4.411   7.286 -0.0152 -0.3510  0.0418
  953MOL0     C25730   2.905   4.500   7.261  0.6711  0.2134 -1.1337
  953MOL0     H25731   2.732   4.886   7.083 -0.0436 -2.3498  0.2669
  953MOL0     H25732   2.599   5.050   7.036  2.9428 -4.3576 -1.7081
  953MOL0     H25733   2.246   5.161   7.309  3.1235 -0.7913 -0.2718
  953MOL0     H25734   2.167   5.038   7.198  0.1677 -0.0316 -0.4099
  953MOL0     H25735   2.164   5.218   7.021 -1.0817 -1.8745 -0.2652
  953MOL0     H25736   2.211   5.338   7.132 -0.0360  0.6007  2.0481
  953MOL0     H25737   1.970   5.358   7.120  3.2990  1.3652  0.0095
  953MOL0     H25738   2.032   5.283   7.276  0.8458 -1.2032 -0.2858
  953MOL0     H25739   1.929   5.129   7.051  0.1058  1.1979  0.0820
  953MOL0     H25740   1.926   5.058   7.201  2.0227  0.7207 -1.0941
  953MOL0     H25741   1.696   5.144   7.110 -2.3923  1.7673  0.3629
  953MOL0     H25742   1.746   5.301   7.151 -2.3714 -1.4381 -1.9007
  953MOL0     H25743   1.760   5.242   7.397  2.7578 -1.8627 -0.8847
  953MOL0     H25744   1.729   5.080   7.355  0.8811  1.3235 -0.7297
  953MOL0     H25745   1.526   5.234   7.446 -1.0818  1.2216 -0.1598
  953MOL0     H25746   1.534   5.293   7.280  0.4873  0.7349  1.6775
  953MOL0     H25747   1.512   5.003   7.392  2.4114  1.5605  0.9740
  953MOL0     H25748   1.509   5.032   7.217 -0.2298 -1.5843  0.6085
  953MOL0     H25749   1.275   4.932   7.195  0.2829  0.8710 -1.3848
  953MOL0     H25750   0.995   5.012   7.109 -1.3515 -0.1394  0.2810
  953MOL0     H25751   0.929   5.084   7.258 -0.5549 -1.1372  1.3912
  953MOL0     H25752   1.064   4.819   7.257 -1.4584  0.4847 -2.0419
  953MOL0     H25753   0.894   4.833   7.258  0.2598 -2.4883  1.1576
  953MOL0     H25754   0.991   4.776   7.489 -1.3514 -1.2275  0.2348
  953MOL0     H25755   1.027   4.954   7.499 -1.5753  0.0146  1.8167
  953MOL0     H25756   0.781   4.999   7.441 -0.5818 -0.1279  0.7335
  953MOL0     H25757   0.829   4.955   7.604  2.0943 -0.2860  0.4598
  953MOL0     H25758   0.627   4.762   7.714 -1.5046 -1.3577  1.4134
  953MOL0     H25759   0.376   4.781   7.728 -0.1200 -0.7932 -0.5221
  953MOL0     H25760   0.025   4.703   7.214 -1.6006 -1.9958  0.1430
  953MOL0     H25761  -0.195   4.741   7.146  0.9598  0.2917 -1.3793
  953MOL0     H25762  -0.447   5.065   7.308 -0.5835  1.6305  3.4524
  953MOL0     H25763  -0.480   4.943   7.431  0.3179 -1.3822 -0.0739
  953MOL0     H25764  -0.652   4.844   7.316  0.5247  0.6323  1.9010
  953MOL0     H25765  -0.632   4.946   7.175 -1.6116 -1.0878  0.7983
  953MOL0     H25766  -0.712   5.143   7.299 -0.2789  1.4879  2.9128
  953MOL0     H25767  -0.696   5.061   7.452 -0.4668 -0.4973  0.4771
  953MOL0     H25768  -0.866   4.952   7.228  2.2355 -2.7168  0.3353
  953MOL0     H25769  -0.866   4.891   7.392  1.2026 -1.6975 -1.4017
  953MOL0     H25770  -0.949   5.167   7.291  0.8766 -0.8117 -0.5311
  953MOL0     H25771  -0.979   5.115   7.466 -2.6760 -1.6552  0.4229
  953MOL0     H25772  -1.115   4.932   7.380 -1.3278 -0.3048 -1.0112
  953MOL0     H25773  -1.083   4.977   7.212 -0.6389  0.0124 -0.5375
  953MOL0     H25774  -1.209   5.199   7.399  3.1153 -0.1449  1.2792
  953MOL0     H25775  -1.178   5.204   7.235 -1.0149  1.0783  1.2714
  953MOL0     H25776  -1.367   5.023   7.209 -2.1025  1.8837 -0.4224
  953MOL0     H25777  -1.423   5.166   7.300 -0.2262  0.0289 -0.4423
  953MOL0     H25778  -0.278   4.952   7.508 -0.7036  3.2641 -2.9113
  953MOL0     H25779  -0.062   4.936   7.572  0.0766 -0.0104  0.2128
  953MOL0     H25780   0.351   4.904   7.318 -0.9143 -0.5582  0.7179
  953MOL0     H25781   0.597   4.878   7.299  0.1508  3.4744  1.2306
  953MOL0     H25782   2.298   4.908   7.312 -0.0234 -2.0939 -1.0688
  953MOL0     H25783   2.448   4.715   7.361 -1.0162  1.1526  1.0323
  953MOL0     H25784   2.640   4.279   7.303  0.6666 -0.2601 -0.8287
  953MOL0     H25785   2.839   4.124   7.324 -0.6532 -0.4109  0.1285
  953MOL0     H25786   3.226   4.302   7.400  2.4642  0.9128 -1.0495
  953MOL0     H25787   3.231   4.236   7.231  1.3632  2.3283  1.4481
  953MOL0     H25788   3.404   4.150   7.393  0.0223 -0.7324 -1.5538
  953MOL0     H25789   3.276   4.056   7.471 -0.8264 -0.0678  0.2352
  953MOL0     H25790   3.209   3.987   7.230 -0.8817  3.5415 -0.2268
  953MOL0     H25791   3.340   3.906   7.305  3.4758  1.0570 -0.5657
  953MOL0     H25792   3.386   3.984   7.053  1.6232  0.8207 -0.6828
  953MOL0     H25793   3.366   4.149   7.101 -0.2199 -1.4072 -0.5078
  953MOL0     H25794   3.755   4.115   7.226  0.8448 -2.7772 -0.7393
  953MOL0     H25795   3.109   4.449   7.287 -0.7888  1.9138 -0.2124
  953MOL0     H25796   2.930   4.605   7.249 -2.5759  1.6150  2.3143
  954MOL0     O25797   3.535   5.448   6.238  0.2320  0.4042 -0.4879
  954MOL0     C25798   3.612   5.508   6.161  0.4999 -0.0448 -0.3677
  954MOL0     O25799   3.570   5.623   6.088  0.2028 -0.5473 -0.0936
  954MOL0     C25800   3.428   5.655   6.084  0.0939  0.4106  0.6242
  954MOL0     C25801   3.348   5.682   6.196 -0.7863  0.2338 -0.0545
  954MOL0     C25802   3.209   5.705   6.188  0.1004 -0.2863  0.0264
  954MOL0     C25803   3.145   5.724   6.061 -0.6070  0.1825 -0.4532
  954MOL0     O25804   3.016   5.761   6.029  0.5963  0.1205 -0.1428
  954MOL0     C25805   2.939   5.795   6.147  0.1369  0.3792 -1.0728
  954MOL0     C25806   2.791   5.839   6.132  0.8299  0.0046  0.2537
  954MOL0     C25807   2.774   5.934   6.019 -0.2344 -0.4952 -0.4452
  954MOL0     C25808   2.619   5.968   6.021 -0.3396 -0.4510 -0.1001
  954MOL0     C25809   2.583   6.052   5.897 -0.4028  0.4404  0.3794
  954MOL0     C25810   2.612   6.205   5.927 -0.8182 -0.2750 -0.2715
  954MOL0     C25811   2.519   6.309   5.859 -0.2077 -0.4345 -0.3642
  954MOL0     C25812   2.395   6.335   5.935 -0.7391  0.1504  0.1819
  954MOL0     N25813   2.329   6.465   5.889  0.1946  0.3351  0.0280
  954MOL0     C25814   2.238   6.487   5.792 -0.1401 -0.1926  0.9876
  954MOL0     C25815   2.207   6.614   5.791  0.3541  0.2850 -0.1914
  954MOL0     C25816   2.116   6.682   5.693 -0.4177 -1.1290 -0.2127
  954MOL0     C25817   1.974   6.686   5.741 -0.2826  0.5105  0.9117
  954MOL0     C25818   1.890   6.782   5.650 -0.8502  0.0917 -0.0199
  954MOL0     C25819   1.742   6.773   5.684  0.1031  0.8475 -1.3576
  954MOL0     O25820   1.708   6.648   5.745  0.6805 -0.4618  0.4385
  954MOL0     C25821   1.575   6.638   5.778 -0.3554  0.6257  0.4556
  954MOL0     C25822   1.472   6.741   5.780 -0.0286 -0.6796 -0.1301
  954MOL0     C25823   1.345   6.712   5.819 -0.2642  0.0608  0.2703
  954MOL0     C25824   1.313   6.577   5.863  0.3484  0.2721  0.1209
  954MOL0     C25825   1.176   6.542   5.904 -0.4134  0.0847  0.5291
  954MOL0     O25826   1.083   6.646   5.921  0.1260  0.2181 -0.1886
  954MOL0     C25827   0.959   6.605   5.976 -0.7149 -0.0300  0.2685
  954MOL0     C25828   0.856   6.555   5.899 -0.0803  0.2007 -0.8594
  954MOL0     C25829   0.730   6.529   5.954 -0.4289 -0.4198 -0.5800
  954MOL0     C25830   0.704   6.551   6.088  0.1222 -0.1990 -0.0520
  954MOL0     O25831   0.576   6.529   6.124  0.3740  0.0564 -0.1254
  954MOL0     C25832   0.538   6.574   6.256 -0.2855  0.2631  0.2427
  954MOL0     C25833   0.386   6.573   6.287  0.1543 -0.1172  0.1813
  954MOL0     C25834   0.324   6.680   6.196 -0.4561  0.0599  0.0462
  954MOL0     C25835   0.170   6.670   6.202  0.5998  0.4133 -0.3895
  954MOL0     C25836   0.103   6.745   6.083  0.5626 -0.2107 -0.4299
  954MOL0     C25837   0.079   6.900   6.121 -0.1192  1.2317  0.7397
  954MOL0     C25838  -0.048   6.958   6.059 -0.1191  0.8049  0.7987
  954MOL0     C25839  -0.068   7.107   6.094  0.1850  0.4317 -0.2447
  954MOL0    Cl25840  -0.098   7.131   6.273 -0.2378  0.2043  0.1528
  954MOL0     C25841   0.808   6.596   6.170 -0.8769 -0.1252  0.0181
  954MOL0     C25842   0.932   6.619   6.117 -0.7095 -0.4833 -0.0582
  954MOL0     O25843   1.152   6.424   5.921 -0.0746  0.2566 -0.1942
  954MOL0     C25844   1.411   6.477   5.862 -0.4334  0.0140  0.2658
  954MOL0     C25845   1.536   6.506   5.815 -0.1895  0.0593  0.2348
  954MOL0     N25846   2.271   6.673   5.898 -0.0719  0.3978  0.2055
  954MOL0     N25847   2.338   6.579   5.959 -0.3261  0.5102 -0.4260
  954MOL0     C25848   3.230   5.695   5.947  0.1035  0.5518 -0.0234
  954MOL0     C25849   3.366   5.654   5.957  0.0020  0.1023  0.6643
  954MOL0     C25850   3.745   5.457   6.145 -0.5532  0.5052  0.8268
  954MOL0     C25851   3.801   5.437   6.016  0.1242  1.1399 -0.9332
  954MOL0     C25852   3.940   5.402   5.994  0.1375 -0.0503  0.3916
  954MOL0     C25853   4.019   5.395   6.106  0.2318  0.3587 -0.6811
  954MOL0     O25854   4.147   5.367   6.095 -0.2801  0.3200 -0.7253
  954MOL0     C25855   4.241   5.353   6.200  0.2297 -0.2446  0.7884
  954MOL0     C25856   4.295   5.483   6.237  0.6962 -0.2614 -0.2282
  954MOL0     C25857   4.384   5.468   6.358 -0.3285 -0.3399 -0.4408
  954MOL0     C25858   4.324   5.412   6.490 -0.1296  0.2279  0.1820
  954MOL0     C25859   4.204   5.478   6.534  0.0114  0.2371  0.5091
  954MOL0     C25860   4.115   5.554   6.571 -0.1358  0.3454 -0.3575
  954MOL0     C25861   3.965   5.406   6.237 -0.2134 -0.3459  0.0281
  954MOL0     C25862   3.825   5.435   6.254  0.2727 -0.2085 -0.1537
  954MOL0     H25863   3.398   5.680   6.292 -1.7556  2.2121  0.5618
  954MOL0     H25864   3.152   5.723   6.279 -3.8825 -1.8133 -1.9399
  954MOL0     H25865   2.990   5.875   6.201 -0.4450 -2.2775  4.0295
  954MOL0     H25866   2.938   5.715   6.222  0.1779 -0.1048 -1.5858
  954MOL0     H25867   2.769   5.901   6.220  1.1132  1.7407 -0.8512
  954MOL0     H25868   2.728   5.749   6.131 -0.3960  0.7976  1.6615
  954MOL0     H25869   2.801   5.892   5.922  1.5471  0.0081 -0.2042
  954MOL0     H25870   2.823   6.031   6.039 -3.0540  0.8455  0.4759
  954MOL0     H25871   2.568   5.871   6.020 -0.5463 -0.3968  1.9431
  954MOL0     H25872   2.596   6.007   6.120  1.4896 -0.6994  0.4502
  954MOL0     H25873   2.476   6.043   5.874 -0.8800  3.5764  0.8642
  954MOL0     H25874   2.641   6.018   5.812 -0.3540  1.8454 -0.1859
  954MOL0     H25875   2.717   6.223   5.905 -1.3269  2.9928 -0.4411
  954MOL0     H25876   2.600   6.216   6.036  3.2799  0.5300  0.2246
  954MOL0     H25877   2.576   6.402   5.863 -0.7786 -0.0557 -0.9296
  954MOL0     H25878   2.501   6.284   5.754 -2.2699 -0.7841  0.0388
  954MOL0     H25879   2.415   6.337   6.042 -2.9810  0.9985  0.6259
  954MOL0     H25880   2.322   6.254   5.932 -1.8504  1.1051  0.7646
  954MOL0     H25881   2.196   6.411   5.726 -1.0778  1.1230  0.0077
  954MOL0     H25882   2.123   6.630   5.598 -0.9024 -2.4044  0.4258
  954MOL0     H25883   2.145   6.787   5.679  0.3075 -1.2722  0.2013
  954MOL0     H25884   1.970   6.715   5.846 -0.7451 -0.1794  1.0893
  954MOL0     H25885   1.937   6.583   5.745 -0.2541  0.5374  2.0991
  954MOL0     H25886   1.926   6.884   5.669 -0.8530 -0.2885  2.3256
  954MOL0     H25887   1.883   6.740   5.549 -3.5506 -3.2426  1.3542
  954MOL0     H25888   1.691   6.785   5.588 -0.5757  1.4879 -0.9288
  954MOL0     H25889   1.714   6.859   5.746  2.2510  1.4971 -1.1936
  954MOL0     H25890   1.494   6.841   5.744  0.8188 -0.1433  1.7221
  954MOL0     H25891   1.282   6.798   5.799 -1.0600 -0.3358  1.0364
  954MOL0     H25892   0.894   6.544   5.798  0.8305 -0.0160 -0.5027
  954MOL0     H25893   0.651   6.492   5.889 -0.8332  0.5974 -0.6762
  954MOL0     H25894   0.583   6.672   6.273 -0.8299  0.9854 -2.1879
  954MOL0     H25895   0.588   6.508   6.328  1.1995 -0.3282 -1.2592
  954MOL0     H25896   0.369   6.604   6.390 -1.4586 -1.5211  0.3829
  954MOL0     H25897   0.330   6.479   6.280 -2.5367  1.4298 -0.1168
  954MOL0     H25898   0.363   6.665   6.095  0.4395  0.4132  0.3358
  954MOL0     H25899   0.353   6.778   6.234  0.9410 -0.8599  1.4775
  954MOL0     H25900   0.138   6.565   6.198 -0.9904  0.9246 -2.0354
  954MOL0     H25901   0.125   6.699   6.298 -0.3286  0.2807 -0.7681
  954MOL0     H25902   0.016   6.686   6.054 -0.9066 -0.0447  3.0808
  954MOL0     H25903   0.172   6.725   6.001  1.8613 -0.5084  0.6972
  954MOL0     H25904   0.163   6.948   6.070  1.7415  0.0659  2.5818
  954MOL0     H25905   0.093   6.912   6.229 -1.2569  0.6912  0.9663
  954MOL0     H25906  -0.048   6.951   5.950  2.7577  0.7374  0.7193
  954MOL0     H25907  -0.128   6.901   6.107  0.0135  0.0657  0.1701
  954MOL0     H25908  -0.149   7.148   6.034  0.5415  0.3378 -0.7933
  954MOL0     H25909   0.029   7.153   6.072  1.4503 -0.5232  2.7680
  954MOL0     H25910   0.793   6.612   6.277  1.0627 -0.4817  0.3806
  954MOL0     H25911   1.017   6.638   6.181 -1.5850  0.5392  0.8418
  954MOL0     H25912   1.384   6.382   5.906  0.1919 -1.5633 -2.5388
  954MOL0     H25913   1.617   6.433   5.814 -1.1699 -1.0655 -0.0016
  954MOL0     H25914   3.183   5.691   5.849 -0.5602  0.4798  0.2933
  954MOL0     H25915   3.406   5.619   5.863 -1.4155 -1.4667  0.6068
  954MOL0     H25916   3.735   5.433   5.930 -3.3920 -0.1696  1.5606
  954MOL0     H25917   3.977   5.386   5.893 -1.6408 -0.9418 -0.1636
  954MOL0     H25918   4.313   5.288   6.149 -2.4120 -2.7842 -0.0270
  954MOL0     H25919   4.198   5.303   6.287 -3.9706  0.0073 -0.9278
  954MOL0     H25920   4.359   5.525   6.160  0.2634  1.1022  0.1188
  954MOL0     H25921   4.209   5.545   6.265  0.7554  0.2681 -1.1979
  954MOL0     H25922   4.437   5.558   6.390 -0.1387 -1.1603  1.7780
  954MOL0     H25923   4.468   5.406   6.324  0.5211  0.4239  0.1903
  954MOL0     H25924   4.306   5.306   6.469  1.3305  0.3780 -2.1677
  954MOL0     H25925   4.399   5.426   6.569 -0.9437  0.3885  0.9524
  954MOL0     H25926   4.039   5.625   6.599 -0.7637 -0.3069 -0.3856
  954MOL0     H25927   4.020   5.374   6.325  1.5505  2.0722 -0.0951
  954MOL0     H25928   3.789   5.445   6.356  1.0978  0.9146  0.0432
  955MOL0     O25929   0.392   6.464   5.432 -0.2061 -0.0016 -0.4357
  955MOL0     C25930   0.481   6.484   5.517 -0.2810  0.3639 -0.2106
  955MOL0     O25931   0.466   6.523   5.647  0.4562  0.4063 -0.2643
  955MOL0     C25932   0.339   6.541   5.686 -0.0789 -0.5204  0.0793
  955MOL0     C25933   0.269   6.665   5.671 -0.3330 -0.1806  0.1039
  955MOL0     C25934   0.129   6.677   5.681  1.2246 -0.4183 -1.2308
  955MOL0     C25935   0.062   6.571   5.745  0.4976 -0.3378  0.3988
  955MOL0     O25936  -0.067   6.581   5.787 -0.2449 -0.4269 -0.0391
  955MOL0     C25937  -0.133   6.707   5.761  0.6195 -0.9401 -0.1321
  955MOL0     C25938  -0.276   6.707   5.835 -0.7481  0.4913 -0.2893
  955MOL0     C25939  -0.358   6.841   5.802  0.1653 -0.1410 -0.0396
  955MOL0     C25940  -0.505   6.820   5.815  0.4166  0.3130  0.8152
  955MOL0     C25941  -0.581   6.951   5.836  0.6482  0.5488  0.8289
  955MOL0     C25942  -0.733   6.936   5.809 -0.0925 -0.0119 -0.4165
  955MOL0     C25943  -0.822   7.059   5.825 -0.5905 -0.1612  0.7637
  955MOL0     C25944  -0.971   7.037   5.795 -0.2848 -0.6984 -0.1772
  955MOL0     N25945  -1.038   7.170   5.798 -0.1012 -0.9539 -0.9839
  955MOL0     C25946  -1.054   7.255   5.692  1.1657 -0.5492 -0.2017
  955MOL0     C25947  -1.129   7.351   5.744 -0.1948  1.0872 -0.0567
  955MOL0     C25948  -1.188   7.454   5.656 -0.0346 -0.5415  0.1381
  955MOL0     C25949  -1.284   7.392   5.558  0.0221  0.2096 -0.0271
  955MOL0     C25950  -1.419   7.383   5.622  0.1714  0.3704  0.7910
  955MOL0     C25951  -1.494   7.505   5.626  0.0935 -0.4702 -0.0795
  955MOL0     O25952  -1.618   7.485   5.702  0.1679  0.4150  0.0476
  955MOL0     C25953  -1.706   7.584   5.710 -0.7440  0.9145  0.2848
  955MOL0     C25954  -1.784   7.634   5.597 -1.0065  0.4288  0.4539
  955MOL0     C25955  -1.871   7.736   5.610  0.0613  0.3853 -1.2299
  955MOL0     C25956  -1.894   7.802   5.733 -0.0040 -1.2140 -0.0743
  955MOL0     C25957  -2.004   7.897   5.762 -0.7261 -0.2514 -0.5463
  955MOL0     O25958  -2.024   7.933   5.889 -0.3037 -0.3266 -0.5252
  955MOL0     C25959  -2.128   8.021   5.913 -0.1293 -0.4628  0.1230
  955MOL0     C25960  -2.134   8.151   5.858 -0.0999 -0.0742 -0.1364
  955MOL0     C25961  -2.242   8.238   5.877 -0.3315  0.7246  0.0721
  955MOL0     C25962  -2.347   8.188   5.961  0.1267  0.3863 -0.1218
  955MOL0     O25963  -2.464   8.260   5.952 -0.2045 -0.0480 -0.3200
  955MOL0     C25964  -2.586   8.195   5.990 -1.0334  0.1220  0.0794
  955MOL0     C25965  -2.703   8.286   5.942 -0.0013  0.3131  0.6875
  955MOL0     C25966  -2.701   8.414   6.013  0.5186 -0.9790 -0.2801
  955MOL0     C25967  -2.799   8.518   5.954 -0.4554  0.0613  0.1747
  955MOL0     C25968  -2.941   8.465   5.949  0.0186  0.2719 -0.7324
  955MOL0     C25969  -3.006   8.447   6.100  0.1746  0.6004  0.7041
  955MOL0     C25970  -3.151   8.397   6.099 -0.0161  0.4462 -0.3729
  955MOL0     C25971  -3.167   8.259   6.050  0.1896 -0.3368 -0.0353
  955MOL0    Cl25972  -3.338   8.215   6.018  0.0000  0.3257 -0.1031
  955MOL0     C25973  -2.338   8.060   6.029  0.9577  0.2146  0.6277
  955MOL0     C25974  -2.235   7.970   6.001 -0.5919 -0.2754 -0.2621
  955MOL0     O25975  -2.060   7.935   5.659 -0.2135  0.3514  0.1247
  955MOL0     C25976  -1.805   7.766   5.840 -0.4940 -0.0708  0.7348
  955MOL0     C25977  -1.718   7.656   5.830 -0.2623  0.5689  0.2957
  955MOL0     N25978  -1.156   7.323   5.886 -0.4867  0.0786  0.0631
  955MOL0     N25979  -1.105   7.212   5.910 -0.9077  0.6239  0.5211
  955MOL0     C25980   0.131   6.448   5.761  0.3159 -0.5290  0.3427
  955MOL0     C25981   0.264   6.436   5.740 -0.9262  0.4173 -0.3539
  955MOL0     C25982   0.619   6.473   5.459  0.0796  0.6710  0.0693
  955MOL0     C25983   0.727   6.533   5.524 -0.3107 -0.0067  0.0591
  955MOL0     C25984   0.859   6.524   5.472 -0.4124  0.3973  0.1052
  955MOL0     C25985   0.876   6.448   5.353 -0.3076 -0.0135  0.1025
  955MOL0     O25986   1.009   6.444   5.307  0.1333  0.5617 -1.0053
  955MOL0     C25987   1.039   6.393   5.171  0.1280  0.6878 -0.5262
  955MOL0     C25988   1.043   6.493   5.062  0.1194 -0.4696  0.8220
  955MOL0     C25989   1.082   6.440   4.920  0.5640  0.5924  0.4189
  955MOL0     C25990   1.083   6.551   4.811 -0.6162 -0.1328  0.7665
  955MOL0     C25991   1.185   6.642   4.852 -0.1572  0.3331  1.0895
  955MOL0     C25992   1.278   6.717   4.872 -0.6198 -0.2768 -0.6434
  955MOL0     C25993   0.765   6.398   5.286  0.8862 -0.1069 -0.1898
  955MOL0     C25994   0.634   6.411   5.336 -0.8850 -0.0600  0.6030
  955MOL0     H25995   0.334   6.741   5.629  1.5445 -2.9456 -2.5284
  955MOL0     H25996   0.083   6.768   5.646 -1.0320 -0.3754  1.4469
  955MOL0     H25997  -0.145   6.738   5.657 -1.8249  3.7768  1.2460
  955MOL0     H25998  -0.075   6.791   5.800 -1.9500  0.6661  0.4690
  955MOL0     H25999  -0.262   6.700   5.943 -2.4074 -2.2223 -0.1688
  955MOL0     H26000  -0.322   6.612   5.806  2.2891 -1.1066 -0.2786
  955MOL0     H26001  -0.338   6.870   5.699 -3.0314 -1.6365 -1.2027
  955MOL0     H26002  -0.315   6.923   5.861  1.0537 -0.4299 -0.2651
  955MOL0     H26003  -0.538   6.781   5.718  2.2944 -0.2621  0.3597
  955MOL0     H26004  -0.534   6.748   5.891 -2.0812 -0.4836 -0.7707
  955MOL0     H26005  -0.535   7.027   5.772  0.6168 -0.3103 -0.2473
  955MOL0     H26006  -0.567   6.981   5.940 -0.7520  1.6395  0.7309
  955MOL0     H26007  -0.774   6.860   5.876  0.6659  2.0809  2.6171
  955MOL0     H26008  -0.740   6.895   5.708  1.6339  0.2418 -0.6673
  955MOL0     H26009  -0.808   7.099   5.925  0.7925  2.0354 -0.2337
  955MOL0     H26010  -0.794   7.142   5.759 -2.4714  0.5296  0.7889
  955MOL0     H26011  -1.009   6.962   5.866 -1.3553  1.5884  1.8017
  955MOL0     H26012  -1.008   6.991   5.703 -1.6070 -0.2455  0.1073
  955MOL0     H26013  -1.020   7.241   5.590 -2.5702 -0.4249 -1.6378
  955MOL0     H26014  -1.109   7.499   5.596  0.6825 -1.9871 -0.0438
  955MOL0     H26015  -1.234   7.530   5.719 -0.0443 -2.0068  2.0237
  955MOL0     H26016  -1.245   7.300   5.514  1.5931  1.9229 -2.4177
  955MOL0     H26017  -1.292   7.465   5.477 -2.0792  1.5630  1.2877
  955MOL0     H26018  -1.471   7.308   5.562  1.2870 -0.6549  1.0699
  955MOL0     H26019  -1.411   7.336   5.720 -3.7760 -0.1083  1.0771
  955MOL0     H26020  -1.536   7.545   5.533  0.0910  1.4353  0.6804
  955MOL0     H26021  -1.439   7.589   5.672 -1.2746  0.8531 -0.7720
  955MOL0     H26022  -1.779   7.584   5.500 -3.0493 -0.7218  0.8783
  955MOL0     H26023  -1.916   7.767   5.516 -0.2176  1.9133 -0.6355
  955MOL0     H26024  -2.059   8.192   5.791  0.6853  1.4429  1.5932
  955MOL0     H26025  -2.252   8.339   5.839  2.3231  0.6052 -1.2282
  955MOL0     H26026  -2.590   8.181   6.099  0.1970  0.5046  0.1915
  955MOL0     H26027  -2.600   8.091   5.958  0.9705 -0.6115  1.4035
  955MOL0     H26028  -2.793   8.225   5.953  2.5010 -3.8453  0.3039
  955MOL0     H26029  -2.690   8.310   5.836 -0.2240 -0.6892  0.4295
  955MOL0     H26030  -2.603   8.460   6.001  0.1952 -0.4675 -1.0368
  955MOL0     H26031  -2.720   8.391   6.118 -3.6823 -0.1388 -0.6691
  955MOL0     H26032  -2.791   8.610   6.012 -0.1290  0.6572 -0.7921
  955MOL0     H26033  -2.759   8.540   5.855  1.2027 -1.0043  0.5613
  955MOL0     H26034  -2.940   8.370   5.895  2.4221 -0.4271  0.3859
  955MOL0     H26035  -3.012   8.529   5.896 -1.1663 -1.1696 -0.9398
  955MOL0     H26036  -3.003   8.546   6.146 -0.6340  0.1459  1.7740
  955MOL0     H26037  -2.942   8.379   6.157 -1.3434 -1.0876  0.4863
  955MOL0     H26038  -3.183   8.408   6.203  1.8915  3.3354  0.0348
  955MOL0     H26039  -3.207   8.472   6.042 -1.4958  2.3563  3.2326
  955MOL0     H26040  -3.125   8.196   6.130 -0.1634 -1.1000 -0.4364
  955MOL0     H26041  -3.109   8.240   5.959 -0.5319 -4.4290  0.1307
  955MOL0     H26042  -2.415   8.023   6.096 -0.3160  2.2370  0.3532
  955MOL0     H26043  -2.238   7.868   6.038 -0.1456 -0.4041 -0.5698
  955MOL0     H26044  -1.813   7.822   5.932 -0.7531 -1.5714  1.6590
  955MOL0     H26045  -1.660   7.621   5.915 -0.3049  0.9453  0.4803
  955MOL0     H26046   0.083   6.355   5.787  0.6078 -1.0254 -0.8124
  955MOL0     H26047   0.305   6.338   5.762  1.3423  1.2942 -0.3262
  955MOL0     H26048   0.698   6.594   5.609 -2.3270 -0.3603 -0.3202
  955MOL0     H26049   0.934   6.580   5.528 -1.3948  2.9183 -0.9688
  955MOL0     H26050   0.962   6.321   5.142 -1.3670  2.1371 -0.3300
  955MOL0     H26051   1.133   6.339   5.183  0.3039  0.5536 -2.2398
  955MOL0     H26052   0.946   6.542   5.054 -1.0646 -2.4973  1.8895
  955MOL0     H26053   1.125   6.563   5.082  2.7527 -3.2760  0.5304
  955MOL0     H26054   1.028   6.347   4.896 -0.4273  1.5469 -1.1661
  955MOL0     H26055   1.180   6.393   4.928  0.0235 -0.6821 -0.1143
  955MOL0     H26056   1.109   6.507   4.714 -1.4826 -1.0106  0.9122
  955MOL0     H26057   0.986   6.592   4.779 -1.1076 -1.5651  0.3522
  955MOL0     H26058   1.356   6.781   4.906 -1.0753  0.9272 -1.8143
  955MOL0     H26059   0.777   6.352   5.189  1.8048  0.0110 -0.1362
  955MOL0     H26060   0.550   6.363   5.285  0.9411 -2.4028 -0.3619
  956MOL0     O26061   1.414   7.651   4.018  0.1212  0.4170 -0.2940
  956MOL0     C26062   1.521   7.587   4.023 -0.1471  0.6449  0.7688
  956MOL0     O26063   1.547   7.466   4.081  0.6175 -0.0171 -0.0902
  956MOL0     C26064   1.449   7.408   4.152 -0.6590 -0.2050 -0.5915
  956MOL0     C26065   1.326   7.379   4.096 -0.4752  0.5009  0.6621
  956MOL0     C26066   1.222   7.347   4.179  0.3412  0.3171 -0.5093
  956MOL0     C26067   1.241   7.337   4.323  0.6846  0.6601 -0.1711
  956MOL0     O26068   1.139   7.319   4.414  0.1863 -0.1769 -0.4988
  956MOL0     C26069   1.032   7.232   4.363  1.4111  0.2632 -0.4235
  956MOL0     C26070   0.970   7.170   4.490  0.2671 -0.1957 -0.2156
  956MOL0     C26071   0.897   7.267   4.581  0.2122 -0.6478  0.2117
  956MOL0     C26072   0.860   7.206   4.718  0.5092  0.1070  0.1176
  956MOL0     C26073   0.735   7.122   4.706 -0.0106 -0.3819 -0.2097
  956MOL0     C26074   0.706   7.051   4.835 -0.0665  0.1071  0.0978
  956MOL0     C26075   0.580   6.970   4.822  0.1488  0.1076  0.6113
  956MOL0     C26076   0.448   7.042   4.858 -0.9383  0.3247  0.3765
  956MOL0     N26077   0.334   6.946   4.859  0.5660 -0.8085  0.8306
  956MOL0     C26078   0.270   6.880   4.958  0.8679 -0.2605 -0.0065
  956MOL0     C26079   0.149   6.848   4.901 -0.4281 -0.1149  0.9015
  956MOL0     C26080   0.036   6.773   4.962  0.5190  0.5320  0.5054
  956MOL0     C26081  -0.048   6.871   5.048  0.9013  0.1090 -0.7352
  956MOL0     C26082  -0.125   6.778   5.149 -0.0065  1.0756 -1.1016
  956MOL0     C26083  -0.225   6.849   5.247  0.1558  0.2913 -0.8443
  956MOL0     O26084  -0.318   6.930   5.171  0.0334 -0.3176 -0.0734
  956MOL0     C26085  -0.427   6.993   5.226 -0.3604 -0.2628  0.4828
  956MOL0     C26086  -0.509   7.051   5.143 -0.5721 -0.3157  2.0270
  956MOL0     C26087  -0.622   7.115   5.185 -0.4227 -0.2307  0.2632
  956MOL0     C26088  -0.653   7.127   5.322 -0.2599  0.1295  0.0515
  956MOL0     C26089  -0.769   7.204   5.374  0.0062 -0.5898 -0.2719
  956MOL0     O26090  -0.836   7.274   5.277  0.6370 -0.3226 -0.0090
  956MOL0     C26091  -0.901   7.389   5.296  1.0583  0.2554  1.6117
  956MOL0     C26092  -0.850   7.499   5.367  0.9872  0.3545 -0.7053
  956MOL0     C26093  -0.924   7.618   5.368 -0.0317 -0.1561 -0.1941
  956MOL0     C26094  -1.049   7.631   5.311  0.2345 -0.1634  0.1054
  956MOL0     O26095  -1.115   7.750   5.298  0.0972  0.1104 -0.3525
  956MOL0     C26096  -1.147   7.822   5.424  0.4339 -0.7502 -0.2509
  956MOL0     C26097  -1.107   7.966   5.404 -0.1841 -0.0421  0.1217
  956MOL0     C26098  -0.958   7.986   5.382 -0.2638  0.3960  0.9116
  956MOL0     C26099  -0.928   8.121   5.307 -0.5624  0.2837 -0.7203
  956MOL0     C26100  -0.787   8.124   5.243  0.2797  0.1822 -0.0934
  956MOL0     C26101  -0.678   8.149   5.355  0.1538 -0.1826 -0.0987
  956MOL0     C26102  -0.555   8.214   5.293  0.0559  0.2408  0.7066
  956MOL0     C26103  -0.440   8.226   5.387  0.1736  0.6799 -0.1131
  956MOL0    Cl26104  -0.397   8.066   5.440 -0.5000 -0.1464  0.2073
  956MOL0     C26105  -1.105   7.521   5.243  0.3226 -0.9108 -0.6218
  956MOL0     C26106  -1.027   7.400   5.236  0.2015 -0.5075  0.0706
  956MOL0     O26107  -0.790   7.223   5.496 -0.4019 -0.1563 -0.1327
  956MOL0     C26108  -0.571   7.069   5.410  0.2477  0.4294  0.2649
  956MOL0     C26109  -0.452   7.003   5.366  0.7799  0.5037  0.2449
  956MOL0     N26110   0.142   6.894   4.769  0.4939 -0.2062  0.3337
  956MOL0     N26111   0.251   6.950   4.747 -0.5357 -0.1351  0.0525
  956MOL0     C26112   1.372   7.351   4.378  0.5664 -0.3161  0.7668
  956MOL0     C26113   1.468   7.387   4.291 -0.8509  0.0349  0.6854
  956MOL0     C26114   1.632   7.663   3.958 -0.1575 -0.2315 -0.2423
  956MOL0     C26115   1.612   7.782   3.887  0.4117  0.3013 -0.3630
  956MOL0     C26116   1.726   7.845   3.822  0.5417  0.0785  0.3843
  956MOL0     C26117   1.853   7.796   3.839  0.0931 -0.3924 -0.0011
  956MOL0     O26118   1.970   7.859   3.789  1.1114 -0.4668 -0.0608
  956MOL0     C26119   1.964   7.972   3.692 -0.2809  0.5702 -0.2911
  956MOL0     C26120   2.092   7.991   3.607 -0.4449  0.7136  0.4013
  956MOL0     C26121   2.194   8.067   3.685  0.3447  0.9093 -0.6556
  956MOL0     C26122   2.284   7.962   3.773 -0.1124  0.6914 -0.6122
  956MOL0     C26123   2.430   7.972   3.766  0.2831 -0.8044 -0.3359
  956MOL0     C26124   2.547   7.979   3.763 -0.3594 -0.4660  0.0787
  956MOL0     C26125   1.868   7.678   3.916  0.4837  0.2172  0.1830
  956MOL0     C26126   1.758   7.615   3.973 -0.0083 -0.5186  0.7919
  956MOL0     H26127   1.307   7.378   3.989  0.2997 -0.2675  0.5265
  956MOL0     H26128   1.128   7.337   4.126  1.1841  2.9744 -2.7383
  956MOL0     H26129   1.089   7.159   4.305  1.1792 -1.3726  1.3142
  956MOL0     H26130   0.959   7.288   4.304  1.1418  0.3181 -0.0475
  956MOL0     H26131   1.055   7.125   4.542  0.9191  1.9592  0.6649
  956MOL0     H26132   0.899   7.093   4.459  0.7429 -0.4813 -0.6257
  956MOL0     H26133   0.808   7.314   4.538 -0.9067  0.0435  3.0622
  956MOL0     H26134   0.954   7.358   4.601 -2.4922  0.7504  2.4428
  956MOL0     H26135   0.939   7.141   4.755  1.1238  0.9300  0.2892
  956MOL0     H26136   0.838   7.288   4.787 -1.6906 -0.0881 -0.2950
  956MOL0     H26137   0.754   7.048   4.628  1.3347 -0.7858  0.4724
  956MOL0     H26138   0.648   7.179   4.672  1.1988  2.3791  1.0077
  956MOL0     H26139   0.698   7.120   4.919 -2.6861  2.5384 -1.9232
  956MOL0     H26140   0.779   6.973   4.857 -0.0675 -0.6070 -2.1201
  956MOL0     H26141   0.572   6.928   4.722  1.5057  1.1156  0.0538
  956MOL0     H26142   0.592   6.890   4.896 -0.8509 -0.8212 -0.1879
  956MOL0     H26143   0.438   7.122   4.784  0.4777  1.1086  0.9697
  956MOL0     H26144   0.458   7.083   4.959  0.0907 -1.3676  1.0044
  956MOL0     H26145   0.292   6.856   5.061 -2.6604 -0.2085  0.8751
  956MOL0     H26146   0.078   6.698   5.030 -1.0575 -0.6938  0.1930
  956MOL0     H26147  -0.023   6.728   4.881  1.0623  0.2830  0.2443
  956MOL0     H26148  -0.119   6.928   4.987  2.1854  2.1062 -0.4392
  956MOL0     H26149   0.017   6.935   5.108 -1.2392  0.9481  0.8202
  956MOL0     H26150  -0.175   6.697   5.095 -0.4482  1.5606 -1.4343
  956MOL0     H26151  -0.057   6.735   5.223 -3.6166  0.0273  1.9473
  956MOL0     H26152  -0.174   6.906   5.325 -1.8490  1.4399 -0.2777
  956MOL0     H26153  -0.275   6.772   5.307  1.3254  0.1274 -0.0411
  956MOL0     H26154  -0.503   7.049   5.035 -4.2212 -2.8256  1.6829
  956MOL0     H26155  -0.688   7.158   5.111  3.7286  2.0112 -2.5886
  956MOL0     H26156  -0.755   7.491   5.418  0.4233 -0.7384  0.2255
  956MOL0     H26157  -0.882   7.703   5.421  0.4606 -0.2964 -0.3500
  956MOL0     H26158  -1.104   7.785   5.517 -1.3350 -2.0489  0.1099
  956MOL0     H26159  -1.254   7.813   5.446  0.4141  3.0629  1.9319
  956MOL0     H26160  -1.140   8.032   5.485  0.9104 -0.0583  0.6065
  956MOL0     H26161  -1.159   7.991   5.311 -2.4982  0.1631  1.3906
  956MOL0     H26162  -0.918   7.906   5.320  0.6248  0.4938  1.3290
  956MOL0     H26163  -0.906   7.975   5.478  0.1044 -0.6637  0.6016
  956MOL0     H26164  -0.998   8.140   5.225 -1.2680  2.6386  0.3382
  956MOL0     H26165  -0.948   8.203   5.377  0.4151  0.9569 -1.2054
  956MOL0     H26166  -0.783   8.207   5.172  0.1494 -0.1768 -0.5275
  956MOL0     H26167  -0.762   8.039   5.178 -0.5703 -0.3285  0.2290
  956MOL0     H26168  -0.662   8.058   5.414 -0.5104 -0.1446  0.1578
  956MOL0     H26169  -0.711   8.226   5.425  1.4189  0.2735  0.0178
  956MOL0     H26170  -0.528   8.148   5.209  2.0387  1.2747  0.4753
  956MOL0     H26171  -0.586   8.309   5.250 -0.3524 -0.0646  0.3045
  956MOL0     H26172  -0.460   8.289   5.474 -3.3096 -0.8272  0.3678
  956MOL0     H26173  -0.358   8.275   5.334 -0.3575  1.1168 -0.5389
  956MOL0     H26174  -1.203   7.529   5.197  0.2259 -1.9987 -0.6210
  956MOL0     H26175  -1.069   7.317   5.180  0.2205 -1.3015  1.2035
  956MOL0     H26176  -0.591   7.063   5.517 -0.6526 -2.0500  0.0400
  956MOL0     H26177  -0.397   6.938   5.433 -3.2819 -3.2787  0.3380
  956MOL0     H26178   1.394   7.360   4.483  1.6694  0.5567  0.4789
  956MOL0     H26179   1.566   7.408   4.334  0.2830 -0.6716 -1.4086
  956MOL0     H26180   1.514   7.822   3.865  1.0372  0.7479 -2.5571
  956MOL0     H26181   1.709   7.939   3.770  0.1344  0.5511  1.3522
  956MOL0     H26182   1.939   8.062   3.750 -1.2862 -0.0581  0.2764
  956MOL0     H26183   1.878   7.958   3.626 -0.0529  1.2905 -0.7542
  956MOL0     H26184   2.133   7.902   3.558 -1.5976  1.1854 -1.5260
  956MOL0     H26185   2.063   8.065   3.532 -1.0104  0.5118  0.4155
  956MOL0     H26186   2.145   8.139   3.751 -0.8935 -0.7635  0.3452
  956MOL0     H26187   2.257   8.127   3.618  0.9976 -0.5044 -1.3621
  956MOL0     H26188   2.256   7.966   3.878  0.3629  1.0130 -0.4989
  956MOL0     H26189   2.256   7.862   3.737  1.6281 -0.3084  0.7071
  956MOL0     H26190   2.654   7.974   3.766 -0.3680 -2.8885 -0.9945
  956MOL0     H26191   1.966   7.632   3.926  0.3879  0.5028  3.1775
  956MOL0     H26192   1.772   7.518   4.019 -1.0832  0.1302  2.6083
  957MOL0     O26193   2.025   2.415   6.175 -0.4161  0.0786 -0.1232
  957MOL0     C26194   2.040   2.301   6.142  0.2309  0.5559 -0.0341
  957MOL0     O26195   1.944   2.227   6.076 -0.1085  0.4136  0.4831
  957MOL0     C26196   1.826   2.278   6.028  0.4649 -0.6094 -0.9624
  957MOL0     C26197   1.731   2.182   6.013 -0.3463  0.0135 -0.6812
  957MOL0     C26198   1.597   2.205   5.990 -0.0188  0.2154  0.8726
  957MOL0     C26199   1.549   2.330   5.977  0.5553  0.2957 -0.2837
  957MOL0     O26200   1.411   2.344   5.947  0.2724 -0.6475  0.5192
  957MOL0     C26201   1.371   2.480   5.939 -0.3164 -0.1325 -0.9334
  957MOL0     C26202   1.217   2.486   5.964  0.2603 -0.7950 -0.5573
  957MOL0     C26203   1.136   2.383   5.884  0.4436  0.2689 -0.1902
  957MOL0     C26204   0.987   2.379   5.928  0.5501 -0.2146  0.5102
  957MOL0     C26205   0.904   2.267   5.864  0.2629  0.7338 -0.0261
  957MOL0     C26206   0.757   2.250   5.898  0.6049  0.4111 -0.5178
  957MOL0     C26207   0.724   2.224   6.047 -0.7116  0.2811  0.4901
  957MOL0     C26208   0.571   2.200   6.056  0.6289  0.0261 -0.5777
  957MOL0     N26209   0.505   2.098   5.967  0.3577 -0.0567 -0.2497
  957MOL0     C26210   0.422   2.110   5.860 -0.1542 -0.1641  0.2421
  957MOL0     C26211   0.415   1.985   5.813  0.3464 -0.3065 -0.1347
  957MOL0     C26212   0.347   1.944   5.689 -0.4628  0.4015 -0.2040
  957MOL0     C26213   0.277   1.807   5.690 -0.5509  0.9402  0.4305
  957MOL0     C26214   0.214   1.779   5.551  0.0722  0.4712 -0.1389
  957MOL0     C26215   0.118   1.657   5.549  0.2845  0.4803  0.5216
  957MOL0     O26216   0.010   1.684   5.642  0.0758 -1.1359  0.1321
  957MOL0     C26217  -0.093   1.591   5.649 -0.5609  0.2789  0.2508
  957MOL0     C26218  -0.210   1.635   5.707 -0.5463  0.8021 -0.3458
  957MOL0     C26219  -0.321   1.557   5.707 -0.3587  1.2412  0.5181
  957MOL0     C26220  -0.318   1.420   5.652 -0.1699 -0.5816 -0.7616
  957MOL0     C26221  -0.444   1.351   5.650 -0.1600 -0.0603 -0.3492
  957MOL0     O26222  -0.554   1.410   5.715  0.0827  0.4772 -1.1214
  957MOL0     C26223  -0.675   1.350   5.713  0.5011 -0.4721 -0.2167
  957MOL0     C26224  -0.696   1.233   5.775 -0.4556 -0.4095 -1.2812
  957MOL0     C26225  -0.822   1.173   5.779  0.8114  0.0263  0.2515
  957MOL0     C26226  -0.936   1.235   5.718  0.8126  0.8104 -0.0545
  957MOL0     O26227  -1.064   1.183   5.721 -0.1019  0.6498  0.0350
  957MOL0     C26228  -1.083   1.064   5.802  0.6803  0.8279 -0.6270
  957MOL0     C26229  -1.234   1.031   5.803 -0.5722 -0.0099  0.5797
  957MOL0     C26230  -1.258   0.891   5.852 -1.7177  0.1398  0.0892
  957MOL0     C26231  -1.410   0.856   5.847 -0.8329  0.6319 -0.1778
  957MOL0     C26232  -1.445   0.724   5.908  0.6187  0.4218 -0.2582
  957MOL0     C26233  -1.599   0.698   5.907 -0.9365  0.0770 -0.4959
  957MOL0     C26234  -1.619   0.545   5.950  0.5854 -0.0317 -0.3932
  957MOL0     C26235  -1.626   0.516   6.105  0.0878 -0.6672 -0.2735
  957MOL0    Cl26236  -1.756   0.592   6.190 -0.1879 -0.2221 -0.3218
  957MOL0     C26237  -0.916   1.361   5.654  0.3636  0.6447  1.1670
  957MOL0     C26238  -0.784   1.411   5.648 -0.0068  0.2356  0.6211
  957MOL0     O26239  -0.442   1.242   5.592 -0.8113  0.0801  0.4300
  957MOL0     C26240  -0.194   1.367   5.603  0.3662 -0.7182  0.0212
  957MOL0     C26241  -0.086   1.458   5.595 -0.0477 -0.1322 -0.2355
  957MOL0     N26242   0.491   1.900   5.890  0.2132 -0.7943  0.4120
  957MOL0     N26243   0.554   1.971   5.969 -0.2973  0.0118  0.3156
  957MOL0     C26244   1.650   2.430   5.965  0.2837  0.1372 -0.6508
  957MOL0     C26245   1.787   2.408   6.001 -0.0618  0.1321 -0.1024
  957MOL0     C26246   2.170   2.240   6.178  0.3183  0.2590 -0.1235
  957MOL0     C26247   2.271   2.313   6.244  0.7825  0.2675 -0.0014
  957MOL0     C26248   2.392   2.256   6.287  0.4634  1.0119  0.1206
  957MOL0     C26249   2.412   2.118   6.261 -0.1712  0.1080  0.2216
  957MOL0     O26250   2.532   2.055   6.283  0.3839 -0.4306 -0.4140
  957MOL0     C26251   2.650   2.133   6.303  0.8478 -0.4643 -0.0044
  957MOL0     C26252   2.778   2.050   6.324  0.1925  1.0679  0.6452
  957MOL0     C26253   2.828   1.991   6.189 -0.2560  0.2985 -0.5112
  957MOL0     C26254   2.971   1.955   6.192  0.8042  0.2682  0.3688
  957MOL0     C26255   3.036   1.965   6.067 -0.5479 -0.6074  0.2794
  957MOL0     C26256   3.090   1.987   5.964 -0.7160  0.0974  0.9188
  957MOL0     C26257   2.308   2.044   6.198 -0.1054  0.4376 -0.8528
  957MOL0     C26258   2.193   2.105   6.156  0.1485 -0.3203  0.8462
  957MOL0     H26259   1.778   2.085   6.025  0.2444  0.5634  2.4393
  957MOL0     H26260   1.531   2.119   5.984 -1.6082  1.4128  0.5668
  957MOL0     H26261   1.387   2.512   5.836 -1.2865 -3.8613 -2.4029
  957MOL0     H26262   1.414   2.546   6.015 -0.2920 -0.7994 -0.3542
  957MOL0     H26263   1.181   2.588   5.948  2.4782  0.3109  1.0250
  957MOL0     H26264   1.203   2.473   6.072  1.4430  0.3178 -0.2435
  957MOL0     H26265   1.172   2.280   5.890 -1.2027 -0.2845  0.7969
  957MOL0     H26266   1.150   2.404   5.778  4.3466  1.0662  0.3445
  957MOL0     H26267   0.983   2.371   6.037  1.0760  0.1292  0.5593
  957MOL0     H26268   0.930   2.468   5.900  0.7599 -0.1525  0.2812
  957MOL0     H26269   0.942   2.171   5.901  0.3381  0.1922 -1.4327
  957MOL0     H26270   0.930   2.267   5.758  2.1587 -2.8851  0.2732
  957MOL0     H26271   0.710   2.165   5.846 -0.3246  0.9037 -0.5066
  957MOL0     H26272   0.711   2.346   5.874 -3.3633 -0.8747  1.1291
  957MOL0     H26273   0.782   2.135   6.074 -1.1511 -0.2725 -0.3043
  957MOL0     H26274   0.760   2.308   6.106 -1.7686  0.7065  0.5568
  957MOL0     H26275   0.514   2.288   6.025  1.9196  1.3266  0.6063
  957MOL0     H26276   0.549   2.182   6.162 -1.9332  0.8358 -0.8811
  957MOL0     H26277   0.383   2.203   5.820 -1.2466 -0.7744 -0.1532
  957MOL0     H26278   0.421   1.945   5.609  0.0479 -0.4042  0.2449
  957MOL0     H26279   0.279   2.025   5.664 -0.1629  0.2871 -1.4545
  957MOL0     H26280   0.196   1.807   5.764  0.3965  3.2929  1.6126
  957MOL0     H26281   0.341   1.723   5.717 -3.0265 -0.7297  1.5155
  957MOL0     H26282   0.165   1.869   5.514 -0.3186  0.0156 -0.7540
  957MOL0     H26283   0.300   1.767   5.483  0.1156 -2.0296  0.2497
  957MOL0     H26284   0.173   1.570   5.585 -0.6853 -0.5698 -0.4755
  957MOL0     H26285   0.078   1.632   5.450 -0.3950 -2.0294  1.3692
  957MOL0     H26286  -0.219   1.732   5.755 -0.0690 -0.4677  2.4743
  957MOL0     H26287  -0.404   1.600   5.762 -0.3219 -0.7835  2.2982
  957MOL0     H26288  -0.605   1.192   5.818  0.9640  2.1644 -1.6334
  957MOL0     H26289  -0.830   1.081   5.838 -1.7037  1.0890  1.7127
  957MOL0     H26290  -1.061   1.085   5.907 -2.9629  0.9179  0.2571
  957MOL0     H26291  -1.042   0.981   5.744 -0.3439 -0.3955  0.3601
  957MOL0     H26292  -1.287   1.048   5.709 -1.0118  0.4466  0.9045
  957MOL0     H26293  -1.278   1.102   5.873  0.9514  3.1209 -1.4213
  957MOL0     H26294  -1.227   0.888   5.957 -2.0510  1.0396  0.2190
  957MOL0     H26295  -1.205   0.821   5.786 -2.0056  1.2437 -1.3623
  957MOL0     H26296  -1.461   0.926   5.913 -2.3851 -0.6557  0.0571
  957MOL0     H26297  -1.444   0.857   5.743  1.1298  1.0005 -0.8462
  957MOL0     H26298  -1.405   0.719   6.010  1.9416  0.0435 -0.7853
  957MOL0     H26299  -1.389   0.644   5.859  0.0754  0.2086 -0.5450
  957MOL0     H26300  -1.631   0.707   5.803 -0.6347 -2.5292 -0.8668
  957MOL0     H26301  -1.655   0.767   5.971 -2.3633  0.7097 -2.3436
  957MOL0     H26302  -1.714   0.501   5.918  1.7028 -2.3453 -0.7857
  957MOL0     H26303  -1.547   0.474   5.909 -2.2824 -3.9720  0.7454
  957MOL0     H26304  -1.531   0.547   6.150 -0.8609  1.7157  0.2707
  957MOL0     H26305  -1.619   0.409   6.128 -0.5006 -0.7840 -0.6161
  957MOL0     H26306  -1.000   1.405   5.601  0.4144 -1.3631 -0.7388
  957MOL0     H26307  -0.778   1.501   5.588 -2.8679  1.0264  1.3297
  957MOL0     H26308  -0.181   1.268   5.562  0.6968 -1.4366  1.7750
  957MOL0     H26309  -0.000   1.416   5.544 -0.4438 -1.5802  0.2458
  957MOL0     H26310   1.605   2.525   5.940 -1.6766 -0.6422 -0.2792
  957MOL0     H26311   1.861   2.486   6.013  0.9369 -0.8891  0.5364
  957MOL0     H26312   2.259   2.420   6.259  0.6972  0.0238  1.8922
  957MOL0     H26313   2.474   2.311   6.331  1.6225 -0.2035 -0.4476
  957MOL0     H26314   2.634   2.181   6.400 -0.6190 -1.3260  0.2254
  957MOL0     H26315   2.659   2.208   6.225  2.5609  0.9414  1.4683
  957MOL0     H26316   2.849   2.121   6.368  2.4054 -1.6513  1.7405
  957MOL0     H26317   2.760   1.975   6.401 -0.4356  1.4962  0.9252
  957MOL0     H26318   2.824   2.066   6.109  0.7875  0.4752 -0.4000
  957MOL0     H26319   2.762   1.908   6.161  0.4905 -0.3791 -0.2720
  957MOL0     H26320   3.029   2.020   6.259 -0.3764  0.6481  1.0811
  957MOL0     H26321   2.990   1.853   6.226 -1.2078  0.0736  1.0559
  957MOL0     H26322   3.135   1.996   5.867  2.0128  2.0534  2.2131
  957MOL0     H26323   2.327   1.940   6.172  0.2343  0.2623  0.0526
  957MOL0     H26324   2.119   2.050   6.098  0.1850 -0.3955  0.8707
  958MOL0     O26325   8.696   3.216   3.028 -0.8235  0.1883 -0.1259
  958MOL0     C26326   8.652   3.282   3.127  0.0476 -0.5467 -0.0246
  958MOL0     O26327   8.535   3.268   3.185  0.3017 -0.4147 -0.4127
  958MOL0     C26328   8.436   3.181   3.144  0.6485 -0.2408  0.1301
  958MOL0     C26329   8.415   3.135   3.013  0.2534 -0.1808  0.5072
  958MOL0     C26330   8.300   3.059   2.985  0.8026  0.4725 -0.4534
  958MOL0     C26331   8.206   3.031   3.086 -0.7065  0.6362 -0.6050
  958MOL0     O26332   8.126   2.926   3.071  0.0553 -0.8378  0.1048
  958MOL0     C26333   7.984   2.954   3.094  0.0850 -0.4215 -0.1371
  958MOL0     C26334   7.917   2.824   3.070 -0.5839 -0.4202  0.8233
  958MOL0     C26335   7.777   2.833   3.119  0.5422 -0.0488 -0.6791
  958MOL0     C26336   7.700   2.701   3.099  0.4326 -0.7657  0.2256
  958MOL0     C26337   7.551   2.739   3.123 -0.4868  0.2217 -1.0195
  958MOL0     C26338   7.439   2.633   3.105  0.2601 -0.1445  0.4866
  958MOL0     C26339   7.298   2.702   3.130  0.2404 -0.2401 -0.8825
  958MOL0     C26340   7.216   2.584   3.188 -0.3642  0.4589  0.0629
  958MOL0     N26341   7.081   2.619   3.223  0.8667 -0.2237  0.0199
  958MOL0     C26342   6.977   2.612   3.132  0.8849 -0.3459 -0.0543
  958MOL0     C26343   6.863   2.645   3.200 -0.2787  0.0892 -0.2751
  958MOL0     C26344   6.725   2.622   3.152 -0.5071 -0.9572  0.1498
  958MOL0     C26345   6.692   2.470   3.148  0.2333 -0.0768 -0.2937
  958MOL0     C26346   6.549   2.442   3.158  0.3250 -0.5859  0.2371
  958MOL0     C26347   6.491   2.434   3.298 -0.2908  0.0800 -0.2496
  958MOL0     O26348   6.344   2.448   3.290 -0.3579  0.0743  0.1435
  958MOL0     C26349   6.278   2.458   3.414 -0.5649 -0.3072  0.3119
  958MOL0     C26350   6.310   2.546   3.520  0.1199  0.3471  0.4559
  958MOL0     C26351   6.219   2.570   3.625  0.2094 -0.2731 -0.0066
  958MOL0     C26352   6.101   2.496   3.646 -0.7170 -0.5374  0.1204
  958MOL0     C26353   6.032   2.512   3.774  0.8245  0.8956  0.4773
  958MOL0     O26354   5.916   2.430   3.786 -0.2070  0.2577  0.3906
  958MOL0     C26355   5.826   2.430   3.892 -1.2688  0.0702 -0.1997
  958MOL0     C26356   5.864   2.409   4.021 -0.2898  0.2453  0.1110
  958MOL0     C26357   5.769   2.395   4.124  0.5032 -0.8906 -0.2463
  958MOL0     C26358   5.630   2.397   4.089  1.4170 -0.1876  0.5796
  958MOL0     O26359   5.527   2.384   4.182  0.1162  0.1268 -1.0151
  958MOL0     C26360   5.567   2.367   4.315 -0.0640  0.2075 -0.1476
  958MOL0     C26361   5.454   2.344   4.417 -0.0006 -0.4743 -0.0964
  958MOL0     C26362   5.353   2.236   4.387  0.1302 -0.0803 -0.7282
  958MOL0     C26363   5.247   2.221   4.501  0.1970  0.4990  0.1493
  958MOL0     C26364   5.130   2.134   4.448 -0.0844  0.7845  0.3087
  958MOL0     C26365   5.032   2.102   4.557 -0.1782 -0.5074 -0.9068
  958MOL0     C26366   4.914   2.023   4.514 -0.1455 -0.0671  0.5096
  958MOL0     C26367   4.788   2.096   4.454  0.0379 -0.4894  0.2941
  958MOL0    Cl26368   4.737   2.235   4.567  0.5238 -0.0044  0.1686
  958MOL0     C26369   5.590   2.415   3.955 -0.2996  0.0280  0.1207
  958MOL0     C26370   5.690   2.436   3.859 -0.5437  0.4072 -0.1394
  958MOL0     O26371   6.061   2.604   3.849 -0.3468  0.2839  0.4175
  958MOL0     C26372   6.063   2.411   3.539 -0.4235  0.2853  0.2504
  958MOL0     C26373   6.143   2.405   3.422  0.3729 -0.4077  0.0873
  958MOL0     N26374   6.904   2.694   3.325  0.3567 -0.1469 -0.5594
  958MOL0     N26375   7.032   2.671   3.337  0.3625 -0.3494  0.2696
  958MOL0     C26376   8.228   3.075   3.215  0.4253 -0.3566  0.1877
  958MOL0     C26377   8.344   3.152   3.243 -0.5025  0.0114 -0.5723
  958MOL0     C26378   8.752   3.377   3.194  0.1837  0.8441  0.4282
  958MOL0     C26379   8.835   3.459   3.117  0.7687  0.1497 -0.2933
  958MOL0     C26380   8.918   3.550   3.186 -0.6079 -1.0907 -0.0910
  958MOL0     C26381   8.909   3.574   3.325  0.3378  0.1506  1.0263
  958MOL0     O26382   9.001   3.661   3.381 -0.1066 -0.3421 -0.1301
  958MOL0     C26383   9.037   3.655   3.524  0.4954 -0.6033 -0.1641
  958MOL0     C26384   9.146   3.547   3.529 -0.0612 -0.0767 -0.2079
  958MOL0     C26385   9.259   3.566   3.425 -0.2440  0.2106 -0.4692
  958MOL0     C26386   9.312   3.706   3.427  0.8114  0.5559  0.4069
  958MOL0     C26387   9.415   3.731   3.330 -1.1996 -0.4529  0.9216
  958MOL0     C26388   9.500   3.786   3.251  0.0247  1.2548  0.3886
  958MOL0     C26389   8.822   3.496   3.395 -0.2136  0.7069 -0.7082
  958MOL0     C26390   8.742   3.398   3.336 -0.7089 -0.8181  0.7261
  958MOL0     H26391   8.483   3.140   2.929  0.4266 -1.0432  0.5831
  958MOL0     H26392   8.287   3.007   2.890 -1.7479 -2.2587  1.2092
  958MOL0     H26393   7.938   3.028   3.028 -0.2135 -0.1839  0.3289
  958MOL0     H26394   7.971   2.985   3.198  4.2774  1.1439  0.1143
  958MOL0     H26395   7.963   2.742   3.126  1.1203 -0.5906 -0.7611
  958MOL0     H26396   7.924   2.794   2.965 -2.0175 -1.4870  0.9931
  958MOL0     H26397   7.718   2.914   3.076 -0.5473  0.5425  1.7942
  958MOL0     H26398   7.780   2.849   3.227 -0.3950  3.5802 -1.0715
  958MOL0     H26399   7.715   2.667   2.996  1.8152  2.0052 -0.6034
  958MOL0     H26400   7.731   2.620   3.165 -2.8092 -3.8413 -1.6870
  958MOL0     H26401   7.529   2.825   3.058  0.5225 -0.5690 -2.4634
  958MOL0     H26402   7.547   2.773   3.227 -0.2681 -0.0473 -0.9210
  958MOL0     H26403   7.465   2.555   3.177  1.5498  0.0754  0.2773
  958MOL0     H26404   7.442   2.591   3.004  0.6863  0.1457  0.3774
  958MOL0     H26405   7.311   2.787   3.199 -0.9666  0.1790 -1.1473
  958MOL0     H26406   7.251   2.744   3.041  1.3027  1.9819 -0.4735
  958MOL0     H26407   7.265   2.540   3.276 -0.3099 -0.8144 -0.5773
  958MOL0     H26408   7.223   2.512   3.106 -0.5754  0.7817 -0.2379
  958MOL0     H26409   6.994   2.582   3.030 -0.6023  1.9228 -1.0445
  958MOL0     H26410   6.699   2.665   3.055  2.6477 -1.0419 -0.8496
  958MOL0     H26411   6.652   2.672   3.216  0.8316  2.0563 -0.5087
  958MOL0     H26412   6.745   2.422   3.231 -0.3553  2.2260  1.5310
  958MOL0     H26413   6.713   2.429   3.049  0.4892 -1.1342  0.1862
  958MOL0     H26414   6.491   2.522   3.111 -0.7397 -1.7521 -0.5067
  958MOL0     H26415   6.525   2.358   3.092  3.6796  0.5510 -2.7597
  958MOL0     H26416   6.537   2.509   3.364 -1.1068 -0.3537  0.8413
  958MOL0     H26417   6.518   2.338   3.343  1.9022  1.1320  0.8532
  958MOL0     H26418   6.406   2.598   3.518 -0.0126  0.7629  2.5721
  958MOL0     H26419   6.252   2.642   3.700 -0.4983 -1.1372  1.1690
  958MOL0     H26420   5.968   2.395   4.049 -0.6008 -2.8381  0.0639
  958MOL0     H26421   5.799   2.382   4.227  0.0775  0.4293  0.0632
  958MOL0     H26422   5.627   2.451   4.350  0.5001 -1.0712  2.1521
  958MOL0     H26423   5.626   2.275   4.311  1.4166  1.1824 -2.3904
  958MOL0     H26424   5.399   2.438   4.426 -0.4750 -0.7668  0.0353
  958MOL0     H26425   5.500   2.325   4.514 -0.0062  0.0641  0.0155
  958MOL0     H26426   5.386   2.133   4.369 -1.3184 -0.3319 -2.2008
  958MOL0     H26427   5.294   2.274   4.302  0.8272 -0.0227 -1.1926
  958MOL0     H26428   5.291   2.176   4.592  1.2934  1.2783  0.0279
  958MOL0     H26429   5.199   2.314   4.530 -0.1158  0.0300  1.2005
  958MOL0     H26430   5.181   2.052   4.397  3.6388  3.1727 -0.1776
  958MOL0     H26431   5.063   2.178   4.374 -2.2484 -4.9236 -1.6814
  958MOL0     H26432   5.004   2.189   4.617  1.2301 -0.6417 -0.0065
  958MOL0     H26433   5.083   2.030   4.623  0.2941 -0.9750 -1.7604
  958MOL0     H26434   4.954   1.954   4.439  2.1165  0.3995  1.2227
  958MOL0     H26435   4.868   1.957   4.589  0.6087 -0.0032  1.0337
  958MOL0     H26436   4.706   2.025   4.447  2.4381 -3.4481  0.0327
  958MOL0     H26437   4.802   2.137   4.353 -1.3844 -0.2930  0.1657
  958MOL0     H26438   5.488   2.426   3.919 -0.3349 -2.5001 -0.7578
  958MOL0     H26439   5.646   2.465   3.765 -0.5815  2.8722  0.5628
  958MOL0     H26440   5.977   2.345   3.533 -0.6378  0.6213 -5.0007
  958MOL0     H26441   6.100   2.349   3.339 -2.3939  1.9817 -0.2561
  958MOL0     H26442   8.164   3.036   3.294 -0.9158  2.0939  0.3798
  958MOL0     H26443   8.363   3.198   3.339 -0.4334  0.6314 -0.8714
  958MOL0     H26444   8.853   3.452   3.010  1.2192  3.1041 -0.5016
  958MOL0     H26445   8.993   3.608   3.133 -1.5012  0.9690  0.7668
  958MOL0     H26446   8.957   3.644   3.597  0.8201  1.2694  0.5222
  958MOL0     H26447   9.073   3.754   3.555  1.1674 -0.4639 -1.3313
  958MOL0     H26448   9.197   3.561   3.624  0.8952  0.5844 -0.7977
  958MOL0     H26449   9.109   3.444   3.522  0.6489 -0.2989 -0.7967
  958MOL0     H26450   9.216   3.543   3.328 -2.8758 -1.0871  0.8974
  958MOL0     H26451   9.348   3.507   3.450  0.5652  1.9139  0.9023
  958MOL0     H26452   9.236   3.776   3.391  0.4283 -0.5876 -1.1236
  958MOL0     H26453   9.343   3.748   3.523  2.3635 -1.4246  0.8464
  958MOL0     H26454   9.585   3.827   3.199 -0.2331 -1.8791 -2.8639
  958MOL0     H26455   8.821   3.510   3.502  0.6836 -1.7587 -0.3091
  958MOL0     H26456   8.684   3.328   3.396  0.1199 -0.8728  1.4920
  959MOL0     O26457   8.874   7.877   5.251  0.6915  0.2049 -0.8494
  959MOL0     C26458   8.880   7.792   5.339  0.3345  1.3512  0.0092
  959MOL0     O26459   8.830   7.813   5.470  0.4292  0.0046 -0.2454
  959MOL0     C26460   8.747   7.921   5.484  0.0068 -0.8639  0.2260
  959MOL0     C26461   8.620   7.921   5.418 -0.3029 -0.7385  0.0407
  959MOL0     C26462   8.528   8.018   5.449  0.1754  0.1663  0.5566
  959MOL0     C26463   8.557   8.125   5.534  1.1169 -0.1456  0.6255
  959MOL0     O26464   8.464   8.225   5.565  1.0931  0.2844 -0.0329
  959MOL0     C26465   8.332   8.246   5.492 -0.2242 -0.6156  0.4280
  959MOL0     C26466   8.248   8.342   5.572 -0.2994 -0.1448  1.0241
  959MOL0     C26467   8.121   8.374   5.493 -0.1159 -0.8165  0.2168
  959MOL0     C26468   8.023   8.431   5.600 -0.4481  0.3504 -0.6691
  959MOL0     C26469   7.900   8.493   5.541  0.5084 -0.3420 -0.4082
  959MOL0     C26470   7.821   8.559   5.645 -0.3877 -0.2689 -0.0239
  959MOL0     C26471   7.847   8.711   5.672  0.1986  0.4246 -0.0048
  959MOL0     C26472   7.789   8.806   5.573 -0.3926 -0.1017 -0.5778
  959MOL0     N26473   7.645   8.837   5.594  0.2040 -0.4515  0.2659
  959MOL0     C26474   7.545   8.752   5.550  0.0619 -0.2208 -0.4100
  959MOL0     C26475   7.440   8.795   5.626  0.2224  0.4415  0.1359
  959MOL0     C26476   7.324   8.699   5.624 -0.4082  0.6484 -0.2283
  959MOL0     C26477   7.204   8.739   5.722 -0.6427 -1.1410 -0.1047
  959MOL0     C26478   7.075   8.649   5.725 -0.3899 -0.6356 -0.9053
  959MOL0     C26479   6.957   8.711   5.801 -0.2564 -0.2310  0.3809
  959MOL0     O26480   6.843   8.629   5.762 -0.5616 -0.0157  0.7253
  959MOL0     C26481   6.712   8.679   5.765 -0.8000 -0.5926  0.5392
  959MOL0     C26482   6.611   8.627   5.684 -0.2602 -0.8465 -0.0310
  959MOL0     C26483   6.486   8.678   5.679 -0.0491  0.4434  0.7262
  959MOL0     C26484   6.458   8.787   5.763  0.0900 -0.7801  0.0528
  959MOL0     C26485   6.324   8.849   5.767 -0.5158 -0.5951 -0.1424
  959MOL0     O26486   6.227   8.775   5.720  0.1184 -0.2878  0.3460
  959MOL0     C26487   6.091   8.800   5.713 -0.1119  0.8936  0.1104
  959MOL0     C26488   6.031   8.924   5.725 -0.1230  0.5504 -0.0276
  959MOL0     C26489   5.891   8.943   5.720  0.1172 -0.1849  0.0402
  959MOL0     C26490   5.811   8.830   5.714 -0.5962  1.5559 -0.2658
  959MOL0     O26491   5.678   8.835   5.725 -0.1847  0.2216 -0.1054
  959MOL0     C26492   5.589   8.764   5.637  0.1641  1.2145 -0.0922
  959MOL0     C26493   5.446   8.817   5.647 -0.1491 -1.1020  0.0280
  959MOL0     C26494   5.359   8.710   5.589  0.1037  0.0965  0.2276
  959MOL0     C26495   5.225   8.778   5.566 -0.2632 -0.3272 -0.4838
  959MOL0     C26496   5.113   8.673   5.532 -0.9274 -0.1139  0.1346
  959MOL0     C26497   4.994   8.735   5.449  0.2619  0.3316  0.5804
  959MOL0     C26498   4.884   8.629   5.416  0.2376  0.3970 -0.3483
  959MOL0     C26499   4.791   8.601   5.532  0.0909  0.2113  0.0939
  959MOL0    Cl26500   4.690   8.745   5.542  0.0120  0.2169 -0.1573
  959MOL0     C26501   5.865   8.700   5.702 -0.2939 -0.4324 -0.2975
  959MOL0     C26502   6.010   8.687   5.692 -0.0914 -0.0145 -0.5227
  959MOL0     O26503   6.312   8.970   5.799  0.0377 -0.7865  0.7389
  959MOL0     C26504   6.564   8.855   5.824 -0.0794 -0.9439 -0.1874
  959MOL0     C26505   6.689   8.803   5.829  0.6104 -0.9438 -0.4044
  959MOL0     N26506   7.483   8.875   5.729 -0.5351 -0.4031 -0.3641
  959MOL0     N26507   7.604   8.915   5.700 -0.7183 -0.4772  0.4849
  959MOL0     C26508   8.683   8.131   5.594  0.3097  0.5661 -0.7555
  959MOL0     C26509   8.778   8.021   5.573  0.7315  0.0058 -0.7857
  959MOL0     C26510   8.963   7.672   5.312 -0.1621  0.4813  0.6966
  959MOL0     C26511   9.050   7.626   5.416  0.1841  0.3116 -0.7915
  959MOL0     C26512   9.133   7.517   5.388  0.0300  0.5108  0.0735
  959MOL0     C26513   9.119   7.450   5.263 -1.0118 -0.4284 -0.1799
  959MOL0     O26514   9.162   7.319   5.234  0.5069 -0.6383  0.5314
  959MOL0     C26515   9.275   7.261   5.306 -0.4624 -0.2290 -0.8562
  959MOL0     C26516   9.404   7.312   5.235 -0.6313  0.2482 -0.4439
  959MOL0     C26517   9.538   7.280   5.303  0.2197  1.2225  0.4410
  959MOL0     C26518   9.655   7.354   5.234  0.2799  0.1292 -0.5507
  959MOL0     C26519   9.647   7.502   5.259  0.1774  0.3982 -0.3423
  959MOL0     C26520   9.618   7.621   5.253  0.4495  0.3004 -0.2812
  959MOL0     C26521   9.044   7.495   5.159  0.3397 -0.1673  0.7027
  959MOL0     C26522   8.974   7.619   5.182  0.6580  0.1831 -0.0166
  959MOL0     H26523   8.608   7.837   5.350  1.9889 -0.3264 -0.9487
  959MOL0     H26524   8.428   8.010   5.408  0.5522  0.2646 -0.4084
  959MOL0     H26525   8.272   8.156   5.477  0.3644 -1.0844  0.8539
  959MOL0     H26526   8.358   8.285   5.394 -0.6823  0.7984  0.8433
  959MOL0     H26527   8.318   8.423   5.593  1.3332 -1.5597  1.2350
  959MOL0     H26528   8.230   8.289   5.666 -1.5920  2.1134  2.1523
  959MOL0     H26529   8.074   8.281   5.459 -3.5368 -0.1127  2.5080
  959MOL0     H26530   8.138   8.439   5.407 -0.0969  0.3106  1.0559
  959MOL0     H26531   7.992   8.350   5.665  0.0374 -1.6732 -2.8109
  959MOL0     H26532   8.085   8.501   5.658  2.4334 -1.8725 -0.8203
  959MOL0     H26533   7.840   8.412   5.498 -1.0803 -0.1179  1.2736
  959MOL0     H26534   7.928   8.567   5.465 -0.9028  0.4425 -0.1867
  959MOL0     H26535   7.844   8.503   5.736  0.4338  0.9874  0.5857
  959MOL0     H26536   7.714   8.547   5.625 -0.4019 -1.0955  0.4957
  959MOL0     H26537   7.816   8.735   5.774  0.2828 -0.7774  0.3141
  959MOL0     H26538   7.955   8.719   5.684  0.2889 -1.6054  1.0175
  959MOL0     H26539   7.803   8.779   5.468 -0.5167 -3.2834  0.1157
  959MOL0     H26540   7.844   8.899   5.587 -0.8733  0.0017  0.7593
  959MOL0     H26541   7.542   8.681   5.468 -1.5715  1.2580 -1.7257
  959MOL0     H26542   7.358   8.601   5.659  1.4966 -0.0519 -3.5437
  959MOL0     H26543   7.294   8.688   5.519 -3.5412 -0.4833  0.6641
  959MOL0     H26544   7.172   8.841   5.701  1.8251  0.3941  2.7850
  959MOL0     H26545   7.246   8.740   5.823  0.3403 -0.9573 -0.5036
  959MOL0     H26546   7.059   8.633   5.618  0.9130 -0.0575 -1.2071
  959MOL0     H26547   7.098   8.555   5.776  1.1851  0.5845  0.7529
  959MOL0     H26548   6.950   8.814   5.763  1.4020 -0.6845 -1.3192
  959MOL0     H26549   6.965   8.714   5.910 -0.5363  0.1937  0.3950
  959MOL0     H26550   6.630   8.540   5.622  1.7865 -0.6905  0.3065
  959MOL0     H26551   6.417   8.621   5.617 -0.0240  0.9361  0.2390
  959MOL0     H26552   6.080   9.021   5.729 -1.9871  1.6091 -1.3363
  959MOL0     H26553   5.835   9.035   5.728 -0.0786 -0.2948 -0.0605
  959MOL0     H26554   5.595   8.658   5.665 -3.4657 -0.0506 -3.2527
  959MOL0     H26555   5.622   8.768   5.533  2.4489  1.0758  0.5560
  959MOL0     H26556   5.433   8.910   5.591  1.4981 -0.9110 -0.0891
  959MOL0     H26557   5.412   8.842   5.748 -2.3929  0.0287 -0.9477
  959MOL0     H26558   5.351   8.633   5.667  1.3967  0.1862  0.4616
  959MOL0     H26559   5.394   8.677   5.491  0.1919  0.5062  0.1179
  959MOL0     H26560   5.183   8.834   5.650  0.3460 -1.3872  0.5601
  959MOL0     H26561   5.238   8.846   5.481  0.3017 -0.7943 -0.7770
  959MOL0     H26562   5.075   8.628   5.624  2.5183 -1.1988  1.1914
  959MOL0     H26563   5.159   8.588   5.481 -0.2616  1.4276 -1.9930
  959MOL0     H26564   5.032   8.775   5.355  2.0345  0.0821  1.1469
  959MOL0     H26565   4.948   8.823   5.492 -0.8433  0.6066 -1.0728
  959MOL0     H26566   4.826   8.674   5.335 -1.1404 -1.4966 -0.4899
  959MOL0     H26567   4.924   8.533   5.383 -3.4176 -0.8647 -1.6443
  959MOL0     H26568   4.842   8.586   5.627 -1.1698  0.5848  0.8509
  959MOL0     H26569   4.724   8.516   5.519 -0.1397  0.3828  0.1623
  959MOL0     H26570   5.809   8.609   5.680  0.9737 -1.4232  0.4152
  959MOL0     H26571   6.064   8.594   5.675 -1.0538 -0.3420 -2.0113
  959MOL0     H26572   6.542   8.938   5.890  0.4861 -0.5154 -0.5229
  959MOL0     H26573   6.760   8.848   5.898 -0.5511  0.7978 -0.2804
  959MOL0     H26574   8.690   8.212   5.665 -1.3421  0.1017 -0.0180
  959MOL0     H26575   8.877   8.008   5.614 -0.1849 -4.0706  0.6050
  959MOL0     H26576   9.066   7.677   5.510  2.2081  0.0182 -0.9387
  959MOL0     H26577   9.198   7.467   5.459  1.0158 -3.4702 -3.1844
  959MOL0     H26578   9.278   7.152   5.296 -1.3168 -0.2964 -0.4346
  959MOL0     H26579   9.286   7.290   5.411  1.2331 -0.7187 -0.8684
  959MOL0     H26580   9.406   7.284   5.129  1.2940 -0.2208 -0.3390
  959MOL0     H26581   9.400   7.421   5.227  0.3012  0.3183 -0.1169
  959MOL0     H26582   9.555   7.173   5.289 -1.0713  0.6416  2.7127
  959MOL0     H26583   9.543   7.309   5.409  3.0411 -0.3417  0.8360
  959MOL0     H26584   9.751   7.319   5.275  0.1550  2.6178  2.2025
  959MOL0     H26585   9.665   7.343   5.126 -1.2469  0.3343 -0.7344
  959MOL0     H26586   9.605   7.727   5.259 -0.0092  0.4075 -2.2561
  959MOL0     H26587   9.042   7.444   5.063  1.8701  0.9235  0.0335
  959MOL0     H26588   8.918   7.661   5.099 -0.2220 -0.7886  0.0541
  960MOL0     O26589   7.839   6.845   3.275 -0.0631  0.2529 -0.2326
  960MOL0     C26590   7.885   6.942   3.219 -0.1340  0.5154 -1.0022
  960MOL0     O26591   7.812   7.058   3.178  0.2140  0.3369 -0.3441
  960MOL0     C26592   7.675   7.071   3.176  0.5709 -1.2315 -0.6794
  960MOL0     C26593   7.581   6.972   3.140 -0.1668 -1.0879  0.5575
  960MOL0     C26594   7.446   7.019   3.119 -0.4312  0.8439 -0.3622
  960MOL0     C26595   7.400   7.149   3.142  0.2308 -1.1470 -0.6235
  960MOL0     O26596   7.266   7.200   3.118 -0.6514  0.4067 -0.8675
  960MOL0     C26597   7.170   7.101   3.070  0.9147  0.0697  0.3328
  960MOL0     C26598   7.041   7.177   3.026  0.0131 -0.1660  0.2125
  960MOL0     C26599   7.008   7.295   3.108 -1.4460  0.2695 -0.3396
  960MOL0     C26600   6.876   7.351   3.069  0.3393 -0.3109  0.0003
  960MOL0     C26601   6.849   7.475   3.158 -0.0780  0.4258 -0.3776
  960MOL0     C26602   6.714   7.538   3.122  0.6326  0.5251 -0.8430
  960MOL0     C26603   6.687   7.657   3.224  0.2945  0.8065  0.2494
  960MOL0     C26604   6.577   7.747   3.192 -0.1564 -0.3441  0.5226
  960MOL0     N26605   6.449   7.675   3.196  0.4987  0.8559  0.9767
  960MOL0     C26606   6.386   7.610   3.302 -0.1759 -0.2414 -0.9094
  960MOL0     C26607   6.261   7.574   3.257 -0.1662  0.3845 -0.0966
  960MOL0     C26608   6.145   7.531   3.334 -0.2175  0.0467 -0.2812
  960MOL0     C26609   6.011   7.538   3.263 -0.1265 -0.3359  0.4934
  960MOL0     C26610   5.945   7.676   3.270 -0.5682 -0.4423  0.1061
  960MOL0     C26611   5.895   7.720   3.408 -0.5724  0.1480  0.5628
  960MOL0     O26612   5.810   7.618   3.469  0.3288  0.1524 -0.0203
  960MOL0     C26613   5.678   7.609   3.445 -0.4155  0.3988 -0.4122
  960MOL0     C26614   5.602   7.697   3.371  0.6690 -0.4487  0.3148
  960MOL0     C26615   5.460   7.670   3.349  0.2602  0.2722 -0.5124
  960MOL0     C26616   5.390   7.569   3.413 -0.6976 -0.5980  0.2613
  960MOL0     C26617   5.242   7.560   3.412  0.4981  0.1463  1.0398
  960MOL0     O26618   5.172   7.667   3.364  1.0983 -0.5785  0.3178
  960MOL0     C26619   5.036   7.671   3.375  0.6511  0.0064 -0.0508
  960MOL0     C26620   4.958   7.663   3.258  0.8069 -0.2429 -0.8078
  960MOL0     C26621   4.814   7.672   3.258  0.1407  0.2183 -0.0521
  960MOL0     C26622   4.756   7.672   3.377  0.5039  0.7277  0.2426
  960MOL0     O26623   4.620   7.656   3.398 -0.2954 -0.5209 -0.3052
  960MOL0     C26624   4.526   7.722   3.312 -0.1343  0.0981 -0.6000
  960MOL0     C26625   4.383   7.685   3.350  0.5360 -0.3750 -0.0211
  960MOL0     C26626   4.330   7.749   3.477  0.0472 -0.5401  0.3610
  960MOL0     C26627   4.200   7.692   3.529  0.1285 -0.0121 -0.3671
  960MOL0     C26628   4.157   7.761   3.666 -0.2713 -0.0121 -0.2360
  960MOL0     C26629   4.016   7.730   3.704  0.6065  0.5653  0.4386
  960MOL0     C26630   3.998   7.580   3.720  0.1493  0.0588 -0.5111
  960MOL0     C26631   3.861   7.558   3.785 -0.0369 -0.2251 -0.3727
  960MOL0    Cl26632   3.719   7.629   3.698  0.1326  0.0556  0.0436
  960MOL0     C26633   4.833   7.669   3.501 -0.4477  0.4432 -0.2017
  960MOL0     C26634   4.972   7.668   3.501 -0.1902 -0.1134  0.5643
  960MOL0     O26635   5.199   7.454   3.448  0.4781  0.1288  0.1293
  960MOL0     C26636   5.471   7.488   3.496  0.4051  0.2066 -1.0550
  960MOL0     C26637   5.611   7.504   3.508 -0.1049 -0.1951  0.1397
  960MOL0     N26638   6.250   7.623   3.125 -0.4328  0.0822 -0.1973
  960MOL0     N26639   6.363   7.679   3.092  0.1231 -0.5035  0.3788
  960MOL0     C26640   7.494   7.235   3.188 -0.4053 -0.6424  0.2300
  960MOL0     C26641   7.633   7.201   3.202  0.5046  0.8955 -0.4242
  960MOL0     C26642   8.031   6.943   3.213 -0.4133  0.1797 -0.3467
  960MOL0     C26643   8.093   7.030   3.129  0.1524 -0.8651 -0.8134
  960MOL0     C26644   8.237   7.043   3.124  0.0246  0.5009  0.0871
  960MOL0     C26645   8.321   6.967   3.202 -1.1142  0.6822  0.6336
  960MOL0     O26646   8.459   6.976   3.180  0.2274 -0.4379  0.3533
  960MOL0     C26647   8.557   6.912   3.260  0.8896  0.3813  0.1650
  960MOL0     C26648   8.677   6.888   3.173  0.0406  0.2308  0.3538
  960MOL0     C26649   8.734   7.000   3.091 -0.5854  0.3217 -0.2718
  960MOL0     C26650   8.870   6.965   3.016  0.9485  0.0740  0.2561
  960MOL0     C26651   8.955   7.082   2.974  0.3773  0.6712 -0.0339
  960MOL0     C26652   9.014   7.183   2.939  0.8099 -1.1329  0.6955
  960MOL0     C26653   8.260   6.878   3.297 -0.7607 -0.0828 -0.2263
  960MOL0     C26654   8.121   6.864   3.292 -0.2180  0.4832 -0.5620
  960MOL0     H26655   7.617   6.874   3.109  0.3620 -1.2211  1.5501
  960MOL0     H26656   7.370   6.948   3.088 -0.2579 -0.3729  1.8058
  960MOL0     H26657   7.147   7.042   3.159  2.2693  0.3622  0.9057
  960MOL0     H26658   7.202   7.037   2.987 -0.4261 -3.0433  2.0535
  960MOL0     H26659   6.956   7.109   3.020 -0.3572  0.3788 -1.0823
  960MOL0     H26660   7.054   7.209   2.922 -0.2684  0.7477  0.4475
  960MOL0     H26661   7.091   7.367   3.098 -0.3279 -0.9646 -0.2509
  960MOL0     H26662   6.994   7.262   3.211  1.8716 -1.9853 -0.4365
  960MOL0     H26663   6.870   7.367   2.961 -0.6199  0.2015  0.1185
  960MOL0     H26664   6.799   7.277   3.090  0.1052  0.0609  0.4755
  960MOL0     H26665   6.935   7.542   3.166 -0.7906  1.6150 -2.0284
  960MOL0     H26666   6.831   7.433   3.258  1.2756  2.6435  0.8783
  960MOL0     H26667   6.628   7.472   3.135  2.2082 -1.1097  2.6312
  960MOL0     H26668   6.717   7.571   3.018  0.6502  0.7982 -0.7559
  960MOL0     H26669   6.678   7.612   3.324  0.8947 -0.5069 -0.2622
  960MOL0     H26670   6.776   7.720   3.234 -0.3310  1.8154 -0.4411
  960MOL0     H26671   6.594   7.787   3.092 -1.0821  0.4798  0.6754
  960MOL0     H26672   6.577   7.835   3.258 -1.5436  0.7898 -0.9077
  960MOL0     H26673   6.437   7.594   3.396 -0.6671  0.7125 -0.4679
  960MOL0     H26674   6.148   7.583   3.430  1.7471  1.0306 -0.8237
  960MOL0     H26675   6.164   7.426   3.361 -1.7571  0.1371  1.3160
  960MOL0     H26676   5.941   7.465   3.306  1.4301 -3.7396 -2.3152
  960MOL0     H26677   6.020   7.509   3.158 -1.5783  0.6666  0.0642
  960MOL0     H26678   6.024   7.746   3.242  1.1409 -2.4056 -0.2494
  960MOL0     H26679   5.863   7.684   3.198 -0.2927  2.1637 -0.0262
  960MOL0     H26680   5.839   7.811   3.388  2.1259  1.5268 -1.3745
  960MOL0     H26681   5.980   7.749   3.470 -2.2311 -0.5135  3.2802
  960MOL0     H26682   5.640   7.782   3.316  3.1063 -2.8392 -2.0110
  960MOL0     H26683   5.399   7.740   3.293  1.4004  1.5811 -0.1692
  960MOL0     H26684   5.009   7.662   3.162 -2.0209 -0.4708 -2.4031
  960MOL0     H26685   4.753   7.670   3.168  2.3172  2.0950 -1.6692
  960MOL0     H26686   4.534   7.696   3.206  2.2066  2.0145 -1.0058
  960MOL0     H26687   4.542   7.829   3.332 -1.1443  0.0649  0.4769
  960MOL0     H26688   4.385   7.577   3.367  0.3487 -0.1279  1.7081
  960MOL0     H26689   4.313   7.701   3.267  0.7364 -2.3590 -0.6196
  960MOL0     H26690   4.322   7.856   3.456  0.7244 -0.4978  0.2845
  960MOL0     H26691   4.404   7.743   3.558 -1.0619  1.7154  1.6641
  960MOL0     H26692   4.118   7.704   3.458  0.2486  0.7026 -0.3867
  960MOL0     H26693   4.208   7.583   3.541 -0.5039  0.0253  0.4975
  960MOL0     H26694   4.175   7.868   3.652 -1.2373  0.2771  0.6430
  960MOL0     H26695   4.232   7.734   3.742 -0.3181 -1.1179 -0.5606
  960MOL0     H26696   3.954   7.756   3.617 -0.2569 -1.9245  0.2425
  960MOL0     H26697   3.990   7.787   3.793  0.7260 -0.1571  0.9454
  960MOL0     H26698   4.002   7.526   3.625 -4.1656  0.9597 -1.4081
  960MOL0     H26699   4.072   7.541   3.790 -1.0297 -2.0303 -0.3660
  960MOL0     H26700   3.860   7.603   3.885 -1.8430  2.2893 -1.4372
  960MOL0     H26701   3.848   7.450   3.798 -0.2974  0.0775  2.5950
  960MOL0     H26702   4.781   7.660   3.596 -1.3337  1.3725 -0.5762
  960MOL0     H26703   5.024   7.651   3.595 -1.4917 -0.2085  1.2833
  960MOL0     H26704   5.428   7.408   3.556  0.7501  1.8880  1.5487
  960MOL0     H26705   5.666   7.433   3.569 -0.5023 -0.0491  0.6814
  960MOL0     H26706   7.473   7.339   3.207 -0.7227 -0.1577 -2.4782
  960MOL0     H26707   7.707   7.276   3.228  0.5019  0.9183 -0.4802
  960MOL0     H26708   8.037   7.097   3.065  0.6760 -2.8662 -3.5581
  960MOL0     H26709   8.269   7.121   3.056 -1.0721  2.3482  1.5849
  960MOL0     H26710   8.508   6.817   3.286 -2.3286  2.1365  1.1761
  960MOL0     H26711   8.592   6.964   3.350  0.4036 -0.3658  0.8002
  960MOL0     H26712   8.761   6.855   3.236  1.3473  0.4657 -1.1925
  960MOL0     H26713   8.657   6.804   3.107  2.4626 -1.6556  1.8442
  960MOL0     H26714   8.762   7.080   3.160 -0.3918 -0.1258  0.1686
  960MOL0     H26715   8.662   7.047   3.023  1.8930  2.9817 -1.2865
  960MOL0     H26716   8.936   6.899   3.072  0.1587 -1.4277 -0.4915
  960MOL0     H26717   8.855   6.891   2.936  2.3462 -0.0596  0.1034
  960MOL0     H26718   9.063   7.271   2.902 -0.1084 -1.4468 -1.3934
  960MOL0     H26719   8.312   6.821   3.373  1.7271  1.1863 -0.8584
  960MOL0     H26720   8.079   6.803   3.372  0.2748  0.9083  0.0337
  961MOL0     O26721   6.026  11.141  10.581  0.9733  0.2481 -0.6146
  961MOL0     C26722   6.017  11.249  10.520 -0.3999 -0.8456  0.0255
  961MOL0     O26723   5.909  11.325  10.495  0.3995  0.2101 -0.4256
  961MOL0     C26724   5.784  11.284  10.549 -0.4630 -0.0994 -0.1730
  961MOL0     C26725   5.754  11.341  10.677  0.5691  0.0646  0.8266
  961MOL0     C26726   5.643  11.304  10.746  1.1489  0.3195  0.3426
  961MOL0     C26727   5.550  11.213  10.689  0.6619  0.4623 -0.2949
  961MOL0     O26728   5.435  11.164  10.745  0.2732 -0.2052  0.6330
  961MOL0     C26729   5.381  11.235  10.857  0.0416 -0.0313  0.0406
  961MOL0     C26730   5.240  11.172  10.880 -0.5562  0.8277  0.6545
  961MOL0     C26731   5.161  11.238  10.995 -0.4339  0.2916  0.3902
  961MOL0     C26732   5.042  11.144  11.021 -0.0866  0.3682 -0.3378
  961MOL0     C26733   4.949  11.203  11.135 -0.1089 -0.4890 -0.0195
  961MOL0     C26734   4.880  11.332  11.075 -0.4632  0.5235  0.0072
  961MOL0     C26735   4.764  11.405  11.157  0.1181 -0.0648 -0.2847
  961MOL0     C26736   4.640  11.325  11.124  0.4780 -0.3122  0.4614
  961MOL0     N26737   4.544  11.346  11.231  0.2689 -0.8461 -0.4257
  961MOL0     C26738   4.515  11.260  11.332 -0.8582  0.2606  0.3859
  961MOL0     C26739   4.414  11.318  11.407 -0.0294  0.0659  0.4294
  961MOL0     C26740   4.366  11.254  11.536 -0.1996 -0.8683 -0.1556
  961MOL0     C26741   4.207  11.245  11.528 -1.4279 -0.6027  0.5933
  961MOL0     C26742   4.149  11.373  11.583  0.1771  0.1937 -0.4157
  961MOL0     C26743   3.999  11.352  11.591  0.6243 -0.0854  0.1395
  961MOL0     O26744   3.976  11.315  11.732  0.9492  0.3505  0.6863
  961MOL0     C26745   3.845  11.283  11.772  0.2360  0.0354 -0.4211
  961MOL0     C26746   3.823  11.246  11.908  0.2546  0.6294  0.1198
  961MOL0     C26747   3.700  11.221  11.962 -0.0461 -0.1970  0.1071
  961MOL0     C26748   3.588  11.224  11.877  0.0084 -0.0286  0.2769
  961MOL0     C26749   3.453  11.196  11.927 -0.2012  0.2439  0.1015
  961MOL0     O26750   3.354  11.221  11.831 -0.4682 -0.8056 -0.1624
  961MOL0     C26751   3.227  11.214  11.866  0.0172  0.0388  0.1281
  961MOL0     C26752   3.134  11.155  11.775 -0.4402  0.5072 -0.0483
  961MOL0     C26753   3.002  11.123  11.813 -0.4397  0.2022 -0.1246
  961MOL0     C26754   2.951  11.176  11.934  0.0755 -0.3160 -0.4142
  961MOL0     O26755   2.822  11.163  11.983  0.2169  0.3544  0.2295
  961MOL0     C26756   2.733  11.087  11.903 -0.7608  0.2369  0.1035
  961MOL0     C26757   2.588  11.121  11.951 -0.5901 -0.4792  0.2288
  961MOL0     C26758   2.522  11.245  11.900 -0.1022  0.8049  0.0731
  961MOL0     C26759   2.379  11.242  11.943  0.2307  0.9100 -0.3700
  961MOL0     C26760   2.290  11.373  11.918 -0.2067  1.1647  0.0499
  961MOL0     C26761   2.161  11.355  11.985  0.1804  0.3542 -0.2192
  961MOL0     C26762   2.047  11.460  11.952 -0.5048  0.3480 -0.6736
  961MOL0     C26763   1.912  11.414  12.008 -0.2003  0.2349 -0.4365
  961MOL0    Cl26764   1.786  11.533  11.969 -0.2703  0.2818  0.0234
  961MOL0     C26765   3.040  11.246  12.016  0.1909  0.0265 -1.5424
  961MOL0     C26766   3.166  11.263  11.981 -0.4638 -0.5269  0.6054
  961MOL0     O26767   3.428  11.141  12.040 -0.4449 -0.2337  0.2103
  961MOL0     C26768   3.604  11.265  11.740  0.4712  0.7865 -0.0170
  961MOL0     C26769   3.734  11.285  11.686 -0.3360 -0.3349 -0.3081
  961MOL0     N26770   4.383  11.436  11.350  0.0836 -0.4277 -0.3152
  961MOL0     N26771   4.462  11.454  11.243  0.2581 -0.1017  0.2002
  961MOL0     C26772   5.578  11.154  10.562  0.0449  0.0055  0.4310
  961MOL0     C26773   5.696  11.191  10.495 -0.9317  0.8146  0.5474
  961MOL0     C26774   6.148  11.293  10.456 -0.4246 -0.4798 -0.7142
  961MOL0     C26775   6.143  11.411  10.382  0.0319 -0.5340 -0.4510
  961MOL0     C26776   6.260  11.477  10.346  0.2923  0.1733 -0.2604
  961MOL0     C26777   6.384  11.418  10.359  0.4086 -0.1904 -1.1784
  961MOL0     O26778   6.492  11.480  10.306  0.1093  0.4884  0.2450
  961MOL0     C26779   6.513  11.476  10.165 -0.2881  0.2001  0.0650
  961MOL0     C26780   6.623  11.568  10.131 -0.1518  0.3985  0.4757
  961MOL0     C26781   6.762  11.491  10.148  1.1323  0.5655 -0.8447
  961MOL0     C26782   6.787  11.397  10.022 -0.1825 -0.2724 -0.6269
  961MOL0     C26783   6.896  11.302  10.047 -0.3440 -0.3153  0.4481
  961MOL0     C26784   6.989  11.223  10.067  1.1926 -0.4844  0.3626
  961MOL0     C26785   6.396  11.299  10.430  0.1520  1.3066 -0.4979
  961MOL0     C26786   6.274  11.236  10.489  0.5571 -0.2535  0.3407
  961MOL0     H26787   5.816  11.416  10.726  0.5596  1.2531 -0.8934
  961MOL0     H26788   5.629  11.349  10.844  2.0379  0.3184  0.4711
  961MOL0     H26789   5.360  11.340  10.833 -2.4571 -0.6547 -0.8446
  961MOL0     H26790   5.434  11.221  10.951 -0.5458 -1.3628  0.1923
  961MOL0     H26791   5.264  11.067  10.899  0.8549  1.0097 -0.0047
  961MOL0     H26792   5.186  11.172  10.784  0.5303 -0.1370  0.0165
  961MOL0     H26793   5.141  11.344  10.980  0.6718  0.3467 -0.8738
  961MOL0     H26794   5.231  11.239  11.079  2.0756  2.3967 -1.5576
  961MOL0     H26795   4.982  11.136  10.930 -3.4455 -2.7498  1.8616
  961MOL0     H26796   5.070  11.042  11.048  0.9762  0.6116 -0.4909
  961MOL0     H26797   5.007  11.213  11.228  0.0481 -3.5642  0.3383
  961MOL0     H26798   4.870  11.132  11.159 -3.4436  3.3047  1.3792
  961MOL0     H26799   4.848  11.303  10.974  1.6068  0.2729 -0.6231
  961MOL0     H26800   4.954  11.412  11.068 -2.3006  2.2100 -1.6040
  961MOL0     H26801   4.793  11.405  11.263  0.1826 -1.3159 -0.2917
  961MOL0     H26802   4.746  11.511  11.134 -1.8224 -0.1374  0.6951
  961MOL0     H26803   4.660  11.218  11.112  1.7365 -0.0840  0.4356
  961MOL0     H26804   4.591  11.372  11.038 -3.0878 -0.9362  1.9637
  961MOL0     H26805   4.563  11.167  11.362  1.6191  1.6148  0.9356
  961MOL0     H26806   4.406  11.303  11.625  0.1044  2.3627 -1.9044
  961MOL0     H26807   4.404  11.152  11.538 -1.6703 -1.4358  2.5864
  961MOL0     H26808   4.178  11.167  11.600 -4.7387 -1.7312 -1.7081
  961MOL0     H26809   4.170  11.208  11.432  0.9881 -0.0473 -0.6158
  961MOL0     H26810   4.188  11.409  11.679  0.6223  2.7367 -1.4490
  961MOL0     H26811   4.178  11.459  11.522 -1.3664  0.0705 -1.3883
  961MOL0     H26812   3.963  11.274  11.523 -0.8422  1.7176 -1.2717
  961MOL0     H26813   3.942  11.441  11.562 -0.8384 -1.1293 -0.2966
  961MOL0     H26814   3.904  11.247  11.979  0.8609 -0.9975 -0.5041
  961MOL0     H26815   3.680  11.191  12.064  2.1758  1.5252  1.1582
  961MOL0     H26816   3.170  11.106  11.685 -1.6586 -1.1439  0.3392
  961MOL0     H26817   2.949  11.073  11.733  2.1478  0.5950 -2.1973
  961MOL0     H26818   2.755  10.980  11.904  2.2841  0.7740 -0.8814
  961MOL0     H26819   2.734  11.125  11.801  0.7938  0.5802  0.2271
  961MOL0     H26820   2.591  11.120  12.060  0.4816  0.6830  0.2291
  961MOL0     H26821   2.524  11.040  11.916 -0.5216 -0.4475  0.0290
  961MOL0     H26822   2.533  11.235  11.792  0.1714 -1.3865  0.2592
  961MOL0     H26823   2.570  11.338  11.933 -2.1459  1.8342  0.2668
  961MOL0     H26824   2.326  11.161  11.892 -0.5232  0.7284  0.6718
  961MOL0     H26825   2.370  11.222  12.050 -3.1179 -3.4507 -1.1746
  961MOL0     H26826   2.274  11.388  11.811  3.6197  0.5327 -0.7508
  961MOL0     H26827   2.344  11.462  11.950  0.5403  0.1261  1.7896
  961MOL0     H26828   2.177  11.357  12.093  0.1482  0.9270 -0.2221
  961MOL0     H26829   2.130  11.252  11.967  3.0985 -0.4991 -0.9089
  961MOL0     H26830   2.075  11.552  12.004 -1.7899  0.2584  0.2376
  961MOL0     H26831   2.040  11.470  11.843 -0.8265  0.4132 -0.6465
  961MOL0     H26832   1.927  11.392  12.114 -3.9146  0.0981  0.1974
  961MOL0     H26833   1.891  11.318  11.962  0.4999 -0.1766  0.0845
  961MOL0     H26834   2.998  11.284  12.109 -2.9964 -2.1768 -1.9002
  961MOL0     H26835   3.224  11.337  12.035  0.0189 -1.3271  1.2053
  961MOL0     H26836   3.519  11.263  11.673 -1.4139 -1.8754  2.1851
  961MOL0     H26837   3.734  11.303  11.578 -2.5917 -3.4278 -0.9620
  961MOL0     H26838   5.512  11.080  10.518 -1.0665  0.7811  0.7538
  961MOL0     H26839   5.725  11.144  10.402 -1.3078  3.6016 -1.1064
  961MOL0     H26840   6.052  11.469  10.368  0.0516 -0.1943  0.7603
  961MOL0     H26841   6.240  11.577  10.308 -3.8325 -0.2518  0.3564
  961MOL0     H26842   6.418  11.504  10.119  1.6664 -1.3165 -5.7374
  961MOL0     H26843   6.534  11.374  10.131 -0.3704 -0.8203  2.8465
  961MOL0     H26844   6.615  11.600  10.026  1.7523 -1.5225 -0.3418
  961MOL0     H26845   6.626  11.661  10.189  1.1370 -0.6354  2.1516
  961MOL0     H26846   6.750  11.431  10.239  0.2763 -1.5607 -2.2981
  961MOL0     H26847   6.849  11.557  10.151  1.2558  0.4463 -1.6590
  961MOL0     H26848   6.699  11.334  10.006 -1.9016  1.7201  0.5063
  961MOL0     H26849   6.817  11.457   9.936  1.9329 -1.8916 -1.1286
  961MOL0     H26850   7.059  11.144  10.083 -1.3267 -2.5285  2.0376
  961MOL0     H26851   6.494  11.257  10.451  0.8375  3.4953  1.0701
  961MOL0     H26852   6.279  11.143  10.544 -0.8864  0.4070  1.6802
  962MOL0     O26853   3.512   1.087   9.580  0.6144  0.0534 -0.5543
  962MOL0     C26854   3.423   1.024   9.643 -0.5207  0.4456  0.3968
  962MOL0     O26855   3.446   0.921   9.733 -0.8165 -0.3430 -0.0712
  962MOL0     C26856   3.574   0.892   9.763 -0.6366 -0.4992  0.9045
  962MOL0     C26857   3.615   0.756   9.748  0.0140  0.2155  0.8762
  962MOL0     C26858   3.740   0.717   9.779  0.2930 -0.2030  0.0065
  962MOL0     C26859   3.836   0.805   9.827 -0.1194 -0.1243  0.3289
  962MOL0     O26860   3.956   0.748   9.847 -0.3579 -0.0785 -0.4361
  962MOL0     C26861   4.071   0.818   9.902 -0.2491  0.1919 -0.3367
  962MOL0     C26862   4.196   0.737   9.905 -0.2393 -0.6183  0.0577
  962MOL0     C26863   4.297   0.787  10.007  0.3362  0.4143  0.6641
  962MOL0     C26864   4.438   0.730   9.984  0.0599  0.2422 -0.8270
  962MOL0     C26865   4.441   0.586  10.037 -0.6676  0.6853  0.0068
  962MOL0     C26866   4.434   0.552  10.182 -1.3950  0.1147  0.1615
  962MOL0     C26867   4.429   0.398  10.194  1.1637  0.8538  0.5135
  962MOL0     C26868   4.552   0.322  10.130 -0.1598  0.2949  0.9393
  962MOL0     N26869   4.566   0.184  10.182  0.7275  0.2116  0.8317
  962MOL0     C26870   4.462   0.095  10.190 -0.9049  0.3091 -0.8436
  962MOL0     C26871   4.523  -0.017  10.230  0.3252  0.0695 -0.4576
  962MOL0     C26872   4.430  -0.142  10.259 -0.2504 -0.4986 -0.5630
  962MOL0     C26873   4.343  -0.104  10.379 -0.0919  0.6069  0.1535
  962MOL0     C26874   4.237  -0.212  10.409  1.2224 -0.2520  0.1604
  962MOL0     C26875   4.133  -0.150  10.512  0.0995 -0.3569  0.4848
  962MOL0     O26876   4.052  -0.244  10.567  0.3271  0.5954 -0.5050
  962MOL0     C26877   3.952  -0.205  10.652 -0.1567  0.0005  0.5556
  962MOL0     C26878   3.921  -0.069  10.678 -0.7709 -0.0163  0.1579
  962MOL0     C26879   3.816  -0.044  10.761 -0.1203 -0.0277 -0.0307
  962MOL0     C26880   3.732  -0.145  10.810  0.6362  0.2233  0.1814
  962MOL0     C26881   3.604  -0.118  10.881 -0.4323  0.0437 -0.2542
  962MOL0     O26882   3.562   0.013  10.891  0.1593 -0.6427  0.3134
  962MOL0     C26883   3.452   0.062  10.964 -0.5282  0.1721 -0.0380
  962MOL0     C26884   3.457   0.197  10.987 -0.2131 -0.4590 -0.6866
  962MOL0     C26885   3.348   0.255  11.055 -0.2731  0.1865 -0.1234
  962MOL0     C26886   3.233   0.182  11.091 -0.4608  0.4397  0.0393
  962MOL0     O26887   3.123   0.231  11.157 -0.7469 -0.5856  0.9177
  962MOL0     C26888   2.997   0.182  11.106 -0.7949  0.0765 -0.6462
  962MOL0     C26889   2.884   0.206  11.205  0.4528 -0.6275 -0.7407
  962MOL0     C26890   2.875   0.352  11.252  0.0700 -0.0762  0.1321
  962MOL0     C26891   2.733   0.379  11.316  0.1379  0.2414 -0.1109
  962MOL0     C26892   2.709   0.531  11.334  0.5537  0.5785 -0.5633
  962MOL0     C26893   2.563   0.559  11.385  0.5202 -0.1411 -0.0901
  962MOL0     C26894   2.535   0.702  11.427  0.0629 -0.6428 -0.2212
  962MOL0     C26895   2.417   0.732  11.519 -0.1036 -0.3204  0.0799
  962MOL0    Cl26896   2.259   0.646  11.483 -0.0321 -0.3169  0.6427
  962MOL0     C26897   3.236   0.041  11.061  0.5989 -0.2480 -0.0901
  962MOL0     C26898   3.344  -0.013  11.006  0.7090  0.1370 -0.1767
  962MOL0     O26899   3.543  -0.216  10.930 -0.3792  0.3296 -0.5593
  962MOL0     C26900   3.760  -0.274  10.788 -0.6560  0.4853 -0.6494
  962MOL0     C26901   3.880  -0.308  10.712  0.9962  0.5170 -0.7490
  962MOL0     N26902   4.652  -0.001  10.250 -0.3796  0.3290  0.8408
  962MOL0     N26903   4.678   0.124  10.229 -0.1220 -0.5792 -0.0422
  962MOL0     C26904   3.800   0.940   9.843 -0.1674 -0.1224  0.4461
  962MOL0     C26905   3.662   0.978   9.817 -0.2673 -0.2431 -0.5305
  962MOL0     C26906   3.283   1.079   9.616 -0.4173 -0.3024 -0.2394
  962MOL0     C26907   3.168   1.036   9.679  0.0210 -0.5351 -0.5507
  962MOL0     C26908   3.037   1.083   9.646 -0.4916 -0.5313 -0.2099
  962MOL0     C26909   3.020   1.179   9.547  0.9701  0.5114  0.3365
  962MOL0     O26910   2.899   1.228   9.498  0.6251 -0.2800 -0.3130
  962MOL0     C26911   2.780   1.240   9.583 -0.8376 -0.3331  0.7694
  962MOL0     C26912   2.681   1.124   9.568  0.2003  0.7583  0.0307
  962MOL0     C26913   2.559   1.150   9.658 -0.0632 -0.1171  0.1024
  962MOL0     C26914   2.457   1.034   9.661  0.5704  0.5704 -0.5499
  962MOL0     C26915   2.349   1.062   9.754 -0.1124  0.4935  0.4079
  962MOL0     C26916   2.254   1.087   9.825 -1.1498  0.0745 -0.3082
  962MOL0     C26917   3.132   1.213   9.480 -0.6715 -0.0895  0.9015
  962MOL0     C26918   3.264   1.168   9.514  0.7354  0.6322 -0.5055
  962MOL0     H26919   3.549   0.681   9.705  1.8240 -2.5212  2.5262
  962MOL0     H26920   3.768   0.614   9.765 -0.9286 -0.3319 -1.8390
  962MOL0     H26921   4.023   0.859   9.992  0.3954  0.5341 -0.1425
  962MOL0     H26922   4.094   0.906   9.842  1.7943  0.1005  0.2336
  962MOL0     H26923   4.241   0.722   9.806  1.5505 -2.1986  1.0309
  962MOL0     H26924   4.167   0.634   9.929 -0.8050 -0.3548  0.5183
  962MOL0     H26925   4.265   0.761  10.109 -0.9308  3.0204  1.0190
  962MOL0     H26926   4.307   0.896  10.003  2.6642  0.2187 -0.3546
  962MOL0     H26927   4.466   0.748   9.879  2.3031  1.6242 -0.0728
  962MOL0     H26928   4.513   0.787  10.039  1.9376 -1.2355 -1.7200
  962MOL0     H26929   4.541   0.553  10.008 -0.1035  3.6745 -1.8512
  962MOL0     H26930   4.371   0.532   9.973 -1.3681  2.0644 -0.4267
  962MOL0     H26931   4.337   0.595  10.210 -2.5830 -2.2403 -0.1705
  962MOL0     H26932   4.518   0.593  10.240 -1.8368 -0.2412  1.0721
  962MOL0     H26933   4.418   0.375  10.301 -2.8818  0.2235  0.1138
  962MOL0     H26934   4.339   0.370  10.139  1.8505  3.0294 -1.9133
  962MOL0     H26935   4.648   0.372  10.148 -0.0708  0.6877 -0.5436
  962MOL0     H26936   4.548   0.320  10.021  2.2900  1.9571  0.7502
  962MOL0     H26937   4.360   0.111  10.156  0.5076  1.2397 -5.4191
  962MOL0     H26938   4.498  -0.226  10.275 -0.4263 -0.6378 -0.5292
  962MOL0     H26939   4.365  -0.157  10.172 -1.8775  0.5188  0.4187
  962MOL0     H26940   4.298  -0.005  10.363  0.0446  0.6906  0.2789
  962MOL0     H26941   4.402  -0.095  10.471 -3.0895  2.4156  2.0989
  962MOL0     H26942   4.182  -0.250  10.322  0.3850 -0.8679  0.9394
  962MOL0     H26943   4.297  -0.293  10.452  1.4637 -0.9066 -1.3184
  962MOL0     H26944   4.090  -0.061  10.464  2.5769  1.1729  0.9057
  962MOL0     H26945   4.196  -0.110  10.591 -1.1234  1.1334  0.7593
  962MOL0     H26946   3.981   0.011  10.636 -0.4145  0.4076  1.4442
  962MOL0     H26947   3.807   0.062  10.786  0.6523  0.8817 -3.1642
  962MOL0     H26948   3.535   0.265  10.953 -0.5037  0.0156 -0.4278
  962MOL0     H26949   3.344   0.362  11.074 -1.1551  0.0965  0.2251
  962MOL0     H26950   3.003   0.073  11.097 -1.8485 -0.3007  2.2401
  962MOL0     H26951   2.975   0.231  11.011  3.0210  0.3394 -1.5888
  962MOL0     H26952   2.881   0.142  11.293 -0.3412  0.1271 -0.2019
  962MOL0     H26953   2.787   0.179  11.163 -0.5628  1.9209 -0.1769
  962MOL0     H26954   2.891   0.419  11.167  1.8196 -1.4875 -0.7254
  962MOL0     H26955   2.945   0.379  11.331  0.3089 -0.5440  0.0833
  962MOL0     H26956   2.655   0.349  11.246 -0.1574  0.6130  0.0523
  962MOL0     H26957   2.711   0.324  11.409 -0.1456  0.8665  0.1989
  962MOL0     H26958   2.725   0.583  11.239 -0.4457 -0.0439 -1.0929
  962MOL0     H26959   2.780   0.565  11.410  1.0360 -1.2964 -0.1220
  962MOL0     H26960   2.543   0.490  11.468 -0.9926 -0.7042 -0.8923
  962MOL0     H26961   2.482   0.545  11.313  1.0913  2.1014 -1.2830
  962MOL0     H26962   2.621   0.745  11.479 -0.4333 -0.1373  0.1925
  962MOL0     H26963   2.520   0.762  11.337 -1.6346 -1.5859 -0.6068
  962MOL0     H26964   2.399   0.840  11.522 -0.2043 -0.2854 -1.2932
  962MOL0     H26965   2.442   0.696  11.619  0.6803 -2.3129 -0.7744
  962MOL0     H26966   3.164  -0.037  11.085  1.0404 -0.4535  0.5889
  962MOL0     H26967   3.345  -0.120  10.985  2.8951  0.3480 -1.5599
  962MOL0     H26968   3.713  -0.360  10.835  1.1099 -1.0500 -1.5428
  962MOL0     H26969   3.905  -0.414  10.714 -3.3142 -0.6914  0.9004
  962MOL0     H26970   3.875   1.012   9.874  0.2563  1.5482 -3.7000
  962MOL0     H26971   3.636   1.082   9.834 -0.4102 -0.4725  0.7354
  962MOL0     H26972   3.169   0.957   9.753 -1.4296 -0.4602 -0.4138
  962MOL0     H26973   2.956   1.035   9.700 -1.4652  1.1904 -0.0541
  962MOL0     H26974   2.728   1.333   9.559  0.4224 -0.0969 -1.2536
  962MOL0     H26975   2.804   1.251   9.689  2.1806 -1.3527  0.2818
  962MOL0     H26976   2.637   1.112   9.469 -0.5696 -4.9089  0.7085
  962MOL0     H26977   2.716   1.024   9.598 -1.5515  0.0123 -0.2886
  962MOL0     H26978   2.510   1.244   9.630  1.2136  0.2460 -1.0221
  962MOL0     H26979   2.587   1.164   9.763  0.3505 -2.2659  0.3277
  962MOL0     H26980   2.425   1.011   9.559  3.4929 -3.5566 -0.8095
  962MOL0     H26981   2.504   0.950   9.714  0.8314  1.2802  0.3664
  962MOL0     H26982   2.163   1.113   9.876 -2.2160  0.4172 -2.2770
  962MOL0     H26983   3.121   1.281   9.396 -3.1859 -2.5381 -0.9262
  962MOL0     H26984   3.347   1.202   9.453  1.0287 -1.1337 -1.1399
  963MOL0     O26985   9.916   5.293   1.700  0.2045  0.1274 -0.3598
  963MOL0     C26986   9.959   5.177   1.677  0.4774  0.3474 -0.6220
  963MOL0     O26987   9.890   5.063   1.700 -0.5089  0.0538 -0.1549
  963MOL0     C26988   9.765   5.067   1.747  0.3868  0.1573 -0.2113
  963MOL0     C26989   9.672   5.137   1.676 -0.4558 -0.0914  0.2984
  963MOL0     C26990   9.535   5.139   1.703  0.2695  0.0609  0.1873
  963MOL0     C26991   9.489   5.076   1.819 -0.5247 -0.1110 -0.0355
  963MOL0     O26992   9.361   5.093   1.849 -0.2429 -0.0883 -0.1987
  963MOL0     C26993   9.293   4.967   1.857  0.2322  0.2883 -0.0566
  963MOL0     C26994   9.143   4.984   1.831 -0.4408  0.1541 -0.0573
  963MOL0     C26995   9.073   5.060   1.935  0.4850 -0.6165  0.1098
  963MOL0     C26996   8.916   5.058   1.920  0.6833 -0.2436  0.4245
  963MOL0     C26997   8.847   4.942   1.983  0.3879  0.6181 -0.3218
  963MOL0     C26998   8.698   4.921   1.952  0.6811  0.3953  0.0286
  963MOL0     C26999   8.671   4.871   1.812  0.4396  0.4615  0.3513
  963MOL0     C27000   8.518   4.819   1.800  0.0688 -0.6169  0.0764
  963MOL0     N27001   8.445   4.945   1.804  0.5437 -0.8056 -0.0568
  963MOL0     C27002   8.350   4.983   1.896  0.0015  0.1266  0.1567
  963MOL0     C27003   8.289   5.093   1.849  0.6352 -0.0755 -0.0278
  963MOL0     C27004   8.187   5.169   1.928  0.7958  0.0010  0.4494
  963MOL0     C27005   8.046   5.128   1.881 -0.4058  0.2160 -0.3884
  963MOL0     C27006   7.966   5.082   2.005  0.3607  0.3403  0.3305
  963MOL0     C27007   7.832   5.020   1.959 -0.9024 -0.1592 -0.0202
  963MOL0     O27008   7.849   4.890   1.901 -0.6833 -0.2812 -0.2664
  963MOL0     C27009   7.741   4.820   1.860  1.0366 -0.3905  0.3060
  963MOL0     C27010   7.761   4.696   1.803  0.0473 -0.3040 -0.0874
  963MOL0     C27011   7.655   4.616   1.758 -0.2638 -0.1646 -1.0374
  963MOL0     C27012   7.527   4.660   1.774 -0.0136  0.7600 -0.4758
  963MOL0     C27013   7.410   4.582   1.718  0.4627  0.1837 -0.2858
  963MOL0     O27014   7.295   4.648   1.725 -0.2644  0.5271  0.1023
  963MOL0     C27015   7.177   4.601   1.673  0.7147  0.3767  0.9623
  963MOL0     C27016   7.154   4.497   1.579 -0.3787 -0.3238 -0.2983
  963MOL0     C27017   7.032   4.457   1.533 -0.4088 -0.3447 -0.3813
  963MOL0     C27018   6.919   4.526   1.580  0.2026  0.7153  0.2958
  963MOL0     O27019   6.802   4.471   1.526 -0.0116  0.3002  0.1081
  963MOL0     C27020   6.679   4.510   1.579  0.8521 -0.3525  0.4200
  963MOL0     C27021   6.560   4.454   1.495 -0.7161  0.3207  0.0547
  963MOL0     C27022   6.418   4.484   1.560 -0.2523 -0.1137  0.2521
  963MOL0     C27023   6.303   4.468   1.465  0.0045 -0.0741 -0.1563
  963MOL0     C27024   6.169   4.508   1.515  0.5919  0.4428 -0.3835
  963MOL0     C27025   6.062   4.523   1.405 -0.3513  0.2965  0.3163
  963MOL0     C27026   6.101   4.611   1.282  0.3181 -0.2663  1.0524
  963MOL0     C27027   6.165   4.538   1.159  0.4797  0.1767  0.1557
  963MOL0    Cl27028   6.047   4.432   1.081 -0.0286  0.6147  0.0127
  963MOL0     C27029   6.932   4.628   1.675 -0.7227  0.2744  0.6068
  963MOL0     C27030   7.061   4.665   1.722 -0.2641  0.2582 -0.1803
  963MOL0     O27031   7.422   4.470   1.672 -0.2855  0.0783 -0.0680
  963MOL0     C27032   7.507   4.784   1.839 -0.3639 -0.4782  0.2818
  963MOL0     C27033   7.610   4.863   1.885  0.0437  0.2515 -0.9274
  963MOL0     N27034   8.345   5.131   1.732  0.0939 -0.5816  0.0875
  963MOL0     N27035   8.433   5.041   1.706  0.7952  0.5643  0.7737
  963MOL0     C27036   9.583   5.005   1.896 -0.2431 -0.7512 -0.5632
  963MOL0     C27037   9.721   5.000   1.860  0.4575  0.5683  0.0102
  963MOL0     C27038  10.097   5.164   1.628 -0.2891  0.4988  0.7479
  963MOL0     C27039  10.182   5.277   1.607  0.4504  0.0070 -0.6206
  963MOL0     C27040  10.308   5.266   1.551  0.3830 -0.0093  0.0726
  963MOL0     C27041  10.363   5.147   1.514  0.9487 -0.2803  0.4811
  963MOL0     O27042  10.492   5.144   1.459 -0.2052 -0.2267 -0.5100
  963MOL0     C27043  10.557   5.018   1.453  1.0817  0.4194  0.0089
  963MOL0     C27044  10.711   5.035   1.408  0.3037 -0.0092  0.8650
  963MOL0     C27045  10.716   5.045   1.246  0.3407  0.1790  0.0232
  963MOL0     C27046  10.857   5.058   1.197 -0.2307  0.3052 -0.4867
  963MOL0     C27047  10.914   5.177   1.254 -0.3220  0.7690 -0.4025
  963MOL0     C27048  10.949   5.282   1.302 -0.1416  0.1814  0.1246
  963MOL0     C27049  10.287   5.029   1.553  0.1685 -0.2214 -0.4175
  963MOL0     C27050  10.155   5.041   1.607 -0.3638 -0.2621  1.4120
  963MOL0     H27051   9.705   5.186   1.585 -1.3667  0.6954  0.3787
  963MOL0     H27052   9.469   5.184   1.630  1.9857 -0.1417 -1.5648
  963MOL0     H27053   9.301   4.921   1.957  0.1856  0.9076  0.2331
  963MOL0     H27054   9.330   4.897   1.781  0.2381 -0.1425  0.3356
  963MOL0     H27055   9.093   4.887   1.837  0.4134 -0.5066 -2.5575
  963MOL0     H27056   9.130   5.034   1.735  0.2593  0.6174  0.0803
  963MOL0     H27057   9.105   5.163   1.918 -0.6235 -0.6341 -2.6959
  963MOL0     H27058   9.092   5.013   2.032  0.8922 -3.0734 -1.0707
  963MOL0     H27059   8.883   5.147   1.975  0.2412  0.8304 -1.4824
  963MOL0     H27060   8.888   5.075   1.816 -0.7861  1.4902  1.0446
  963MOL0     H27061   8.860   4.965   2.090  0.7485  5.5368 -1.2030
  963MOL0     H27062   8.905   4.854   1.956 -1.8764 -1.0279 -0.1525
  963MOL0     H27063   8.632   5.006   1.972 -0.0120 -0.5737  2.1899
  963MOL0     H27064   8.658   4.841   2.015  1.1611 -1.6749 -2.1191
  963MOL0     H27065   8.692   4.953   1.743  0.8482  0.4272  0.4305
  963MOL0     H27066   8.730   4.781   1.796 -0.9466 -0.7790  1.9539
  963MOL0     H27067   8.494   4.751   1.882  4.1846 -2.5876 -0.1148
  963MOL0     H27068   8.498   4.765   1.708 -2.7222  0.1377  0.1450
  963MOL0     H27069   8.334   4.929   1.989  1.6791  0.9762  0.9810
  963MOL0     H27070   8.212   5.273   1.907  2.6153 -0.2324  1.3400
  963MOL0     H27071   8.207   5.146   2.033 -1.0327  1.2186  1.1065
  963MOL0     H27072   8.040   5.044   1.811 -0.2803  0.1815 -0.3575
  963MOL0     H27073   7.997   5.212   1.831  2.3031  1.8187 -0.5376
  963MOL0     H27074   8.018   5.014   2.072 -1.7067 -1.1591  0.5299
  963MOL0     H27075   7.951   5.170   2.067  1.4779  1.4376 -0.9007
  963MOL0     H27076   7.787   5.091   1.889  3.6547  2.1953 -0.9388
  963MOL0     H27077   7.759   5.026   2.041 -0.4785 -1.6140  0.5022
  963MOL0     H27078   7.864   4.662   1.793  0.3176  0.1108  1.1209
  963MOL0     H27079   7.680   4.518   1.720 -1.1333 -0.9650  0.3364
  963MOL0     H27080   7.242   4.447   1.541 -0.9442 -0.4818 -1.4238
  963MOL0     H27081   7.016   4.377   1.461 -0.1607 -1.0091  0.2906
  963MOL0     H27082   6.682   4.620   1.587  0.6183 -0.3455  0.4255
  963MOL0     H27083   6.673   4.462   1.677 -3.9497  0.2533  0.6974
  963MOL0     H27084   6.557   4.345   1.493  0.4543  0.2292  1.5629
  963MOL0     H27085   6.565   4.492   1.393  0.5046  0.6630  0.2210
  963MOL0     H27086   6.417   4.590   1.585 -0.4984 -0.2300  0.7407
  963MOL0     H27087   6.417   4.417   1.647  0.7266 -1.3177 -0.6136
  963MOL0     H27088   6.321   4.537   1.382  0.5224 -0.7472 -0.6122
  963MOL0     H27089   6.295   4.361   1.444  0.7849 -0.1386 -0.1707
  963MOL0     H27090   6.181   4.597   1.577  1.7886  0.4849 -0.6529
  963MOL0     H27091   6.132   4.425   1.575  0.2192 -0.2541 -1.5426
  963MOL0     H27092   5.968   4.561   1.445 -0.1803  2.5827 -1.2649
  963MOL0     H27093   6.039   4.426   1.360 -0.5827  0.5988 -0.2103
  963MOL0     H27094   6.010   4.658   1.245  0.7763 -0.1997 -0.0494
  963MOL0     H27095   6.170   4.689   1.316  0.6643  0.6519 -1.5251
  963MOL0     H27096   6.248   4.477   1.196  0.2593 -0.6026 -0.6052
  963MOL0     H27097   6.204   4.611   1.087 -1.2971 -0.4543 -1.5095
  963MOL0     H27098   6.842   4.673   1.713 -0.0806  2.3202 -0.1557
  963MOL0     H27099   7.090   4.739   1.796 -0.1606 -0.8226  0.8796
  963MOL0     H27100   7.408   4.827   1.854  0.1456  0.0211  2.5740
  963MOL0     H27101   7.593   4.959   1.934 -0.4256  0.0114 -0.6178
  963MOL0     H27102   9.560   4.960   1.992 -1.7796 -0.4186 -0.7487
  963MOL0     H27103   9.784   4.946   1.930  2.2620  2.6360  0.1160
  963MOL0     H27104  10.145   5.375   1.635 -0.5322  0.4337 -3.0533
  963MOL0     H27105  10.371   5.353   1.534  0.1000 -0.0740 -1.3971
  963MOL0     H27106  10.504   4.940   1.399  0.7011  0.8949 -0.3140
  963MOL0     H27107  10.554   4.984   1.557 -0.9886  0.1238 -0.1209
  963MOL0     H27108  10.749   5.129   1.449 -0.4144  1.6478 -1.9940
  963MOL0     H27109  10.780   4.959   1.446  0.3708  0.3460  1.4659
  963MOL0     H27110  10.669   5.134   1.203  0.3355  0.3120  0.3003
  963MOL0     H27111  10.673   4.952   1.208 -0.5691 -0.5491  2.6087
  963MOL0     H27112  10.918   4.978   1.239 -0.6200 -0.3135 -1.0842
  963MOL0     H27113  10.867   5.061   1.088 -0.9303  1.5236 -0.5313
  963MOL0     H27114  10.985   5.374   1.345  1.2303 -0.0557 -0.4512
  963MOL0     H27115  10.339   4.934   1.542  1.3622 -0.1727  3.3826
  963MOL0     H27116  10.099   4.950   1.628  0.3143 -0.8001  0.9490
  964MOL0     O27117   7.130   8.867   8.623 -0.0236  0.4618 -0.3817
  964MOL0     C27118   7.166   8.952   8.546 -0.2478  0.0481  0.5716
  964MOL0     O27119   7.089   8.996   8.442 -0.4157  0.2320  0.6398
  964MOL0     C27120   6.976   8.934   8.408  0.2153 -0.7882 -0.1177
  964MOL0     C27121   6.850   8.966   8.476  0.1521 -0.1726 -0.1182
  964MOL0     C27122   6.726   8.922   8.434 -0.3559 -0.3290 -0.0927
  964MOL0     C27123   6.722   8.816   8.339  0.2936 -0.1145  0.2433
  964MOL0     O27124   6.607   8.766   8.295  1.3805 -0.9861 -0.3697
  964MOL0     C27125   6.486   8.777   8.368  0.4842  0.5595  0.1263
  964MOL0     C27126   6.393   8.876   8.315 -0.3753  0.3297 -0.4118
  964MOL0     C27127   6.248   8.831   8.339 -0.3297  0.3514 -0.9401
  964MOL0     C27128   6.158   8.947   8.293  0.2995  0.3512  0.1323
  964MOL0     C27129   6.010   8.919   8.348  0.6984 -0.6695  0.3081
  964MOL0     C27130   5.898   9.025   8.302  0.1703  0.4909  0.5809
  964MOL0     C27131   5.943   9.165   8.336  0.0338  0.3909 -0.4030
  964MOL0     C27132   5.853   9.275   8.285  0.1286  0.6358  0.5820
  964MOL0     N27133   5.727   9.275   8.359  0.2551 -0.0217  0.5950
  964MOL0     C27134   5.687   9.387   8.432  0.2685 -0.9773  0.4152
  964MOL0     C27135   5.551   9.369   8.444 -0.0349 -0.9066  0.0366
  964MOL0     C27136   5.454   9.443   8.543 -0.6508  0.7410  0.4106
  964MOL0     C27137   5.410   9.577   8.482  0.1665 -0.0243  1.1245
  964MOL0     C27138   5.313   9.657   8.570 -0.3063 -0.2636 -0.0316
  964MOL0     C27139   5.287   9.802   8.526 -0.2747  0.0413 -0.1337
  964MOL0     O27140   5.167   9.812   8.447  0.0130  0.1778 -0.1931
  964MOL0     C27141   5.036   9.821   8.496  0.3345  0.0398  0.1183
  964MOL0     C27142   4.934   9.844   8.402  0.5348 -0.1945  0.1962
  964MOL0     C27143   4.810   9.879   8.454  0.2187 -0.1612 -0.0188
  964MOL0     C27144   4.772   9.867   8.590  1.2715 -0.5264  0.0686
  964MOL0     C27145   4.629   9.880   8.635 -0.7418 -0.5675 -0.6128
  964MOL0     O27146   4.542   9.899   8.540  0.3570 -0.1403 -0.2781
  964MOL0     C27147   4.412   9.924   8.573  0.4726  0.0580  0.3638
  964MOL0     C27148   4.368  10.004   8.679 -0.1548  0.6921  0.2990
  964MOL0     C27149   4.233  10.007   8.708  0.1831 -0.3063  0.3694
  964MOL0     C27150   4.140   9.934   8.624  0.6655  0.5576  0.1165
  964MOL0     O27151   4.013   9.909   8.669 -0.2798 -0.1451  0.3714
  964MOL0     C27152   3.899   9.897   8.581 -0.1600 -0.0851  0.1731
  964MOL0     C27153   3.782   9.975   8.633  0.1657  0.1141 -0.0169
  964MOL0     C27154   3.723   9.908   8.760  0.1541  0.4586  0.1907
  964MOL0     C27155   3.645  10.019   8.836 -0.1736  0.2406  0.1068
  964MOL0     C27156   3.569   9.970   8.949 -0.0374 -0.0569 -0.2287
  964MOL0     C27157   3.533  10.097   9.041  0.5468  0.4473 -0.1111
  964MOL0     C27158   3.422  10.074   9.142  0.5523  0.9064 -0.0492
  964MOL0     C27159   3.389  10.196   9.226  0.0288  0.0509  0.3985
  964MOL0    Cl27160   3.537  10.238   9.303  0.3929 -0.0880 -0.1058
  964MOL0     C27161   4.180   9.877   8.502  0.2814 -0.2219  0.0282
  964MOL0     C27162   4.316   9.870   8.477 -0.6586 -0.7008 -1.1482
  964MOL0     O27163   4.608   9.865   8.754  0.5485 -0.0565  0.0734
  964MOL0     C27164   4.875   9.843   8.682 -0.5675 -0.1013 -0.2116
  964MOL0     C27165   5.008   9.830   8.635 -0.4758  1.0757  0.5108
  964MOL0     N27166   5.521   9.252   8.389  0.0053  0.0520 -0.4360
  964MOL0     N27167   5.623   9.193   8.341  0.4537  0.5842  0.1208
  964MOL0     C27168   6.838   8.789   8.264 -0.2749  0.6401 -0.5429
  964MOL0     C27169   6.966   8.843   8.298  0.3173 -0.0270 -0.0721
  964MOL0     C27170   7.292   9.031   8.564 -0.5091 -0.2877 -0.6550
  964MOL0     C27171   7.381   8.994   8.669 -0.0516  0.1291  0.0768
  964MOL0     C27172   7.496   9.081   8.701 -0.3817  0.7155  0.2570
  964MOL0     C27173   7.539   9.173   8.609 -0.5018 -0.8739  0.4354
  964MOL0     O27174   7.657   9.242   8.637 -0.5353  0.6132 -0.0174
  964MOL0     C27175   7.722   9.323   8.536 -0.8150 -0.8584 -0.1451
  964MOL0     C27176   7.828   9.239   8.459 -0.1021  0.2795 -0.2612
  964MOL0     C27177   7.966   9.240   8.534 -0.1274 -0.7805 -0.0755
  964MOL0     C27178   7.965   9.188   8.675 -0.2633  0.2804  0.5229
  964MOL0     C27179   8.107   9.183   8.713  0.1024 -0.8486  0.0701
  964MOL0     C27180   8.221   9.174   8.738 -0.9642  0.5564 -0.1252
  964MOL0     C27181   7.460   9.200   8.496 -0.0748 -0.4545  0.4594
  964MOL0     C27182   7.336   9.140   8.481 -0.1348  0.7850 -0.1528
  964MOL0     H27183   6.849   9.040   8.556 -1.6439 -0.7989  0.4819
  964MOL0     H27184   6.638   8.966   8.481 -0.9821  0.0221 -1.5392
  964MOL0     H27185   6.498   8.791   8.475 -0.5338 -2.0626  0.6614
  964MOL0     H27186   6.442   8.677   8.359  0.2174  0.7371 -0.7105
  964MOL0     H27187   6.409   8.907   8.212 -0.2614  0.5521 -0.3280
  964MOL0     H27188   6.416   8.972   8.363 -2.6381  1.1231 -0.8017
  964MOL0     H27189   6.218   8.804   8.440 -2.0202  0.5942 -1.3500
  964MOL0     H27190   6.228   8.757   8.261  0.1042  1.4058 -2.0878
  964MOL0     H27191   6.193   9.040   8.337  1.5621  0.4576 -1.0323
  964MOL0     H27192   6.153   8.955   8.184  1.2450  1.3296  0.1532
  964MOL0     H27193   6.014   8.923   8.457  1.5406 -1.1274  0.3030
  964MOL0     H27194   5.977   8.818   8.320 -3.1211 -0.7161  3.9598
  964MOL0     H27195   5.812   9.006   8.367  1.5614  0.7126  2.5641
  964MOL0     H27196   5.868   9.010   8.198 -2.5176 -0.7325  1.4235
  964MOL0     H27197   5.959   9.179   8.443  1.3653 -1.7665 -0.2593
  964MOL0     H27198   6.042   9.179   8.293  0.2201 -3.5188 -1.6846
  964MOL0     H27199   5.831   9.263   8.178 -0.4637  0.6250  0.6984
  964MOL0     H27200   5.906   9.369   8.299 -0.6738  1.7746 -3.0571
  964MOL0     H27201   5.749   9.464   8.478 -2.7628  0.4330  2.4587
  964MOL0     H27202   5.501   9.458   8.640  2.8584  0.8658 -1.1518
  964MOL0     H27203   5.360   9.389   8.555 -0.9794  0.6599 -1.9291
  964MOL0     H27204   5.368   9.566   8.382  0.6213 -0.0283  0.9314
  964MOL0     H27205   5.503   9.633   8.469 -0.7041  0.9866 -1.3697
  964MOL0     H27206   5.224   9.603   8.604 -0.3870 -0.2741 -0.2552
  964MOL0     H27207   5.373   9.673   8.660  0.2526  2.1126 -0.7652
  964MOL0     H27208   5.373   9.848   8.476  1.2386  0.5325  2.7008
  964MOL0     H27209   5.283   9.855   8.622 -0.9019  1.5305 -0.9370
  964MOL0     H27210   4.961   9.861   8.298  2.2990  0.4116  0.7084
  964MOL0     H27211   4.734   9.902   8.380 -1.0454  1.6891  1.7509
  964MOL0     H27212   4.442  10.060   8.735  0.8550 -2.1193  1.9578
  964MOL0     H27213   4.201  10.057   8.799 -0.5174  3.3444 -1.6643
  964MOL0     H27214   3.875   9.793   8.561  2.1321 -0.4141 -1.3100
  964MOL0     H27215   3.928   9.938   8.483  0.1447 -0.9145 -0.0915
  964MOL0     H27216   3.705   9.978   8.555  0.5006 -0.7599 -0.3907
  964MOL0     H27217   3.816  10.078   8.647  0.0881  0.1957 -0.3968
  964MOL0     H27218   3.806   9.863   8.815  1.2284 -0.9322 -2.3722
  964MOL0     H27219   3.658   9.822   8.740  1.0589  0.0440 -1.1542
  964MOL0     H27220   3.720  10.091   8.871  0.0918  0.9914 -1.8670
  964MOL0     H27221   3.572  10.062   8.767 -1.3230 -0.2073  1.0010
  964MOL0     H27222   3.622   9.891   9.004  2.5214  2.6035  1.4154
  964MOL0     H27223   3.483   9.925   8.898  0.3172 -1.5777  0.4659
  964MOL0     H27224   3.494  10.169   8.969 -1.4159 -0.0043  0.4408
  964MOL0     H27225   3.625  10.139   9.082  0.0218  1.1121  0.3938
  964MOL0     H27226   3.334  10.035   9.090  1.7425 -0.0691 -1.3998
  964MOL0     H27227   3.451   9.995   9.213 -2.9215 -0.0982  0.4571
  964MOL0     H27228   3.301  10.178   9.289 -0.7507  1.9928 -0.0616
  964MOL0     H27229   3.374  10.279   9.156 -1.1480 -1.5147 -1.3128
  964MOL0     H27230   4.109   9.827   8.437 -3.1188  2.6698  1.1983
  964MOL0     H27231   4.357   9.828   8.386 -0.7045 -1.1267 -0.9750
  964MOL0     H27232   4.844   9.826   8.785  0.3172 -2.9897 -0.3242
  964MOL0     H27233   5.089   9.817   8.706  0.0263 -1.4763 -0.4176
  964MOL0     H27234   6.846   8.722   8.180  0.7529 -1.2898  1.0037
  964MOL0     H27235   7.052   8.821   8.236 -0.0825 -1.3477 -0.1704
  964MOL0     H27236   7.354   8.906   8.725 -2.0256  1.0791  0.7162
  964MOL0     H27237   7.570   9.058   8.777  1.8399  0.0509 -1.9681
  964MOL0     H27238   7.772   9.411   8.577 -3.5348  1.3563 -1.2398
  964MOL0     H27239   7.650   9.368   8.466  0.8154  1.8685 -0.2267
  964MOL0     H27240   7.783   9.143   8.433  1.2569 -0.0410 -1.5454
  964MOL0     H27241   7.846   9.285   8.361 -1.6962 -0.0820 -0.7569
  964MOL0     H27242   8.006   9.342   8.537  1.5209 -1.3908 -0.1249
  964MOL0     H27243   8.036   9.181   8.473 -0.1532 -0.2148 -0.6662
  964MOL0     H27244   7.908   9.257   8.738 -0.4560  1.5484 -0.9912
  964MOL0     H27245   7.925   9.086   8.676  3.3270 -1.5423 -3.7169
  964MOL0     H27246   8.320   9.143   8.763 -0.3178  2.3662 -0.2955
  964MOL0     H27247   7.495   9.263   8.415  3.1849 -1.9848  0.5260
  964MOL0     H27248   7.273   9.164   8.397 -0.1686  4.6345  0.7869
  965MOL0     O27249   1.835   9.279  10.136  0.3220 -0.2363 -0.3438
  965MOL0     C27250   1.835   9.247  10.014  0.4528 -0.1711 -0.8747
  965MOL0     O27251   1.725   9.189   9.949 -0.0838  0.3972  0.5997
  965MOL0     C27252   1.609   9.219  10.009  0.2477  0.1957  0.2885
  965MOL0     C27253   1.526   9.318   9.954  0.7599  0.2472  0.5704
  965MOL0     C27254   1.404   9.347  10.013  0.1025 -0.5682 -0.5069
  965MOL0     C27255   1.366   9.290  10.139  0.2706  0.3523  0.9923
  965MOL0     O27256   1.241   9.329  10.177 -0.5884  0.0667 -0.4141
  965MOL0     C27257   1.165   9.243  10.262 -0.0264 -0.9548  0.0997
  965MOL0     C27258   1.029   9.303  10.275 -1.4898  0.0174  0.0605
  965MOL0     C27259   0.960   9.248  10.392 -0.6644 -0.5391 -1.2515
  965MOL0     C27260   0.818   9.296  10.405 -0.0259 -0.1298 -0.7640
  965MOL0     C27261   0.744   9.261  10.279  0.0853 -0.0436 -0.2368
  965MOL0     C27262   0.592   9.232  10.309  0.4675  0.3797  0.1803
  965MOL0     C27263   0.526   9.152  10.195  0.2465 -0.1200 -0.2197
  965MOL0     C27264   0.418   9.056  10.250  0.1756 -0.7399  0.1269
  965MOL0     N27265   0.305   9.118  10.324 -0.2859  0.3902 -0.9034
  965MOL0     C27266   0.234   9.234  10.291  0.4841 -0.3881 -0.2195
  965MOL0     C27267   0.116   9.237  10.355  0.3975  0.5508 -0.3890
  965MOL0     C27268   0.009   9.338  10.366 -0.1295 -0.5842  0.0556
  965MOL0     C27269  -0.094   9.310  10.262  0.8132  0.0682  0.2890
  965MOL0     C27270  -0.230   9.389  10.273 -0.2632 -0.1597 -0.3231
  965MOL0     C27271  -0.215   9.540  10.247  0.6597 -0.2513  0.2474
  965MOL0     O27272  -0.171   9.591  10.381 -0.2011  0.0644 -0.1363
  965MOL0     C27273  -0.121   9.722  10.390  0.0309 -0.0735 -0.2257
  965MOL0     C27274  -0.047   9.740  10.512  0.4163 -0.5773  0.7793
  965MOL0     C27275   0.018   9.856  10.534 -0.1013 -0.1491  0.0377
  965MOL0     C27276   0.027   9.957  10.432  0.6581 -0.2974 -0.1116
  965MOL0     C27277   0.113  10.069  10.464 -1.3251  0.2785  0.4577
  965MOL0     O27278   0.205  10.045  10.565 -0.1389 -0.2283  0.1132
  965MOL0     C27279   0.285  10.139  10.623 -0.4103 -0.5147 -0.1908
  965MOL0     C27280   0.238  10.267  10.650 -0.5507  0.0542 -0.1011
  965MOL0     C27281   0.311  10.365  10.728 -0.0299 -0.1933 -0.0743
  965MOL0     C27282   0.449  10.327  10.750 -0.0964 -1.0166  0.1901
  965MOL0     O27283   0.514  10.446  10.792 -0.2474  0.3124  0.5142
  965MOL0     C27284   0.604  10.396  10.890 -0.3226  0.5527  0.4943
  965MOL0     C27285   0.669  10.511  10.968 -0.1809  0.3956 -0.3613
  965MOL0     C27286   0.707  10.630  10.879 -0.2359 -0.4620  0.1068
  965MOL0     C27287   0.774  10.599  10.739  0.2689  0.1409 -0.1636
  965MOL0     C27288   0.867  10.704  10.701 -0.8084  0.5003  0.6452
  965MOL0     C27289   0.864  10.735  10.549  0.2961 -0.4167 -0.3208
  965MOL0     C27290   0.959  10.857  10.524 -0.4189 -0.5582  0.0481
  965MOL0     C27291   0.903  10.994  10.530  0.6598 -1.0036 -0.6115
  965MOL0    Cl27292   1.042  11.117  10.547 -0.2271 -0.2070  0.5020
  965MOL0     C27293   0.510  10.209  10.703 -0.5395 -0.5038 -0.2883
  965MOL0     C27294   0.426  10.114  10.639 -0.5356  0.5105 -0.1568
  965MOL0     O27295   0.117  10.163  10.387 -0.0345 -0.4826 -0.0237
  965MOL0     C27296  -0.051   9.946  10.311  0.0688 -0.2130  0.0042
  965MOL0     C27297  -0.129   9.828  10.295  0.3412 -0.2307 -0.2167
  965MOL0     N27298   0.114   9.119  10.427  0.3342 -0.2032 -0.5492
  965MOL0     N27299   0.226   9.046  10.410 -0.2406 -0.2663  0.5108
  965MOL0     C27300   1.444   9.188  10.191 -0.3025 -0.2934  1.0561
  965MOL0     C27301   1.565   9.151  10.124  0.0689  0.7154  0.9156
  965MOL0     C27302   1.965   9.242   9.947 -0.2628  0.1612  0.1621
  965MOL0     C27303   1.981   9.227   9.806 -0.2724 -0.5920 -0.4891
  965MOL0     C27304   2.110   9.228   9.746 -0.7528  0.6777 -0.1882
  965MOL0     C27305   2.233   9.232   9.825 -0.4939  0.4195  0.4234
  965MOL0     O27306   2.357   9.236   9.771  0.3855 -0.6443  0.2892
  965MOL0     C27307   2.371   9.288   9.642  0.1256 -0.9451 -0.2897
  965MOL0     C27308   2.517   9.351   9.625 -0.3916 -0.2778 -0.7181
  965MOL0     C27309   2.625   9.244   9.633  0.5845  0.0797  0.2697
  965MOL0     C27310   2.773   9.286   9.688  0.7752 -0.0457 -0.0081
  965MOL0     C27311   2.840   9.382   9.597  0.3434  0.3962 -0.5041
  965MOL0     C27312   2.916   9.442   9.528  0.5121 -0.7269 -0.2833
  965MOL0     C27313   2.212   9.230   9.967  0.0724 -0.2467  1.0951
  965MOL0     C27314   2.085   9.242  10.024  0.5385  0.5247 -0.3964
  965MOL0     H27315   1.543   9.355   9.853  1.9698  2.8443  1.6255
  965MOL0     H27316   1.343   9.419   9.957  0.9250 -2.3296 -3.9307
  965MOL0     H27317   1.211   9.233  10.361 -0.2497 -0.0982  0.3056
  965MOL0     H27318   1.169   9.141  10.223  1.1876 -0.4045 -1.2658
  965MOL0     H27319   0.978   9.288  10.179  0.4046  0.4259 -1.0750
  965MOL0     H27320   1.039   9.410  10.294  2.7762 -0.4715  1.5968
  965MOL0     H27321   1.020   9.289  10.474  0.4067 -0.4967 -2.0347
  965MOL0     H27322   0.961   9.139  10.403  0.9334 -0.4151  0.1776
  965MOL0     H27323   0.770   9.245  10.489  0.4680 -0.7688 -0.8664
  965MOL0     H27324   0.824   9.405  10.417 -2.4269 -0.0962  1.0247
  965MOL0     H27325   0.796   9.175  10.235  0.0606 -0.9171  1.3753
  965MOL0     H27326   0.752   9.345  10.209 -0.6566  1.2365  1.1644
  965MOL0     H27327   0.534   9.324  10.323 -0.1715 -0.1357  0.9783
  965MOL0     H27328   0.584   9.175  10.401  0.8385 -0.5204 -0.3328
  965MOL0     H27329   0.480   9.228  10.132 -0.4619 -1.0325 -0.8374
  965MOL0     H27330   0.591   9.093  10.130  3.4775  3.4433 -0.5549
  965MOL0     H27331   0.458   8.977  10.315 -1.6457 -3.0430 -1.4081
  965MOL0     H27332   0.383   9.003  10.161 -4.5689  1.4773  0.3913
  965MOL0     H27333   0.272   9.319  10.236  3.6862 -0.4541  1.6496
  965MOL0     H27334   0.051   9.438  10.351 -1.6305  0.2658  1.1854
  965MOL0     H27335  -0.025   9.336  10.470 -0.9318 -1.3849 -0.2076
  965MOL0     H27336  -0.129   9.207  10.262  0.0035  0.3148 -0.8298
  965MOL0     H27337  -0.053   9.311  10.161 -1.0850 -1.7537 -0.5813
  965MOL0     H27338  -0.294   9.340  10.200 -0.0195 -0.4721 -0.3309
  965MOL0     H27339  -0.269   9.375  10.374  0.4625 -4.7716 -0.4798
  965MOL0     H27340  -0.313   9.586  10.228  0.0123 -1.1495  1.3203
  965MOL0     H27341  -0.146   9.568  10.166  0.6389  0.0303  0.3246
  965MOL0     H27342  -0.020   9.665  10.585  0.6686  0.5998  1.9378
  965MOL0     H27343   0.067   9.867  10.630 -0.5615  0.0296  0.2563
  965MOL0     H27344   0.136  10.300  10.639 -0.6298  0.3323  1.2924
  965MOL0     H27345   0.267  10.459  10.761  1.3609 -0.1549  1.7821
  965MOL0     H27346   0.691  10.342  10.850 -0.1075  0.3573  1.2051
  965MOL0     H27347   0.558  10.336  10.969 -1.5573  0.7227 -0.0844
  965MOL0     H27348   0.762  10.475  11.014 -0.4570  1.0212  0.7078
  965MOL0     H27349   0.605  10.539  11.052 -1.0062 -0.8881 -0.5284
  965MOL0     H27350   0.773  10.677  10.953 -0.7492 -1.5851  1.2994
  965MOL0     H27351   0.618  10.690  10.856 -0.6645 -1.2590 -0.3578
  965MOL0     H27352   0.834  10.507  10.734  1.1961  0.7965 -2.5227
  965MOL0     H27353   0.696  10.591  10.662  1.4103  3.6038 -1.8556
  965MOL0     H27354   0.968  10.678  10.735 -0.1427  1.8221 -0.2513
  965MOL0     H27355   0.844  10.796  10.755  1.4068  1.0042  0.8330
  965MOL0     H27356   0.763  10.753  10.511  0.9324 -0.9843 -2.4361
  965MOL0     H27357   0.904  10.649  10.494 -0.4675 -0.5303 -0.7087
  965MOL0     H27358   1.046  10.860  10.590  1.7199  0.2111 -2.6554
  965MOL0     H27359   0.995  10.843  10.422 -1.5683 -1.9200 -0.2003
  965MOL0     H27360   0.846  11.001  10.624 -1.1050  1.3376 -1.7596
  965MOL0     H27361   0.844  11.027  10.444 -0.2976 -0.9815  0.0395
  965MOL0     H27362   0.617  10.195  10.711 -0.5365 -0.2103  0.2586
  965MOL0     H27363   0.461  10.018  10.603 -2.6829 -0.3893 -0.0002
  965MOL0     H27364  -0.043  10.024  10.236  4.3307 -0.2651  0.1467
  965MOL0     H27365  -0.185   9.810  10.204 -0.8864 -0.4133  0.5506
  965MOL0     H27366   1.410   9.122  10.270 -1.5945 -0.2015  0.6037
  965MOL0     H27367   1.613   9.060  10.159  0.8989  0.2987 -1.1461
  965MOL0     H27368   1.888   9.230   9.751 -0.3264  1.2862 -0.3909
  965MOL0     H27369   2.123   9.225   9.638  0.8567  3.7923 -0.1826
  965MOL0     H27370   2.301   9.368   9.618 -0.3693 -2.1268 -3.1615
  965MOL0     H27371   2.354   9.211   9.566  0.0156  0.3564 -1.6227
  965MOL0     H27372   2.515   9.393   9.524 -0.0621 -1.2145 -1.1242
  965MOL0     H27373   2.533   9.425   9.704 -1.1101 -1.5733  0.6982
  965MOL0     H27374   2.639   9.216   9.529  2.8768 -1.5493  0.9395
  965MOL0     H27375   2.591   9.151   9.680  1.9670 -0.5184  0.1334
  965MOL0     H27376   2.757   9.347   9.778 -0.1326 -1.7663  1.0585
  965MOL0     H27377   2.836   9.198   9.708  1.2308  0.5504  1.3153
  965MOL0     H27378   2.981   9.494   9.461 -1.0259  2.5539  0.5294
  965MOL0     H27379   2.296   9.231  10.035  1.6377 -1.7853 -0.6739
  965MOL0     H27380   2.071   9.242  10.132 -3.2698  3.3706 -0.6811
  966MOL0     O27381   7.260   8.418   7.392 -0.7312 -0.3339  0.4530
  966MOL0     C27382   7.342   8.348   7.324  1.2392 -0.4797 -0.4505
  966MOL0     O27383   7.307   8.229   7.258  0.0848  0.2726  0.1623
  966MOL0     C27384   7.169   8.201   7.249 -0.5834  0.0691  0.1209
  966MOL0     C27385   7.105   8.122   7.349  0.2884 -0.0464  0.5235
  966MOL0     C27386   6.967   8.095   7.347 -0.5102  0.2513 -0.0001
  966MOL0     C27387   6.887   8.149   7.248  0.6176 -0.8903  0.2072
  966MOL0     O27388   6.751   8.137   7.239 -0.1280 -0.4093  0.3918
  966MOL0     C27389   6.680   8.081   7.349 -0.5769  0.4443 -0.1963
  966MOL0     C27390   6.537   8.094   7.332 -0.2620 -0.9521  0.1032
  966MOL0     C27391   6.475   8.049   7.202  0.1230 -1.1022  0.2121
  966MOL0     C27392   6.318   8.065   7.220  0.4712  0.6453 -0.2059
  966MOL0     C27393   6.255   7.992   7.096 -0.4317 -0.2982 -0.9290
  966MOL0     C27394   6.100   8.003   7.112  0.7525 -0.2455  0.1112
  966MOL0     C27395   6.028   7.919   7.010  0.5934 -0.0598  0.5495
  966MOL0     C27396   5.869   7.917   7.010 -1.1642 -0.7498 -0.8087
  966MOL0     N27397   5.819   7.840   6.901  0.3028  0.1287  0.1289
  966MOL0     C27398   5.731   7.882   6.808  0.0777 -0.0241 -0.8080
  966MOL0     C27399   5.696   7.771   6.741 -0.3899  0.1707 -0.0878
  966MOL0     C27400   5.601   7.772   6.621 -0.3699 -0.8832  0.2199
  966MOL0     C27401   5.487   7.867   6.616  0.0392 -0.5876 -0.4467
  966MOL0     C27402   5.404   7.885   6.744 -0.0670  0.6948  0.1329
  966MOL0     C27403   5.270   7.952   6.731 -0.2075 -0.6453  0.2925
  966MOL0     O27404   5.164   7.884   6.672 -0.0909  0.5945 -0.0558
  966MOL0     C27405   5.048   7.952   6.660 -0.0643 -0.0401 -0.3887
  966MOL0     C27406   4.937   7.873   6.622 -0.9416 -0.5019 -0.4927
  966MOL0     C27407   4.810   7.930   6.626  0.0789  0.4663  0.5641
  966MOL0     C27408   4.791   8.063   6.641 -0.5509  0.0203  0.5114
  966MOL0     C27409   4.660   8.119   6.600  0.2315 -0.1682  0.7259
  966MOL0     O27410   4.580   8.040   6.514 -0.9049 -0.2719 -0.2433
  966MOL0     C27411   4.445   8.068   6.515  0.2844  0.5134  0.0068
  966MOL0     C27412   4.371   8.106   6.404  0.4104 -0.6045 -0.9274
  966MOL0     C27413   4.232   8.127   6.406 -0.1009 -0.3507  0.1571
  966MOL0     C27414   4.158   8.113   6.526 -0.3598 -0.2299 -0.5492
  966MOL0     O27415   4.025   8.142   6.521  0.9055  0.4968  0.1935
  966MOL0     C27416   3.952   8.167   6.645 -0.5616  0.4294 -0.1012
  966MOL0     C27417   3.813   8.207   6.598  0.7601  0.4201  0.3251
  966MOL0     C27418   3.738   8.286   6.696 -1.1050  0.3411 -0.6187
  966MOL0     C27419   3.807   8.425   6.698 -0.0389  0.2786 -0.5244
  966MOL0     C27420   3.783   8.492   6.836 -0.0052  0.3566  0.2808
  966MOL0     C27421   3.842   8.641   6.845  0.3261  0.4333  0.7135
  966MOL0     C27422   3.840   8.685   6.986  0.2420  0.6665 -0.1301
  966MOL0     C27423   3.956   8.644   7.074  0.2974 -0.1629 -0.3236
  966MOL0    Cl27424   3.906   8.681   7.250  0.6645 -0.2436  0.5295
  966MOL0     C27425   4.229   8.060   6.639 -0.1669  0.2982 -0.2130
  966MOL0     C27426   4.367   8.040   6.629  0.3009 -0.5211  0.1712
  966MOL0     O27427   4.637   8.232   6.637 -0.1575 -0.9670 -0.3826
  966MOL0     C27428   4.901   8.146   6.670 -0.6423  0.1580 -0.3190
  966MOL0     C27429   5.034   8.087   6.690  0.5117 -0.9184  0.1376
  966MOL0     N27430   5.757   7.660   6.794 -0.1378  0.2866 -0.7188
  966MOL0     N27431   5.834   7.711   6.892  0.2314 -0.1749 -0.1206
  966MOL0     C27432   6.950   8.230   7.152  0.3403 -0.1877  0.2599
  966MOL0     C27433   7.087   8.253   7.153 -0.6354  0.2048 -0.5891
  966MOL0     C27434   7.486   8.394   7.335  0.6923  0.6574  0.4787
  966MOL0     C27435   7.513   8.524   7.386  0.2527  0.3153  0.3890
  966MOL0     C27436   7.643   8.552   7.416 -0.3942  0.4534  0.2816
  966MOL0     C27437   7.745   8.456   7.400  0.1790 -0.3909  0.5314
  966MOL0     O27438   7.870   8.508   7.410  0.0549 -0.1041  0.1694
  966MOL0     C27439   7.981   8.420   7.399 -0.3792 -0.4350 -0.3497
  966MOL0     C27440   8.110   8.503   7.412 -0.3799  0.2930 -0.6015
  966MOL0     C27441   8.229   8.419   7.434 -0.3399  0.2054  0.2552
  966MOL0     C27442   8.350   8.510   7.474 -0.5971  0.7767  0.3492
  966MOL0     C27443   8.461   8.417   7.497 -0.1547 -0.6198 -0.7272
  966MOL0     C27444   8.550   8.337   7.512 -0.1052 -0.5486 -0.6490
  966MOL0     C27445   7.714   8.325   7.356  0.3334 -0.0973  0.7723
  966MOL0     C27446   7.583   8.296   7.318 -0.0957  0.3241 -0.6020
  966MOL0     H27447   7.166   8.083   7.430 -1.8416 -1.5190  1.5201
  966MOL0     H27448   6.926   8.041   7.432 -1.7435  0.4330 -0.4583
  966MOL0     H27449   6.709   8.127   7.444 -1.7486 -4.4986  2.9046
  966MOL0     H27450   6.699   7.974   7.355  0.9114  0.4007 -3.6429
  966MOL0     H27451   6.518   8.202   7.337  2.0272 -0.3423 -2.1747
  966MOL0     H27452   6.485   8.041   7.412 -2.2667 -2.0579 -1.8426
  966MOL0     H27453   6.512   7.947   7.186 -3.2141 -2.6143  1.2226
  966MOL0     H27454   6.485   8.122   7.121 -1.1855  0.0321  1.0231
  966MOL0     H27455   6.279   8.033   7.317 -1.4131  0.9093 -0.8358
  966MOL0     H27456   6.283   8.166   7.199 -1.4556  0.2379  0.8119
  966MOL0     H27457   6.283   7.888   7.078 -1.9545 -0.4406 -2.8971
  966MOL0     H27458   6.288   8.043   7.005  2.7342  2.0265  1.3142
  966MOL0     H27459   6.073   8.109   7.114  1.3491 -0.0910  1.5010
  966MOL0     H27460   6.064   7.969   7.210 -1.5475 -1.5220 -1.0863
  966MOL0     H27461   6.060   7.969   6.918  1.1897 -1.3121  0.0539
  966MOL0     H27462   6.071   7.818   7.009 -0.5561 -0.5644  0.5555
  966MOL0     H27463   5.825   8.016   7.016  0.4621 -0.0885  1.7678
  966MOL0     H27464   5.842   7.869   7.104 -0.5727  0.0754 -0.2071
  966MOL0     H27465   5.692   7.982   6.792 -0.5139 -0.2754 -0.9548
  966MOL0     H27466   5.561   7.670   6.616  5.2711 -3.4282 -2.6129
  966MOL0     H27467   5.663   7.794   6.533 -0.5254  1.4597  0.6322
  966MOL0     H27468   5.423   7.841   6.531  0.2238  0.2998 -0.8780
  966MOL0     H27469   5.527   7.965   6.587  2.0966 -1.9454 -2.5894
  966MOL0     H27470   5.379   7.784   6.777  2.8020  0.0662  0.6215
  966MOL0     H27471   5.470   7.937   6.814  1.2160  0.7908 -1.0843
  966MOL0     H27472   5.296   8.041   6.674 -1.5879  0.3637  1.1889
  966MOL0     H27473   5.240   7.987   6.831 -0.9486  1.1956 -0.5361
  966MOL0     H27474   4.947   7.768   6.599  2.3957 -0.2564 -0.6910
  966MOL0     H27475   4.720   7.876   6.598  1.4753 -0.2872 -3.1029
  966MOL0     H27476   4.424   8.126   6.311  2.2762 -2.4240 -0.3567
  966MOL0     H27477   4.196   8.156   6.308 -0.7966 -1.0666  0.1855
  966MOL0     H27478   4.006   8.238   6.708  0.9335 -0.4432 -0.3581
  966MOL0     H27479   3.952   8.076   6.706  0.2600 -1.7252 -3.0348
  966MOL0     H27480   3.764   8.109   6.588 -0.3329  0.8048  1.5170
  966MOL0     H27481   3.803   8.268   6.508 -0.5636  1.4254  1.1079
  966MOL0     H27482   3.747   8.240   6.796 -0.2224 -1.3403 -1.4285
  966MOL0     H27483   3.634   8.305   6.666 -0.9238  3.2964  0.3414
  966MOL0     H27484   3.912   8.418   6.669  0.2931 -0.9376  0.8451
  966MOL0     H27485   3.758   8.478   6.616 -2.8180 -3.1392 -1.3106
  966MOL0     H27486   3.830   8.427   6.910  1.9752 -0.4331 -1.5587
  966MOL0     H27487   3.674   8.492   6.845 -0.2804 -1.8415 -2.0514
  966MOL0     H27488   3.788   8.707   6.777 -0.3595 -1.3162 -0.5387
  966MOL0     H27489   3.948   8.641   6.820  1.0482  1.4275  3.4457
  966MOL0     H27490   3.853   8.794   6.979  3.1425  0.3492 -1.0808
  966MOL0     H27491   3.746   8.657   7.034 -0.2056  4.0366  1.3017
  966MOL0     H27492   4.043   8.707   7.055  0.6190 -0.3052  0.6108
  966MOL0     H27493   3.984   8.538   7.066 -0.1141 -0.3585  0.6473
  966MOL0     H27494   4.168   8.052   6.728  1.3782 -1.0662  0.7974
  966MOL0     H27495   4.423   7.999   6.713 -0.4442  0.0688  0.9764
  966MOL0     H27496   4.875   8.250   6.687  0.0037  0.0416  1.7719
  966MOL0     H27497   5.121   8.145   6.718  0.9345 -0.6792 -1.5777
  966MOL0     H27498   6.883   8.269   7.076  1.0496 -0.0500 -0.3108
  966MOL0     H27499   7.143   8.320   7.088 -1.6502  0.6762 -1.0023
  966MOL0     H27500   7.439   8.603   7.389  1.6609  1.6842  3.5647
  966MOL0     H27501   7.663   8.652   7.453  0.0649 -0.3925  2.5138
  966MOL0     H27502   7.974   8.365   7.305 -2.0781 -2.0058  0.6112
  966MOL0     H27503   7.965   8.347   7.479  0.8022 -0.2850  0.0479
  966MOL0     H27504   8.117   8.566   7.322 -0.7832 -0.0461 -0.8765
  966MOL0     H27505   8.107   8.568   7.500  2.5903 -1.2017  0.7431
  966MOL0     H27506   8.258   8.368   7.342  2.0912  1.9425 -0.0432
  966MOL0     H27507   8.205   8.339   7.505 -0.2184 -0.9438 -0.9773
  966MOL0     H27508   8.379   8.585   7.399  3.2524 -2.2738 -1.6332
  966MOL0     H27509   8.331   8.562   7.568 -0.7238 -2.2788  2.1461
  966MOL0     H27510   8.631   8.269   7.531  0.1186  0.2157  1.3976
  966MOL0     H27511   7.786   8.250   7.327 -0.4823 -0.3073 -0.8195
  966MOL0     H27512   7.552   8.205   7.268 -1.4476  0.1761  0.4665
  967MOL0     O27513   9.404   4.037   7.590 -0.2654  0.4232 -0.4301
  967MOL0     C27514   9.493   4.023   7.513 -0.0794 -0.5623  1.1631
  967MOL0     O27515   9.483   3.940   7.390  0.0574 -0.3070 -0.5221
  967MOL0     C27516   9.365   3.878   7.367  0.1593 -0.7175 -0.3481
  967MOL0     C27517   9.367   3.743   7.371  0.2719  0.2929 -0.5256
  967MOL0     C27518   9.253   3.663   7.362 -0.2013  0.1337  0.1340
  967MOL0     C27519   9.132   3.727   7.333  0.9266  0.7007 -0.6152
  967MOL0     O27520   9.005   3.675   7.321  0.2118  1.0095 -0.1060
  967MOL0     C27521   8.966   3.605   7.440 -0.0872  0.0819  0.0011
  967MOL0     C27522   8.820   3.615   7.475  0.7593 -0.1521 -1.0322
  967MOL0     C27523   8.797   3.586   7.628  0.2866  0.6448 -0.0843
  967MOL0     C27524   8.650   3.579   7.669  0.3667 -0.5480  0.5362
  967MOL0     C27525   8.611   3.574   7.816 -0.2748  0.3474  0.1923
  967MOL0     C27526   8.458   3.570   7.809  0.6710 -0.0090 -0.1146
  967MOL0     C27527   8.379   3.560   7.937 -0.4565  0.3454  0.1369
  967MOL0     C27528   8.390   3.675   8.036  0.7260  0.0916  0.7793
  967MOL0     N27529   8.337   3.796   7.969  0.4639  0.2230 -0.0146
  967MOL0     C27530   8.205   3.840   7.976  0.4611  0.2732 -0.2633
  967MOL0     C27531   8.212   3.964   7.930  0.5838  0.0664  0.1284
  967MOL0     C27532   8.098   4.072   7.921 -0.6988 -0.2372  0.5242
  967MOL0     C27533   8.095   4.161   8.051 -0.2129  0.4397  0.0206
  967MOL0     C27534   8.026   4.092   8.168  0.8951 -0.4148  0.2311
  967MOL0     C27535   7.882   4.049   8.144  0.3418  0.1326 -0.2767
  967MOL0     O27536   7.801   4.164   8.104 -0.1891 -0.3841  0.0980
  967MOL0     C27537   7.669   4.168   8.152  0.1737  0.1464  0.4020
  967MOL0     C27538   7.604   4.292   8.136  1.0959 -0.5405 -0.2938
  967MOL0     C27539   7.479   4.322   8.196 -0.6184  0.5004  0.7745
  967MOL0     C27540   7.404   4.220   8.258 -0.4367 -0.1704  0.2289
  967MOL0     C27541   7.271   4.248   8.317  0.1075  0.2856  0.4156
  967MOL0     O27542   7.222   4.372   8.315  0.3886 -0.4826 -0.3402
  967MOL0     C27543   7.110   4.384   8.394 -0.4366 -0.5081 -0.0434
  967MOL0     C27544   6.986   4.344   8.346 -0.5874  0.7708  0.3952
  967MOL0     C27545   6.872   4.373   8.417  0.8676  0.3423 -0.0921
  967MOL0     C27546   6.880   4.453   8.537 -0.9592  0.5972  0.2316
  967MOL0     O27547   6.764   4.461   8.605 -0.4461  0.3594 -0.1075
  967MOL0     C27548   6.751   4.528   8.733  0.2063  0.1227 -0.0946
  967MOL0     C27549   6.642   4.460   8.825 -0.2396  1.1289  0.6044
  967MOL0     C27550   6.645   4.511   8.973  0.6953 -0.1149 -0.8852
  967MOL0     C27551   6.602   4.657   8.976  0.4682 -0.6527 -0.8286
  967MOL0     C27552   6.611   4.730   9.116 -0.1648 -0.0933  0.3653
  967MOL0     C27553   6.612   4.883   9.110  0.0807  0.1976 -0.0378
  967MOL0     C27554   6.536   4.943   9.228 -0.5008  0.4324  0.0256
  967MOL0     C27555   6.553   5.097   9.237 -1.0704 -0.0805 -0.3690
  967MOL0    Cl27556   6.724   5.173   9.246 -0.0128  0.0146  0.5117
  967MOL0     C27557   7.004   4.501   8.581  0.0115  0.5981 -0.3737
  967MOL0     C27558   7.111   4.475   8.500  0.5699  0.0374  0.1411
  967MOL0     O27559   7.225   4.154   8.382  0.0455 -0.0448  0.7145
  967MOL0     C27560   7.472   4.095   8.276 -0.4950  0.3848 -0.3647
  967MOL0     C27561   7.604   4.069   8.225  0.6241  0.5672  0.1800
  967MOL0     N27562   8.340   3.998   7.905 -0.4787 -0.5393  0.1455
  967MOL0     N27563   8.411   3.895   7.915  0.3683  0.0702  0.1508
  967MOL0     C27564   9.127   3.865   7.317 -0.4596  0.7864 -0.2434
  967MOL0     C27565   9.241   3.942   7.340 -1.0037  0.4301 -0.2508
  967MOL0     C27566   9.629   4.082   7.557  0.1354  0.2026  0.1916
  967MOL0     C27567   9.735   4.078   7.469 -0.1625  0.2374 -0.4197
  967MOL0     C27568   9.863   4.108   7.515 -0.1014  0.2734  0.1652
  967MOL0     C27569   9.880   4.155   7.644 -0.5333 -0.1520 -0.1597
  967MOL0     O27570  10.001   4.193   7.695  0.1255 -0.3058  0.0994
  967MOL0     C27571  10.119   4.177   7.608  0.6250 -0.0882 -0.0696
  967MOL0     C27572  10.243   4.248   7.674 -0.2980  0.2521  0.0824
  967MOL0     C27573  10.372   4.217   7.594 -0.1631  0.2601 -0.0763
  967MOL0     C27574  10.475   4.317   7.604 -0.3579 -0.2015 -1.0644
  967MOL0     C27575  10.526   4.333   7.746 -0.6141 -0.7130 -0.8545
  967MOL0     C27576  10.577   4.329   7.865  0.7064  1.2606 -0.4425
  967MOL0     C27577   9.776   4.163   7.735 -0.4152  0.3640  0.4726
  967MOL0     C27578   9.643   4.133   7.692 -0.2201 -0.0046 -0.3073
  967MOL0     H27579   9.459   3.692   7.398 -0.9068 -1.4029  0.5108
  967MOL0     H27580   9.259   3.558   7.389  0.5407  0.4767  1.3773
  967MOL0     H27581   9.034   3.634   7.521 -1.1179  3.0129 -0.0517
  967MOL0     H27582   8.991   3.501   7.418  2.4526  1.1076 -2.7086
  967MOL0     H27583   8.758   3.559   7.405  1.4971  0.2837 -2.0497
  967MOL0     H27584   8.792   3.720   7.475 -0.7587 -0.5079  0.1802
  967MOL0     H27585   8.844   3.670   7.680 -1.2611  1.9948 -0.7409
  967MOL0     H27586   8.839   3.491   7.661  0.7380  0.0175 -2.3337
  967MOL0     H27587   8.615   3.677   7.636  1.5920  0.0904  1.0890
  967MOL0     H27588   8.587   3.505   7.619  0.1957 -0.2860  0.3598
  967MOL0     H27589   8.648   3.662   7.868 -2.1282  1.4099 -0.1593
  967MOL0     H27590   8.648   3.479   7.855 -0.6658  0.4181  0.7455
  967MOL0     H27591   8.420   3.487   7.749 -0.3634  0.8719 -0.7064
  967MOL0     H27592   8.427   3.664   7.762  2.3243  1.9104  2.3639
  967MOL0     H27593   8.277   3.539   7.902 -1.8196  0.7767  3.4907
  967MOL0     H27594   8.402   3.464   7.983 -0.7111  0.1182 -0.2034
  967MOL0     H27595   8.490   3.699   8.073  0.8439  0.2750  0.3478
  967MOL0     H27596   8.326   3.635   8.115 -0.4396 -1.0055 -0.6438
  967MOL0     H27597   8.124   3.777   8.014  0.5621 -1.0734 -2.1576
  967MOL0     H27598   7.998   4.039   7.892 -1.5606  0.2982  2.6756
  967MOL0     H27599   8.123   4.144   7.842  3.1355  0.1580  1.8600
  967MOL0     H27600   8.031   4.247   8.033  0.1001  1.2250  2.2856
  967MOL0     H27601   8.196   4.198   8.071 -0.2396 -0.6717  2.5449
  967MOL0     H27602   8.091   4.008   8.193  1.0185 -0.9442 -1.6764
  967MOL0     H27603   8.027   4.165   8.249  0.3463  0.4573 -0.5136
  967MOL0     H27604   7.842   4.013   8.239 -2.3598  2.8458 -0.2173
  967MOL0     H27605   7.873   3.968   8.071 -1.5165  0.4823 -0.4854
  967MOL0     H27606   7.647   4.377   8.085 -2.3392  0.1127 -2.4342
  967MOL0     H27607   7.425   4.414   8.177  1.4950  1.0317 -4.1324
  967MOL0     H27608   6.984   4.284   8.255  2.2528  0.9648  0.1205
  967MOL0     H27609   6.776   4.334   8.385  0.6279 -0.0001  0.9921
  967MOL0     H27610   6.722   4.630   8.709  0.6866 -0.1021 -1.7752
  967MOL0     H27611   6.851   4.526   8.776  0.7024  1.8964 -1.0776
  967MOL0     H27612   6.667   4.354   8.830 -0.6171  0.9990 -0.1678
  967MOL0     H27613   6.542   4.478   8.783 -0.6401  3.4529  2.3440
  967MOL0     H27614   6.750   4.509   9.002  0.6788  1.8816 -0.5801
  967MOL0     H27615   6.584   4.460   9.048 -0.4737  2.0190 -0.3233
  967MOL0     H27616   6.658   4.710   8.898 -0.1533  2.3349  0.6157
  967MOL0     H27617   6.496   4.651   8.952 -0.1554  0.1397  1.5688
  967MOL0     H27618   6.706   4.704   9.164 -0.8240 -1.3276  1.0593
  967MOL0     H27619   6.525   4.698   9.176 -1.3025  0.6712 -0.7932
  967MOL0     H27620   6.540   4.917   9.035  0.4987  0.1981 -0.4478
  967MOL0     H27621   6.710   4.921   9.078  0.4651  1.1959  2.1286
  967MOL0     H27622   6.428   4.924   9.221 -0.3442 -0.1482 -1.0305
  967MOL0     H27623   6.574   4.903   9.321  0.7360 -1.4893 -1.2516
  967MOL0     H27624   6.507   5.122   9.333 -1.5134  2.3598 -1.1441
  967MOL0     H27625   6.488   5.140   9.160 -0.2910  2.7416  0.4580
  967MOL0     H27626   7.014   4.564   8.668  1.2528 -1.7091  1.2914
  967MOL0     H27627   7.205   4.517   8.535  0.7486  1.8893 -2.3209
  967MOL0     H27628   7.424   4.039   8.356 -1.6486  3.4356  1.2396
  967MOL0     H27629   7.656   3.977   8.251  1.4362  1.7001  2.9392
  967MOL0     H27630   9.034   3.914   7.291 -0.7747 -0.5264 -1.7861
  967MOL0     H27631   9.247   4.047   7.315 -1.0617 -0.0987 -2.7960
  967MOL0     H27632   9.719   4.033   7.372 -2.2987  2.5283 -1.2407
  967MOL0     H27633   9.941   4.091   7.442 -0.4055 -0.2658 -0.0349
  967MOL0     H27634  10.111   4.218   7.507  3.9372 -0.5162 -0.6183
  967MOL0     H27635  10.135   4.070   7.597 -0.6677 -0.1379 -1.9800
  967MOL0     H27636  10.227   4.356   7.674  1.1891  0.4939  0.3325
  967MOL0     H27637  10.248   4.220   7.780 -1.4563 -3.3821 -0.6912
  967MOL0     H27638  10.344   4.222   7.488  1.0590  0.5577 -0.4043
  967MOL0     H27639  10.405   4.115   7.618 -1.5205 -0.0924  0.3757
  967MOL0     H27640  10.546   4.273   7.533 -1.0852  0.2279 -2.0704
  967MOL0     H27641  10.449   4.416   7.564 -1.4670  0.7718  1.8028
  967MOL0     H27642  10.616   4.326   7.965  2.3296  0.4597 -1.0586
  967MOL0     H27643   9.803   4.188   7.837  2.1450 -0.9748  0.1936
  967MOL0     H27644   9.563   4.128   7.765 -0.5642  0.1486 -0.6749
  968MOL0     O27645   3.035   5.641   1.212  0.3866 -0.3830 -0.0386
  968MOL0     C27646   3.045   5.717   1.306 -0.1465  0.0718 -0.5891
  968MOL0     O27647   2.944   5.747   1.394 -0.5474  0.1223  0.1641
  968MOL0     C27648   2.828   5.681   1.372 -0.8403 -0.5349  0.0489
  968MOL0     C27649   2.781   5.590   1.465  0.5988  0.9160 -0.0923
  968MOL0     C27650   2.667   5.517   1.453  0.7986 -0.0317  0.2000
  968MOL0     C27651   2.600   5.526   1.332  1.2626 -0.0307 -0.2343
  968MOL0     O27652   2.487   5.458   1.300 -0.3377 -0.1946 -0.0365
  968MOL0     C27653   2.499   5.326   1.263 -0.1536  0.2495  0.1972
  968MOL0     C27654   2.361   5.259   1.238 -0.2031  0.0628  0.5118
  968MOL0     C27655   2.289   5.311   1.109 -0.2044 -0.0919 -0.6385
  968MOL0     C27656   2.161   5.241   1.092  0.4784  0.2408 -0.1339
  968MOL0     C27657   2.058   5.303   0.998 -0.0027 -0.0175  0.0869
  968MOL0     C27658   1.999   5.434   1.055 -0.1052 -0.2065 -0.4096
  968MOL0     C27659   1.969   5.544   0.951  0.0657 -1.3338 -1.4345
  968MOL0     C27660   1.908   5.495   0.822  0.0901 -0.4092  0.5191
  968MOL0     N27661   1.772   5.450   0.836  0.1798  0.3849 -0.9800
  968MOL0     C27662   1.725   5.325   0.861 -0.5991  0.5553  0.2737
  968MOL0     C27663   1.594   5.341   0.884 -0.7617 -0.3200 -0.5383
  968MOL0     C27664   1.492   5.238   0.902  0.6082 -0.6344 -0.1119
  968MOL0     C27665   1.475   5.184   1.040  0.0519  1.2073  0.0731
  968MOL0     C27666   1.335   5.120   1.060  0.7456 -0.4304 -0.1487
  968MOL0     C27667   1.322   5.073   1.198 -0.9186  0.0304 -0.1633
  968MOL0     O27668   1.307   5.185   1.288  0.3191  0.1518  0.6004
  968MOL0     C27669   1.190   5.259   1.287  0.5227 -0.2860  1.0600
  968MOL0     C27670   1.086   5.219   1.371  0.1821  0.3617 -0.2769
  968MOL0     C27671   0.969   5.287   1.388  0.3872 -0.0813  0.7230
  968MOL0     C27672   0.937   5.402   1.314 -0.9633  0.7792 -0.1150
  968MOL0     C27673   0.808   5.455   1.343  0.7683  0.0701  0.0863
  968MOL0     O27674   0.762   5.550   1.255  0.3018 -0.9513  0.9414
  968MOL0     C27675   0.642   5.616   1.283 -0.3404 -0.4515 -0.1189
  968MOL0     C27676   0.542   5.632   1.190 -0.3976 -0.2057 -0.1531
  968MOL0     C27677   0.429   5.705   1.222  0.2333 -0.4988 -0.0718
  968MOL0     C27678   0.408   5.759   1.344 -0.0505  0.0381 -0.0154
  968MOL0     O27679   0.297   5.843   1.377 -0.2649 -0.5170 -0.3769
  968MOL0     C27680   0.186   5.870   1.289 -0.6338  0.0802 -0.2123
  968MOL0     C27681   0.088   5.971   1.351  0.0613  1.3611 -0.1769
  968MOL0     C27682   0.022   5.930   1.485 -0.2888  0.0271  0.9284
  968MOL0     C27683  -0.075   5.814   1.467 -0.0341  0.6904 -0.4395
  968MOL0     C27684  -0.154   5.800   1.605 -0.6717 -0.2587  0.7617
  968MOL0     C27685  -0.281   5.717   1.583 -0.1078  0.1531  0.0099
  968MOL0     C27686  -0.370   5.702   1.705 -0.5356 -1.4126  0.0076
  968MOL0     C27687  -0.503   5.634   1.673  0.4496  0.2222 -0.1421
  968MOL0    Cl27688  -0.484   5.461   1.619  0.3652 -0.2868  0.6534
  968MOL0     C27689   0.514   5.743   1.442  0.4573  0.0177  1.4227
  968MOL0     C27690   0.629   5.678   1.404 -0.4063 -0.5401  0.3039
  968MOL0     O27691   0.745   5.418   1.444 -1.0003  0.3968 -0.2219
  968MOL0     C27692   1.038   5.444   1.226  0.8516 -0.8659 -0.0278
  968MOL0     C27693   1.166   5.380   1.220  0.1844 -0.0114 -0.6011
  968MOL0     N27694   1.567   5.477   0.879  0.1625 -0.5522  0.7826
  968MOL0     N27695   1.667   5.542   0.843 -0.2471 -0.0639  0.1335
  968MOL0     C27696   2.638   5.630   1.236  0.7100 -0.2732 -0.6779
  968MOL0     C27697   2.752   5.709   1.258 -0.1764 -0.2002  1.1753
  968MOL0     C27698   3.180   5.771   1.330 -0.7126  0.0824  0.7657
  968MOL0     C27699   3.278   5.759   1.236  0.0374  0.5554 -0.4497
  968MOL0     C27700   3.400   5.814   1.266 -0.3153  0.1008  0.8092
  968MOL0     C27701   3.427   5.875   1.386  0.3899 -0.3033 -0.1980
  968MOL0     O27702   3.557   5.916   1.402  0.5157  0.2284  0.1708
  968MOL0     C27703   3.582   6.017   1.496  0.0118 -0.8906 -0.2248
  968MOL0     C27704   3.715   6.074   1.468  0.2584 -0.4800 -0.1571
  968MOL0     C27705   3.743   6.180   1.577 -0.1655  0.0137 -0.3783
  968MOL0     C27706   3.871   6.259   1.557 -0.0275  0.1977 -0.9649
  968MOL0     C27707   3.992   6.174   1.540  0.1196 -0.0368 -0.0077
  968MOL0     C27708   4.092   6.111   1.526 -0.8295  0.2373  0.4508
  968MOL0     C27709   3.325   5.889   1.479 -0.7816 -0.7437  0.7150
  968MOL0     C27710   3.200   5.838   1.455  0.3082  0.1645  0.3599
  968MOL0     H27711   2.840   5.568   1.553 -1.4692  1.3450  1.4627
  968MOL0     H27712   2.632   5.445   1.527  0.2769  0.0482  0.0371
  968MOL0     H27713   2.551   5.268   1.340  0.9723  0.6527 -0.2350
  968MOL0     H27714   2.569   5.311   1.180  0.9178 -1.0646  1.2736
  968MOL0     H27715   2.301   5.285   1.326 -2.3600  3.6244 -1.7128
  968MOL0     H27716   2.379   5.152   1.225 -1.2811 -0.0199 -0.4755
  968MOL0     H27717   2.355   5.295   1.023 -1.0875  0.0064 -1.3531
  968MOL0     H27718   2.279   5.420   1.112  4.1330  0.4571  1.4239
  968MOL0     H27719   2.189   5.144   1.049 -4.0365 -1.7772  0.8407
  968MOL0     H27720   2.116   5.235   1.192 -0.3194 -1.6149 -0.5462
  968MOL0     H27721   1.971   5.237   0.986 -1.0743  1.0912  1.5176
  968MOL0     H27722   2.113   5.318   0.904 -0.3056  0.8593  0.0426
  968MOL0     H27723   2.056   5.479   1.136 -2.2396 -0.0035  1.0581
  968MOL0     H27724   1.906   5.418   1.110  0.4335  0.4384  0.7049
  968MOL0     H27725   1.906   5.616   1.004  1.4779  0.0063 -1.4727
  968MOL0     H27726   2.061   5.601   0.933  0.1075 -0.4243  1.2734
  968MOL0     H27727   1.960   5.405   0.787 -2.0978 -1.9156  0.9315
  968MOL0     H27728   1.917   5.578   0.750 -0.0770  0.3174  1.3233
  968MOL0     H27729   1.771   5.229   0.840  1.8706  2.0196 -1.5435
  968MOL0     H27730   1.507   5.156   0.831  1.9250 -1.3311  0.9078
  968MOL0     H27731   1.397   5.285   0.878  1.9554  2.4043 -0.0472
  968MOL0     H27732   1.501   5.267   1.105  1.3016 -0.0811  1.2974
  968MOL0     H27733   1.549   5.103   1.039 -2.3013 -1.1382  1.9421
  968MOL0     H27734   1.255   5.191   1.034  2.9045  1.3325 -2.5324
  968MOL0     H27735   1.330   5.041   0.985  1.0981 -0.9637  0.3914
  968MOL0     H27736   1.402   5.002   1.218  0.1105  0.5334 -2.2561
  968MOL0     H27737   1.238   5.004   1.213  0.6616 -1.9033  0.1768
  968MOL0     H27738   1.098   5.123   1.420 -0.5205  0.3623 -0.0932
  968MOL0     H27739   0.901   5.238   1.456  1.8798 -4.4925 -0.6363
  968MOL0     H27740   0.544   5.597   1.087 -1.0879  1.4340 -0.7550
  968MOL0     H27741   0.362   5.725   1.138  1.7121  0.4520 -1.0610
  968MOL0     H27742   0.142   5.770   1.276  1.6384 -0.5982 -4.2866
  968MOL0     H27743   0.215   5.892   1.186 -1.0811 -0.1947 -0.3992
  968MOL0     H27744   0.014   5.997   1.275 -1.4821 -2.7507 -0.3224
  968MOL0     H27745   0.142   6.064   1.371 -2.1245  2.5231  0.5225
  968MOL0     H27746  -0.028   6.024   1.511  0.5356  0.5824  0.5416
  968MOL0     H27747   0.104   5.904   1.552  0.3695  2.9753  1.4104
  968MOL0     H27748  -0.148   5.835   1.389 -1.3715 -0.0448  0.5730
  968MOL0     H27749  -0.026   5.721   1.436  0.1944  1.4445 -2.4763
  968MOL0     H27750  -0.172   5.901   1.644 -1.3573  0.4460 -1.2724
  968MOL0     H27751  -0.088   5.753   1.679  0.6873 -1.5248 -1.1896
  968MOL0     H27752  -0.245   5.621   1.547 -0.8467  0.8187 -2.7295
  968MOL0     H27753  -0.355   5.764   1.517  0.2810 -1.4092 -1.6014
  968MOL0     H27754  -0.316   5.636   1.774  3.1356 -3.2071 -4.0489
  968MOL0     H27755  -0.388   5.802   1.743  1.8616 -1.2550  0.9019
  968MOL0     H27756  -0.551   5.696   1.597  0.3104 -0.2210 -0.4218
  968MOL0     H27757  -0.572   5.634   1.758 -0.4095 -0.2239 -0.8151
  968MOL0     H27758   0.485   5.782   1.539 -6.2969 -1.9130  0.7543
  968MOL0     H27759   0.716   5.684   1.468  1.2929  0.4785 -1.9614
  968MOL0     H27760   1.021   5.537   1.173  0.6684 -1.0975 -0.3759
  968MOL0     H27761   1.245   5.428   1.163  0.8549 -2.2563 -1.6957
  968MOL0     H27762   2.569   5.652   1.155 -1.8989 -1.5566  1.0681
  968MOL0     H27763   2.781   5.786   1.187  0.1588  1.7586  3.2965
  968MOL0     H27764   3.261   5.719   1.137  3.1048 -1.9508 -0.1333
  968MOL0     H27765   3.476   5.812   1.188 -3.7530  2.1848 -3.0079
  968MOL0     H27766   3.567   5.988   1.601 -1.9181  0.6269 -0.0330
  968MOL0     H27767   3.520   6.105   1.481  2.8737  1.5936  1.3473
  968MOL0     H27768   3.788   5.994   1.483  0.0126 -0.4944  1.1339
  968MOL0     H27769   3.729   6.109   1.365  0.3665  0.0497  0.0323
  968MOL0     H27770   3.736   6.143   1.680 -0.4472 -0.1265 -0.4487
  968MOL0     H27771   3.671   6.260   1.564 -1.1436 -0.1986  2.7841
  968MOL0     H27772   3.846   6.318   1.468 -2.3599  1.4900  0.4412
  968MOL0     H27773   3.892   6.328   1.639 -1.5115 -0.6638  0.2010
  968MOL0     H27774   4.179   6.055   1.497 -1.1462  0.0546 -0.1480
  968MOL0     H27775   3.352   5.952   1.563  0.0480  0.3369 -0.3444
  968MOL0     H27776   3.131   5.845   1.539 -1.2425  0.6941 -0.9093
  969MOL0     O27777   0.441   8.867   8.660  0.2376  0.3453 -0.4198
  969MOL0     C27778   0.334   8.875   8.713 -0.2735 -0.2734  0.4725
  969MOL0     O27779   0.267   8.993   8.738  0.4296 -0.4441 -0.1869
  969MOL0     C27780   0.324   9.117   8.730 -0.3170 -0.1815  0.9630
  969MOL0     C27781   0.455   9.151   8.702  0.0941  0.3894 -0.4380
  969MOL0     C27782   0.496   9.285   8.699  0.1646  0.0353 -0.7969
  969MOL0     C27783   0.403   9.395   8.724 -0.9102  0.2757  0.2362
  969MOL0     O27784   0.433   9.536   8.724 -0.3159  0.5503 -0.0430
  969MOL0     C27785   0.563   9.579   8.767  0.0714 -0.1485 -0.1177
  969MOL0     C27786   0.535   9.701   8.840  0.5727 -0.4793  0.0105
  969MOL0     C27787   0.664   9.779   8.872  0.0957  0.4055  0.1853
  969MOL0     C27788   0.744   9.844   8.753 -0.2794  1.2742 -0.2918
  969MOL0     C27789   0.874   9.903   8.813 -0.1293 -0.5854  0.0665
  969MOL0     C27790   0.853  10.043   8.873 -0.9435  0.8300 -0.4333
  969MOL0     C27791   0.971  10.093   8.959  0.8414 -0.4235 -0.2563
  969MOL0     C27792   0.987  10.250   8.966 -0.3781  0.3028  0.3410
  969MOL0     N27793   0.871  10.319   9.019  0.6648  0.7726 -0.1540
  969MOL0     C27794   0.849  10.351   9.147  0.2305  0.9568 -0.0683
  969MOL0     C27795   0.726  10.406   9.157 -0.9257 -0.4724 -0.3682
  969MOL0     C27796   0.666  10.465   9.283  0.9009 -0.6905 -0.3770
  969MOL0     C27797   0.752  10.583   9.318  0.1753 -0.1039 -0.3880
  969MOL0     C27798   0.697  10.647   9.445 -0.4889  0.6145 -0.8610
  969MOL0     C27799   0.579  10.743   9.424  0.5708 -0.3310 -0.2456
  969MOL0     O27800   0.520  10.781   9.552  0.2293 -0.5217  0.4199
  969MOL0     C27801   0.381  10.779   9.562  0.3000  0.3287 -0.3028
  969MOL0     C27802   0.298  10.683   9.502  0.2111  0.1163 -0.3343
  969MOL0     C27803   0.161  10.696   9.525  0.0273 -0.8223 -0.3763
  969MOL0     C27804   0.104  10.784   9.619 -0.2871  0.4040 -0.4255
  969MOL0     C27805  -0.036  10.774   9.666  0.8876 -0.9107  0.2215
  969MOL0     O27806  -0.113  10.679   9.608 -0.4230 -0.3380 -0.5729
  969MOL0     C27807  -0.249  10.673   9.623 -0.0066 -0.1829 -0.4543
  969MOL0     C27808  -0.331  10.766   9.555 -0.5205  0.6842  0.6535
  969MOL0     C27809  -0.471  10.742   9.571  0.1981 -0.1109  1.1664
  969MOL0     C27810  -0.525  10.629   9.638 -0.0478 -0.2480  0.5871
  969MOL0     O27811  -0.664  10.616   9.648 -0.2701 -0.0430  0.1597
  969MOL0     C27812  -0.717  10.487   9.667 -0.0368  0.1867  0.4514
  969MOL0     C27813  -0.851  10.500   9.604 -0.1313  0.3973 -0.0516
  969MOL0     C27814  -0.951  10.420   9.683  0.3245 -0.1333 -0.6508
  969MOL0     C27815  -1.091  10.444   9.633  0.2214  0.2156  0.8075
  969MOL0     C27816  -1.194  10.417   9.736 -0.3885 -0.0751  0.7227
  969MOL0     C27817  -1.333  10.385   9.682  0.5955 -0.3444  0.4364
  969MOL0     C27818  -1.433  10.363   9.793  0.0193 -0.5759 -0.0908
  969MOL0     C27819  -1.575  10.375   9.743  0.1408  0.4161  0.3351
  969MOL0    Cl27820  -1.698  10.369   9.881  0.2905  0.1874  0.1452
  969MOL0     C27821  -0.437  10.532   9.694 -0.5754  0.8104 -0.9369
  969MOL0     C27822  -0.304  10.566   9.694 -0.6336  0.1302  0.3886
  969MOL0     O27823  -0.080  10.859   9.747 -0.2433  0.1115  0.6231
  969MOL0     C27824   0.189  10.872   9.686  0.6994 -0.6709  1.0665
  969MOL0     C27825   0.327  10.874   9.653  0.4030 -0.1739 -0.4659
  969MOL0     N27826   0.683  10.407   9.026  0.2042 -0.1259 -0.1788
  969MOL0     N27827   0.768  10.353   8.948 -0.2898 -0.7034 -0.0580
  969MOL0     C27828   0.277   9.355   8.771  0.4119  0.9723 -0.1269
  969MOL0     C27829   0.239   9.215   8.767 -0.0647  0.1839  0.4429
  969MOL0     C27830   0.265   8.744   8.758  0.2223 -0.6615 -0.3470
  969MOL0     C27831   0.169   8.740   8.853  0.9699 -0.1685  0.1252
  969MOL0     C27832   0.111   8.618   8.894 -0.1389 -0.2384 -0.0134
  969MOL0     C27833   0.155   8.499   8.838  0.3941 -0.6068  0.5217
  969MOL0     O27834   0.076   8.389   8.874 -0.1326 -0.5733  0.2833
  969MOL0     C27835   0.126   8.269   8.823 -0.1311  0.3101  0.1793
  969MOL0     C27836   0.028   8.160   8.847 -0.1471 -0.6232 -0.1223
  969MOL0     C27837  -0.007   8.125   8.987 -0.0036  0.1027  0.3897
  969MOL0     C27838   0.107   8.113   9.089  1.0380  0.2988 -0.7922
  969MOL0     C27839   0.191   7.996   9.053 -0.2448  0.5577  0.2970
  969MOL0     C27840   0.257   7.891   9.042 -0.2286 -0.5320 -0.0987
  969MOL0     C27841   0.260   8.501   8.742  0.2143 -0.0057 -0.8367
  969MOL0     C27842   0.312   8.622   8.705 -0.0315 -1.2809  0.2279
  969MOL0     H27843   0.523   9.069   8.679 -1.6178 -1.3672  0.4534
  969MOL0     H27844   0.600   9.302   8.671  0.5687  0.1852  0.7112
  969MOL0     H27845   0.622   9.584   8.675 -1.3524 -0.5282 -1.0824
  969MOL0     H27846   0.610   9.502   8.828  1.8539  2.9651  2.7941
  969MOL0     H27847   0.480   9.677   8.931 -1.0389 -0.8087 -1.0216
  969MOL0     H27848   0.463   9.766   8.789 -1.5618 -3.4574 -1.0282
  969MOL0     H27849   0.723   9.711   8.934  0.9393  2.3831  1.6652
  969MOL0     H27850   0.638   9.867   8.932 -2.7310  0.1995 -0.5834
  969MOL0     H27851   0.765   9.766   8.680  1.1918  1.8467 -0.5070
  969MOL0     H27852   0.687   9.912   8.690 -0.1744 -0.2026 -2.0566
  969MOL0     H27853   0.947   9.918   8.732 -0.9483  2.2147 -0.2642
  969MOL0     H27854   0.922   9.834   8.883  0.3482 -0.0131  0.3058
  969MOL0     H27855   0.761  10.047   8.931 -0.6599 -1.4957  0.2790
  969MOL0     H27856   0.849  10.108   8.785 -0.8489 -0.0075 -1.0651
  969MOL0     H27857   0.977  10.060   9.063  1.6495  3.2375  1.0169
  969MOL0     H27858   1.063  10.056   8.914  1.5175 -1.8222  2.1087
  969MOL0     H27859   1.006  10.290   8.866 -0.3195 -0.3607  0.0788
  969MOL0     H27860   1.066  10.267   9.040  1.3345 -2.2400 -0.7624
  969MOL0     H27861   0.912  10.339   9.235  0.3087  1.7088 -0.0113
  969MOL0     H27862   0.662  10.393   9.365  0.4969  1.4572  1.5804
  969MOL0     H27863   0.563  10.496   9.268  1.2944  1.2293  0.6315
  969MOL0     H27864   0.752  10.656   9.236  1.0411  0.8952  0.4671
  969MOL0     H27865   0.859  10.559   9.327  0.3207 -0.7284 -3.0086
  969MOL0     H27866   0.667  10.573   9.519  1.4243  0.4037 -0.2417
  969MOL0     H27867   0.787  10.692   9.489 -0.9583  0.1274  0.6660
  969MOL0     H27868   0.498  10.704   9.363 -0.9705  1.5133  0.5124
  969MOL0     H27869   0.617  10.839   9.387 -0.1911  1.0018  2.1976
  969MOL0     H27870   0.339  10.600   9.446 -2.7971 -0.9339 -1.1402
  969MOL0     H27871   0.090  10.628   9.481 -2.6690  0.3086  1.9314
  969MOL0     H27872  -0.294  10.859   9.512  0.5962  0.9075  2.0422
  969MOL0     H27873  -0.542  10.799   9.512 -1.3800 -3.3447 -0.3544
  969MOL0     H27874  -0.740  10.453   9.768 -0.0178 -3.4071 -0.6101
  969MOL0     H27875  -0.652  10.408   9.627  0.4156  0.2118  1.1242
  969MOL0     H27876  -0.843  10.471   9.499  2.8813  1.4530 -0.2015
  969MOL0     H27877  -0.892  10.601   9.612 -0.6038  0.0730  2.7623
  969MOL0     H27878  -0.948  10.445   9.790 -1.1157 -0.9016 -0.3994
  969MOL0     H27879  -0.921  10.315   9.680  2.2526  0.3552  0.1841
  969MOL0     H27880  -1.114  10.539   9.583 -3.8692 -1.1258 -0.2811
  969MOL0     H27881  -1.105  10.378   9.547  1.5268  3.8011 -2.4532
  969MOL0     H27882  -1.198  10.509   9.797  0.7834 -0.8507  2.0462
  969MOL0     H27883  -1.168  10.337   9.806 -0.6615  0.0025  0.9183
  969MOL0     H27884  -1.330  10.293   9.621  0.0535  0.2794 -0.5617
  969MOL0     H27885  -1.364  10.467   9.616  0.7493 -0.6823 -0.0656
  969MOL0     H27886  -1.423  10.259   9.828 -1.1625 -0.1660  1.5755
  969MOL0     H27887  -1.402  10.433   9.871 -0.1328 -1.4507  0.7837
  969MOL0     H27888  -1.593  10.289   9.678  1.9417 -0.1187  0.5040
  969MOL0     H27889  -1.598  10.464   9.684  0.3661 -0.0659 -0.4899
  969MOL0     H27890  -0.478  10.455   9.758  1.3288  0.6690  0.1866
  969MOL0     H27891  -0.226  10.512   9.747  0.3132  0.1559 -0.9335
  969MOL0     H27892   0.156  10.946   9.758  3.0337  0.8162  0.7314
  969MOL0     H27893   0.385  10.943   9.714 -1.7197  2.7411 -1.4960
  969MOL0     H27894   0.207   9.435   8.793 -1.5459  0.4916 -3.7987
  969MOL0     H27895   0.135   9.186   8.774 -0.0092 -1.7159 -3.7411
  969MOL0     H27896   0.140   8.838   8.890  2.5371 -0.2580  1.6843
  969MOL0     H27897   0.021   8.618   8.956 -0.0694  0.3779  0.0964
  969MOL0     H27898   0.220   8.253   8.877  0.6933 -0.9047 -1.5046
  969MOL0     H27899   0.152   8.266   8.717 -0.4335  0.0448  0.1103
  969MOL0     H27900  -0.063   8.201   8.803 -0.4323  0.1403  1.1048
  969MOL0     H27901   0.049   8.073   8.785 -1.4654 -0.0822 -1.3801
  969MOL0     H27902  -0.072   8.037   8.988  1.7300 -1.2492 -0.3215
  969MOL0     H27903  -0.062   8.214   9.019  1.0395  0.8504  0.1479
  969MOL0     H27904   0.161   8.208   9.087 -0.0241  0.9162 -0.6392
  969MOL0     H27905   0.070   8.088   9.189 -0.0617 -0.3049 -1.3276
  969MOL0     H27906   0.313   7.800   9.040  1.3881  0.1590  3.8042
  969MOL0     H27907   0.298   8.414   8.690  1.2789  0.6151 -1.1535
  969MOL0     H27908   0.387   8.626   8.627  1.4323  2.9948  1.5545
  970MOL0     O27909  10.914  10.042   9.881  0.1494 -0.5189 -0.1129
  970MOL0     C27910  10.947  10.122   9.794  0.1587  0.4999  0.3028
  970MOL0     O27911  10.884  10.141   9.673 -0.0994  0.1344 -0.0267
  970MOL0     C27912  10.753  10.094   9.671  0.1681  0.8011  1.1442
  970MOL0     C27913  10.723  10.002   9.566 -0.5307 -0.2258 -0.2890
  970MOL0     C27914  10.605   9.935   9.552  0.3161 -0.1791 -0.4839
  970MOL0     C27915  10.505   9.960   9.643  0.7531 -0.5853  0.3543
  970MOL0     O27916  10.385   9.893   9.612 -0.2565  1.1112  0.3247
  970MOL0     C27917  10.304   9.878   9.728 -0.0791 -0.4051 -0.3321
  970MOL0     C27918  10.177   9.782   9.705  0.2655  0.0855 -0.0288
  970MOL0     C27919  10.081   9.825   9.597  0.2436  0.0014  0.3500
  970MOL0     C27920   9.983   9.704   9.585  0.1457 -1.2465 -0.6017
  970MOL0     C27921   9.889   9.726   9.470  0.5802 -0.0107 -0.0081
  970MOL0     C27922   9.784   9.622   9.469 -0.1838 -0.1497 -0.6009
  970MOL0     C27923   9.663   9.656   9.566 -0.0286 -0.2176 -1.0066
  970MOL0     C27924   9.554   9.546   9.575 -0.2859  0.1328 -0.2719
  970MOL0     N27925   9.472   9.528   9.455 -0.4192 -0.0903  0.1587
  970MOL0     C27926   9.395   9.616   9.393 -0.3891 -0.2494 -0.9237
  970MOL0     C27927   9.338   9.545   9.291  0.5008 -0.3927 -0.7958
  970MOL0     C27928   9.237   9.567   9.183  0.1500 -0.1928  0.2361
  970MOL0     C27929   9.119   9.470   9.161  0.5707 -0.5643 -0.8172
  970MOL0     C27930   9.034   9.517   9.046 -0.2635  0.2280  0.0351
  970MOL0     C27931   8.892   9.469   9.044  0.3171 -0.7450  0.0440
  970MOL0     O27932   8.833   9.509   9.165  0.1192 -0.6088 -0.0505
  970MOL0     C27933   8.700   9.478   9.183  0.4342  0.4640 -0.5554
  970MOL0     C27934   8.641   9.523   9.301 -0.6660 -0.4253  0.1749
  970MOL0     C27935   8.506   9.502   9.336 -0.2601  0.1270 -0.1255
  970MOL0     C27936   8.427   9.432   9.243  0.4284  0.0448  0.5803
  970MOL0     C27937   8.294   9.389   9.279 -0.0676  0.2435  0.0695
  970MOL0     O27938   8.214   9.351   9.173  0.4183 -0.4901  0.0110
  970MOL0     C27939   8.078   9.323   9.186 -0.2894 -0.8276 -0.1834
  970MOL0     C27940   8.003   9.393   9.277  0.4834 -0.3139  0.4972
  970MOL0     C27941   7.867   9.368   9.283  1.2612  0.6342 -0.2521
  970MOL0     C27942   7.798   9.269   9.205  0.1825  0.1444  0.0034
  970MOL0     O27943   7.662   9.247   9.232 -0.0741 -0.1227  0.0609
  970MOL0     C27944   7.588   9.233   9.114 -0.1355 -0.1403 -0.5044
  970MOL0     C27945   7.443   9.259   9.159  0.3859  0.0340  0.0533
  970MOL0     C27946   7.342   9.245   9.047  1.0304 -0.1781  0.7862
  970MOL0     C27947   7.202   9.280   9.101  0.9056 -0.3876 -0.4345
  970MOL0     C27948   7.105   9.302   8.988 -0.1116  0.2679  0.2690
  970MOL0     C27949   7.078   9.184   8.911  0.5029  0.2779 -0.5640
  970MOL0     C27950   6.962   9.182   8.810  0.2899  0.2231 -0.7810
  970MOL0     C27951   6.834   9.206   8.896  0.9226  0.0473  1.1582
  970MOL0    Cl27952   6.694   9.135   8.803  0.1339 -0.3473 -0.0439
  970MOL0     C27953   7.887   9.203   9.112 -0.0149 -0.1488  0.0280
  970MOL0     C27954   8.022   9.229   9.104  0.1231 -0.3475  0.6251
  970MOL0     O27955   8.264   9.395   9.393  0.0080  0.2353 -0.1037
  970MOL0     C27956   8.479   9.387   9.118  0.5070 -0.7242  0.1163
  970MOL0     C27957   8.615   9.416   9.090 -0.4863 -0.0832 -0.1623
  970MOL0     N27958   9.395   9.417   9.299 -1.5858  0.2358 -0.1596
  970MOL0     N27959   9.481   9.408   9.393  0.2382  0.6837  0.7075
  970MOL0     C27960  10.520  10.068   9.742  0.3804  0.4463  0.0084
  970MOL0     C27961  10.645  10.131   9.748  1.0337  0.8681 -0.0571
  970MOL0     C27962  11.068  10.206   9.813 -0.2967 -0.2299 -0.7482
  970MOL0     C27963  11.143  10.193   9.932  0.0048 -0.1793 -0.6011
  970MOL0     C27964  11.250  10.272   9.959 -0.9257  0.5132 -0.6193
  970MOL0     C27965  11.306  10.347   9.857  0.3340  0.5593  0.4761
  970MOL0     O27966  11.423  10.417   9.898  0.4004  0.1000 -0.6290
  970MOL0     C27967  11.440  10.546   9.846 -0.7387  0.4129  0.3021
  970MOL0     C27968  11.577  10.590   9.905 -0.8341  0.5308  1.3716
  970MOL0     C27969  11.694  10.527   9.831  0.0415 -0.3650 -0.2404
  970MOL0     C27970  11.822  10.610   9.854  0.0815  0.4398  0.1403
  970MOL0     C27971  11.936  10.527   9.808 -0.2687  0.0270 -0.4005
  970MOL0     C27972  12.035  10.466   9.776  0.2353  0.2588 -0.7428
  970MOL0     C27973  11.230  10.364   9.737 -0.6294  0.8501 -0.2616
  970MOL0     C27974  11.110  10.295   9.720  0.2734 -0.5106  0.1227
  970MOL0     H27975  10.808   9.985   9.501  2.3561 -1.3020  3.3713
  970MOL0     H27976  10.591   9.862   9.473  0.4370 -0.6106 -0.1118
  970MOL0     H27977  10.264   9.977   9.753  0.0903  0.1140 -1.9888
  970MOL0     H27978  10.355   9.836   9.815  0.0212 -2.7661 -1.4461
  970MOL0     H27979  10.126   9.773   9.802 -0.0078 -2.5161 -0.3371
  970MOL0     H27980  10.211   9.680   9.685 -1.5989 -1.0988  2.2940
  970MOL0     H27981  10.122   9.842   9.497 -2.7279  2.8272 -0.5572
  970MOL0     H27982  10.029   9.913   9.634 -0.5111 -0.5562  0.6513
  970MOL0     H27983  10.037   9.611   9.565  2.2580  0.0179 -1.0454
  970MOL0     H27984   9.937   9.697   9.684  0.2479 -1.9265 -0.5946
  970MOL0     H27985   9.952   9.710   9.382 -1.3867 -1.5190 -1.2410
  970MOL0     H27986   9.855   9.830   9.460  0.2035 -0.1969 -0.7616
  970MOL0     H27987   9.826   9.524   9.492  1.9265  0.9952  0.8367
  970MOL0     H27988   9.734   9.623   9.372 -3.1179 -0.3178  0.7784
  970MOL0     H27989   9.702   9.672   9.668 -2.5059  2.4832 -0.3468
  970MOL0     H27990   9.620   9.754   9.544  0.1635 -0.0288 -0.5614
  970MOL0     H27991   9.481   9.564   9.654 -1.6477 -1.1409 -1.1914
  970MOL0     H27992   9.614   9.457   9.592  1.0980  1.3746  1.8932
  970MOL0     H27993   9.371   9.720   9.417  1.4786  0.4234 -1.7511
  970MOL0     H27994   9.287   9.576   9.086 -2.3339 -0.7064 -1.1654
  970MOL0     H27995   9.199   9.664   9.217  0.3446  0.6271 -1.7682
  970MOL0     H27996   9.058   9.472   9.252 -0.3087  1.5389 -1.3792
  970MOL0     H27997   9.156   9.368   9.146  0.8194 -0.3019 -2.0882
  970MOL0     H27998   9.020   9.626   9.052 -2.0316  0.0898 -0.9992
  970MOL0     H27999   9.092   9.491   8.957  2.2132 -1.1491  1.9155
  970MOL0     H28000   8.872   9.364   9.022 -1.3052 -0.0592 -2.0953
  970MOL0     H28001   8.832   9.502   8.959  1.0447 -0.9845 -0.5757
  970MOL0     H28002   8.702   9.582   9.368 -0.1757 -0.2862 -0.3772
  970MOL0     H28003   8.470   9.543   9.430  1.0486  1.1565 -0.0480
  970MOL0     H28004   8.049   9.462   9.346 -0.5108  1.3063 -0.3941
  970MOL0     H28005   7.794   9.427   9.338 -1.6340  1.2213 -4.2949
  970MOL0     H28006   7.596   9.128   9.083 -3.5900 -1.7849  3.2446
  970MOL0     H28007   7.623   9.298   9.033  2.8173 -0.1551  0.6326
  970MOL0     H28008   7.439   9.360   9.201 -0.5108  0.0467 -0.0441
  970MOL0     H28009   7.422   9.190   9.240 -0.8381  0.3145 -0.0130
  970MOL0     H28010   7.332   9.141   9.018  0.8594 -0.2768  1.1898
  970MOL0     H28011   7.370   9.308   8.962  0.1036 -0.1810  0.4624
  970MOL0     H28012   7.176   9.194   9.165  1.2141 -1.0295 -1.1577
  970MOL0     H28013   7.214   9.369   9.164 -3.8249  0.8420 -0.8961
  970MOL0     H28014   7.129   9.384   8.920 -0.2619 -1.1498 -1.5871
  970MOL0     H28015   7.012   9.330   9.037  0.1201 -2.0285  2.1882
  970MOL0     H28016   7.061   9.109   8.989 -1.6425  3.7185  2.6317
  970MOL0     H28017   7.163   9.151   8.850 -0.7975 -1.5789 -1.4982
  970MOL0     H28018   6.983   9.243   8.722 -1.9284 -0.3300 -1.7667
  970MOL0     H28019   6.948   9.082   8.769 -1.3276  1.0535 -2.4250
  970MOL0     H28020   6.833   9.315   8.907  1.7644  0.0821  0.9913
  970MOL0     H28021   6.831   9.165   8.997  0.9113  1.7375  1.8817
  970MOL0     H28022   7.852   9.110   9.067  1.4325 -1.3247  1.2190
  970MOL0     H28023   8.087   9.165   9.044 -2.3308 -1.2089 -1.3373
  970MOL0     H28024   8.415   9.331   9.050  0.1882 -1.4807  1.0203
  970MOL0     H28025   8.658   9.381   8.997  2.5916  1.0401  0.7103
  970MOL0     H28026  10.446  10.088   9.819 -0.2674  0.0151 -0.4851
  970MOL0     H28027  10.664  10.203   9.828  1.4984  0.0049  0.6323
  970MOL0     H28028  11.125  10.119  10.010  1.7925  0.8096  0.8414
  970MOL0     H28029  11.297  10.261  10.056  0.2637 -0.3134 -1.2645
  970MOL0     H28030  11.351  10.606   9.866 -0.4878  1.0273 -0.4029
  970MOL0     H28031  11.460  10.545   9.739 -0.0819  3.4648  0.3324
  970MOL0     H28032  11.583  10.699   9.913 -0.5604  0.7484 -1.0793
  970MOL0     H28033  11.581  10.558  10.010 -1.3341 -2.3265  0.6056
  970MOL0     H28034  11.672  10.506   9.726 -1.4692 -0.8899  0.1534
  970MOL0     H28035  11.712  10.428   9.873  3.6683 -0.5718 -1.9759
  970MOL0     H28036  11.825  10.709   9.807  1.0287 -0.2811 -1.4183
  970MOL0     H28037  11.823  10.643   9.958 -2.0986 -0.2300  0.4277
  970MOL0     H28038  12.111  10.392   9.759 -0.3007 -0.7124  0.8746
  970MOL0     H28039  11.249  10.431   9.654  1.3290 -0.5209 -0.9954
  970MOL0     H28040  11.064  10.302   9.622 -1.4567  2.0233  1.0195
  971MOL0     O28041   2.447   8.902  10.336 -0.8038 -0.1443 -0.4117
  971MOL0     C28042   2.436   8.969  10.235 -1.0541 -0.0770 -0.0335
  971MOL0     O28043   2.325   9.038  10.198  0.4418  0.1213  0.1396
  971MOL0     C28044   2.206   9.018  10.265 -0.3520 -0.3644  0.4031
  971MOL0     C28045   2.177   9.106  10.365 -0.2133 -0.5339 -0.1310
  971MOL0     C28046   2.045   9.096  10.419 -0.1790 -0.5737 -0.4944
  971MOL0     C28047   1.958   8.998  10.380  0.2365 -0.5437 -0.6610
  971MOL0     O28048   1.844   8.995  10.446  0.0673  0.2812  0.3944
  971MOL0     C28049   1.734   8.913  10.390  1.0207 -0.1061  0.2096
  971MOL0     C28050   1.716   8.789  10.471 -0.0067  0.7734 -0.1932
  971MOL0     C28051   1.825   8.684  10.463  0.4705 -0.6231  0.6367
  971MOL0     C28052   1.803   8.572  10.562 -0.2045 -0.6913 -0.2107
  971MOL0     C28053   1.715   8.460  10.507  0.5827  0.0067  0.1989
  971MOL0     C28054   1.668   8.369  10.621  0.0123  0.2119 -0.5258
  971MOL0     C28055   1.574   8.448  10.712  0.0901 -0.3807  0.0935
  971MOL0     C28056   1.488   8.357  10.801  0.7340  0.2487  0.7009
  971MOL0     N28057   1.548   8.249  10.864 -0.4835  0.3052  0.1082
  971MOL0     C28058   1.556   8.124  10.806 -0.0360  0.3666  0.5541
  971MOL0     C28059   1.626   8.059  10.905  0.5355 -0.3622  0.0282
  971MOL0     C28060   1.684   7.928  10.873  0.4289  0.3314 -0.0652
  971MOL0     C28061   1.816   7.934  10.792  0.1292 -1.1243 -0.6255
  971MOL0     C28062   1.846   7.800  10.736 -0.1282 -0.0139 -0.2809
  971MOL0     C28063   1.992   7.800  10.695 -0.5254 -0.8284  0.1300
  971MOL0     O28064   2.072   7.788  10.808 -0.0332  0.5970  0.2638
  971MOL0     C28065   2.207   7.800  10.798 -0.7082 -0.1383 -0.0406
  971MOL0     C28066   2.281   7.788  10.683 -0.2087 -0.3203  0.6797
  971MOL0     C28067   2.416   7.800  10.688 -0.2044 -0.0458  0.2507
  971MOL0     C28068   2.484   7.830  10.809  0.3859  0.2090  0.8658
  971MOL0     C28069   2.629   7.838  10.813 -0.7163 -0.6073 -0.1841
  971MOL0     O28070   2.695   7.855  10.695  0.3168  0.1899 -0.9544
  971MOL0     C28071   2.826   7.810  10.678 -0.8470  0.4824 -0.0088
  971MOL0     C28072   2.887   7.858  10.565  0.2921 -0.9159  0.4994
  971MOL0     C28073   3.020   7.833  10.535 -0.1417 -0.4572  0.7921
  971MOL0     C28074   3.095   7.748  10.621  0.1364  0.3562 -0.3957
  971MOL0     O28075   3.222   7.711  10.590 -0.6474  0.3307  0.2786
  971MOL0     C28076   3.317   7.814  10.563 -0.5044 -0.4119 -0.1360
  971MOL0     C28077   3.466   7.777  10.563  0.4384  0.4534  0.3090
  971MOL0     C28078   3.516   7.712  10.435  0.5943 -0.9180 -0.2559
  971MOL0     C28079   3.455   7.581  10.390  0.4162 -1.5372  0.9595
  971MOL0     C28080   3.465   7.464  10.494  0.6178  0.0238  0.6517
  971MOL0     C28081   3.608   7.414  10.513  0.3794  0.6116 -0.4634
  971MOL0     C28082   3.645   7.310  10.401  0.0278 -0.3576 -0.2568
  971MOL0     C28083   3.804   7.294  10.393 -0.3539  0.6498 -0.0285
  971MOL0    Cl28084   3.866   7.423  10.290 -0.1182 -0.0921 -0.0999
  971MOL0     C28085   3.037   7.695  10.732  0.1750 -0.8388 -0.0557
  971MOL0     C28086   2.904   7.723  10.760  0.4166  0.3365 -0.4810
  971MOL0     O28087   2.683   7.836  10.925  0.4449  0.1960  0.2082
  971MOL0     C28088   2.414   7.847  10.929 -0.1631 -0.2673  0.2132
  971MOL0     C28089   2.275   7.826  10.921 -0.4497  0.7687  0.0498
  971MOL0     N28090   1.644   8.136  11.015  0.2914 -0.6526  0.2649
  971MOL0     N28091   1.608   8.257  10.989  0.0190  0.6746 -0.5806
  971MOL0     C28092   1.994   8.909  10.280 -0.2993 -0.4722 -0.0449
  971MOL0     C28093   2.111   8.924  10.220  0.6833  0.8584  0.5132
  971MOL0     C28094   2.562   9.003  10.163  0.6145  0.2392 -0.5582
  971MOL0     C28095   2.586   9.125  10.092  0.4828 -0.2187 -0.2373
  971MOL0     C28096   2.717   9.142  10.034  0.1688  0.7990 -0.4963
  971MOL0     C28097   2.815   9.045  10.056 -0.2507 -0.5237 -0.0208
  971MOL0     O28098   2.943   9.083  10.001  0.3107 -0.0163  0.2445
  971MOL0     C28099   3.057   9.001  10.048 -0.5667  0.3263 -0.2408
  971MOL0     C28100   3.191   9.030   9.979  0.1155 -0.5948 -0.9178
  971MOL0     C28101   3.309   8.961  10.054 -0.0575  0.3973  1.1172
  971MOL0     C28102   3.447   9.033  10.024  0.3535 -0.5343  0.2709
  971MOL0     C28103   3.469   9.029   9.877  0.4841 -0.7351  0.2037
  971MOL0     C28104   3.482   9.017   9.760 -0.2987  0.3097 -0.4045
  971MOL0     C28105   2.792   8.932  10.132 -0.2431  0.2656 -0.4623
  971MOL0     C28106   2.669   8.906  10.181  0.5119  0.5633 -0.1856
  971MOL0     H28107   2.251   9.184  10.381 -1.1388  0.5373 -0.9547
  971MOL0     H28108   2.021   9.179  10.485  1.7946 -1.1047  0.9873
  971MOL0     H28109   1.751   8.891  10.284 -2.5881  0.3464 -0.6022
  971MOL0     H28110   1.642   8.972  10.384  1.7711  0.9551 -1.6475
  971MOL0     H28111   1.616   8.747  10.459  0.0079 -0.5212  3.1124
  971MOL0     H28112   1.706   8.807  10.579 -3.0265 -1.3671 -0.0040
  971MOL0     H28113   1.925   8.724  10.483  0.1321 -0.2742  1.7246
  971MOL0     H28114   1.827   8.640  10.363 -1.4485 -1.0954  0.7678
  971MOL0     H28115   1.899   8.529  10.591  0.9217  0.2812 -2.2435
  971MOL0     H28116   1.757   8.612  10.653 -0.8098 -1.5191 -0.1486
  971MOL0     H28117   1.767   8.406  10.428 -0.1125 -1.0542  0.4493
  971MOL0     H28118   1.629   8.497  10.451  1.2500  0.3251 -0.6262
  971MOL0     H28119   1.750   8.327  10.680 -1.3924  2.3244  3.2868
  971MOL0     H28120   1.607   8.293  10.570 -1.3298  0.1920  1.0045
  971MOL0     H28121   1.637   8.506  10.780  1.5680 -1.4458 -0.3186
  971MOL0     H28122   1.517   8.513  10.645 -1.2697 -2.7031 -1.1132
  971MOL0     H28123   1.403   8.309  10.751  0.5082 -0.2892  1.5715
  971MOL0     H28124   1.445   8.424  10.877  1.8951 -0.7420  2.3045
  971MOL0     H28125   1.542   8.087  10.705  2.7659 -1.1202  0.6148
  971MOL0     H28126   1.616   7.869  10.811 -0.2938  0.8567  0.2151
  971MOL0     H28127   1.700   7.879  10.970  0.1661  2.5301  1.1505
  971MOL0     H28128   1.893   7.970  10.860 -0.2676 -0.3465 -0.5819
  971MOL0     H28129   1.820   8.003  10.708  2.1110  0.2429  0.5293
  971MOL0     H28130   1.816   7.722  10.806 -2.1531 -0.2176 -1.2982
  971MOL0     H28131   1.785   7.786  10.646  0.4843 -3.3428 -0.2731
  971MOL0     H28132   2.015   7.893  10.643 -1.4549 -0.2896  0.6652
  971MOL0     H28133   2.006   7.717  10.625  1.2130 -0.5137  0.0570
  971MOL0     H28134   2.227   7.770  10.591 -0.8757  1.1869  0.7442
  971MOL0     H28135   2.465   7.780  10.593 -2.0471 -3.5416 -0.1195
  971MOL0     H28136   2.837   7.934  10.507  1.4483 -1.2205 -0.9616
  971MOL0     H28137   3.068   7.882  10.451 -2.3005 -1.1426 -0.9202
  971MOL0     H28138   3.286   7.899  10.623 -4.3892 -1.8859  0.2092
  971MOL0     H28139   3.301   7.845  10.459  2.5517  2.7538  0.1382
  971MOL0     H28140   3.486   7.707  10.644 -2.6317  2.4516  3.0895
  971MOL0     H28141   3.529   7.864  10.584  1.9584 -0.4396 -0.3983
  971MOL0     H28142   3.625   7.705  10.437  0.6517 -0.0032  0.9944
  971MOL0     H28143   3.492   7.792  10.364  0.7810 -0.4551  0.1970
  971MOL0     H28144   3.350   7.601  10.363  1.0067 -0.6758 -0.8860
  971MOL0     H28145   3.500   7.544  10.297 -0.5708 -0.4465  0.0067
  971MOL0     H28146   3.398   7.384  10.463  0.2114  0.4547  0.4148
  971MOL0     H28147   3.427   7.494  10.592 -0.4662  1.3304 -0.1300
  971MOL0     H28148   3.606   7.358  10.606  2.6067  0.3547 -0.5063
  971MOL0     H28149   3.680   7.497  10.519  1.2402 -0.0132 -1.6144
  971MOL0     H28150   3.604   7.216  10.440 -0.9847  0.1478 -0.0707
  971MOL0     H28151   3.599   7.344  10.308  1.9396  2.9181 -0.1765
  971MOL0     H28152   3.831   7.201  10.343  1.0696  1.8353 -1.6187
  971MOL0     H28153   3.839   7.296  10.497 -0.2668 -1.8972  0.0574
  971MOL0     H28154   3.096   7.633  10.799 -0.4850  0.7894  2.1587
  971MOL0     H28155   2.860   7.687  10.853  1.7203  4.8373  2.2031
  971MOL0     H28156   2.452   7.881  11.025  3.5327 -0.3648 -1.0608
  971MOL0     H28157   2.217   7.844  11.011  0.8646  0.8724  0.8940
  971MOL0     H28158   1.939   8.819  10.257 -0.2907 -0.2304 -1.0524
  971MOL0     H28159   2.143   8.852  10.145  2.2561  0.9288  1.0660
  971MOL0     H28160   2.508   9.200  10.084 -2.7466 -3.3693 -0.4292
  971MOL0     H28161   2.750   9.225   9.972  0.4504  0.2806 -1.0552
  971MOL0     H28162   3.031   8.902  10.008 -0.0382  1.2024 -2.9469
  971MOL0     H28163   3.065   8.993  10.157 -0.2430 -0.5298 -0.3231
  971MOL0     H28164   3.177   8.992   9.877 -1.4033 -3.1306  0.1213
  971MOL0     H28165   3.201   9.139   9.979 -0.5492 -0.2845  4.1021
  971MOL0     H28166   3.318   8.855  10.027  3.5595  0.5735  1.1190
  971MOL0     H28167   3.296   8.975  10.162  1.4322  0.6915  1.2894
  971MOL0     H28168   3.451   9.133  10.070  0.6819 -0.7138  0.6325
  971MOL0     H28169   3.523   8.970  10.070 -0.8213 -2.6365 -0.5611
  971MOL0     H28170   3.490   9.009   9.653 -1.5061  1.0558 -0.5778
  971MOL0     H28171   2.864   8.859  10.167 -1.3951 -1.2306 -1.0922
  971MOL0     H28172   2.657   8.815  10.239  0.1223 -0.0029 -1.1391
  972MOL0     O28173   6.101   0.791   9.625  0.4760  0.3866 -0.5747
  972MOL0     C28174   6.060   0.734   9.523  0.8976 -0.4583  0.3394
  972MOL0     O28175   5.933   0.669   9.514 -0.2976  0.1895  0.5811
  972MOL0     C28176   5.846   0.665   9.618 -0.0014 -0.1482 -0.1794
  972MOL0     C28177   5.711   0.649   9.596  0.4159 -0.4480 -0.4071
  972MOL0     C28178   5.625   0.623   9.700  0.2091  0.2528 -0.3834
  972MOL0     C28179   5.664   0.619   9.830 -0.8707  1.0649  0.1270
  972MOL0     O28180   5.567   0.586   9.932  0.3803 -0.7112  0.2793
  972MOL0     C28181   5.601   0.486  10.022  0.7857  0.7078 -0.5260
  972MOL0     C28182   5.562   0.347   9.966  0.1811 -0.5039 -0.9138
  972MOL0     C28183   5.579   0.242  10.069 -0.1624 -0.7552  0.2629
  972MOL0     C28184   5.517   0.120  10.027  0.4623  0.2026 -0.5458
  972MOL0     C28185   5.533   0.016  10.135 -0.5015 -0.3538 -0.4809
  972MOL0     C28186   5.506  -0.130  10.089  0.0613 -0.3863  0.3026
  972MOL0     C28187   5.563  -0.241  10.183  0.3014 -0.5987  0.1551
  972MOL0     C28188   5.615  -0.379  10.122  0.3913 -0.6869 -0.4467
  972MOL0     N28189   5.513  -0.473  10.094  0.0766 -0.0820 -0.1020
  972MOL0     C28190   5.442  -0.479   9.974  0.0909 -0.1653 -0.2452
  972MOL0     C28191   5.380  -0.601   9.975  0.3202 -0.2564 -0.8968
  972MOL0     C28192   5.286  -0.641   9.866 -0.7689  0.3646  0.2987
  972MOL0     C28193   5.163  -0.701   9.912  0.5221  0.0562 -0.6880
  972MOL0     C28194   5.052  -0.680   9.806 -0.8979 -0.5127  0.0859
  972MOL0     C28195   4.933  -0.766   9.843 -0.4770  0.0107 -0.3792
  972MOL0     O28196   4.817  -0.718   9.769 -0.1826  0.4316  0.3948
  972MOL0     C28197   4.699  -0.779   9.797 -0.0243  0.6483  1.0498
  972MOL0     C28198   4.593  -0.708   9.855 -0.7089 -0.4740  0.1854
  972MOL0     C28199   4.480  -0.771   9.905 -1.3618 -0.6403 -0.2523
  972MOL0     C28200   4.465  -0.911   9.887 -0.2806  0.8184 -0.4522
  972MOL0     C28201   4.334  -0.971   9.915 -0.0951 -0.3399  0.3728
  972MOL0     O28202   4.239  -0.884   9.959  0.6048 -0.4422 -0.2382
  972MOL0     C28203   4.101  -0.910   9.980 -1.2626 -0.2130  0.4476
  972MOL0     C28204   4.037  -1.039   9.981  0.1635 -0.2059 -0.5308
  972MOL0     C28205   3.907  -1.051  10.016  0.3453 -0.2588  0.1799
  972MOL0     C28206   3.828  -0.937  10.042 -0.4083  0.0325  0.0029
  972MOL0     O28207   3.700  -0.946  10.077  0.0108  0.1148  0.2148
  972MOL0     C28208   3.622  -1.074  10.065 -0.3192 -0.0673  0.1756
  972MOL0     C28209   3.483  -1.034  10.067 -0.5222  0.9714 -0.1654
  972MOL0     C28210   3.400  -1.145  10.121  0.0953  0.3201 -0.0438
  972MOL0     C28211   3.256  -1.096  10.128  0.4951  0.3819 -0.1148
  972MOL0     C28212   3.148  -1.208  10.172 -0.8255  0.4741 -0.5043
  972MOL0     C28213   3.164  -1.290  10.303 -0.4180  0.7020 -0.6958
  972MOL0     C28214   3.067  -1.404  10.320  0.6404  0.2851  0.2133
  972MOL0     C28215   3.062  -1.462  10.465 -0.8569 -0.5472  0.1270
  972MOL0    Cl28216   3.226  -1.526  10.501  0.2328  0.0291  0.5680
  972MOL0     C28217   3.882  -0.806  10.039 -0.7213 -0.3305 -0.1424
  972MOL0     C28218   4.022  -0.801  10.016 -0.0188 -0.0545  0.5910
  972MOL0     O28219   4.316  -1.084   9.875  0.5024  0.1898  0.4744
  972MOL0     C28220   4.567  -0.985   9.817  0.8808 -1.3894 -0.1850
  972MOL0     C28221   4.679  -0.918   9.779 -0.0320 -1.2013  0.1014
  972MOL0     N28222   5.400  -0.654  10.098 -0.2583  0.7723 -0.8845
  972MOL0     N28223   5.483  -0.584  10.166  0.5663  0.5214 -1.2784
  972MOL0     C28224   5.800   0.612   9.850  0.5581  0.6625 -0.0311
  972MOL0     C28225   5.891   0.630   9.747 -0.9637 -0.2904  0.3494
  972MOL0     C28226   6.151   0.727   9.411 -0.1784 -0.4474  0.4857
  972MOL0     C28227   6.128   0.642   9.304 -0.0141 -0.3076  0.2766
  972MOL0     C28228   6.223   0.617   9.207  0.7672  1.3063  0.3192
  972MOL0     C28229   6.341   0.689   9.206 -0.1740 -0.0849  0.4965
  972MOL0     O28230   6.436   0.685   9.108  0.1867 -0.7279 -0.3104
  972MOL0     C28231   6.474   0.563   9.045 -1.1483 -0.3103 -0.4332
  972MOL0     C28232   6.581   0.492   9.129  0.2831 -0.4792  0.0971
  972MOL0     C28233   6.601   0.348   9.088  0.2518 -0.9455  0.5003
  972MOL0     C28234   6.736   0.288   9.119  0.0006 -0.3173 -1.0068
  972MOL0     C28235   6.748   0.230   9.252  0.0432 -0.0450  0.1058
  972MOL0     C28236   6.736   0.164   9.355  1.0851 -0.6306  0.2013
  972MOL0     C28237   6.366   0.786   9.311 -0.7404 -0.4520  0.1505
  972MOL0     C28238   6.279   0.797   9.418  0.2780 -0.0845  0.0639
  972MOL0     H28239   5.687   0.650   9.490  1.3220  0.2872 -0.6155
  972MOL0     H28240   5.521   0.590   9.703  0.3178 -0.0432  0.3323
  972MOL0     H28241   5.539   0.500  10.111 -0.1214 -0.3115 -0.9650
  972MOL0     H28242   5.702   0.498  10.063  0.7733 -0.2754 -0.1618
  972MOL0     H28243   5.629   0.315   9.886  4.0016 -1.9127  2.4928
  972MOL0     H28244   5.458   0.364   9.939  0.2071 -0.0859 -0.7660
  972MOL0     H28245   5.535   0.281  10.160 -1.5468 -2.6566  0.4637
  972MOL0     H28246   5.688   0.234  10.074  0.2063  1.1286 -2.3572
  972MOL0     H28247   5.410   0.139  10.013  0.7609  0.6113 -2.6050
  972MOL0     H28248   5.551   0.085   9.930  1.4822  0.9195 -0.4618
  972MOL0     H28249   5.476   0.043  10.225 -0.2467 -1.7626  0.1312
  972MOL0     H28250   5.639   0.031  10.160 -0.7135  2.3907 -0.9560
  972MOL0     H28251   5.553  -0.139   9.991  1.5249  2.9144  0.5935
  972MOL0     H28252   5.398  -0.148  10.084  0.2837 -1.7606 -0.1182
  972MOL0     H28253   5.651  -0.199  10.232  0.0669 -1.2706  1.1864
  972MOL0     H28254   5.494  -0.262  10.265 -0.7878  1.1155 -0.2648
  972MOL0     H28255   5.681  -0.417  10.201 -1.5622  1.7392  2.5848
  972MOL0     H28256   5.672  -0.357  10.031 -1.5385  1.9158 -1.1376
  972MOL0     H28257   5.437  -0.405   9.895  1.9704  0.0654 -0.2136
  972MOL0     H28258   5.326  -0.704   9.786 -1.9598 -0.4196  0.2956
  972MOL0     H28259   5.265  -0.546   9.815 -0.9581  0.5871  0.7793
  972MOL0     H28260   5.119  -0.656  10.001 -1.8925 -3.2238 -0.0327
  972MOL0     H28261   5.176  -0.809   9.923  0.8390  0.1970  0.3868
  972MOL0     H28262   5.024  -0.575   9.811 -2.2724 -0.6889 -2.4107
  972MOL0     H28263   5.086  -0.697   9.704 -1.2202 -0.7110  0.0102
  972MOL0     H28264   4.914  -0.762   9.951  0.4217  1.9879 -0.2418
  972MOL0     H28265   4.961  -0.867   9.813  3.3025  1.2880 -1.7297
  972MOL0     H28266   4.613  -0.603   9.875 -0.9080 -0.6748  1.5137
  972MOL0     H28267   4.415  -0.704   9.959  0.2560 -0.1682  1.2204
  972MOL0     H28268   4.091  -1.126   9.945  2.3525  1.3151 -1.1160
  972MOL0     H28269   3.855  -1.146  10.013  1.3798 -0.8265 -1.3141
  972MOL0     H28270   3.650  -1.131  10.154  3.2021 -0.5292 -1.0456
  972MOL0     H28271   3.644  -1.136   9.977  2.1510 -0.9270  1.2966
  972MOL0     H28272   3.446  -1.005   9.967  0.1020 -0.2752 -0.7743
  972MOL0     H28273   3.468  -0.949  10.134 -0.4372  1.8852 -1.2557
  972MOL0     H28274   3.437  -1.167  10.221  2.2397  0.4419 -0.7580
  972MOL0     H28275   3.398  -1.233  10.056  1.5189 -0.9412  1.5346
  972MOL0     H28276   3.264  -1.014  10.199  0.8651  0.7881 -0.6108
  972MOL0     H28277   3.233  -1.038  10.038 -1.9201  0.0021  0.1919
  972MOL0     H28278   3.135  -1.282  10.093 -1.4356  0.3123 -0.2583
  972MOL0     H28279   3.053  -1.152  10.166 -1.4274 -0.3508  0.8718
  972MOL0     H28280   3.143  -1.222  10.387 -1.1827  0.3368 -0.5851
  972MOL0     H28281   3.264  -1.334  10.315 -0.6221  0.5975  0.7620
  972MOL0     H28282   2.966  -1.370  10.297  1.4197  2.6548 -0.0067
  972MOL0     H28283   3.099  -1.480  10.249  0.6636  1.4579 -1.0627
  972MOL0     H28284   2.982  -1.536  10.473 -0.7881 -0.5831  0.5021
  972MOL0     H28285   3.029  -1.385  10.536 -3.5259  0.3329 -1.9002
  972MOL0     H28286   3.825  -0.714  10.043  0.9056  0.7148 -0.1189
  972MOL0     H28287   4.068  -0.703  10.028  1.8393 -0.8969  0.7768
  972MOL0     H28288   4.554  -1.084   9.773 -0.3838 -1.0287 -0.6811
  972MOL0     H28289   4.745  -0.969   9.710 -1.6845  0.6077 -3.0247
  972MOL0     H28290   5.841   0.602   9.950  0.8967  1.7853 -0.0421
  972MOL0     H28291   5.998   0.620   9.764 -0.8663  0.7089  0.4170
  972MOL0     H28292   6.041   0.577   9.307 -0.3401  0.1523  1.4242
  972MOL0     H28293   6.206   0.556   9.119 -0.4854  0.9497  0.7898
  972MOL0     H28294   6.510   0.582   8.943 -0.6386 -2.6365 -0.7515
  972MOL0     H28295   6.391   0.493   9.046 -2.5857  1.2709  2.5878
  972MOL0     H28296   6.679   0.539   9.122 -0.3624  0.6932 -1.6242
  972MOL0     H28297   6.556   0.495   9.236 -2.5868  1.1348 -0.5252
  972MOL0     H28298   6.588   0.347   8.979 -1.7060 -0.0007  0.6817
  972MOL0     H28299   6.525   0.285   9.135 -1.2300  0.8130  0.5910
  972MOL0     H28300   6.741   0.203   9.051 -3.2922 -1.1630 -0.3474
  972MOL0     H28301   6.821   0.349   9.087 -0.0523 -0.1075 -0.7621
  972MOL0     H28302   6.735   0.107   9.445  4.5375 -0.4947  0.4436
  972MOL0     H28303   6.463   0.834   9.315 -0.7871 -0.0706 -2.3030
  972MOL0     H28304   6.310   0.851   9.508  0.7354  1.3916 -0.9455
  973MOL0     O28305   2.726   0.282  10.466  0.5333 -0.9474 -0.4419
  973MOL0     C28306   2.616   0.348  10.459  0.4639  0.0576  0.9000
  973MOL0     O28307   2.604   0.470  10.390 -0.4474 -0.0755  0.1939
  973MOL0     C28308   2.720   0.529  10.337  0.1072 -0.1664 -0.0572
  973MOL0     C28309   2.803   0.614  10.411 -0.4574 -0.0203 -0.1696
  973MOL0     C28310   2.917   0.671  10.366  0.1313 -0.8171  0.5410
  973MOL0     C28311   2.958   0.651  10.234 -0.0883 -0.0613 -0.1614
  973MOL0     O28312   3.082   0.685  10.192  0.4327  0.9332 -0.5439
  973MOL0     C28313   3.102   0.735  10.055 -0.2586  0.2412  0.3100
  973MOL0     C28314   3.238   0.795  10.040  0.0435  0.2271 -0.5990
  973MOL0     C28315   3.342   0.715  10.126 -0.9904 -0.4601  0.1495
  973MOL0     C28316   3.483   0.757  10.086 -0.3497  0.3514 -0.4682
  973MOL0     C28317   3.581   0.697  10.192 -0.4280 -0.4042 -0.1664
  973MOL0     C28318   3.727   0.730  10.155 -0.4674  0.7442 -0.2779
  973MOL0     C28319   3.810   0.686  10.272  0.2337 -0.7193 -0.6720
  973MOL0     C28320   3.959   0.711  10.239 -0.8099  1.1557 -0.5048
  973MOL0     N28321   4.051   0.675  10.352 -0.0479 -0.3139 -0.7572
  973MOL0     C28322   4.096   0.760  10.447  0.6296 -0.8091  0.2372
  973MOL0     C28323   4.190   0.696  10.516  0.7598  0.6393  0.1834
  973MOL0     C28324   4.283   0.739  10.625 -1.1413 -0.0841  0.1316
  973MOL0     C28325   4.414   0.789  10.564  0.3310 -0.5609  0.7993
  973MOL0     C28326   4.513   0.818  10.675 -0.1294  0.1595  0.8308
  973MOL0     C28327   4.635   0.898  10.644 -0.5931  0.6932 -0.4228
  973MOL0     O28328   4.736   0.816  10.585 -0.5212 -0.3560  0.0592
  973MOL0     C28329   4.864   0.873  10.572 -1.0171 -0.5376 -0.0363
  973MOL0     C28330   4.906   1.011  10.586 -1.4449  0.3485 -0.4831
  973MOL0     C28331   5.037   1.045  10.549  0.4196 -0.3252  0.0852
  973MOL0     C28332   5.130   0.951  10.505 -0.9695 -0.6086  1.1183
  973MOL0     C28333   5.271   0.987  10.472 -0.5653  0.5396 -0.1095
  973MOL0     O28334   5.342   0.875  10.436  0.2060 -0.1564  0.3782
  973MOL0     C28335   5.471   0.875  10.399  0.0643  0.3336  0.9052
  973MOL0     C28336   5.509   0.781  10.294  0.2457  0.4489  0.0050
  973MOL0     C28337   5.641   0.777  10.248  0.2336 -0.1472 -0.1121
  973MOL0     C28338   5.738   0.855  10.308 -0.1988  0.0117  0.2794
  973MOL0     O28339   5.872   0.866  10.276  0.6596  0.1590  0.3321
  973MOL0     C28340   5.915   0.774  10.174 -0.5326  0.7736 -0.4815
  973MOL0     C28341   6.070   0.810  10.145  1.0622 -0.0504 -0.9711
  973MOL0     C28342   6.158   0.701  10.078 -0.0574 -0.8340  0.3828
  973MOL0     C28343   6.299   0.749  10.045  0.7509 -0.1642 -0.0555
  973MOL0     C28344   6.386   0.648   9.980  0.1572  0.0412 -0.5986
  973MOL0     C28345   6.338   0.633   9.834  0.1033  0.2014  0.2600
  973MOL0     C28346   6.433   0.533   9.762  0.4086  0.5174 -0.6219
  973MOL0     C28347   6.385   0.489   9.623  1.3111 -0.0858  0.4225
  973MOL0    Cl28348   6.213   0.435   9.627 -0.5343 -0.3220 -0.0230
  973MOL0     C28349   5.700   0.944  10.404 -0.1262 -0.0675  0.3517
  973MOL0     C28350   5.567   0.956  10.450  0.8911  0.0031  0.2997
  973MOL0     O28351   5.313   1.105  10.468 -0.3414  0.6365 -0.1638
  973MOL0     C28352   5.087   0.820  10.493 -0.6620  0.0831  0.0002
  973MOL0     C28353   4.960   0.783  10.523  0.1765 -0.4201 -0.1895
  973MOL0     N28354   4.191   0.566  10.478 -0.2052 -0.2995 -0.7080
  973MOL0     N28355   4.121   0.550  10.371  0.1060 -0.0736 -0.4567
  973MOL0     C28356   2.880   0.565  10.154 -0.7742  0.4633  0.1572
  973MOL0     C28357   2.748   0.517  10.198 -0.5571 -0.5554 -0.3692
  973MOL0     C28358   2.496   0.275  10.499 -0.4585 -0.3896  0.1409
  973MOL0     C28359   2.373   0.343  10.515 -0.2664 -0.0345 -0.3225
  973MOL0     C28360   2.255   0.278  10.545  0.4052  0.6631 -0.1362
  973MOL0     C28361   2.258   0.141  10.569 -0.3850 -0.1491 -0.3008
  973MOL0     O28362   2.137   0.084  10.593 -0.0222  0.2827  0.3381
  973MOL0     C28363   2.141  -0.058  10.609  0.7772 -0.0214 -0.7863
  973MOL0     C28364   2.004  -0.121  10.597 -0.7114  0.5249  0.2378
  973MOL0     C28365   1.897  -0.096  10.706  0.3070  0.2797  0.5342
  973MOL0     C28366   1.944  -0.118  10.843  0.6966  0.0470 -0.2406
  973MOL0     C28367   1.834  -0.137  10.935  0.5161 -0.2380 -0.3164
  973MOL0     C28368   1.732  -0.154  10.998  0.1644 -0.1374 -0.5153
  973MOL0     C28369   2.383   0.072  10.563  0.4087 -0.5817  0.6949
  973MOL0     C28370   2.496   0.141  10.521  0.2855  0.7559 -0.3832
  973MOL0     H28371   2.762   0.633  10.510 -2.0985  0.3572 -0.8834
  973MOL0     H28372   2.984   0.728  10.429  3.2089 -1.3774 -1.9591
  973MOL0     H28373   3.024   0.808  10.030 -1.4023 -1.0611 -0.0613
  973MOL0     H28374   3.103   0.650   9.988 -0.8456 -0.5628  1.2933
  973MOL0     H28375   3.224   0.898  10.075 -0.7036  0.6176 -1.9706
  973MOL0     H28376   3.265   0.801   9.934  2.5624 -3.8571 -0.3763
  973MOL0     H28377   3.330   0.612  10.091  0.4357  0.3041 -2.9794
  973MOL0     H28378   3.324   0.726  10.233  0.9446 -0.1273  0.4834
  973MOL0     H28379   3.514   0.711   9.992 -0.0107 -0.8988  0.2370
  973MOL0     H28380   3.484   0.867  10.085 -0.6841  0.3922  0.8647
  973MOL0     H28381   3.575   0.589  10.208  3.0457 -0.4855  1.7221
  973MOL0     H28382   3.559   0.742  10.289  1.0535  1.7486 -0.7670
  973MOL0     H28383   3.735   0.838  10.141 -2.6996  0.8740 -1.0080
  973MOL0     H28384   3.763   0.671  10.071 -1.1860 -2.6707  1.6388
  973MOL0     H28385   3.784   0.765  10.343 -1.4238 -0.5648 -1.3954
  973MOL0     H28386   3.786   0.584  10.303 -0.3338 -0.6391 -0.8283
  973MOL0     H28387   3.980   0.817  10.222  1.0208  0.8997 -0.0385
  973MOL0     H28388   3.992   0.653  10.152 -1.1069 -1.4844  1.0310
  973MOL0     H28389   4.056   0.860  10.463 -1.7121 -1.6475  0.0422
  973MOL0     H28390   4.304   0.661  10.699  2.1858  0.5462  0.0047
  973MOL0     H28391   4.225   0.815  10.676 -2.2912 -0.1858 -0.9792
  973MOL0     H28392   4.380   0.882  10.517  1.3489  0.5806  2.2169
  973MOL0     H28393   4.464   0.717  10.498 -2.2311 -0.3468 -1.5467
  973MOL0     H28394   4.463   0.854  10.765  0.5823 -1.9010  2.1212
  973MOL0     H28395   4.549   0.721  10.709 -0.2316 -0.2513 -0.1773
  973MOL0     H28396   4.667   0.940  10.740  0.7451 -1.4416  0.1500
  973MOL0     H28397   4.603   0.983  10.584 -0.0308 -0.5044 -2.4991
  973MOL0     H28398   4.842   1.079  10.642 -0.2487  0.1177  1.2417
  973MOL0     H28399   5.060   1.150  10.563  0.7094 -0.6698  2.5902
  973MOL0     H28400   5.434   0.717  10.250  1.0381 -0.6772  0.2446
  973MOL0     H28401   5.664   0.713  10.163  1.3052  1.0570 -0.7815
  973MOL0     H28402   5.863   0.775  10.078  2.3494  0.1068 -2.1696
  973MOL0     H28403   5.910   0.670  10.209 -1.4295  0.6280 -0.9993
  973MOL0     H28404   6.107   0.821  10.247 -3.3939  0.8995  0.7931
  973MOL0     H28405   6.079   0.904  10.089 -1.1885  0.4630 -0.5947
  973MOL0     H28406   6.112   0.662   9.987  0.5710 -1.2372  0.2295
  973MOL0     H28407   6.166   0.615  10.146  0.0510 -1.2078 -0.1001
  973MOL0     H28408   6.286   0.841   9.988 -0.8706 -0.6650 -0.5599
  973MOL0     H28409   6.333   0.769  10.147 -1.4322  0.5174  0.5750
  973MOL0     H28410   6.375   0.553  10.034 -1.0518 -0.6940 -2.0661
  973MOL0     H28411   6.491   0.681   9.978 -0.9166  4.3804  1.7363
  973MOL0     H28412   6.335   0.732   9.787  0.1147 -0.4725 -1.2203
  973MOL0     H28413   6.242   0.581   9.831 -0.8909  1.8284  2.0868
  973MOL0     H28414   6.534   0.575   9.751  1.8041 -3.1265 -4.3321
  973MOL0     H28415   6.436   0.449   9.832  0.3802  2.4210  1.7852
  973MOL0     H28416   6.448   0.408   9.585  3.2111  1.6283 -0.2809
  973MOL0     H28417   6.394   0.569   9.550 -0.9799 -0.0831  0.0753
  973MOL0     H28418   5.776   1.012  10.442 -1.6708  1.5471  0.7261
  973MOL0     H28419   5.545   1.037  10.520  0.4031 -0.3320  0.5423
  973MOL0     H28420   5.156   0.745  10.458  1.2148  1.7158 -0.0021
  973MOL0     H28421   4.951   0.675  10.509  2.9226 -0.7583  0.1001
  973MOL0     H28422   2.922   0.545  10.056  0.3571 -0.8564  0.8819
  973MOL0     H28423   2.675   0.465  10.138  0.1823 -0.1381 -1.6804
  973MOL0     H28424   2.373   0.448  10.490 -1.6210  0.6964  2.4278
  973MOL0     H28425   2.161   0.333  10.551 -0.7313 -0.9613 -1.7186
  973MOL0     H28426   2.167  -0.068  10.715  2.2922 -2.4714 -1.3142
  973MOL0     H28427   2.203  -0.113  10.537 -0.9194 -0.9736 -1.6011
  973MOL0     H28428   1.959  -0.092  10.502  2.2672 -2.4672 -2.3383
  973MOL0     H28429   2.019  -0.229  10.600 -0.3348  0.5695  3.2142
  973MOL0     H28430   1.814  -0.165  10.695  2.6020 -2.5318 -0.4759
  973MOL0     H28431   1.855   0.005  10.711 -3.0289 -0.9918  0.2121
  973MOL0     H28432   2.017  -0.200  10.853 -0.0927 -0.5254  1.1259
  973MOL0     H28433   1.985  -0.021  10.870 -1.6140  1.3327 -1.0680
  973MOL0     H28434   1.653  -0.188  11.062 -2.5308  2.4100 -2.2509
  973MOL0     H28435   2.392  -0.031  10.594 -0.1685 -0.6028  0.8020
  973MOL0     H28436   2.584   0.079  10.504 -1.2831 -1.4010 -1.1586
  974MOL0     O28437   7.568   1.196   4.177 -0.9232 -0.1892 -0.8244
  974MOL0     C28438   7.588   1.201   4.302  0.0821 -0.1149  0.4744
  974MOL0     O28439   7.501   1.211   4.412  0.3809 -0.1629 -0.1715
  974MOL0     C28440   7.363   1.206   4.394  0.1129  0.0436 -0.0825
  974MOL0     C28441   7.291   1.270   4.296  1.1650  0.3163 -0.0629
  974MOL0     C28442   7.150   1.252   4.289  0.3384  0.4651 -0.0347
  974MOL0     C28443   7.082   1.176   4.388  0.3704  0.5010  1.1909
  974MOL0     O28444   6.948   1.189   4.376 -0.4130 -0.8760  0.3106
  974MOL0     C28445   6.869   1.136   4.484  0.0839 -0.3151  0.2123
  974MOL0     C28446   6.723   1.174   4.468  0.6532  0.8586  0.0409
  974MOL0     C28447   6.643   1.115   4.595 -0.6774 -0.3562  0.5264
  974MOL0     C28448   6.509   1.186   4.581  0.4858  0.5977  0.5273
  974MOL0     C28449   6.400   1.141   4.680 -0.0549 -0.1894 -0.2074
  974MOL0     C28450   6.278   1.224   4.665 -0.3705  0.1047 -0.3113
  974MOL0     C28451   6.157   1.160   4.730 -0.1988 -0.2096  0.2361
  974MOL0     C28452   6.032   1.256   4.708  0.1582  0.3633 -0.0783
  974MOL0     N28453   5.917   1.223   4.805  0.0522  0.1109 -0.1312
  974MOL0     C28454   5.807   1.141   4.783  0.6185 -0.3968 -0.0938
  974MOL0     C28455   5.742   1.139   4.900 -0.1244  0.2710  0.6212
  974MOL0     C28456   5.619   1.049   4.932 -0.7338 -0.2038 -0.0602
  974MOL0     C28457   5.526   1.113   5.043 -0.1402  0.3545  0.0595
  974MOL0     C28458   5.383   1.068   5.020 -0.0282  0.3206 -0.3391
  974MOL0     C28459   5.284   1.112   5.124  0.6849  0.2718  0.4169
  974MOL0     O28460   5.230   1.245   5.088  0.3079  0.0710 -1.1251
  974MOL0     C28461   5.087   1.264   5.102 -0.0535 -0.1580  0.7621
  974MOL0     C28462   5.020   1.222   5.216 -0.3752 -0.0233  0.1141
  974MOL0     C28463   4.887   1.248   5.242  0.4910 -0.4281  0.2194
  974MOL0     C28464   4.808   1.312   5.145 -0.2736 -0.2360  0.1923
  974MOL0     C28465   4.663   1.336   5.156 -0.3065  0.2580 -1.1104
  974MOL0     O28466   4.592   1.399   5.057 -0.3974  0.2387 -0.2912
  974MOL0     C28467   4.454   1.415   5.061  0.0438  0.8478  0.1155
  974MOL0     C28468   4.363   1.306   5.074  0.2377  1.1302 -0.0176
  974MOL0     C28469   4.229   1.321   5.071 -0.3591  0.3335  0.1066
  974MOL0     C28470   4.170   1.444   5.049  0.3249 -1.2566  0.4776
  974MOL0     O28471   4.035   1.429   5.031  0.0351 -0.3001 -0.6086
  974MOL0     C28472   3.980   1.536   4.944  0.8120  0.1968  0.6219
  974MOL0     C28473   3.833   1.505   4.938  0.3879 -0.0599  0.7761
  974MOL0     C28474   3.770   1.577   5.047 -0.0589  0.0896  0.2733
  974MOL0     C28475   3.621   1.561   5.045  0.0621 -0.5885 -0.2227
  974MOL0     C28476   3.544   1.620   5.164 -1.0569  0.1470  0.0209
  974MOL0     C28477   3.398   1.584   5.167  1.4150  0.0894 -0.1468
  974MOL0     C28478   3.316   1.637   5.047 -0.1666  0.3936  0.3111
  974MOL0     C28479   3.165   1.629   5.063 -0.3482 -0.6067  1.0910
  974MOL0    Cl28480   3.083   1.677   4.910  0.0123 -0.6668  0.0328
  974MOL0     C28481   4.261   1.554   5.030  0.6694 -0.6083 -0.5430
  974MOL0     C28482   4.397   1.538   5.047 -0.0722  0.4822  0.1291
  974MOL0     O28483   4.614   1.302   5.265 -0.7421  0.3022 -0.5696
  974MOL0     C28484   4.873   1.356   5.029 -0.1164  0.0213  0.1667
  974MOL0     C28485   5.010   1.339   5.010  0.1417 -0.6207 -0.6960
  974MOL0     N28486   5.814   1.213   4.993 -0.2661 -0.2934  0.3659
  974MOL0     N28487   5.914   1.261   4.934 -0.1469 -0.0311 -0.4893
  974MOL0     C28488   7.156   1.106   4.480  0.4238 -0.2875 -0.9381
  974MOL0     C28489   7.293   1.117   4.483 -0.1909  1.2495 -0.9462
  974MOL0     C28490   7.730   1.219   4.346 -0.4497  0.1810  0.8976
  974MOL0     C28491   7.766   1.242   4.484 -0.7081 -0.0853 -0.1191
  974MOL0     C28492   7.898   1.270   4.527 -0.1333 -0.3028 -0.1881
  974MOL0     C28493   8.003   1.269   4.435 -0.1570  0.5145 -0.2775
  974MOL0     O28494   8.127   1.305   4.489  0.3630 -0.3369  0.0165
  974MOL0     C28495   8.242   1.254   4.414  0.3094 -0.1434 -0.2374
  974MOL0     C28496   8.379   1.264   4.489  0.4189  0.2056 -1.0690
  974MOL0     C28497   8.490   1.219   4.408 -0.6925 -0.7700  0.2225
  974MOL0     C28498   8.614   1.179   4.493 -0.3448  0.7009  1.0170
  974MOL0     C28499   8.728   1.158   4.399  0.6280 -0.5391  0.7092
  974MOL0     C28500   8.819   1.141   4.315  0.7177 -0.6142 -0.1664
  974MOL0     C28501   7.971   1.252   4.294 -0.2124  0.4295 -0.4220
  974MOL0     C28502   7.836   1.232   4.250 -0.3008 -0.5760 -0.6182
  974MOL0     H28503   7.354   1.327   4.228  0.6085 -0.7242 -1.5141
  974MOL0     H28504   7.091   1.302   4.213  0.2155 -0.0013 -0.2464
  974MOL0     H28505   6.913   1.182   4.573 -0.2266 -0.5753  0.5025
  974MOL0     H28506   6.876   1.027   4.478 -1.7802 -0.4258 -1.0791
  974MOL0     H28507   6.675   1.138   4.376  1.4044 -0.2092  0.0490
  974MOL0     H28508   6.727   1.283   4.468  1.1496  0.8431  0.2682
  974MOL0     H28509   6.690   1.129   4.692 -0.6229 -3.6556  1.0955
  974MOL0     H28510   6.620   1.009   4.579 -1.6982  0.1316 -1.6157
  974MOL0     H28511   6.518   1.295   4.577  1.0424  0.5598  0.6129
  974MOL0     H28512   6.468   1.157   4.484 -1.6366 -2.9854  2.2871
  974MOL0     H28513   6.431   1.146   4.785 -1.0483 -1.5555  0.1867
  974MOL0     H28514   6.376   1.035   4.666 -0.8796 -0.3281  1.8376
  974MOL0     H28515   6.254   1.249   4.561 -1.6609 -0.2938 -0.1253
  974MOL0     H28516   6.298   1.319   4.715 -1.1257  0.5101 -0.7738
  974MOL0     H28517   6.135   1.064   4.683  1.0030 -1.0671  1.3551
  974MOL0     H28518   6.173   1.134   4.835  2.7408 -0.7881 -0.2757
  974MOL0     H28519   5.991   1.244   4.607 -3.8009  0.1600  1.3886
  974MOL0     H28520   6.071   1.358   4.717  0.0716  0.5691 -1.6231
  974MOL0     H28521   5.791   1.072   4.701  1.3495 -1.0513  0.3013
  974MOL0     H28522   5.672   0.961   4.970  1.2463  0.1618 -1.7366
  974MOL0     H28523   5.555   1.041   4.845 -2.0352  0.0407  0.8531
  974MOL0     H28524   5.533   1.222   5.047  0.1409  0.3174  0.6350
  974MOL0     H28525   5.560   1.071   5.138  2.8207  0.9382 -0.6394
  974MOL0     H28526   5.349   1.098   4.921  0.2869  2.0020  0.0345
  974MOL0     H28527   5.392   0.959   5.023  0.3820  0.2710 -2.1907
  974MOL0     H28528   5.325   1.113   5.225  0.4489  0.6745  0.5101
  974MOL0     H28529   5.204   1.037   5.123  1.0644 -0.1591 -1.1322
  974MOL0     H28530   5.083   1.163   5.282  3.5857  2.1673 -1.4220
  974MOL0     H28531   4.849   1.216   5.339 -1.1606  1.8825  0.4027
  974MOL0     H28532   4.408   1.207   5.079 -2.7360 -0.4275 -1.2191
  974MOL0     H28533   4.171   1.230   5.063  1.4118 -0.6590 -3.3658
  974MOL0     H28534   4.024   1.522   4.845  0.5134 -0.9226  0.6318
  974MOL0     H28535   4.002   1.636   4.983 -0.8634 -0.6426  4.1550
  974MOL0     H28536   3.808   1.402   4.962 -1.9229  0.4180  0.6974
  974MOL0     H28537   3.777   1.533   4.848  1.1135  1.1286  0.6653
  974MOL0     H28538   3.797   1.683   5.039  1.0194  0.0773  2.8432
  974MOL0     H28539   3.805   1.541   5.144 -0.1210  1.0399  0.6638
  974MOL0     H28540   3.579   1.589   4.947  0.9658 -0.5912 -0.6154
  974MOL0     H28541   3.593   1.455   5.048 -1.2203 -0.4560 -3.2717
  974MOL0     H28542   3.557   1.728   5.168 -2.3021  0.4526 -2.2391
  974MOL0     H28543   3.596   1.583   5.252  0.8952  0.9063 -0.7664
  974MOL0     H28544   3.354   1.628   5.257 -0.2864 -1.1973 -0.3107
  974MOL0     H28545   3.389   1.475   5.163 -1.8019  0.2173  1.0004
  974MOL0     H28546   3.334   1.742   5.024 -1.2568  0.5620  0.1438
  974MOL0     H28547   3.338   1.580   4.957 -0.5336  0.9122 -0.1101
  974MOL0     H28548   3.125   1.700   5.136 -1.4492 -0.8108  0.7106
  974MOL0     H28549   3.128   1.529   5.088  0.6892 -1.5315 -0.8244
  974MOL0     H28550   4.231   1.655   5.003 -1.5693 -1.5260 -1.7355
  974MOL0     H28551   4.478   1.609   5.037  1.9849 -1.6881  0.3809
  974MOL0     H28552   4.807   1.388   4.949 -1.9471 -3.5930  0.0359
  974MOL0     H28553   5.052   1.364   4.913 -1.6485  1.6979 -0.9392
  974MOL0     H28554   7.107   1.040   4.551 -0.2292  1.9712  0.8304
  974MOL0     H28555   7.356   1.072   4.559 -3.1712 -1.0797  0.3361
  974MOL0     H28556   7.685   1.244   4.557 -0.1469  1.9658  0.5140
  974MOL0     H28557   7.922   1.289   4.632  1.0070  0.0790 -0.4962
  974MOL0     H28558   8.235   1.288   4.310  3.0631  0.4212 -0.3196
  974MOL0     H28559   8.229   1.146   4.421 -1.8567  0.1731  1.8604
  974MOL0     H28560   8.388   1.369   4.516 -1.1875 -0.2978  1.8066
  974MOL0     H28561   8.374   1.205   4.581 -2.0043  1.9587  0.0333
  974MOL0     H28562   8.517   1.302   4.341  0.4605 -3.1319 -2.4514
  974MOL0     H28563   8.459   1.147   4.332 -0.4537  0.1068 -0.7429
  974MOL0     H28564   8.639   1.263   4.559  0.8874  0.0231  1.4431
  974MOL0     H28565   8.586   1.091   4.552 -2.5766  0.8688  0.2968
  974MOL0     H28566   8.903   1.124   4.250 -1.0732  0.9356 -3.0828
  974MOL0     H28567   8.044   1.261   4.215  1.2120  1.1743  0.9338
  974MOL0     H28568   7.811   1.232   4.145 -0.1443 -0.9938 -0.6578
  975MOL0     O28569   5.521   1.771   7.497  0.3845  0.0573  0.0058
  975MOL0     C28570   5.641   1.752   7.497 -0.4527 -0.2692  0.2053
  975MOL0     O28571   5.732   1.803   7.413 -0.3575  0.1511  0.5908
  975MOL0     C28572   5.680   1.852   7.297 -0.3194 -0.5789  0.0579
  975MOL0     C28573   5.618   1.782   7.206 -0.1296  0.6135 -0.2678
  975MOL0     C28574   5.541   1.838   7.108  0.9124  0.4525  0.0918
  975MOL0     C28575   5.556   1.972   7.071 -1.7396 -0.0305 -0.2342
  975MOL0     O28576   5.491   2.007   6.950  0.3068  0.0621  0.3509
  975MOL0     C28577   5.440   2.146   6.958  1.3276 -0.3465  0.5531
  975MOL0     C28578   5.331   2.168   6.855  0.2667 -0.1095  0.1720
  975MOL0     C28579   5.268   2.303   6.858  0.4859  0.6508 -0.9960
  975MOL0     C28580   5.176   2.309   6.738 -0.4612 -0.0922 -0.0337
  975MOL0     C28581   5.102   2.443   6.737 -0.3373  0.0476 -0.1240
  975MOL0     C28582   5.186   2.566   6.710  0.1258 -0.1563  0.9223
  975MOL0     C28583   5.090   2.681   6.716  1.1290  0.3792  1.2225
  975MOL0     C28584   5.020   2.708   6.585  0.0897 -0.6189 -0.2984
  975MOL0     N28585   4.910   2.808   6.601  0.3791 -1.6049 -0.1299
  975MOL0     C28586   4.913   2.926   6.671 -0.5038 -0.0267  0.3678
  975MOL0     C28587   4.785   2.972   6.663 -0.2039 -0.3702  0.2525
  975MOL0     C28588   4.718   3.100   6.716 -0.8974  0.6326 -0.9669
  975MOL0     C28589   4.746   3.218   6.627 -0.2769  0.2855  0.3173
  975MOL0     C28590   4.716   3.350   6.689 -0.4074  0.1701  0.2895
  975MOL0     C28591   4.562   3.372   6.718 -0.4097  0.2555  0.2609
  975MOL0     O28592   4.551   3.515   6.735  0.5339 -0.1303  0.5334
  975MOL0     C28593   4.464   3.572   6.822  0.3063 -1.2345  0.0711
  975MOL0     C28594   4.348   3.516   6.851  0.5436 -0.1793 -0.1840
  975MOL0     C28595   4.259   3.568   6.954 -0.6453 -0.0344 -0.3905
  975MOL0     C28596   4.309   3.681   7.026  0.1311 -0.4808 -0.1672
  975MOL0     C28597   4.222   3.738   7.140 -0.6376 -0.3388 -0.1730
  975MOL0     O28598   4.094   3.697   7.154 -0.3233 -0.2785 -0.2690
  975MOL0     C28599   4.014   3.741   7.263 -0.7742  0.3633  0.1742
  975MOL0     C28600   4.046   3.839   7.356  0.5444 -0.3198 -0.2607
  975MOL0     C28601   3.953   3.884   7.439 -0.1512 -0.0008 -0.4526
  975MOL0     C28602   3.819   3.850   7.427  0.0658  0.2962  0.3978
  975MOL0     O28603   3.725   3.905   7.516 -0.1642  0.7169 -0.2942
  975MOL0     C28604   3.584   3.862   7.509 -0.2806 -0.5671 -0.6364
  975MOL0     C28605   3.561   3.764   7.620 -0.5288 -0.6477  0.1328
  975MOL0     C28606   3.419   3.706   7.618 -0.4040  0.0849  0.8292
  975MOL0     C28607   3.321   3.799   7.662  0.1147 -0.4106 -0.4121
  975MOL0     C28608   3.185   3.733   7.678 -0.8027  0.0260 -1.1502
  975MOL0     C28609   3.082   3.828   7.732 -0.0283  0.1130  0.7148
  975MOL0     C28610   2.945   3.763   7.745 -0.7725 -1.2010 -0.0518
  975MOL0     C28611   2.827   3.857   7.783 -0.5787  0.7768  0.0740
  975MOL0    Cl28612   2.685   3.759   7.843 -0.0951 -0.3650 -0.0282
  975MOL0     C28613   3.791   3.744   7.340  0.1736 -0.2018 -0.6332
  975MOL0     C28614   3.886   3.693   7.252  0.2344  0.7165 -0.6333
  975MOL0     O28615   4.286   3.811   7.219  0.0312  0.7467 -0.6737
  975MOL0     C28616   4.436   3.738   6.996  0.1277 -0.4542 -0.3055
  975MOL0     C28617   4.517   3.676   6.896 -0.3039 -0.0250 -0.6797
  975MOL0     N28618   4.714   2.888   6.575 -0.3563 -0.0944 -0.7734
  975MOL0     N28619   4.792   2.794   6.542 -0.3945  0.1438 -0.6593
  975MOL0     C28620   5.641   2.056   7.153 -0.2793  0.4242  0.1106
  975MOL0     C28621   5.680   1.994   7.274  0.2102 -0.4948  0.4405
  975MOL0     C28622   5.683   1.658   7.604 -0.2864 -1.2563 -0.7755
  975MOL0     C28623   5.601   1.556   7.651 -0.4762  0.1352 -1.1901
  975MOL0     C28624   5.650   1.464   7.743  0.4573  0.2131  0.0382
  975MOL0     C28625   5.764   1.489   7.821 -1.0125 -0.2966  1.0671
  975MOL0     O28626   5.810   1.405   7.923  0.2969  0.0481 -0.1210
  975MOL0     C28627   5.743   1.277   7.938 -1.0637 -0.3870  0.1262
  975MOL0     C28628   5.791   1.189   8.057  0.3552 -1.6779  0.1003
  975MOL0     C28629   5.932   1.219   8.107  0.6285 -0.2013 -0.6507
  975MOL0     C28630   5.981   1.108   8.195 -0.1803 -0.5424 -0.0259
  975MOL0     C28631   6.123   1.128   8.238  0.1043 -0.5766  0.6254
  975MOL0     C28632   6.238   1.146   8.272 -0.7345  0.1299 -0.0720
  975MOL0     C28633   5.838   1.601   7.785  0.2735 -0.1813 -0.0512
  975MOL0     C28634   5.796   1.682   7.683  0.1173 -0.0297  0.7261
  975MOL0     H28635   5.612   1.675   7.224 -2.0896  0.3330 -2.1549
  975MOL0     H28636   5.485   1.772   7.043 -1.2613  0.4233  1.8936
  975MOL0     H28637   5.522   2.218   6.949  1.6154 -0.7519 -0.0687
  975MOL0     H28638   5.384   2.159   7.051 -0.2141 -0.3105 -0.3441
  975MOL0     H28639   5.249   2.097   6.870 -0.4154  0.3315 -1.2998
  975MOL0     H28640   5.374   2.158   6.755 -0.2136  0.9951 -0.1644
  975MOL0     H28641   5.351   2.371   6.835  0.5476  0.3612 -1.6394
  975MOL0     H28642   5.206   2.322   6.946  0.2246 -0.7082 -0.8701
  975MOL0     H28643   5.232   2.296   6.645  0.6826  0.8009  0.4969
  975MOL0     H28644   5.100   2.231   6.743 -1.0309  0.0822 -3.5757
  975MOL0     H28645   5.044   2.458   6.829 -3.2745 -2.8813 -1.3088
  975MOL0     H28646   5.026   2.448   6.658 -0.4302  0.2288 -0.0240
  975MOL0     H28647   5.241   2.560   6.616  0.9192  0.5907  1.3209
  975MOL0     H28648   5.258   2.572   6.792 -0.7635  0.6893  1.6649
  975MOL0     H28649   5.027   2.661   6.803 -1.2155 -0.9578 -0.6587
  975MOL0     H28650   5.148   2.772   6.732  2.7853  0.2551 -2.9360
  975MOL0     H28651   4.981   2.613   6.546  0.4585 -0.0026 -2.2529
  975MOL0     H28652   5.092   2.751   6.514  0.0456  1.3817  0.8037
  975MOL0     H28653   4.995   2.969   6.727 -0.5119 -0.8642  1.0498
  975MOL0     H28654   4.763   3.114   6.815 -1.3458 -0.9920 -0.5037
  975MOL0     H28655   4.612   3.077   6.725 -0.4834 -1.3631 -0.5799
  975MOL0     H28656   4.697   3.198   6.532  0.0107 -0.9287  0.4120
  975MOL0     H28657   4.854   3.221   6.606 -0.0968  0.8968  1.2374
  975MOL0     H28658   4.785   3.374   6.770 -0.4432 -0.3012  0.4660
  975MOL0     H28659   4.725   3.425   6.610 -0.1703  0.9353  1.0341
  975MOL0     H28660   4.536   3.318   6.810 -0.4016  1.4779  1.0091
  975MOL0     H28661   4.492   3.348   6.638 -1.0256  0.0608  0.8485
  975MOL0     H28662   4.302   3.437   6.793 -0.5624  0.0853  0.2935
  975MOL0     H28663   4.161   3.529   6.982  0.3681 -1.7614  0.9328
  975MOL0     H28664   4.131   3.903   7.377 -0.0407 -0.0329  1.3777
  975MOL0     H28665   3.975   3.959   7.514  0.4166 -2.1260  1.6028
  975MOL0     H28666   3.548   3.832   7.410 -2.2493 -0.2509 -0.0647
  975MOL0     H28667   3.524   3.950   7.536  1.4037  1.2668 -2.5337
  975MOL0     H28668   3.573   3.815   7.715 -0.1404 -0.3863 -0.0564
  975MOL0     H28669   3.624   3.675   7.617 -1.8160 -1.6177  0.6810
  975MOL0     H28670   3.416   3.626   7.693  2.1477  0.1217  1.0726
  975MOL0     H28671   3.392   3.677   7.516  2.1049 -0.9139  0.3781
  975MOL0     H28672   3.351   3.820   7.766 -0.1352  0.3371 -0.4834
  975MOL0     H28673   3.310   3.891   7.604 -3.1859  0.7707  1.8101
  975MOL0     H28674   3.200   3.647   7.744 -0.6607 -0.3433 -1.6588
  975MOL0     H28675   3.159   3.699   7.577  0.0490  0.9334 -1.6889
  975MOL0     H28676   3.068   3.900   7.651 -1.9099  0.8338  1.6359
  975MOL0     H28677   3.118   3.868   7.827 -0.0385 -2.6884  1.9986
  975MOL0     H28678   2.917   3.710   7.654  1.5535 -2.1479 -0.2735
  975MOL0     H28679   2.960   3.699   7.832  3.2411  0.2287  0.5442
  975MOL0     H28680   2.800   3.914   7.694  1.4795 -0.7472 -1.6377
  975MOL0     H28681   2.851   3.932   7.859  1.8399 -0.8501  1.0132
  975MOL0     H28682   3.701   3.684   7.342  2.0207 -3.1829 -0.5641
  975MOL0     H28683   3.847   3.614   7.189 -1.5944  2.0835 -1.3264
  975MOL0     H28684   4.476   3.814   7.064  1.1507 -0.5606 -0.7703
  975MOL0     H28685   4.618   3.712   6.877  0.7939 -0.4920  3.3314
  975MOL0     H28686   5.646   2.162   7.133  1.6127  0.3885  0.2496
  975MOL0     H28687   5.721   2.056   7.354  0.1311  1.8733 -1.2385
  975MOL0     H28688   5.510   1.540   7.594 -0.0621 -3.5829 -1.0597
  975MOL0     H28689   5.597   1.369   7.742  2.3268 -0.9051  0.4580
  975MOL0     H28690   5.757   1.216   7.848 -1.5229  0.7757 -0.7665
  975MOL0     H28691   5.636   1.291   7.956 -1.1645 -0.2849 -0.5233
  975MOL0     H28692   5.720   1.211   8.138 -0.4460  1.1301 -1.2511
  975MOL0     H28693   5.790   1.082   8.039 -0.1375 -1.5136 -0.8818
  975MOL0     H28694   5.928   1.311   8.166 -0.2557 -1.6668  1.7066
  975MOL0     H28695   6.001   1.244   8.025  1.3124  0.8964  0.2292
  975MOL0     H28696   5.921   1.083   8.283 -1.9886 -0.2058 -1.1276
  975MOL0     H28697   5.982   1.016   8.135 -2.9621  0.4953 -1.8567
  975MOL0     H28698   6.336   1.174   8.303 -0.5803  0.7176 -1.0556
  975MOL0     H28699   5.940   1.607   7.823 -0.1845 -0.0630  1.2070
  975MOL0     H28700   5.853   1.770   7.652 -1.4809  0.7450 -0.1165
  976MOL0     O28701   6.424  10.583   6.825 -0.3848 -0.3249  0.0422
  976MOL0     C28702   6.501  10.495   6.859 -0.8727  0.6066 -0.1317
  976MOL0     O28703   6.482  10.358   6.863  0.1000 -0.1995  0.0507
  976MOL0     C28704   6.361  10.326   6.814 -0.5335  0.0630 -0.0720
  976MOL0     C28705   6.241  10.330   6.886 -0.3517  0.5026  0.1133
  976MOL0     C28706   6.128  10.281   6.830 -1.0892 -0.0657  0.4308
  976MOL0     C28707   6.129  10.223   6.700 -0.5277  0.1200 -1.0834
  976MOL0     O28708   6.009  10.183   6.649  0.6637  0.3591  0.0041
  976MOL0     C28709   5.965  10.229   6.523 -0.9333  0.1514 -0.3345
  976MOL0     C28710   5.927  10.382   6.526  0.6406 -1.1823 -0.7560
  976MOL0     C28711   5.784  10.406   6.584  0.5577 -0.0432 -0.3307
  976MOL0     C28712   5.750  10.343   6.714  0.1550  0.0934  0.1191
  976MOL0     C28713   5.611  10.389   6.773 -0.1727  0.5031  1.0023
  976MOL0     C28714   5.493  10.406   6.671  0.2612 -0.1989  0.1765
  976MOL0     C28715   5.367  10.434   6.743 -0.0922 -0.4696  0.4959
  976MOL0     C28716   5.248  10.426   6.648  0.0252  0.5115  0.4145
  976MOL0     N28717   5.122  10.441   6.719  0.0210  0.1466  0.5457
  976MOL0     C28718   5.039  10.545   6.711  0.6070  0.0550  0.5313
  976MOL0     C28719   4.926  10.517   6.776  0.3094  0.2425  0.0442
  976MOL0     C28720   4.811  10.606   6.813 -0.2168 -0.2732 -0.2984
  976MOL0     C28721   4.714  10.562   6.918 -0.5311  0.4583  0.0690
  976MOL0     C28722   4.602  10.661   6.913 -0.2114  0.1781  0.6830
  976MOL0     C28723   4.468  10.595   6.963 -0.6506 -0.0503  0.0740
  976MOL0     O28724   4.371  10.694   6.990  0.5974  0.1763 -0.3039
  976MOL0     C28725   4.230  10.667   6.990 -0.2663 -0.6127  0.2690
  976MOL0     C28726   4.173  10.539   6.986  0.5837 -0.7307 -0.1625
  976MOL0     C28727   4.031  10.525   6.968 -0.4105  0.4317  0.3598
  976MOL0     C28728   3.948  10.634   6.963  0.5352 -1.1505  0.9756
  976MOL0     C28729   3.803  10.621   6.954  0.5555 -0.8615  1.1024
  976MOL0     O28730   3.732  10.738   6.932  0.1312 -0.6000 -0.5749
  976MOL0     C28731   3.594  10.733   6.905  0.4162  0.1574 -0.9903
  976MOL0     C28732   3.496  10.807   6.982  0.3693 -0.4739 -0.0311
  976MOL0     C28733   3.362  10.817   6.943 -0.1032 -0.9489  0.4089
  976MOL0     C28734   3.316  10.756   6.824 -0.6685  0.3099  0.4783
  976MOL0     O28735   3.185  10.772   6.786  0.3741 -0.2793  0.0719
  976MOL0     C28736   3.137  10.783   6.655  0.6173  0.1350  0.2911
  976MOL0     C28737   3.001  10.726   6.653 -0.0283 -0.0209  0.0480
  976MOL0     C28738   2.899  10.803   6.744 -0.0092 -0.3219 -0.2705
  976MOL0     C28739   2.757  10.754   6.725 -0.1164 -0.0191 -0.6197
  976MOL0     C28740   2.680  10.818   6.839 -0.1772 -0.2397 -0.3497
  976MOL0     C28741   2.536  10.752   6.852 -0.1112  0.7448 -0.7633
  976MOL0     C28742   2.443  10.841   6.944  0.0710 -0.3434 -0.3411
  976MOL0     C28743   2.306  10.849   6.883 -0.0127  0.5956 -0.5259
  976MOL0    Cl28744   2.224  10.685   6.901  0.0211 -0.3950  0.0531
  976MOL0     C28745   3.422  10.694   6.741 -0.0553 -0.0474 -0.1824
  976MOL0     C28746   3.552  10.684   6.785 -0.6032  0.1692 -0.1649
  976MOL0     O28747   3.751  10.513   6.942 -0.4642  0.0846 -0.1727
  976MOL0     C28748   4.018  10.762   6.964  0.6684 -0.1956  0.4869
  976MOL0     C28749   4.152  10.776   6.978 -0.3597  0.4074 -0.0475
  976MOL0     N28750   4.949  10.388   6.835  0.4258 -0.3437  0.2993
  976MOL0     N28751   5.066  10.348   6.803 -0.2792 -0.5663  0.2339
  976MOL0     C28752   6.255  10.217   6.624 -0.4703  0.8554 -0.5260
  976MOL0     C28753   6.373  10.267   6.688  0.8446  0.6291  0.8475
  976MOL0     C28754   6.642  10.533   6.867 -0.2749 -0.3079  0.2594
  976MOL0     C28755   6.679  10.666   6.897  0.0540  0.0486 -0.6919
  976MOL0     C28756   6.815  10.702   6.905  0.5671 -0.3725 -0.5303
  976MOL0     C28757   6.912  10.607   6.861  0.4220  0.5119 -0.3693
  976MOL0     O28758   7.046  10.642   6.845  0.9197 -0.4037  0.7417
  976MOL0     C28759   7.096  10.759   6.913  0.8424  0.3653  0.1077
  976MOL0     C28760   7.245  10.761   6.931 -0.8147  0.1563  0.0849
  976MOL0     C28761   7.290  10.626   6.988 -0.4650 -0.9316 -0.1592
  976MOL0     C28762   7.439  10.617   7.004  1.0085  0.1032 -0.2098
  976MOL0     C28763   7.508  10.606   6.876 -0.5976  0.8136 -0.2432
  976MOL0     C28764   7.581  10.615   6.779 -0.2159  0.0303  0.8161
  976MOL0     C28765   6.877  10.475   6.838  0.1278  0.8571 -0.1643
  976MOL0     C28766   6.742  10.439   6.833 -0.2549  0.3006 -0.2723
  976MOL0     H28767   6.245  10.371   6.987 -3.0200 -0.1112  0.5529
  976MOL0     H28768   6.027  10.286   6.871 -1.4805 -1.9669 -0.1828
  976MOL0     H28769   5.877  10.170   6.495 -1.7181  0.2038  1.8950
  976MOL0     H28770   6.057  10.212   6.466 -0.7359 -3.4732  0.8348
  976MOL0     H28771   5.932  10.425   6.426  3.1977  2.5644  0.7289
  976MOL0     H28772   5.996  10.433   6.593  0.3191  1.8856 -2.5692
  976MOL0     H28773   5.711  10.382   6.506  0.2901  2.6987 -1.0421
  976MOL0     H28774   5.771  10.514   6.586 -1.8440 -0.1740 -2.6600
  976MOL0     H28775   5.756  10.236   6.696  2.9056 -0.2177  2.2931
  976MOL0     H28776   5.828  10.352   6.790  0.1013 -0.2821  0.2215
  976MOL0     H28777   5.627  10.486   6.819 -1.2738 -0.0642  2.6729
  976MOL0     H28778   5.575  10.317   6.848  0.0153 -0.5587  0.1041
  976MOL0     H28779   5.469  10.309   6.626 -0.1734  1.3093 -3.1361
  976MOL0     H28780   5.511  10.481   6.594 -0.6995 -1.3688 -1.2482
  976MOL0     H28781   5.350  10.358   6.819 -0.1006  0.0114  0.9843
  976MOL0     H28782   5.373  10.534   6.788 -0.9093 -0.1053 -0.1771
  976MOL0     H28783   5.243  10.336   6.585 -1.0952  0.5944  0.3559
  976MOL0     H28784   5.258  10.507   6.576 -0.0373 -0.5626 -0.8461
  976MOL0     H28785   5.048  10.638   6.656 -0.2401  0.5680  1.2339
  976MOL0     H28786   4.758  10.646   6.726 -3.9708 -2.5284  0.7576
  976MOL0     H28787   4.873  10.686   6.854 -1.4090 -0.4883  2.0316
  976MOL0     H28788   4.772  10.553   7.011 -0.5014  1.7567  0.1955
  976MOL0     H28789   4.678  10.461   6.897  0.5968  0.1464 -0.4658
  976MOL0     H28790   4.621  10.748   6.976  0.0656  1.5552 -1.2179
  976MOL0     H28791   4.579  10.695   6.812  0.7326  0.2428  0.4832
  976MOL0     H28792   4.484  10.536   7.053 -4.3937  0.4543  1.2234
  976MOL0     H28793   4.437  10.515   6.895  1.0366 -1.0309  0.3965
  976MOL0     H28794   4.240  10.457   7.011  0.1040 -0.2311  3.1140
  976MOL0     H28795   3.987  10.426   6.969 -1.2750  0.7839 -0.7067
  976MOL0     H28796   3.536  10.856   7.071 -1.3315 -1.6158  1.4251
  976MOL0     H28797   3.294  10.869   7.010  0.3491  0.3784 -0.1425
  976MOL0     H28798   3.198  10.724   6.586  0.6339  1.1996 -0.6373
  976MOL0     H28799   3.146  10.885   6.617  3.0925  1.1550  3.2087
  976MOL0     H28800   3.009  10.620   6.679  0.3565 -0.1258 -0.4741
  976MOL0     H28801   2.968  10.728   6.549 -0.8547  2.4946  0.2944
  976MOL0     H28802   2.903  10.910   6.723 -0.5839 -0.5806 -1.8607
  976MOL0     H28803   2.938  10.795   6.846 -0.9038  2.2753  0.3597
  976MOL0     H28804   2.719  10.792   6.629  0.2154 -0.7672 -1.0558
  976MOL0     H28805   2.752  10.645   6.717 -0.9794  0.0042 -0.5573
  976MOL0     H28806   2.677  10.926   6.826 -0.1903 -0.1724  0.2037
  976MOL0     H28807   2.727  10.798   6.935 -2.2730  0.5169  0.9100
  976MOL0     H28808   2.541  10.651   6.893  1.6492 -0.4078 -3.5785
  976MOL0     H28809   2.499  10.752   6.749 -0.0417 -0.5252 -0.8068
  976MOL0     H28810   2.439  10.800   7.045  1.8819  0.6477  0.1717
  976MOL0     H28811   2.485  10.942   6.944 -1.9703  0.5413  0.1449
  976MOL0     H28812   2.313  10.864   6.775  0.2074  1.2370 -0.4292
  976MOL0     H28813   2.250  10.929   6.932  1.6932  1.4669  0.1008
  976MOL0     H28814   3.411  10.652   6.641  3.0483  0.4078 -0.7982
  976MOL0     H28815   3.618  10.639   6.711 -2.9903 -2.2900 -0.9687
  976MOL0     H28816   3.963  10.854   6.947 -2.4305 -2.3465 -2.5142
  976MOL0     H28817   4.192  10.877   6.985 -2.5121  1.2442  1.4929
  976MOL0     H28818   6.261  10.184   6.520  0.5520  0.3080 -0.3137
  976MOL0     H28819   6.468  10.253   6.636  0.3882  0.2689  0.0828
  976MOL0     H28820   6.608  10.743   6.925 -1.9104 -2.6706  2.3710
  976MOL0     H28821   6.844  10.804   6.930 -1.3257 -0.0411  0.4550
  976MOL0     H28822   7.059  10.763   7.016  3.0946  0.8784  0.9464
  976MOL0     H28823   7.073  10.859   6.873 -1.0344  0.3595  1.0629
  976MOL0     H28824   7.299  10.786   6.839  0.2743  3.6616  1.5208
  976MOL0     H28825   7.274  10.842   6.998  1.2023 -0.6065  0.2159
  976MOL0     H28826   7.259  10.546   6.919  1.8134 -0.8121 -1.3998
  976MOL0     H28827   7.239  10.618   7.084 -0.1701  2.6657  0.4374
  976MOL0     H28828   7.472  10.704   7.061  0.0877 -0.2424  0.8737
  976MOL0     H28829   7.461  10.528   7.064 -0.5252  0.3046  0.7054
  976MOL0     H28830   7.653  10.624   6.700  0.6672 -1.5207  1.4139
  976MOL0     H28831   6.950  10.403   6.802 -0.2677  0.8418 -0.9464
  976MOL0     H28832   6.722  10.341   6.789  3.0059  0.3574 -2.2091
  977MOL0     O28833   1.857   7.571   1.382 -0.7778 -0.4991 -0.2632
  977MOL0     C28834   1.768   7.496   1.418  0.2197 -0.2156  0.2843
  977MOL0     O28835   1.687   7.522   1.515 -0.1170  0.7386 -0.6079
  977MOL0     C28836   1.677   7.643   1.575 -0.6412 -0.1467 -0.7205
  977MOL0     C28837   1.555   7.667   1.649 -0.2837  0.4322  0.3492
  977MOL0     C28838   1.530   7.786   1.714 -0.0319 -0.2655 -0.8280
  977MOL0     C28839   1.623   7.886   1.712 -1.3695 -0.0581  0.6536
  977MOL0     O28840   1.593   8.003   1.769 -0.0872 -0.5122  0.4214
  977MOL0     C28841   1.696   8.096   1.800  0.0103  0.3921  0.0258
  977MOL0     C28842   1.634   8.189   1.901 -0.4935  0.6639 -0.1207
  977MOL0     C28843   1.600   8.122   2.037 -0.6500  0.0141 -0.0390
  977MOL0     C28844   1.518   8.218   2.111  0.4993 -0.3217  0.7663
  977MOL0     C28845   1.460   8.150   2.229  0.2657  0.0402 -1.0929
  977MOL0     C28846   1.333   8.077   2.216 -0.3637 -0.2083  0.6463
  977MOL0     C28847   1.288   8.016   2.354  0.1722 -0.2091  0.3693
  977MOL0     C28848   1.285   8.114   2.477 -0.6898  0.6569 -1.1626
  977MOL0     N28849   1.176   8.206   2.462  0.4078 -0.7085  0.4061
  977MOL0     C28850   1.053   8.187   2.509  0.1919  0.1259 -0.3586
  977MOL0     C28851   0.980   8.288   2.462 -0.2639 -0.1381  0.6295
  977MOL0     C28852   0.834   8.305   2.475 -0.7187 -0.2726 -0.0733
  977MOL0     C28853   0.784   8.408   2.375 -0.2025 -0.2710 -0.6037
  977MOL0     C28854   0.640   8.394   2.339  1.1945  0.6122 -0.5164
  977MOL0     C28855   0.545   8.393   2.464  0.2151 -0.1885  0.6075
  977MOL0     O28856   0.407   8.413   2.421 -0.0121 -0.8888  0.3489
  977MOL0     C28857   0.304   8.405   2.517 -0.3270 -0.5648  0.2280
  977MOL0     C28858   0.318   8.416   2.658 -0.1049  0.0680 -0.8070
  977MOL0     C28859   0.212   8.415   2.747  0.3255 -0.0130  0.2515
  977MOL0     C28860   0.082   8.384   2.696  0.6501 -0.1684 -0.5930
  977MOL0     C28861  -0.021   8.362   2.798 -0.2863  0.0034 -0.0434
  977MOL0     O28862   0.010   8.381   2.933 -0.0572 -0.7414  1.0954
  977MOL0     C28863  -0.087   8.346   3.028 -0.1311  0.3029  0.1887
  977MOL0     C28864  -0.203   8.419   3.033 -1.3502  0.0069 -0.0875
  977MOL0     C28865  -0.291   8.403   3.140  0.8062  0.3185  0.4234
  977MOL0     C28866  -0.271   8.319   3.250 -0.8963  0.7274 -0.8768
  977MOL0     O28867  -0.350   8.302   3.356 -0.4867 -0.1681 -0.2309
  977MOL0     C28868  -0.492   8.319   3.340 -0.4585 -0.2090  0.4710
  977MOL0     C28869  -0.570   8.287   3.468  0.2698  1.1606  1.6000
  977MOL0     C28870  -0.716   8.331   3.470  0.8916  0.9280  0.4048
  977MOL0     C28871  -0.796   8.266   3.583 -0.1178 -0.0065  0.8825
  977MOL0     C28872  -0.941   8.314   3.596  0.4539 -0.9269 -0.2442
  977MOL0     C28873  -1.025   8.229   3.687 -0.2757 -0.2937  0.2917
  977MOL0     C28874  -1.172   8.256   3.656 -0.4818  0.0310  0.8988
  977MOL0     C28875  -1.253   8.136   3.715  0.0348  0.5727  0.0339
  977MOL0    Cl28876  -1.431   8.139   3.667 -0.4779 -0.4219 -0.5565
  977MOL0     C28877  -0.157   8.241   3.239 -0.2975  0.3625 -0.6077
  977MOL0     C28878  -0.067   8.255   3.130 -0.1269  0.8193 -0.1139
  977MOL0     O28879  -0.123   8.312   2.759  0.6933  0.1992  0.6229
  977MOL0     C28880   0.066   8.360   2.552  0.3895 -0.3184  0.3824
  977MOL0     C28881   0.175   8.382   2.457 -1.1319  0.3047  0.2514
  977MOL0     N28882   1.053   8.366   2.377 -0.2063  0.5332 -0.1803
  977MOL0     N28883   1.176   8.315   2.381 -0.3521 -0.4603  0.1750
  977MOL0     C28884   1.749   7.863   1.645  0.2545  0.0155  0.6291
  977MOL0     C28885   1.776   7.748   1.575  0.6605 -0.0852 -0.0003
  977MOL0     C28886   1.773   7.365   1.359 -0.1734  0.5071 -0.1504
  977MOL0     C28887   1.870   7.337   1.252 -0.1072 -0.0464  0.3537
  977MOL0     C28888   1.874   7.205   1.202  0.1970 -0.5556  0.2626
  977MOL0     C28889   1.797   7.101   1.252  0.5667  0.2307 -0.4355
  977MOL0     O28890   1.802   6.979   1.184  0.0665 -0.2489  0.1175
  977MOL0     C28891   1.728   6.868   1.239  0.2730 -0.7577  0.0158
  977MOL0     C28892   1.581   6.867   1.173 -0.0662  0.2053  0.4821
  977MOL0     C28893   1.585   6.791   1.043 -0.2930  0.8697  0.7040
  977MOL0     C28894   1.446   6.793   0.962  0.9474  0.9129  0.4387
  977MOL0     C28895   1.327   6.770   1.046  0.0385 -0.0415 -0.3646
  977MOL0     C28896   1.226   6.741   1.100  0.1831  0.5076  0.6433
  977MOL0     C28897   1.705   7.126   1.353 -0.3960 -0.2254  0.1152
  977MOL0     C28898   1.696   7.253   1.406 -0.2723  0.5649 -0.4873
  977MOL0     H28899   1.488   7.581   1.651  0.4722 -0.1789  0.0763
  977MOL0     H28900   1.444   7.806   1.777  0.6286 -0.1018  0.0325
  977MOL0     H28901   1.727   8.164   1.720 -1.1353  1.0184  0.0889
  977MOL0     H28902   1.782   8.052   1.852  0.5268  0.9885 -0.3144
  977MOL0     H28903   1.540   8.222   1.857 -0.7308  0.7972  0.4868
  977MOL0     H28904   1.712   8.265   1.911  2.6516 -2.0319 -1.7508
  977MOL0     H28905   1.693   8.115   2.094  0.1162  3.6441 -0.5977
  977MOL0     H28906   1.543   8.028   2.034 -0.2057 -0.2846  0.5531
  977MOL0     H28907   1.576   8.306   2.139 -2.7876  1.9324  1.0432
  977MOL0     H28908   1.439   8.252   2.044 -0.1017 -0.9778  1.1341
  977MOL0     H28909   1.451   8.219   2.313  0.9009 -2.4373  1.1583
  977MOL0     H28910   1.526   8.070   2.264 -0.9445 -0.9618 -1.0691
  977MOL0     H28911   1.340   8.003   2.135 -3.8646  1.2953 -1.2636
  977MOL0     H28912   1.257   8.148   2.181  1.4680  0.2389 -2.8788
  977MOL0     H28913   1.189   7.977   2.328  1.0000 -0.3214 -3.1671
  977MOL0     H28914   1.353   7.930   2.371 -0.7988 -0.8896  0.6977
  977MOL0     H28915   1.373   8.176   2.495 -0.6306  0.4948 -0.8744
  977MOL0     H28916   1.266   8.045   2.560  0.6918 -0.7563 -1.9564
  977MOL0     H28917   1.014   8.113   2.578 -1.8898  2.1145  0.7170
  977MOL0     H28918   0.821   8.351   2.573  2.1965  1.7438 -0.4651
  977MOL0     H28919   0.785   8.208   2.463 -0.7714 -0.4925  1.6826
  977MOL0     H28920   0.838   8.394   2.281  1.8415 -3.5040  0.8721
  977MOL0     H28921   0.814   8.504   2.419 -0.4580 -0.8721  0.9780
  977MOL0     H28922   0.614   8.479   2.275 -4.5815 -1.9786 -2.2537
  977MOL0     H28923   0.611   8.308   2.279 -2.8597  1.3481  0.0677
  977MOL0     H28924   0.567   8.478   2.528 -3.0002 -0.0227  1.7152
  977MOL0     H28925   0.548   8.299   2.520 -1.2456 -0.1075  0.8842
  977MOL0     H28926   0.416   8.438   2.701  0.0376 -0.7539 -0.6911
  977MOL0     H28927   0.239   8.418   2.852  1.0335 -1.9785  0.1828
  977MOL0     H28928  -0.224   8.489   2.952  0.6768 -0.3738 -1.0146
  977MOL0     H28929  -0.370   8.478   3.137  1.5235  1.1036  0.7727
  977MOL0     H28930  -0.528   8.272   3.248  3.7399 -1.2201 -0.8759
  977MOL0     H28931  -0.503   8.428   3.327 -1.5791 -0.2626  0.8258
  977MOL0     H28932  -0.514   8.334   3.549  1.7524 -0.3633  1.5315
  977MOL0     H28933  -0.569   8.177   3.475  3.6481  1.1005  1.8538
  977MOL0     H28934  -0.763   8.311   3.373 -0.8452 -0.1540  1.4289
  977MOL0     H28935  -0.721   8.440   3.482 -0.8442  1.0917 -1.2819
  977MOL0     H28936  -0.792   8.159   3.562  0.8698  0.1820  0.0461
  977MOL0     H28937  -0.746   8.299   3.674 -2.6828  0.0941  2.3569
  977MOL0     H28938  -0.971   8.315   3.490  0.8670  2.5290 -0.4535
  977MOL0     H28939  -0.937   8.416   3.635  2.0341 -1.3926  0.9390
  977MOL0     H28940  -1.004   8.253   3.792  2.4489 -2.4599  0.3565
  977MOL0     H28941  -1.002   8.126   3.661 -1.4535 -1.1702  2.4549
  977MOL0     H28942  -1.209   8.351   3.696 -0.5214  0.7671 -0.8081
  977MOL0     H28943  -1.191   8.269   3.549 -3.2214  0.2947  1.3528
  977MOL0     H28944  -1.256   8.135   3.824 -0.1826 -1.1935  0.0376
  977MOL0     H28945  -1.213   8.039   3.683  0.8574  0.7752  0.4241
  977MOL0     H28946  -0.146   8.159   3.309 -2.7548  1.0740  0.7310
  977MOL0     H28947   0.025   8.199   3.145  0.6922  2.9899  5.1172
  977MOL0     H28948  -0.029   8.324   2.515  0.4347 -2.1881  1.9396
  977MOL0     H28949   0.168   8.373   2.349 -1.1577 -2.6420  0.4060
  977MOL0     H28950   1.821   7.944   1.637 -0.7999  1.4827  4.0038
  977MOL0     H28951   1.876   7.744   1.532  0.6442 -0.7764  0.0130
  977MOL0     H28952   1.944   7.411   1.225  0.4017 -0.4263  0.6949
  977MOL0     H28953   1.947   7.165   1.133  1.0492  1.8339 -0.2792
  977MOL0     H28954   1.719   6.879   1.348 -0.1247  1.7578 -0.2067
  977MOL0     H28955   1.771   6.769   1.223 -1.8422 -1.3628 -2.6144
  977MOL0     H28956   1.520   6.802   1.237 -0.8762  1.5860  1.1619
  977MOL0     H28957   1.544   6.970   1.168 -0.7795 -0.0323  0.6881
  977MOL0     H28958   1.614   6.690   1.071  1.7674  1.1003 -0.3443
  977MOL0     H28959   1.674   6.819   0.986  0.8821  0.1481  2.1361
  977MOL0     H28960   1.429   6.892   0.918  1.8911  0.0012 -2.1288
  977MOL0     H28961   1.452   6.720   0.881 -0.1773 -1.4453  2.3363
  977MOL0     H28962   1.155   6.712   1.176 -0.3354  1.3915  0.5082
  977MOL0     H28963   1.637   7.053   1.396 -1.0631  1.5765  2.3409
  977MOL0     H28964   1.630   7.283   1.487 -0.5691  0.3324 -0.6438
  978MOL0     O28965   4.203  10.357  10.508 -0.1635 -0.6313  1.2395
  978MOL0     C28966   4.271  10.340  10.607 -0.1711  0.4562  0.4314
  978MOL0     O28967   4.230  10.346  10.738  0.0150  0.3472 -0.3192
  978MOL0     C28968   4.093  10.347  10.775  0.2848  0.5051  0.9255
  978MOL0     C28969   4.014  10.442  10.711  0.0095  0.3712  0.2436
  978MOL0     C28970   3.881  10.465  10.762  0.3371  0.3706 -0.5360
  978MOL0     C28971   3.821  10.391  10.866 -0.8375 -0.5422  0.4639
  978MOL0     O28972   3.695  10.401  10.910 -0.0353 -0.5625 -0.3990
  978MOL0     C28973   3.600  10.467  10.817  0.5009 -0.7091  0.1411
  978MOL0     C28974   3.458  10.470  10.872 -0.9655  0.3878  0.9139
  978MOL0     C28975   3.426  10.602  10.929 -0.4684 -0.3803 -0.0276
  978MOL0     C28976   3.278  10.607  10.954  1.0446  0.1873 -0.6291
  978MOL0     C28977   3.218  10.487  11.031 -0.4286  0.7079 -0.3770
  978MOL0     C28978   3.253  10.496  11.177 -0.2604  0.2727  0.1023
  978MOL0     C28979   3.190  10.373  11.240 -0.0016  0.1484  0.2995
  978MOL0     C28980   3.253  10.350  11.378  0.1068  0.3038  0.2541
  978MOL0     N28981   3.225  10.466  11.469 -0.4980  0.8378 -1.0800
  978MOL0     C28982   3.101  10.501  11.514 -0.0560  0.0184  0.0047
  978MOL0     C28983   3.111  10.612  11.583  0.3348  0.0531 -0.6304
  978MOL0     C28984   3.000  10.700  11.648  0.1966 -0.1040  0.7638
  978MOL0     C28985   2.933  10.620  11.756  0.4643 -0.1958  0.4379
  978MOL0     C28986   2.853  10.721  11.841 -0.0168  0.4839 -0.2160
  978MOL0     C28987   2.805  10.644  11.961  0.9248 -0.2635 -0.6977
  978MOL0     O28988   2.749  10.736  12.058 -0.0292 -0.7827  0.2885
  978MOL0     C28989   2.616  10.719  12.086 -0.4788 -0.0146  0.6868
  978MOL0     C28990   2.528  10.771  11.990 -0.0229  0.5935  0.0860
  978MOL0     C28991   2.397  10.766  12.015  0.8967  0.0459 -0.3072
  978MOL0     C28992   2.346  10.711  12.136  0.0164 -0.1283 -0.0362
  978MOL0     C28993   2.209  10.725  12.185  0.1292  1.2133 -0.1198
  978MOL0     O28994   2.179  10.637  12.290  0.1410  0.2610  0.5631
  978MOL0     C28995   2.047  10.639  12.348  0.2827 -0.5382  0.2654
  978MOL0     C28996   1.925  10.675  12.293 -0.5332  0.5600  0.3271
  978MOL0     C28997   1.809  10.668  12.371 -0.1349  0.4460  0.0373
  978MOL0     C28998   1.809  10.632  12.514  0.1959  0.4640  0.0127
  978MOL0     O28999   1.690  10.627  12.577 -0.4212  0.7554  0.0803
  978MOL0     C29000   1.686  10.618  12.723  0.2361  0.2149 -0.3746
  978MOL0     C29001   1.546  10.620  12.767 -0.2085 -0.5856 -0.5902
  978MOL0     C29002   1.489  10.767  12.744  0.7206  0.9597  0.1341
  978MOL0     C29003   1.334  10.782  12.749  0.4843  0.6787  0.4851
  978MOL0     C29004   1.257  10.763  12.886  0.4839 -0.2706 -0.5137
  978MOL0     C29005   1.117  10.813  12.869 -0.8177 -0.4244  0.5524
  978MOL0     C29006   1.036  10.779  12.985 -0.1280 -0.6469 -0.0560
  978MOL0     C29007   0.887  10.818  12.956  0.8057  0.1636  0.5978
  978MOL0    Cl29008   0.863  10.995  12.951 -0.1645 -0.0363 -0.0608
  978MOL0     C29009   1.935  10.603  12.564  0.1085 -0.1148  0.9309
  978MOL0     C29010   2.050  10.601  12.480  0.0761  0.2286  0.2189
  978MOL0     O29011   2.134  10.808  12.140 -0.4119  0.2980 -0.1146
  978MOL0     C29012   2.447  10.660  12.229  0.1669  0.2876  0.6527
  978MOL0     C29013   2.589  10.672  12.208 -0.1568  0.0527 -0.3320
  978MOL0     N29014   3.245  10.640  11.593  0.0822 -0.5842 -0.1344
  978MOL0     N29015   3.312  10.557  11.518 -0.9147  0.5610 -0.6674
  978MOL0     C29016   3.904  10.290  10.920  0.1763  0.7610  0.3705
  978MOL0     C29017   4.036  10.269  10.875  0.0292  0.7162  0.3179
  978MOL0     C29018   4.412  10.308  10.584  1.0295 -0.5297  1.3089
  978MOL0     C29019   4.483  10.345  10.472 -0.6069  0.0208  0.0785
  978MOL0     C29020   4.615  10.301  10.451  0.6170  1.0071  0.0973
  978MOL0     C29021   4.690  10.226  10.549  1.0291 -0.5890  0.8779
  978MOL0     O29022   4.819  10.192  10.542  0.5682  0.4403 -0.5236
  978MOL0     C29023   4.893  10.198  10.423 -0.1530  0.6663 -0.0235
  978MOL0     C29024   4.842  10.088  10.323  0.1450 -0.0809 -0.3594
  978MOL0     C29025   4.904  10.090  10.187 -0.4161 -0.2217  0.3280
  978MOL0     C29026   5.053  10.048  10.180 -0.4619  0.5121  0.4148
  978MOL0     C29027   5.130  10.168  10.192 -0.7485  0.1979 -1.1056
  978MOL0     C29028   5.200  10.264  10.208  0.1844  0.0505  0.1330
  978MOL0     C29029   4.616  10.200  10.669  0.2754  0.1049  0.1693
  978MOL0     C29030   4.480  10.238  10.686 -0.3298 -0.7287  0.9987
  978MOL0     H29031   4.058  10.505  10.634  0.0424  1.9435  1.4843
  978MOL0     H29032   3.826  10.539  10.705 -2.2729 -0.9796  0.0546
  978MOL0     H29033   3.601  10.416  10.720  2.6222  0.3607 -0.4742
  978MOL0     H29034   3.632  10.571  10.803 -2.0283  0.1680  0.4976
  978MOL0     H29035   3.459  10.381  10.935 -0.6974 -1.3374 -1.3814
  978MOL0     H29036   3.382  10.448  10.797 -0.8570  1.2785  0.5255
  978MOL0     H29037   3.466  10.681  10.865 -0.0375 -1.3882 -1.0306
  978MOL0     H29038   3.490  10.604  11.018  2.9388 -0.3203 -2.3110
  978MOL0     H29039   3.266  10.698  11.015  3.9936  0.9033 -0.9865
  978MOL0     H29040   3.232  10.624  10.856  0.4381 -1.7957 -0.7209
  978MOL0     H29041   3.241  10.393  10.981 -0.0433  1.3379 -1.4292
  978MOL0     H29042   3.109  10.492  11.021 -0.6188 -1.0285  0.6029
  978MOL0     H29043   3.203  10.586  11.213  0.5832  0.7727  0.0318
  978MOL0     H29044   3.362  10.499  11.187 -0.0877  3.9969 -1.2768
  978MOL0     H29045   3.081  10.370  11.233 -0.1118  0.2762  1.6936
  978MOL0     H29046   3.216  10.284  11.181  0.8925  1.5463 -1.5128
  978MOL0     H29047   3.359  10.340  11.352 -0.2459 -3.8608 -0.2838
  978MOL0     H29048   3.225  10.256  11.426  1.3989  1.0736  2.6833
  978MOL0     H29049   3.010  10.446  11.492 -0.2897  0.0369  0.8952
  978MOL0     H29050   2.935  10.717  11.562 -1.5622 -2.2345  1.5973
  978MOL0     H29051   3.033  10.800  11.679  0.8216 -0.3118  0.7824
  978MOL0     H29052   3.008  10.574  11.822  1.1617  0.2368 -0.0404
  978MOL0     H29053   2.874  10.543  11.706 -0.9373 -0.8473  2.9093
  978MOL0     H29054   2.915  10.808  11.867 -1.6420  2.5436 -2.7201
  978MOL0     H29055   2.776  10.771  11.781  0.1422  2.9729  1.4858
  978MOL0     H29056   2.884  10.583  12.005 -0.3053 -1.5953 -0.2698
  978MOL0     H29057   2.732  10.572  11.923  0.3483 -0.6715  1.0933
  978MOL0     H29058   2.566  10.800  11.892 -0.7772  2.3094  0.2623
  978MOL0     H29059   2.323  10.819  11.956  0.0653 -0.0020  0.6490
  978MOL0     H29060   1.912  10.692  12.186  0.5026 -2.6621 -0.4262
  978MOL0     H29061   1.717  10.675  12.313  1.5524 -4.1459 -3.8050
  978MOL0     H29062   1.752  10.695  12.763  2.7693 -1.1852 -1.5751
  978MOL0     H29063   1.731  10.525  12.759 -4.0241 -2.1099 -0.4400
  978MOL0     H29064   1.547  10.593  12.873 -0.0912 -3.7491 -1.3178
  978MOL0     H29065   1.480  10.550  12.717 -1.4347 -0.6677  1.0733
  978MOL0     H29066   1.524  10.800  12.646  0.4931  2.1008  0.4252
  978MOL0     H29067   1.546  10.822  12.819  3.1215  1.1295 -1.6891
  978MOL0     H29068   1.310  10.884  12.717 -0.9649  0.0007 -0.7341
  978MOL0     H29069   1.298  10.711  12.673  1.5502  0.3404  0.2811
  978MOL0     H29070   1.304  10.824  12.963 -0.8609 -1.9062  1.7030
  978MOL0     H29071   1.264  10.659  12.918 -3.3684  0.5776  4.0276
  978MOL0     H29072   1.063  10.789  12.776  0.9069 -0.9666 -0.3539
  978MOL0     H29073   1.123  10.922  12.867 -0.9292 -0.4037  1.1960
  978MOL0     H29074   1.040  10.671  13.004 -2.5839 -0.7142  0.4100
  978MOL0     H29075   1.065  10.827  13.079  2.0415  1.0599 -1.5046
  978MOL0     H29076   0.815  10.773  13.024  0.9156 -0.4472  0.3132
  978MOL0     H29077   0.856  10.783  12.857  0.4130  1.6268  0.1676
  978MOL0     H29078   1.950  10.577  12.668 -1.3218  0.5619  1.3283
  978MOL0     H29079   2.149  10.583  12.521  0.1640 -1.3884 -0.6368
  978MOL0     H29080   2.413  10.609  12.318  2.1480 -0.9588  0.7672
  978MOL0     H29081   2.669  10.657  12.281  0.0702 -0.1839 -0.6295
  978MOL0     H29082   3.869  10.237  11.008  0.9240 -0.0528  0.1880
  978MOL0     H29083   4.099  10.198  10.927  3.0489  2.1392 -1.1644
  978MOL0     H29084   4.428  10.406  10.401  2.0065  0.9157 -1.3267
  978MOL0     H29085   4.660  10.315  10.353  1.7653 -1.2573  0.2246
  978MOL0     H29086   4.995  10.170  10.448  0.2826  0.1210 -2.1944
  978MOL0     H29087   4.881  10.298  10.381  0.0861  0.7761  0.1675
  978MOL0     H29088   4.868   9.992  10.370  1.5967 -0.2859 -1.4850
  978MOL0     H29089   4.734  10.085  10.307  0.3494  0.7626 -2.0604
  978MOL0     H29090   4.883  10.189  10.146 -1.4228 -1.1190 -1.4658
  978MOL0     H29091   4.850  10.022  10.121  0.1735  1.0231 -1.4919
  978MOL0     H29092   5.075   9.970  10.254 -2.6314  0.4489  1.0585
  978MOL0     H29093   5.078  10.004  10.083 -0.5356 -0.5717  0.8625
  978MOL0     H29094   5.256  10.356  10.206  1.6248 -0.7906  0.5976
  978MOL0     H29095   4.669  10.140  10.742  1.1696 -1.4701 -1.6759
  978MOL0     H29096   4.426  10.199  10.772 -2.2197 -0.6205 -0.0817
  979MOL0     O29097   8.122   6.562   4.748 -0.2521  0.3441  0.2934
  979MOL0     C29098   8.159   6.674   4.701 -0.7859  0.2196  0.3249
  979MOL0     O29099   8.082   6.771   4.659 -0.6019  0.7195 -0.2781
  979MOL0     C29100   7.954   6.747   4.690 -0.1212  0.8111  0.3756
  979MOL0     C29101   7.908   6.749   4.823  0.1704 -0.5644 -0.4167
  979MOL0     C29102   7.780   6.710   4.847 -0.7214  0.0878  0.0731
  979MOL0     C29103   7.688   6.680   4.742 -0.6597 -0.0480 -0.6490
  979MOL0     O29104   7.565   6.645   4.782  0.0690 -0.9475 -0.1307
  979MOL0     C29105   7.478   6.602   4.676  0.3940 -0.3078  0.5554
  979MOL0     C29106   7.345   6.557   4.732 -0.3890 -0.2604 -0.7504
  979MOL0     C29107   7.244   6.511   4.626 -0.6946 -0.2244  0.8451
  979MOL0     C29108   7.111   6.490   4.694  0.8181 -0.0639 -0.6403
  979MOL0     C29109   6.987   6.480   4.604  0.5841 -0.0372  0.1310
  979MOL0     C29110   6.870   6.428   4.689 -0.2298  0.6253  0.5392
  979MOL0     C29111   6.743   6.430   4.601  0.4217  0.1869 -0.0299
  979MOL0     C29112   6.648   6.326   4.664  0.1707 -0.2026  0.6194
  979MOL0     N29113   6.511   6.356   4.622 -0.3144 -0.6179  0.0792
  979MOL0     C29114   6.403   6.307   4.693 -0.4859  0.1451 -0.1895
  979MOL0     C29115   6.304   6.311   4.601  0.2801 -0.2730  0.0192
  979MOL0     C29116   6.163   6.251   4.616 -0.1398  0.7349 -0.4251
  979MOL0     C29117   6.070   6.327   4.711 -0.0913  0.1136 -0.2775
  979MOL0     C29118   5.969   6.232   4.775  0.1785 -0.0731  0.4118
  979MOL0     C29119   5.850   6.304   4.836 -0.6180 -0.1392 -0.0028
  979MOL0     O29120   5.805   6.240   4.957  0.2177  0.6545 -0.5382
  979MOL0     C29121   5.715   6.302   5.039  0.3311 -0.5096  0.0218
  979MOL0     C29122   5.676   6.223   5.141  0.6633  0.1187  0.4212
  979MOL0     C29123   5.574   6.263   5.229  0.4819 -0.2121 -0.1930
  979MOL0     C29124   5.506   6.389   5.210  0.1522  0.4896 -0.5514
  979MOL0     C29125   5.393   6.440   5.294  0.0382  0.4195 -0.3450
  979MOL0     O29126   5.355   6.356   5.392  0.3055 -0.5982 -0.2442
  979MOL0     C29127   5.243   6.369   5.457 -0.0129 -0.2351 -0.1145
  979MOL0     C29128   5.176   6.255   5.473  0.9109 -0.5714  0.2393
  979MOL0     C29129   5.042   6.245   5.528 -0.9989 -0.1778 -0.2855
  979MOL0     C29130   4.982   6.361   5.569 -1.0390  0.4573  0.1114
  979MOL0     O29131   4.847   6.367   5.617 -0.0957 -0.0472  0.6460
  979MOL0     C29132   4.764   6.254   5.620  0.2029 -0.1719  0.2279
  979MOL0     C29133   4.647   6.284   5.706 -0.4821  0.4588  0.3925
  979MOL0     C29134   4.669   6.339   5.844 -0.3941  0.2644  0.1928
  979MOL0     C29135   4.550   6.310   5.946 -0.0698  1.3250 -0.4273
  979MOL0     C29136   4.586   6.359   6.092  0.2224  0.6012  0.1266
  979MOL0     C29137   4.509   6.286   6.207 -0.0827  0.8456  0.1674
  979MOL0     C29138   4.546   6.326   6.348 -0.3262 -0.1117 -0.3537
  979MOL0     C29139   4.454   6.266   6.448 -0.6235  0.0674 -0.1180
  979MOL0    Cl29140   4.487   6.317   6.619  0.2347  0.3046  0.4385
  979MOL0     C29141   5.063   6.478   5.566 -0.4204  0.9803  0.0467
  979MOL0     C29142   5.192   6.482   5.511  0.1981  0.2911 -0.8133
  979MOL0     O29143   5.342   6.551   5.265  0.0779 -0.0613  0.7399
  979MOL0     C29144   5.553   6.472   5.102  0.1015  0.5289 -0.3279
  979MOL0     C29145   5.649   6.427   5.012 -1.0464 -0.3823 -0.0921
  979MOL0     N29146   6.351   6.371   4.485  0.3794 -0.1299  0.0512
  979MOL0     N29147   6.475   6.402   4.498  0.3264 -0.5699 -0.0066
  979MOL0     C29148   7.738   6.667   4.609 -0.2372 -0.1052 -0.0925
  979MOL0     C29149   7.870   6.700   4.588 -0.4255 -1.0485  0.7699
  979MOL0     C29150   8.306   6.684   4.685  0.1863 -0.6061  0.7837
  979MOL0     C29151   8.359   6.769   4.582 -0.1573 -0.3208 -0.3072
  979MOL0     C29152   8.498   6.781   4.568  0.5847  0.7234 -0.3504
  979MOL0     C29153   8.585   6.700   4.638 -0.3639 -0.2390  0.4646
  979MOL0     O29154   8.716   6.733   4.625 -0.5673 -0.2291  0.2252
  979MOL0     C29155   8.815   6.639   4.675 -0.7345  0.6837 -0.6658
  979MOL0     C29156   8.942   6.626   4.586 -0.6542  0.4755 -0.5816
  979MOL0     C29157   9.059   6.554   4.670 -0.7228  0.2553  0.4682
  979MOL0     C29158   9.190   6.554   4.595  0.2614 -0.4619  0.0922
  979MOL0     C29159   9.252   6.690   4.598  0.5716  0.7092  0.2651
  979MOL0     C29160   9.284   6.808   4.606  0.1343  0.2258 -0.4549
  979MOL0     C29161   8.536   6.601   4.727  0.7466  0.8146  0.2167
  979MOL0     C29162   8.398   6.598   4.751  0.0616 -0.2228 -0.4747
  979MOL0     H29163   7.965   6.781   4.911  1.3078  0.3918 -1.4552
  979MOL0     H29164   7.735   6.722   4.945 -1.7961 -2.7482  0.0230
  979MOL0     H29165   7.507   6.520   4.609 -1.3625 -0.5214  0.0067
  979MOL0     H29166   7.459   6.681   4.603 -0.8278 -1.4579 -0.4126
  979MOL0     H29167   7.319   6.647   4.788  1.6342  1.6228 -2.5953
  979MOL0     H29168   7.356   6.473   4.800  1.3795  0.1453 -0.4720
  979MOL0     H29169   7.272   6.417   4.578 -1.0235  0.4794 -0.7871
  979MOL0     H29170   7.238   6.582   4.543 -2.0723 -1.7421 -0.4088
  979MOL0     H29171   7.121   6.400   4.756 -1.7516  1.1907  1.8293
  979MOL0     H29172   7.097   6.569   4.769 -0.8282 -2.2947  1.5937
  979MOL0     H29173   7.009   6.402   4.531 -0.3306 -0.1700 -0.0109
  979MOL0     H29174   6.969   6.577   4.558 -0.8657  0.6366  1.9610
  979MOL0     H29175   6.839   6.481   4.780 -3.2160 -1.3999  0.8638
  979MOL0     H29176   6.893   6.327   4.725  2.4645  1.3776  1.1598
  979MOL0     H29177   6.712   6.535   4.597  1.6588  0.6200  1.1138
  979MOL0     H29178   6.775   6.401   4.501  0.8464 -0.8771  0.4007
  979MOL0     H29179   6.658   6.337   4.772 -2.0002  0.8921  0.7585
  979MOL0     H29180   6.683   6.225   4.641 -2.0528 -1.5690  2.7922
  979MOL0     H29181   6.408   6.267   4.794  0.7849 -0.8049 -0.6084
  979MOL0     H29182   6.170   6.145   4.643  1.9228  1.1025  0.7331
  979MOL0     H29183   6.105   6.255   4.523 -4.7852 -0.0333  2.1536
  979MOL0     H29184   6.012   6.385   4.638 -3.8070 -2.6939  0.1626
  979MOL0     H29185   6.132   6.391   4.774  0.3506  1.3725 -1.9297
  979MOL0     H29186   5.932   6.156   4.705 -1.3183  0.4598  0.5964
  979MOL0     H29187   6.013   6.169   4.853 -1.0258 -1.7015 -0.1780
  979MOL0     H29188   5.769   6.317   4.764  0.3516 -0.7033 -1.2191
  979MOL0     H29189   5.883   6.406   4.861 -2.4251  0.1091  1.6006
  979MOL0     H29190   5.718   6.126   5.161  0.4219  0.2951  1.8955
  979MOL0     H29191   5.542   6.208   5.317  0.0271  2.2482  1.2838
  979MOL0     H29192   5.217   6.163   5.433  1.4940  0.2855 -1.1875
  979MOL0     H29193   4.993   6.148   5.534 -0.9150 -0.2184 -0.2547
  979MOL0     H29194   4.815   6.158   5.633  1.9315  0.3829 -1.7963
  979MOL0     H29195   4.725   6.235   5.519 -1.9154  0.8550  0.7902
  979MOL0     H29196   4.584   6.196   5.720 -0.2423  0.5245  2.0882
  979MOL0     H29197   4.580   6.348   5.648 -0.6203 -2.6693 -3.3351
  979MOL0     H29198   4.668   6.447   5.829  0.1306  0.2540  0.0504
  979MOL0     H29199   4.764   6.305   5.886 -0.7369 -1.7438 -0.5676
  979MOL0     H29200   4.458   6.347   5.901  0.4507  1.7105 -1.2019
  979MOL0     H29201   4.528   6.203   5.946  1.0830  0.9648 -3.8653
  979MOL0     H29202   4.564   6.466   6.099  0.7348  0.8323 -1.4075
  979MOL0     H29203   4.691   6.333   6.108 -0.1458 -1.2060 -0.1662
  979MOL0     H29204   4.521   6.178   6.194 -0.0727  1.0893 -2.4555
  979MOL0     H29205   4.404   6.311   6.189 -0.1742 -0.1266 -0.8129
  979MOL0     H29206   4.646   6.290   6.373  0.5135  1.9822 -0.4571
  979MOL0     H29207   4.554   6.435   6.351  0.0459 -0.1633  1.5457
  979MOL0     H29208   4.471   6.158   6.448  1.2640  0.3204  0.0278
  979MOL0     H29209   4.351   6.292   6.423 -0.4145  1.7371  0.6614
  979MOL0     H29210   5.020   6.571   5.602 -1.5147  0.9794 -1.1704
  979MOL0     H29211   5.242   6.578   5.518 -0.4734  0.5350  1.2530
  979MOL0     H29212   5.511   6.571   5.086 -1.7859 -0.6231 -3.2559
  979MOL0     H29213   5.675   6.480   4.921 -1.2306 -1.0782 -0.5561
  979MOL0     H29214   7.671   6.646   4.526  0.7314  1.1409 -1.2308
  979MOL0     H29215   7.916   6.672   4.494  2.5422 -2.1642  2.4268
  979MOL0     H29216   8.307   6.847   4.526 -0.1068 -0.3912 -0.4541
  979MOL0     H29217   8.537   6.840   4.486  0.1043  0.0983 -1.0429
  979MOL0     H29218   8.780   6.536   4.688 -2.3264  1.4062  1.4925
  979MOL0     H29219   8.835   6.675   4.777 -0.1693  2.2864 -1.3043
  979MOL0     H29220   8.929   6.563   4.498  0.5411 -0.6976  0.0490
  979MOL0     H29221   8.983   6.723   4.555  3.5642 -1.2268 -1.0951
  979MOL0     H29222   9.030   6.451   4.693 -3.2721  0.9567  0.7723
  979MOL0     H29223   9.078   6.613   4.760  1.5882 -0.6151  0.6137
  979MOL0     H29224   9.266   6.486   4.633  1.2217 -0.8029 -2.2399
  979MOL0     H29225   9.180   6.521   4.491 -0.8106 -1.9982  0.6375
  979MOL0     H29226   9.337   6.901   4.601 -0.4171  0.4850 -1.9420
  979MOL0     H29227   8.597   6.541   4.795  0.8272  0.0047 -0.5606
  979MOL0     H29228   8.353   6.527   4.820  1.4377 -1.0616 -0.4052
  980MOL0     O29229   3.500   5.699   3.554 -0.1206 -0.2083 -0.1066
  980MOL0     C29230   3.517   5.814   3.516  0.2133  0.9398  0.3452
  980MOL0     O29231   3.427   5.918   3.548  0.6093 -0.5073  0.3791
  980MOL0     C29232   3.376   5.908   3.680  0.7606 -0.0779  0.1266
  980MOL0     C29233   3.242   5.873   3.706  0.7082  0.6999  0.2800
  980MOL0     C29234   3.192   5.893   3.831  0.6021  0.2720  0.0953
  980MOL0     C29235   3.270   5.951   3.936 -0.2465  0.0740  0.4103
  980MOL0     O29236   3.198   5.960   4.054 -0.2657 -0.0968  0.0011
  980MOL0     C29237   3.246   6.049   4.158 -0.1327 -0.6338 -0.2461
  980MOL0     C29238   3.179   6.015   4.292  0.3132  0.1777 -0.3599
  980MOL0     C29239   3.024   6.028   4.257  0.4982  0.5568  0.1935
  980MOL0     C29240   2.940   6.003   4.382 -0.0532  0.6990 -0.0903
  980MOL0     C29241   2.792   6.029   4.354  0.0988 -0.4331 -0.2061
  980MOL0     C29242   2.703   6.012   4.483 -0.5164 -0.7241 -0.2374
  980MOL0     C29243   2.553   6.030   4.453  0.1188 -0.1916 -0.0704
  980MOL0     C29244   2.482   5.901   4.470  0.0864  0.0842  0.5716
  980MOL0     N29245   2.333   5.914   4.458  0.3994 -0.4850 -0.2110
  980MOL0     C29246   2.268   6.007   4.379  0.3220  0.6277  0.5008
  980MOL0     C29247   2.137   6.011   4.426 -0.4985  0.3719 -0.4739
  980MOL0     C29248   2.022   6.073   4.376  0.4671 -0.1972  0.0133
  980MOL0     C29249   1.934   6.150   4.475 -0.3581  0.6930 -0.2661
  980MOL0     C29250   1.854   6.053   4.565  0.7606 -0.1599 -0.1555
  980MOL0     C29251   1.745   6.121   4.648  0.0776  0.0551 -0.1928
  980MOL0     O29252   1.794   6.254   4.677 -0.8758  0.0699  0.3387
  980MOL0     C29253   1.714   6.329   4.757 -0.6887 -0.4261 -0.0648
  980MOL0     C29254   1.763   6.455   4.799  0.6141  0.3515  0.6042
  980MOL0     C29255   1.693   6.532   4.898 -0.7249  0.1776 -0.2056
  980MOL0     C29256   1.573   6.488   4.961  0.2308 -0.1406  1.0523
  980MOL0     C29257   1.516   6.572   5.064 -0.0347 -0.4321  0.7061
  980MOL0     O29258   1.399   6.534   5.125  0.8694  0.1862  0.1406
  980MOL0     C29259   1.351   6.607   5.237 -0.3844 -0.4876  0.3009
  980MOL0     C29260   1.331   6.745   5.234 -0.5446 -0.3336 -0.2676
  980MOL0     C29261   1.243   6.803   5.314 -0.0701 -0.6063 -0.2540
  980MOL0     C29262   1.198   6.732   5.429 -0.0639 -0.6075  0.0127
  980MOL0     O29263   1.100   6.783   5.515  0.3137  0.2825  0.3298
  980MOL0     C29264   1.101   6.931   5.532 -0.1242 -1.1578 -0.1248
  980MOL0     C29265   1.055   6.985   5.672 -0.5422  0.0629  0.5122
  980MOL0     C29266   0.916   6.925   5.703  0.0515  0.6794  0.6957
  980MOL0     C29267   0.882   6.921   5.846 -0.7050 -0.2781  0.5279
  980MOL0     C29268   0.731   6.890   5.872 -0.3268  0.4571  0.0541
  980MOL0     C29269   0.632   7.012   5.851  0.1899 -0.1551 -0.4785
  980MOL0     C29270   0.483   6.985   5.868  0.7848 -0.2014  0.8374
  980MOL0     C29271   0.398   7.100   5.799 -0.5225 -0.4818  0.3413
  980MOL0    Cl29272   0.229   7.081   5.844  0.2342  0.2382 -0.7097
  980MOL0     C29273   1.225   6.599   5.438  0.2188 -0.0992  0.0453
  980MOL0     C29274   1.315   6.533   5.345 -0.4321  0.0036  0.2371
  980MOL0     O29275   1.581   6.672   5.097  0.4218  0.0877 -0.1364
  980MOL0     C29276   1.519   6.372   4.906  0.2520  0.4388  0.2727
  980MOL0     C29277   1.583   6.292   4.807  0.3756 -0.0769 -0.3402
  980MOL0     N29278   2.132   5.921   4.533  0.7732 -0.4989  0.0930
  980MOL0     N29279   2.248   5.880   4.556  0.9319  0.1870  0.4465
  980MOL0     C29280   3.400   5.982   3.908 -0.3655 -0.5902 -0.4875
  980MOL0     C29281   3.448   5.964   3.778 -0.0682 -0.0899  0.2465
  980MOL0     C29282   3.647   5.832   3.445 -0.2043 -0.0802  0.6028
  980MOL0     C29283   3.713   5.959   3.426  0.5280  0.8684 -0.9323
  980MOL0     C29284   3.842   5.979   3.367  0.8168  0.6635 -0.4898
  980MOL0     C29285   3.909   5.870   3.322 -0.5086  0.1710 -0.4337
  980MOL0     O29286   4.033   5.888   3.270  0.4744 -0.2875  0.3020
  980MOL0     C29287   4.113   5.785   3.223 -0.2027 -0.0641 -0.1782
  980MOL0     C29288   4.254   5.845   3.205 -0.3415 -0.4523 -0.0218
  980MOL0     C29289   4.351   5.736   3.160 -0.1994  0.4380  0.0682
  980MOL0     C29290   4.493   5.760   3.219 -0.6873  1.0113 -0.5740
  980MOL0     C29291   4.545   5.895   3.201 -0.1468 -0.4079  0.0564
  980MOL0     C29292   4.586   6.016   3.206 -0.0472  0.0292  0.7740
  980MOL0     C29293   3.853   5.741   3.339 -0.0019 -0.0366 -0.0010
  980MOL0     C29294   3.730   5.724   3.407 -0.0332 -1.0309  0.2397
  980MOL0     H29295   3.183   5.834   3.623  0.8534  0.2340  0.3936
  980MOL0     H29296   3.088   5.869   3.854 -0.2343  4.2399  1.2575
  980MOL0     H29297   3.225   6.152   4.128 -1.7016 -0.6367  0.7117
  980MOL0     H29298   3.352   6.039   4.181 -0.1705 -0.3240  0.0816
  980MOL0     H29299   3.202   6.093   4.365 -0.8943  1.7511 -1.6009
  980MOL0     H29300   3.203   5.914   4.327 -1.9484 -1.5170 -3.2429
  980MOL0     H29301   2.984   5.962   4.178  0.0251  0.3614  0.5920
  980MOL0     H29302   2.997   6.125   4.213 -0.1071 -0.9591 -3.1289
  980MOL0     H29303   2.939   5.898   4.412 -0.2322  0.4777 -0.8496
  980MOL0     H29304   2.979   6.057   4.469 -1.1014 -1.8925  2.1582
  980MOL0     H29305   2.770   5.955   4.277  0.1934 -2.0255  1.2376
  980MOL0     H29306   2.787   6.127   4.307 -0.1362  0.1488  0.9861
  980MOL0     H29307   2.742   6.092   4.546 -0.0556 -1.1040 -0.0354
  980MOL0     H29308   2.723   5.925   4.547  1.0105 -1.4286 -1.5865
  980MOL0     H29309   2.506   6.105   4.517  2.0886  1.2049 -0.1715
  980MOL0     H29310   2.526   6.076   4.358 -0.2927 -0.0102  0.1322
  980MOL0     H29311   2.503   5.852   4.565 -1.1673 -1.0941  0.2769
  980MOL0     H29312   2.524   5.826   4.402  3.9716 -0.3658  3.1828
  980MOL0     H29313   2.307   6.051   4.288 -2.5985  3.7302  0.5396
  980MOL0     H29314   1.964   5.991   4.331  1.2471 -0.2914 -0.8542
  980MOL0     H29315   2.053   6.144   4.298 -1.4135  1.2289  0.4945
  980MOL0     H29316   1.871   6.211   4.411 -0.4524 -1.5062 -2.4046
  980MOL0     H29317   2.001   6.216   4.532  2.8023 -2.0056 -0.5533
  980MOL0     H29318   1.810   5.971   4.508  0.0412 -0.8235  1.3023
  980MOL0     H29319   1.928   6.011   4.634 -1.8641 -1.9530  1.7803
  980MOL0     H29320   1.731   6.062   4.739 -2.6269 -0.1099 -0.6233
  980MOL0     H29321   1.650   6.118   4.594 -1.3352 -0.9150  2.1938
  980MOL0     H29322   1.860   6.485   4.759  0.4403 -1.0039 -0.9042
  980MOL0     H29323   1.740   6.626   4.927 -0.0790 -0.2039 -0.0153
  980MOL0     H29324   1.361   6.808   5.151 -1.1064 -0.4300 -0.5473
  980MOL0     H29325   1.221   6.908   5.296 -5.3865 -1.0585  1.9346
  980MOL0     H29326   1.031   6.970   5.457 -0.7524  0.9090  1.4480
  980MOL0     H29327   1.200   6.975   5.525 -0.0123 -1.5271 -1.0048
  980MOL0     H29328   1.059   7.094   5.672 -0.7687  0.0760  1.1353
  980MOL0     H29329   1.120   6.942   5.748  0.1702 -1.3120 -0.8233
  980MOL0     H29330   0.902   6.823   5.666  1.8412 -0.5126  3.0898
  980MOL0     H29331   0.847   6.991   5.650 -1.2603 -0.0210  1.4807
  980MOL0     H29332   0.942   6.846   5.899  1.3728  2.3094  2.0635
  980MOL0     H29333   0.896   7.017   5.897 -0.2244  0.3429 -0.7390
  980MOL0     H29334   0.721   6.858   5.976  0.7013  0.8142  0.2702
  980MOL0     H29335   0.706   6.815   5.796  1.1628  0.2021 -0.2103
  980MOL0     H29336   0.642   7.044   5.747 -3.6000  0.8549 -0.6598
  980MOL0     H29337   0.667   7.087   5.923 -0.2158 -2.4295  2.2379
  980MOL0     H29338   0.450   6.890   5.826 -3.6012  0.7075  1.7075
  980MOL0     H29339   0.446   6.979   5.971  0.4902 -0.3165  0.7278
  980MOL0     H29340   0.404   7.096   5.690 -0.5748 -1.3409  0.3665
  980MOL0     H29341   0.437   7.191   5.846 -0.1608 -0.0707 -0.7316
  980MOL0     H29342   1.187   6.550   5.526 -1.4084  0.1093 -0.4999
  980MOL0     H29343   1.349   6.430   5.357  0.8834  0.0089 -2.5771
  980MOL0     H29344   1.425   6.336   4.949 -1.3818  1.7590 -1.9749
  980MOL0     H29345   1.530   6.200   4.781 -0.5637  0.1935  0.5579
  980MOL0     H29346   3.469   6.028   3.978 -0.6902 -1.2264  0.2677
  980MOL0     H29347   3.545   5.989   3.736  0.8073 -1.3889  1.3574
  980MOL0     H29348   3.670   6.053   3.460 -0.3942  0.4719 -0.9581
  980MOL0     H29349   3.897   6.070   3.347  2.6524 -0.7370 -2.2151
  980MOL0     H29350   4.073   5.740   3.132  0.7429 -1.5253  0.0856
  980MOL0     H29351   4.107   5.711   3.303  0.2761  1.4895  1.3622
  980MOL0     H29352   4.257   5.929   3.134  1.3644 -1.8844 -1.7849
  980MOL0     H29353   4.285   5.884   3.302 -0.0387 -0.3735 -0.1479
  980MOL0     H29354   4.352   5.739   3.051 -1.5372  0.0749  0.0317
  980MOL0     H29355   4.307   5.641   3.190  1.0674 -0.1354  0.1739
  980MOL0     H29356   4.494   5.747   3.328 -0.2001  1.1711 -0.5559
  980MOL0     H29357   4.563   5.683   3.184  2.1102  2.9291  0.4114
  980MOL0     H29358   4.621   6.117   3.200 -2.0425  0.7441  0.3189
  980MOL0     H29359   3.897   5.647   3.308  0.7314 -0.2320  1.5300
  980MOL0     H29360   3.696   5.621   3.408  0.5400 -1.2814 -1.7421
  981MOL0     O29361  10.261   6.299   3.771  0.1285 -0.4710 -0.2809
  981MOL0     C29362  10.303   6.265   3.883 -0.2611 -0.7247  0.7626
  981MOL0     O29363  10.249   6.177   3.975  0.7491 -0.2037  0.7541
  981MOL0     C29364  10.118   6.146   3.962 -0.0202  0.1304 -0.0289
  981MOL0     C29365  10.069   6.021   3.912  0.5715 -0.3937 -0.2116
  981MOL0     C29366   9.925   6.006   3.911 -0.0197 -0.3162  0.3214
  981MOL0     C29367   9.836   6.101   3.953  0.0642 -0.5113  0.0533
  981MOL0     O29368   9.707   6.078   3.930  0.6231 -0.2070  0.4643
  981MOL0     C29369   9.629   6.192   3.904  0.2405  0.3237 -0.9823
  981MOL0     C29370   9.489   6.127   3.885  0.5669  0.7795  0.2540
  981MOL0     C29371   9.410   6.239   3.818  0.0554 -0.1615 -0.0982
  981MOL0     C29372   9.260   6.200   3.799 -0.3265 -0.2844  0.4266
  981MOL0     C29373   9.187   6.171   3.930  0.2536  0.2346  0.0431
  981MOL0     C29374   9.035   6.199   3.939  0.2515  0.6392 -0.4202
  981MOL0     C29375   8.958   6.103   3.859  0.5136  0.4738 -0.2591
  981MOL0     C29376   8.804   6.120   3.866 -0.3170 -0.3586 -0.2344
  981MOL0     N29377   8.759   6.228   3.775  1.6674  0.4297  0.3568
  981MOL0     C29378   8.645   6.217   3.697 -0.2977 -0.1919 -0.1180
  981MOL0     C29379   8.623   6.345   3.656  0.7563 -0.8234  0.1309
  981MOL0     C29380   8.518   6.386   3.558 -0.2089  0.3644 -0.0216
  981MOL0     C29381   8.373   6.387   3.607 -0.0980 -0.0936 -0.4764
  981MOL0     C29382   8.364   6.451   3.745 -0.1503  0.2415  0.1509
  981MOL0     C29383   8.219   6.459   3.796 -0.5546 -1.0184 -0.4300
  981MOL0     O29384   8.140   6.538   3.713 -0.3635 -0.2475  0.1102
  981MOL0     C29385   7.996   6.536   3.735  0.3661  0.2156 -0.1238
  981MOL0     C29386   7.939   6.522   3.867  0.4663  0.0825  1.1897
  981MOL0     C29387   7.800   6.517   3.880  0.7028  0.7673 -0.0935
  981MOL0     C29388   7.713   6.522   3.771  0.7825 -0.4339  0.0771
  981MOL0     C29389   7.567   6.513   3.794 -0.8962 -0.1829  0.5091
  981MOL0     O29390   7.487   6.517   3.682 -0.3227  0.3207 -0.1900
  981MOL0     C29391   7.352   6.531   3.705  0.4569  0.7307  0.6862
  981MOL0     C29392   7.294   6.626   3.788  0.0179 -0.3856  0.4942
  981MOL0     C29393   7.149   6.628   3.814 -0.5110  0.0799  0.2070
  981MOL0     C29394   7.072   6.547   3.737  0.6657  0.4439  0.1409
  981MOL0     O29395   6.935   6.538   3.750 -0.0275  0.4375  0.0404
  981MOL0     C29396   6.872   6.628   3.852  1.0399 -0.0328  0.8663
  981MOL0     C29397   6.721   6.615   3.823 -0.0364 -0.7691  0.5480
  981MOL0     C29398   6.674   6.480   3.872  0.1213 -0.5355 -0.2668
  981MOL0     C29399   6.673   6.448   4.022  0.3987  0.7211  0.6517
  981MOL0     C29400   6.596   6.314   4.052 -0.4787 -0.2639 -0.1481
  981MOL0     C29401   6.616   6.259   4.199  0.4091 -0.5624 -0.5107
  981MOL0     C29402   6.530   6.141   4.210 -0.2764 -0.3428 -0.4074
  981MOL0     C29403   6.524   6.066   4.339 -0.6546 -1.1504 -0.2728
  981MOL0    Cl29404   6.405   5.924   4.312 -0.3009 -0.3576  0.2856
  981MOL0     C29405   7.124   6.463   3.643  0.3632 -0.0735  0.7047
  981MOL0     C29406   7.265   6.445   3.631  0.1148 -0.1631  0.3051
  981MOL0     O29407   7.528   6.503   3.910 -0.4541  0.5024  0.0677
  981MOL0     C29408   7.764   6.538   3.637 -0.6864  0.5647  0.2848
  981MOL0     C29409   7.909   6.541   3.627 -0.4301 -0.2533  0.2029
  981MOL0     N29410   8.718   6.430   3.708 -0.6090 -0.0442  0.2013
  981MOL0     N29411   8.802   6.352   3.765 -0.1033 -0.6264  0.9840
  981MOL0     C29412   9.888   6.225   4.000 -0.4120  0.4638 -0.2939
  981MOL0     C29413  10.024   6.248   3.990 -0.2951 -0.0572  0.7586
  981MOL0     C29414  10.444   6.317   3.906 -0.0994  0.7369  0.4283
  981MOL0     C29415  10.516   6.258   4.012  0.3443 -0.3986  0.4834
  981MOL0     C29416  10.645   6.302   4.033 -0.4278 -0.1866 -0.4134
  981MOL0     C29417  10.703   6.414   3.966  0.4502  0.4747  0.6939
  981MOL0     O29418  10.819   6.485   3.987  0.3095  0.2611  0.7387
  981MOL0     C29419  10.917   6.456   4.082 -0.2813  0.0928 -0.2023
  981MOL0     C29420  11.011   6.582   4.092 -0.1704  0.0675  0.3136
  981MOL0     C29421  10.958   6.718   4.125  0.1515 -0.2093  0.7178
  981MOL0     C29422  10.988   6.833   4.033  0.3993 -0.3726 -0.4871
  981MOL0     C29423  11.124   6.868   4.062 -0.3771  1.2865 -0.9198
  981MOL0     C29424  11.236   6.908   4.089  0.3533  0.2695  0.9360
  981MOL0     C29425  10.627   6.471   3.860  0.2416  0.3118  0.1213
  981MOL0     C29426  10.500   6.417   3.825 -0.2089 -0.1887 -0.8040
  981MOL0     H29427  10.132   5.933   3.897 -0.5792 -0.7708 -3.9212
  981MOL0     H29428   9.891   5.914   3.864  1.3122  0.3807 -2.1853
  981MOL0     H29429   9.669   6.253   3.823  0.2326  0.6363 -0.7536
  981MOL0     H29430   9.620   6.265   3.985 -2.2855  0.7521 -1.5573
  981MOL0     H29431   9.447   6.103   3.983 -1.4659  0.6608 -0.5875
  981MOL0     H29432   9.492   6.041   3.817  1.2300 -0.5955  1.9611
  981MOL0     H29433   9.457   6.261   3.721  0.6916  1.2642  0.5070
  981MOL0     H29434   9.412   6.326   3.885 -1.0053 -1.9789  2.4432
  981MOL0     H29435   9.205   6.281   3.749 -0.6955  0.2401  1.6199
  981MOL0     H29436   9.254   6.116   3.731  0.9359  0.1737 -0.2869
  981MOL0     H29437   9.234   6.237   4.003 -0.4966 -1.6656  2.3856
  981MOL0     H29438   9.212   6.068   3.960 -0.6743 -0.1670 -0.5235
  981MOL0     H29439   9.014   6.304   3.920  1.9800  0.9737 -0.6574
  981MOL0     H29440   9.010   6.184   4.045  2.1653  0.8543  0.1056
  981MOL0     H29441   8.989   6.106   3.754  3.0794 -0.7817  0.3934
  981MOL0     H29442   8.976   6.011   3.914  0.2363  1.7909  2.1425
  981MOL0     H29443   8.781   6.150   3.969 -0.7861 -0.7245 -0.2290
  981MOL0     H29444   8.758   6.022   3.850 -2.2164  0.4177  0.1565
  981MOL0     H29445   8.599   6.121   3.674  0.9235 -0.6657 -0.6381
  981MOL0     H29446   8.533   6.312   3.478  0.3768 -0.5722  0.9356
  981MOL0     H29447   8.538   6.487   3.522 -2.3377  0.3282 -1.4938
  981MOL0     H29448   8.331   6.286   3.613 -0.9571  0.3161  1.1153
  981MOL0     H29449   8.309   6.433   3.532 -0.3911  0.2849 -0.0022
  981MOL0     H29450   8.418   6.388   3.816  0.4604  0.3440 -0.2151
  981MOL0     H29451   8.407   6.551   3.737 -1.5624  0.7238 -2.8072
  981MOL0     H29452   8.217   6.504   3.896  0.8169  0.2637 -0.9390
  981MOL0     H29453   8.184   6.355   3.803 -0.4732 -1.0671 -0.7453
  981MOL0     H29454   8.012   6.505   3.946  1.8521  0.4291  0.0174
  981MOL0     H29455   7.756   6.504   3.978 -1.0945 -1.0407 -1.0548
  981MOL0     H29456   7.357   6.687   3.852  2.9179 -2.5472 -0.0762
  981MOL0     H29457   7.109   6.702   3.882 -1.9538 -0.8205  0.3938
  981MOL0     H29458   6.906   6.729   3.828  0.1787  0.3924  1.3965
  981MOL0     H29459   6.910   6.604   3.952 -0.4134 -0.9366  1.2175
  981MOL0     H29460   6.704   6.625   3.716  0.7080  1.6920  0.6009
  981MOL0     H29461   6.662   6.700   3.860  1.3029  0.4992 -0.1235
  981MOL0     H29462   6.728   6.397   3.827 -0.2425 -0.8300 -0.1671
  981MOL0     H29463   6.571   6.471   3.836 -0.0507  0.5049 -0.0683
  981MOL0     H29464   6.775   6.436   4.059  0.2903  1.7922  1.3616
  981MOL0     H29465   6.618   6.531   4.068 -1.0588  1.6989 -2.5363
  981MOL0     H29466   6.638   6.233   3.990  0.5993 -2.9182  3.6960
  981MOL0     H29467   6.493   6.317   4.015  0.2862 -0.2881 -2.4426
  981MOL0     H29468   6.583   6.332   4.274  2.8330  0.8856 -0.7571
  981MOL0     H29469   6.718   6.238   4.232  0.4125  1.1953  0.7320
  981MOL0     H29470   6.431   6.168   4.172  0.7269 -0.0266 -3.0068
  981MOL0     H29471   6.565   6.067   4.138 -0.6903 -0.1585 -0.7978
  981MOL0     H29472   6.488   6.137   4.414  1.8056 -1.2262  1.0941
  981MOL0     H29473   6.624   6.031   4.367  1.6976  3.1123 -2.3035
  981MOL0     H29474   7.070   6.394   3.579 -1.2437  1.5413  0.2318
  981MOL0     H29475   7.306   6.367   3.568  0.8747 -0.2285  0.8599
  981MOL0     H29476   7.696   6.556   3.554  0.4846  1.9767 -0.4384
  981MOL0     H29477   7.945   6.556   3.525  1.6593 -0.2026  0.8900
  981MOL0     H29478   9.835   6.307   4.047 -1.6604 -1.9674  2.8781
  981MOL0     H29479  10.060   6.344   4.026 -0.3228 -0.6870  2.5782
  981MOL0     H29480  10.480   6.179   4.077 -0.5791 -0.2129  0.2212
  981MOL0     H29481  10.709   6.261   4.111  2.1931  1.8281 -1.3283
  981MOL0     H29482  10.970   6.364   4.059  0.0414 -0.4756  2.4602
  981MOL0     H29483  10.872   6.440   4.180 -0.9881  2.0583 -0.1577
  981MOL0     H29484  11.081   6.555   4.172 -1.0275 -1.2552  0.6443
  981MOL0     H29485  11.070   6.583   4.000  2.2121 -0.2606  1.7640
  981MOL0     H29486  10.987   6.741   4.228 -0.8717 -0.2389  1.0214
  981MOL0     H29487  10.851   6.696   4.126 -0.6333  2.9855  0.5729
  981MOL0     H29488  10.985   6.802   3.928  0.8461 -2.0582 -0.0415
  981MOL0     H29489  10.927   6.923   4.042  0.8005 -0.0396 -1.0371
  981MOL0     H29490  11.337   6.941   4.104  0.3313  0.1174  1.4272
  981MOL0     H29491  10.661   6.564   3.816 -1.3064  0.0070 -1.8442
  981MOL0     H29492  10.444   6.461   3.744  1.7249  3.7789 -0.2060
  982MOL0     O29493   0.828   6.661   2.996 -0.1411  0.2568  0.6702
  982MOL0     C29494   0.777   6.589   2.907 -0.7565 -0.0657 -0.0979
  982MOL0     O29495   0.852   6.509   2.820  0.0834 -0.3539  0.3783
  982MOL0     C29496   0.995   6.509   2.834 -0.5898  0.2286  0.2052
  982MOL0     C29497   1.072   6.604   2.772 -0.2101 -0.8456 -0.5275
  982MOL0     C29498   1.213   6.593   2.788 -0.0135 -0.7919  0.1138
  982MOL0     C29499   1.275   6.497   2.860 -0.0579  0.2950 -0.8674
  982MOL0     O29500   1.409   6.515   2.897  0.8979 -0.0357 -0.0001
  982MOL0     C29501   1.483   6.409   2.965 -0.2305  0.5592  0.1561
  982MOL0     C29502   1.623   6.462   2.976 -0.1064  0.1752  0.4009
  982MOL0     C29503   1.718   6.353   3.024 -0.8152 -0.1915  0.1087
  982MOL0     C29504   1.868   6.401   3.032  0.4091 -0.2266  0.2512
  982MOL0     C29505   1.951   6.320   3.133  1.1029 -0.1402  0.1227
  982MOL0     C29506   2.095   6.354   3.129  0.2259  0.7727  0.3208
  982MOL0     C29507   2.175   6.233   3.198 -0.2425 -0.4663  0.6767
  982MOL0     C29508   2.326   6.253   3.188  0.9731 -0.2784 -0.3126
  982MOL0     N29509   2.379   6.156   3.288  0.0144  0.4976  0.3784
  982MOL0     C29510   2.457   6.187   3.400  0.1480  0.5141  0.1748
  982MOL0     C29511   2.493   6.070   3.455  0.3427 -0.2440  0.5588
  982MOL0     C29512   2.578   6.044   3.574  1.2562  0.0971 -0.0368
  982MOL0     C29513   2.725   6.082   3.563  0.7897  0.8316  0.0627
  982MOL0     C29514   2.798   6.000   3.461 -0.7443 -0.0771 -0.4554
  982MOL0     C29515   2.946   6.022   3.445  0.6305 -0.3018 -0.2524
  982MOL0     O29516   2.970   6.129   3.350 -0.1672  0.5581  0.3239
  982MOL0     C29517   3.087   6.195   3.348 -0.6655  0.4143  0.2608
  982MOL0     C29518   3.091   6.328   3.343 -0.0277 -0.4090  0.5200
  982MOL0     C29519   3.214   6.398   3.338 -0.2439  0.1305 -0.5146
  982MOL0     C29520   3.337   6.323   3.344  0.3963 -0.0476 -0.2047
  982MOL0     C29521   3.464   6.393   3.319 -0.2990 -0.3922  1.1448
  982MOL0     O29522   3.579   6.338   3.366 -0.0650  0.0428 -0.4762
  982MOL0     C29523   3.691   6.384   3.317 -0.2098 -0.3742 -0.3718
  982MOL0     C29524   3.743   6.318   3.207 -0.0784  0.1384  0.0347
  982MOL0     C29525   3.878   6.342   3.178 -0.2946 -0.6757  0.1176
  982MOL0     C29526   3.947   6.446   3.240 -0.5739 -0.2467 -0.5668
  982MOL0     O29527   4.072   6.482   3.214  0.5074 -0.4127  0.5187
  982MOL0     C29528   4.150   6.406   3.107  0.0041  0.3487 -0.3290
  982MOL0     C29529   4.291   6.452   3.086  0.0580  0.3877 -0.3325
  982MOL0     C29530   4.371   6.399   2.970 -0.1595  1.1175  0.4576
  982MOL0     C29531   4.402   6.248   2.988  0.4792 -0.7288  0.4664
  982MOL0     C29532   4.472   6.168   2.883 -0.0436 -0.3566  0.5272
  982MOL0     C29533   4.602   6.230   2.845 -0.3294 -0.2838 -0.9853
  982MOL0     C29534   4.666   6.118   2.753  0.5615  0.0086 -0.6814
  982MOL0     C29535   4.766   6.191   2.667 -0.0511 -0.5354 -0.3112
  982MOL0    Cl29536   4.826   6.088   2.539  0.1044 -0.1268 -0.1019
  982MOL0     C29537   3.884   6.517   3.345  0.6952  0.2368 -0.1574
  982MOL0     C29538   3.757   6.480   3.386  0.8887 -0.6240 -0.0459
  982MOL0     O29539   3.454   6.508   3.268 -0.1764  0.0214  0.4431
  982MOL0     C29540   3.334   6.187   3.346  0.3468  0.7330  0.7242
  982MOL0     C29541   3.211   6.125   3.355 -0.9236 -0.5661 -0.0745
  982MOL0     N29542   2.442   5.970   3.365  0.1595 -0.6344 -0.1824
  982MOL0     N29543   2.394   6.025   3.258  0.4625  0.5433 -0.0500
  982MOL0     C29544   1.190   6.394   2.916 -0.1568  0.3889 -0.8165
  982MOL0     C29545   1.056   6.397   2.892  0.3445  1.3447 -0.8561
  982MOL0     C29546   0.629   6.596   2.898  0.7048  0.0189  0.2663
  982MOL0     C29547   0.554   6.619   3.017  0.0213 -0.3889 -0.1752
  982MOL0     C29548   0.411   6.641   3.012 -0.7975  0.3926  0.0665
  982MOL0     C29549   0.353   6.641   2.884  0.1281  0.2010  0.8567
  982MOL0     O29550   0.221   6.666   2.865 -0.1408 -0.5443 -0.2811
  982MOL0     C29551   0.131   6.655   2.979  0.5868  1.3519  0.5479
  982MOL0     C29552  -0.007   6.672   2.931 -0.2125 -0.1495 -0.2100
  982MOL0     C29553  -0.113   6.707   3.037  0.1755  0.8075 -0.3110
  982MOL0     C29554  -0.251   6.649   3.021 -0.2171  0.5311  0.1369
  982MOL0     C29555  -0.355   6.735   3.088  0.1689 -0.3776  0.2032
  982MOL0     C29556  -0.428   6.821   3.136  0.2777  0.0538 -1.0066
  982MOL0     C29557   0.420   6.614   2.768 -0.5022  0.0008  0.6178
  982MOL0     C29558   0.562   6.585   2.770  0.3434  0.1059 -0.5564
  982MOL0     H29559   1.013   6.684   2.728 -1.3604 -1.1090  0.4775
  982MOL0     H29560   1.271   6.678   2.756  0.5510 -0.7992  1.0722
  982MOL0     H29561   1.474   6.319   2.905  0.9439  0.6586 -0.1786
  982MOL0     H29562   1.440   6.385   3.063 -4.8610 -2.3654 -2.2181
  982MOL0     H29563   1.626   6.552   3.039  2.2690 -1.0065  2.1103
  982MOL0     H29564   1.654   6.491   2.875 -1.1348 -1.8288 -0.5431
  982MOL0     H29565   1.720   6.265   2.959 -1.8236  0.0204 -0.2293
  982MOL0     H29566   1.689   6.311   3.121  1.3970 -0.2816  0.7786
  982MOL0     H29567   1.906   6.400   2.929 -3.2806  3.0585 -1.3940
  982MOL0     H29568   1.893   6.504   3.057 -0.2892 -0.0601  0.2772
  982MOL0     H29569   1.932   6.220   3.092 -0.2443  0.2267 -0.2094
  982MOL0     H29570   1.899   6.335   3.228 -0.5032  0.8777 -0.8587
  982MOL0     H29571   2.114   6.453   3.171  2.5963  0.0096  1.1966
  982MOL0     H29572   2.130   6.356   3.026 -0.8582  1.0723 -0.0556
  982MOL0     H29573   2.138   6.224   3.301 -2.8760  1.0432 -0.0410
  982MOL0     H29574   2.154   6.138   3.149 -1.8934  0.3521 -0.2755
  982MOL0     H29575   2.347   6.360   3.200  0.1518  0.3463 -3.5136
  982MOL0     H29576   2.369   6.240   3.088  2.7548  0.1702  0.3456
  982MOL0     H29577   2.478   6.281   3.449  3.9069  0.3343 -0.8087
  982MOL0     H29578   2.580   5.934   3.582  0.3961  0.0754 -0.0050
  982MOL0     H29579   2.531   6.093   3.660  2.8984  1.7625 -0.0379
  982MOL0     H29580   2.763   6.091   3.666  1.6827  1.5324 -0.3133
  982MOL0     H29581   2.726   6.184   3.522 -0.1991  0.7230 -0.2463
  982MOL0     H29582   2.787   5.893   3.484  2.0678 -0.2968  0.3078
  982MOL0     H29583   2.754   6.027   3.365  1.4099  0.5394 -1.3283
  982MOL0     H29584   3.002   5.931   3.423 -2.3619 -1.9648 -1.5263
  982MOL0     H29585   2.982   6.067   3.538  0.6396 -3.1522  1.2085
  982MOL0     H29586   3.008   6.398   3.335  1.9954  2.0115 -1.2274
  982MOL0     H29587   3.215   6.505   3.322  0.5191  0.0309 -1.1940
  982MOL0     H29588   3.695   6.230   3.164  0.7738 -0.3969  0.1496
  982MOL0     H29589   3.928   6.277   3.107 -1.0383 -0.5088 -0.5624
  982MOL0     H29590   4.092   6.411   3.014  2.3796  2.0629 -1.8338
  982MOL0     H29591   4.155   6.302   3.142 -1.0737  0.5127  0.3675
  982MOL0     H29592   4.345   6.437   3.180  0.9832  1.5684 -0.6583
  982MOL0     H29593   4.294   6.560   3.068  0.0377  0.3731 -0.4248
  982MOL0     H29594   4.466   6.454   2.971  2.2971 -2.7002 -1.0113
  982MOL0     H29595   4.320   6.419   2.875  1.5756 -0.1260 -0.8040
  982MOL0     H29596   4.456   6.245   3.082  2.0290 -1.7705 -0.4151
  982MOL0     H29597   4.304   6.199   2.994 -0.9988  2.1510  3.2421
  982MOL0     H29598   4.400   6.161   2.801 -2.0256 -1.5459  2.2704
  982MOL0     H29599   4.495   6.070   2.925  0.8519 -0.5736 -0.4310
  982MOL0     H29600   4.663   6.236   2.936  0.9100  1.5431 -1.8698
  982MOL0     H29601   4.593   6.331   2.803  1.1151  1.1636  1.8790
  982MOL0     H29602   4.703   6.047   2.827 -2.4335 -0.8973  0.0697
  982MOL0     H29603   4.596   6.066   2.687 -1.6557 -1.1110  2.3413
  982MOL0     H29604   4.860   6.222   2.715  1.4017 -0.9279 -2.7003
  982MOL0     H29605   4.727   6.283   2.622 -0.3082  0.1427  1.2305
  982MOL0     H29606   3.930   6.598   3.400 -1.5948 -0.8349  3.6638
  982MOL0     H29607   3.719   6.531   3.474  0.5357 -1.9867  0.6188
  982MOL0     H29608   3.424   6.127   3.347  1.6450  2.3842 -2.5526
  982MOL0     H29609   3.209   6.017   3.368 -0.5462 -0.4738  0.8593
  982MOL0     H29610   1.235   6.325   2.987 -0.0798 -0.8188 -1.9908
  982MOL0     H29611   0.993   6.314   2.920  0.8948  1.0072 -0.6040
  982MOL0     H29612   0.602   6.624   3.114 -1.1950 -1.3372  0.4921
  982MOL0     H29613   0.346   6.649   3.098 -3.1516  1.9822 -1.7313
  982MOL0     H29614   0.150   6.737   3.048  1.5033 -0.1175  2.0954
  982MOL0     H29615   0.144   6.561   3.034 -1.8817  1.3445  1.2441
  982MOL0     H29616   0.005   6.745   2.851  1.3933 -0.4871 -0.3020
  982MOL0     H29617  -0.031   6.574   2.889  1.7010 -0.2551 -1.1636
  982MOL0     H29618  -0.126   6.815   3.038 -1.5820  0.8254 -4.4734
  982MOL0     H29619  -0.080   6.663   3.132 -1.5441 -2.6833 -1.1455
  982MOL0     H29620  -0.257   6.643   2.912 -0.9252 -0.3927  0.2250
  982MOL0     H29621  -0.251   6.549   3.065 -0.8807 -0.2517 -1.5498
  982MOL0     H29622  -0.491   6.891   3.188  1.2526  1.0633 -1.1472
  982MOL0     H29623   0.378   6.630   2.669  1.1981  3.0556  0.2582
  982MOL0     H29624   0.624   6.568   2.683  2.8547 -0.5727  1.2511
  983MOL0     O29625   7.237   6.876   7.282  0.3866 -0.3688 -0.0537
  983MOL0     C29626   7.286   6.885   7.174  0.2279  0.4769 -0.1858
  983MOL0     O29627   7.249   6.815   7.057  0.2601 -0.1773 -0.5039
  983MOL0     C29628   7.149   6.715   7.047  0.5816  0.5222  1.1769
  983MOL0     C29629   7.111   6.637   7.146  0.8044  0.3205  0.0613
  983MOL0     C29630   7.019   6.540   7.125  0.4121  0.2387 -1.4849
  983MOL0     C29631   6.952   6.504   7.009  0.1749 -0.0019 -0.3606
  983MOL0     O29632   6.861   6.401   7.008 -0.0720  0.3548  0.1350
  983MOL0     C29633   6.853   6.324   6.887 -0.5037  0.6169  0.4817
  983MOL0     C29634   6.985   6.242   6.873  0.3798 -0.2135  0.4914
  983MOL0     C29635   7.003   6.163   6.742  0.2254 -0.0657  0.7990
  983MOL0     C29636   6.997   6.236   6.611  0.0808 -0.1017  0.6167
  983MOL0     C29637   7.097   6.350   6.595 -0.1274 -0.5551  0.2133
  983MOL0     C29638   7.245   6.319   6.618 -0.3792 -0.3042 -0.7994
  983MOL0     C29639   7.320   6.432   6.563 -0.1570  0.6210  1.0259
  983MOL0     C29640   7.351   6.548   6.654  1.3957 -0.2349 -0.7432
  983MOL0     N29641   7.436   6.655   6.608  0.2429  0.7464  0.1194
  983MOL0     C29642   7.561   6.649   6.548 -0.0529 -0.6180 -0.8379
  983MOL0     C29643   7.617   6.770   6.556  0.2049  0.4457 -0.0111
  983MOL0     C29644   7.751   6.811   6.497  0.4158 -0.1509  0.1884
  983MOL0     C29645   7.859   6.861   6.604  0.1335 -0.4451  0.5960
  983MOL0     C29646   7.818   6.980   6.688  0.9482 -0.2115  0.1020
  983MOL0     C29647   7.934   7.062   6.733 -0.5728 -0.4291 -0.1896
  983MOL0     O29648   8.017   6.972   6.808  0.4946  0.3532  0.3482
  983MOL0     C29649   8.150   6.979   6.835 -0.4710 -0.7862 -0.1110
  983MOL0     C29650   8.221   7.099   6.827 -0.1491  0.2215 -0.0364
  983MOL0     C29651   8.358   7.112   6.846  0.5858  1.3529 -0.0188
  983MOL0     C29652   8.431   6.998   6.886 -0.6502  0.9767  0.3884
  983MOL0     C29653   8.569   7.011   6.938  0.1082  0.0426  0.6328
  983MOL0     O29654   8.624   7.135   6.930 -0.3133 -0.0506  0.0647
  983MOL0     C29655   8.759   7.145   6.973 -0.3951  0.3050 -0.0074
  983MOL0     C29656   8.798   7.232   7.071 -0.2125 -0.7465  0.8869
  983MOL0     C29657   8.938   7.250   7.112  0.0388 -0.1860  0.5578
  983MOL0     C29658   9.030   7.175   7.040  0.7827  0.3421  0.1718
  983MOL0     O29659   9.157   7.167   7.059 -0.1200  0.2885 -0.6252
  983MOL0     C29660   9.233   7.289   7.035  0.7335 -0.6116 -0.4075
  983MOL0     C29661   9.386   7.262   7.025  0.2569 -0.2704 -0.6354
  983MOL0     C29662   9.471   7.387   7.029 -0.0562 -1.2492 -0.1252
  983MOL0     C29663   9.618   7.358   7.034 -0.7879  0.0419  0.2762
  983MOL0     C29664   9.704   7.487   7.011 -0.4153  0.3495  1.0897
  983MOL0     C29665   9.852   7.441   7.020  0.0342 -0.3331 -1.0969
  983MOL0     C29666   9.942   7.559   6.999  0.3889 -0.4375 -0.3381
  983MOL0     C29667  10.088   7.528   6.987 -0.8112 -0.6523  1.2495
  983MOL0    Cl29668  10.159   7.501   7.149 -0.1266 -0.2924  0.1742
  983MOL0     C29669   8.987   7.101   6.930 -0.2747  0.6426 -0.6750
  983MOL0     C29670   8.857   7.079   6.898 -0.4261  0.4719  0.9036
  983MOL0     O29671   8.625   6.907   6.954  0.2197 -0.0708 -0.5625
  983MOL0     C29672   8.359   6.874   6.906  0.1371 -1.1355  0.5938
  983MOL0     C29673   8.222   6.866   6.874  0.5337  0.3166 -0.1105
  983MOL0     N29674   7.524   6.849   6.621  0.5187  0.5197  0.0421
  983MOL0     N29675   7.413   6.783   6.643 -0.7568  0.1138  0.0370
  983MOL0     C29676   6.981   6.589   6.902  0.1983  0.1031 -0.5955
  983MOL0     C29677   7.081   6.693   6.923  0.2536 -0.4287 -0.7197
  983MOL0     C29678   7.424   6.953   7.172  0.3080 -0.5113 -0.4092
  983MOL0     C29679   7.472   7.016   7.294 -0.0671  0.2464 -1.0434
  983MOL0     C29680   7.596   7.077   7.299 -0.4625  0.0104  0.3334
  983MOL0     C29681   7.684   7.072   7.191  0.1379  0.3272  0.6253
  983MOL0     O29682   7.817   7.109   7.217  0.3552 -0.2475  0.2161
  983MOL0     C29683   7.911   7.093   7.112 -0.7535  1.1604 -0.3743
  983MOL0     C29684   8.050   7.125   7.164 -0.8263  0.8984 -0.2442
  983MOL0     C29685   8.091   7.043   7.289 -0.8650 -0.2644 -0.0177
  983MOL0     C29686   8.229   7.067   7.350 -0.1403 -0.8985  0.9478
  983MOL0     C29687   8.328   6.983   7.290 -0.0800  0.8527 -0.3766
  983MOL0     C29688   8.422   6.921   7.243 -0.2066  1.2954  0.4166
  983MOL0     C29689   7.633   7.020   7.065  0.2440  0.6555 -0.4646
  983MOL0     C29690   7.502   6.965   7.053  0.1703 -0.3282  0.2622
  983MOL0     H29691   7.135   6.660   7.250 -1.3057 -1.4661  1.0451
  983MOL0     H29692   6.992   6.485   7.214  0.8679  0.5875 -1.1206
  983MOL0     H29693   6.827   6.383   6.799 -3.2263 -1.0663  0.0610
  983MOL0     H29694   6.777   6.246   6.896 -0.7991  0.4966 -2.3465
  983MOL0     H29695   7.006   6.175   6.956  0.1523 -0.6936  0.1668
  983MOL0     H29696   7.067   6.312   6.886 -0.9831  1.1926  2.0641
  983MOL0     H29697   6.932   6.080   6.752 -0.5516  0.5810  0.7600
  983MOL0     H29698   7.102   6.116   6.748 -0.0112 -0.6615  0.1820
  983MOL0     H29699   7.020   6.164   6.532  1.0206 -0.2140  0.9797
  983MOL0     H29700   6.897   6.274   6.589  0.3707 -0.2513 -1.0660
  983MOL0     H29701   7.060   6.425   6.665 -0.0385 -0.6854  0.3994
  983MOL0     H29702   7.078   6.392   6.495 -0.8347  2.9322  1.6793
  983MOL0     H29703   7.282   6.231   6.566  0.9629  1.5832 -3.2937
  983MOL0     H29704   7.260   6.300   6.725 -4.6323 -1.1573 -0.1618
  983MOL0     H29705   7.417   6.396   6.528 -0.7941  0.5528 -0.7774
  983MOL0     H29706   7.273   6.482   6.477  1.5442  2.4246  1.0649
  983MOL0     H29707   7.393   6.498   6.741 -0.8362  0.8908  1.1080
  983MOL0     H29708   7.256   6.596   6.680  1.6514 -0.6487  1.1326
  983MOL0     H29709   7.610   6.568   6.496 -1.1806 -0.4386 -2.2479
  983MOL0     H29710   7.736   6.870   6.405 -2.5610 -1.5134 -0.3105
  983MOL0     H29711   7.800   6.716   6.473  0.6259 -0.0557  0.2401
  983MOL0     H29712   7.947   6.894   6.547 -0.0486  1.4513  1.3270
  983MOL0     H29713   7.892   6.778   6.667  1.2544 -2.5874 -2.5975
  983MOL0     H29714   7.765   7.046   6.619 -0.6480 -1.9252 -0.3781
  983MOL0     H29715   7.753   6.960   6.773  3.4907  0.3996  2.3157
  983MOL0     H29716   7.900   7.144   6.796  0.3193 -0.7488  0.7398
  983MOL0     H29717   7.996   7.101   6.652 -1.2115  2.1494  0.4744
  983MOL0     H29718   8.175   7.194   6.802  0.7836  0.2301 -1.8750
  983MOL0     H29719   8.404   7.209   6.859 -0.4394  1.8009  0.3453
  983MOL0     H29720   8.723   7.293   7.120  0.5662 -0.6615  2.0173
  983MOL0     H29721   8.967   7.324   7.186 -1.1821 -0.0906  0.9683
  983MOL0     H29722   9.202   7.363   7.111  0.2992  0.1799 -1.3257
  983MOL0     H29723   9.200   7.336   6.941 -0.3860 -1.9198 -0.6989
  983MOL0     H29724   9.405   7.214   6.929 -2.6017 -1.1297 -0.8786
  983MOL0     H29725   9.416   7.206   7.113  0.8628  0.8418 -0.1119
  983MOL0     H29726   9.457   7.443   7.122 -2.2772 -1.9650  0.0343
  983MOL0     H29727   9.448   7.446   6.940  0.8422 -0.3471  0.2249
  983MOL0     H29728   9.648   7.323   7.133  2.8398  2.6758  0.2974
  983MOL0     H29729   9.638   7.280   6.960 -0.6379 -0.1587  0.5280
  983MOL0     H29730   9.684   7.552   7.097  1.5503 -1.3129  2.9131
  983MOL0     H29731   9.677   7.529   6.914 -0.4317  1.1968  1.4463
  983MOL0     H29732   9.867   7.364   6.944  1.1404  0.0814 -1.3232
  983MOL0     H29733   9.866   7.401   7.121 -1.7079 -1.5655 -1.3056
  983MOL0     H29734   9.908   7.609   6.908 -1.8186 -3.2260 -1.1586
  983MOL0     H29735   9.914   7.630   7.079 -1.3089 -0.0377 -1.2334
  983MOL0     H29736  10.145   7.613   6.951 -1.5016  0.1972  2.1128
  983MOL0     H29737  10.099   7.449   6.911 -3.1132 -0.2178  0.3744
  983MOL0     H29738   9.061   7.050   6.870  1.6648 -1.4013  3.1281
  983MOL0     H29739   8.836   7.018   6.811  0.5806  2.1123 -0.5602
  983MOL0     H29740   8.420   6.792   6.941  0.6012  0.3835  3.7477
  983MOL0     H29741   8.170   6.772   6.892 -0.2190  0.5951 -0.7923
  983MOL0     H29742   6.929   6.575   6.807  0.4324  1.7066 -0.9806
  983MOL0     H29743   7.096   6.755   6.835 -0.8133 -0.4646 -0.9410
  983MOL0     H29744   7.409   7.020   7.382  0.1799  0.2855 -0.8643
  983MOL0     H29745   7.645   7.104   7.392 -0.3556  0.4728  0.1427
  983MOL0     H29746   7.880   7.166   7.036 -2.7782  0.4929 -0.2367
  983MOL0     H29747   7.905   6.992   7.071  0.8247  1.9476 -2.7575
  983MOL0     H29748   8.114   7.124   7.075  3.3639  1.8604  2.4344
  983MOL0     H29749   8.049   7.225   7.207  1.9660  0.0675  2.0701
  983MOL0     H29750   8.076   6.936   7.271  1.4653 -0.8913  1.3182
  983MOL0     H29751   8.029   7.070   7.374 -0.6516 -1.2480  0.4704
  983MOL0     H29752   8.255   7.172   7.334  1.3174 -1.0104  2.4179
  983MOL0     H29753   8.225   7.050   7.458 -3.7659 -1.8660  0.7950
  983MOL0     H29754   8.514   6.894   7.195 -0.7725  1.7120 -0.9317
  983MOL0     H29755   7.704   7.029   6.983 -0.0452 -2.2314 -1.1612
  983MOL0     H29756   7.462   6.930   6.959  0.2071 -0.0964  0.1600
  984MOL0     O29757   1.097   0.137   3.989  0.4681  0.0708 -0.2451
  984MOL0     C29758   1.199   0.076   4.024 -0.5476 -0.1438 -0.5409
  984MOL0     O29759   1.220  -0.063   4.025  0.0357 -0.4634  0.4563
  984MOL0     C29760   1.120  -0.156   4.026  0.2497  0.6078  0.6159
  984MOL0     C29761   1.155  -0.286   3.996 -0.3023  0.0517 -0.0691
  984MOL0     C29762   1.063  -0.386   3.995  0.0178 -0.2819  0.0705
  984MOL0     C29763   0.935  -0.371   4.018  0.3530 -0.7093  1.1403
  984MOL0     O29764   0.865  -0.490   4.009  0.7548  0.1516 -0.2758
  984MOL0     C29765   0.724  -0.473   4.011 -0.1417 -0.3872 -0.3228
  984MOL0     C29766   0.657  -0.596   3.975  0.7425  0.8478  0.2303
  984MOL0     C29767   0.502  -0.587   4.013  0.0276  0.8592 -0.2269
  984MOL0     C29768   0.425  -0.719   3.971 -0.4602 -0.0009  0.0236
  984MOL0     C29769   0.280  -0.713   4.008  0.1469 -0.2568  0.2470
  984MOL0     C29770   0.209  -0.847   3.972 -0.1345 -0.1414  0.3347
  984MOL0     C29771   0.064  -0.837   3.992 -1.1252  0.3012  0.1034
  984MOL0     C29772   0.005  -0.974   4.015 -0.7304 -0.0519 -0.1585
  984MOL0     N29773  -0.138  -0.953   4.038  0.2750  0.4127 -0.7261
  984MOL0     C29774  -0.200  -0.974   4.160 -0.5841  0.3808  0.2708
  984MOL0     C29775  -0.328  -0.984   4.130  0.1759 -0.2296 -0.2533
  984MOL0     C29776  -0.449  -1.021   4.219 -0.4407  0.0388  0.5507
  984MOL0     C29777  -0.587  -0.973   4.155 -0.7895  0.5060 -0.0214
  984MOL0     C29778  -0.702  -1.015   4.248  0.1579 -0.9535  0.4272
  984MOL0     C29779  -0.712  -0.917   4.371 -1.4826 -0.0153  0.1103
  984MOL0     O29780  -0.841  -0.910   4.412  0.2669 -0.1743 -0.0437
  984MOL0     C29781  -0.924  -0.826   4.347  0.1448 -1.0420 -0.0002
  984MOL0     C29782  -1.056  -0.860   4.386 -0.2586  0.0700  0.0103
  984MOL0     C29783  -1.168  -0.788   4.348  0.0274  0.1838 -0.1992
  984MOL0     C29784  -1.143  -0.671   4.268 -0.0416 -0.2402 -0.2972
  984MOL0     C29785  -1.259  -0.589   4.234  0.2337  0.0550  0.2188
  984MOL0     O29786  -1.376  -0.617   4.293  0.9700  0.1041 -0.3956
  984MOL0     C29787  -1.484  -0.531   4.296  0.1973  0.0277  0.9951
  984MOL0     C29788  -1.592  -0.594   4.361 -0.4692  0.2633  0.8261
  984MOL0     C29789  -1.714  -0.534   4.378  0.2677  0.0079  0.2704
  984MOL0     C29790  -1.729  -0.405   4.325 -0.3289 -1.4190 -0.4688
  984MOL0     O29791  -1.846  -0.324   4.338  0.8215 -0.3174  0.3635
  984MOL0     C29792  -1.933  -0.346   4.450 -0.5959  0.2915 -0.3610
  984MOL0     C29793  -2.069  -0.269   4.446  0.0787 -0.1008  0.1658
  984MOL0     C29794  -2.163  -0.338   4.352 -0.3651 -0.0248 -0.0456
  984MOL0     C29795  -2.258  -0.233   4.300 -0.1187 -0.5184 -0.4227
  984MOL0     C29796  -2.387  -0.301   4.258  0.6063 -0.2144 -0.2712
  984MOL0     C29797  -2.486  -0.308   4.374  0.0962 -0.4329  0.4578
  984MOL0     C29798  -2.613  -0.388   4.339 -0.1842 -0.1318 -0.1212
  984MOL0     C29799  -2.682  -0.360   4.201  0.0705  0.2659  0.1537
  984MOL0    Cl29800  -2.842  -0.459   4.221  0.2158  0.0443  0.1366
  984MOL0     C29801  -1.628  -0.342   4.258 -1.7046  0.3272  0.1366
  984MOL0     C29802  -1.498  -0.400   4.244  0.5354  0.3449 -0.4748
  984MOL0     O29803  -1.231  -0.514   4.138  0.2574 -0.2349  0.2150
  984MOL0     C29804  -1.014  -0.645   4.227 -0.0035 -0.0983  0.6006
  984MOL0     C29805  -0.899  -0.721   4.262 -0.6008  0.2150 -0.4713
  984MOL0     N29806  -0.348  -0.974   3.990  0.0993  0.0173 -0.5725
  984MOL0     N29807  -0.231  -0.956   3.935 -0.4149  0.6541  0.2596
  984MOL0     C29808   0.893  -0.239   4.054  0.1993  0.0524 -0.8120
  984MOL0     C29809   0.987  -0.136   4.059 -0.1001 -0.8571  0.8209
  984MOL0     C29810   1.311   0.153   4.061  0.5073  0.3014 -0.3428
  984MOL0     C29811   1.298   0.293   4.078 -0.4498  0.4780 -0.5480
  984MOL0     C29812   1.407   0.363   4.114 -0.3987 -0.0395 -0.9631
  984MOL0     C29813   1.537   0.309   4.138 -0.7674  0.1565 -1.0542
  984MOL0     O29814   1.653   0.382   4.170  0.1905  0.5489  0.5423
  984MOL0     C29815   1.627   0.513   4.226  0.1502 -0.4616  0.5215
  984MOL0     C29816   1.741   0.558   4.319 -1.0300  0.2573  0.2948
  984MOL0     C29817   1.886   0.546   4.270 -0.1240  0.7629  1.0118
  984MOL0     C29818   1.903   0.595   4.119 -1.0746  0.4713  0.8715
  984MOL0     C29819   2.045   0.587   4.068  0.1404 -0.5703  0.2831
  984MOL0     C29820   2.153   0.589   4.032 -0.2770 -0.0708 -0.1068
  984MOL0     C29821   1.546   0.172   4.118 -0.2980  0.2065 -0.5599
  984MOL0     C29822   1.439   0.097   4.072  0.2606 -0.3238 -0.2972
  984MOL0     H29823   1.257  -0.313   3.972 -1.3628 -1.9142 -2.8346
  984MOL0     H29824   1.094  -0.489   3.981 -2.8788 -1.4387  1.3553
  984MOL0     H29825   0.694  -0.388   3.950 -1.4910 -1.2184 -0.8684
  984MOL0     H29826   0.690  -0.442   4.110  1.9799 -1.2798  0.7411
  984MOL0     H29827   0.695  -0.688   4.022  1.8974 -0.5565 -3.1224
  984MOL0     H29828   0.669  -0.617   3.868  0.5221  0.3249  0.3048
  984MOL0     H29829   0.461  -0.495   3.971 -0.7513  0.6021 -0.0433
  984MOL0     H29830   0.488  -0.586   4.121  0.6905 -2.0528 -0.0205
  984MOL0     H29831   0.437  -0.727   3.863 -3.1272 -2.7195 -0.2087
  984MOL0     H29832   0.479  -0.804   4.013 -0.7855 -0.0754  0.3013
  984MOL0     H29833   0.238  -0.637   3.942  0.0109 -0.6033 -0.0709
  984MOL0     H29834   0.260  -0.695   4.114 -0.7653  0.8183 -0.0807
  984MOL0     H29835   0.250  -0.932   4.027  1.9921 -0.5402 -1.7088
  984MOL0     H29836   0.236  -0.863   3.867 -1.2228  1.5666 -0.2591
  984MOL0     H29837   0.035  -0.762   4.066  0.5617  1.3119 -0.1956
  984MOL0     H29838   0.025  -0.789   3.902 -3.2972  0.2449  0.9534
  984MOL0     H29839   0.064  -1.020   4.095  1.2268  0.9068 -0.9773
  984MOL0     H29840   0.008  -1.034   3.923  0.8658  1.1041 -0.9116
  984MOL0     H29841  -0.147  -0.991   4.253  1.9493 -2.3179 -1.5133
  984MOL0     H29842  -0.422  -0.986   4.319  4.5291 -0.3970 -0.4025
  984MOL0     H29843  -0.454  -1.130   4.229  1.0872 -0.1053 -0.0281
  984MOL0     H29844  -0.603  -1.031   4.064 -0.1265  1.6935 -0.9061
  984MOL0     H29845  -0.603  -0.869   4.125 -1.6933 -0.1547 -1.9935
  984MOL0     H29846  -0.794  -1.018   4.189 -0.4080 -2.6112  1.3197
  984MOL0     H29847  -0.685  -1.116   4.286  1.5651 -0.3728  1.4444
  984MOL0     H29848  -0.671  -0.817   4.351 -1.9379 -0.1842 -1.8770
  984MOL0     H29849  -0.653  -0.956   4.454 -0.3254  1.1266 -0.1424
  984MOL0     H29850  -1.079  -0.941   4.454  1.0002 -1.2176 -1.0510
  984MOL0     H29851  -1.270  -0.823   4.365  0.1883 -0.6842 -0.9257
  984MOL0     H29852  -1.581  -0.697   4.393  0.0040 -0.6608 -1.9769
  984MOL0     H29853  -1.794  -0.588   4.429  0.5702  1.3583  2.2245
  984MOL0     H29854  -1.888  -0.317   4.545  1.6068  0.0218 -1.2787
  984MOL0     H29855  -1.952  -0.453   4.458  3.3960 -0.5394 -0.0944
  984MOL0     H29856  -2.040  -0.165   4.427  1.5748 -0.7767 -1.6807
  984MOL0     H29857  -2.112  -0.264   4.546 -1.8120 -1.5593 -0.5111
  984MOL0     H29858  -2.208  -0.431   4.389 -0.0762 -0.4564 -0.7583
  984MOL0     H29859  -2.111  -0.374   4.263  0.8519  0.2809  0.5249
  984MOL0     H29860  -2.281  -0.156   4.376 -1.6665 -1.6751  0.3429
  984MOL0     H29861  -2.214  -0.186   4.212 -0.6188  0.5276 -0.1342
  984MOL0     H29862  -2.357  -0.400   4.222  2.3982  0.5271 -0.9232
  984MOL0     H29863  -2.434  -0.239   4.181  1.6526  0.4181 -0.4176
  984MOL0     H29864  -2.515  -0.208   4.407  2.7530  0.5259  0.0470
  984MOL0     H29865  -2.452  -0.353   4.469 -0.4103  1.2945  1.4958
  984MOL0     H29866  -2.595  -0.496   4.332 -0.7588 -0.1572 -1.4142
  984MOL0     H29867  -2.687  -0.375   4.419 -0.2567  3.0969 -0.5823
  984MOL0     H29868  -2.632  -0.417   4.123  0.6833  0.6249  0.2811
  984MOL0     H29869  -2.693  -0.253   4.182  3.0955  0.4270 -1.1345
  984MOL0     H29870  -1.631  -0.239   4.224  1.5060  0.1568 -0.9513
  984MOL0     H29871  -1.417  -0.351   4.191 -0.4113  0.3122 -2.0314
  984MOL0     H29872  -1.000  -0.562   4.158  1.7173  1.0879  2.2886
  984MOL0     H29873  -0.804  -0.725   4.210  0.6381 -1.1750  1.7062
  984MOL0     H29874   0.791  -0.225   4.089  1.4656  1.0138  3.0393
  984MOL0     H29875   0.944  -0.048   4.104  1.9975 -1.7540  5.1263
  984MOL0     H29876   1.209   0.354   4.066 -0.1564  0.9371 -0.4382
  984MOL0     H29877   1.406   0.470   4.132  1.2730 -0.3048  1.1993
  984MOL0     H29878   1.536   0.505   4.285 -0.3678 -1.7729 -0.4099
  984MOL0     H29879   1.614   0.584   4.143 -0.3422 -2.3648 -1.0917
  984MOL0     H29880   1.722   0.659   4.356  0.8865  0.8194 -0.1482
  984MOL0     H29881   1.726   0.499   4.410 -2.1504  0.5017  0.2930
  984MOL0     H29882   1.918   0.441   4.278 -2.0817 -0.0337 -0.7317
  984MOL0     H29883   1.946   0.602   4.342  1.4178  0.2651  0.1627
  984MOL0     H29884   1.851   0.520   4.059  1.3366  0.2580 -1.1061
  984MOL0     H29885   1.876   0.701   4.110  4.0735  1.9354 -1.0918
  984MOL0     H29886   2.256   0.594   4.000 -0.0768  2.2321  0.7770
  984MOL0     H29887   1.641   0.119   4.122 -1.0833 -1.1522  1.6448
  984MOL0     H29888   1.473   0.001   4.035 -0.5138 -0.3191 -1.0534
  985MOL0     O29889   5.257   3.486   8.193 -0.3211  0.4548  0.9350
  985MOL0     C29890   5.216   3.548   8.094 -0.1765  0.0437 -0.8045
  985MOL0     O29891   5.092   3.595   8.080  0.1012  0.0384  0.0922
  985MOL0     C29892   5.004   3.584   8.184 -0.0638  0.3290  0.4067
  985MOL0     C29893   4.887   3.505   8.170 -0.0946  0.6483  0.2235
  985MOL0     C29894   4.784   3.514   8.273 -0.3851 -0.3390  0.7200
  985MOL0     C29895   4.800   3.598   8.382 -0.2440 -0.1332  0.2979
  985MOL0     O29896   4.710   3.584   8.485 -0.1964  0.0902  0.2192
  985MOL0     C29897   4.678   3.700   8.571 -0.4140  0.5169  0.0558
  985MOL0     C29898   4.553   3.677   8.655 -0.7258  0.7358  0.2363
  985MOL0     C29899   4.559   3.546   8.740 -0.6516 -0.2203 -0.4965
  985MOL0     C29900   4.414   3.489   8.756 -1.9017  0.2009  0.4444
  985MOL0     C29901   4.412   3.383   8.868 -0.0914  0.0484  0.6634
  985MOL0     C29902   4.293   3.295   8.849 -0.7818  0.0255 -0.3366
  985MOL0     C29903   4.168   3.366   8.905 -0.6159 -0.4003 -0.3982
  985MOL0     C29904   4.037   3.305   8.878 -0.3467  0.1268 -0.3277
  985MOL0     N29905   3.994   3.327   8.739  0.6808 -1.2049 -0.1308
  985MOL0     C29906   3.929   3.446   8.691  0.0708  0.2993 -0.4189
  985MOL0     C29907   3.902   3.420   8.563 -0.6242 -0.4315  0.2744
  985MOL0     C29908   3.839   3.527   8.471  0.5555  1.0189  0.3699
  985MOL0     C29909   3.692   3.532   8.491  0.7114 -0.3534  0.4599
  985MOL0     C29910   3.631   3.650   8.407  0.0899  0.7317 -0.3620
  985MOL0     C29911   3.483   3.647   8.427  0.5021  0.3325 -0.0229
  985MOL0     O29912   3.440   3.622   8.561  1.1605  0.6007 -0.5326
  985MOL0     C29913   3.303   3.586   8.580  0.7513  0.0288 -0.6676
  985MOL0     C29914   3.257   3.603   8.706 -0.3727  0.3745 -0.3563
  985MOL0     C29915   3.125   3.581   8.746  0.2084 -0.6016  0.3163
  985MOL0     C29916   3.029   3.550   8.651  0.1662  0.3443  1.1672
  985MOL0     C29917   2.880   3.538   8.682 -0.3692  0.2312  0.3663
  985MOL0     O29918   2.796   3.479   8.590 -0.1880 -0.4493  0.0409
  985MOL0     C29919   2.662   3.482   8.617  0.0895  0.3555 -0.2046
  985MOL0     C29920   2.584   3.444   8.503  0.2442  0.2849 -0.2555
  985MOL0     C29921   2.449   3.440   8.502 -0.3504  0.6701 -0.3429
  985MOL0     C29922   2.386   3.472   8.623  0.0694  0.4316 -0.5887
  985MOL0     O29923   2.249   3.473   8.624 -0.7398  0.0309 -0.8032
  985MOL0     C29924   2.199   3.341   8.620  0.4583  0.0313  0.0262
  985MOL0     C29925   2.050   3.345   8.654 -0.6843  0.8339  0.2761
  985MOL0     C29926   1.967   3.355   8.526  0.1185 -0.3454 -0.0054
  985MOL0     C29927   1.969   3.504   8.471  0.0798 -0.4640 -0.4406
  985MOL0     C29928   1.852   3.541   8.380 -0.2021 -0.5978 -0.0435
  985MOL0     C29929   1.869   3.686   8.328 -0.3200 -0.5623  0.2819
  985MOL0     C29930   1.756   3.718   8.232 -0.0133  0.5844 -1.0459
  985MOL0     C29931   1.630   3.721   8.303 -0.2789 -0.5764  0.5226
  985MOL0    Cl29932   1.496   3.780   8.209  0.0673  0.3293  0.0580
  985MOL0     C29933   2.451   3.518   8.739 -0.8131 -0.4177 -0.4309
  985MOL0     C29934   2.591   3.517   8.739  0.2779  0.5838 -0.8522
  985MOL0     O29935   2.857   3.575   8.799  0.2184  0.4481 -0.1728
  985MOL0     C29936   3.073   3.545   8.523  0.2243 -0.1724  0.6582
  985MOL0     C29937   3.211   3.564   8.486 -0.4251  0.3921 -0.7831
  985MOL0     N29938   3.956   3.294   8.534 -0.6897 -1.0365  0.9905
  985MOL0     N29939   4.001   3.236   8.635 -0.1280 -0.9910 -0.3714
  985MOL0     C29940   4.913   3.681   8.384  0.2140  0.0430  0.3880
  985MOL0     C29941   5.016   3.670   8.290  0.1075  0.1107 -0.4098
  985MOL0     C29942   5.311   3.583   7.990 -0.3126 -0.4575  0.1403
  985MOL0     C29943   5.285   3.693   7.909  0.5421  0.2782  0.5118
  985MOL0     C29944   5.388   3.744   7.822  0.1173  0.5429 -0.5051
  985MOL0     C29945   5.508   3.683   7.804 -0.8224 -0.1376 -0.0259
  985MOL0     O29946   5.605   3.715   7.704  0.5438 -0.4166 -0.7608
  985MOL0     C29947   5.572   3.780   7.590 -0.6205 -0.0306  0.2226
  985MOL0     C29948   5.694   3.823   7.521 -0.7869  0.4423  0.2645
  985MOL0     C29949   5.782   3.712   7.467  0.0807  0.2892  0.2218
  985MOL0     C29950   5.869   3.774   7.355 -0.3143 -0.0865 -0.0760
  985MOL0     C29951   5.974   3.683   7.311  0.5179 -0.5952  0.5076
  985MOL0     C29952   6.057   3.602   7.296 -0.0370 -0.0487  0.6838
  985MOL0     C29953   5.537   3.564   7.880 -0.3091 -0.0446  0.0007
  985MOL0     C29954   5.443   3.516   7.969 -0.3756 -0.1388  0.1621
  985MOL0     H29955   4.886   3.430   8.092  1.7872 -1.6001  2.1790
  985MOL0     H29956   4.706   3.439   8.267 -0.0173 -0.6315 -0.7874
  985MOL0     H29957   4.659   3.790   8.511  0.0094  0.4296 -0.2213
  985MOL0     H29958   4.751   3.732   8.646 -1.6743 -0.0108  1.5482
  985MOL0     H29959   4.461   3.677   8.596 -0.4375 -1.2238 -0.2736
  985MOL0     H29960   4.557   3.765   8.720  2.4507  1.5296 -0.8235
  985MOL0     H29961   4.611   3.560   8.836 -0.5055 -2.8401 -0.1172
  985MOL0     H29962   4.613   3.467   8.687  0.2669  0.0336  0.0228
  985MOL0     H29963   4.342   3.570   8.770 -2.2521 -0.3200  1.8780
  985MOL0     H29964   4.400   3.442   8.659 -0.4664 -0.4758  0.5433
  985MOL0     H29965   4.402   3.426   8.967  0.3227 -0.6891  1.0330
  985MOL0     H29966   4.498   3.316   8.859  0.0529  0.3148 -0.0454
  985MOL0     H29967   4.310   3.206   8.910  2.2165 -0.0224 -1.1145
  985MOL0     H29968   4.272   3.259   8.748 -1.0869  1.8731 -0.9641
  985MOL0     H29969   4.181   3.381   9.012  1.9224 -2.3772 -0.3230
  985MOL0     H29970   4.164   3.469   8.868  0.2493  0.6109  2.1101
  985MOL0     H29971   3.958   3.354   8.935 -0.2028  0.4728 -0.4273
  985MOL0     H29972   4.034   3.199   8.907  0.5551  0.2222  0.1446
  985MOL0     H29973   3.906   3.530   8.755 -0.0123  1.0603 -1.4176
  985MOL0     H29974   3.867   3.506   8.368  0.6890 -0.5664  0.7047
  985MOL0     H29975   3.876   3.626   8.500  0.1464  0.9676  1.0929
  985MOL0     H29976   3.668   3.561   8.594  1.3569  3.6394 -0.3302
  985MOL0     H29977   3.647   3.434   8.475 -0.4536 -0.0935  1.9401
  985MOL0     H29978   3.668   3.746   8.445 -0.9031  1.2176 -0.5611
  985MOL0     H29979   3.648   3.635   8.300 -1.9797 -1.8914 -0.4270
  985MOL0     H29980   3.451   3.563   8.364  0.9645  0.2164 -0.1075
  985MOL0     H29981   3.432   3.737   8.390 -0.6066 -0.3877 -0.3117
  985MOL0     H29982   3.326   3.647   8.777 -0.8715  1.8210 -0.7416
  985MOL0     H29983   3.100   3.601   8.849  0.1963  1.7485 -0.0758
  985MOL0     H29984   2.639   3.432   8.410  0.7714 -0.8521  0.1833
  985MOL0     H29985   2.386   3.427   8.415  1.0688 -0.7598 -1.2175
  985MOL0     H29986   2.245   3.275   8.695 -1.0385 -1.7765 -0.5706
  985MOL0     H29987   2.209   3.302   8.518 -0.5645  0.8042 -0.3847
  985MOL0     H29988   2.035   3.425   8.728  2.6719  0.9967  0.9359
  985MOL0     H29989   2.030   3.251   8.708  2.3171  0.3626  0.7848
  985MOL0     H29990   1.863   3.325   8.544 -0.5331  0.7305 -1.6806
  985MOL0     H29991   1.996   3.285   8.447 -0.4253  0.9114 -1.3761
  985MOL0     H29992   1.979   3.568   8.559  2.9693 -3.2569  1.4670
  985MOL0     H29993   2.058   3.509   8.408 -0.2394  0.1520 -0.8627
  985MOL0     H29994   1.760   3.528   8.436  0.3411 -0.9113  0.7984
  985MOL0     H29995   1.858   3.473   8.294  2.1135  0.7736 -1.0664
  985MOL0     H29996   1.962   3.688   8.272 -0.4329 -1.3730  0.0495
  985MOL0     H29997   1.888   3.764   8.402  0.9329  0.2899 -0.8959
  985MOL0     H29998   1.767   3.814   8.181 -0.7823  0.9534 -0.5360
  985MOL0     H29999   1.755   3.635   8.160  0.8751 -1.3536  1.0664
  985MOL0     H30000   1.641   3.794   8.383 -2.0259  0.0712  0.2069
  985MOL0     H30001   1.598   3.619   8.326  0.3824 -1.0047 -0.3625
  985MOL0     H30002   2.380   3.549   8.816 -1.6030  2.3421 -2.1124
  985MOL0     H30003   2.633   3.551   8.833  0.9606  1.0828 -1.3338
  985MOL0     H30004   3.011   3.515   8.439 -0.1845 -2.2498  1.6313
  985MOL0     H30005   3.237   3.555   8.381  3.4331 -2.5785  0.1849
  985MOL0     H30006   4.922   3.753   8.465 -3.0237  2.1917 -0.9544
  985MOL0     H30007   5.106   3.729   8.302 -0.8732  1.7793 -0.9627
  985MOL0     H30008   5.200   3.756   7.936 -0.6360 -1.2502  0.4652
  985MOL0     H30009   5.379   3.836   7.765  0.5393 -0.3823 -2.1371
  985MOL0     H30010   5.527   3.878   7.608  0.5375  0.8701 -1.5747
  985MOL0     H30011   5.515   3.718   7.520 -1.3155  1.5855 -0.7033
  985MOL0     H30012   5.662   3.890   7.441 -0.0792 -0.3459 -0.7045
  985MOL0     H30013   5.751   3.883   7.592 -1.3485 -0.5165  1.5748
  985MOL0     H30014   5.726   3.624   7.435  0.4746  0.3968 -0.8047
  985MOL0     H30015   5.831   3.673   7.557  0.5452  0.6275  0.1218
  985MOL0     H30016   5.804   3.798   7.270  0.7398  1.5381 -0.4598
  985MOL0     H30017   5.914   3.865   7.397 -3.1545  1.0310  0.8296
  985MOL0     H30018   6.142   3.537   7.295  0.4138  0.5184 -0.7012
  985MOL0     H30019   5.625   3.501   7.872 -0.8031 -0.8424  0.6724
  985MOL0     H30020   5.464   3.444   8.048  0.9640  2.4020  2.2885
  986MOL0     O30021   2.523   1.858   2.745 -0.0243  0.1973  0.7896
  986MOL0     C30022   2.526   1.833   2.625 -0.4209  0.0432 -0.6738
  986MOL0     O30023   2.422   1.865   2.538 -0.4451  0.4845  0.5918
  986MOL0     C30024   2.296   1.874   2.580 -0.0851 -0.2447 -0.5821
  986MOL0     C30025   2.189   1.810   2.513 -0.2131  0.1484  0.6460
  986MOL0     C30026   2.056   1.834   2.547 -0.5662 -0.1552  0.1657
  986MOL0     C30027   2.024   1.911   2.654  0.4099 -0.2214  0.3529
  986MOL0     O30028   1.886   1.930   2.670 -0.1364  0.4629  0.5142
  986MOL0     C30029   1.848   2.034   2.754  0.3667  0.1838 -0.6837
  986MOL0     C30030   1.698   2.063   2.764 -0.1462  0.8139  0.9473
  986MOL0     C30031   1.661   2.209   2.801 -0.3722 -0.6272 -0.2211
  986MOL0     C30032   1.508   2.241   2.786 -0.9995  1.2536  0.8623
  986MOL0     C30033   1.422   2.185   2.904 -0.5646  0.5334  0.3612
  986MOL0     C30034   1.348   2.050   2.875  0.6576  0.3388  0.0379
  986MOL0     C30035   1.299   1.977   3.003  0.3289  0.3412 -0.1058
  986MOL0     C30036   1.239   1.834   2.977 -0.0287  0.2527 -0.3823
  986MOL0     N30037   1.123   1.861   2.895  0.0062 -0.1220 -0.1430
  986MOL0     C30038   0.998   1.899   2.938 -1.3184 -0.1965 -1.0161
  986MOL0     C30039   0.918   1.890   2.828 -0.6133  0.8638  0.2499
  986MOL0     C30040   0.764   1.896   2.818  0.1746  1.1859 -0.1762
  986MOL0     C30041   0.713   2.034   2.784  0.1271 -0.5691 -0.3666
  986MOL0     C30042   0.735   2.074   2.639  0.1448  0.9920  0.1217
  986MOL0     C30043   0.657   2.198   2.603  0.7496 -0.1443  0.1494
  986MOL0     O30044   0.680   2.243   2.464  0.3730  0.4434 -0.4320
  986MOL0     C30045   0.577   2.203   2.377 -1.1430 -0.5637  0.8070
  986MOL0     C30046   0.433   2.210   2.404 -0.1844  1.0402 -0.3697
  986MOL0     C30047   0.350   2.167   2.306 -0.0764  0.2198 -0.3031
  986MOL0     C30048   0.393   2.120   2.188  0.0535 -0.3428  0.2071
  986MOL0     C30049   0.292   2.077   2.086 -1.3318 -0.0069 -0.0550
  986MOL0     O30050   0.161   2.063   2.118  0.6093 -0.0618 -0.6849
  986MOL0     C30051   0.079   2.032   2.017  0.8362  0.0930  0.1322
  986MOL0     C30052   0.078   1.896   1.958 -0.3453 -0.6318 -0.2664
  986MOL0     C30053  -0.011   1.870   1.849 -1.2015 -0.1005 -0.2247
  986MOL0     C30054  -0.089   1.970   1.786  0.5970  0.1389 -0.2526
  986MOL0     O30055  -0.161   1.950   1.673  0.0564 -0.0275 -0.0396
  986MOL0     C30056  -0.187   1.822   1.626 -0.2004  0.3454  0.6251
  986MOL0     C30057  -0.301   1.799   1.535  0.2587  0.0922 -0.6266
  986MOL0     C30058  -0.436   1.845   1.601 -0.5835 -0.0639  0.5197
  986MOL0     C30059  -0.554   1.807   1.504 -0.3711 -0.4978 -0.7853
  986MOL0     C30060  -0.669   1.903   1.527 -0.3454 -0.5199  0.4888
  986MOL0     C30061  -0.789   1.857   1.447  0.3684  0.3943 -0.6907
  986MOL0     C30062  -0.918   1.937   1.489 -0.1783  0.1511  0.3105
  986MOL0     C30063  -1.024   1.904   1.388  0.2665  0.7493  0.3435
  986MOL0    Cl30064  -1.053   1.717   1.395  0.1948 -0.0200 -0.0168
  986MOL0     C30065  -0.078   2.105   1.838 -0.0990 -0.3966  0.2015
  986MOL0     C30066   0.004   2.128   1.958  0.5952  1.0707  0.7396
  986MOL0     O30067   0.342   2.062   1.972  0.6591 -0.6545 -0.3928
  986MOL0     C30068   0.529   2.125   2.154 -0.1734  0.5071  0.1787
  986MOL0     C30069   0.620   2.168   2.250 -0.7235 -0.6199 -1.0926
  986MOL0     N30070   1.001   1.847   2.720  0.0276 -0.5165 -0.3789
  986MOL0     N30071   1.120   1.835   2.758 -0.5958  0.4309  0.3425
  986MOL0     C30072   2.131   1.955   2.736  0.8006 -0.6586  0.4750
  986MOL0     C30073   2.261   1.944   2.700 -0.1282  0.8629  0.1127
  986MOL0     C30074   2.649   1.766   2.575 -0.3464 -0.0826 -0.4989
  986MOL0     C30075   2.648   1.696   2.459  0.8519  0.7554  0.9011
  986MOL0     C30076   2.764   1.622   2.421  0.5133  0.2419  0.1316
  986MOL0     C30077   2.886   1.609   2.506  1.1178  0.2155 -0.6225
  986MOL0     O30078   3.002   1.548   2.479  0.3158  0.1315 -0.0169
  986MOL0     C30079   3.008   1.442   2.386  0.3990  0.2498  0.7948
  986MOL0     C30080   3.139   1.354   2.418 -0.5133  0.2512 -0.8211
  986MOL0     C30081   3.268   1.408   2.356 -0.5602 -0.2468  1.7056
  986MOL0     C30082   3.383   1.314   2.374  0.2881 -0.6728 -0.4912
  986MOL0     C30083   3.511   1.369   2.342  0.4996 -0.0367  0.9600
  986MOL0     C30084   3.606   1.428   2.301  0.0921 -0.9807 -0.1839
  986MOL0     C30085   2.878   1.686   2.621 -0.8139  0.1401  0.0212
  986MOL0     C30086   2.769   1.764   2.659  0.5477 -0.0274 -0.9569
  986MOL0     H30087   2.217   1.736   2.439  0.8846  0.7935  0.3979
  986MOL0     H30088   1.987   1.773   2.491 -0.5627  0.7764 -0.8846
  986MOL0     H30089   1.889   2.126   2.711  1.2289  1.1219  1.9570
  986MOL0     H30090   1.879   2.017   2.858 -3.6157 -0.5940  0.5643
  986MOL0     H30091   1.656   1.994   2.837  1.1561 -1.9434 -0.7574
  986MOL0     H30092   1.659   2.031   2.667  0.6276 -1.9935  1.4853
  986MOL0     H30093   1.714   2.284   2.742 -0.0900  1.2985  2.2959
  986MOL0     H30094   1.693   2.231   2.903 -1.3391  0.2219 -0.0739
  986MOL0     H30095   1.500   2.350   2.789 -0.4017  1.3359  0.0303
  986MOL0     H30096   1.464   2.214   2.689 -1.0019  2.4936  0.5116
  986MOL0     H30097   1.349   2.262   2.929 -0.9466  1.2133 -2.5154
  986MOL0     H30098   1.493   2.177   2.988 -0.1768  0.4458  0.0302
  986MOL0     H30099   1.415   1.978   2.827  0.7815 -0.5371  1.4603
  986MOL0     H30100   1.269   2.084   2.806  2.1611  1.1526 -1.3553
  986MOL0     H30101   1.384   1.957   3.070  1.7733 -0.5083 -2.0914
  986MOL0     H30102   1.228   2.039   3.058  1.0019  1.6486 -0.6553
  986MOL0     H30103   1.223   1.791   3.077 -0.5837  1.4841  0.0780
  986MOL0     H30104   1.311   1.774   2.921  0.5466  1.2243 -0.7105
  986MOL0     H30105   0.976   1.932   3.039  1.6715 -2.1216  0.4220
  986MOL0     H30106   0.724   1.877   2.918 -2.3708  0.3738 -1.2669
  986MOL0     H30107   0.720   1.824   2.749 -1.8597  1.5528  0.6614
  986MOL0     H30108   0.768   2.105   2.846 -0.3832  0.9523 -1.6065
  986MOL0     H30109   0.607   2.047   2.807 -0.2170 -1.9514 -1.0611
  986MOL0     H30110   0.843   2.093   2.636  0.3852 -0.3038  0.1501
  986MOL0     H30111   0.694   1.993   2.579  0.0874  1.1925 -0.1134
  986MOL0     H30112   0.673   2.284   2.669  0.5142 -0.5696  0.7678
  986MOL0     H30113   0.553   2.168   2.615  0.0888  2.1369  0.5954
  986MOL0     H30114   0.392   2.253   2.495  1.3942  1.1157  0.3409
  986MOL0     H30115   0.243   2.170   2.327  0.2553  2.5872  1.6170
  986MOL0     H30116   0.138   1.818   2.005 -0.0102  1.6936  3.5521
  986MOL0     H30117  -0.020   1.768   1.811 -2.3169 -0.3908  0.7931
  986MOL0     H30118  -0.201   1.745   1.703 -0.3085 -2.4329 -1.9523
  986MOL0     H30119  -0.093   1.783   1.586  0.1403  0.6801  1.0867
  986MOL0     H30120  -0.302   1.698   1.493 -2.3636 -0.2990  0.1484
  986MOL0     H30121  -0.295   1.868   1.451  0.0800  2.6190  1.2833
  986MOL0     H30122  -0.433   1.954   1.610 -1.5244 -0.1374  1.9372
  986MOL0     H30123  -0.447   1.793   1.696 -0.2356 -0.7656  0.1908
  986MOL0     H30124  -0.528   1.820   1.399 -1.5456 -2.8191 -1.4394
  986MOL0     H30125  -0.589   1.705   1.520 -1.9161  0.2224  0.8873
  986MOL0     H30126  -0.642   2.006   1.501  0.1792 -1.0651 -1.2816
  986MOL0     H30127  -0.697   1.909   1.633 -0.2908  0.5058  0.4544
  986MOL0     H30128  -0.816   1.758   1.484  2.0685 -0.1866 -0.9540
  986MOL0     H30129  -0.770   1.854   1.339 -1.3737  0.4756 -1.0351
  986MOL0     H30130  -0.952   1.907   1.588  2.7710  1.2941  1.8039
  986MOL0     H30131  -0.907   2.045   1.478 -2.3314  0.2466 -1.5171
  986MOL0     H30132  -0.984   1.926   1.288 -1.6904 -0.5463 -0.8166
  986MOL0     H30133  -1.117   1.954   1.413  0.0707 -0.1628  1.5121
  986MOL0     H30134  -0.135   2.185   1.791  0.1505 -0.0370  0.4978
  986MOL0     H30135   0.011   2.223   2.010 -0.1495  0.2644  2.3888
  986MOL0     H30136   0.563   2.092   2.056 -2.8303 -1.3147 -0.2543
  986MOL0     H30137   0.727   2.166   2.230 -0.4867  1.0406 -0.2118
  986MOL0     H30138   2.100   2.013   2.823  0.4770  1.4884 -0.9999
  986MOL0     H30139   2.328   1.988   2.774  0.4648 -0.8602  0.6354
  986MOL0     H30140   2.568   1.698   2.385  1.1297  2.5482  0.6084
  986MOL0     H30141   2.753   1.584   2.321  1.2489  0.6005 -0.0952
  986MOL0     H30142   3.002   1.472   2.281  2.2159 -1.2029  0.2271
  986MOL0     H30143   2.928   1.369   2.400 -0.3410  1.2518  2.0912
  986MOL0     H30144   3.142   1.337   2.526 -1.3226  0.6138 -0.7375
  986MOL0     H30145   3.124   1.257   2.369 -0.3846 -1.1913  1.8045
  986MOL0     H30146   3.289   1.499   2.414  1.0908  0.2281  0.4382
  986MOL0     H30147   3.242   1.429   2.252  0.9532 -3.9629  0.3977
  986MOL0     H30148   3.394   1.290   2.481 -0.9368 -0.5720 -0.3236
  986MOL0     H30149   3.360   1.225   2.314 -0.9009  1.5441 -3.5717
  986MOL0     H30150   3.694   1.480   2.271  0.8044 -0.6331  2.3278
  986MOL0     H30151   2.970   1.694   2.678 -1.3689  1.3027  0.7812
  986MOL0     H30152   2.773   1.832   2.743  0.9961  0.0945 -1.0715
  987MOL0     O30153   5.653   7.659   8.507  0.5249 -0.2748  0.4251
  987MOL0     C30154   5.686   7.605   8.401 -0.5951  0.0701  0.5177
  987MOL0     O30155   5.601   7.563   8.302 -0.1754  0.3615 -0.4182
  987MOL0     C30156   5.463   7.580   8.315  0.0379 -0.3476 -0.0523
  987MOL0     C30157   5.378   7.470   8.327 -0.6370 -0.3158 -0.1086
  987MOL0     C30158   5.236   7.466   8.338 -1.1096  0.4727  0.8564
  987MOL0     C30159   5.171   7.591   8.325 -0.5504 -0.5411 -0.3821
  987MOL0     O30160   5.031   7.608   8.330  0.0596  0.6085 -0.2290
  987MOL0     C30161   4.947   7.495   8.318 -0.3882  0.1959  0.0725
  987MOL0     C30162   4.814   7.561   8.281 -1.3600  0.4596 -0.0387
  987MOL0     C30163   4.708   7.469   8.330 -0.3974 -0.2743  0.2042
  987MOL0     C30164   4.575   7.539   8.301  0.4915  0.3916  0.0194
  987MOL0     C30165   4.458   7.442   8.315 -0.5178  0.3232  0.3315
  987MOL0     C30166   4.319   7.506   8.348 -0.3428 -0.2121 -0.7108
  987MOL0     C30167   4.275   7.599   8.231 -0.1178 -0.3548  0.2424
  987MOL0     C30168   4.193   7.722   8.274  0.1998  0.4434 -0.5066
  987MOL0     N30169   4.054   7.699   8.307  0.0388  0.6231 -0.1299
  987MOL0     C30170   3.955   7.794   8.339 -0.3790  0.1878  0.4677
  987MOL0     C30171   3.846   7.725   8.342  0.8397  0.0295  0.1755
  987MOL0     C30172   3.715   7.798   8.361 -0.4539  0.0380 -0.2545
  987MOL0     C30173   3.601   7.743   8.269  0.3919 -1.2032  0.1920
  987MOL0     C30174   3.465   7.804   8.289  0.5740 -0.5260 -0.2819
  987MOL0     C30175   3.372   7.804   8.173 -0.0642  0.1893  0.1540
  987MOL0     O30176   3.271   7.902   8.177 -0.3622 -0.3172 -0.3446
  987MOL0     C30177   3.150   7.888   8.245 -0.1997 -0.7105  0.4322
  987MOL0     C30178   3.065   8.000   8.240 -0.0425 -0.4601  0.2531
  987MOL0     C30179   2.942   7.999   8.306  0.7108 -0.0745  0.5204
  987MOL0     C30180   2.906   7.885   8.381 -0.1771  0.7061  0.0350
  987MOL0     C30181   2.772   7.873   8.445  0.9645  0.4479  0.5372
  987MOL0     O30182   2.669   7.943   8.385  0.0062  0.2609 -0.0642
  987MOL0     C30183   2.542   7.941   8.440  0.3565 -0.4946 -0.8446
  987MOL0     C30184   2.491   7.884   8.566 -0.0337 -0.4112  0.4678
  987MOL0     C30185   2.359   7.902   8.593  0.3944  0.0855  0.2425
  987MOL0     C30186   2.265   7.951   8.507  0.8026  0.2017 -0.6752
  987MOL0     O30187   2.129   7.922   8.540 -0.5700 -0.2843  0.6753
  987MOL0     C30188   2.026   7.969   8.445  0.1206  0.0608 -0.1640
  987MOL0     C30189   1.889   7.918   8.494  0.3744 -0.4017 -0.2416
  987MOL0     C30190   1.775   7.990   8.421 -0.2577  0.4201 -0.1635
  987MOL0     C30191   1.640   7.943   8.462 -0.0539 -0.1254 -0.5676
  987MOL0     C30192   1.615   7.937   8.612 -0.1803 -1.1727  0.6553
  987MOL0     C30193   1.472   7.899   8.662  0.5084 -0.3155 -0.3397
  987MOL0     C30194   1.411   7.793   8.568  0.0803  0.8098  0.5748
  987MOL0     C30195   1.278   7.747   8.638 -0.0033 -0.9536 -0.5944
  987MOL0    Cl30196   1.175   7.889   8.674 -0.1589  0.4018 -0.4750
  987MOL0     C30197   2.311   8.005   8.385 -0.6625  0.6446 -0.5576
  987MOL0     C30198   2.452   8.003   8.355  0.3717 -0.3902 -0.3480
  987MOL0     O30199   2.761   7.789   8.533 -0.5482 -0.1244  0.3086
  987MOL0     C30200   3.003   7.783   8.397  0.4097  0.0225  0.0165
  987MOL0     C30201   3.129   7.788   8.340  0.4229 -0.5869  0.4198
  987MOL0     N30202   3.863   7.593   8.303  0.4360  0.0402  0.0614
  987MOL0     N30203   3.992   7.579   8.295  0.1235 -0.1068 -1.0520
  987MOL0     C30204   5.253   7.698   8.314  0.4003 -0.5505  0.0605
  987MOL0     C30205   5.394   7.699   8.300  0.1005 -0.2760  0.0686
  987MOL0     C30206   5.829   7.580   8.378 -0.0896 -0.5504 -0.7805
  987MOL0     C30207   5.924   7.596   8.483 -0.2444 -0.8455  0.2806
  987MOL0     C30208   6.056   7.558   8.468  0.1495 -0.8344  0.7289
  987MOL0     C30209   6.097   7.506   8.345 -0.5392  0.6009  0.3105
  987MOL0     O30210   6.227   7.475   8.313 -0.2563 -0.0866  0.2553
  987MOL0     C30211   6.323   7.458   8.422 -0.3647 -0.0709  1.1797
  987MOL0     C30212   6.300   7.317   8.483  0.0134  0.0271 -0.6187
  987MOL0     C30213   6.419   7.279   8.575  0.8087 -1.0622  0.2699
  987MOL0     C30214   6.435   7.136   8.616  0.6188  0.1211 -0.0518
  987MOL0     C30215   6.323   7.085   8.699 -0.0438 -1.1234 -0.5375
  987MOL0     C30216   6.240   7.041   8.772 -0.1066  0.2241  0.0982
  987MOL0     C30217   6.002   7.497   8.233 -0.7745 -0.7644  0.1050
  987MOL0     C30218   5.870   7.525   8.258 -0.0755 -0.0422 -0.4460
  987MOL0     H30219   5.435   7.378   8.329  0.6302  0.3546 -2.3614
  987MOL0     H30220   5.178   7.374   8.343 -0.1266 -0.0870  4.0328
  987MOL0     H30221   4.934   7.432   8.406 -0.8219 -0.2101 -0.2765
  987MOL0     H30222   4.978   7.437   8.230 -2.6125  1.3952 -1.6200
  987MOL0     H30223   4.815   7.583   8.174  3.1452  1.4436  0.0252
  987MOL0     H30224   4.817   7.662   8.325  0.5050  1.3514 -2.0207
  987MOL0     H30225   4.723   7.450   8.437  0.9538 -0.4804  0.0054
  987MOL0     H30226   4.714   7.374   8.276  2.7558 -0.4880  0.7275
  987MOL0     H30227   4.566   7.624   8.369 -1.1495  1.2105 -1.1596
  987MOL0     H30228   4.579   7.582   8.201 -0.5983  0.1696 -0.1247
  987MOL0     H30229   4.476   7.378   8.403  1.0485  0.2389 -0.0304
  987MOL0     H30230   4.445   7.377   8.228 -1.9604  1.0022  0.0055
  987MOL0     H30231   4.335   7.573   8.434 -0.9334 -1.5391  0.4572
  987MOL0     H30232   4.253   7.425   8.378 -1.0335  1.6001  3.2729
  987MOL0     H30233   4.373   7.631   8.192 -0.2505 -1.4818 -1.1038
  987MOL0     H30234   4.215   7.549   8.155  0.4208  0.0451 -0.4588
  987MOL0     H30235   4.190   7.787   8.186 -1.3104  0.1064 -0.7241
  987MOL0     H30236   4.247   7.782   8.349  0.5149  0.6247 -0.8762
  987MOL0     H30237   3.968   7.897   8.372 -1.7868 -0.2156  2.4645
  987MOL0     H30238   3.731   7.906   8.345 -0.7001  0.0131 -0.6979
  987MOL0     H30239   3.690   7.781   8.466 -1.0095  4.3850  0.5108
  987MOL0     H30240   3.593   7.638   8.299 -2.1707 -1.0430  0.2357
  987MOL0     H30241   3.617   7.749   8.161 -0.6644  0.3493  0.0935
  987MOL0     H30242   3.413   7.748   8.367  0.3302  0.2655  0.1318
  987MOL0     H30243   3.482   7.905   8.328  0.4624 -0.8165  0.5262
  987MOL0     H30244   3.323   7.709   8.150 -1.7143  1.1246 -0.3577
  987MOL0     H30245   3.435   7.826   8.086 -1.1414  0.5425 -0.5482
  987MOL0     H30246   3.089   8.085   8.176 -2.7647  0.6499  0.5720
  987MOL0     H30247   2.887   8.092   8.299  0.6617 -0.0135  1.6229
  987MOL0     H30248   2.549   7.833   8.642  1.7143 -0.3598 -0.7618
  987MOL0     H30249   2.334   7.854   8.687 -3.4482  0.1617 -0.5928
  987MOL0     H30250   2.041   7.949   8.338  1.1694  1.0999 -0.2256
  987MOL0     H30251   2.019   8.077   8.463 -1.8833 -0.1641  0.7553
  987MOL0     H30252   1.879   7.940   8.601 -1.0524  1.4385 -0.6987
  987MOL0     H30253   1.872   7.811   8.485 -1.4554 -0.4251  2.3005
  987MOL0     H30254   1.787   7.980   8.312 -2.5002  3.7793 -0.8535
  987MOL0     H30255   1.783   8.098   8.433 -1.6666  0.3012  2.5912
  987MOL0     H30256   1.569   8.012   8.417  0.5644  0.7521 -0.2298
  987MOL0     H30257   1.613   7.841   8.431  1.1653 -1.2659  1.8040
  987MOL0     H30258   1.639   8.031   8.662  3.6183 -1.3290 -0.5550
  987MOL0     H30259   1.682   7.863   8.656  1.5804 -0.2902 -0.4224
  987MOL0     H30260   1.415   7.992   8.653  0.8780 -0.0530  0.0683
  987MOL0     H30261   1.471   7.865   8.766  0.3197 -1.9406 -0.8366
  987MOL0     H30262   1.395   7.827   8.466 -0.4010 -0.4595  0.2204
  987MOL0     H30263   1.475   7.704   8.563  0.0660  0.8686 -0.9380
  987MOL0     H30264   1.306   7.690   8.727  2.0231  1.2640  0.3200
  987MOL0     H30265   1.220   7.687   8.568 -0.5544 -1.2256  0.0854
  987MOL0     H30266   2.245   8.051   8.312 -1.0564  1.6021  0.3849
  987MOL0     H30267   2.472   8.062   8.265 -1.9780 -0.3259 -0.9148
  987MOL0     H30268   2.977   7.704   8.466  1.2832 -3.3265 -3.1778
  987MOL0     H30269   3.191   7.702   8.363 -1.3179 -1.9517  0.3087
  987MOL0     H30270   5.202   7.793   8.310  1.4567 -0.0038 -3.0619
  987MOL0     H30271   5.453   7.790   8.290  0.5398 -0.6797 -1.1463
  987MOL0     H30272   5.896   7.627   8.584  1.8158  2.4508 -0.0157
  987MOL0     H30273   6.123   7.556   8.553  0.6486 -1.5611  0.3341
  987MOL0     H30274   6.311   7.535   8.498  1.5514 -1.5757  3.1117
  987MOL0     H30275   6.424   7.469   8.381 -0.1138 -1.2356  1.4471
  987MOL0     H30276   6.203   7.314   8.534  0.1106  0.7661 -0.3738
  987MOL0     H30277   6.306   7.252   8.395 -1.1304  1.4078 -1.7640
  987MOL0     H30278   6.420   7.344   8.663  0.3806 -2.0115  0.9931
  987MOL0     H30279   6.507   7.309   8.518 -1.2147 -0.0782 -2.5939
  987MOL0     H30280   6.440   7.076   8.524 -0.8030  0.6107 -0.4736
  987MOL0     H30281   6.523   7.129   8.680  0.1670 -0.9383  0.4666
  987MOL0     H30282   6.174   6.991   8.839  0.5418 -2.9158 -1.4388
  987MOL0     H30283   6.029   7.451   8.138  0.5853 -2.1879  1.1110
  987MOL0     H30284   5.800   7.521   8.175  1.1592  2.1788 -1.6938
  988MOL0     O30285   5.097   0.957   2.216  0.0476 -0.2862 -0.1537
  988MOL0     C30286   5.180   0.869   2.226  0.6438 -0.5218  0.8610
  988MOL0     O30287   5.141   0.745   2.261 -0.0085  0.5863 -0.3028
  988MOL0     C30288   5.016   0.738   2.317 -0.5536 -0.4212  0.6282
  988MOL0     C30289   4.998   0.735   2.459 -0.5028 -0.4605  0.1823
  988MOL0     C30290   4.869   0.738   2.506 -0.2594  0.1640 -0.4486
  988MOL0     C30291   4.754   0.731   2.420  0.6379 -0.3763 -0.2401
  988MOL0     O30292   4.628   0.732   2.477 -0.0988 -0.4717  0.3496
  988MOL0     C30293   4.517   0.788   2.405 -0.5134 -0.5664  0.5259
  988MOL0     C30294   4.457   0.902   2.488  0.3026  1.0603 -0.1125
  988MOL0     C30295   4.302   0.913   2.457 -0.2718  0.2015  0.3682
  988MOL0     C30296   4.240   1.036   2.521  0.5400 -0.0585  0.9697
  988MOL0     C30297   4.091   1.059   2.485 -0.7745  0.1153  1.2177
  988MOL0     C30298   4.035   1.179   2.559  0.0266  0.3053 -0.0747
  988MOL0     C30299   3.893   1.219   2.521  0.0721  0.1017 -0.3069
  988MOL0     C30300   3.784   1.116   2.561 -0.1740 -0.2053  0.4213
  988MOL0     N30301   3.812   1.046   2.687 -0.1203  0.1307 -0.4512
  988MOL0     C30302   3.824   1.104   2.809 -0.3192 -0.5052  0.5738
  988MOL0     C30303   3.841   1.002   2.892 -0.2610  0.9868 -0.0082
  988MOL0     C30304   3.853   1.014   3.041  0.3645 -0.4291  0.2542
  988MOL0     C30305   3.717   1.046   3.106  0.1419 -0.2032  0.8059
  988MOL0     C30306   3.739   1.095   3.254 -0.5510 -0.1552 -0.9231
  988MOL0     C30307   3.610   1.136   3.316 -0.6548 -0.6845 -0.4203
  988MOL0     O30308   3.634   1.204   3.444  0.2631 -0.5507 -0.2909
  988MOL0     C30309   3.527   1.246   3.514  0.0972  0.6330  0.1018
  988MOL0     C30310   3.559   1.298   3.636  0.3000 -0.3440 -1.1194
  988MOL0     C30311   3.466   1.356   3.728 -0.0372  0.8398  0.3447
  988MOL0     C30312   3.331   1.361   3.686 -0.3586  0.2103 -0.2144
  988MOL0     C30313   3.224   1.413   3.769  0.2478  0.5377  0.2245
  988MOL0     O30314   3.100   1.407   3.710  0.4782 -0.3150  0.8122
  988MOL0     C30315   3.001   1.466   3.779 -0.1550 -1.1952  0.0316
  988MOL0     C30316   2.983   1.606   3.778 -0.2852 -0.3734 -0.5921
  988MOL0     C30317   2.867   1.661   3.839 -0.2993  0.7011 -0.2358
  988MOL0     C30318   2.768   1.577   3.900  0.8671 -0.6443  0.7603
  988MOL0     O30319   2.654   1.621   3.973 -0.3913 -0.5809 -0.0864
  988MOL0     C30320   2.639   1.764   3.982  0.3071  0.1422 -0.7681
  988MOL0     C30321   2.512   1.796   4.066  0.0685  0.0447 -0.2536
  988MOL0     C30322   2.378   1.767   4.004 -0.3938 -0.1198  0.2633
  988MOL0     C30323   2.262   1.828   4.086 -1.1311 -0.0746  0.1559
  988MOL0     C30324   2.130   1.795   4.026 -0.4758 -0.6739  0.4992
  988MOL0     C30325   2.088   1.869   3.896 -0.2672 -0.2921  0.2251
  988MOL0     C30326   1.940   1.863   3.866  0.3168  0.0576  0.4670
  988MOL0     C30327   1.902   1.918   3.723  0.1580  0.1835 -0.4589
  988MOL0    Cl30328   1.975   1.809   3.591 -0.0309 -0.0626 -0.1893
  988MOL0     C30329   2.796   1.440   3.905  0.1895 -0.4544  0.0516
  988MOL0     C30330   2.908   1.385   3.848 -0.3474 -0.1983 -0.3179
  988MOL0     O30331   3.249   1.477   3.874  0.0494  0.3543 -0.0994
  988MOL0     C30332   3.303   1.312   3.555  0.9721  0.1582  0.2182
  988MOL0     C30333   3.396   1.253   3.469 -0.1139 -0.2515 -0.3813
  988MOL0     N30334   3.847   0.887   2.816 -0.3370 -0.0741 -0.9348
  988MOL0     N30335   3.819   0.908   2.694  0.2422 -0.5669  0.7984
  988MOL0     C30336   4.777   0.735   2.283  0.2742 -0.0090  0.7035
  988MOL0     C30337   4.909   0.735   2.228  0.2116  0.1858 -0.2049
  988MOL0     C30338   5.322   0.902   2.205 -0.3895 -0.2232 -1.1979
  988MOL0     C30339   5.379   1.023   2.234 -0.4795  0.0762 -0.1473
  988MOL0     C30340   5.520   1.040   2.209  0.0800 -0.7346  0.3606
  988MOL0     C30341   5.604   0.931   2.175 -0.2306  0.4941 -0.0688
  988MOL0     O30342   5.741   0.943   2.156 -0.0220  0.9185  0.3944
  988MOL0     C30343   5.811   1.067   2.178 -0.0774 -0.2818 -0.0617
  988MOL0     C30344   5.958   1.038   2.161  0.7743  0.5355  0.0704
  988MOL0     C30345   6.039   1.164   2.171 -0.5039  0.4197 -0.1671
  988MOL0     C30346   6.183   1.121   2.142  0.3540  0.1507  0.5001
  988MOL0     C30347   6.264   1.235   2.172 -0.0991 -0.2150  0.2964
  988MOL0     C30348   6.329   1.321   2.220 -0.9054  0.1739  0.3407
  988MOL0     C30349   5.544   0.805   2.155 -0.1673 -0.0286  0.0349
  988MOL0     C30350   5.411   0.792   2.175  0.4402  0.0139 -0.3380
  988MOL0     H30351   5.080   0.720   2.529 -0.7568 -3.2544 -0.0077
  988MOL0     H30352   4.839   0.748   2.609 -0.3126  0.1544 -0.4628
  988MOL0     H30353   4.446   0.708   2.386  0.5248 -0.9933 -1.8216
  988MOL0     H30354   4.539   0.832   2.308 -0.9423 -0.9731  0.2398
  988MOL0     H30355   4.503   0.996   2.457 -0.0899  1.0211 -0.8310
  988MOL0     H30356   4.479   0.885   2.594 -1.7065 -0.7238  0.0772
  988MOL0     H30357   4.249   0.827   2.499  1.4292 -0.3310  1.5328
  988MOL0     H30358   4.282   0.923   2.350 -0.5408 -1.2116  0.2641
  988MOL0     H30359   4.238   1.016   2.629  2.2306  1.1100  1.2586
  988MOL0     H30360   4.304   1.123   2.506 -1.4160  1.0179 -1.8701
  988MOL0     H30361   4.026   0.971   2.483 -1.7011  0.7480 -1.6394
  988MOL0     H30362   4.093   1.084   2.378 -1.2375  2.5650  1.7337
  988MOL0     H30363   4.103   1.263   2.543 -0.1887  0.5200  0.1157
  988MOL0     H30364   4.031   1.157   2.666 -0.9004  3.3494  0.6267
  988MOL0     H30365   3.864   1.314   2.567  2.9184  1.4354 -1.0279
  988MOL0     H30366   3.896   1.228   2.412 -0.8686 -0.1389 -0.3629
  988MOL0     H30367   3.770   1.040   2.484 -0.1439 -0.6163  0.8178
  988MOL0     H30368   3.690   1.169   2.581 -0.3554 -0.6156  0.6748
  988MOL0     H30369   3.801   1.206   2.836  4.6658  0.9613  0.1168
  988MOL0     H30370   3.912   1.102   3.067 -2.7246  1.9333 -0.1969
  988MOL0     H30371   3.899   0.922   3.077 -0.9516 -0.9066  0.7731
  988MOL0     H30372   3.652   0.958   3.107 -0.4481  0.1950 -0.2412
  988MOL0     H30373   3.667   1.125   3.048 -0.2566 -2.1283 -1.6741
  988MOL0     H30374   3.788   1.017   3.314 -4.4327 -1.5731  0.7951
  988MOL0     H30375   3.803   1.183   3.257  0.3530 -0.7811 -1.4706
  988MOL0     H30376   3.544   1.050   3.327 -2.3464 -0.2851 -5.0417
  988MOL0     H30377   3.557   1.205   3.249 -0.3366  1.2972  1.2521
  988MOL0     H30378   3.665   1.305   3.659 -0.3836  3.8428  2.1989
  988MOL0     H30379   3.512   1.409   3.811  2.3969 -0.4071 -0.1183
  988MOL0     H30380   3.051   1.678   3.735  0.0161 -0.3423 -0.0717
  988MOL0     H30381   2.847   1.768   3.838 -1.3763  0.5205  0.0901
  988MOL0     H30382   2.625   1.807   3.882 -2.5755 -0.0774 -0.5534
  988MOL0     H30383   2.730   1.811   4.021  0.4971 -0.0352 -1.0011
  988MOL0     H30384   2.522   1.903   4.085  0.9022  0.2552 -1.7010
  988MOL0     H30385   2.521   1.758   4.169  0.9471  0.1761 -0.2736
  988MOL0     H30386   2.366   1.660   3.985 -2.2314 -0.0149  0.6313
  988MOL0     H30387   2.382   1.820   3.908 -1.7652 -0.4562  0.0025
  988MOL0     H30388   2.275   1.792   4.189 -0.6144  0.0811  0.1525
  988MOL0     H30389   2.284   1.935   4.097  2.3711 -0.7976  1.7565
  988MOL0     H30390   2.058   1.826   4.102 -2.1995 -0.0307 -1.3216
  988MOL0     H30391   2.121   1.688   4.003  3.3451 -0.9348 -0.3779
  988MOL0     H30392   2.150   1.841   3.810  1.4229  0.1979  1.2457
  988MOL0     H30393   2.112   1.974   3.911  1.1313 -0.0813 -2.7589
  988MOL0     H30394   1.902   1.761   3.879  0.1447  0.0905  0.2211
  988MOL0     H30395   1.888   1.931   3.934 -2.5454 -0.0108 -1.4828
  988MOL0     H30396   1.928   2.024   3.714 -0.2497  0.3334  0.0392
  988MOL0     H30397   1.794   1.906   3.710  0.3762 -1.1065 -1.2405
  988MOL0     H30398   2.722   1.372   3.946  0.0488  0.7554  1.9268
  988MOL0     H30399   2.923   1.278   3.858  0.6336  0.0156  0.5775
  988MOL0     H30400   3.203   1.320   3.512  1.2200 -0.1077 -0.4230
  988MOL0     H30401   3.349   1.208   3.382  1.4409 -0.4887 -1.1340
  988MOL0     H30402   4.690   0.734   2.217 -0.8908  2.7803  2.0339
  988MOL0     H30403   4.921   0.747   2.121  1.6293  1.6549  0.0691
  988MOL0     H30404   5.317   1.108   2.261  1.7672  2.1780 -1.2029
  988MOL0     H30405   5.568   1.138   2.210  2.9564 -2.0222  0.7906
  988MOL0     H30406   5.790   1.118   2.272  2.7159  1.4501 -0.2625
  988MOL0     H30407   5.785   1.130   2.092  2.0584  1.0066  0.1592
  988MOL0     H30408   5.989   0.979   2.247  3.3459  1.8240  0.1372
  988MOL0     H30409   5.975   0.973   2.075 -1.8778 -1.5928  1.0272
  988MOL0     H30410   6.028   1.206   2.271 -0.8580  0.6588 -0.3046
  988MOL0     H30411   6.003   1.239   2.101 -1.2759  0.0369 -0.1886
  988MOL0     H30412   6.212   1.042   2.211  0.4100  0.8331  1.2841
  988MOL0     H30413   6.197   1.093   2.037  0.4364  3.1900 -0.4016
  988MOL0     H30414   6.383   1.409   2.250 -1.0948  0.9790 -1.5256
  988MOL0     H30415   5.601   0.717   2.126 -1.1744 -0.4436 -0.7628
  988MOL0     H30416   5.371   0.692   2.166  0.9352 -0.1848 -0.3479
  989MOL0     O30417   3.626   7.910  10.135 -0.6595 -0.4592  0.1696
  989MOL0     C30418   3.625   7.992  10.228  0.6661 -0.3844 -0.0848
  989MOL0     O30419   3.731   8.049  10.286  0.3084 -0.2390  0.5064
  989MOL0     C30420   3.849   8.012  10.245 -0.4362  0.5711  0.5330
  989MOL0     C30421   3.898   8.046  10.113 -1.1468 -0.7849  0.3365
  989MOL0     C30422   4.021   7.991  10.072  0.5557  0.4583 -0.1502
  989MOL0     C30423   4.101   7.912  10.156  0.5209  0.1744 -0.6123
  989MOL0     O30424   4.220   7.864  10.115 -0.0045  0.3173  0.7213
  989MOL0     C30425   4.220   7.743  10.036  0.6572 -0.3240  0.3277
  989MOL0     C30426   4.343   7.744   9.942  0.3216  0.3961  0.8212
  989MOL0     C30427   4.474   7.800   9.992 -0.6038  0.3465 -0.2293
  989MOL0     C30428   4.586   7.778   9.890 -0.2065 -0.6403 -0.4447
  989MOL0     C30429   4.723   7.837   9.926 -0.4545 -0.3773  0.0964
  989MOL0     C30430   4.791   7.767  10.043 -0.1568  0.4617 -0.5384
  989MOL0     C30431   4.916   7.832  10.108 -0.0949 -0.1241  0.5827
  989MOL0     C30432   4.907   7.977  10.156  0.1595  0.5085  0.0223
  989MOL0     N30433   4.792   7.977  10.249  0.2754  0.2882  0.3727
  989MOL0     C30434   4.670   8.028  10.221  0.7323 -0.0159 -0.6066
  989MOL0     C30435   4.591   7.996  10.320  0.0280 -0.2235 -0.1137
  989MOL0     C30436   4.443   8.034  10.323  0.6881 -0.3644  0.3926
  989MOL0     C30437   4.420   8.173  10.391  0.1447  0.4322  0.1079
  989MOL0     C30438   4.413   8.295  10.290 -0.0281  1.3745  0.8209
  989MOL0     C30439   4.275   8.306  10.224  0.7130  0.1928 -0.7725
  989MOL0     O30440   4.166   8.326  10.321 -0.2148 -0.8537  0.2058
  989MOL0     C30441   4.044   8.347  10.266  0.7371  0.9461  0.7697
  989MOL0     C30442   4.018   8.346  10.129  0.2301 -0.1072  0.3869
  989MOL0     C30443   3.898   8.380  10.083  0.2023  0.6562  0.0056
  989MOL0     C30444   3.795   8.403  10.174  0.8750 -0.6333  0.7231
  989MOL0     C30445   3.653   8.426  10.126  0.2404 -0.5264 -0.4382
  989MOL0     O30446   3.557   8.436  10.220  0.3347  0.0903 -0.5499
  989MOL0     C30447   3.426   8.461  10.173 -0.0597 -0.4806  0.0833
  989MOL0     C30448   3.366   8.585  10.203 -0.2380 -0.4188  0.2685
  989MOL0     C30449   3.229   8.602  10.176 -0.6378 -0.2562 -0.6015
  989MOL0     C30450   3.153   8.498  10.125  0.0772 -1.0632 -0.1538
  989MOL0     O30451   3.029   8.538  10.116  0.6523  0.0691  0.3107
  989MOL0     C30452   2.952   8.478  10.007 -0.5360 -0.3518 -0.1302
  989MOL0     C30453   2.810   8.525  10.013  0.2030 -1.0224  0.4162
  989MOL0     C30454   2.732   8.509  10.147  0.6626  0.8446  0.3028
  989MOL0     C30455   2.578   8.517  10.138  0.3502  0.7733  0.2642
  989MOL0     C30456   2.502   8.495  10.269 -0.6007 -0.0642 -0.0962
  989MOL0     C30457   2.349   8.507  10.248 -0.5959 -0.1029  0.1258
  989MOL0     C30458   2.281   8.512  10.384 -0.7651  0.0602  0.4348
  989MOL0     C30459   2.125   8.528  10.375 -0.6635 -0.5401 -0.3402
  989MOL0    Cl30460   2.060   8.390  10.300  0.5935 -0.1945  0.1671
  989MOL0     C30461   3.215   8.382  10.086 -0.1906  0.1014 -0.9855
  989MOL0     C30462   3.347   8.362  10.109 -0.4825  0.4842 -1.1419
  989MOL0     O30463   3.641   8.444  10.005 -0.2824 -0.2226 -0.1152
  989MOL0     C30464   3.825   8.418  10.309  0.1658 -0.1542  0.1523
  989MOL0     C30465   3.946   8.383  10.353  0.5928  0.4444  0.2946
  989MOL0     N30466   4.665   7.929  10.411  0.2128  0.2580 -0.3212
  989MOL0     N30467   4.790   7.922  10.368  0.3180  0.7240 -0.4526
  989MOL0     C30468   4.048   7.881  10.286 -0.8517  0.2210 -0.4207
  989MOL0     C30469   3.930   7.944  10.333  1.1912  0.2189 -0.2857
  989MOL0     C30470   3.491   8.048  10.270 -0.0312  0.4396 -0.8716
  989MOL0     C30471   3.492   8.145  10.370  0.2875 -0.1289  0.1661
  989MOL0     C30472   3.365   8.197  10.414 -0.8949 -0.1225  0.2861
  989MOL0     C30473   3.244   8.161  10.348  0.3633 -0.2679 -0.1774
  989MOL0     O30474   3.124   8.212  10.374 -0.5017  0.0909 -0.6972
  989MOL0     C30475   3.121   8.319  10.471  0.0014  1.0348  0.2411
  989MOL0     C30476   2.977   8.366  10.471  0.6047 -0.1827 -0.1359
  989MOL0     C30477   2.871   8.267  10.527 -0.1797  0.1070 -0.1678
  989MOL0     C30478   2.740   8.326  10.517 -0.3691  0.0936  0.5741
  989MOL0     C30479   2.633   8.229  10.558 -0.0878  0.6373 -0.0367
  989MOL0     C30480   2.541   8.155  10.604  0.1557 -0.1546  0.8382
  989MOL0     C30481   3.241   8.055  10.257  0.6048 -0.7185  0.2501
  989MOL0     C30482   3.361   8.003  10.223 -0.9707 -0.1306 -0.2712
  989MOL0     H30483   3.844   8.109  10.043 -0.1050  0.4020  0.5685
  989MOL0     H30484   4.052   8.013   9.971 -0.7697 -0.9041 -0.9010
  989MOL0     H30485   4.131   7.732   9.974  1.5737 -3.4213 -0.6251
  989MOL0     H30486   4.210   7.673  10.121  0.0294 -1.4666 -0.6510
  989MOL0     H30487   4.313   7.798   9.851  1.0594 -0.1100  0.2669
  989MOL0     H30488   4.352   7.641   9.905 -1.9007  0.6829 -0.7403
  989MOL0     H30489   4.490   7.762  10.093 -3.8636  2.4689  1.2495
  989MOL0     H30490   4.456   7.908   9.994 -0.9103  0.3343 -1.3333
  989MOL0     H30491   4.602   7.671   9.875 -0.4276 -0.6892 -0.3539
  989MOL0     H30492   4.560   7.824   9.795  2.5716 -1.3426 -1.6181
  989MOL0     H30493   4.707   7.940   9.957 -1.6236 -1.6668  4.5018
  989MOL0     H30494   4.791   7.831   9.841  0.7392 -2.2884  1.1276
  989MOL0     H30495   4.813   7.665  10.010  1.7214  0.7107 -0.1603
  989MOL0     H30496   4.716   7.757  10.123  2.7352 -1.6664  2.1601
  989MOL0     H30497   4.938   7.772  10.197 -2.7495 -0.6553  0.9685
  989MOL0     H30498   4.996   7.826  10.034  0.5452 -0.3606  1.2822
  989MOL0     H30499   4.902   8.045  10.071  0.3944 -0.6926 -0.9713
  989MOL0     H30500   4.994   8.009  10.214  1.0086 -1.4440 -0.1127
  989MOL0     H30501   4.644   8.078  10.128  1.1469 -0.3089 -0.8856
  989MOL0     H30502   4.398   7.968  10.398 -2.1149  0.7888 -0.1601
  989MOL0     H30503   4.405   8.020  10.222  1.6948  5.1631 -1.0940
  989MOL0     H30504   4.503   8.189  10.461  0.5013  0.6198 -0.3497
  989MOL0     H30505   4.329   8.154  10.449  0.3902 -2.1627 -0.2213
  989MOL0     H30506   4.443   8.390  10.336 -1.5509  2.2920  0.0041
  989MOL0     H30507   4.487   8.280  10.210 -1.7643  1.1751 -0.8076
  989MOL0     H30508   4.255   8.211  10.174 -0.0216 -0.4596  0.7033
  989MOL0     H30509   4.277   8.390  10.154 -1.4136  0.4393 -0.6001
  989MOL0     H30510   4.096   8.312  10.062 -1.0224 -3.8071  0.6264
  989MOL0     H30511   3.881   8.388   9.976  0.1397 -0.2767 -0.0600
  989MOL0     H30512   3.430   8.659  10.251  0.5647 -1.0207  0.1536
  989MOL0     H30513   3.179   8.697  10.194 -2.2934 -1.1534 -0.1927
  989MOL0     H30514   2.953   8.369  10.021 -0.3563 -0.0418  3.1692
  989MOL0     H30515   2.990   8.497   9.907 -0.9697  2.8401  0.1917
  989MOL0     H30516   2.750   8.473   9.938 -2.9681 -0.5610  2.3940
  989MOL0     H30517   2.798   8.632   9.993  0.5845 -0.1397  4.0717
  989MOL0     H30518   2.768   8.586  10.215  0.3570 -0.1772  1.6539
  989MOL0     H30519   2.767   8.414  10.189 -0.8916 -0.4743 -1.2160
  989MOL0     H30520   2.550   8.610  10.088 -2.5281  0.1018  0.4341
  989MOL0     H30521   2.542   8.442  10.067 -0.8142 -1.1221  2.7116
  989MOL0     H30522   2.548   8.567  10.337  2.5033 -3.1638  1.3754
  989MOL0     H30523   2.523   8.394  10.303  1.6196  0.2377 -0.4490
  989MOL0     H30524   2.301   8.430  10.186 -1.9196 -0.4818  1.5654
  989MOL0     H30525   2.324   8.601  10.197 -0.3871  0.7609  1.5763
  989MOL0     H30526   2.308   8.414  10.426  0.5406  0.7528  1.2491
  989MOL0     H30527   2.331   8.581  10.452 -0.1774 -0.4195  0.4964
  989MOL0     H30528   2.103   8.622  10.324 -2.8410 -1.4520 -1.1840
  989MOL0     H30529   2.084   8.546  10.475  1.0200 -1.5428  0.5907
  989MOL0     H30530   3.160   8.295  10.051  0.2225 -0.8376  0.6047
  989MOL0     H30531   3.386   8.262  10.092  1.8844  0.8109  1.6152
  989MOL0     H30532   3.743   8.430  10.379  0.3112  1.5560  0.0768
  989MOL0     H30533   3.968   8.378  10.460  1.5668  0.5342  0.1133
  989MOL0     H30534   4.118   7.831  10.353 -0.7632 -1.4742 -1.7174
  989MOL0     H30535   3.902   7.927  10.437  3.1343  1.0853  0.4371
  989MOL0     H30536   3.582   8.172  10.424  0.4649  0.4280 -0.3962
  989MOL0     H30537   3.374   8.270  10.494 -0.8650 -0.4420  0.5793
  989MOL0     H30538   3.182   8.407  10.450  1.5890  0.0133  0.3370
  989MOL0     H30539   3.150   8.290  10.573 -0.6954 -2.4387 -0.4281
  989MOL0     H30540   2.975   8.461  10.525  1.8885  0.2536 -0.8087
  989MOL0     H30541   2.951   8.408  10.373  1.4093  1.4192  0.3116
  989MOL0     H30542   2.889   8.238  10.631 -0.4754  1.2152  0.1974
  989MOL0     H30543   2.872   8.177  10.465  1.2763  0.0726 -0.1455
  989MOL0     H30544   2.745   8.418  10.576 -3.3720  0.0287  1.0652
  989MOL0     H30545   2.724   8.350  10.411  0.6580 -1.7692 -0.0337
  989MOL0     H30546   2.465   8.092  10.646 -0.2318 -0.8436 -0.8464
  989MOL0     H30547   3.147   8.007  10.232  0.8702 -0.6233 -0.9858
  989MOL0     H30548   3.363   7.925  10.147  2.2453 -0.2309 -0.2109
  990MOL0     O30549   3.511   9.689   2.036 -0.1705 -0.1802  0.3009
  990MOL0     C30550   3.541   9.662   1.920 -0.2427 -0.5502 -0.3161
  990MOL0     O30551   3.464   9.601   1.825  0.3795 -0.4401  0.1827
  990MOL0     C30552   3.327   9.596   1.837  0.2554 -0.7921  0.1728
  990MOL0     C30553   3.264   9.597   1.720  0.9141 -0.3237  0.1561
  990MOL0     C30554   3.129   9.596   1.705 -0.2044 -0.8061  0.4109
  990MOL0     C30555   3.052   9.608   1.819  0.0782  0.9422  0.3709
  990MOL0     O30556   2.912   9.606   1.810  0.4197 -0.0951  0.0102
  990MOL0     C30557   2.846   9.729   1.855 -0.6728  0.3409  0.6683
  990MOL0     C30558   2.695   9.693   1.841  0.1610  0.6095 -1.0117
  990MOL0     C30559   2.593   9.809   1.878  0.5182 -0.3268 -0.0470
  990MOL0     C30560   2.446   9.762   1.905 -0.1560 -0.5496  0.0295
  990MOL0     C30561   2.349   9.871   1.959 -0.0753  0.2931 -0.2468
  990MOL0     C30562   2.367   9.901   2.112 -0.3903 -0.3368  0.1339
  990MOL0     C30563   2.290  10.023   2.162 -1.1743 -0.6411 -1.0826
  990MOL0     C30564   2.148   9.998   2.206  0.2756 -0.4707 -0.3130
  990MOL0     N30565   2.075  10.108   2.260  0.9905  0.5726 -0.3359
  990MOL0     C30566   2.031  10.209   2.182 -0.1588  0.8440  0.4915
  990MOL0     C30567   1.988  10.305   2.271 -0.1729 -0.0942  0.1700
  990MOL0     C30568   1.918  10.435   2.236 -0.7226  0.1938 -0.0063
  990MOL0     C30569   1.864  10.501   2.366 -0.6772 -0.6482  0.3577
  990MOL0     C30570   1.854  10.645   2.332  0.5649 -0.3073 -0.4478
  990MOL0     C30571   1.761  10.712   2.439 -0.2007 -0.7365  0.6240
  990MOL0     O30572   1.628  10.687   2.413 -0.9692  0.0256 -0.4224
  990MOL0     C30573   1.538  10.778   2.451 -0.7595 -0.0732 -0.9538
  990MOL0     C30574   1.426  10.808   2.375 -0.0152 -0.2367 -0.3968
  990MOL0     C30575   1.347  10.920   2.403  0.4891 -0.1721 -0.3342
  990MOL0     C30576   1.372  11.006   2.509  0.1992  0.0696  0.1854
  990MOL0     C30577   1.293  11.130   2.529 -0.1085 -0.5523 -0.0521
  990MOL0     O30578   1.191  11.155   2.446 -0.5440  0.5252 -0.3181
  990MOL0     C30579   1.099  11.254   2.477  0.3066  0.8296  0.3178
  990MOL0     C30580   1.063  11.304   2.599 -0.5689 -0.0554 -0.3866
  990MOL0     C30581   0.961  11.402   2.614  0.1230  0.1234 -0.3081
  990MOL0     C30582   0.898  11.457   2.503  0.1078  0.3571 -0.0757
  990MOL0     O30583   0.795  11.546   2.504 -0.4330 -0.2399  0.7866
  990MOL0     C30584   0.746  11.602   2.628 -0.2466 -0.2105  0.0176
  990MOL0     C30585   0.599  11.661   2.613 -0.1064 -0.4860 -0.2731
  990MOL0     C30586   0.494  11.552   2.572  0.4200  0.4137 -0.5107
  990MOL0     C30587   0.351  11.603   2.556  0.4407 -0.0313 -0.9284
  990MOL0     C30588   0.263  11.496   2.487 -0.4610  0.0933  0.6601
  990MOL0     C30589   0.232  11.386   2.589  0.2251  0.2986 -0.1076
  990MOL0     C30590   0.149  11.274   2.530 -0.3235 -0.7075 -0.2257
  990MOL0     C30591  -0.003  11.307   2.537  0.0157 -0.2484 -0.4071
  990MOL0    Cl30592  -0.098  11.201   2.422 -0.0235 -0.4716  0.0411
  990MOL0     C30593   0.942  11.406   2.381  0.0680 -0.8037 -0.2503
  990MOL0     C30594   1.034  11.306   2.365 -0.2131  0.6639 -0.6621
  990MOL0     O30595   1.339  11.194   2.624 -0.9887 -0.6544 -0.7064
  990MOL0     C30596   1.483  10.966   2.588  0.4272  0.1512  0.6989
  990MOL0     C30597   1.557  10.852   2.570  0.0201 -1.0240  0.5260
  990MOL0     N30598   2.009  10.258   2.401  0.3338 -0.1560  0.4214
  990MOL0     N30599   2.057  10.140   2.394 -0.4443  0.4128 -0.4291
  990MOL0     C30600   3.109   9.619   1.942 -0.1269 -0.4853 -0.6528
  990MOL0     C30601   3.246   9.620   1.955 -0.6440  0.1171  0.6026
  990MOL0     C30602   3.678   9.677   1.882  0.0350  0.2525  0.1205
  990MOL0     C30603   3.722   9.671   1.744  0.3766 -0.0678 -0.0254
  990MOL0     C30604   3.856   9.672   1.711 -1.2336 -0.0728 -0.6779
  990MOL0     C30605   3.965   9.680   1.804 -0.2668  0.0852  1.8107
  990MOL0     O30606   4.099   9.676   1.770  0.7592 -0.6115 -0.1166
  990MOL0     C30607   4.147   9.682   1.634 -0.4557  0.2129 -0.1784
  990MOL0     C30608   4.295   9.639   1.622 -0.3401 -0.1008 -0.3302
  990MOL0     C30609   4.391   9.729   1.694 -0.2833  0.7080 -0.1025
  990MOL0     C30610   4.416   9.877   1.653  0.9757  0.2800  0.4921
  990MOL0     C30611   4.448   9.882   1.505 -0.1551 -0.4694 -0.1591
  990MOL0     C30612   4.482   9.904   1.391 -0.6014 -0.1546 -0.1433
  990MOL0     C30613   3.918   9.673   1.937 -0.7627  0.2855  0.1624
  990MOL0     C30614   3.786   9.677   1.972  0.6665 -1.2378 -0.2429
  990MOL0     H30615   3.328   9.575   1.635 -0.0760 -4.0956  0.2178
  990MOL0     H30616   3.076   9.590   1.610 -0.8567 -0.4008  0.7415
  990MOL0     H30617   2.878   9.805   1.784  0.2918  0.7963  1.5720
  990MOL0     H30618   2.873   9.761   1.956  0.4739  3.1991 -0.4337
  990MOL0     H30619   2.665   9.602   1.894  0.2351  0.5664 -1.0411
  990MOL0     H30620   2.680   9.673   1.735  0.2957 -1.1218 -0.7380
  990MOL0     H30621   2.601   9.881   1.796  1.0382 -0.3292 -0.0012
  990MOL0     H30622   2.624   9.868   1.964 -0.7903 -1.3767  1.1966
  990MOL0     H30623   2.405   9.731   1.808  0.2922 -0.4140 -0.2095
  990MOL0     H30624   2.457   9.673   1.967  2.7317 -1.8800 -2.1279
  990MOL0     H30625   2.252   9.824   1.943 -0.0864 -0.7227  2.3396
  990MOL0     H30626   2.361   9.965   1.906 -1.1631  1.0345  0.7766
  990MOL0     H30627   2.472   9.902   2.144 -0.4091 -2.6770  0.4582
  990MOL0     H30628   2.325   9.824   2.177 -1.8301  1.8868  1.9927
  990MOL0     H30629   2.346  10.053   2.251 -2.1860  1.3275 -1.0557
  990MOL0     H30630   2.299  10.107   2.092  3.1354  0.8616  0.9006
  990MOL0     H30631   2.146   9.917   2.280  1.4190  1.0125  1.4324
  990MOL0     H30632   2.103   9.964   2.113  0.6418 -2.0677  0.0631
  990MOL0     H30633   2.035  10.208   2.074  4.0088  2.7063  0.4321
  990MOL0     H30634   1.833  10.418   2.169  0.3063  0.1207 -1.3540
  990MOL0     H30635   1.991  10.503   2.190  1.2566 -2.4915 -1.0920
  990MOL0     H30636   1.945  10.496   2.439 -0.6533  1.5388  0.5549
  990MOL0     H30637   1.773  10.452   2.401 -0.0563 -2.4386 -0.4100
  990MOL0     H30638   1.949  10.695   2.314 -0.1189  0.6857 -1.4105
  990MOL0     H30639   1.792  10.661   2.243  1.2927  0.1758 -0.8752
  990MOL0     H30640   1.764  10.821   2.426 -0.1401 -1.0307 -2.6196
  990MOL0     H30641   1.788  10.682   2.541 -2.2259  1.6193  1.9762
  990MOL0     H30642   1.407  10.752   2.284 -2.1096  0.4182 -0.4081
  990MOL0     H30643   1.258  10.940   2.344  0.1794  1.8864  0.7222
  990MOL0     H30644   1.111  11.250   2.681  0.1473 -1.9033 -1.9319
  990MOL0     H30645   0.944  11.427   2.718  3.7062  1.1639  0.1850
  990MOL0     H30646   0.820  11.678   2.655  0.1582  0.1353 -1.9572
  990MOL0     H30647   0.734  11.534   2.713 -1.8296  1.7743  1.4813
  990MOL0     H30648   0.603  11.740   2.538  1.2770 -0.1520  0.1227
  990MOL0     H30649   0.574  11.718   2.703  1.3769 -0.0822 -0.0946
  990MOL0     H30650   0.500  11.474   2.648  0.6614  0.0109 -0.9355
  990MOL0     H30651   0.524  11.511   2.475  0.7471  3.4061 -1.7664
  990MOL0     H30652   0.309  11.642   2.649  2.0219 -0.3919 -0.0319
  990MOL0     H30653   0.353  11.688   2.488 -0.3734  1.7048  1.1016
  990MOL0     H30654   0.313  11.448   2.403  1.4209  0.1514  1.6884
  990MOL0     H30655   0.171  11.548   2.456 -1.1202 -0.8165  1.0420
  990MOL0     H30656   0.171  11.436   2.665 -1.1303  1.2643 -1.7497
  990MOL0     H30657   0.317  11.342   2.640 -0.6803 -0.6173  0.6430
  990MOL0     H30658   0.169  11.262   2.423 -0.1850  2.8655 -0.7175
  990MOL0     H30659   0.171  11.185   2.589 -0.9676  0.2707  1.5736
  990MOL0     H30660  -0.013  11.414   2.515 -1.1478  0.3290  2.4708
  990MOL0     H30661  -0.037  11.282   2.638 -1.0301  1.8740 -0.1830
  990MOL0     H30662   0.909  11.465   2.296 -2.5798 -0.4204  0.9533
  990MOL0     H30663   1.044  11.272   2.263 -1.9855 -0.8047 -0.3894
  990MOL0     H30664   1.512  11.019   2.678 -2.3462  1.1768  1.0978
  990MOL0     H30665   1.627  10.836   2.651 -1.9868  0.5321  2.6754
  990MOL0     H30666   3.048   9.637   2.030  0.4648 -0.1008 -0.3098
  990MOL0     H30667   3.294   9.636   2.051  1.2457  1.0505 -0.4569
  990MOL0     H30668   3.647   9.657   1.666 -0.8185  0.5774  0.9593
  990MOL0     H30669   3.865   9.674   1.603 -0.6529 -1.1864 -0.6635
  990MOL0     H30670   4.140   9.784   1.596  0.5254  0.1822 -0.4729
  990MOL0     H30671   4.084   9.621   1.568 -0.0929 -0.8931  0.4636
  990MOL0     H30672   4.311   9.532   1.642 -0.6108 -0.2985 -1.1462
  990MOL0     H30673   4.317   9.640   1.515 -1.4761  1.4378 -0.5809
  990MOL0     H30674   4.485   9.674   1.682 -0.8389 -0.1975 -0.3590
  990MOL0     H30675   4.349   9.721   1.795 -1.9190  1.1604 -0.7065
  990MOL0     H30676   4.333   9.946   1.670 -0.6081 -0.2704 -3.7903
  990MOL0     H30677   4.492   9.925   1.716 -0.2481 -0.7249  2.8491
  990MOL0     H30678   4.500   9.926   1.287  1.8138 -1.7357 -0.1439
  990MOL0     H30679   3.997   9.667   2.012 -1.9731 -2.8763  1.3456
  990MOL0     H30680   3.761   9.669   2.078 -1.3289  0.4830 -0.5154
  991MOL0     O30681   6.694   2.312   8.110  0.3470 -0.5475 -0.1669
  991MOL0     C30682   6.669   2.252   8.005  0.3041 -0.0608  0.3050
  991MOL0     O30683   6.551   2.203   7.976  0.3704  0.1926 -0.6658
  991MOL0     C30684   6.434   2.202   8.058 -0.5632 -0.5855  0.6595
  991MOL0     C30685   6.426   2.204   8.203 -0.3742 -0.2032  0.3020
  991MOL0     C30686   6.303   2.177   8.264 -0.5861 -0.5669 -0.2738
  991MOL0     C30687   6.185   2.163   8.187  0.2238  0.1198  0.3355
  991MOL0     O30688   6.055   2.145   8.236 -1.1686 -0.6805 -0.0523
  991MOL0     C30689   6.051   2.065   8.358  0.3205 -0.5388 -0.3714
  991MOL0     C30690   5.908   2.023   8.383  0.0795  0.1112 -0.0776
  991MOL0     C30691   5.892   1.955   8.514  0.1125  0.0222 -0.7082
  991MOL0     C30692   5.755   1.895   8.538  0.0035 -0.3103  0.3176
  991MOL0     C30693   5.762   1.794   8.656 -0.4517  0.5816  0.5399
  991MOL0     C30694   5.632   1.721   8.682  1.0935  1.0481  0.2341
  991MOL0     C30695   5.597   1.694   8.830 -0.6097 -0.5306 -0.0193
  991MOL0     C30696   5.459   1.633   8.851  0.0033 -0.6280 -0.5898
  991MOL0     N30697   5.431   1.639   8.997  0.1650 -0.0147  0.0341
  991MOL0     C30698   5.491   1.555   9.088  0.3995  0.1587 -0.0068
  991MOL0     C30699   5.442   1.598   9.208  0.4899 -0.2189  0.6953
  991MOL0     C30700   5.463   1.540   9.348 -0.1322  0.3994  0.1767
  991MOL0     C30701   5.314   1.519   9.400 -0.1841 -0.5976  0.2472
  991MOL0     C30702   5.301   1.427   9.525  0.5038 -0.0508 -0.0877
  991MOL0     C30703   5.327   1.272   9.498 -0.5660 -1.0608 -0.3528
  991MOL0     O30704   5.297   1.208   9.625  0.2506 -0.5579  0.4987
  991MOL0     C30705   5.165   1.173   9.652 -0.2642 -0.2086 -0.4193
  991MOL0     C30706   5.137   1.112   9.771  0.0977  0.8559  0.0026
  991MOL0     C30707   5.011   1.062   9.799  0.6845 -0.5500 -0.3184
  991MOL0     C30708   4.907   1.083   9.698 -0.2761  0.6170  0.3296
  991MOL0     C30709   4.767   1.036   9.720  0.1530  0.5946  0.4074
  991MOL0     O30710   4.678   1.077   9.620 -0.1904  0.7741  0.7463
  991MOL0     C30711   4.541   1.060   9.634 -0.6298 -0.1051 -0.1747
  991MOL0     C30712   4.472   1.097   9.751  0.2736  0.6719  0.0607
  991MOL0     C30713   4.327   1.093   9.749  0.1078 -0.1048 -0.3048
  991MOL0     C30714   4.263   1.065   9.632  0.3484  0.8089  0.1714
  991MOL0     O30715   4.121   1.080   9.650 -0.2575 -0.0402 -0.0633
  991MOL0     C30716   4.057   1.100   9.522 -0.2761  0.3151 -0.9774
  991MOL0     C30717   3.920   1.149   9.547  0.2718  0.0598 -0.3083
  991MOL0     C30718   3.826   1.162   9.429 -0.4783  0.2966  0.2169
  991MOL0     C30719   3.886   1.250   9.317  0.4516  0.7352 -0.2306
  991MOL0     C30720   3.802   1.268   9.189 -0.7815  0.1075  0.2656
  991MOL0     C30721   3.666   1.321   9.223  0.0171  0.5580  0.2933
  991MOL0     C30722   3.603   1.396   9.099  0.2302 -0.8722  0.2788
  991MOL0     C30723   3.449   1.392   9.118  0.0781  0.3632 -0.2464
  991MOL0    Cl30724   3.408   1.499   9.238 -0.1700  0.1624 -0.2519
  991MOL0     C30725   4.332   1.040   9.514 -0.9402 -0.5883  0.1167
  991MOL0     C30726   4.475   1.036   9.515 -0.2981  0.1722  0.2875
  991MOL0     O30727   4.740   0.978   9.824  0.3006 -0.0682 -0.0352
  991MOL0     C30728   4.935   1.158   9.586 -0.2515 -0.8090 -0.5623
  991MOL0     C30729   5.063   1.201   9.560  0.3272 -0.6395 -0.0085
  991MOL0     N30730   5.380   1.718   9.186  0.6728  0.2120 -0.4940
  991MOL0     N30731   5.381   1.737   9.061  1.3097  0.3584  0.0949
  991MOL0     C30732   6.193   2.171   8.048  1.1921 -0.0191  1.3020
  991MOL0     C30733   6.317   2.184   7.979  0.4030 -0.0231  0.2332
  991MOL0     C30734   6.769   2.228   7.896  0.0236 -0.4194 -0.5563
  991MOL0     C30735   6.749   2.144   7.790 -0.6299  0.8854 -1.0234
  991MOL0     C30736   6.853   2.108   7.707  0.2678 -0.3548  0.5654
  991MOL0     C30737   6.983   2.164   7.727 -0.4646  0.3711 -0.2611
  991MOL0     O30738   7.086   2.134   7.645  0.1917  0.6992  0.2835
  991MOL0     C30739   7.084   2.014   7.563  0.6318  0.9893 -0.9949
  991MOL0     C30740   7.205   2.017   7.469  0.2851 -0.2862  0.5226
  991MOL0     C30741   7.176   2.082   7.334  0.0453 -0.3561  0.0535
  991MOL0     C30742   7.319   2.088   7.252 -0.2705  0.3550  0.0497
  991MOL0     C30743   7.279   2.120   7.119 -0.1381 -0.2124  1.0262
  991MOL0     C30744   7.247   2.158   7.005 -0.6915 -0.4094 -0.0774
  991MOL0     C30745   7.002   2.267   7.819 -0.0594  0.7356  0.3071
  991MOL0     C30746   6.895   2.293   7.905  0.0799  0.1321  0.2658
  991MOL0     H30747   6.521   2.202   8.256 -0.8571 -0.0775  1.1823
  991MOL0     H30748   6.293   2.173   8.372 -1.0778  0.9158 -0.2420
  991MOL0     H30749   6.086   2.126   8.442 -0.5825 -0.5267  0.0081
  991MOL0     H30750   6.116   1.979   8.341 -1.2122 -1.7806 -0.2407
  991MOL0     H30751   5.887   1.946   8.308  2.1819  0.1181 -0.7176
  991MOL0     H30752   5.843   2.111   8.382 -0.9595 -0.6112  1.1469
  991MOL0     H30753   5.920   2.025   8.594  0.8552 -0.3056 -0.6814
  991MOL0     H30754   5.969   1.878   8.512 -1.3990 -1.5841  0.2977
  991MOL0     H30755   5.684   1.974   8.565 -0.4956  0.0926 -1.9465
  991MOL0     H30756   5.709   1.858   8.446  0.0216 -0.9190  0.5541
  991MOL0     H30757   5.786   1.857   8.743  0.8908 -0.5040  0.9982
  991MOL0     H30758   5.840   1.719   8.641 -1.8048 -0.3012 -2.9729
  991MOL0     H30759   5.622   1.631   8.621  2.3738  1.4249 -0.5851
  991MOL0     H30760   5.542   1.778   8.657  0.1025 -0.2850  0.6648
  991MOL0     H30761   5.679   1.636   8.874  1.6530  1.5917 -1.1895
  991MOL0     H30762   5.610   1.786   8.887  0.5465 -0.6692 -0.0311
  991MOL0     H30763   5.456   1.529   8.818 -0.1051 -0.1172 -2.2705
  991MOL0     H30764   5.387   1.683   8.786  1.0099  0.2048 -1.0888
  991MOL0     H30765   5.558   1.474   9.060  2.4010  2.0657 -1.0677
  991MOL0     H30766   5.517   1.609   9.413  3.0180 -1.3579 -0.3939
  991MOL0     H30767   5.517   1.446   9.364 -1.4001  0.0266  3.0156
  991MOL0     H30768   5.248   1.476   9.323 -1.6588  1.4577  0.2705
  991MOL0     H30769   5.276   1.619   9.425  1.4935 -0.0629  0.8177
  991MOL0     H30770   5.379   1.455   9.597  0.8572 -2.7550  0.6907
  991MOL0     H30771   5.203   1.456   9.564  1.4742  1.4573  1.3456
  991MOL0     H30772   5.432   1.253   9.478 -0.4253 -1.8001  0.9743
  991MOL0     H30773   5.278   1.233   9.408 -0.2135  0.9079 -1.4575
  991MOL0     H30774   5.217   1.103   9.843  0.2359  2.3612  0.0676
  991MOL0     H30775   4.990   1.002   9.887 -0.6866 -0.8713 -0.8370
  991MOL0     H30776   4.519   1.113   9.847  1.2989 -1.4074 -0.0272
  991MOL0     H30777   4.275   1.104   9.844  1.7986 -0.2209  0.6679
  991MOL0     H30778   4.049   1.014   9.455  1.2465  1.2849 -2.4808
  991MOL0     H30779   4.108   1.179   9.466 -1.6576 -1.1832 -4.6645
  991MOL0     H30780   3.936   1.245   9.596  0.3286 -0.9565  1.7488
  991MOL0     H30781   3.877   1.083   9.623 -0.7283  1.3428  0.2809
  991MOL0     H30782   3.736   1.202   9.475 -0.9026 -0.3391 -0.0445
  991MOL0     H30783   3.800   1.065   9.385  2.6553  0.0473 -1.4609
  991MOL0     H30784   3.900   1.352   9.355  0.4692  0.5564  0.2486
  991MOL0     H30785   3.980   1.203   9.287 -0.8152 -1.0714 -1.5535
  991MOL0     H30786   3.799   1.169   9.142  1.6954  0.0973  0.0094
  991MOL0     H30787   3.849   1.322   9.107  0.9030 -1.3385  0.2314
  991MOL0     H30788   3.678   1.398   9.299 -0.5878 -1.2187  2.2818
  991MOL0     H30789   3.610   1.239   9.269  1.5958  0.6304  2.4938
  991MOL0     H30790   3.643   1.497   9.095  3.2610 -1.8750  2.2281
  991MOL0     H30791   3.637   1.351   9.005  1.7128  0.6748  0.0324
  991MOL0     H30792   3.418   1.294   9.155 -0.5434  1.9312  3.8720
  991MOL0     H30793   3.385   1.421   9.034  0.1186  1.9736  0.2296
  991MOL0     H30794   4.278   1.022   9.422 -2.0116  0.3005  0.5445
  991MOL0     H30795   4.541   1.003   9.436 -0.5265 -1.6748  0.8139
  991MOL0     H30796   4.863   1.194   9.513 -1.5024  0.6364  1.2805
  991MOL0     H30797   5.081   1.244   9.463 -4.0389  2.0997  0.1461
  991MOL0     H30798   6.103   2.150   7.992  2.2487 -0.4712 -0.3114
  991MOL0     H30799   6.306   2.178   7.871  0.1672 -0.1372  0.2630
  991MOL0     H30800   6.650   2.102   7.775 -1.6462  2.4014  0.9703
  991MOL0     H30801   6.847   2.046   7.618 -0.1664  0.3696  0.0709
  991MOL0     H30802   6.990   2.011   7.508 -0.5355  1.5558  0.8759
  991MOL0     H30803   7.102   1.923   7.621  2.7446  1.1426 -1.3476
  991MOL0     H30804   7.286   2.072   7.519  0.6731 -0.4894  0.1205
  991MOL0     H30805   7.250   1.917   7.469  0.1893 -0.3288  0.4044
  991MOL0     H30806   7.119   2.174   7.339  0.3803  0.1943 -3.5313
  991MOL0     H30807   7.114   2.004   7.288 -0.0579  0.2786 -0.9014
  991MOL0     H30808   7.390   2.157   7.299  1.2985 -1.0848 -0.1336
  991MOL0     H30809   7.364   1.989   7.262  1.8888  1.4848  3.0078
  991MOL0     H30810   7.195   2.184   6.915  0.4021 -2.4460 -1.3658
  991MOL0     H30811   7.097   2.319   7.826  1.2254 -1.5543  1.2172
  991MOL0     H30812   6.906   2.379   7.969  0.9210  1.0630 -1.0800
  992MOL0     O30813   3.578   9.718   4.271  0.1776 -0.0198  0.7107
  992MOL0     C30814   3.600   9.602   4.236  0.6088  0.5818 -0.3089
  992MOL0     O30815   3.517   9.527   4.152  0.1556 -0.0151 -0.4818
  992MOL0     C30816   3.431   9.585   4.064 -1.2375 -0.1420 -0.3896
  992MOL0     C30817   3.447   9.712   4.007  0.9014  0.0996 -0.0125
  992MOL0     C30818   3.356   9.763   3.916 -0.3134  0.1596 -0.4672
  992MOL0     C30819   3.236   9.690   3.887 -0.2776 -0.3204  0.4893
  992MOL0     O30820   3.146   9.750   3.800 -0.5389 -0.1538  0.2529
  992MOL0     C30821   3.016   9.702   3.781  0.3328 -0.0219 -0.1737
  992MOL0     C30822   2.935   9.708   3.910 -0.7684 -0.8065 -0.6450
  992MOL0     C30823   2.795   9.671   3.884 -0.1284 -0.5424  0.1851
  992MOL0     C30824   2.686   9.734   3.976  0.7320  1.1827 -0.1371
  992MOL0     C30825   2.540   9.720   3.914 -0.7313  0.0952 -0.1337
  992MOL0     C30826   2.430   9.760   4.003  0.0063 -0.3476  0.3330
  992MOL0     C30827   2.290   9.754   3.930 -0.1226  0.1754 -0.9591
  992MOL0     C30828   2.187   9.858   3.984  0.7067  0.9188  0.8167
  992MOL0     N30829   2.056   9.785   3.988  0.2193  0.1587 -0.3097
  992MOL0     C30830   1.986   9.748   3.879  0.8113  0.4112  0.4655
  992MOL0     C30831   1.873   9.693   3.935  0.7850 -0.1652  0.1825
  992MOL0     C30832   1.745   9.643   3.867 -0.0690 -0.4102 -0.6994
  992MOL0     C30833   1.729   9.741   3.750  0.7058  0.2313  0.4766
  992MOL0     C30834   1.594   9.739   3.678 -0.0657  0.0937 -0.4832
  992MOL0     C30835   1.545   9.608   3.620  0.4548 -0.9605 -0.8728
  992MOL0     O30836   1.411   9.618   3.582 -0.5285  0.7569 -0.2291
  992MOL0     C30837   1.311   9.579   3.671  0.3258  0.1120  0.0282
  992MOL0     C30838   1.183   9.563   3.629 -0.7152  0.4855  0.1051
  992MOL0     C30839   1.069   9.538   3.716  0.7316  0.0479 -0.0527
  992MOL0     C30840   1.087   9.526   3.859 -0.0937 -0.8476 -0.3895
  992MOL0     C30841   0.981   9.469   3.948  1.2121  0.4870  0.7770
  992MOL0     O30842   1.022   9.407   4.057 -0.0412  0.3659 -0.3084
  992MOL0     C30843   0.930   9.388   4.160  0.0901  0.0853 -0.4575
  992MOL0     C30844   0.842   9.282   4.153 -0.4264  0.0348  0.4020
  992MOL0     C30845   0.760   9.251   4.255 -0.2793  1.1659 -0.2371
  992MOL0     C30846   0.755   9.319   4.376  0.0768 -0.2445  0.3957
  992MOL0     O30847   0.665   9.283   4.476  0.0282  0.1748  0.4694
  992MOL0     C30848   0.646   9.372   4.581  0.3486 -0.6411 -0.2963
  992MOL0     C30849   0.533   9.316   4.664 -0.5699  0.5145 -0.5458
  992MOL0     C30850   0.400   9.293   4.581  0.1424  0.4973 -0.8317
  992MOL0     C30851   0.294   9.270   4.687  0.0929 -0.4560 -0.4646
  992MOL0     C30852   0.155   9.264   4.639  0.1352 -0.4041 -0.7256
  992MOL0     C30853   0.113   9.411   4.647 -0.2887  0.2111 -0.4078
  992MOL0     C30854  -0.033   9.420   4.606  0.5462  0.3519 -0.9602
  992MOL0     C30855  -0.130   9.400   4.729  0.3893 -0.0780 -0.2477
  992MOL0    Cl30856  -0.296   9.442   4.668  0.1177 -0.2434  0.1916
  992MOL0     C30857   0.846   9.430   4.379 -0.7208 -0.0954 -0.0289
  992MOL0     C30858   0.932   9.462   4.273 -1.0682 -0.1040  0.0272
  992MOL0     O30859   0.863   9.497   3.921  0.5118  0.1774 -0.0740
  992MOL0     C30860   1.225   9.543   3.909  0.2807  0.1457  0.7075
  992MOL0     C30861   1.328   9.576   3.818  0.3754  0.2343  0.0209
  992MOL0     N30862   1.878   9.696   4.073 -0.5172 -0.5540 -0.1832
  992MOL0     N30863   1.988   9.754   4.101 -0.0176  0.1913 -0.2393
  992MOL0     C30864   3.219   9.562   3.944  0.2596 -0.6546 -0.4248
  992MOL0     C30865   3.315   9.515   4.033 -0.6419 -0.2750  0.2067
  992MOL0     C30866   3.725   9.540   4.292 -0.9063  0.1615 -0.5954
  992MOL0     C30867   3.756   9.405   4.265 -0.0024  0.1162  0.6362
  992MOL0     C30868   3.884   9.366   4.301 -0.5581  0.2962  0.2224
  992MOL0     C30869   3.978   9.448   4.357  0.3883 -0.0143 -0.8207
  992MOL0     O30870   4.106   9.405   4.385 -0.5902 -0.2197 -0.2838
  992MOL0     C30871   4.129   9.385   4.524  0.0294 -0.5454 -0.1600
  992MOL0     C30872   4.195   9.246   4.529 -0.5786 -0.1805  0.0518
  992MOL0     C30873   4.351   9.244   4.502 -0.1847 -0.1583  0.2078
  992MOL0     C30874   4.428   9.264   4.631 -0.2582  0.2863 -0.0254
  992MOL0     C30875   4.463   9.152   4.716 -0.6458  0.2676 -1.2129
  992MOL0     C30876   4.499   9.074   4.803 -0.1432  0.3008  0.5940
  992MOL0     C30877   3.937   9.574   4.401 -0.3161  0.6016  0.6898
  992MOL0     C30878   3.813   9.618   4.365 -0.3962  0.0150  0.5958
  992MOL0     H30879   3.537   9.762   4.042  1.2576  0.1854 -0.9964
  992MOL0     H30880   3.362   9.864   3.877 -0.1591  0.8879  1.3259
  992MOL0     H30881   3.016   9.598   3.748  1.7650 -0.5515  1.3547
  992MOL0     H30882   2.963   9.766   3.710  0.0492  0.1773  0.2127
  992MOL0     H30883   2.952   9.812   3.942  0.1436 -0.4217 -2.2230
  992MOL0     H30884   2.981   9.647   3.988  2.1184  1.8607 -0.0435
  992MOL0     H30885   2.791   9.562   3.876 -4.3706 -0.4027 -2.3243
  992MOL0     H30886   2.777   9.704   3.782  1.4871  1.0287  0.3695
  992MOL0     H30887   2.691   9.684   4.073  0.2746 -2.7764 -1.9391
  992MOL0     H30888   2.717   9.839   3.985 -2.1811  2.0945  0.1598
  992MOL0     H30889   2.519   9.617   3.885 -0.6286 -0.3138  1.1720
  992MOL0     H30890   2.551   9.790   3.831  0.0504 -0.2850 -0.3587
  992MOL0     H30891   2.452   9.862   4.036 -1.5953 -0.1375  0.8680
  992MOL0     H30892   2.420   9.695   4.091 -1.4646 -0.6824 -0.0415
  992MOL0     H30893   2.313   9.771   3.824  2.1228 -0.0121 -0.5555
  992MOL0     H30894   2.261   9.649   3.926 -0.2924  0.0189  2.2279
  992MOL0     H30895   2.176   9.945   3.918 -0.2990 -2.1985 -3.5712
  992MOL0     H30896   2.206   9.894   4.085 -0.3069 -0.6213  1.5885
  992MOL0     H30897   2.027   9.760   3.779  3.3683  1.1491  1.5243
  992MOL0     H30898   1.663   9.637   3.940  0.4178 -0.5409 -0.1500
  992MOL0     H30899   1.756   9.541   3.828 -1.6222 -0.1873 -1.7838
  992MOL0     H30900   1.794   9.705   3.670  0.4011 -0.6187  0.6057
  992MOL0     H30901   1.748   9.846   3.778  0.6516  0.6903 -1.1218
  992MOL0     H30902   1.523   9.771   3.754  2.0613  0.5733  1.3945
  992MOL0     H30903   1.585   9.824   3.609 -0.3184  2.1542  1.9504
  992MOL0     H30904   1.564   9.521   3.684  0.3157 -0.3541  0.0044
  992MOL0     H30905   1.611   9.594   3.533  0.5360  1.3022 -1.2465
  992MOL0     H30906   1.170   9.572   3.522  0.1986  1.6911  0.0753
  992MOL0     H30907   0.975   9.528   3.663  0.5282 -1.4136  0.5406
  992MOL0     H30908   0.831   9.219   4.065 -2.8193 -1.3665  1.5985
  992MOL0     H30909   0.689   9.170   4.247 -1.2918  1.9333  0.6234
  992MOL0     H30910   0.612   9.465   4.534 -1.9948 -1.5054 -0.4396
  992MOL0     H30911   0.736   9.386   4.641  0.1989 -0.3722 -0.1288
  992MOL0     H30912   0.519   9.388   4.745  1.6965  0.6160 -0.1866
  992MOL0     H30913   0.555   9.214   4.697  0.9094  0.7646 -0.6933
  992MOL0     H30914   0.422   9.212   4.511  1.6832  0.8953 -0.8578
  992MOL0     H30915   0.377   9.386   4.528  0.8838  1.2454  0.1144
  992MOL0     H30916   0.337   9.181   4.734  1.9665  1.4377  1.6770
  992MOL0     H30917   0.298   9.348   4.764 -1.8036 -1.2454  0.4715
  992MOL0     H30918   0.094   9.208   4.711 -0.9562  3.2404  1.4572
  992MOL0     H30919   0.145   9.223   4.538  2.0370 -0.9155 -0.7459
  992MOL0     H30920   0.167   9.472   4.573 -0.9551  0.7643 -0.4549
  992MOL0     H30921   0.127   9.457   4.745 -0.3795 -0.6166 -0.0070
  992MOL0     H30922  -0.048   9.517   4.559 -1.1185  1.2160  1.1579
  992MOL0     H30923  -0.058   9.348   4.528 -1.8737 -1.6393  1.4270
  992MOL0     H30924  -0.102   9.475   4.804 -0.8803 -0.3564  0.5539
  992MOL0     H30925  -0.123   9.298   4.770  1.6196  0.4894  1.0364
  992MOL0     H30926   0.847   9.488   4.471 -0.5943 -0.6721  0.3362
  992MOL0     H30927   0.997   9.549   4.282 -2.5439  0.9922  0.6562
  992MOL0     H30928   1.245   9.528   4.015  1.1161 -2.4611  0.2415
  992MOL0     H30929   1.427   9.595   3.859  0.6448 -0.1237 -0.4600
  992MOL0     H30930   3.133   9.503   3.912 -1.1847 -0.3721  2.5039
  992MOL0     H30931   3.300   9.423   4.088 -0.6663  0.1986  1.0051
  992MOL0     H30932   3.692   9.336   4.211 -1.0649 -0.3385  2.3932
  992MOL0     H30933   3.914   9.262   4.295  0.1865  0.5777 -2.8437
  992MOL0     H30934   4.046   9.390   4.595  0.6216 -0.8033  0.5670
  992MOL0     H30935   4.198   9.460   4.564 -2.5001  2.1850 -0.6294
  992MOL0     H30936   4.166   9.206   4.627  1.0359 -0.4180  0.4493
  992MOL0     H30937   4.153   9.175   4.457  1.2217 -0.3380 -0.8971
  992MOL0     H30938   4.378   9.318   4.426  3.1522 -1.8851 -0.4699
  992MOL0     H30939   4.384   9.144   4.472  0.5742 -0.9405  3.2992
  992MOL0     H30940   4.523   9.312   4.605  0.2983 -1.2619 -0.9814
  992MOL0     H30941   4.368   9.327   4.697 -0.8933 -1.3385  1.0146
  992MOL0     H30942   4.518   8.996   4.875  0.6438 -0.8487 -0.8131
  992MOL0     H30943   4.011   9.639   4.447  0.3125  0.4593 -0.0923
  992MOL0     H30944   3.786   9.720   4.392  0.8813  0.5728 -0.1416
  993MOL0     O30945   3.658   1.908   8.632  0.3923 -0.9633 -0.5349
  993MOL0     C30946   3.679   1.789   8.665  0.1258 -0.6356 -0.2401
  993MOL0     O30947   3.586   1.705   8.727  0.0733  0.4257  0.3878
  993MOL0     C30948   3.454   1.736   8.742 -0.1904 -0.5432  0.0930
  993MOL0     C30949   3.392   1.648   8.833 -0.7224 -0.4134  0.4971
  993MOL0     C30950   3.260   1.665   8.872 -0.5770 -0.3557 -0.6072
  993MOL0     C30951   3.181   1.765   8.823 -0.5314  0.3057  0.1407
  993MOL0     O30952   3.058   1.793   8.874  0.4394 -0.2570 -0.6062
  993MOL0     C30953   2.960   1.860   8.792  0.3930 -0.6247  0.1404
  993MOL0     C30954   2.812   1.820   8.825  0.2192  0.7867 -0.2975
  993MOL0     C30955   2.745   1.741   8.712  0.5637 -0.1486  0.3877
  993MOL0     C30956   2.599   1.709   8.733 -0.2757  0.0706 -0.0468
  993MOL0     C30957   2.549   1.600   8.638  0.2863 -0.3034 -0.4668
  993MOL0     C30958   2.422   1.526   8.693  0.4187 -0.6024 -0.3725
  993MOL0     C30959   2.321   1.522   8.577  0.8919  0.5498  0.0965
  993MOL0     C30960   2.185   1.468   8.634 -0.0760 -0.3296  0.2504
  993MOL0     N30961   2.132   1.548   8.742 -0.8780 -0.5024 -0.4545
  993MOL0     C30962   2.071   1.488   8.846  0.5534  0.0632 -0.2339
  993MOL0     C30963   1.995   1.583   8.906  0.0489 -0.2039 -0.0704
  993MOL0     C30964   1.898   1.551   9.025 -0.5915 -0.6924  0.5676
  993MOL0     C30965   1.966   1.544   9.156 -0.5299 -0.2429  0.7464
  993MOL0     C30966   1.911   1.448   9.256  0.0991  0.0981 -0.2453
  993MOL0     C30967   1.755   1.464   9.285 -0.1789 -0.5368  0.8790
  993MOL0     O30968   1.687   1.411   9.171 -0.4424 -0.0901  0.1749
  993MOL0     C30969   1.551   1.442   9.157  0.3081 -0.1149 -0.6543
  993MOL0     C30970   1.486   1.389   9.048  0.8369 -0.1597  0.2183
  993MOL0     C30971   1.356   1.415   9.011 -0.0968  0.2676 -0.3274
  993MOL0     C30972   1.277   1.485   9.099  0.5417 -0.3751  0.0961
  993MOL0     C30973   1.132   1.503   9.083 -0.0929  0.3245  0.1295
  993MOL0     O30974   1.072   1.583   9.177  0.2477 -0.0837 -0.3177
  993MOL0     C30975   0.939   1.587   9.182  0.0074  0.3261 -0.2599
  993MOL0     C30976   0.863   1.476   9.217  0.0803 -0.0840  0.2976
  993MOL0     C30977   0.716   1.493   9.214  0.0676  0.5367  0.0331
  993MOL0     C30978   0.656   1.613   9.177  0.1590 -0.1197 -0.2346
  993MOL0     O30979   0.517   1.604   9.172  1.0540 -0.2260 -0.1966
  993MOL0     C30980   0.442   1.716   9.124  0.2127 -0.4758  0.3541
  993MOL0     C30981   0.301   1.715   9.193 -0.2500 -0.4541 -0.2138
  993MOL0     C30982   0.318   1.743   9.348 -0.4858  0.1374 -0.1645
  993MOL0     C30983   0.179   1.766   9.397 -0.2312 -0.5582 -0.2536
  993MOL0     C30984   0.184   1.767   9.552  0.3501  0.0217 -0.2136
  993MOL0     C30985   0.047   1.782   9.625 -0.1756  0.7688 -0.3122
  993MOL0     C30986   0.057   1.808   9.776 -0.2477 -0.3153 -0.0872
  993MOL0     C30987  -0.079   1.832   9.840  0.0538  0.0744 -0.2696
  993MOL0    Cl30988  -0.173   1.677   9.881 -0.1180 -0.0471  0.4409
  993MOL0     C30989   0.736   1.714   9.125 -0.1044 -0.3512  0.0875
  993MOL0     C30990   0.873   1.692   9.118 -0.4975 -0.1927  0.1164
  993MOL0     O30991   1.079   1.454   8.986 -0.1254 -0.1348 -0.0663
  993MOL0     C30992   1.328   1.521   9.226  0.0521 -0.0510  0.0743
  993MOL0     C30993   1.466   1.502   9.257  0.0924  0.8253 -0.1093
  993MOL0     N30994   2.015   1.702   8.833 -0.2240  0.1678  0.1731
  993MOL0     N30995   2.104   1.677   8.740 -0.3846 -0.3497 -0.9406
  993MOL0     C30996   3.239   1.843   8.717 -0.2999  0.2406  0.6976
  993MOL0     C30997   3.373   1.831   8.680 -0.2069  0.8815  0.2905
  993MOL0     C30998   3.809   1.724   8.641 -0.7333 -1.0881  0.4209
  993MOL0     C30999   3.913   1.809   8.586  0.2049  0.2619  0.0221
  993MOL0     C31000   4.036   1.751   8.556  0.1097 -0.7143  0.2351
  993MOL0     C31001   4.055   1.616   8.571 -0.5209  0.5254 -0.7355
  993MOL0     O31002   4.171   1.554   8.523  0.5574  0.3892  0.3310
  993MOL0     C31003   4.234   1.452   8.608 -0.4116  0.2474 -0.2485
  993MOL0     C31004   4.391   1.456   8.585  0.2967 -0.8479  0.0132
  993MOL0     C31005   4.459   1.361   8.677 -0.0540  0.2005 -0.7461
  993MOL0     C31006   4.607   1.354   8.658  0.3520 -0.2901  0.1577
  993MOL0     C31007   4.676   1.262   8.758 -0.2661 -0.2467  0.7667
  993MOL0     C31008   4.720   1.193   8.846 -0.3162 -0.7926  0.0413
  993MOL0     C31009   3.954   1.541   8.636 -0.4551  0.8402 -0.9044
  993MOL0     C31010   3.835   1.596   8.673  1.1317  1.1393  0.1486
  993MOL0     H31011   3.453   1.581   8.892 -0.4236 -1.7708 -1.2801
  993MOL0     H31012   3.213   1.623   8.961 -2.1102  0.9923 -0.7411
  993MOL0     H31013   2.963   1.831   8.687 -3.1026 -2.5569  0.4188
  993MOL0     H31014   2.963   1.968   8.807 -0.4683 -0.6528  0.6357
  993MOL0     H31015   2.755   1.909   8.849 -2.0803 -0.4989 -0.7114
  993MOL0     H31016   2.805   1.751   8.910  2.0439  0.1066 -0.6427
  993MOL0     H31017   2.811   1.653   8.708 -0.7297 -1.1870  1.2166
  993MOL0     H31018   2.754   1.798   8.619 -0.5610  0.6261  0.7291
  993MOL0     H31019   2.591   1.661   8.831  0.8348  2.5066  1.3368
  993MOL0     H31020   2.529   1.793   8.729 -1.1158 -0.6108  0.3662
  993MOL0     H31021   2.634   1.531   8.632  2.4241  2.1874 -0.7588
  993MOL0     H31022   2.527   1.632   8.536 -1.0381 -0.9637 -0.4141
  993MOL0     H31023   2.385   1.577   8.782 -1.1083 -2.9768  0.4488
  993MOL0     H31024   2.439   1.425   8.732  0.4099 -0.2370  0.5967
  993MOL0     H31025   2.302   1.620   8.533  0.5202 -0.1646 -1.3804
  993MOL0     H31026   2.352   1.452   8.499 -0.4873  0.6846 -0.6083
  993MOL0     H31027   2.185   1.360   8.651 -0.2754 -0.0835  1.9953
  993MOL0     H31028   2.117   1.481   8.549  1.8539 -1.0959 -1.4913
  993MOL0     H31029   2.084   1.387   8.883 -1.3267  1.1490  4.0515
  993MOL0     H31030   1.847   1.458   8.999  0.0258 -0.6095 -1.1020
  993MOL0     H31031   1.826   1.632   9.036 -0.7206 -0.5387 -1.1273
  993MOL0     H31032   1.976   1.641   9.204  1.1136 -0.7379  1.4756
  993MOL0     H31033   2.072   1.524   9.140 -0.5106 -1.0602  1.7924
  993MOL0     H31034   1.925   1.348   9.215  0.1154 -1.1275  2.5405
  993MOL0     H31035   1.966   1.455   9.351  0.9896 -1.2931 -0.6430
  993MOL0     H31036   1.724   1.569   9.289 -1.5918 -0.8439 -0.7926
  993MOL0     H31037   1.730   1.417   9.380 -0.6496  2.1177  2.1877
  993MOL0     H31038   1.552   1.337   8.979  0.4932  1.7534 -1.6511
  993MOL0     H31039   1.327   1.375   8.914  1.1870 -0.2815 -0.4981
  993MOL0     H31040   0.916   1.390   9.256  1.4128  1.8354  3.0421
  993MOL0     H31041   0.651   1.412   9.244  0.5068  0.5562  1.0953
  993MOL0     H31042   0.413   1.706   9.019 -0.8981  1.2475  0.4580
  993MOL0     H31043   0.490   1.812   9.147 -0.1873 -0.2810  0.3802
  993MOL0     H31044   0.256   1.617   9.175  0.0146 -0.4776 -0.8070
  993MOL0     H31045   0.238   1.795   9.153  1.2149  0.8117 -0.1208
  993MOL0     H31046   0.379   1.833   9.354 -0.5481  0.2879 -1.5168
  993MOL0     H31047   0.363   1.661   9.404 -0.8643  1.4684  2.2194
  993MOL0     H31048   0.144   1.864   9.362  1.4547  0.8272  1.7303
  993MOL0     H31049   0.108   1.690   9.362 -1.5775  0.9676 -0.9949
  993MOL0     H31050   0.250   1.847   9.585 -0.7373  0.2221  1.6153
  993MOL0     H31051   0.227   1.671   9.582 -0.4467 -0.8510 -1.7130
  993MOL0     H31052  -0.018   1.694   9.620 -0.1720  0.8552 -3.2021
  993MOL0     H31053   0.003   1.869   9.574  3.9608  1.7303 -2.7075
  993MOL0     H31054   0.112   1.723   9.816  0.8216  0.7146  0.6754
  993MOL0     H31055   0.118   1.898   9.787  0.9007 -1.0725 -0.0824
  993MOL0     H31056  -0.139   1.900   9.779  0.8593  3.8752  2.7785
  993MOL0     H31057  -0.059   1.888   9.932  0.2668 -1.6936  0.8044
  993MOL0     H31058   0.688   1.798   9.076  1.2019  1.6824  2.1018
  993MOL0     H31059   0.930   1.775   9.078 -1.1755  1.2644  2.0327
  993MOL0     H31060   1.264   1.549   9.309 -2.1063 -0.5918 -1.3393
  993MOL0     H31061   1.499   1.534   9.355 -2.4040  0.6518  0.8647
  993MOL0     H31062   3.180   1.920   8.669 -0.0753 -0.5753 -0.9307
  993MOL0     H31063   3.410   1.902   8.607  0.6142 -0.9805 -1.1814
  993MOL0     H31064   3.896   1.914   8.561  2.0049  0.4613 -0.5121
  993MOL0     H31065   4.108   1.815   8.506 -0.6116  0.9623  1.2776
  993MOL0     H31066   4.182   1.356   8.598  1.2961 -0.9524  1.6550
  993MOL0     H31067   4.211   1.478   8.712  0.6430  1.8714 -0.3817
  993MOL0     H31068   4.422   1.425   8.485 -0.0228 -1.4136  0.0917
  993MOL0     H31069   4.431   1.557   8.603  0.4299 -1.1441  1.5293
  993MOL0     H31070   4.421   1.261   8.653  3.0011 -2.1696  2.9760
  993MOL0     H31071   4.439   1.383   8.782  1.2528  0.6584 -0.5713
  993MOL0     H31072   4.616   1.331   8.551 -2.6065  1.8904 -0.6875
  993MOL0     H31073   4.655   1.452   8.666  2.1596 -1.2323  1.6011
  993MOL0     H31074   4.754   1.122   8.919  2.3665 -0.8429 -1.1612
  993MOL0     H31075   3.963   1.437   8.666 -2.7415  0.8263 -0.0767
  993MOL0     H31076   3.758   1.538   8.722  1.0096 -1.5551 -2.8790
  994MOL0     O31077   8.383   0.798   5.190  0.3551 -0.0573  0.4313
  994MOL0     C31078   8.452   0.749   5.101  0.4101  0.3961 -0.5418
  994MOL0     O31079   8.401   0.671   5.007 -0.0142  0.1636 -0.7350
  994MOL0     C31080   8.274   0.622   5.007 -0.1546 -0.5196  0.0267
  994MOL0     C31081   8.196   0.593   5.118 -0.3231  0.1103  0.5027
  994MOL0     C31082   8.060   0.568   5.109  0.0687 -0.0658 -0.6502
  994MOL0     C31083   8.001   0.578   4.986  1.1812 -0.8171 -0.9978
  994MOL0     O31084   7.867   0.549   4.981  0.6508 -0.0885 -0.3553
  994MOL0     C31085   7.803   0.502   4.856 -0.9789 -0.6503  0.9508
  994MOL0     C31086   7.665   0.433   4.883  0.8998  0.2116 -0.4195
  994MOL0     C31087   7.608   0.364   4.755 -0.1351 -0.4116 -0.7034
  994MOL0     C31088   7.458   0.341   4.764 -0.5391  0.4532  0.1395
  994MOL0     C31089   7.407   0.289   4.632 -0.2282 -0.6467 -0.1908
  994MOL0     C31090   7.471   0.158   4.585 -0.4492 -0.1101 -0.8256
  994MOL0     C31091   7.374   0.086   4.487  0.0401 -0.4203 -0.2464
  994MOL0     C31092   7.336   0.173   4.363  0.1849 -0.8848 -0.1186
  994MOL0     N31093   7.454   0.207   4.277 -0.4067 -0.1738 -0.3867
  994MOL0     C31094   7.515   0.332   4.268 -0.6802 -0.2298  0.2892
  994MOL0     C31095   7.610   0.311   4.179 -0.0212  0.9077  0.3568
  994MOL0     C31096   7.715   0.425   4.153 -0.1350  0.0289 -0.4184
  994MOL0     C31097   7.858   0.378   4.178 -0.1658 -0.7481 -0.4322
  994MOL0     C31098   7.946   0.510   4.182  0.1035  0.8375 -0.4155
  994MOL0     C31099   8.097   0.481   4.185  0.2393 -0.4197 -0.0887
  994MOL0     O31100   8.144   0.431   4.059 -0.7718  0.4941  0.2650
  994MOL0     C31101   8.279   0.412   4.040  0.6408 -0.5598 -0.6954
  994MOL0     C31102   8.373   0.516   4.055 -0.4836 -0.5764  1.2959
  994MOL0     C31103   8.510   0.496   4.035  0.2511  0.6059  0.4294
  994MOL0     C31104   8.554   0.373   3.994 -0.3353  0.1213 -0.1397
  994MOL0     C31105   8.697   0.342   3.955 -0.5329  0.0613 -0.1714
  994MOL0     O31106   8.721   0.214   3.918 -0.6649  0.0253  0.0293
  994MOL0     C31107   8.853   0.187   3.901  0.2264 -0.2025 -0.0443
  994MOL0     C31108   8.946   0.159   4.002 -0.0472 -0.2039 -0.1027
  994MOL0     C31109   9.075   0.106   3.975 -0.7313 -0.4498  0.7817
  994MOL0     C31110   9.106   0.073   3.841 -0.3079  0.3199 -0.7886
  994MOL0     O31111   9.236   0.035   3.797  0.7446  0.4936  0.8619
  994MOL0     C31112   9.332   0.018   3.908  0.5883 -0.6865 -0.1939
  994MOL0     C31113   9.472   0.014   3.850 -0.2552 -0.2509  0.7029
  994MOL0     C31114   9.565  -0.038   3.958 -0.5327 -0.0356  0.0662
  994MOL0     C31115   9.701  -0.042   3.908 -0.8494  0.1642  0.9318
  994MOL0     C31116   9.801  -0.092   4.018 -0.2736  0.2930 -0.0983
  994MOL0     C31117   9.794  -0.003   4.151  0.2958  0.0280  0.2474
  994MOL0     C31118   9.891  -0.053   4.249  0.8345  0.2877  0.2838
  994MOL0     C31119   9.868   0.002   4.390  0.2514 -0.0007 -0.2389
  994MOL0    Cl31120   9.928   0.169   4.388 -0.7105  0.0319 -0.1993
  994MOL0     C31121   9.009   0.101   3.739 -0.9463  0.8185 -0.7764
  994MOL0     C31122   8.891   0.163   3.772  0.1845 -0.3867  0.1569
  994MOL0     O31123   8.784   0.436   3.960 -0.1276  0.7572 -0.1557
  994MOL0     C31124   8.457   0.267   3.981 -1.2347  0.4859 -0.9117
  994MOL0     C31125   8.320   0.289   4.002  0.4540 -0.5040  0.1328
  994MOL0     N31126   7.603   0.176   4.133 -0.8473  0.3715  0.0576
  994MOL0     N31127   7.511   0.120   4.191  0.8630  0.6889 -0.7335
  994MOL0     C31128   8.072   0.619   4.875 -0.2333 -0.2920  0.2099
  994MOL0     C31129   8.213   0.631   4.881  0.2767  0.1226 -0.6779
  994MOL0     C31130   8.598   0.778   5.103  0.4251  0.2879  0.0826
  994MOL0     C31131   8.692   0.703   5.031 -0.0573  0.3599 -1.2992
  994MOL0     C31132   8.824   0.724   5.039 -0.1306 -0.2533 -0.7324
  994MOL0     C31133   8.879   0.820   5.133 -1.0452  1.1474  0.7986
  994MOL0     O31134   9.010   0.857   5.145  0.5941 -0.3943 -0.4224
  994MOL0     C31135   9.105   0.805   5.048 -1.1370  0.3454  0.3085
  994MOL0     C31136   9.239   0.877   5.060 -0.2224 -0.5381 -0.1606
  994MOL0     C31137   9.296   0.894   5.204 -0.3595  0.2415 -0.5968
  994MOL0     C31138   9.430   0.961   5.201 -0.4200 -0.2931 -0.4335
  994MOL0     C31139   9.538   0.901   5.119  0.2703  1.2917  0.7863
  994MOL0     C31140   9.638   0.862   5.071 -0.4646 -0.3073  0.1292
  994MOL0     C31141   8.786   0.896   5.204  0.3761  0.1921  0.0923
  994MOL0     C31142   8.648   0.869   5.199 -0.7278 -1.4607 -0.4741
  994MOL0     H31143   8.234   0.600   5.219 -0.2454 -0.0921  0.4871
  994MOL0     H31144   7.999   0.562   5.199 -0.1684  0.5645 -0.7632
  994MOL0     H31145   7.871   0.428   4.815  0.3854  1.4886 -0.9056
  994MOL0     H31146   7.786   0.583   4.784 -0.7034 -2.0782 -0.7701
  994MOL0     H31147   7.591   0.511   4.905 -0.8360 -0.9755 -1.6908
  994MOL0     H31148   7.679   0.364   4.966 -1.7557  1.1912  0.9727
  994MOL0     H31149   7.655   0.270   4.728  1.9215  0.0410  0.9956
  994MOL0     H31150   7.624   0.425   4.665  1.7820 -1.4222 -1.0840
  994MOL0     H31151   7.433   0.259   4.832 -1.8993  0.1376 -0.6915
  994MOL0     H31152   7.395   0.428   4.783 -1.5299 -0.5951  1.8831
  994MOL0     H31153   7.439   0.366   4.562 -1.8376  2.4452  2.1856
  994MOL0     H31154   7.298   0.277   4.633 -0.5396  0.9783 -3.2194
  994MOL0     H31155   7.482   0.097   4.675  0.1776 -0.3760 -1.0735
  994MOL0     H31156   7.569   0.169   4.537 -0.4154  0.3676 -0.6466
  994MOL0     H31157   7.418  -0.004   4.443  1.4759 -0.1806  0.6518
  994MOL0     H31158   7.277   0.053   4.525 -0.0813 -0.7886 -0.8586
  994MOL0     H31159   7.296   0.267   4.402 -1.4594 -2.1586  1.3675
  994MOL0     H31160   7.254   0.128   4.307 -3.4805  2.1839  2.2336
  994MOL0     H31161   7.496   0.426   4.319 -0.3449  0.3615 -0.6638
  994MOL0     H31162   7.709   0.522   4.204  3.6942  2.2103 -3.5413
  994MOL0     H31163   7.708   0.456   4.049  1.5132  1.6334 -0.1026
  994MOL0     H31164   7.891   0.313   4.096  1.1329  2.7396 -2.9045
  994MOL0     H31165   7.861   0.317   4.269  0.3713 -0.7068 -0.4209
  994MOL0     H31166   7.933   0.576   4.097 -1.0902  0.6282 -0.4165
  994MOL0     H31167   7.927   0.563   4.276 -0.3939 -1.0326  0.6036
  994MOL0     H31168   8.121   0.403   4.258  0.7766 -0.3256 -0.1655
  994MOL0     H31169   8.138   0.579   4.210 -3.8704  1.0268  1.8500
  994MOL0     H31170   8.339   0.616   4.079 -1.3534  0.8575 -4.4513
  994MOL0     H31171   8.570   0.581   4.067  0.6185  0.3160  0.5270
  994MOL0     H31172   8.918   0.178   4.105 -2.0809 -1.1655 -0.4373
  994MOL0     H31173   9.144   0.093   4.058  1.7099 -3.2393 -1.4820
  994MOL0     H31174   9.302  -0.072   3.961 -2.7138  0.2844 -0.1658
  994MOL0     H31175   9.331   0.106   3.974  2.0347 -1.2315  0.6109
  994MOL0     H31176   9.506   0.113   3.820  0.2553  0.2707  2.7965
  994MOL0     H31177   9.473  -0.056   3.766  1.8147 -0.6047  0.9660
  994MOL0     H31178   9.535  -0.135   4.000 -0.9152  1.0924  2.5393
  994MOL0     H31179   9.557   0.032   4.041 -0.3006 -1.8680  1.6957
  994MOL0     H31180   9.693  -0.113   3.826 -1.0436  1.7331 -0.4573
  994MOL0     H31181   9.732   0.053   3.863  2.1931 -0.1687  2.0088
  994MOL0     H31182   9.905  -0.095   3.984  0.2124  1.2890  1.2171
  994MOL0     H31183   9.774  -0.197   4.035 -2.0974  0.5694 -1.0944
  994MOL0     H31184   9.691   0.007   4.187  0.4896 -1.6509  1.3626
  994MOL0     H31185   9.816   0.102   4.130  2.7570 -0.1498  1.6503
  994MOL0     H31186   9.893  -0.163   4.255  1.3699  0.3261  1.0746
  994MOL0     H31187   9.990  -0.017   4.219  1.5058 -0.4247  1.5086
  994MOL0     H31188   9.927  -0.057   4.461 -1.8951  0.1013  1.7696
  994MOL0     H31189   9.764  -0.007   4.423 -0.9927  1.6855 -3.2976
  994MOL0     H31190   9.028   0.079   3.634  1.4483  0.6511 -0.3656
  994MOL0     H31191   8.824   0.177   3.688  0.7270  0.4871 -0.1401
  994MOL0     H31192   8.491   0.166   3.959  0.6493  0.9556 -0.3247
  994MOL0     H31193   8.246   0.215   3.972 -1.5309  1.0013  1.0732
  994MOL0     H31194   8.025   0.647   4.782 -2.3306 -0.2077  1.2387
  994MOL0     H31195   8.279   0.648   4.797  1.0759 -3.6265 -0.9985
  994MOL0     H31196   8.662   0.625   4.961 -2.2458 -0.2203  0.1763
  994MOL0     H31197   8.887   0.655   4.983  1.2752 -1.6971  2.3453
  994MOL0     H31198   9.071   0.824   4.946  3.2070 -1.0205 -1.6225
  994MOL0     H31199   9.117   0.696   5.058 -0.7177  0.4839  1.4185
  994MOL0     H31200   9.313   0.826   4.998 -0.5583 -0.9713 -0.2120
  994MOL0     H31201   9.217   0.974   5.016 -1.6933 -1.6400 -1.9905
  994MOL0     H31202   9.319   0.796   5.246 -1.8331 -0.4735 -1.3881
  994MOL0     H31203   9.222   0.943   5.269 -0.1883 -0.5446  0.2145
  994MOL0     H31204   9.419   1.066   5.172  3.4844 -0.4903 -3.5119
  994MOL0     H31205   9.473   0.958   5.302 -1.7177 -1.0354  0.1292
  994MOL0     H31206   9.730   0.822   5.033  1.5102  1.8314  2.3171
  994MOL0     H31207   8.829   0.970   5.271  1.7064 -0.5402  0.0863
  994MOL0     H31208   8.580   0.913   5.272  0.5463 -3.0667  1.8145
  995MOL0     O31209   4.964   5.379   7.030 -0.0970 -0.3598  0.1400
  995MOL0     C31210   4.991   5.464   6.941  0.3640  0.5712  0.1861
  995MOL0     O31211   4.902   5.523   6.861  0.3179 -0.2823 -0.1018
  995MOL0     C31212   4.769   5.483   6.870 -0.7226  0.6613  0.4884
  995MOL0     C31213   4.715   5.421   6.754  0.4464  0.1891  0.1508
  995MOL0     C31214   4.591   5.361   6.760 -0.3341  0.3925  0.5910
  995MOL0     C31215   4.528   5.358   6.879 -0.3319 -0.2430 -1.0008
  995MOL0     O31216   4.415   5.280   6.898 -0.6123  0.4832 -0.2625
  995MOL0     C31217   4.294   5.336   6.854  0.2786 -0.0777  0.7930
  995MOL0     C31218   4.181   5.337   6.961  0.0023 -0.4225  0.3111
  995MOL0     C31219   4.044   5.380   6.892  0.2591  0.3074 -0.2202
  995MOL0     C31220   3.936   5.395   6.990  0.3975  0.2849  0.3432
  995MOL0     C31221   3.795   5.414   6.920 -0.1991  0.2275  0.4146
  995MOL0     C31222   3.690   5.450   7.027  0.1441 -0.2525 -0.2335
  995MOL0     C31223   3.541   5.441   6.998 -0.3911 -0.1733 -0.4782
  995MOL0     C31224   3.459   5.433   7.130 -1.2147 -0.4122  0.3521
  995MOL0     N31225   3.466   5.549   7.212  0.2497  0.3141  0.2457
  995MOL0     C31226   3.505   5.540   7.342  0.2464 -0.9050  0.1032
  995MOL0     C31227   3.497   5.666   7.389  0.1417  0.0355  0.0792
  995MOL0     C31228   3.542   5.699   7.531 -0.2987 -1.3898  0.5580
  995MOL0     C31229   3.421   5.718   7.626  0.0990 -0.3444 -0.4464
  995MOL0     C31230   3.335   5.588   7.644 -0.0731  0.2025 -0.4786
  995MOL0     C31231   3.190   5.604   7.604 -0.3732  0.3303  0.2749
  995MOL0     O31232   3.113   5.487   7.632  0.5992  0.1023 -0.2640
  995MOL0     C31233   2.975   5.498   7.647  0.0938  0.6861  0.3135
  995MOL0     C31234   2.909   5.395   7.712 -0.8406  0.3482 -0.5703
  995MOL0     C31235   2.767   5.391   7.723 -0.4140 -0.5396  0.2906
  995MOL0     C31236   2.686   5.493   7.683  0.6677 -0.8890  0.0116
  995MOL0     C31237   2.547   5.501   7.738  0.3111 -0.2890 -0.8567
  995MOL0     O31238   2.482   5.624   7.716 -0.0751  0.1643 -0.1628
  995MOL0     C31239   2.367   5.644   7.779 -0.4983 -0.4250 -0.6766
  995MOL0     C31240   2.259   5.675   7.702  0.1264  0.1258  0.3661
  995MOL0     C31241   2.134   5.687   7.759 -1.0194  0.2047 -0.7367
  995MOL0     C31242   2.111   5.673   7.900 -0.6667  0.6976 -1.1214
  995MOL0     O31243   1.995   5.696   7.968  0.5258 -0.2585  0.3255
  995MOL0     C31244   1.877   5.632   7.923  0.6183 -0.6856  0.6874
  995MOL0     C31245   1.759   5.729   7.928  0.5019 -0.5661 -0.1147
  995MOL0     C31246   1.729   5.788   7.787  0.3203 -0.1897 -0.1652
  995MOL0     C31247   1.612   5.880   7.782 -1.1002  0.4459 -0.7870
  995MOL0     C31248   1.480   5.814   7.817  0.2305  0.0057 -0.4020
  995MOL0     C31249   1.368   5.889   7.738  0.2836 -0.3466  0.1991
  995MOL0     C31250   1.364   6.044   7.733 -0.3951 -0.3467  0.3814
  995MOL0     C31251   1.293   6.105   7.855 -0.1635  0.3409 -0.0717
  995MOL0    Cl31252   1.319   6.283   7.866 -0.0761  0.0739  0.4634
  995MOL0     C31253   2.224   5.646   7.981  0.2429 -0.2555  0.2817
  995MOL0     C31254   2.351   5.627   7.924  0.1260 -0.6645  0.6245
  995MOL0     O31255   2.492   5.399   7.788 -0.4345 -0.0245  0.4308
  995MOL0     C31256   2.753   5.599   7.619 -0.0883 -0.2216 -0.1255
  995MOL0     C31257   2.894   5.602   7.610 -0.3274  0.1391 -0.0261
  995MOL0     N31258   3.446   5.755   7.284 -0.2414  1.3233 -0.5519
  995MOL0     N31259   3.424   5.675   7.186  0.1684 -0.2776 -0.2895
  995MOL0     C31260   4.577   5.427   6.988  0.1962 -0.0126 -0.3872
  995MOL0     C31261   4.702   5.492   6.989  0.7381  0.4571  0.0881
  995MOL0     C31262   5.136   5.481   6.914  0.4081 -0.3159  0.4824
  995MOL0     C31263   5.183   5.583   6.837 -0.1712  0.1999  0.1734
  995MOL0     C31264   5.313   5.596   6.798 -0.4125 -0.4305 -0.2636
  995MOL0     C31265   5.409   5.515   6.852 -0.6118  0.7796 -0.1109
  995MOL0     O31266   5.540   5.497   6.810  0.0332  0.2513 -0.1225
  995MOL0     C31267   5.592   5.584   6.706 -0.9991 -0.3239 -0.1244
  995MOL0     C31268   5.743   5.568   6.700 -1.1073  0.3082  0.0195
  995MOL0     C31269   5.827   5.678   6.636  0.2526  0.4616  0.9984
  995MOL0     C31270   5.977   5.658   6.642  0.8958  0.0062  0.4733
  995MOL0     C31271   6.024   5.529   6.590 -0.2696 -0.9532  0.9169
  995MOL0     C31272   6.068   5.432   6.529  0.2960  0.1047 -0.0432
  995MOL0     C31273   5.366   5.424   6.950  0.6217  0.3673  0.3481
  995MOL0     C31274   5.231   5.402   6.983 -0.0199 -0.5549  0.0329
  995MOL0     H31275   4.773   5.420   6.663  1.2761  0.2160  0.6736
  995MOL0     H31276   4.551   5.306   6.675  0.1347 -0.6144  1.0101
  995MOL0     H31277   4.267   5.287   6.761  0.4949  1.5682 -0.1704
  995MOL0     H31278   4.328   5.437   6.829 -0.3221  0.7572  3.0599
  995MOL0     H31279   4.211   5.401   7.044  0.9789  0.1019 -0.4102
  995MOL0     H31280   4.165   5.238   7.005 -0.3189 -0.6235 -0.2469
  995MOL0     H31281   4.018   5.300   6.822 -1.8539  0.6075  0.1728
  995MOL0     H31282   4.062   5.465   6.826  1.0256 -1.2524 -2.1263
  995MOL0     H31283   3.933   5.314   7.064  1.3077 -0.1549 -0.0814
  995MOL0     H31284   3.948   5.489   7.045  0.8271  0.6366 -0.3440
  995MOL0     H31285   3.757   5.321   6.879  1.0665 -1.3427  2.5921
  995MOL0     H31286   3.805   5.482   6.835  0.7573 -0.7018 -0.2454
  995MOL0     H31287   3.708   5.552   7.064 -1.2895 -0.2177  0.4673
  995MOL0     H31288   3.708   5.391   7.118 -3.1007  0.0314  0.7281
  995MOL0     H31289   3.513   5.525   6.933  1.3866  0.5390 -0.3798
  995MOL0     H31290   3.524   5.349   6.942 -3.7252  0.7054 -1.1235
  995MOL0     H31291   3.493   5.339   7.174 -0.8667 -1.0863 -1.2648
  995MOL0     H31292   3.354   5.410   7.108 -1.6139  0.4133  1.3464
  995MOL0     H31293   3.535   5.448   7.391  0.5894 -0.3349  0.9900
  995MOL0     H31294   3.598   5.793   7.522 -1.9035 -0.4966 -0.6593
  995MOL0     H31295   3.604   5.615   7.564 -0.2309 -1.0675  1.2643
  995MOL0     H31296   3.363   5.800   7.584  0.6857  0.2448 -0.1315
  995MOL0     H31297   3.457   5.753   7.723 -0.7098  2.7861 -1.1481
  995MOL0     H31298   3.383   5.502   7.596 -0.6001 -1.6149  2.0554
  995MOL0     H31299   3.338   5.571   7.752  0.7408  2.0248 -0.1878
  995MOL0     H31300   3.174   5.623   7.498 -2.5036  0.0466  0.4962
  995MOL0     H31301   3.146   5.688   7.658 -0.3573  0.3461  0.2628
  995MOL0     H31302   2.962   5.305   7.743 -2.5906 -0.5202  0.0075
  995MOL0     H31303   2.730   5.299   7.766  0.2776 -1.8810 -1.8195
  995MOL0     H31304   2.270   5.687   7.595  0.2750 -1.1779  0.2250
  995MOL0     H31305   2.052   5.702   7.690  0.7816  3.4133 -2.3873
  995MOL0     H31306   1.850   5.545   7.984  0.7508 -0.3502  1.2321
  995MOL0     H31307   1.887   5.592   7.822 -0.7308  0.2304  0.1580
  995MOL0     H31308   1.789   5.806   7.999  1.8788 -0.5545 -0.6768
  995MOL0     H31309   1.669   5.676   7.959  1.1218 -2.4343 -1.3285
  995MOL0     H31310   1.722   5.705   7.716 -2.5617  0.8112 -1.1979
  995MOL0     H31311   1.806   5.859   7.755 -2.6220  2.7979 -1.1683
  995MOL0     H31312   1.634   5.968   7.845 -1.2609  0.0602 -0.1811
  995MOL0     H31313   1.611   5.914   7.678  2.5021 -3.0132 -2.2047
  995MOL0     H31314   1.460   5.829   7.924 -0.7762 -2.1414 -0.2247
  995MOL0     H31315   1.479   5.708   7.790 -1.1563 -0.1984  0.3672
  995MOL0     H31316   1.271   5.846   7.764  0.9444 -2.1057 -0.0944
  995MOL0     H31317   1.383   5.850   7.636 -1.1607 -1.1053  0.2475
  995MOL0     H31318   1.468   6.074   7.717  0.2568 -1.3002  2.5340
  995MOL0     H31319   1.314   6.085   7.645 -2.0128  2.0588  2.2949
  995MOL0     H31320   1.326   6.065   7.952  1.9119 -1.6360 -1.4702
  995MOL0     H31321   1.187   6.082   7.845 -0.0172  0.2306 -1.4763
  995MOL0     H31322   2.220   5.637   8.090 -1.0395 -0.5601  0.2331
  995MOL0     H31323   2.424   5.584   7.991 -1.3057 -1.2133  1.8986
  995MOL0     H31324   2.702   5.688   7.583  0.5596  1.2205  2.3113
  995MOL0     H31325   2.935   5.684   7.552  0.3720 -0.5421 -0.5167
  995MOL0     H31326   4.510   5.434   7.074 -0.3841 -2.4091 -0.5838
  995MOL0     H31327   4.742   5.555   7.068  4.1173 -0.4419 -0.7601
  995MOL0     H31328   5.110   5.653   6.797  1.1225  0.8916 -1.0698
  995MOL0     H31329   5.333   5.664   6.716  2.8512  0.4171  1.0858
  995MOL0     H31330   5.574   5.686   6.743  3.1985  1.0742 -1.3603
  995MOL0     H31331   5.543   5.550   6.614 -0.7773 -2.5386  0.5218
  995MOL0     H31332   5.767   5.546   6.805 -0.1453 -0.4069 -0.3387
  995MOL0     H31333   5.758   5.477   6.642 -1.9203  1.2919 -1.8192
  995MOL0     H31334   5.800   5.768   6.691 -1.7073  0.8531 -0.4739
  995MOL0     H31335   5.803   5.691   6.530  0.8704 -5.0623 -0.1287
  995MOL0     H31336   6.025   5.740   6.587  1.9525 -1.6106 -1.1434
  995MOL0     H31337   6.017   5.670   6.743  0.2486  1.1101  0.6211
  995MOL0     H31338   6.097   5.346   6.471 -0.8802 -0.1785 -0.2466
  995MOL0     H31339   5.435   5.358   7.002  0.7170  0.2200  0.0398
  995MOL0     H31340   5.201   5.322   7.050 -0.9971 -1.4672 -1.4173
  996MOL0     O31341  10.363   1.233   8.088 -0.0660  0.1817  0.2638
  996MOL0     C31342  10.392   1.342   8.124  0.5495  0.1619  0.5089
  996MOL0     O31343  10.307   1.445   8.155  0.0456 -0.3047  0.2512
  996MOL0     C31344  10.176   1.428   8.180  0.9492  0.1699  0.4160
  996MOL0     C31345  10.119   1.312   8.223 -0.4129 -0.1126  0.3808
  996MOL0     C31346   9.978   1.307   8.259 -0.1582 -0.3485  0.4248
  996MOL0     C31347   9.903   1.424   8.250  1.1027 -0.4307  0.7304
  996MOL0     O31348   9.774   1.437   8.289  0.5301 -0.2069 -0.2341
  996MOL0     C31349   9.724   1.327   8.368 -0.1993 -0.5482  0.2876
  996MOL0     C31350   9.602   1.367   8.441 -0.1645  0.2418 -1.0334
  996MOL0     C31351   9.536   1.243   8.501  0.2927  0.1974  0.4188
  996MOL0     C31352   9.425   1.295   8.593  0.9527  0.7663  0.0885
  996MOL0     C31353   9.311   1.190   8.588 -0.2150 -0.0458  0.0114
  996MOL0     C31354   9.181   1.232   8.677  0.1068  0.7585  0.7925
  996MOL0     C31355   9.046   1.225   8.599  0.3021  0.4975  0.3758
  996MOL0     C31356   9.035   1.334   8.484 -0.0443  0.9938  0.4306
  996MOL0     N31357   8.916   1.326   8.393 -0.3593 -0.2170 -0.1928
  996MOL0     C31358   8.790   1.328   8.431 -0.1243  0.3546  0.3399
  996MOL0     C31359   8.722   1.320   8.317  0.2507 -0.0800  0.2616
  996MOL0     C31360   8.573   1.323   8.311 -0.3676  0.3215  0.1450
  996MOL0     C31361   8.520   1.457   8.257 -0.2166  0.9294 -0.0464
  996MOL0     C31362   8.554   1.570   8.353  1.0225 -0.6324 -0.1591
  996MOL0     C31363   8.469   1.577   8.487  0.2524 -0.1100  0.0164
  996MOL0     O31364   8.534   1.490   8.581  0.4687  1.0142  0.2494
  996MOL0     C31365   8.456   1.433   8.680 -0.4917 -0.1378  0.3576
  996MOL0     C31366   8.347   1.499   8.737 -0.9153  0.0275 -0.4467
  996MOL0     C31367   8.268   1.445   8.845 -0.2380 -0.3890  0.7508
  996MOL0     C31368   8.295   1.313   8.894  0.4705 -0.0091 -0.3048
  996MOL0     C31369   8.203   1.246   8.994  0.0830 -0.9794 -0.3220
  996MOL0     O31370   8.097   1.313   9.053  0.6058 -0.8350  0.0695
  996MOL0     C31371   8.031   1.278   9.174  0.4384 -0.5795  0.4375
  996MOL0     C31372   7.986   1.379   9.259  0.1388 -0.2100  0.0685
  996MOL0     C31373   7.930   1.345   9.381 -0.1494 -0.0369 -0.0290
  996MOL0     C31374   7.915   1.211   9.422 -0.1401 -0.4710  0.6313
  996MOL0     O31375   7.858   1.176   9.547 -0.7450  0.0053 -0.2219
  996MOL0     C31376   7.839   1.279   9.651  0.4985  0.5699  0.5759
  996MOL0     C31377   7.798   1.216   9.785 -0.3542 -1.0138 -0.5748
  996MOL0     C31378   7.770   1.325   9.891 -0.6187  0.3491  0.1504
  996MOL0     C31379   7.699   1.278  10.006  0.3342  0.1777  0.5867
  996MOL0     C31380   7.776   1.158  10.071  0.5293  0.8946  0.4817
  996MOL0     C31381   7.690   1.124  10.197  0.0211  0.2497  0.4650
  996MOL0     C31382   7.762   1.025  10.283 -0.4319 -0.1334  0.1804
  996MOL0     C31383   7.671   0.969  10.388  0.1581 -0.0845 -0.1939
  996MOL0    Cl31384   7.751   0.833  10.471  0.0657  0.1898 -0.1043
  996MOL0     C31385   7.943   1.111   9.330 -0.1568  0.7811 -0.1376
  996MOL0     C31386   8.015   1.149   9.215 -0.3184  0.3173 -0.1580
  996MOL0     O31387   8.232   1.127   9.021 -1.2827 -0.4263 -1.1406
  996MOL0     C31388   8.406   1.239   8.831 -0.3669 -0.4510 -0.1983
  996MOL0     C31389   8.486   1.304   8.732  0.0195 -0.0033  0.7269
  996MOL0     N31390   8.805   1.325   8.206  0.6445  0.6448 -0.0277
  996MOL0     N31391   8.930   1.317   8.254  0.1796  0.2342  0.0167
  996MOL0     C31392   9.957   1.538   8.202 -0.0492 -0.3163  0.1901
  996MOL0     C31393  10.084   1.535   8.156 -0.3628  0.4455  0.0027
  996MOL0     C31394  10.535   1.382   8.140  0.3993  0.8444 -0.5553
  996MOL0     C31395  10.572   1.512   8.180 -0.8139 -0.1225  0.5033
  996MOL0     C31396  10.712   1.542   8.171  0.7644 -0.2514  0.4836
  996MOL0     C31397  10.813   1.459   8.129  0.2580  0.4068  0.6718
  996MOL0     O31398  10.937   1.510   8.100 -0.2884  0.1521 -0.4297
  996MOL0     C31399  11.046   1.423   8.144  0.3516 -0.2897  0.2512
  996MOL0     C31400  11.177   1.505   8.180  0.2311  1.2591  0.3923
  996MOL0     C31401  11.153   1.579   8.306 -0.4680  1.0086  0.1933
  996MOL0     C31402  11.110   1.720   8.264  0.3198  0.1640  0.7116
  996MOL0     C31403  11.059   1.798   8.380 -0.8978  0.0304  0.3358
  996MOL0     C31404  11.005   1.856   8.471  0.2741 -0.3934  0.2036
  996MOL0     C31405  10.771   1.330   8.094  0.4046 -0.2450  0.5009
  996MOL0     C31406  10.635   1.285   8.106  0.6002  0.1529  0.2585
  996MOL0     H31407  10.184   1.228   8.243  0.1394  0.2891  0.2765
  996MOL0     H31408   9.939   1.211   8.291  0.0955 -0.4471  0.4424
  996MOL0     H31409   9.784   1.291   8.452  1.9677  3.1381  0.5227
  996MOL0     H31410   9.705   1.243   8.300 -0.2039  1.2565 -2.0798
  996MOL0     H31411   9.529   1.415   8.375 -1.3713  0.4113  0.3958
  996MOL0     H31412   9.629   1.438   8.519 -0.4063  1.7379 -2.2594
  996MOL0     H31413   9.609   1.175   8.547 -0.8751 -0.4196  1.4362
  996MOL0     H31414   9.493   1.193   8.413 -2.7654  2.4251  0.4720
  996MOL0     H31415   9.454   1.310   8.697  0.5831 -0.2584  0.3419
  996MOL0     H31416   9.384   1.390   8.557 -0.5420  0.1672  0.1709
  996MOL0     H31417   9.348   1.092   8.619  1.1399 -0.1131 -1.6922
  996MOL0     H31418   9.277   1.182   8.484  0.9911  1.2073 -0.5114
  996MOL0     H31419   9.187   1.334   8.716 -1.7808  2.0796 -2.0975
  996MOL0     H31420   9.177   1.172   8.769  0.4729 -0.8409 -0.1923
  996MOL0     H31421   9.036   1.123   8.561 -0.7458  1.0170 -0.7969
  996MOL0     H31422   8.959   1.234   8.664  0.9374 -2.0574  1.6823
  996MOL0     H31423   9.117   1.332   8.412 -1.6455 -0.3616 -1.4831
  996MOL0     H31424   9.027   1.433   8.529  1.6491 -0.3394  4.1052
  996MOL0     H31425   8.744   1.327   8.529 -2.4304  1.1938 -0.6547
  996MOL0     H31426   8.528   1.300   8.408  1.3085  2.0711  1.4139
  996MOL0     H31427   8.542   1.245   8.241  2.1303 -0.1658 -0.4954
  996MOL0     H31428   8.412   1.454   8.237 -0.2337  1.4299 -0.0347
  996MOL0     H31429   8.558   1.478   8.157 -1.8986 -0.1172 -0.9593
  996MOL0     H31430   8.662   1.574   8.368  1.0024  1.1871 -0.2957
  996MOL0     H31431   8.521   1.659   8.299 -0.4641 -0.0324  1.6209
  996MOL0     H31432   8.366   1.550   8.463  0.1919  1.2367 -1.3770
  996MOL0     H31433   8.466   1.680   8.523 -0.8952 -0.4543  0.9846
  996MOL0     H31434   8.311   1.593   8.695  0.0796  1.9836  2.7129
  996MOL0     H31435   8.186   1.503   8.886 -1.1552 -0.2040 -1.2019
  996MOL0     H31436   7.997   1.483   9.228  0.0840 -1.0458 -3.1620
  996MOL0     H31437   7.893   1.419   9.452 -1.0056 -2.0585  1.7410
  996MOL0     H31438   7.757   1.345   9.621 -0.5056 -0.5559  0.8000
  996MOL0     H31439   7.926   1.343   9.670  0.2579  1.5511 -1.3778
  996MOL0     H31440   7.876   1.147   9.819 -0.8107 -0.8256  0.8865
  996MOL0     H31441   7.706   1.158   9.771 -0.6611 -1.0984  1.5194
  996MOL0     H31442   7.704   1.400   9.847  0.3219 -0.1368 -2.2870
  996MOL0     H31443   7.868   1.368   9.910  0.4168 -1.6342 -0.3724
  996MOL0     H31444   7.693   1.362  10.075 -0.8342  0.8552 -0.3021
  996MOL0     H31445   7.596   1.251   9.982  0.4888  0.7002 -0.7550
  996MOL0     H31446   7.879   1.181  10.100  1.2155 -1.8793  0.4590
  996MOL0     H31447   7.777   1.067  10.010  1.1354 -1.8105  4.2196
  996MOL0     H31448   7.602   1.069  10.163 -0.2426  0.6123  0.5662
  996MOL0     H31449   7.657   1.213  10.251  1.5032  0.6536  0.7736
  996MOL0     H31450   7.809   0.945  10.224 -0.9792 -0.9503  0.8245
  996MOL0     H31451   7.836   1.088  10.332  2.4556 -1.1886 -2.5329
  996MOL0     H31452   7.572   0.943  10.350 -0.9542  1.2159  1.6388
  996MOL0     H31453   7.659   1.051  10.460  2.5648 -0.2419  0.4741
  996MOL0     H31454   7.925   1.006   9.354  0.9726  0.5931 -0.0867
  996MOL0     H31455   8.058   1.068   9.157 -0.7878 -0.5247  0.6242
  996MOL0     H31456   8.419   1.136   8.861 -2.5013 -1.4064 -2.2032
  996MOL0     H31457   8.569   1.247   8.693 -1.1320 -0.8203 -0.6321
  996MOL0     H31458   9.892   1.625   8.198  0.0198 -0.3004 -0.9206
  996MOL0     H31459  10.118   1.630   8.118  4.0389 -0.8094  0.2822
  996MOL0     H31460  10.502   1.588   8.213 -0.7342  0.3542 -0.4153
  996MOL0     H31461  10.717   1.649   8.187 -2.7855 -0.2347  2.4804
  996MOL0     H31462  11.055   1.357   8.057 -0.8447 -0.2894  0.1090
  996MOL0     H31463  11.013   1.370   8.235 -1.7421  2.0022  0.9358
  996MOL0     H31464  11.256   1.431   8.199  1.0403  2.1958  0.7750
  996MOL0     H31465  11.215   1.557   8.092  0.4147 -0.3717 -0.5261
  996MOL0     H31466  11.243   1.601   8.364 -0.9094  1.8265  0.5893
  996MOL0     H31467  11.081   1.541   8.379  2.7587  0.4912  3.4227
  996MOL0     H31468  11.194   1.773   8.218 -2.7103  2.3811 -2.8866
  996MOL0     H31469  11.027   1.717   8.192 -1.1082 -0.5419  2.3107
  996MOL0     H31470  10.961   1.903   8.557 -2.3308  1.0264 -1.7644
  996MOL0     H31471  10.847   1.258   8.065  2.4437  1.6349  0.9130
  996MOL0     H31472  10.611   1.181   8.089  1.2006  0.2136 -1.1076
  997MOL0     O31473   4.156   2.818   2.970  0.4806  0.7314 -0.0481
  997MOL0     C31474   4.073   2.773   2.888 -0.7033 -0.2915 -0.6920
  997MOL0     O31475   4.106   2.686   2.791 -0.0786  0.6015  0.4809
  997MOL0     C31476   4.233   2.635   2.782  0.4675 -0.4824  0.3094
  997MOL0     C31477   4.285   2.558   2.891  0.5739 -0.3089  0.1363
  997MOL0     C31478   4.413   2.502   2.877  0.5095  0.2901 -0.1362
  997MOL0     C31479   4.491   2.529   2.765 -0.3493 -0.0047  0.0887
  997MOL0     O31480   4.608   2.457   2.763  0.3663  0.1560 -0.5114
  997MOL0     C31481   4.730   2.520   2.713 -0.0233 -0.2152 -0.0608
  997MOL0     C31482   4.768   2.641   2.799  0.3096  0.8482  0.0505
  997MOL0     C31483   4.931   2.667   2.779  0.3737  1.0464  0.0497
  997MOL0     C31484   4.977   2.801   2.827 -0.1641 -0.0303  0.2241
  997MOL0     C31485   4.941   2.850   2.971  0.5511 -0.2566 -0.1452
  997MOL0     C31486   5.018   2.979   3.005  0.3634 -0.1027 -0.5053
  997MOL0     C31487   4.957   3.042   3.130  0.4376 -1.2247  0.8221
  997MOL0     C31488   4.819   3.091   3.106 -0.7029  0.3384  0.4631
  997MOL0     N31489   4.759   3.166   3.216 -0.3403  0.5050  0.5413
  997MOL0     C31490   4.735   3.105   3.340 -0.2032  0.0454  0.1290
  997MOL0     C31491   4.672   3.202   3.416 -0.7087  0.0999  0.4539
  997MOL0     C31492   4.618   3.181   3.556 -0.3965 -0.3332 -0.1282
  997MOL0     C31493   4.463   3.167   3.575  0.1752  0.0291  0.2795
  997MOL0     C31494   4.398   3.292   3.528  0.1787 -0.3886 -0.5354
  997MOL0     C31495   4.248   3.290   3.551  0.2535  0.1792 -0.1527
  997MOL0     O31496   4.188   3.404   3.482 -0.7484 -0.0714  0.4139
  997MOL0     C31497   4.053   3.427   3.506 -0.1527  0.4188  0.4341
  997MOL0     C31498   3.997   3.550   3.455 -0.2443  0.3330  0.4408
  997MOL0     C31499   3.865   3.580   3.472 -0.6258  0.4245  0.1895
  997MOL0     C31500   3.775   3.485   3.523  0.4827 -0.4163 -0.4734
  997MOL0     C31501   3.638   3.522   3.538 -0.1861  0.0838 -0.0003
  997MOL0     O31502   3.555   3.432   3.596  0.0028 -0.5982 -0.1081
  997MOL0     C31503   3.414   3.452   3.602  0.0350 -0.5147 -0.1859
  997MOL0     C31504   3.360   3.536   3.695  0.6440 -0.7905  0.3180
  997MOL0     C31505   3.219   3.561   3.700 -0.1813 -0.4491 -0.1894
  997MOL0     C31506   3.132   3.480   3.615  0.5248 -0.1465 -0.1635
  997MOL0     O31507   2.990   3.469   3.620 -0.0750  0.0163 -0.3418
  997MOL0     C31508   2.937   3.517   3.748 -0.1260  0.5626  1.2376
  997MOL0     C31509   2.779   3.519   3.758 -0.4651  0.0791 -0.0096
  997MOL0     C31510   2.726   3.388   3.703 -0.1137 -0.3043 -0.5971
  997MOL0     C31511   2.587   3.362   3.763 -0.5818  0.0821 -0.8670
  997MOL0     C31512   2.518   3.238   3.713  1.2030  0.4417  0.0482
  997MOL0     C31513   2.441   3.158   3.828  0.2607  0.9346 -0.0479
  997MOL0     C31514   2.333   3.235   3.897 -0.1397 -0.5731 -0.7132
  997MOL0     C31515   2.223   3.151   3.966  0.0078 -0.0565 -1.4501
  997MOL0    Cl31516   2.078   3.243   4.006 -0.0044  0.2431  0.0473
  997MOL0     C31517   3.194   3.398   3.523 -0.9064  0.7560 -0.0856
  997MOL0     C31518   3.333   3.381   3.513 -0.1140 -0.9177  0.0836
  997MOL0     O31519   3.609   3.642   3.513 -0.3134  0.3519 -0.0238
  997MOL0     C31520   3.829   3.363   3.576  1.1375 -1.0477  0.1662
  997MOL0     C31521   3.964   3.339   3.576 -0.9961  0.6089  0.0412
  997MOL0     N31522   4.667   3.316   3.334 -0.3738  0.1718  0.2493
  997MOL0     N31523   4.717   3.296   3.213  0.5560  0.3477 -0.1565
  997MOL0     C31524   4.446   2.610   2.657  0.6592  0.1825 -0.5923
  997MOL0     C31525   4.312   2.660   2.664  1.0104 -0.4155 -0.4488
  997MOL0     C31526   3.931   2.807   2.912  0.6243  0.3803  0.3309
  997MOL0     C31527   3.893   2.890   3.014 -0.3604  0.2319  0.0771
  997MOL0     C31528   3.757   2.919   3.040 -0.1767  0.2335  0.4973
  997MOL0     C31529   3.646   2.854   2.969 -0.2333  0.0346  0.5978
  997MOL0     O31530   3.517   2.877   3.018 -0.2674 -0.7330  0.3767
  997MOL0     C31531   3.400   2.822   2.953 -0.4239  0.3864  0.5280
  997MOL0     C31532   3.288   2.880   3.021  0.5121 -0.1770  0.2652
  997MOL0     C31533   3.151   2.852   2.966  0.0356 -0.2546  0.2753
  997MOL0     C31534   3.046   2.897   3.054 -0.6126 -0.5102  0.3502
  997MOL0     C31535   2.914   2.901   2.987 -1.0487  1.0435 -0.0847
  997MOL0     C31536   2.810   2.926   2.948  0.0626 -0.1989  0.4370
  997MOL0     C31537   3.684   2.778   2.854 -0.2683  0.0619  0.1919
  997MOL0     C31538   3.825   2.755   2.826  0.2784  0.2488 -0.3770
  997MOL0     H31539   4.213   2.528   2.967 -3.2679 -0.4691 -3.2239
  997MOL0     H31540   4.447   2.434   2.955 -1.3526 -0.1120  0.3796
  997MOL0     H31541   4.716   2.546   2.607  0.0383 -1.2667 -0.3396
  997MOL0     H31542   4.808   2.443   2.716  0.0078 -0.1798  0.0275
  997MOL0     H31543   4.736   2.620   2.902  2.6622  1.3317  0.9612
  997MOL0     H31544   4.713   2.729   2.767  1.8605  2.1049  0.6629
  997MOL0     H31545   4.934   2.667   2.669  1.2832  2.0348  0.0605
  997MOL0     H31546   4.986   2.581   2.817 -0.7617  0.2450 -0.0712
  997MOL0     H31547   5.086   2.797   2.835 -0.1762 -0.7040  0.0809
  997MOL0     H31548   4.938   2.871   2.752  1.3380 -0.8490 -1.3851
  997MOL0     H31549   4.975   2.769   3.037  1.7005  0.4758  0.1847
  997MOL0     H31550   4.832   2.858   2.978  0.8232  3.9255  2.8184
  997MOL0     H31551   4.992   3.044   2.921 -0.6336 -0.7666 -0.7258
  997MOL0     H31552   5.126   2.964   3.003  0.1054 -2.5730  0.8871
  997MOL0     H31553   4.964   2.964   3.207  0.6741  1.4188  3.6733
  997MOL0     H31554   5.010   3.133   3.158  2.0676 -1.0127 -2.4671
  997MOL0     H31555   4.742   3.016   3.086  0.1972 -0.6704  0.6969
  997MOL0     H31556   4.819   3.155   3.018 -1.8890  1.1635  1.0300
  997MOL0     H31557   4.758   3.003   3.370 -0.2894  0.2065  0.7439
  997MOL0     H31558   4.653   3.263   3.620 -0.3901 -1.4269  1.3143
  997MOL0     H31559   4.658   3.087   3.594 -1.0199 -0.9940 -1.0634
  997MOL0     H31560   4.454   3.148   3.682  5.9696 -1.9418  0.7389
  997MOL0     H31561   4.420   3.087   3.513 -1.9543 -0.3856  2.1406
  997MOL0     H31562   4.436   3.377   3.586 -0.0002 -1.7121  1.6441
  997MOL0     H31563   4.408   3.300   3.420 -2.6652  0.1388 -0.8367
  997MOL0     H31564   4.233   3.287   3.659 -1.5856  0.4001 -0.3713
  997MOL0     H31565   4.204   3.198   3.512 -0.4460  0.6011 -0.3657
  997MOL0     H31566   4.062   3.629   3.418  1.1261  0.0135  2.0114
  997MOL0     H31567   3.818   3.671   3.435  2.6055  1.7944 -0.8651
  997MOL0     H31568   3.440   3.600   3.731  0.0206  0.5420 -0.5893
  997MOL0     H31569   3.187   3.650   3.753 -0.1026 -1.2558  1.2594
  997MOL0     H31570   2.968   3.622   3.752 -1.2331  0.9503  0.3756
  997MOL0     H31571   2.981   3.461   3.831  3.0153 -1.4049 -1.5140
  997MOL0     H31572   2.740   3.605   3.703  1.0432 -0.3069 -1.7717
  997MOL0     H31573   2.764   3.523   3.866 -0.9630  2.4986 -0.1160
  997MOL0     H31574   2.800   3.308   3.718  0.0181 -0.1066 -0.1850
  997MOL0     H31575   2.723   3.394   3.594  0.0168  2.3538 -0.5329
  997MOL0     H31576   2.604   3.345   3.869  2.3052  0.8056 -1.1385
  997MOL0     H31577   2.530   3.455   3.753 -0.2440  0.3118 -0.6876
  997MOL0     H31578   2.595   3.173   3.671  2.3024  1.4190  0.5087
  997MOL0     H31579   2.439   3.265   3.643 -0.6765  0.2611  1.9876
  997MOL0     H31580   2.514   3.116   3.899  0.9597 -0.9475 -1.7740
  997MOL0     H31581   2.386   3.074   3.784 -0.9340  1.3948  0.5324
  997MOL0     H31582   2.377   3.306   3.968 -0.0520 -1.2017 -0.1321
  997MOL0     H31583   2.283   3.302   3.827 -0.1789  1.6242  1.2857
  997MOL0     H31584   2.263   3.104   4.055 -0.5625 -0.1389 -1.2304
  997MOL0     H31585   2.188   3.072   3.899 -2.3043  0.0703 -0.4750
  997MOL0     H31586   3.134   3.341   3.452 -0.1449  0.8918 -0.8547
  997MOL0     H31587   3.375   3.321   3.433  1.2016 -0.1104  0.1231
  997MOL0     H31588   3.761   3.297   3.628  0.6490 -0.7009 -0.0319
  997MOL0     H31589   4.003   3.255   3.633 -1.2326  2.1576  2.6518
  997MOL0     H31590   4.514   2.620   2.573  0.7697  1.5801 -0.3652
  997MOL0     H31591   4.263   2.713   2.583  0.4517  2.2474  1.5225
  997MOL0     H31592   3.969   2.933   3.078  0.1827 -0.6451  0.0254
  997MOL0     H31593   3.721   2.980   3.123 -1.5140 -1.4792  1.2360
  997MOL0     H31594   3.395   2.714   2.968 -0.2085  0.3111  0.0533
  997MOL0     H31595   3.395   2.835   2.845 -0.8436 -4.1845 -0.1909
  997MOL0     H31596   3.287   2.844   3.124  0.3673 -3.5138 -0.7891
  997MOL0     H31597   3.304   2.988   3.022 -0.4454 -0.0276  0.6965
  997MOL0     H31598   3.137   2.744   2.955  0.4384 -0.5074  1.9217
  997MOL0     H31599   3.142   2.910   2.873 -0.6049  0.5945  0.8497
  997MOL0     H31600   3.052   2.840   3.147  0.3825 -1.5858 -0.3517
  997MOL0     H31601   3.071   3.000   3.081 -0.6611 -0.4848  0.2986
  997MOL0     H31602   2.710   2.931   2.911  0.2156  0.2519  0.0741
  997MOL0     H31603   3.607   2.736   2.790  0.1309  1.5299 -1.2940
  997MOL0     H31604   3.848   2.684   2.747 -1.2347 -0.0553 -0.5655
  998MOL0     O31605   3.201   8.476   5.532  0.0456  0.4283 -0.1083
  998MOL0     C31606   3.289   8.557   5.501  0.9293 -0.7092  0.5686
  998MOL0     O31607   3.277   8.696   5.484 -0.6052  1.1866 -0.3281
  998MOL0     C31608   3.149   8.738   5.498 -0.7153  0.3010  0.1258
  998MOL0     C31609   3.096   8.794   5.383  0.2620  0.1948  0.0522
  998MOL0     C31610   2.976   8.862   5.377 -0.1207 -0.4693  0.0241
  998MOL0     C31611   2.911   8.888   5.502  0.6908 -0.0397  0.5243
  998MOL0     O31612   2.793   8.960   5.520 -0.0018  0.3738 -0.1102
  998MOL0     C31613   2.754   9.052   5.417 -0.3034 -0.6289 -0.6874
  998MOL0     C31614   2.638   9.132   5.469  0.1904 -0.8791 -0.6370
  998MOL0     C31615   2.509   9.063   5.499 -0.6195  0.6365 -0.5755
  998MOL0     C31616   2.391   9.170   5.519  0.5006  0.4798  0.3023
  998MOL0     C31617   2.392   9.240   5.652  0.0911  0.0283  0.1671
  998MOL0     C31618   2.269   9.335   5.655 -0.6524 -0.1436 -0.3333
  998MOL0     C31619   2.246   9.405   5.787 -0.0040 -0.7833  0.2574
  998MOL0     C31620   2.139   9.517   5.774  0.0425  0.4894  0.4263
  998MOL0     N31621   2.007   9.463   5.736  0.3854 -0.0387  0.1638
  998MOL0     C31622   1.934   9.390   5.824 -0.5771  0.9532 -0.7227
  998MOL0     C31623   1.831   9.340   5.756  0.6274 -0.8380 -0.1435
  998MOL0     C31624   1.715   9.254   5.812 -0.0851  0.7009  0.1330
  998MOL0     C31625   1.630   9.324   5.918  0.6168  0.6057  0.4456
  998MOL0     C31626   1.680   9.296   6.062  0.7702  0.4604  1.0973
  998MOL0     C31627   1.611   9.177   6.128 -0.1985 -0.6168 -0.0718
  998MOL0     O31628   1.582   9.221   6.263 -0.3688 -0.0634 -0.1538
  998MOL0     C31629   1.490   9.145   6.342 -0.3929 -0.3301  0.8347
  998MOL0     C31630   1.417   9.208   6.437 -0.4788  0.3082 -0.0748
  998MOL0     C31631   1.324   9.142   6.513 -0.3997  0.3438 -0.2505
  998MOL0     C31632   1.298   9.010   6.493 -0.3854  0.2641  0.4579
  998MOL0     C31633   1.199   8.942   6.575  1.1520  0.5971 -0.9052
  998MOL0     O31634   1.161   9.005   6.689  0.2717 -0.0665  0.2208
  998MOL0     C31635   1.081   8.939   6.781 -0.2088  0.0862 -0.4162
  998MOL0     C31636   1.122   8.956   6.916  0.6238  0.4707  0.2246
  998MOL0     C31637   1.045   8.904   7.018  0.5729 -0.0406  0.2132
  998MOL0     C31638   0.924   8.830   6.983  0.2147 -0.5122  0.1198
  998MOL0     O31639   0.839   8.784   7.071  0.5411  0.1554 -0.4429
  998MOL0     C31640   0.821   8.847   7.195 -0.8926  0.1465 -0.2234
  998MOL0     C31641   0.714   8.786   7.280  0.0407 -0.6002 -0.4789
  998MOL0     C31642   0.579   8.806   7.225 -0.4572  0.2151 -0.6210
  998MOL0     C31643   0.464   8.734   7.294 -0.4814  0.7819 -0.2483
  998MOL0     C31644   0.350   8.697   7.193 -0.5578 -0.0760  0.1042
  998MOL0     C31645   0.270   8.815   7.142 -0.4572 -0.0445 -0.0058
  998MOL0     C31646   0.160   8.770   7.048  0.6164  0.5608  0.2994
  998MOL0     C31647   0.097   8.892   6.987  0.5337 -0.0402  0.7547
  998MOL0    Cl31648   0.007   8.992   7.106  0.1587 -0.4851  0.8034
  998MOL0     C31649   0.900   8.793   6.852 -0.6569 -0.1886 -0.3463
  998MOL0     C31650   0.976   8.851   6.754 -0.4686  0.4652  0.0282
  998MOL0     O31651   1.166   8.832   6.543  0.1257 -0.1028 -0.0400
  998MOL0     C31652   1.386   8.942   6.404 -0.2800  0.2905 -0.2949
  998MOL0     C31653   1.477   9.006   6.322 -0.2137 -0.1825 -0.3820
  998MOL0     N31654   1.848   9.384   5.627 -0.1736  0.3291  0.5107
  998MOL0     N31655   1.944   9.467   5.617  0.3325 -0.6014 -0.1472
  998MOL0     C31656   2.970   8.839   5.617 -0.0503  0.5222  0.4804
  998MOL0     C31657   3.090   8.761   5.619  1.0309  0.0766  0.1747
  998MOL0     C31658   3.422   8.497   5.481  0.7082  0.4455  0.1711
  998MOL0     C31659   3.454   8.366   5.529 -0.1499  0.9346 -0.0013
  998MOL0     C31660   3.590   8.319   5.514 -0.3033  0.4264 -0.0688
  998MOL0     C31661   3.694   8.396   5.455  0.6152  0.7326 -0.9185
  998MOL0     O31662   3.826   8.360   5.427 -0.2250  0.3587 -0.3493
  998MOL0     C31663   3.854   8.236   5.499 -0.5551  0.8102 -0.1750
  998MOL0     C31664   4.006   8.210   5.497 -0.5333 -0.3873 -0.3663
  998MOL0     C31665   4.088   8.336   5.534  0.1684  0.2558 -0.2437
  998MOL0     C31666   4.237   8.311   5.515  0.2775 -1.4544  0.2594
  998MOL0     C31667   4.315   8.426   5.554 -0.2011 -0.0111  0.0548
  998MOL0     C31668   4.370   8.532   5.573  0.2114 -0.2038 -0.1893
  998MOL0     C31669   3.661   8.521   5.424  0.0237  0.2355 -0.8921
  998MOL0     C31670   3.532   8.577   5.437  0.1882 -0.3354  0.0633
  998MOL0     H31671   3.157   8.782   5.294 -0.0378 -2.2315  0.1213
  998MOL0     H31672   2.937   8.909   5.287  2.1960 -0.7092 -1.1904
  998MOL0     H31673   2.734   8.997   5.325 -0.5135  0.2062 -1.1573
  998MOL0     H31674   2.833   9.126   5.397 -4.4306  4.5302 -0.1031
  998MOL0     H31675   2.605   9.193   5.384 -1.3199 -0.5131  0.1748
  998MOL0     H31676   2.680   9.187   5.554  0.8883 -2.7017  0.2617
  998MOL0     H31677   2.520   9.001   5.588 -3.9489  2.4902  1.3516
  998MOL0     H31678   2.487   8.999   5.413 -1.3630 -1.6184  1.2069
  998MOL0     H31679   2.409   9.245   5.441  0.6160 -1.5911 -1.7770
  998MOL0     H31680   2.294   9.120   5.510  1.2741 -1.2181  0.8916
  998MOL0     H31681   2.492   9.281   5.672  2.6083 -4.3859 -1.6813
  998MOL0     H31682   2.377   9.165   5.731 -2.8031  0.3519  0.0106
  998MOL0     H31683   2.182   9.272   5.636 -1.1026  0.9253 -2.0089
  998MOL0     H31684   2.282   9.419   5.586 -1.4752 -0.1717 -0.5296
  998MOL0     H31685   2.218   9.343   5.873 -1.3488 -0.7800 -0.1617
  998MOL0     H31686   2.338   9.458   5.814  0.6173 -0.7717 -1.7544
  998MOL0     H31687   2.160   9.596   5.702  0.8547  1.9329  2.1781
  998MOL0     H31688   2.131   9.569   5.870  1.2051  2.4846 -0.4991
  998MOL0     H31689   1.957   9.377   5.930  0.8235 -1.8991 -1.2921
  998MOL0     H31690   1.765   9.164   5.851  0.0217  0.5025 -0.4549
  998MOL0     H31691   1.660   9.226   5.722  0.7720 -0.7916  0.0344
  998MOL0     H31692   1.529   9.283   5.906  0.3990  0.9080  1.1770
  998MOL0     H31693   1.633   9.432   5.905  0.1752  0.4933 -0.7724
  998MOL0     H31694   1.789   9.284   6.066  0.7331 -0.3133  0.1687
  998MOL0     H31695   1.650   9.392   6.105  0.1407  1.9415 -2.2959
  998MOL0     H31696   1.670   9.085   6.127 -0.7040 -1.0131 -2.9820
  998MOL0     H31697   1.512   9.164   6.082  0.0555  1.9555 -1.5472
  998MOL0     H31698   1.424   9.315   6.455 -2.2359  1.0619 -3.1989
  998MOL0     H31699   1.266   9.203   6.580 -0.4101  1.4639 -1.2481
  998MOL0     H31700   1.212   9.007   6.946 -0.3594  3.0786 -0.9687
  998MOL0     H31701   1.076   8.914   7.121  2.5616 -1.4795 -0.1843
  998MOL0     H31702   0.788   8.950   7.181 -0.2954  0.3144 -0.4115
  998MOL0     H31703   0.918   8.842   7.246 -0.5162 -0.1415 -0.9495
  998MOL0     H31704   0.715   8.835   7.378 -4.2359  1.4436 -1.2120
  998MOL0     H31705   0.737   8.682   7.306 -0.1639 -0.0945  1.9455
  998MOL0     H31706   0.584   8.773   7.121  2.1828  0.4002 -0.6293
  998MOL0     H31707   0.561   8.914   7.234  1.1395  0.3299  4.4784
  998MOL0     H31708   0.506   8.639   7.329 -0.5725  0.9091  0.2214
  998MOL0     H31709   0.423   8.785   7.382 -1.5238  0.3494 -0.4692
  998MOL0     H31710   0.278   8.630   7.241 -0.3159 -0.0286  0.5392
  998MOL0     H31711   0.401   8.638   7.117  0.0710 -1.3144  1.4358
  998MOL0     H31712   0.335   8.884   7.087  1.3286 -1.2885  0.4736
  998MOL0     H31713   0.224   8.871   7.224  0.4566  3.0728 -1.4534
  998MOL0     H31714   0.205   8.708   6.970  2.2252  1.5027  0.4346
  998MOL0     H31715   0.087   8.707   7.101  0.6900  1.0342  0.9871
  998MOL0     H31716   0.021   8.869   6.912  0.3876  1.1192  0.5362
  998MOL0     H31717   0.173   8.952   6.936 -0.7617  0.4075 -0.7156
  998MOL0     H31718   0.810   8.736   6.830 -0.3517 -0.3485 -1.2133
  998MOL0     H31719   0.947   8.838   6.650  1.3051 -2.1266 -0.2268
  998MOL0     H31720   1.390   8.834   6.402  0.3371  0.2378  1.8610
  998MOL0     H31721   1.531   8.944   6.251  0.9934  1.1139 -0.6391
  998MOL0     H31722   2.919   8.861   5.710  0.8691 -0.4312  1.2362
  998MOL0     H31723   3.135   8.729   5.713  1.5453 -1.3894 -0.5444
  998MOL0     H31724   3.381   8.310   5.586  1.2634  0.8906  1.8651
  998MOL0     H31725   3.617   8.222   5.553 -0.8048 -1.2391 -3.5368
  998MOL0     H31726   3.809   8.150   5.449  1.3234 -0.2888 -0.0712
  998MOL0     H31727   3.822   8.242   5.603  0.6294  0.7477  0.2060
  998MOL0     H31728   4.014   8.140   5.581 -0.4090 -0.8769 -0.7811
  998MOL0     H31729   4.046   8.170   5.404  1.0903  1.1478 -0.3717
  998MOL0     H31730   4.076   8.357   5.640  2.9043  2.5793 -0.2954
  998MOL0     H31731   4.053   8.417   5.469 -2.1424 -0.9936 -0.6701
  998MOL0     H31732   4.272   8.227   5.575 -1.9585 -1.9513  0.9399
  998MOL0     H31733   4.251   8.283   5.410  0.6316 -2.7624  0.6461
  998MOL0     H31734   4.431   8.615   5.601 -2.0271  1.2494  0.7059
  998MOL0     H31735   3.746   8.579   5.388  1.1133  1.6243  3.3073
  998MOL0     H31736   3.499   8.677   5.411 -1.4623 -0.6528  0.7782
  999MOL0     O31737   7.035   3.773   8.550  0.6289  0.1848  0.5756
  999MOL0     C31738   7.021   3.879   8.609  0.6799 -0.0736 -0.0579
  999MOL0     O31739   7.119   3.963   8.651 -0.1898 -0.0604  0.4097
  999MOL0     C31740   7.253   3.923   8.634 -0.3130  1.0195  0.2400
  999MOL0     C31741   7.344   3.970   8.723  0.0598  0.1645  0.2399
  999MOL0     C31742   7.482   3.944   8.715 -0.6060  0.4579  0.0289
  999MOL0     C31743   7.536   3.870   8.605 -0.0566 -0.7179 -0.0039
  999MOL0     O31744   7.668   3.834   8.586  0.4110 -0.4818  0.0297
  999MOL0     C31745   7.757   3.818   8.699  0.2120 -0.2545 -0.2028
  999MOL0     C31746   7.718   3.711   8.798  0.4682  0.2063 -0.1079
  999MOL0     C31747   7.797   3.582   8.773 -0.3150  0.2662  0.4340
  999MOL0     C31748   7.783   3.535   8.622  0.5053 -0.3515 -0.3898
  999MOL0     C31749   7.820   3.386   8.593 -0.6161 -0.5851  0.4947
  999MOL0     C31750   7.749   3.335   8.468  0.4366 -0.4930  0.2643
  999MOL0     C31751   7.777   3.190   8.438 -0.8061 -0.0989 -0.5020
  999MOL0     C31752   7.698   3.145   8.313  0.3372  0.6939  0.3114
  999MOL0     N31753   7.548   3.127   8.334  0.3171  0.0138  0.0206
  999MOL0     C31754   7.450   3.108   8.243 -0.6190 -0.0750 -0.0717
  999MOL0     C31755   7.338   3.093   8.315  0.1756  0.0113 -0.6323
  999MOL0     C31756   7.205   3.074   8.257  0.3630  0.1131 -0.7534
  999MOL0     C31757   7.094   3.108   8.353 -0.6986 -0.3145 -0.0787
  999MOL0     C31758   6.956   3.109   8.284 -0.2272 -0.1002 -0.5506
  999MOL0     C31759   6.840   3.105   8.387  0.1487 -0.0395 -0.6976
  999MOL0     O31760   6.714   3.134   8.314  0.0575  0.4425  0.0080
  999MOL0     C31761   6.595   3.105   8.377  0.0621  0.1300 -0.1024
  999MOL0     C31762   6.480   3.138   8.304  0.3531 -0.4950  0.5096
  999MOL0     C31763   6.355   3.101   8.346 -0.0531  0.6478  0.4339
  999MOL0     C31764   6.336   3.039   8.462  0.6305 -0.4119  0.2327
  999MOL0     C31765   6.187   3.008   8.505 -0.0868 -0.1648  0.6194
  999MOL0     O31766   6.177   2.954   8.630 -0.0727 -0.0717  0.1844
  999MOL0     C31767   6.048   2.929   8.674  0.5776  0.2400 -0.3768
  999MOL0     C31768   5.989   2.994   8.785  0.2522  0.2142 -0.3244
  999MOL0     C31769   5.862   2.955   8.828 -0.3774  1.0557 -0.0254
  999MOL0     C31770   5.786   2.856   8.758  0.9268 -0.7844  0.3979
  999MOL0     O31771   5.669   2.797   8.808  0.1195  0.1225  0.3384
  999MOL0     C31772   5.558   2.890   8.846 -0.0665  0.1557  0.3743
  999MOL0     C31773   5.426   2.818   8.854 -1.0776 -0.0796 -0.5028
  999MOL0     C31774   5.369   2.776   8.720  0.4642 -0.2973 -0.2516
  999MOL0     C31775   5.245   2.681   8.730  0.8768  0.1060 -0.4853
  999MOL0     C31776   5.252   2.560   8.826 -0.2576  0.8683 -0.2755
  999MOL0     C31777   5.129   2.472   8.837 -0.0728  0.2177 -1.3003
  999MOL0     C31778   5.075   2.407   8.712 -0.0957  0.2692  0.7664
  999MOL0     C31779   4.973   2.292   8.743  0.1345  0.5769  0.4355
  999MOL0    Cl31780   4.821   2.364   8.813  0.0907  0.6559 -0.3547
  999MOL0     C31781   5.849   2.799   8.649  0.0441 -0.0120 -0.4272
  999MOL0     C31782   5.972   2.844   8.602  0.1904 -0.0175 -0.2326
  999MOL0     O31783   6.095   3.044   8.425  0.0880 -0.5519 -0.1723
  999MOL0     C31784   6.444   3.002   8.538  0.3850  0.0885  0.3318
  999MOL0     C31785   6.574   3.024   8.493  0.5959 -0.0043  0.7440
  999MOL0     N31786   7.368   3.096   8.449  0.2340  0.0378  0.2591
  999MOL0     N31787   7.490   3.102   8.455 -0.4859 -0.2514 -0.3830
  999MOL0     C31788   7.446   3.821   8.511  0.2119  0.7503  1.1009
  999MOL0     C31789   7.306   3.845   8.527 -0.3676  0.0518  0.9693
  999MOL0     C31790   6.882   3.911   8.635  1.2581 -0.6460  0.5363
  999MOL0     C31791   6.836   4.041   8.626 -0.2377  0.5836 -0.0266
  999MOL0     C31792   6.705   4.071   8.665 -0.6661  0.3718  0.2733
  999MOL0     C31793   6.616   3.966   8.707  0.1952  0.4480  0.2359
  999MOL0     O31794   6.481   3.998   8.717  0.9030 -0.1201 -0.4069
  999MOL0     C31795   6.388   3.914   8.646  0.0416 -0.2258  0.0234
  999MOL0     C31796   6.246   3.947   8.682  0.1098 -0.3178 -0.0804
  999MOL0     C31797   6.196   3.868   8.811 -0.6434  0.1782  0.0801
  999MOL0     C31798   6.049   3.845   8.822 -0.6831  0.0786 -0.3180
  999MOL0     C31799   6.001   3.773   8.704 -0.4547 -0.2522 -0.1303
  999MOL0     C31800   5.963   3.720   8.593  0.6290  0.0055 -0.8103
  999MOL0     C31801   6.669   3.844   8.735 -0.3606 -0.5787  1.1792
  999MOL0     C31802   6.794   3.812   8.695  0.3730 -0.1503 -0.6964
  999MOL0     H31803   7.294   4.027   8.801  2.3315  1.3526  0.9366
  999MOL0     H31804   7.557   3.980   8.786  2.8161 -0.9714 -2.5534
  999MOL0     H31805   7.756   3.916   8.749 -2.7195  0.3918 -1.3279
  999MOL0     H31806   7.853   3.798   8.651  0.7781  2.0592 -0.1478
  999MOL0     H31807   7.612   3.696   8.778  0.6092  0.6161 -1.2430
  999MOL0     H31808   7.728   3.744   8.902 -3.2250 -1.4265  0.9108
  999MOL0     H31809   7.763   3.506   8.844 -0.0046 -2.3124 -1.9935
  999MOL0     H31810   7.904   3.604   8.785  0.0719 -1.8180  1.1226
  999MOL0     H31811   7.674   3.541   8.611  0.3469 -1.6233  0.2495
  999MOL0     H31812   7.840   3.598   8.554 -1.5775  1.8241 -0.2511
  999MOL0     H31813   7.797   3.328   8.682 -1.5383  0.8584  1.2361
  999MOL0     H31814   7.929   3.386   8.577 -0.5984  2.5783 -0.1507
  999MOL0     H31815   7.786   3.389   8.381  0.1325 -1.2075 -0.3231
  999MOL0     H31816   7.640   3.345   8.463  0.5067  0.5064  0.6397
  999MOL0     H31817   7.884   3.171   8.429 -0.6576 -1.0947  2.2398
  999MOL0     H31818   7.758   3.124   8.523  1.3142  0.7766  0.7257
  999MOL0     H31819   7.729   3.052   8.264 -1.2725  0.5334 -0.4473
  999MOL0     H31820   7.708   3.225   8.239 -1.8145  0.6927 -0.0190
  999MOL0     H31821   7.466   3.105   8.136  0.0690  1.2989 -0.0347
  999MOL0     H31822   7.188   2.977   8.210  0.9289  0.5066 -1.7919
  999MOL0     H31823   7.201   3.146   8.175 -1.4580 -0.9917 -1.6963
  999MOL0     H31824   7.111   3.196   8.417  3.6762  0.6003 -2.0979
  999MOL0     H31825   7.087   3.024   8.422  0.2427 -0.3934 -0.0600
  999MOL0     H31826   6.950   3.190   8.210 -2.5798  0.2743 -0.0352
  999MOL0     H31827   6.940   3.015   8.230  1.5940  0.2107 -1.7410
  999MOL0     H31828   6.864   3.175   8.466  2.2392 -1.5782  0.1036
  999MOL0     H31829   6.830   3.006   8.433  0.7265  0.0498 -0.3790
  999MOL0     H31830   6.499   3.184   8.207 -1.2079 -0.6791  0.0901
  999MOL0     H31831   6.267   3.119   8.285  0.0661  0.0488  0.0708
  999MOL0     H31832   6.044   3.076   8.831 -1.2792  0.4705  1.1312
  999MOL0     H31833   5.822   3.004   8.917 -1.9823  0.4397 -0.3786
  999MOL0     H31834   5.537   2.976   8.782 -1.2592  1.1018  1.9726
  999MOL0     H31835   5.577   2.932   8.945  2.4011 -1.1298  0.5297
  999MOL0     H31836   5.352   2.888   8.893 -0.5934  0.0085  0.2744
  999MOL0     H31837   5.443   2.743   8.932 -0.3612  0.7523  0.1641
  999MOL0     H31838   5.446   2.735   8.654  2.0078  2.1872 -0.1195
  999MOL0     H31839   5.339   2.871   8.674  0.0566  0.5607  1.6692
  999MOL0     H31840   5.155   2.734   8.761  2.2455  1.9482  0.5425
  999MOL0     H31841   5.224   2.646   8.628 -1.4979 -0.9842  0.3202
  999MOL0     H31842   5.285   2.592   8.925 -1.5991 -1.4818  1.0188
  999MOL0     H31843   5.327   2.494   8.782 -0.6403  0.1371  0.1488
  999MOL0     H31844   5.043   2.532   8.866  0.2026  0.1133 -0.2274
  999MOL0     H31845   5.143   2.394   8.913 -0.1214 -1.2660 -2.7352
  999MOL0     H31846   5.019   2.477   8.649 -0.4771 -1.2798 -0.6924
  999MOL0     H31847   5.157   2.356   8.660 -1.2020 -0.2948 -0.4773
  999MOL0     H31848   5.022   2.214   8.803  1.4292  0.7029 -0.4024
  999MOL0     H31849   4.951   2.241   8.649  0.5686  1.4419 -0.1545
  999MOL0     H31850   5.790   2.724   8.599  0.1947 -0.1230 -0.4376
  999MOL0     H31851   6.023   2.802   8.517  2.9983  1.2240  0.7301
  999MOL0     H31852   6.432   2.948   8.632  1.0530 -0.8664 -0.1219
  999MOL0     H31853   6.653   2.983   8.555  2.3971  0.5814 -1.0417
  999MOL0     H31854   7.487   3.783   8.418 -1.7574  2.0356 -0.4038
  999MOL0     H31855   7.241   3.802   8.452 -1.0490  1.5932  0.6414
  999MOL0     H31856   6.896   4.128   8.599 -4.0034  3.1047 -1.0477
  999MOL0     H31857   6.682   4.175   8.645 -0.0324  0.6107  0.7590
  999MOL0     H31858   6.415   3.808   8.657  0.2529 -0.2372 -0.5693
  999MOL0     H31859   6.408   3.943   8.542  2.5596 -2.7817 -0.3449
  999MOL0     H31860   6.232   4.054   8.699 -1.7767 -1.0354  4.0575
  999MOL0     H31861   6.186   3.926   8.592 -1.6002  0.6780  0.7668
  999MOL0     H31862   6.217   3.940   8.891 -2.3364 -1.1690  1.8357
  999MOL0     H31863   6.245   3.772   8.830 -0.5692  0.2119  0.0625
  999MOL0     H31864   6.034   3.774   8.904  0.2294 -0.1914 -0.3768
  999MOL0     H31865   6.006   3.945   8.834 -2.5756 -0.6631 -0.5121
  999MOL0     H31866   5.931   3.671   8.504  2.6213 -1.5104 -0.7762
  999MOL0     H31867   6.615   3.773   8.796 -2.2992 -1.5920 -1.5213
  999MOL0     H31868   6.832   3.715   8.727 -0.9186 -0.3347  0.3649
 1000MOL0     O31869   2.981   2.929   3.773  0.2173 -0.2636  0.2997
 1000MOL0     C31870   2.983   2.910   3.893  0.3099  0.3717  0.7037
 1000MOL0     O31871   3.082   2.931   3.980  0.3966  0.5522 -0.2193
 1000MOL0     C31872   3.193   3.000   3.955 -0.9541 -0.3350  0.4219
 1000MOL0     C31873   3.223   3.097   3.853 -0.2028 -0.0861 -0.7614
 1000MOL0     C31874   3.353   3.146   3.836 -0.5990 -0.1078  0.5475
 1000MOL0     C31875   3.455   3.100   3.918  0.5066  0.4146  0.7807
 1000MOL0     O31876   3.585   3.132   3.886  0.2094  0.1237 -0.2621
 1000MOL0     C31877   3.656   3.038   3.805  0.1044 -0.0315  0.8604
 1000MOL0     C31878   3.805   3.073   3.836 -0.7068  0.0264 -0.2020
 1000MOL0     C31879   3.899   2.951   3.821 -0.8454 -0.0575  0.8232
 1000MOL0     C31880   4.024   2.971   3.739  1.0730 -0.1570  0.6283
 1000MOL0     C31881   4.105   2.855   3.722 -0.4177 -0.2936 -0.0873
 1000MOL0     C31882   4.253   2.888   3.707 -0.0288 -0.2710 -0.2270
 1000MOL0     C31883   4.344   2.767   3.705 -0.5378 -0.0198 -0.5545
 1000MOL0     C31884   4.322   2.681   3.578  0.0168  0.1187 -0.1035
 1000MOL0     N31885   4.424   2.573   3.569 -0.0642  0.1607 -0.5294
 1000MOL0     C31886   4.389   2.441   3.581 -0.1142  0.4760  0.1576
 1000MOL0     C31887   4.505   2.374   3.561  0.5630 -0.0548 -0.7333
 1000MOL0     C31888   4.514   2.228   3.582 -0.8465 -0.6511 -0.6954
 1000MOL0     C31889   4.461   2.141   3.470 -0.2053  0.5814 -0.1764
 1000MOL0     C31890   4.492   2.001   3.498  0.0815  0.1750  1.1133
 1000MOL0     C31891   4.410   1.913   3.399 -1.0814  0.1627  0.1815
 1000MOL0     O31892   4.278   1.905   3.445 -0.2218 -0.1538  0.3031
 1000MOL0     C31893   4.166   1.915   3.359  0.1733  1.1463 -0.4389
 1000MOL0     C31894   4.150   1.869   3.226  0.1523 -0.7174  0.0657
 1000MOL0     C31895   4.028   1.877   3.163  0.5018  0.2865 -0.2600
 1000MOL0     C31896   3.917   1.937   3.225  0.6327  1.1408 -0.4625
 1000MOL0     C31897   3.779   1.944   3.165  0.3926  0.8352  0.2478
 1000MOL0     O31898   3.683   2.012   3.239 -1.0765 -0.2034 -0.4110
 1000MOL0     C31899   3.557   2.028   3.192  0.2665 -0.7678  0.2273
 1000MOL0     C31900   3.523   2.061   3.062  0.6381 -0.3544  1.3070
 1000MOL0     C31901   3.386   2.091   3.029 -0.5712  0.9200 -0.0020
 1000MOL0     C31902   3.290   2.064   3.119  0.1727 -0.3511  0.1354
 1000MOL0     O31903   3.162   2.075   3.084  0.3017 -0.1370  0.0975
 1000MOL0     C31904   3.105   1.952   3.057 -1.2052  0.0561 -0.5403
 1000MOL0     C31905   2.948   1.957   3.050 -1.0226  0.2196  0.3536
 1000MOL0     C31906   2.875   2.014   3.169 -0.5840 -0.0554  0.2532
 1000MOL0     C31907   2.725   2.018   3.129  0.0490 -0.2519  0.6295
 1000MOL0     C31908   2.676   2.163   3.128 -0.5419  0.9172 -0.5088
 1000MOL0     C31909   2.720   2.242   3.012 -0.3706  0.8615  0.5642
 1000MOL0     C31910   2.649   2.190   2.881  0.6753  0.1449  0.3054
 1000MOL0     C31911   2.749   2.158   2.765  0.1949 -0.3559 -1.0821
 1000MOL0    Cl31912   2.668   2.149   2.611 -0.1748  0.4232 -0.1177
 1000MOL0     C31913   3.326   2.034   3.254  0.2434  0.2619 -0.0212
 1000MOL0     C31914   3.459   2.014   3.287  0.5303  0.2114  0.2384
 1000MOL0     O31915   3.749   1.874   3.070 -0.3981 -0.3168 -0.1998
 1000MOL0     C31916   3.924   1.963   3.358 -0.5077 -0.4883 -0.3804
 1000MOL0     C31917   4.047   1.956   3.425  0.4273  0.1649 -1.0928
 1000MOL0     N31918   4.602   2.463   3.520  0.5786  0.1652 -0.5691
 1000MOL0     N31919   4.554   2.584   3.513  0.0375 -0.5839  0.1750
 1000MOL0     C31920   3.428   3.010   4.018  0.8865  1.0386 -0.2971
 1000MOL0     C31921   3.297   2.955   4.039 -0.3447 -0.4021 -0.0868
 1000MOL0     C31922   2.858   2.843   3.952 -0.4758 -1.0206 -0.6968
 1000MOL0     C31923   2.730   2.879   3.902  0.1910 -0.5212 -0.2028
 1000MOL0     C31924   2.620   2.824   3.961  0.4154  0.3342 -0.0997
 1000MOL0     C31925   2.629   2.733   4.068  0.5569 -0.4985  0.3876
 1000MOL0     O31926   2.515   2.692   4.127 -0.0938  0.5484  0.1264
 1000MOL0     C31927   2.511   2.573   4.204 -1.3160 -0.6569  0.3612
 1000MOL0     C31928   2.527   2.612   4.353 -0.5835 -0.2659  0.3134
 1000MOL0     C31929   2.559   2.493   4.447  0.0988 -0.5899 -0.1382
 1000MOL0     C31930   2.429   2.431   4.498 -0.1088  0.1774 -0.2208
 1000MOL0     C31931   2.453   2.307   4.568  0.0815  0.0240  1.2189
 1000MOL0     C31932   2.498   2.207   4.613  0.5856  0.1649 -0.4363
 1000MOL0     C31933   2.756   2.688   4.114 -0.0177 -1.2497 -1.0284
 1000MOL0     C31934   2.866   2.742   4.053 -0.0649 -0.3516  0.1682
 1000MOL0     H31935   3.140   3.122   3.787 -1.9594 -1.9892  0.5839
 1000MOL0     H31936   3.377   3.203   3.747  0.3544 -2.0729 -0.5250
 1000MOL0     H31937   3.628   3.053   3.700 -2.3335 -2.3212  1.0881
 1000MOL0     H31938   3.624   2.935   3.823  1.8736 -1.1100 -1.6328
 1000MOL0     H31939   3.816   3.117   3.935 -1.8341 -0.0433 -0.0305
 1000MOL0     H31940   3.842   3.149   3.767  2.3558 -0.8168  0.3435
 1000MOL0     H31941   3.845   2.874   3.766  0.9562 -1.0745  0.4131
 1000MOL0     H31942   3.926   2.912   3.920  1.8720  0.4807  0.3786
 1000MOL0     H31943   4.011   3.025   3.645 -1.0651 -1.8288 -0.1471
 1000MOL0     H31944   4.070   3.034   3.815 -1.5098  0.4203  1.8253
 1000MOL0     H31945   4.076   2.806   3.628  1.4560  0.7013 -1.2526
 1000MOL0     H31946   4.092   2.785   3.805 -0.0831 -1.5161 -1.0382
 1000MOL0     H31947   4.279   2.959   3.785  2.1751  0.1740 -1.2882
 1000MOL0     H31948   4.270   2.938   3.611  4.0412 -3.1200 -1.3111
 1000MOL0     H31949   4.448   2.801   3.706 -0.0687 -1.3816  0.7055
 1000MOL0     H31950   4.321   2.708   3.794  0.2440 -0.9434 -0.9562
 1000MOL0     H31951   4.334   2.738   3.485 -3.0615  0.9684 -0.1056
 1000MOL0     H31952   4.219   2.645   3.583  0.6026 -1.5338  3.0380
 1000MOL0     H31953   4.291   2.399   3.601  0.0423  0.6524  1.3377
 1000MOL0     H31954   4.478   2.208   3.683 -0.9092  2.6728  0.0812
 1000MOL0     H31955   4.622   2.215   3.579 -0.2178  1.3150  4.3401
 1000MOL0     H31956   4.504   2.171   3.373 -2.4133 -1.6427 -1.9811
 1000MOL0     H31957   4.354   2.164   3.468 -0.6710 -1.4284 -1.5595
 1000MOL0     H31958   4.599   1.994   3.478  0.2981  0.7529  1.9898
 1000MOL0     H31959   4.469   1.974   3.602 -0.1169 -2.8521  0.3772
 1000MOL0     H31960   4.472   1.823   3.391 -0.1039  0.9415 -2.0080
 1000MOL0     H31961   4.401   1.959   3.300 -1.1565  1.1850  0.6529
 1000MOL0     H31962   4.231   1.813   3.180  0.0724 -2.6965  2.1581
 1000MOL0     H31963   4.023   1.829   3.066  1.5286 -3.4823  1.3847
 1000MOL0     H31964   3.600   2.071   2.986 -0.0241 -2.2939  0.3338
 1000MOL0     H31965   3.359   2.119   2.928  1.5400  0.3224 -0.7760
 1000MOL0     H31966   3.126   1.882   3.138 -4.5730 -0.0085  0.4456
 1000MOL0     H31967   3.144   1.901   2.969 -0.2040  0.0764 -0.1273
 1000MOL0     H31968   2.913   1.855   3.034  2.4317 -1.5750  2.8913
 1000MOL0     H31969   2.928   2.023   2.965  0.4185 -0.3594 -0.4585
 1000MOL0     H31970   2.913   2.107   3.211 -2.1012 -0.3429  2.4523
 1000MOL0     H31971   2.902   1.944   3.248  1.9112 -1.1549 -1.4349
 1000MOL0     H31972   2.696   1.966   3.037  1.5693  0.5440 -0.3320
 1000MOL0     H31973   2.667   1.971   3.209 -1.4367  0.0727 -0.2091
 1000MOL0     H31974   2.704   2.220   3.218  0.4785  1.2672 -1.0297
 1000MOL0     H31975   2.567   2.162   3.129 -0.5672 -1.0227  0.5663
 1000MOL0     H31976   2.825   2.221   2.994 -1.4431 -4.9833 -0.8851
 1000MOL0     H31977   2.706   2.351   3.012 -2.3693  0.7753 -3.0381
 1000MOL0     H31978   2.586   2.102   2.894 -0.0168  0.5453 -0.2373
 1000MOL0     H31979   2.585   2.271   2.843  0.5849 -0.0602  0.0198
 1000MOL0     H31980   2.789   2.058   2.787  0.4388  0.1332  0.8507
 1000MOL0     H31981   2.833   2.228   2.760  0.4843 -0.6932 -1.0829
 1000MOL0     H31982   3.241   2.004   3.315 -0.7642 -1.7992 -2.2977
 1000MOL0     H31983   3.488   1.975   3.384 -1.0220 -1.7346 -0.0224
 1000MOL0     H31984   3.845   1.978   3.431  2.0749  2.1338  2.1549
 1000MOL0     H31985   4.044   1.978   3.532 -1.3473 -0.2261 -1.0251
 1000MOL0     H31986   3.513   2.967   4.070 -0.5549 -0.1966  1.1352
 1000MOL0     H31987   3.278   2.879   4.114 -4.5764  1.4393  1.0069
 1000MOL0     H31988   2.708   2.959   3.832 -4.2846 -0.3636  1.0368
 1000MOL0     H31989   2.522   2.858   3.928  0.2273  1.4338  1.4693
 1000MOL0     H31990   2.586   2.499   4.173 -1.9311 -0.5791 -1.4637
 1000MOL0     H31991   2.414   2.524   4.196 -0.5501 -2.2928  0.6752
 1000MOL0     H31992   2.613   2.678   4.341 -0.9862  0.5143  1.5743
 1000MOL0     H31993   2.443   2.678   4.376  0.7734  1.7650 -0.3733
 1000MOL0     H31994   2.607   2.538   4.535 -0.5065 -0.1367 -0.0314
 1000MOL0     H31995   2.627   2.419   4.403 -0.6618 -3.4183  3.0291
 1000MOL0     H31996   2.373   2.505   4.555 -2.5609 -0.2823 -1.8507
 1000MOL0     H31997   2.368   2.412   4.409  0.2775 -0.0244 -0.4469
 1000MOL0     H31998   2.552   2.137   4.673  1.8924  2.6360  1.4670
 1000MOL0     H31999   2.774   2.616   4.193  0.7129  0.9313  0.9170
 1000MOL0     H32000   2.966   2.718   4.088 -0.6316 -1.2264  1.2884
 1001MOL0     O32001  10.065   8.941  11.140  0.5811 -0.9834 -0.5136
 1001MOL0     C32002  10.106   8.952  11.027  0.2561 -0.5401 -0.4700
 1001MOL0     O32003  10.032   8.939  10.912  0.2972  0.0256  0.0336
 1001MOL0     C32004   9.895   8.923  10.925 -0.2801 -0.1359 -0.4377
 1001MOL0     C32005   9.813   9.020  10.868  0.4866  0.4991 -0.1966
 1001MOL0     C32006   9.676   9.020  10.882 -0.2271 -1.0408  0.0438
 1001MOL0     C32007   9.606   8.914  10.943 -0.1962  0.9010 -0.2357
 1001MOL0     O32008   9.467   8.917  10.936 -0.4388  0.8138  0.5538
 1001MOL0     C32009   9.390   8.833  11.025 -0.0956 -0.7088  0.1515
 1001MOL0     C32010   9.247   8.881  11.011  0.5973 -0.6186 -0.4864
 1001MOL0     C32011   9.149   8.803  11.099  0.0972  0.4743  0.1148
 1001MOL0     C32012   9.008   8.862  11.086 -0.8158  0.5086  0.4376
 1001MOL0     C32013   8.910   8.796  11.186  0.1018 -0.9186  0.5152
 1001MOL0     C32014   8.760   8.814  11.149 -0.1644 -0.1929  0.4975
 1001MOL0     C32015   8.658   8.776  11.256  0.1063  0.3345  0.2952
 1001MOL0     C32016   8.509   8.778  11.207 -0.3099 -0.3354 -0.5327
 1001MOL0     N32017   8.472   8.648  11.155  0.7000  0.5110 -0.3022
 1001MOL0     C32018   8.386   8.627  11.050  0.4075  0.7146 -0.3548
 1001MOL0     C32019   8.336   8.503  11.061 -0.3616  0.1834 -0.0868
 1001MOL0     C32020   8.222   8.457  10.978 -0.1301  0.8761 -0.3138
 1001MOL0     C32021   8.281   8.452  10.834 -0.7058 -0.6554 -0.1205
 1001MOL0     C32022   8.172   8.428  10.733  0.2138  0.3839  0.1255
 1001MOL0     C32023   8.076   8.319  10.770 -0.3280 -0.2263  0.6321
 1001MOL0     O32024   7.996   8.281  10.656  0.3120 -0.1364 -0.1024
 1001MOL0     C32025   7.878   8.339  10.619 -0.1056 -0.2494 -0.3326
 1001MOL0     C32026   7.795   8.271  10.526 -0.3105  0.1198 -0.7696
 1001MOL0     C32027   7.671   8.325  10.488  0.0451 -0.8123  0.6575
 1001MOL0     C32028   7.620   8.441  10.543  0.7960 -0.2496  0.3271
 1001MOL0     C32029   7.479   8.478  10.509  0.3294 -0.9736 -0.4156
 1001MOL0     O32030   7.416   8.425  10.398  0.1873  0.0308  0.2140
 1001MOL0     C32031   7.286   8.460  10.369 -0.2058 -0.3327  1.0635
 1001MOL0     C32032   7.244   8.592  10.364 -1.2931 -0.4572 -0.1409
 1001MOL0     C32033   7.121   8.616  10.296  0.2291 -0.6892 -1.1701
 1001MOL0     C32034   7.043   8.517  10.253  0.3713 -0.6034  0.4791
 1001MOL0     O32035   6.917   8.557  10.205  0.3500  0.1729 -0.2675
 1001MOL0     C32036   6.838   8.472  10.128  0.5465 -0.4336 -0.2829
 1001MOL0     C32037   6.713   8.534  10.084 -0.8178  0.3674 -0.0839
 1001MOL0     C32038   6.618   8.581  10.198  0.5804 -0.8534 -0.3591
 1001MOL0     C32039   6.487   8.640  10.146 -0.2615 -0.7329  0.1746
 1001MOL0     C32040   6.467   8.789  10.163  0.5636 -0.1468  0.0319
 1001MOL0     C32041   6.351   8.843  10.093  0.5043  0.4604 -0.0940
 1001MOL0     C32042   6.340   8.999  10.103  0.0210 -0.8731 -0.0183
 1001MOL0     C32043   6.228   9.047  10.013 -0.5237  0.1958 -0.0696
 1001MOL0    Cl32044   6.172   9.203  10.079  0.1386 -0.1812  0.0336
 1001MOL0     C32045   7.091   8.386  10.261  0.3506  0.0500 -0.8617
 1001MOL0     C32046   7.210   8.356  10.320 -0.2051 -0.4405  1.1565
 1001MOL0     O32047   7.427   8.557  10.592 -0.9911  0.0109 -0.0167
 1001MOL0     C32048   7.694   8.506  10.642 -0.0213  0.4780  0.1875
 1001MOL0     C32049   7.821   8.454  10.676 -0.2899 -0.1118  0.0504
 1001MOL0     N32050   8.387   8.450  11.179 -0.1662 -0.8584 -0.3582
 1001MOL0     N32051   8.470   8.532  11.239 -0.0107 -0.3213  0.5294
 1001MOL0     C32052   9.690   8.812  11.003  0.3467  0.0988 -0.1672
 1001MOL0     C32053   9.833   8.812  10.984 -0.7225 -0.7176  0.2442
 1001MOL0     C32054  10.249   8.988  11.009  0.7272 -0.6474  0.1554
 1001MOL0     C32055  10.342   8.996  11.122 -0.0455  1.3549 -0.4232
 1001MOL0     C32056  10.476   9.032  11.103  1.2514  0.2700 -0.4066
 1001MOL0     C32057  10.525   9.066  10.975 -0.0845  0.6512  0.1867
 1001MOL0     O32058  10.653   9.117  10.949  0.1167  0.0905 -0.2628
 1001MOL0     C32059  10.722   9.173  11.067 -0.0300 -0.1304 -0.1430
 1001MOL0     C32060  10.644   9.298  11.130  0.2944  0.2471  0.6910
 1001MOL0     C32061  10.730   9.364  11.247 -0.0180  0.2263  0.8540
 1001MOL0     C32062  10.718   9.278  11.367  0.3011 -1.2151  0.1741
 1001MOL0     C32063  10.818   9.174  11.379  0.2796  0.2455 -0.3278
 1001MOL0     C32064  10.897   9.084  11.389  0.0782 -0.0782  0.6414
 1001MOL0     C32065  10.428   9.065  10.864 -0.3782 -0.2518 -0.3441
 1001MOL0     C32066  10.303   9.016  10.885  0.8572 -0.2691 -0.1196
 1001MOL0     H32067   9.859   9.105  10.818 -1.0930  2.6912  1.8146
 1001MOL0     H32068   9.619   9.105  10.846 -2.6493 -2.2573  0.7839
 1001MOL0     H32069   9.432   8.840  11.126  0.6990 -1.3502 -0.1195
 1001MOL0     H32070   9.381   8.726  11.003 -2.2558 -0.6834  0.6586
 1001MOL0     H32071   9.208   8.882  10.909  1.7966 -2.1170 -0.9965
 1001MOL0     H32072   9.234   8.981  11.053  1.3478 -1.0537  0.8183
 1001MOL0     H32073   9.184   8.831  11.199  0.0091 -0.2711  0.3597
 1001MOL0     H32074   9.150   8.694  11.091  2.0115  0.6058 -3.5268
 1001MOL0     H32075   9.009   8.970  11.107 -0.8548  0.3137  1.5278
 1001MOL0     H32076   8.976   8.844  10.983  1.2148  0.6830 -0.2671
 1001MOL0     H32077   8.927   8.847  11.282 -0.9122 -0.4079  0.4395
 1001MOL0     H32078   8.933   8.691  11.205  0.4134 -0.8731  0.4017
 1001MOL0     H32079   8.736   8.762  11.056  1.2647 -0.9684  0.5423
 1001MOL0     H32080   8.743   8.921  11.133  0.6773 -0.0633  0.4390
 1001MOL0     H32081   8.678   8.672  11.285  2.9708  0.8989  0.7019
 1001MOL0     H32082   8.659   8.846  11.341  0.4530  0.2784  0.3415
 1001MOL0     H32083   8.492   8.851  11.128  0.9705 -0.4106 -0.8976
 1001MOL0     H32084   8.449   8.804  11.295 -3.7676 -0.8916 -2.5668
 1001MOL0     H32085   8.363   8.697  10.971  0.7751 -0.0396 -1.1518
 1001MOL0     H32086   8.141   8.529  10.987  0.9857  2.0307  0.8748
 1001MOL0     H32087   8.182   8.360  11.009 -0.8380  0.0991 -3.3058
 1001MOL0     H32088   8.357   8.374  10.826 -1.2430 -1.3658  1.4523
 1001MOL0     H32089   8.342   8.538  10.804 -1.0460 -0.9434 -1.7910
 1001MOL0     H32090   8.109   8.517  10.730 -3.6537 -2.1383 -1.3397
 1001MOL0     H32091   8.212   8.399  10.635 -0.6485  0.8609 -0.3822
 1001MOL0     H32092   8.015   8.340  10.859 -1.6145  1.4850 -0.5872
 1001MOL0     H32093   8.146   8.236  10.785  2.5932  1.9159 -0.2723
 1001MOL0     H32094   7.836   8.176  10.494  0.5760 -0.7111  2.4259
 1001MOL0     H32095   7.616   8.277  10.408  3.8537 -2.6798 -1.0847
 1001MOL0     H32096   7.301   8.671  10.411 -1.3884 -0.6402  0.2839
 1001MOL0     H32097   7.082   8.717  10.289 -2.3793 -1.6387 -1.5630
 1001MOL0     H32098   6.810   8.378  10.177 -0.4717  0.5278  1.0449
 1001MOL0     H32099   6.898   8.444  10.041  1.4703  1.4731 -0.3096
 1001MOL0     H32100   6.665   8.473  10.007  1.2080  0.7407 -1.7274
 1001MOL0     H32101   6.741   8.626  10.031  0.3578  1.4228  2.2444
 1001MOL0     H32102   6.674   8.649  10.263 -1.2178  0.5543 -0.1945
 1001MOL0     H32103   6.592   8.491  10.255  0.1876 -0.6807 -0.2646
 1001MOL0     H32104   6.470   8.619  10.040 -0.2089  2.5478 -0.6063
 1001MOL0     H32105   6.405   8.589  10.198 -0.1766  0.9360  2.0675
 1001MOL0     H32106   6.555   8.834  10.117  0.6605 -0.3778 -0.0145
 1001MOL0     H32107   6.461   8.815  10.269 -0.5184  1.0895 -0.3088
 1001MOL0     H32108   6.258   8.796  10.128  0.2651  0.5670 -0.5720
 1001MOL0     H32109   6.372   8.819   9.988  1.7228  3.3093 -0.5936
 1001MOL0     H32110   6.331   9.028  10.208  1.8927 -2.1102  0.5376
 1001MOL0     H32111   6.437   9.031  10.062 -0.4182 -0.4710 -0.7665
 1001MOL0     H32112   6.146   8.975  10.023 -0.0058 -0.2503  1.1538
 1001MOL0     H32113   6.250   9.047   9.906 -0.9846  2.2262 -0.2003
 1001MOL0     H32114   7.021   8.309  10.231 -2.0646 -0.0758  4.1175
 1001MOL0     H32115   7.248   8.254  10.320  3.3217  0.6834 -0.7071
 1001MOL0     H32116   7.657   8.599  10.684  2.3854  1.0553  1.2094
 1001MOL0     H32117   7.890   8.502  10.745  1.7188 -1.2886 -1.0490
 1001MOL0     H32118   9.643   8.733  11.061 -2.2936  0.3275 -1.8340
 1001MOL0     H32119   9.883   8.728  11.030 -2.0545  0.3210  4.0034
 1001MOL0     H32120  10.315   8.974  11.225 -2.2377 -1.0568 -1.4068
 1001MOL0     H32121  10.533   9.027  11.196  0.8241 -2.1138 -0.2200
 1001MOL0     H32122  10.820   9.203  11.030  0.9381 -1.9775  0.8008
 1001MOL0     H32123  10.729   9.092  11.141 -0.0715 -1.1865 -1.2764
 1001MOL0     H32124  10.628   9.371  11.051 -1.0541 -2.1611 -1.3994
 1001MOL0     H32125  10.546   9.273  11.172  1.4602 -4.8130  1.1225
 1001MOL0     H32126  10.698   9.467  11.267  2.1908  1.1793 -0.2850
 1001MOL0     H32127  10.832   9.371  11.211 -0.4075  0.5207 -0.2120
 1001MOL0     H32128  10.726   9.356  11.443 -1.4144 -0.2254 -0.6096
 1001MOL0     H32129  10.619   9.232  11.376 -0.3233 -0.0980 -0.7442
 1001MOL0     H32130  10.971   9.006  11.393  2.8186  1.9075 -3.5339
 1001MOL0     H32131  10.463   9.093  10.765  1.3407  2.1153  0.8241
 1001MOL0     H32132  10.229   9.011  10.806 -0.2955  1.1776  0.7990
 1002MOL0     O32133   6.368   8.032   4.466 -0.3064 -0.4379 -0.4252
 1002MOL0     C32134   6.417   7.983   4.365  0.0413 -0.7418  0.1525
 1002MOL0     O32135   6.349   7.916   4.268  0.4979 -0.8367  0.5394
 1002MOL0     C32136   6.220   7.873   4.282 -0.0848  1.1158  0.3120
 1002MOL0     C32137   6.123   7.876   4.181 -0.9392 -0.4241  0.1093
 1002MOL0     C32138   6.000   7.806   4.202 -0.2788 -0.5683 -0.1062
 1002MOL0     C32139   5.958   7.770   4.331 -0.4374 -0.0587 -0.5956
 1002MOL0     O32140   5.826   7.740   4.349  0.0174 -0.2119 -0.0303
 1002MOL0     C32141   5.782   7.700   4.479 -0.7077  0.0120 -0.2444
 1002MOL0     C32142   5.642   7.652   4.462  0.0437 -0.1064  0.0594
 1002MOL0     C32143   5.537   7.773   4.435  0.1732 -0.0031  0.1560
 1002MOL0     C32144   5.391   7.734   4.406 -0.0117 -0.5957 -0.5420
 1002MOL0     C32145   5.320   7.861   4.361 -0.0791  0.0282  0.7059
 1002MOL0     C32146   5.289   7.961   4.473  0.3124  0.0491  0.3096
 1002MOL0     C32147   5.204   7.912   4.590  0.1301 -0.8115  0.5446
 1002MOL0     C32148   5.070   7.866   4.545 -0.1718  0.1385 -0.1200
 1002MOL0     N32149   4.985   7.968   4.483  0.1850  0.0176 -0.2869
 1002MOL0     C32150   4.950   8.091   4.526  0.6514 -0.5596 -0.7208
 1002MOL0     C32151   4.859   8.148   4.438  0.6971 -0.7984 -0.5741
 1002MOL0     C32152   4.785   8.280   4.458  0.2897 -0.5832 -0.5909
 1002MOL0     C32153   4.642   8.256   4.461 -0.3533  0.2269  0.2661
 1002MOL0     C32154   4.584   8.394   4.490 -0.2641 -0.5118 -0.8219
 1002MOL0     C32155   4.436   8.387   4.492 -0.3388  0.5094 -0.8043
 1002MOL0     O32156   4.373   8.316   4.600 -0.3434  0.2245  0.0378
 1002MOL0     C32157   4.243   8.294   4.592  0.6405  0.6652 -0.0651
 1002MOL0     C32158   4.196   8.182   4.651 -0.4045 -0.3892 -0.7178
 1002MOL0     C32159   4.069   8.147   4.650  0.5249  0.6570 -1.2183
 1002MOL0     C32160   3.968   8.205   4.578  0.3460 -0.5351  0.4051
 1002MOL0     C32161   3.825   8.157   4.564  0.6658  0.6289  0.8642
 1002MOL0     O32162   3.741   8.244   4.499 -0.5137  0.0453  0.0833
 1002MOL0     C32163   3.608   8.234   4.499 -0.0463 -0.0046  0.4195
 1002MOL0     C32164   3.539   8.115   4.483 -0.7687  0.5489 -0.0061
 1002MOL0     C32165   3.399   8.115   4.503  0.3036 -0.5912 -0.4584
 1002MOL0     C32166   3.329   8.237   4.523 -0.4324 -0.6931 -0.1766
 1002MOL0     O32167   3.187   8.247   4.520  0.1054  0.6498 -0.0867
 1002MOL0     C32168   3.105   8.128   4.511  0.4225  0.3441 -0.3826
 1002MOL0     C32169   2.983   8.176   4.449 -0.0651  0.8970  0.1157
 1002MOL0     C32170   2.886   8.244   4.557 -0.2494 -0.5686 -0.4889
 1002MOL0     C32171   2.745   8.259   4.503 -0.2800  0.3967 -0.8168
 1002MOL0     C32172   2.656   8.342   4.600 -0.3610 -0.0031  0.1549
 1002MOL0     C32173   2.514   8.375   4.544 -0.3856 -1.0694  0.5966
 1002MOL0     C32174   2.430   8.459   4.646 -0.6365  0.5633  0.7498
 1002MOL0     C32175   2.286   8.481   4.610  0.8396  0.0531 -0.0704
 1002MOL0    Cl32176   2.194   8.339   4.594  0.0533  0.6775 -0.0433
 1002MOL0     C32177   3.399   8.355   4.530 -0.4060 -0.3710 -0.1827
 1002MOL0     C32178   3.537   8.359   4.512 -0.9421 -0.4068  0.3390
 1002MOL0     O32179   3.791   8.058   4.626 -0.1099  0.7197  0.2858
 1002MOL0     C32180   4.007   8.327   4.514 -0.0733  0.4649 -0.0245
 1002MOL0     C32181   4.142   8.373   4.525  0.6262 -0.2685 -0.5488
 1002MOL0     N32182   4.843   8.055   4.344 -0.9896  0.2438 -0.2084
 1002MOL0     N32183   4.902   7.943   4.372  0.0002  0.1122 -0.1728
 1002MOL0     C32184   6.053   7.770   4.432  0.1142  0.7279  1.6971
 1002MOL0     C32185   6.179   7.816   4.403 -0.3734 -0.2224 -0.3673
 1002MOL0     C32186   6.563   8.021   4.332  0.6259  0.6502 -0.4190
 1002MOL0     C32187   6.636   7.945   4.240 -0.3909  0.3181 -0.8720
 1002MOL0     C32188   6.767   7.988   4.208  0.4436  0.6802  0.2939
 1002MOL0     C32189   6.832   8.102   4.275 -0.0885 -0.6853  0.5605
 1002MOL0     O32190   6.959   8.144   4.244 -0.2473  0.2266 -0.4693
 1002MOL0     C32191   7.025   8.245   4.329 -0.0026 -0.0814  0.5902
 1002MOL0     C32192   7.178   8.248   4.304  0.2975  0.0819 -0.2595
 1002MOL0     C32193   7.226   8.243   4.159  0.6504 -0.4994  0.2479
 1002MOL0     C32194   7.372   8.227   4.151 -0.0864 -0.4338  0.9866
 1002MOL0     C32195   7.404   8.214   4.006  0.4314 -0.4843 -0.4545
 1002MOL0     C32196   7.439   8.187   3.891 -0.3817  0.2432  0.2030
 1002MOL0     C32197   6.756   8.164   4.370 -0.0071 -1.0078 -0.1216
 1002MOL0     C32198   6.629   8.125   4.401  0.5551 -0.9267  0.8393
 1002MOL0     H32199   6.147   7.904   4.079 -0.9504  2.0685  0.7241
 1002MOL0     H32200   5.933   7.819   4.117  0.4530  5.2716 -0.1931
 1002MOL0     H32201   5.779   7.787   4.546  0.4669  0.9819 -1.4051
 1002MOL0     H32202   5.848   7.624   4.521 -1.8106 -1.3895 -0.9472
 1002MOL0     H32203   5.608   7.598   4.551  0.8866 -2.9494 -1.2486
 1002MOL0     H32204   5.636   7.584   4.377 -0.0714 -0.8689  0.6715
 1002MOL0     H32205   5.582   7.826   4.351  0.4861  0.3390  0.5369
 1002MOL0     H32206   5.540   7.844   4.518  1.4655 -0.1459  0.2501
 1002MOL0     H32207   5.379   7.651   4.336 -2.0555 -1.3011  0.5772
 1002MOL0     H32208   5.344   7.689   4.494  0.5659  1.3293  0.8265
 1002MOL0     H32209   5.232   7.823   4.306  0.3922 -2.4700  1.5300
 1002MOL0     H32210   5.375   7.902   4.275 -2.2526  1.3680 -0.1302
 1002MOL0     H32211   5.248   8.053   4.431  1.3834 -0.6350 -2.5048
 1002MOL0     H32212   5.386   7.995   4.512 -1.4513  1.6563  3.6452
 1002MOL0     H32213   5.256   7.831   4.641  2.1708  1.3139  2.0519
 1002MOL0     H32214   5.191   7.994   4.662 -1.4311  0.9199 -1.5437
 1002MOL0     H32215   5.022   7.832   4.638  0.8827 -0.3928  0.2496
 1002MOL0     H32216   5.091   7.776   4.488  1.4514 -0.8533  1.8852
 1002MOL0     H32217   4.989   8.133   4.618  0.9559 -0.9747 -0.6543
 1002MOL0     H32218   4.817   8.357   4.389  0.7521  1.0415  1.3417
 1002MOL0     H32219   4.810   8.322   4.556 -1.5767  1.6224 -0.9688
 1002MOL0     H32220   4.603   8.182   4.531  1.7332 -1.1419  0.0593
 1002MOL0     H32221   4.603   8.239   4.360 -0.9850  2.8732 -0.0092
 1002MOL0     H32222   4.610   8.426   4.591 -2.5285  1.1198 -0.6744
 1002MOL0     H32223   4.616   8.470   4.418  0.8529 -0.9671 -0.8236
 1002MOL0     H32224   4.408   8.339   4.398  0.7520  1.0902 -1.4444
 1002MOL0     H32225   4.400   8.490   4.498  2.4546  1.5621 -0.2393
 1002MOL0     H32226   4.279   8.124   4.690  0.9009  1.1546 -1.1344
 1002MOL0     H32227   4.047   8.055   4.703  1.0159  1.5147  0.5363
 1002MOL0     H32228   3.586   8.018   4.471  0.4671  1.0183  0.7939
 1002MOL0     H32229   3.349   8.019   4.497 -2.2325  0.6337 -0.2730
 1002MOL0     H32230   3.078   8.078   4.604 -1.5068 -0.7212 -1.4423
 1002MOL0     H32231   3.160   8.066   4.439  0.4435  1.0992 -1.0392
 1002MOL0     H32232   2.927   8.089   4.413  0.1336  0.1253  1.5967
 1002MOL0     H32233   2.994   8.240   4.361 -5.4984  1.2859 -0.6245
 1002MOL0     H32234   2.936   8.336   4.588  0.2301 -0.6208 -1.0867
 1002MOL0     H32235   2.884   8.181   4.646 -0.1930 -0.9788 -0.7768
 1002MOL0     H32236   2.745   8.302   4.402  3.0588  1.3708 -0.5120
 1002MOL0     H32237   2.703   8.158   4.508  0.9568 -0.1020 -0.1322
 1002MOL0     H32238   2.712   8.433   4.623 -2.2826  1.0922  0.6747
 1002MOL0     H32239   2.642   8.294   4.697  0.1324  0.9967  0.7310
 1002MOL0     H32240   2.465   8.280   4.520 -0.7533 -0.7570  0.0875
 1002MOL0     H32241   2.522   8.434   4.453  1.5767  0.0447  1.4188
 1002MOL0     H32242   2.424   8.413   4.745 -0.7275  0.2863  0.6156
 1002MOL0     H32243   2.477   8.558   4.654  0.9904  0.0357 -1.5212
 1002MOL0     H32244   2.279   8.535   4.515 -0.8833  1.7380  0.9420
 1002MOL0     H32245   2.248   8.546   4.688 -1.4111  0.6803 -1.5841
 1002MOL0     H32246   3.342   8.447   4.543  1.8592  0.8434  2.0763
 1002MOL0     H32247   3.595   8.451   4.502  1.4708 -1.8323  0.4256
 1002MOL0     H32248   3.938   8.377   4.446 -0.1666 -1.1401 -1.1623
 1002MOL0     H32249   4.164   8.463   4.468 -1.1544  0.0720 -0.7451
 1002MOL0     H32250   6.041   7.720   4.527  3.6032 -2.5815  0.6466
 1002MOL0     H32251   6.250   7.803   4.485  1.3919  0.6656 -1.6884
 1002MOL0     H32252   6.606   7.857   4.183 -1.5760  1.0864 -1.4595
 1002MOL0     H32253   6.825   7.934   4.134  0.8305  3.8002 -1.9141
 1002MOL0     H32254   7.015   8.231   4.437  2.9291 -0.8418  0.8412
 1002MOL0     H32255   6.991   8.341   4.289  4.6304  1.6822  0.2533
 1002MOL0     H32256   7.217   8.342   4.343  1.3931 -0.6221  0.3780
 1002MOL0     H32257   7.221   8.166   4.363 -2.2588 -0.9207  0.3769
 1002MOL0     H32258   7.190   8.330   4.104  1.3334  0.2325  0.9288
 1002MOL0     H32259   7.181   8.153   4.116 -1.4022  0.0059  1.2347
 1002MOL0     H32260   7.412   8.322   4.186 -1.2945 -0.4573  2.5293
 1002MOL0     H32261   7.404   8.143   4.214 -0.1285 -2.7165 -1.8059
 1002MOL0     H32262   7.470   8.145   3.798 -0.0251 -0.5489  0.6619
 1002MOL0     H32263   6.794   8.242   4.435  1.9404 -1.5316 -0.5888
 1002MOL0     H32264   6.582   8.172   4.487  1.7319 -1.5489  1.8659
 1003MOL0     O32265   3.258   7.428   0.962  0.1203  0.1995  0.4253
 1003MOL0     C32266   3.222   7.329   1.022 -0.1144  0.2486 -0.4320
 1003MOL0     O32267   3.299   7.226   1.075 -0.4700  0.6382 -0.3392
 1003MOL0     C32268   3.440   7.225   1.054  0.2372 -0.1382  1.1212
 1003MOL0     C32269   3.526   7.337   1.063 -0.7446 -0.2448 -0.4096
 1003MOL0     C32270   3.665   7.324   1.047 -0.4797 -0.7585  0.2006
 1003MOL0     C32271   3.725   7.198   1.023 -0.1757 -0.3687 -0.1680
 1003MOL0     O32272   3.859   7.193   1.006 -0.0602  0.1158  0.1265
 1003MOL0     C32273   3.916   7.093   0.917  0.1344  0.6181  0.8702
 1003MOL0     C32274   4.062   7.142   0.882  0.8802 -0.4909 -0.1023
 1003MOL0     C32275   4.041   7.271   0.805 -0.5240 -0.2281  0.1153
 1003MOL0     C32276   4.163   7.331   0.733  0.6176  0.6093 -0.9474
 1003MOL0     C32277   4.230   7.425   0.830 -0.0828  0.2114 -0.0083
 1003MOL0     C32278   4.332   7.507   0.757  0.1329  0.4593  0.0136
 1003MOL0     C32279   4.403   7.608   0.854  0.5842  0.3951  0.5199
 1003MOL0     C32280   4.531   7.555   0.908 -0.1329 -0.6280 -0.6895
 1003MOL0     N32281   4.591   7.663   0.985 -0.0249  0.1354  0.4051
 1003MOL0     C32282   4.541   7.724   1.104 -0.2709  0.9774  0.5213
 1003MOL0     C32283   4.628   7.822   1.140  0.0333  0.2710 -0.5531
 1003MOL0     C32284   4.603   7.923   1.250  0.2806 -0.8249 -0.1620
 1003MOL0     C32285   4.495   8.024   1.206 -0.6834 -0.1649 -0.6087
 1003MOL0     C32286   4.458   8.113   1.320 -0.6782 -0.7293  0.3720
 1003MOL0     C32287   4.327   8.194   1.293  0.1481  0.1568 -0.2934
 1003MOL0     O32288   4.215   8.095   1.287  0.1127  1.0648 -0.0868
 1003MOL0     C32289   4.086   8.128   1.307 -0.3181 -0.2848  0.0572
 1003MOL0     C32290   4.049   8.235   1.386 -0.4835  0.0246 -0.5698
 1003MOL0     C32291   3.921   8.259   1.423  0.2124 -0.9204 -0.1321
 1003MOL0     C32292   3.819   8.180   1.378  0.6417  0.1703 -0.4602
 1003MOL0     C32293   3.681   8.206   1.426  0.0734  0.2357 -0.2102
 1003MOL0     O32294   3.651   8.323   1.488 -0.0435  0.2900  0.6084
 1003MOL0     C32295   3.520   8.352   1.521 -0.1971 -0.2604  0.1689
 1003MOL0     C32296   3.454   8.290   1.626  0.1959 -0.2166 -0.7140
 1003MOL0     C32297   3.322   8.315   1.660 -0.1913 -0.2240 -0.0372
 1003MOL0     C32298   3.242   8.399   1.578  1.0238 -0.4228  0.5116
 1003MOL0     O32299   3.107   8.430   1.602 -0.0607 -0.1322 -0.6114
 1003MOL0     C32300   3.034   8.333   1.675  1.3995 -0.1197  0.4486
 1003MOL0     C32301   2.886   8.367   1.650 -0.6417  0.4887  0.7305
 1003MOL0     C32302   2.783   8.285   1.727 -0.7474 -0.4917  0.0735
 1003MOL0     C32303   2.635   8.311   1.679  0.6260 -0.1795 -0.4369
 1003MOL0     C32304   2.535   8.220   1.753  0.2223  0.2975  0.0679
 1003MOL0     C32305   2.391   8.274   1.776 -0.4164 -0.6156  0.2462
 1003MOL0     C32306   2.290   8.170   1.816  0.5085  0.6778  0.0909
 1003MOL0     C32307   2.243   8.066   1.710 -0.0361  0.6063  0.5646
 1003MOL0    Cl32308   2.109   7.973   1.770  0.0251 -0.2945 -0.1637
 1003MOL0     C32309   3.311   8.456   1.470 -0.1196  0.9008 -0.3976
 1003MOL0     C32310   3.442   8.434   1.434 -0.7048 -0.3457  0.1732
 1003MOL0     O32311   3.598   8.130   1.383 -0.4932  0.3614 -0.2798
 1003MOL0     C32312   3.851   8.065   1.303 -0.2867  0.0344  0.4466
 1003MOL0     C32313   3.983   8.035   1.272  0.2683  0.6312  0.4132
 1003MOL0     N32314   4.734   7.819   1.046  0.1373 -0.4571 -0.3758
 1003MOL0     N32315   4.712   7.718   0.959  0.6103  0.2788 -0.5199
 1003MOL0     C32316   3.637   7.090   1.025 -0.1374  0.7255  0.9395
 1003MOL0     C32317   3.506   7.103   1.029  0.2016  0.3058 -0.3983
 1003MOL0     C32318   3.071   7.309   1.034  0.0829 -0.1958 -0.6693
 1003MOL0     C32319   3.031   7.189   1.087 -0.7065  0.2117 -0.5172
 1003MOL0     C32320   2.895   7.171   1.098 -0.5474  0.0279  0.3766
 1003MOL0     C32321   2.800   7.265   1.062  0.2113 -0.4024 -0.3397
 1003MOL0     O32322   2.669   7.239   1.086 -0.1686 -0.6656 -0.0686
 1003MOL0     C32323   2.568   7.344   1.061 -0.7800  0.6707 -0.0713
 1003MOL0     C32324   2.425   7.293   1.090 -1.0668  0.0407 -0.0411
 1003MOL0     C32325   2.380   7.305   1.237 -0.7221  0.6505  0.2187
 1003MOL0     C32326   2.247   7.229   1.248  0.5853  0.1212  0.2593
 1003MOL0     C32327   2.213   7.228   1.391  0.7872 -0.2979  0.8879
 1003MOL0     C32328   2.181   7.212   1.507  0.3563 -0.0452  0.4758
 1003MOL0     C32329   2.846   7.391   1.018  0.6805 -0.3914  0.3486
 1003MOL0     C32330   2.982   7.415   1.005  0.0249 -0.1289 -0.1664
 1003MOL0     H32331   3.487   7.438   1.075  0.0339 -0.2130  2.5112
 1003MOL0     H32332   3.728   7.411   1.067 -0.1404 -0.8818 -0.3086
 1003MOL0     H32333   3.858   7.093   0.824  1.4762 -1.1532 -0.0186
 1003MOL0     H32334   3.918   6.993   0.961  1.0168  0.3277  0.2025
 1003MOL0     H32335   4.121   7.069   0.827  1.7555  1.1580 -1.4442
 1003MOL0     H32336   4.118   7.154   0.975 -0.6554 -1.2172  0.9624
 1003MOL0     H32337   3.998   7.338   0.880  1.9656 -1.3405  2.6706
 1003MOL0     H32338   3.966   7.266   0.725  0.9390  1.0566 -1.4044
 1003MOL0     H32339   4.241   7.256   0.715 -0.3756 -2.5315  5.1038
 1003MOL0     H32340   4.120   7.389   0.652 -1.8140 -0.6938 -0.6674
 1003MOL0     H32341   4.272   7.355   0.902 -1.8427  0.2298  1.1159
 1003MOL0     H32342   4.145   7.485   0.867 -2.3064 -1.7498 -1.6337
 1003MOL0     H32343   4.279   7.567   0.682  1.0072  2.2059  0.7383
 1003MOL0     H32344   4.412   7.447   0.713 -0.6146  1.5201 -3.0880
 1003MOL0     H32345   4.427   7.694   0.790  0.4432 -0.0202 -0.0967
 1003MOL0     H32346   4.329   7.641   0.927 -1.2693  0.3276 -1.2463
 1003MOL0     H32347   4.592   7.517   0.825  0.5546 -3.0674  0.8408
 1003MOL0     H32348   4.497   7.473   0.973 -2.0294  0.4603 -0.2321
 1003MOL0     H32349   4.451   7.699   1.158  0.0561 -2.2852 -0.2197
 1003MOL0     H32350   4.694   7.979   1.275 -0.6715  0.7327 -0.0547
 1003MOL0     H32351   4.566   7.872   1.340  0.4391 -1.1086 -0.2568
 1003MOL0     H32352   4.403   7.976   1.173 -0.6277 -0.0426 -0.9464
 1003MOL0     H32353   4.523   8.092   1.125  1.2699  0.3945  0.4783
 1003MOL0     H32354   4.455   8.050   1.409  5.1317 -1.1406  0.6353
 1003MOL0     H32355   4.545   8.179   1.334 -0.9644 -0.3765  0.5164
 1003MOL0     H32356   4.324   8.240   1.194  1.1296  3.8189  1.1803
 1003MOL0     H32357   4.315   8.269   1.372 -1.0080 -0.7773  0.4557
 1003MOL0     H32358   4.125   8.301   1.427  1.2298 -1.8040 -0.6537
 1003MOL0     H32359   3.896   8.343   1.487 -1.8584  0.4705 -2.5395
 1003MOL0     H32360   3.505   8.210   1.678 -0.3248  0.8233  1.5219
 1003MOL0     H32361   3.290   8.271   1.753  0.1069  0.9394  0.6416
 1003MOL0     H32362   3.059   8.338   1.781  1.6325  0.0413  0.3869
 1003MOL0     H32363   3.065   8.238   1.629 -2.0019 -0.4495 -1.5242
 1003MOL0     H32364   2.879   8.347   1.543 -2.1984 -0.7340  1.0224
 1003MOL0     H32365   2.868   8.474   1.662 -0.8334  0.7334 -1.3127
 1003MOL0     H32366   2.783   8.314   1.832  0.0806 -0.3601  0.0431
 1003MOL0     H32367   2.799   8.179   1.708 -3.1729 -0.9525  0.2648
 1003MOL0     H32368   2.595   8.411   1.700  3.1152  1.0148 -1.0109
 1003MOL0     H32369   2.638   8.285   1.573 -2.5493 -1.0849 -0.4229
 1003MOL0     H32370   2.570   8.196   1.853 -2.3723 -0.6763  0.8176
 1003MOL0     H32371   2.537   8.133   1.686  0.7564  1.1763 -1.1144
 1003MOL0     H32372   2.354   8.314   1.682 -1.2821  2.0794  1.6375
 1003MOL0     H32373   2.400   8.359   1.845 -1.3582 -0.0019 -0.3692
 1003MOL0     H32374   2.331   8.112   1.900  0.8058  0.0835 -0.4558
 1003MOL0     H32375   2.195   8.208   1.854 -0.5005 -2.4072  0.9639
 1003MOL0     H32376   2.324   7.998   1.683 -2.2059 -1.2917 -1.6512
 1003MOL0     H32377   2.218   8.114   1.615  1.9127  2.6081  0.9773
 1003MOL0     H32378   3.248   8.520   1.409  1.5098  2.1507 -0.8656
 1003MOL0     H32379   3.501   8.471   1.351  2.0315 -1.1061  1.6442
 1003MOL0     H32380   3.773   7.989   1.304  2.1538 -2.7192  3.0159
 1003MOL0     H32381   4.003   7.933   1.241 -1.8629 -0.1841  1.5305
 1003MOL0     H32382   3.681   6.991   1.018 -1.2750  0.2078  0.9383
 1003MOL0     H32383   3.442   7.016   1.026 -1.2525  1.3239  0.2033
 1003MOL0     H32384   3.097   7.108   1.118 -0.4512  0.3050 -0.8145
 1003MOL0     H32385   2.860   7.078   1.143  1.2427 -0.1086  1.6158
 1003MOL0     H32386   2.576   7.371   0.955 -0.3197  0.3753 -0.1184
 1003MOL0     H32387   2.590   7.434   1.118  0.6783  0.6701 -0.5777
 1003MOL0     H32388   2.358   7.349   1.024  0.7572  1.0223 -1.1195
 1003MOL0     H32389   2.434   7.190   1.055  1.2352  0.6271 -1.3526
 1003MOL0     H32390   2.379   7.410   1.266 -0.8609  1.0370 -1.1318
 1003MOL0     H32391   2.450   7.252   1.302 -0.2939 -1.3752 -1.7642
 1003MOL0     H32392   2.174   7.283   1.187  2.4973  1.5603 -0.8760
 1003MOL0     H32393   2.267   7.131   1.204  3.4051  0.3463  0.8126
 1003MOL0     H32394   2.155   7.191   1.609  0.5155  0.7435  0.6901
 1003MOL0     H32395   2.780   7.472   0.988  2.2301  0.0111 -2.3470
 1003MOL0     H32396   3.006   7.518   0.981 -0.3689  0.2158  0.8591
 1004MOL0     O32397   4.171   4.446   0.973  0.0507  0.6940 -0.1623
 1004MOL0     C32398   4.156   4.436   1.093  0.6604  0.3141 -1.1628
 1004MOL0     O32399   4.110   4.323   1.160 -0.2738 -0.8192  0.4855
 1004MOL0     C32400   4.044   4.220   1.093  0.0883 -0.3805  0.0355
 1004MOL0     C32401   3.946   4.155   1.168  0.0801 -0.3062  0.1171
 1004MOL0     C32402   3.877   4.044   1.106 -0.9608  0.0784  0.3032
 1004MOL0     C32403   3.907   3.989   0.983  0.7465  0.7807 -0.1536
 1004MOL0     O32404   3.843   3.881   0.929  0.1119 -0.2063 -0.0562
 1004MOL0     C32405   3.722   3.828   0.990 -0.3189  0.2786  0.0914
 1004MOL0     C32406   3.686   3.699   0.923  0.3569  0.4443 -0.3249
 1004MOL0     C32407   3.540   3.664   0.970 -0.3629 -0.2324 -0.2102
 1004MOL0     C32408   3.426   3.738   0.900  0.2856  0.3772  0.4453
 1004MOL0     C32409   3.293   3.700   0.949  0.5169 -0.5297 -0.0038
 1004MOL0     C32410   3.252   3.558   0.906  0.6436  0.2382  0.5846
 1004MOL0     C32411   3.113   3.513   0.962 -0.0328 -0.9536 -0.0931
 1004MOL0     C32412   3.038   3.404   0.882  0.3667  1.0872 -0.3393
 1004MOL0     N32413   2.926   3.354   0.959 -0.5531 -0.3665  0.0176
 1004MOL0     C32414   2.804   3.355   0.898  0.2621 -0.5884 -0.8824
 1004MOL0     C32415   2.722   3.274   0.978  0.1645  0.4676 -0.2119
 1004MOL0     C32416   2.585   3.236   0.951  0.0913 -0.4571 -0.3494
 1004MOL0     C32417   2.503   3.322   1.045  0.0675  0.5365 -0.6004
 1004MOL0     C32418   2.357   3.294   1.017 -0.8426 -0.6196  0.8005
 1004MOL0     C32419   2.255   3.322   1.134 -0.0382 -0.2828  0.2260
 1004MOL0     O32420   2.148   3.230   1.121  0.5901  0.2626 -0.1653
 1004MOL0     C32421   2.037   3.261   1.042  0.3725 -0.1792  0.2980
 1004MOL0     C32422   1.943   3.160   1.027 -0.9949 -0.4346  1.6804
 1004MOL0     C32423   1.846   3.168   0.936 -0.4346  0.0658  0.8826
 1004MOL0     C32424   1.822   3.284   0.862 -1.0353 -0.1312  0.2469
 1004MOL0     C32425   1.714   3.294   0.765  0.9568 -0.4885 -0.0779
 1004MOL0     O32426   1.596   3.243   0.807 -0.0078 -0.3063 -0.7353
 1004MOL0     C32427   1.478   3.248   0.729  0.0027  0.6362 -0.3880
 1004MOL0     C32428   1.474   3.245   0.587 -0.0764 -0.2963  0.2153
 1004MOL0     C32429   1.346   3.249   0.520 -0.3964 -1.1175  0.3069
 1004MOL0     C32430   1.227   3.264   0.594  0.5419 -0.4955 -0.6418
 1004MOL0     O32431   1.106   3.286   0.537  0.2953  0.1288  0.4881
 1004MOL0     C32432   1.080   3.182   0.438  0.2696 -0.0197 -0.5269
 1004MOL0     C32433   0.933   3.177   0.410 -0.2079 -0.3430  0.4836
 1004MOL0     C32434   0.888   3.294   0.329  0.5392 -0.6201  0.2823
 1004MOL0     C32435   0.744   3.274   0.265  0.2886 -1.4010 -0.1301
 1004MOL0     C32436   0.759   3.201   0.131 -0.6254 -0.1436 -0.7946
 1004MOL0     C32437   0.628   3.200   0.055 -0.8651  0.3664  0.4284
 1004MOL0     C32438   0.632   3.118  -0.069 -0.7045  0.8710 -1.0363
 1004MOL0     C32439   0.715   3.189  -0.174  0.1484 -0.1365  0.0116
 1004MOL0    Cl32440   0.670   3.117  -0.331 -0.1105 -0.4986  0.2044
 1004MOL0     C32441   1.237   3.275   0.737  0.0532 -0.1646  0.5130
 1004MOL0     C32442   1.359   3.262   0.800 -0.3308  0.3949  0.2151
 1004MOL0     O32443   1.731   3.350   0.655 -0.6346 -0.3373  0.4175
 1004MOL0     C32444   1.916   3.391   0.876  0.6708  0.0991 -0.1724
 1004MOL0     C32445   2.018   3.379   0.972  0.7389  0.0625 -0.5660
 1004MOL0     N32446   2.799   3.229   1.082 -0.2382  0.2106 -0.5553
 1004MOL0     N32447   2.921   3.270   1.070 -1.3291 -0.7326  0.4954
 1004MOL0     C32448   4.003   4.054   0.920  0.3008  0.3497  0.2047
 1004MOL0     C32449   4.077   4.167   0.969  0.3316 -0.4920  0.1293
 1004MOL0     C32450   4.213   4.543   1.181  1.0781  0.1032  0.2989
 1004MOL0     C32451   4.194   4.549   1.324 -0.2738 -0.0485  0.2675
 1004MOL0     C32452   4.251   4.645   1.406  0.9310  1.3994  0.8140
 1004MOL0     C32453   4.345   4.735   1.352  0.5959 -0.4161  0.2435
 1004MOL0     O32454   4.428   4.816   1.427  0.1977  0.3091  0.3596
 1004MOL0     C32455   4.433   4.794   1.566 -0.5912  0.2178  0.3771
 1004MOL0     C32456   4.320   4.859   1.637  0.4675 -0.0361 -1.0118
 1004MOL0     C32457   4.356   4.983   1.711 -0.4092  0.5586 -0.2061
 1004MOL0     C32458   4.381   5.112   1.627  0.2130 -0.3974  0.0294
 1004MOL0     C32459   4.282   5.224   1.639  0.2140  0.0572  0.9107
 1004MOL0     C32460   4.202   5.314   1.653 -0.2922  0.4490  0.2673
 1004MOL0     C32461   4.358   4.738   1.209 -0.0893  0.3477  0.1204
 1004MOL0     C32462   4.294   4.639   1.128 -0.5361 -0.5471  0.2385
 1004MOL0     H32463   3.925   4.183   1.271 -1.6864  0.5839 -0.4439
 1004MOL0     H32464   3.807   3.997   1.175 -0.2621 -1.9561 -0.3165
 1004MOL0     H32465   3.647   3.906   0.978 -0.0625  0.3348 -1.1869
 1004MOL0     H32466   3.726   3.810   1.098  1.7724 -0.2696 -0.0241
 1004MOL0     H32467   3.753   3.618   0.952  0.9893  0.7673 -0.8494
 1004MOL0     H32468   3.674   3.702   0.815 -1.3932 -2.2071 -0.3075
 1004MOL0     H32469   3.527   3.674   1.078  0.8107 -1.3052  0.0667
 1004MOL0     H32470   3.527   3.558   0.945  2.0610 -0.5102 -0.5237
 1004MOL0     H32471   3.445   3.844   0.914  0.3588  0.3924  0.2324
 1004MOL0     H32472   3.445   3.718   0.794  0.3023 -0.6220  0.6254
 1004MOL0     H32473   3.214   3.762   0.906  0.3137 -2.0546 -2.0017
 1004MOL0     H32474   3.300   3.705   1.058  2.2976  1.6146 -0.1636
 1004MOL0     H32475   3.320   3.478   0.937  0.6627 -0.5671 -1.3599
 1004MOL0     H32476   3.260   3.553   0.797  0.5010 -2.3452  0.6406
 1004MOL0     H32477   3.130   3.479   1.065  0.2295 -0.9751 -0.1416
 1004MOL0     H32478   3.052   3.603   0.973  0.6454 -0.0756 -2.8301
 1004MOL0     H32479   3.103   3.317   0.873 -0.7594 -0.0512  1.7865
 1004MOL0     H32480   3.011   3.441   0.782  1.4222 -1.3549 -1.6165
 1004MOL0     H32481   2.767   3.415   0.816  1.9669  2.8821  0.6456
 1004MOL0     H32482   2.563   3.130   0.965 -0.0140 -0.2816  0.9742
 1004MOL0     H32483   2.568   3.254   0.845 -0.6291  5.4669  0.4272
 1004MOL0     H32484   2.522   3.430   1.039 -0.6459  0.9447  2.6110
 1004MOL0     H32485   2.532   3.297   1.147  1.3993  0.1028 -1.0548
 1004MOL0     H32486   2.333   3.350   0.927 -0.8857 -1.0151  0.5637
 1004MOL0     H32487   2.355   3.186   0.997  1.4829 -0.4305 -0.9449
 1004MOL0     H32488   2.218   3.425   1.140  1.1522  0.1361  0.7814
 1004MOL0     H32489   2.313   3.294   1.223 -0.3099 -0.0246  0.4882
 1004MOL0     H32490   1.969   3.059   1.059  0.2419 -1.1444 -1.2414
 1004MOL0     H32491   1.788   3.080   0.913  1.0609 -0.0398 -3.2967
 1004MOL0     H32492   1.562   3.252   0.524 -0.0472 -1.8543  0.0459
 1004MOL0     H32493   1.342   3.270   0.414 -1.2119 -0.9030  0.3764
 1004MOL0     H32494   1.113   3.089   0.485  2.4844  0.9339 -0.0655
 1004MOL0     H32495   1.129   3.195   0.341 -0.0993  0.1484 -0.6907
 1004MOL0     H32496   0.869   3.180   0.499 -0.2786 -0.6929  0.4436
 1004MOL0     H32497   0.919   3.082   0.358  0.3995  0.3761 -1.0418
 1004MOL0     H32498   0.957   3.317   0.247 -1.7084 -0.3020 -1.6119
 1004MOL0     H32499   0.878   3.376   0.401 -2.2893 -1.2573  0.7137
 1004MOL0     H32500   0.676   3.222   0.333  1.6742 -2.3202  0.6126
 1004MOL0     H32501   0.697   3.371   0.250  1.1254 -0.6174  1.9707
 1004MOL0     H32502   0.795   3.102   0.158 -0.7840 -0.0711 -0.3054
 1004MOL0     H32503   0.840   3.247   0.072 -1.9939 -0.2441 -2.8829
 1004MOL0     H32504   0.610   3.305   0.029 -1.9503 -0.2126 -1.3351
 1004MOL0     H32505   0.551   3.168   0.125 -1.2392 -2.3057 -1.0897
 1004MOL0     H32506   0.676   3.023  -0.036 -0.0406  1.0897 -1.2837
 1004MOL0     H32507   0.530   3.103  -0.104 -1.0960  0.2723  0.2817
 1004MOL0     H32508   0.824   3.190  -0.162  0.0891  0.2654  0.5595
 1004MOL0     H32509   0.683   3.293  -0.176 -1.6320 -0.6586 -2.3950
 1004MOL0     H32510   1.142   3.268   0.788  0.0207 -3.5425  0.1852
 1004MOL0     H32511   1.372   3.259   0.907  1.5099  1.6538  0.0840
 1004MOL0     H32512   1.902   3.484   0.823  0.4088 -0.0780 -0.4129
 1004MOL0     H32513   2.095   3.455   0.979  1.2111 -0.4244 -0.4759
 1004MOL0     H32514   4.019   4.003   0.826  0.4014  1.2855 -0.3038
 1004MOL0     H32515   4.154   4.205   0.904 -1.9219 -0.7629 -2.8800
 1004MOL0     H32516   4.132   4.477   1.376  0.9540  0.2426  2.2101
 1004MOL0     H32517   4.236   4.644   1.514  0.3960  2.3732  0.7633
 1004MOL0     H32518   4.523   4.842   1.605  2.1044 -1.9079 -2.7269
 1004MOL0     H32519   4.446   4.689   1.593 -0.7071  0.6411  2.2242
 1004MOL0     H32520   4.243   4.886   1.564  2.0194  1.5979 -2.1254
 1004MOL0     H32521   4.275   4.786   1.705  0.6530  0.5082 -0.2821
 1004MOL0     H32522   4.446   4.962   1.770  0.6972  1.7173 -1.4180
 1004MOL0     H32523   4.270   4.993   1.779  1.5540  0.1241  2.5073
 1004MOL0     H32524   4.483   5.146   1.645 -0.3049  0.5811  1.2121
 1004MOL0     H32525   4.392   5.076   1.524 -0.5938 -1.9888  0.4575
 1004MOL0     H32526   4.141   5.400   1.670 -0.7340 -0.2604  2.6167
 1004MOL0     H32527   4.426   4.817   1.178 -1.0442  1.0472 -0.2553
 1004MOL0     H32528   4.324   4.645   1.024  0.1531 -1.2675  0.3950
 1005MOL0     O32529  10.365   2.280   8.744  0.1440  0.0859 -0.3965
 1005MOL0     C32530  10.389   2.375   8.819  0.3503  0.1226  0.1130
 1005MOL0     O32531  10.502   2.384   8.897 -0.1907  0.3409 -0.0245
 1005MOL0     C32532  10.584   2.264   8.903  0.9934 -0.0294  0.3591
 1005MOL0     C32533  10.720   2.281   8.902 -0.4278 -0.4212  0.4491
 1005MOL0     C32534  10.808   2.174   8.900  0.1709  0.8571 -0.6974
 1005MOL0     C32535  10.762   2.040   8.919  0.7272  0.8019 -0.3666
 1005MOL0     O32536  10.847   1.932   8.930 -0.3071 -0.5699 -0.0049
 1005MOL0     C32537  10.989   1.944   8.919  0.1629  0.8721 -0.1601
 1005MOL0     C32538  11.068   1.805   8.936 -0.3050  0.4264  0.1385
 1005MOL0     C32539  11.023   1.723   9.057 -0.4737 -0.2179 -0.3497
 1005MOL0     C32540  11.070   1.795   9.191  0.0176  0.9504  0.4201
 1005MOL0     C32541  10.950   1.859   9.263 -0.5208  0.0398 -0.7249
 1005MOL0     C32542  10.859   1.772   9.364 -0.1030  0.5894 -0.3676
 1005MOL0     C32543  10.783   1.851   9.461 -0.0851  0.1779  0.8664
 1005MOL0     C32544  10.863   1.886   9.589 -0.3023  0.5053  0.3060
 1005MOL0     N32545  10.786   1.981   9.669 -0.4046  0.0786 -0.0734
 1005MOL0     C32546  10.676   1.941   9.750 -0.7542 -0.7882  0.8778
 1005MOL0     C32547  10.628   2.064   9.785 -0.4611 -0.1718  0.6265
 1005MOL0     C32548  10.511   2.072   9.881 -0.1864  1.0501  0.6895
 1005MOL0     C32549  10.426   2.194   9.856 -0.1230  0.7082  0.4634
 1005MOL0     C32550  10.317   2.188   9.957 -0.0135 -0.0909 -1.0908
 1005MOL0     C32551  10.201   2.279   9.911 -0.0178 -0.2941 -0.5265
 1005MOL0     O32552  10.110   2.205   9.818  0.2003  0.5650 -0.1246
 1005MOL0     C32553   9.977   2.225   9.825 -0.8442  0.8181 -0.0748
 1005MOL0     C32554   9.899   2.289   9.927  0.1606  0.4592 -0.3821
 1005MOL0     C32555   9.760   2.292   9.918  0.4688 -0.1230  0.3103
 1005MOL0     C32556   9.694   2.235   9.805  0.3077  0.4616  0.3706
 1005MOL0     C32557   9.550   2.232   9.793  0.2092 -0.0950 -0.1749
 1005MOL0     O32558   9.471   2.198   9.899  0.6577  0.5534  0.3235
 1005MOL0     C32559   9.334   2.209   9.914 -1.2476  0.1170 -0.4970
 1005MOL0     C32560   9.257   2.101   9.972 -0.0437  0.5385 -0.0779
 1005MOL0     C32561   9.117   2.108   9.991 -0.5455 -0.1677 -0.0829
 1005MOL0     C32562   9.042   2.218   9.947 -0.6353  0.0703 -0.4427
 1005MOL0     O32563   8.902   2.217   9.957 -0.4037  0.9255  0.6139
 1005MOL0     C32564   8.839   2.260  10.076 -0.5132  0.1189 -0.1909
 1005MOL0     C32565   8.694   2.220  10.077  0.9239  0.1235  0.8312
 1005MOL0     C32566   8.637   2.214  10.220  0.2303 -0.4591  0.1826
 1005MOL0     C32567   8.491   2.160  10.223  0.6291 -0.3955 -0.1183
 1005MOL0     C32568   8.381   2.270  10.189  0.5644  0.8093  0.3787
 1005MOL0     C32569   8.236   2.214  10.167 -0.1995 -0.2196 -0.2735
 1005MOL0     C32570   8.148   2.332  10.124  0.2598  0.5071 -0.4619
 1005MOL0     C32571   7.999   2.278  10.116  0.3761  0.1953 -0.2925
 1005MOL0    Cl32572   7.938   2.244  10.283 -0.2820 -0.2058 -0.0893
 1005MOL0     C32573   9.121   2.318   9.873  0.3962  0.1245 -0.2718
 1005MOL0     C32574   9.263   2.316   9.863  0.1990  1.1011  0.7461
 1005MOL0     O32575   9.514   2.264   9.681  0.7376  0.2149  0.2810
 1005MOL0     C32576   9.767   2.179   9.696 -0.9370 -0.1811 -0.1671
 1005MOL0     C32577   9.908   2.173   9.710 -0.6415 -0.2553  0.0734
 1005MOL0     N32578  10.705   2.170   9.736 -0.6695 -0.5535 -0.6907
 1005MOL0     N32579  10.800   2.117   9.671  0.1539  0.6918  0.0445
 1005MOL0     C32580  10.625   2.018   8.924 -0.1299  0.8507  0.1737
 1005MOL0     C32581  10.530   2.125   8.922 -0.2762 -0.2022  0.3305
 1005MOL0     C32582  10.273   2.456   8.859  1.0970  0.6421 -1.0333
 1005MOL0     C32583  10.286   2.557   8.955  0.3472  0.8905  0.5278
 1005MOL0     C32584  10.179   2.643   8.994 -0.0884 -0.0859 -0.1319
 1005MOL0     C32585  10.057   2.635   8.939  0.0727 -0.3736  0.4847
 1005MOL0     O32586   9.957   2.723   8.980  0.2653  0.3819 -0.3161
 1005MOL0     C32587   9.859   2.770   8.891  0.5089  0.3696 -0.6295
 1005MOL0     C32588   9.794   2.891   8.950  0.2346 -0.1358  0.0522
 1005MOL0     C32589   9.677   2.858   9.050 -0.0509 -0.1148 -0.1386
 1005MOL0     C32590   9.587   2.975   9.091 -0.1085 -0.3774  0.8319
 1005MOL0     C32591   9.472   2.924   9.175  0.1955 -0.0854 -0.0508
 1005MOL0     C32592   9.381   2.868   9.227  0.2649 -0.0325  0.2592
 1005MOL0     C32593  10.044   2.531   8.841  0.4958  0.5376 -0.6317
 1005MOL0     C32594  10.144   2.441   8.808 -0.0243  0.7095  0.7949
 1005MOL0     H32595  10.759   2.382   8.894 -2.6489  0.4533 -0.0693
 1005MOL0     H32596  10.912   2.203   8.884  0.2178 -0.2207 -2.5829
 1005MOL0     H32597  11.029   2.019   8.988 -0.3681  1.6097 -0.6402
 1005MOL0     H32598  11.002   1.986   8.819 -3.7776 -0.0446 -1.2286
 1005MOL0     H32599  11.173   1.831   8.955  0.3095 -0.0991 -2.2639
 1005MOL0     H32600  11.066   1.743   8.846 -1.6190 -3.5220  2.6273
 1005MOL0     H32601  11.078   1.629   9.057 -0.2581 -0.0950 -1.1179
 1005MOL0     H32602  10.917   1.696   9.059 -0.0307 -2.1871 -1.5741
 1005MOL0     H32603  11.122   1.725   9.257 -0.3600  0.5957  0.3422
 1005MOL0     H32604  11.140   1.875   9.164  0.4629  0.4446  0.0731
 1005MOL0     H32605  10.875   1.901   9.196  0.2263  0.7694 -1.1142
 1005MOL0     H32606  10.992   1.942   9.321 -3.5239  1.4097 -0.3046
 1005MOL0     H32607  10.909   1.687   9.412 -0.1995  0.5938 -0.2587
 1005MOL0     H32608  10.788   1.726   9.295 -0.2367 -0.5379  0.5064
 1005MOL0     H32609  10.763   1.949   9.416  0.2295  0.8088  2.0579
 1005MOL0     H32610  10.692   1.792   9.479  2.5886 -6.2989 -3.3917
 1005MOL0     H32611  10.962   1.931   9.582 -0.1500  0.1203 -0.0458
 1005MOL0     H32612  10.882   1.795   9.648  1.2596  0.3148 -0.4585
 1005MOL0     H32613  10.627   1.849   9.780 -0.4962 -1.8911 -1.7738
 1005MOL0     H32614  10.545   2.071   9.986  1.3306  0.8247  0.2254
 1005MOL0     H32615  10.454   1.980   9.866  1.6363  0.2264 -1.7691
 1005MOL0     H32616  10.377   2.170   9.761 -0.3028  1.2024  0.4301
 1005MOL0     H32617  10.475   2.291   9.849 -0.6277  0.9752  0.6049
 1005MOL0     H32618  10.277   2.092   9.990 -0.8107  1.2137  2.1358
 1005MOL0     H32619  10.361   2.242  10.042  0.1501 -0.2212 -1.0931
 1005MOL0     H32620  10.217   2.381   9.875  0.5747  0.6438  2.1625
 1005MOL0     H32621  10.156   2.310  10.006  0.9438  4.5782 -1.4014
 1005MOL0     H32622   9.956   2.344  10.002  0.5790 -0.3942 -0.0601
 1005MOL0     H32623   9.708   2.332  10.005  1.0821 -2.5726  1.9154
 1005MOL0     H32624   9.314   2.012   9.996 -0.7397  0.2736  0.6683
 1005MOL0     H32625   9.079   2.015  10.034  1.0691 -0.1781  1.4461
 1005MOL0     H32626   8.843   2.368  10.090 -0.1439  0.3990 -2.1617
 1005MOL0     H32627   8.892   2.212  10.159  0.2343  0.5880 -0.3865
 1005MOL0     H32628   8.681   2.124  10.025 -2.8831  0.5898  0.6250
 1005MOL0     H32629   8.634   2.298  10.028  0.2858 -1.1126 -0.4317
 1005MOL0     H32630   8.630   2.312  10.267  1.1455 -0.9277  1.3687
 1005MOL0     H32631   8.696   2.147  10.283  0.8470  0.4447  0.5930
 1005MOL0     H32632   8.478   2.075  10.156 -0.2500 -0.2905 -0.0847
 1005MOL0     H32633   8.469   2.133  10.327  0.2381  0.3039 -0.0140
 1005MOL0     H32634   8.420   2.306  10.093 -1.7024  1.0422 -0.4958
 1005MOL0     H32635   8.379   2.359  10.253 -0.7651  0.7405  0.4430
 1005MOL0     H32636   8.196   2.165  10.257  1.0003  1.0245  0.9908
 1005MOL0     H32637   8.235   2.136  10.090  0.9126 -0.7923  0.2527
 1005MOL0     H32638   8.151   2.406  10.206 -2.2205 -0.1728  0.3193
 1005MOL0     H32639   8.182   2.378  10.031  1.9028 -0.8307 -0.5544
 1005MOL0     H32640   7.992   2.189  10.054  1.2976  0.0051 -0.1378
 1005MOL0     H32641   7.939   2.357  10.070  1.2078  1.1654  0.2252
 1005MOL0     H32642   9.067   2.399   9.825 -0.2093 -0.2699 -0.2648
 1005MOL0     H32643   9.316   2.398   9.816 -0.3360  1.0327  0.0073
 1005MOL0     H32644   9.726   2.136   9.605 -0.8628  0.9398 -0.7527
 1005MOL0     H32645   9.976   2.136   9.634  1.0553  0.6041  1.1064
 1005MOL0     H32646  10.586   1.919   8.948  1.7508 -0.0779 -0.4036
 1005MOL0     H32647  10.425   2.098   8.926 -0.1266 -1.1355 -1.1680
 1005MOL0     H32648  10.385   2.580   8.992 -0.1073 -0.0204  2.4872
 1005MOL0     H32649  10.197   2.723   9.065  0.5561 -2.0391  2.0229
 1005MOL0     H32650   9.792   2.684   8.884  0.8838  0.0923 -0.8346
 1005MOL0     H32651   9.895   2.783   8.789  2.0258  1.0650 -0.0465
 1005MOL0     H32652   9.862   2.963   8.996 -2.5491  1.7340  1.5523
 1005MOL0     H32653   9.747   2.951   8.871  0.3983 -0.0929 -0.0132
 1005MOL0     H32654   9.728   2.806   9.131 -0.0219  3.1504  2.1441
 1005MOL0     H32655   9.604   2.789   9.007 -0.9987  0.2616  0.8183
 1005MOL0     H32656   9.640   3.057   9.141 -0.6236  0.3900  0.1464
 1005MOL0     H32657   9.548   3.016   8.997  1.9637  0.2675  0.2018
 1005MOL0     H32658   9.293   2.818   9.263 -1.1595  0.6636 -2.0931
 1005MOL0     H32659   9.953   2.520   8.782  2.5219 -2.2979 -3.5646
 1005MOL0     H32660  10.109   2.368   8.736 -3.8952  0.9336  2.2237
 1006MOL0     O32661   2.881   7.765   1.046 -0.2428 -0.0479  0.6751
 1006MOL0     C32662   2.876   7.831   1.153 -0.7697  0.2232  0.3116
 1006MOL0     O32663   2.974   7.916   1.193 -0.3058 -0.9224  0.1777
 1006MOL0     C32664   3.101   7.881   1.147 -0.0863  0.0631 -0.1453
 1006MOL0     C32665   3.165   7.981   1.074 -0.1338  0.4651  0.0211
 1006MOL0     C32666   3.305   7.960   1.048  0.0307 -0.5230 -0.2906
 1006MOL0     C32667   3.375   7.848   1.099  0.1345  0.0088  1.0244
 1006MOL0     O32668   3.503   7.814   1.065  0.3689  0.6990  0.3189
 1006MOL0     C32669   3.542   7.835   0.929  0.7337 -0.4909  0.1653
 1006MOL0     C32670   3.670   7.761   0.924  0.0015  0.2330 -0.1472
 1006MOL0     C32671   3.722   7.734   0.788  0.1840  0.1622 -0.1671
 1006MOL0     C32672   3.859   7.661   0.800  0.2762 -0.1479  0.7910
 1006MOL0     C32673   3.984   7.748   0.768 -0.1433 -0.3145 -0.2400
 1006MOL0     C32674   3.994   7.878   0.852 -0.1392  0.7113  0.2308
 1006MOL0     C32675   4.137   7.933   0.843  0.7730 -0.2594  0.8612
 1006MOL0     C32676   4.182   8.048   0.933 -0.0944  0.5459 -0.2557
 1006MOL0     N32677   4.131   8.181   0.903 -0.1980  0.0294  0.3152
 1006MOL0     C32678   4.033   8.242   0.974 -0.4422  0.0420 -1.2333
 1006MOL0     C32679   4.022   8.369   0.935  0.1198 -0.3354  0.9503
 1006MOL0     C32680   3.927   8.474   0.975 -0.3874 -0.8764 -0.1352
 1006MOL0     C32681   3.793   8.435   1.042  0.1473  0.7658  0.5112
 1006MOL0     C32682   3.703   8.329   0.964 -0.7194 -0.5262  0.2051
 1006MOL0     C32683   3.593   8.294   1.054  0.3258 -0.0550 -0.0442
 1006MOL0     O32684   3.490   8.384   1.024  0.7568  0.1523  0.5001
 1006MOL0     C32685   3.375   8.372   1.093  0.7669 -0.1165  0.7813
 1006MOL0     C32686   3.336   8.271   1.182 -0.1966 -0.6987 -0.9287
 1006MOL0     C32687   3.199   8.257   1.217 -0.2394 -1.2358 -0.2437
 1006MOL0     C32688   3.105   8.350   1.175 -0.1467  0.1278 -0.8940
 1006MOL0     C32689   2.971   8.336   1.223  0.1911  0.4848  0.1094
 1006MOL0     O32690   2.894   8.433   1.179  0.0375  0.1987 -0.3227
 1006MOL0     C32691   2.767   8.428   1.235  0.4940 -0.3795 -0.6341
 1006MOL0     C32692   2.676   8.338   1.176 -1.4538 -0.1188 -0.3107
 1006MOL0     C32693   2.547   8.328   1.222  1.3889  0.0903  0.4036
 1006MOL0     C32694   2.498   8.413   1.318 -0.2203 -0.3034 -0.0036
 1006MOL0     O32695   2.371   8.416   1.368  0.3521 -0.2227  0.2420
 1006MOL0     C32696   2.272   8.344   1.284 -0.5546  1.0019 -0.2067
 1006MOL0     C32697   2.131   8.391   1.320  0.4391 -0.2336  0.6101
 1006MOL0     C32698   2.089   8.397   1.472  0.2211  0.2855  0.2697
 1006MOL0     C32699   1.943   8.433   1.503  0.1309 -0.5903  0.1244
 1006MOL0     C32700   1.890   8.389   1.646  0.0617  0.1262 -0.2447
 1006MOL0     C32701   1.968   8.458   1.756  0.4227 -0.0618 -0.9027
 1006MOL0     C32702   1.944   8.404   1.899 -0.4445 -0.2499  1.0650
 1006MOL0     C32703   2.062   8.424   1.995  0.0341  0.2174 -0.8014
 1006MOL0    Cl32704   2.092   8.589   2.003  0.1285 -0.1149 -0.2500
 1006MOL0     C32705   2.584   8.499   1.383 -0.5055 -0.2925  0.3790
 1006MOL0     C32706   2.719   8.509   1.341 -0.0595  0.3934  0.2617
 1006MOL0     O32707   2.944   8.255   1.312 -0.1019  0.7930  0.7205
 1006MOL0     C32708   3.140   8.448   1.094  0.0823  0.2861  0.4411
 1006MOL0     C32709   3.276   8.467   1.055 -0.1059  0.0982  0.2837
 1006MOL0     N32710   4.117   8.373   0.832 -0.5416 -0.4538  0.2858
 1006MOL0     N32711   4.189   8.272   0.824 -0.4427  0.1175  0.6014
 1006MOL0     C32712   3.297   7.749   1.165 -0.1690  0.3332 -0.5914
 1006MOL0     C32713   3.166   7.770   1.202 -0.1261 -0.4672 -0.1616
 1006MOL0     C32714   2.745   7.828   1.230  0.1476 -0.3756 -0.1477
 1006MOL0     C32715   2.732   7.927   1.334 -1.0725  0.5821  0.0180
 1006MOL0     C32716   2.604   7.926   1.399  0.1817 -0.2619  1.1524
 1006MOL0     C32717   2.504   7.829   1.372  0.6607  0.4380 -0.4650
 1006MOL0     O32718   2.393   7.834   1.456 -0.0152  1.1668  0.3607
 1006MOL0     C32719   2.290   7.735   1.440 -0.4248  0.2253 -0.7582
 1006MOL0     C32720   2.197   7.737   1.319 -0.0733 -0.1725 -1.1671
 1006MOL0     C32721   2.111   7.864   1.343 -0.0336 -0.4878  0.0322
 1006MOL0     C32722   1.993   7.881   1.236  0.1356  0.0559 -0.6439
 1006MOL0     C32723   1.903   7.993   1.270  0.1818 -0.4592 -0.8748
 1006MOL0     C32724   1.821   8.077   1.299 -0.2523  0.4161  0.3546
 1006MOL0     C32725   2.527   7.740   1.266  0.7924  0.2638 -0.4802
 1006MOL0     C32726   2.640   7.745   1.192 -1.1007  0.5261  0.4854
 1006MOL0     H32727   3.111   8.070   1.042  0.1207  0.4301 -0.5252
 1006MOL0     H32728   3.366   8.028   0.990  1.0365 -0.7339  0.4875
 1006MOL0     H32729   3.554   7.937   0.890  0.4060 -0.7963 -0.7831
 1006MOL0     H32730   3.467   7.798   0.858 -0.9071  0.5614  1.2805
 1006MOL0     H32731   3.656   7.662   0.968 -1.3535  0.8949  0.9777
 1006MOL0     H32732   3.742   7.802   0.996  0.3372 -0.3460 -0.1479
 1006MOL0     H32733   3.724   7.833   0.741 -1.3902  2.0097  3.2792
 1006MOL0     H32734   3.648   7.671   0.737  0.2643  0.0854 -0.1881
 1006MOL0     H32735   3.867   7.618   0.900 -2.4633 -0.2643  1.0392
 1006MOL0     H32736   3.858   7.580   0.727  1.1535  1.3593 -0.9910
 1006MOL0     H32737   3.990   7.788   0.666  1.3021  0.9495  0.2913
 1006MOL0     H32738   4.072   7.685   0.786  1.2721  2.2547  2.8141
 1006MOL0     H32739   3.969   7.853   0.956  0.9886  2.1664  0.8870
 1006MOL0     H32740   3.935   7.960   0.810 -1.0499 -0.4712 -0.8803
 1006MOL0     H32741   4.206   7.849   0.853  0.2375 -0.4692  3.7381
 1006MOL0     H32742   4.147   7.968   0.740 -1.7513  0.1917  0.7135
 1006MOL0     H32743   4.288   8.062   0.910  0.8702 -2.2816  1.9015
 1006MOL0     H32744   4.170   8.021   1.039  1.3207 -2.8400 -0.8265
 1006MOL0     H32745   3.984   8.206   1.064  2.6518 -0.8667  0.2222
 1006MOL0     H32746   3.912   8.536   0.887  4.2967  0.9577  0.0902
 1006MOL0     H32747   3.983   8.541   1.041 -2.5205  1.2725 -0.4025
 1006MOL0     H32748   3.724   8.516   1.070 -1.4624 -1.3512  3.2869
 1006MOL0     H32749   3.826   8.384   1.133 -0.8535 -0.2371  0.3336
 1006MOL0     H32750   3.673   8.375   0.870  0.2610 -0.1865  0.0528
 1006MOL0     H32751   3.757   8.237   0.939  0.5613  0.6265 -1.4845
 1006MOL0     H32752   3.634   8.306   1.155  3.1039 -2.4014 -0.7418
 1006MOL0     H32753   3.565   8.190   1.040 -1.2961  0.5185 -1.3035
 1006MOL0     H32754   3.412   8.206   1.225  0.3537  1.0103  0.8150
 1006MOL0     H32755   3.174   8.185   1.294 -0.3962 -1.3280 -0.3802
 1006MOL0     H32756   2.714   8.282   1.092 -1.2437  0.1953 -0.4276
 1006MOL0     H32757   2.473   8.266   1.173 -0.6542  0.1507  3.1932
 1006MOL0     H32758   2.285   8.237   1.302 -1.2361  0.1374 -4.0064
 1006MOL0     H32759   2.296   8.368   1.181  1.8212  2.6266  0.6365
 1006MOL0     H32760   2.057   8.320   1.282  0.0997 -0.5289  1.7653
 1006MOL0     H32761   2.112   8.488   1.273  2.2176 -0.1452 -0.0036
 1006MOL0     H32762   2.154   8.473   1.517 -1.5009  2.1765 -0.2612
 1006MOL0     H32763   2.117   8.298   1.510  3.8251 -0.0010 -2.6527
 1006MOL0     H32764   1.911   8.534   1.475 -2.1325 -0.4048  2.9313
 1006MOL0     H32765   1.881   8.376   1.434 -0.2288 -1.6582  1.3051
 1006MOL0     H32766   1.919   8.284   1.658  1.8268  0.8416  2.7145
 1006MOL0     H32767   1.782   8.404   1.657  0.0540 -1.4100  2.5504
 1006MOL0     H32768   1.943   8.564   1.758 -2.3472 -0.5979 -2.1692
 1006MOL0     H32769   2.071   8.443   1.720  0.0712 -0.2803 -1.8645
 1006MOL0     H32770   1.860   8.460   1.940 -0.0172  1.3829 -0.1694
 1006MOL0     H32771   1.923   8.297   1.888  2.1291 -0.6322 -1.0980
 1006MOL0     H32772   2.147   8.365   1.960 -0.8013 -1.9991  0.6121
 1006MOL0     H32773   2.032   8.399   2.098  1.2777 -0.1822 -0.5269
 1006MOL0     H32774   2.542   8.567   1.457  0.7011 -0.1404  0.9443
 1006MOL0     H32775   2.784   8.593   1.365  1.4635 -0.7998  0.5200
 1006MOL0     H32776   3.066   8.523   1.067 -0.4704 -0.6612 -0.7331
 1006MOL0     H32777   3.313   8.541   0.984  2.1290 -1.1374  0.0888
 1006MOL0     H32778   3.354   7.663   1.201  2.5834  1.2626 -2.3618
 1006MOL0     H32779   3.104   7.700   1.257 -0.3737 -0.4054 -0.3591
 1006MOL0     H32780   2.811   7.998   1.353  0.8031 -1.5868  0.8105
 1006MOL0     H32781   2.585   8.000   1.476  0.3462  1.7838 -0.6678
 1006MOL0     H32782   2.231   7.724   1.532  0.9540 -1.1910  0.0156
 1006MOL0     H32783   2.346   7.641   1.438  0.4951  0.7217  0.5558
 1006MOL0     H32784   2.249   7.741   1.223 -0.7963 -1.6070 -1.6525
 1006MOL0     H32785   2.133   7.650   1.332  1.1562 -0.7284  2.2358
 1006MOL0     H32786   2.167   7.957   1.345 -0.6661 -0.1094  1.0816
 1006MOL0     H32787   2.067   7.862   1.443 -1.9840 -0.5793 -0.7922
 1006MOL0     H32788   2.031   7.877   1.133  2.0295 -0.3374  0.0285
 1006MOL0     H32789   1.932   7.790   1.235  1.5908 -0.9641  0.5336
 1006MOL0     H32790   1.747   8.150   1.325  0.5265  1.4466 -0.2111
 1006MOL0     H32791   2.446   7.678   1.228  1.2004  0.5606 -1.9107
 1006MOL0     H32792   2.637   7.682   1.103  0.2983 -1.9425  2.0797
 1007MOL0     O32793   1.784  10.181   0.389  1.3344  0.4086  0.5724
 1007MOL0     C32794   1.810  10.300   0.358  0.4706  0.3177  1.3261
 1007MOL0     O32795   1.722  10.403   0.361 -0.1147  0.3528  0.4235
 1007MOL0     C32796   1.592  10.383   0.379 -0.3721 -0.4457 -0.1870
 1007MOL0     C32797   1.531  10.405   0.504 -0.5181 -0.0763  0.9786
 1007MOL0     C32798   1.396  10.398   0.515  0.3451 -0.2956  0.0542
 1007MOL0     C32799   1.315  10.347   0.417  0.5973 -0.0317 -0.5075
 1007MOL0     O32800   1.178  10.324   0.435  0.2301 -0.2555  0.2741
 1007MOL0     C32801   1.104  10.417   0.512 -0.2124 -0.5234  0.0212
 1007MOL0     C32802   0.956  10.391   0.467  0.9604 -0.0422 -0.1521
 1007MOL0     C32803   0.844  10.484   0.528  0.3307  0.2911  0.3566
 1007MOL0     C32804   0.711  10.428   0.486  0.9543  0.5473  0.1809
 1007MOL0     C32805   0.596  10.486   0.570  1.1689 -0.4902  0.8213
 1007MOL0     C32806   0.466  10.402   0.541  1.3082 -0.6011 -0.1607
 1007MOL0     C32807   0.351  10.464   0.617 -0.8372  0.4829 -0.0566
 1007MOL0     C32808   0.210  10.401   0.624  0.0504 -0.5225  0.1089
 1007MOL0     N32809   0.129  10.501   0.693  0.1624  0.0719  0.2369
 1007MOL0     C32810   0.055  10.596   0.623  0.3407  0.1651  0.4641
 1007MOL0     C32811  -0.031  10.636   0.721 -0.2950  0.6450  0.0752
 1007MOL0     C32812  -0.125  10.754   0.707 -0.1529  0.2494 -0.6550
 1007MOL0     C32813  -0.248  10.719   0.630 -0.2147 -0.1594  0.0488
 1007MOL0     C32814  -0.338  10.842   0.627  0.3842 -0.6829 -0.7888
 1007MOL0     C32815  -0.477  10.820   0.560 -0.1959  0.5607  0.1379
 1007MOL0     O32816  -0.561  10.929   0.592  0.1762  0.3116  0.6801
 1007MOL0     C32817  -0.694  10.925   0.569  0.6152 -0.5583 -0.2107
 1007MOL0     C32818  -0.764  10.817   0.511  0.7436  0.4722  0.4681
 1007MOL0     C32819  -0.904  10.817   0.514  0.0159  0.0076 -0.3621
 1007MOL0     C32820  -0.979  10.928   0.558 -0.9830  0.1389  0.4141
 1007MOL0     C32821  -1.120  10.942   0.534 -0.0779 -0.1906  0.1508
 1007MOL0     O32822  -1.177  10.850   0.451  0.5170 -0.4402  0.1749
 1007MOL0     C32823  -1.309  10.852   0.427 -0.3857 -0.1370 -0.6285
 1007MOL0     C32824  -1.420  10.909   0.496 -0.3912  0.2995 -0.4080
 1007MOL0     C32825  -1.555  10.891   0.454  0.2927  0.3792  0.6100
 1007MOL0     C32826  -1.586  10.801   0.345  0.4742  0.1213 -0.2985
 1007MOL0     O32827  -1.721  10.779   0.319 -0.7509 -0.7953 -0.3633
 1007MOL0     C32828  -1.746  10.694   0.206 -0.7214  0.5265 -0.2662
 1007MOL0     C32829  -1.891  10.700   0.162  0.6234  0.7427 -0.2704
 1007MOL0     C32830  -1.972  10.607   0.267  0.4917 -0.0147  0.5358
 1007MOL0     C32831  -2.117  10.580   0.227  0.3564 -0.3658 -0.4334
 1007MOL0     C32832  -2.174  10.448   0.274  0.4362 -0.7639 -1.2598
 1007MOL0     C32833  -2.325  10.444   0.236  0.2172  0.3542  1.4863
 1007MOL0     C32834  -2.344  10.396   0.096  0.3658 -0.4252  0.1059
 1007MOL0     C32835  -2.481  10.447   0.045 -0.7043 -0.0100  0.7040
 1007MOL0    Cl32836  -2.629  10.431   0.153  0.1849  0.1005  0.2560
 1007MOL0     C32837  -1.469  10.732   0.285  0.4720  0.2753  0.1940
 1007MOL0     C32838  -1.342  10.763   0.330 -0.4339 -0.7513  0.4535
 1007MOL0     O32839  -1.178  11.023   0.601  0.4618  0.0382  0.2535
 1007MOL0     C32840  -0.912  11.028   0.625  0.6956 -0.5446  0.5090
 1007MOL0     C32841  -0.770  11.032   0.623  0.4411 -0.4199 -0.5022
 1007MOL0     N32842  -0.011  10.562   0.839  0.4931 -1.0214 -0.2689
 1007MOL0     N32843   0.088  10.487   0.825  0.0531  0.0437 -0.0184
 1007MOL0     C32844   1.374  10.317   0.290 -0.2310 -1.0413  0.1946
 1007MOL0     C32845   1.513  10.341   0.270  0.2303  0.2633 -0.3637
 1007MOL0     C32846   1.945  10.320   0.298  0.1882  0.4573 -0.0158
 1007MOL0     C32847   2.040  10.218   0.298 -0.3333  0.4306  0.8035
 1007MOL0     C32848   2.162  10.240   0.242  0.6993  0.5879  1.1042
 1007MOL0     C32849   2.200  10.366   0.195  0.0732  0.6967 -0.1172
 1007MOL0     O32850   2.329  10.373   0.146 -0.3292 -0.9172  0.0166
 1007MOL0     C32851   2.383  10.502   0.107 -0.5691 -0.1310 -0.6766
 1007MOL0     C32852   2.507  10.494   0.029 -0.4050  0.3306  1.2073
 1007MOL0     C32853   2.618  10.414   0.107  0.6471  0.3625  0.2171
 1007MOL0     C32854   2.757  10.433   0.056  0.1090 -0.2422 -0.2993
 1007MOL0     C32855   2.759  10.447  -0.089  0.3846  0.1211 -0.6389
 1007MOL0     C32856   2.771  10.478  -0.205  0.6113 -0.0089  0.0564
 1007MOL0     C32857   2.107  10.469   0.194 -0.8339 -0.5739  0.0349
 1007MOL0     C32858   1.974  10.439   0.239 -1.0991  0.3115  0.0295
 1007MOL0     H32859   1.594  10.430   0.589  1.8698 -0.6371 -0.5624
 1007MOL0     H32860   1.351  10.426   0.610  0.8475 -1.5939  0.7033
 1007MOL0     H32861   1.129  10.521   0.491 -2.0366 -0.0769 -0.1300
 1007MOL0     H32862   1.117  10.398   0.619 -1.5376  0.5221  0.3985
 1007MOL0     H32863   0.925  10.288   0.485 -2.6719  0.9270 -0.0901
 1007MOL0     H32864   0.964  10.417   0.361 -1.1181  0.1425 -0.3025
 1007MOL0     H32865   0.859  10.587   0.494 -2.9930  1.3907  1.7907
 1007MOL0     H32866   0.839  10.484   0.638 -1.0333  2.1280  0.3376
 1007MOL0     H32867   0.699  10.437   0.378  1.7780  0.7419  0.1020
 1007MOL0     H32868   0.701  10.324   0.517  0.0167 -0.1246 -2.1989
 1007MOL0     H32869   0.580  10.587   0.532  0.9868 -0.9715 -0.4164
 1007MOL0     H32870   0.624  10.486   0.676  2.5539 -0.7483  0.4728
 1007MOL0     H32871   0.477  10.298   0.574  1.3739 -0.5113  0.1016
 1007MOL0     H32872   0.444  10.399   0.434 -1.6447  2.3511  0.2130
 1007MOL0     H32873   0.392  10.461   0.718  1.2487 -0.1655 -0.8644
 1007MOL0     H32874   0.343  10.570   0.591 -0.4343  1.0213  1.8862
 1007MOL0     H32875   0.204  10.307   0.680 -0.4479  0.1673  1.2332
 1007MOL0     H32876   0.170  10.374   0.526  3.6810 -2.6368 -1.0077
 1007MOL0     H32877   0.074  10.633   0.523 -1.6576  2.8228  0.9550
 1007MOL0     H32878  -0.071  10.827   0.646  2.3171  0.3242  1.4854
 1007MOL0     H32879  -0.142  10.781   0.812  0.8927 -0.9259 -0.1672
 1007MOL0     H32880  -0.302  10.636   0.677  0.0813 -0.1118  0.4667
 1007MOL0     H32881  -0.210  10.687   0.532 -1.8186  1.3732 -1.1550
 1007MOL0     H32882  -0.348  10.891   0.724  1.8807  2.4766 -2.1195
 1007MOL0     H32883  -0.279  10.916   0.572  1.6491  0.6013  2.1112
 1007MOL0     H32884  -0.518  10.723   0.592  0.9355  0.4817  1.4580
 1007MOL0     H32885  -0.461  10.799   0.454 -0.7032  0.0896  0.1501
 1007MOL0     H32886  -0.716  10.738   0.455 -1.2460  0.4768 -1.3550
 1007MOL0     H32887  -0.951  10.730   0.469  1.8299 -0.9404 -0.5030
 1007MOL0     H32888  -1.404  10.979   0.577 -0.4189  0.1668 -0.2873
 1007MOL0     H32889  -1.641  10.923   0.511  0.5316 -0.4474  1.4636
 1007MOL0     H32890  -1.707  10.594   0.229 -0.7836  0.0727 -1.9974
 1007MOL0     H32891  -1.685  10.733   0.124 -0.5047  0.4801 -0.1298
 1007MOL0     H32892  -1.892  10.643   0.068 -1.5654  0.4637 -0.1236
 1007MOL0     H32893  -1.928  10.802   0.149  0.7932  0.9702  0.8764
 1007MOL0     H32894  -1.987  10.673   0.354 -2.0635  1.1213 -0.6442
 1007MOL0     H32895  -1.928  10.513   0.301 -2.7153 -1.4857  1.0256
 1007MOL0     H32896  -2.180  10.660   0.265 -0.5451 -0.9403 -0.6973
 1007MOL0     H32897  -2.124  10.580   0.118 -0.1461 -0.1865 -0.4008
 1007MOL0     H32898  -2.163  10.456   0.382 -2.4446 -0.8631 -0.8794
 1007MOL0     H32899  -2.118  10.364   0.231 -0.7283 -2.0550 -0.3443
 1007MOL0     H32900  -2.362  10.544   0.258 -0.0092  0.2644  1.5202
 1007MOL0     H32901  -2.378  10.377   0.305 -0.0065  0.9663  1.9165
 1007MOL0     H32902  -2.270  10.423   0.020 -1.0534 -0.8338 -1.4628
 1007MOL0     H32903  -2.351  10.288   0.103 -3.0075 -0.2563  0.9773
 1007MOL0     H32904  -2.498  10.398  -0.051 -1.1655  0.4304  0.5552
 1007MOL0     H32905  -2.473  10.554   0.027  1.6900 -0.1454  0.6846
 1007MOL0     H32906  -1.480  10.653   0.211  1.9292 -0.6190  0.8850
 1007MOL0     H32907  -1.261  10.704   0.287  0.8352  0.9007  0.4976
 1007MOL0     H32908  -0.961  11.113   0.671  2.5643  0.6437  0.4183
 1007MOL0     H32909  -0.716  11.112   0.673 -1.2521  0.5070 -0.1035
 1007MOL0     H32910   1.303  10.297   0.210 -0.5109 -1.0818  0.4485
 1007MOL0     H32911   1.575  10.330   0.181 -0.3282 -0.5789 -0.6518
 1007MOL0     H32912   2.009  10.117   0.324 -3.6988  1.3332  0.6673
 1007MOL0     H32913   2.233  10.158   0.240  2.0441  1.6447 -2.1682
 1007MOL0     H32914   2.404  10.554   0.201 -0.0415 -0.9514 -0.3268
 1007MOL0     H32915   2.315  10.568   0.053  0.3271  1.9583  0.6063
 1007MOL0     H32916   2.486  10.435  -0.061 -0.4381 -2.7315  3.0798
 1007MOL0     H32917   2.546  10.590  -0.005 -2.4742  1.2110  1.2035
 1007MOL0     H32918   2.580  10.311   0.106 -1.2700  1.0208  0.6697
 1007MOL0     H32919   2.608  10.441   0.213 -4.0460  0.7056 -0.0742
 1007MOL0     H32920   2.791  10.527   0.099 -0.7121 -0.8997  1.9248
 1007MOL0     H32921   2.828  10.355   0.087  1.8231  0.8706 -1.2923
 1007MOL0     H32922   2.778  10.497  -0.310 -0.8342 -3.5112 -0.8467
 1007MOL0     H32923   2.142  10.567   0.163  2.4898 -2.0120 -1.2147
 1007MOL0     H32924   1.912  10.528   0.237  1.1551  2.0073  0.4844
 1008MOL0     O32925   7.202  10.343   8.450 -0.8059 -0.0343  0.4611
 1008MOL0     C32926   7.231  10.392   8.339 -0.0258 -0.7828 -0.5535
 1008MOL0     O32927   7.148  10.428   8.240 -0.6689  0.3084  0.1696
 1008MOL0     C32928   7.010  10.398   8.236  0.5008  0.3902 -0.4134
 1008MOL0     C32929   6.935  10.469   8.137  0.0242  0.1589 -0.8188
 1008MOL0     C32930   6.796  10.458   8.126  0.1125  0.1888 -0.0441
 1008MOL0     C32931   6.722  10.381   8.219 -0.2984 -0.3765 -0.3136
 1008MOL0     O32932   6.591  10.393   8.209 -0.0748 -0.0873  0.0658
 1008MOL0     C32933   6.536  10.266   8.235 -0.3499  0.8000  0.1080
 1008MOL0     C32934   6.397  10.260   8.177 -0.8719  0.3419  0.7225
 1008MOL0     C32935   6.320  10.152   8.244  0.3257 -1.5732  0.2813
 1008MOL0     C32936   6.183  10.153   8.197 -0.0666  0.1745  0.2936
 1008MOL0     C32937   6.113  10.022   8.247 -0.1368 -0.2871  0.2117
 1008MOL0     C32938   5.972  10.016   8.198 -0.3791  0.1436 -0.4406
 1008MOL0     C32939   5.891   9.909   8.278 -0.4728 -0.4126 -0.1881
 1008MOL0     C32940   5.744   9.893   8.236  0.4778  0.1044  0.3688
 1008MOL0     N32941   5.673   9.965   8.344 -0.2862  0.3358  1.5726
 1008MOL0     C32942   5.637  10.099   8.345 -0.5560 -0.2061  0.5896
 1008MOL0     C32943   5.571  10.122   8.461 -0.1295  0.6769 -0.0479
 1008MOL0     C32944   5.515  10.250   8.504  0.4262 -0.5965 -0.2573
 1008MOL0     C32945   5.583  10.301   8.628  0.0217 -0.3965 -0.3104
 1008MOL0     C32946   5.721  10.354   8.588  0.1780  0.5760 -0.1714
 1008MOL0     C32947   5.829  10.241   8.588 -0.3256 -0.5651  0.1146
 1008MOL0     O32948   5.950  10.281   8.515 -0.1422 -0.1382  0.2159
 1008MOL0     C32949   6.069  10.241   8.568  0.2471 -0.2424 -0.5807
 1008MOL0     C32950   6.086  10.110   8.624  0.1261 -0.4413 -0.4846
 1008MOL0     C32951   6.202  10.069   8.692  0.1664  0.1199 -0.2933
 1008MOL0     C32952   6.306  10.162   8.694 -0.4610 -1.0926  0.2170
 1008MOL0     C32953   6.449  10.122   8.727 -0.9999 -0.1335  0.1550
 1008MOL0     O32954   6.559  10.211   8.683 -0.1260  0.1308 -0.4844
 1008MOL0     C32955   6.682  10.164   8.696 -0.3537 -0.3001 -0.9749
 1008MOL0     C32956   6.781  10.240   8.759  0.5125  0.0693  0.3267
 1008MOL0     C32957   6.917  10.218   8.759  1.3181 -0.2617 -0.1472
 1008MOL0     C32958   6.966  10.101   8.699 -0.0031 -0.3004 -1.2698
 1008MOL0     O32959   7.099  10.063   8.687  0.1481  0.5944  0.2353
 1008MOL0     C32960   7.198  10.153   8.727  0.8975 -0.3338  0.1066
 1008MOL0     C32961   7.329  10.101   8.679 -0.9004 -0.0820 -0.0379
 1008MOL0     C32962   7.460  10.181   8.731 -0.2367  0.4648 -0.1986
 1008MOL0     C32963   7.593  10.108   8.697  0.5921  0.6231  0.2379
 1008MOL0     C32964   7.719  10.197   8.702  0.3515 -0.0374 -0.0569
 1008MOL0     C32965   7.786  10.191   8.843 -0.3831 -0.3025 -0.7208
 1008MOL0     C32966   7.869  10.062   8.864  0.0840  0.5670 -0.2553
 1008MOL0     C32967   7.962  10.070   8.977  0.1548  0.4036 -0.1288
 1008MOL0    Cl32968   8.096  10.193   8.944  0.2314  0.0275 -0.1177
 1008MOL0     C32969   6.870  10.022   8.639  0.4973  0.8554 -0.0910
 1008MOL0     C32970   6.730  10.047   8.632 -0.5657 -0.5070  0.3836
 1008MOL0     O32971   6.465  10.019   8.793 -0.2148  0.3653 -0.3215
 1008MOL0     C32972   6.294  10.291   8.640 -0.3999 -0.1642 -0.1943
 1008MOL0     C32973   6.179  10.325   8.571 -0.0396  0.6151 -0.1106
 1008MOL0     N32974   5.566   9.996   8.525  0.2952 -0.2663 -0.7274
 1008MOL0     N32975   5.618   9.904   8.452 -0.1242 -0.7683  0.1672
 1008MOL0     C32976   6.793  10.311   8.320 -0.2124  0.5257 -0.7458
 1008MOL0     C32977   6.933  10.320   8.328  0.0830 -0.3154 -0.4744
 1008MOL0     C32978   7.376  10.404   8.302  0.0455  0.7964 -0.2753
 1008MOL0     C32979   7.428  10.423   8.165  0.0222  0.4833  0.0158
 1008MOL0     C32980   7.566  10.437   8.139  0.2961 -0.6270  0.6046
 1008MOL0     C32981   7.659  10.428   8.240 -0.6334 -0.5363 -0.2667
 1008MOL0     O32982   7.791  10.415   8.211 -1.2226  0.2862  0.0013
 1008MOL0     C32983   7.857  10.528   8.160 -0.2196  0.0100  0.4635
 1008MOL0     C32984   7.862  10.522   8.016  0.4670 -1.1166 -0.2922
 1008MOL0     C32985   7.953  10.635   7.956  0.7912  0.1683 -1.4252
 1008MOL0     C32986   8.027  10.575   7.836  0.0762 -0.1654  0.0307
 1008MOL0     C32987   8.149  10.519   7.874 -0.4252  0.2820  0.1101
 1008MOL0     C32988   8.260  10.474   7.898 -0.1107  0.1143  0.7079
 1008MOL0     C32989   7.614  10.410   8.368  0.1681  0.4393  0.1685
 1008MOL0     C32990   7.478  10.411   8.407  0.8592 -0.0577  0.8599
 1008MOL0     H32991   6.998  10.506   8.058  2.6924 -1.5223  0.3853
 1008MOL0     H32992   6.753  10.515   8.045  1.1557  1.2819  0.1506
 1008MOL0     H32993   6.543  10.242   8.341  2.6747  1.8121  0.2555
 1008MOL0     H32994   6.585  10.182   8.186 -1.4480  0.6978 -0.8703
 1008MOL0     H32995   6.401  10.241   8.070 -0.4795  0.6176  0.6864
 1008MOL0     H32996   6.357  10.361   8.190  2.0708  1.6446  0.3714
 1008MOL0     H32997   6.310  10.183   8.349 -0.7710  2.4855 -0.8340
 1008MOL0     H32998   6.366  10.055   8.226 -0.7842 -1.9715 -0.5404
 1008MOL0     H32999   6.124  10.237   8.235 -1.3011 -0.7939  0.6104
 1008MOL0     H33000   6.177  10.139   8.088  1.5633  0.4734  0.1470
 1008MOL0     H33001   6.118  10.009   8.355  0.8938  0.7963  0.3066
 1008MOL0     H33002   6.168   9.934   8.212  0.1356  0.1487 -0.4793
 1008MOL0     H33003   5.974  10.007   8.089 -0.7944  0.5758 -0.4895
 1008MOL0     H33004   5.928  10.111   8.231  2.4348  1.0562  1.0276
 1008MOL0     H33005   5.931   9.808   8.265 -1.8309 -1.0105  0.0320
 1008MOL0     H33006   5.898   9.934   8.384  0.8042  2.1681 -0.8145
 1008MOL0     H33007   5.720   9.786   8.241  0.6854 -0.0036 -0.8861
 1008MOL0     H33008   5.719   9.924   8.134 -1.4769 -1.9352  0.1430
 1008MOL0     H33009   5.658  10.175   8.271 -0.4357  0.2340  1.0651
 1008MOL0     H33010   5.406  10.242   8.513  0.1082  2.4456 -0.2089
 1008MOL0     H33011   5.530  10.329   8.429  0.9319  0.5863  1.0397
 1008MOL0     H33012   5.595  10.223   8.703  0.7315  0.5242  0.5617
 1008MOL0     H33013   5.531  10.383   8.679  2.7165  1.5372 -0.4485
 1008MOL0     H33014   5.718  10.393   8.486 -1.6619  1.3157  0.1132
 1008MOL0     H33015   5.752  10.435   8.655 -1.4703  0.9415  0.2085
 1008MOL0     H33016   5.795  10.143   8.552  1.1591 -1.0010 -0.1685
 1008MOL0     H33017   5.864  10.228   8.690  4.1791 -1.3799 -1.2981
 1008MOL0     H33018   6.002  10.042   8.611  2.5072 -3.8464  0.5918
 1008MOL0     H33019   6.213   9.970   8.735 -0.2130 -0.4655 -1.4880
 1008MOL0     H33020   6.757  10.333   8.808  1.5295 -0.5297  2.0390
 1008MOL0     H33021   6.985  10.276   8.820  1.8940 -2.4767  1.4376
 1008MOL0     H33022   7.200  10.158   8.836  0.7358 -3.2084  0.3023
 1008MOL0     H33023   7.163  10.251   8.691 -1.1484 -2.0468 -3.0050
 1008MOL0     H33024   7.330  10.095   8.570 -1.0422  1.5982 -0.1577
 1008MOL0     H33025   7.340   9.996   8.710  0.7690 -0.1366 -0.7031
 1008MOL0     H33026   7.444  10.200   8.837 -0.1549  4.3691 -0.7368
 1008MOL0     H33027   7.460  10.277   8.678 -2.0586 -1.1943 -3.5040
 1008MOL0     H33028   7.606  10.015   8.753 -0.5599  0.5372  0.3701
 1008MOL0     H33029   7.577  10.083   8.592 -0.5651  1.1479  0.2694
 1008MOL0     H33030   7.699  10.298   8.664 -2.0416  0.1632  1.5221
 1008MOL0     H33031   7.781  10.149   8.626 -1.0332 -1.7489 -0.1663
 1008MOL0     H33032   7.712  10.208   8.922 -0.1056 -0.6086 -0.3874
 1008MOL0     H33033   7.858  10.273   8.856 -1.7950  0.7611  0.8188
 1008MOL0     H33034   7.802   9.978   8.885 -1.0193  0.9774 -1.9234
 1008MOL0     H33035   7.929  10.045   8.774  1.0448 -0.0256  0.4767
 1008MOL0     H33036   8.004   9.971   8.995 -0.2918  0.3261  0.5063
 1008MOL0     H33037   7.910  10.100   9.068  1.3764 -1.1767  1.1372
 1008MOL0     H33038   6.898   9.927   8.595 -0.9539 -0.1180  1.0268
 1008MOL0     H33039   6.661   9.988   8.572 -1.2171  0.4604  0.1580
 1008MOL0     H33040   6.375  10.363   8.650  0.5927 -1.3451  0.5334
 1008MOL0     H33041   6.164  10.422   8.525 -0.9115  1.1672  1.2473
 1008MOL0     H33042   6.741  10.267   8.405 -0.3126 -1.0605 -1.5874
 1008MOL0     H33043   6.983  10.289   8.420 -1.0535  1.2719  0.7378
 1008MOL0     H33044   7.346  10.431   8.094 -1.0391 -2.1299  0.8232
 1008MOL0     H33045   7.589  10.439   8.033 -1.1716 -2.5001  0.2004
 1008MOL0     H33046   7.963  10.520   8.185  0.5196 -0.2418 -2.3212
 1008MOL0     H33047   7.813  10.624   8.187 -1.7252 -0.7651  0.9090
 1008MOL0     H33048   7.899  10.422   7.991  1.4473 -0.9615  0.4810
 1008MOL0     H33049   7.766  10.538   7.965  1.9747  0.0161 -3.0316
 1008MOL0     H33050   8.025  10.669   8.031 -0.5344  2.4919 -1.0960
 1008MOL0     H33051   7.899  10.729   7.942  1.5392  1.1960  1.7321
 1008MOL0     H33052   7.964  10.499   7.790 -0.0760  1.4633 -2.6655
 1008MOL0     H33053   8.040  10.655   7.762  1.7072 -0.3445  0.0664
 1008MOL0     H33054   8.363  10.446   7.910  0.6936  2.3827 -0.3414
 1008MOL0     H33055   7.689  10.396   8.446  1.4318  0.9524 -0.9239
 1008MOL0     H33056   7.454  10.414   8.512  3.0834  0.4665  1.4134
 1009MOL0     O33057   9.802   3.119   2.899  0.1636  0.1862 -0.2771
 1009MOL0     C33058   9.834   3.129   3.017 -0.1921 -0.1609  0.1908
 1009MOL0     O33059   9.814   3.046   3.118  0.2412  0.0744 -0.2056
 1009MOL0     C33060   9.753   2.929   3.095 -0.1135 -0.6046 -0.4135
 1009MOL0     C33061   9.622   2.923   3.045  0.2498  0.6739  0.2331
 1009MOL0     C33062   9.568   2.797   2.999 -0.1811 -0.4811 -0.7526
 1009MOL0     C33063   9.639   2.676   3.031  0.3759 -0.4910 -0.1753
 1009MOL0     O33064   9.597   2.551   3.000 -0.2684 -0.0406  0.8349
 1009MOL0     C33065   9.455   2.524   2.983 -0.1140  0.0198  0.7622
 1009MOL0     C33066   9.443   2.368   2.979  0.0997  0.6263 -0.1861
 1009MOL0     C33067   9.293   2.325   2.984 -0.9255 -0.8449 -0.5893
 1009MOL0     C33068   9.278   2.177   2.986 -0.1772  0.0125  0.0755
 1009MOL0     C33069   9.132   2.134   3.005 -0.1066 -0.1512  0.2800
 1009MOL0     C33070   9.140   1.981   2.987  0.2442 -0.0769 -0.3968
 1009MOL0     C33071   8.999   1.930   3.039  0.8830  0.1255  1.2926
 1009MOL0     C33072   9.009   1.778   3.051 -0.5175 -0.0561 -0.9277
 1009MOL0     N33073   8.881   1.727   3.087  0.2254  0.5456  0.0834
 1009MOL0     C33074   8.853   1.674   3.206 -0.0286 -0.3188 -0.0630
 1009MOL0     C33075   8.720   1.659   3.205 -0.5046  0.3181 -0.1963
 1009MOL0     C33076   8.641   1.611   3.317  0.7608 -0.4746 -0.7088
 1009MOL0     C33077   8.498   1.670   3.308  0.0750  0.4127  0.2123
 1009MOL0     C33078   8.383   1.564   3.273  0.2337  0.0924 -0.2058
 1009MOL0     C33079   8.379   1.501   3.131 -0.1848 -0.3690 -0.2574
 1009MOL0     O33080   8.277   1.404   3.112  0.3491  0.2577  0.0132
 1009MOL0     C33081   8.292   1.271   3.149 -0.8793  0.2108 -0.2990
 1009MOL0     C33082   8.191   1.188   3.101 -0.2716  0.4256 -0.5692
 1009MOL0     C33083   8.207   1.052   3.109  0.0980  0.8150 -0.0052
 1009MOL0     C33084   8.317   0.988   3.168 -0.0489 -0.7247  0.0614
 1009MOL0     C33085   8.322   0.847   3.190 -0.7191 -0.3460 -0.8966
 1009MOL0     O33086   8.215   0.778   3.149  0.0949  0.3086  0.1844
 1009MOL0     C33087   8.203   0.641   3.168 -0.1691 -0.1184 -0.2683
 1009MOL0     C33088   8.306   0.542   3.154  0.2819  0.4488  0.7877
 1009MOL0     C33089   8.287   0.409   3.193 -0.6724 -0.0681  0.3378
 1009MOL0     C33090   8.161   0.363   3.237  0.7169  0.2905 -0.5521
 1009MOL0     O33091   8.143   0.226   3.253  0.6032  0.1826 -0.1214
 1009MOL0     C33092   8.064   0.179   3.365  0.6779  0.1634  0.8113
 1009MOL0     C33093   7.953   0.093   3.323  0.5791  0.0365  0.4525
 1009MOL0     C33094   8.000  -0.025   3.252  0.2755  0.1399  0.2241
 1009MOL0     C33095   7.882  -0.101   3.203 -0.2376  0.9795  0.0322
 1009MOL0     C33096   7.843  -0.208   3.304  0.5537  1.0148  0.0989
 1009MOL0     C33097   7.716  -0.284   3.244  0.0723 -0.5604 -0.8143
 1009MOL0     C33098   7.663  -0.384   3.344  0.3933 -0.0567 -0.3897
 1009MOL0     C33099   7.547  -0.463   3.288  0.2880 -0.3741  0.6413
 1009MOL0    Cl33100   7.602  -0.566   3.148  0.1056 -0.3599  0.1912
 1009MOL0     C33101   8.056   0.464   3.246 -0.6053  0.8395  0.1006
 1009MOL0     C33102   8.074   0.599   3.222  0.6941 -0.6469 -0.5489
 1009MOL0     O33103   8.421   0.795   3.249 -1.0267  0.0069  0.1323
 1009MOL0     C33104   8.417   1.073   3.220  0.0201 -0.3594 -0.4066
 1009MOL0     C33105   8.405   1.212   3.209  0.6297  0.1624 -0.6007
 1009MOL0     N33106   8.679   1.704   3.079 -0.2128  0.8422  0.1731
 1009MOL0     N33107   8.773   1.734   3.003  0.2703  0.3202  1.1778
 1009MOL0     C33108   9.760   2.685   3.093 -0.5191  0.7329  0.9514
 1009MOL0     C33109   9.815   2.812   3.120  0.2453 -0.7354 -0.5708
 1009MOL0     C33110   9.863   3.268   3.053  0.7448  0.0513 -0.1737
 1009MOL0     C33111   9.853   3.315   3.186  0.0685  0.0782  0.6519
 1009MOL0     C33112   9.882   3.440   3.219 -0.1423 -0.1681  0.1921
 1009MOL0     C33113   9.922   3.543   3.126  0.6274  0.0975 -0.0270
 1009MOL0     O33114   9.938   3.674   3.149 -0.2477 -0.1448  0.4814
 1009MOL0     C33115   9.965   3.724   3.276  0.6329 -0.5265  0.9143
 1009MOL0     C33116   9.983   3.874   3.262  0.1207 -0.2099 -0.8405
 1009MOL0     C33117   9.962   3.957   3.383  0.2200  0.5010  0.4969
 1009MOL0     C33118   9.993   4.106   3.364 -0.4992 -1.2222  0.1954
 1009MOL0     C33119  10.141   4.120   3.382 -0.2224  0.0802  0.2731
 1009MOL0     C33120  10.264   4.134   3.384 -0.3587 -0.2774  0.3500
 1009MOL0     C33121   9.926   3.498   2.996 -0.2309  0.4131  0.2515
 1009MOL0     C33122   9.888   3.370   2.959 -0.0312  0.6621 -0.5119
 1009MOL0     H33123   9.549   2.997   3.015 -2.4105 -2.2650 -1.0913
 1009MOL0     H33124   9.468   2.785   2.960 -0.1075 -1.6337 -0.6160
 1009MOL0     H33125   9.421   2.561   2.886  2.5860 -5.3648 -2.7557
 1009MOL0     H33126   9.397   2.563   3.067 -0.5441  0.3388  0.3237
 1009MOL0     H33127   9.501   2.336   3.066 -1.2753  2.1888  1.3991
 1009MOL0     H33128   9.497   2.328   2.893  2.0012 -0.4903  1.4259
 1009MOL0     H33129   9.238   2.366   2.899  1.7819 -1.9242 -3.0041
 1009MOL0     H33130   9.257   2.372   3.076  2.8936  3.6609 -1.0584
 1009MOL0     H33131   9.303   2.149   2.884  0.0509  0.9107 -0.1242
 1009MOL0     H33132   9.342   2.123   3.057 -0.8423 -1.5995 -0.4930
 1009MOL0     H33133   9.066   2.186   2.935 -0.6248 -0.3227  0.6400
 1009MOL0     H33134   9.102   2.164   3.106  1.1229  0.3834  0.5115
 1009MOL0     H33135   9.228   1.942   3.040  0.2105 -1.2269 -1.1414
 1009MOL0     H33136   9.154   1.955   2.881  0.3077 -0.8764 -0.1952
 1009MOL0     H33137   8.986   1.981   3.134  0.6800  1.1456  0.7373
 1009MOL0     H33138   8.915   1.961   2.976  1.6387  2.2441  1.2484
 1009MOL0     H33139   9.081   1.748   3.127 -0.7295 -0.5713 -0.9263
 1009MOL0     H33140   9.051   1.747   2.955  1.2806  0.7405 -0.4415
 1009MOL0     H33141   8.907   1.649   3.296 -1.6803  1.1248  1.4079
 1009MOL0     H33142   8.685   1.641   3.413 -1.4431  0.1547  0.1811
 1009MOL0     H33143   8.636   1.502   3.308 -1.4848 -0.4703 -0.2293
 1009MOL0     H33144   8.494   1.743   3.227  0.2973 -0.3838 -0.5324
 1009MOL0     H33145   8.476   1.723   3.401  2.5042 -1.6536  2.1158
 1009MOL0     H33146   8.384   1.486   3.350 -0.2950 -0.7732 -1.0610
 1009MOL0     H33147   8.282   1.602   3.290  0.2848  1.3133 -2.3247
 1009MOL0     H33148   8.476   1.459   3.104  0.8235  0.2529  2.0853
 1009MOL0     H33149   8.354   1.577   3.056 -2.7911 -0.6056  0.2750
 1009MOL0     H33150   8.103   1.237   3.060  0.5146  1.2021 -1.3725
 1009MOL0     H33151   8.128   0.981   3.090 -0.6127  1.4291  0.5787
 1009MOL0     H33152   8.399   0.575   3.111 -1.1861  3.0577 -0.6249
 1009MOL0     H33153   8.372   0.342   3.189  1.7751  2.7454  1.2008
 1009MOL0     H33154   8.022   0.261   3.425  0.4547  0.4894  0.2265
 1009MOL0     H33155   8.128   0.118   3.429 -1.1001 -1.1672  1.3976
 1009MOL0     H33156   7.873   0.148   3.272 -0.2369 -0.8966  0.6970
 1009MOL0     H33157   7.906   0.059   3.416 -0.8412 -0.1876 -0.3180
 1009MOL0     H33158   8.063  -0.088   3.315  2.9908  2.7621  0.3802
 1009MOL0     H33159   8.059   0.007   3.166  2.6506 -0.2671  1.6163
 1009MOL0     H33160   7.804  -0.035   3.166  1.5891  2.0063 -2.2727
 1009MOL0     H33161   7.913  -0.153   3.112  0.8990  1.0983  0.3335
 1009MOL0     H33162   7.810  -0.162   3.398  2.0743  0.0714  1.1237
 1009MOL0     H33163   7.927  -0.276   3.320 -0.2316 -0.0529 -0.2175
 1009MOL0     H33164   7.739  -0.330   3.147 -2.2037  0.7318 -2.0660
 1009MOL0     H33165   7.638  -0.210   3.224  1.1771  1.0747  0.6405
 1009MOL0     H33166   7.738  -0.458   3.374 -1.1465 -0.7241  2.1684
 1009MOL0     H33167   7.623  -0.327   3.429 -1.5275 -1.9597  0.0513
 1009MOL0     H33168   7.467  -0.394   3.260 -0.0093 -0.1897  1.9078
 1009MOL0     H33169   7.505  -0.527   3.366  1.0707  0.6748  1.9535
 1009MOL0     H33170   7.956   0.433   3.276 -1.2231  2.2177 -0.4519
 1009MOL0     H33171   7.991   0.668   3.236 -0.0139 -1.4137 -0.8580
 1009MOL0     H33172   8.503   1.030   3.270  0.3619  0.3330 -0.3932
 1009MOL0     H33173   8.467   1.288   3.255 -2.5129  2.2742  0.4534
 1009MOL0     H33174   9.815   2.594   3.114 -2.3868 -0.0270  2.8974
 1009MOL0     H33175   9.922   2.814   3.139  0.2146  1.8725 -0.2080
 1009MOL0     H33176   9.813   3.242   3.256 -0.2087  0.2753  0.6996
 1009MOL0     H33177   9.852   3.471   3.319 -0.8663  0.0814 -0.0926
 1009MOL0     H33178  10.060   3.690   3.318  1.5164 -2.0613 -2.1074
 1009MOL0     H33179   9.895   3.690   3.353  0.7362 -1.2254  0.7036
 1009MOL0     H33180  10.086   3.894   3.230  0.7113 -0.7414  0.6211
 1009MOL0     H33181   9.916   3.918   3.188  1.3279 -2.9887 -3.8152
 1009MOL0     H33182  10.013   3.911   3.468 -0.2504 -1.4923 -0.2589
 1009MOL0     H33183   9.855   3.943   3.406 -0.1856  1.3365 -0.7742
 1009MOL0     H33184   9.965   4.148   3.267  0.1370 -0.7133  0.2246
 1009MOL0     H33185   9.939   4.164   3.440  2.3551  0.9834  0.7004
 1009MOL0     H33186  10.370   4.145   3.392 -0.5191  1.5021  0.2406
 1009MOL0     H33187   9.958   3.571   2.922 -0.8872 -1.0376 -1.5374
 1009MOL0     H33188   9.876   3.342   2.855 -0.9195 -0.7072 -0.0754
 1010MOL0     O33189   7.990   0.578   4.506 -0.4332 -0.2776 -0.5030
 1010MOL0     C33190   8.038   0.691   4.502  0.2262  0.1712 -0.5043
 1010MOL0     O33191   7.971   0.811   4.520  0.4801  0.3649 -0.9537
 1010MOL0     C33192   7.835   0.821   4.542 -0.0124 -0.2319  0.2988
 1010MOL0     C33193   7.744   0.728   4.494 -0.4793  0.4749 -0.2574
 1010MOL0     C33194   7.606   0.742   4.505 -1.0616  0.1423  0.8408
 1010MOL0     C33195   7.552   0.834   4.590  0.4778 -0.0347 -0.5534
 1010MOL0     O33196   7.423   0.845   4.618  0.5694 -0.3723  0.3876
 1010MOL0     C33197   7.328   0.740   4.601  0.0517  0.1698 -0.0072
 1010MOL0     C33198   7.211   0.764   4.700  0.0317  0.4476 -0.7546
 1010MOL0     C33199   7.111   0.650   4.699 -0.4594  0.3458 -0.7940
 1010MOL0     C33200   7.019   0.656   4.825 -0.8356  0.4462 -0.2331
 1010MOL0     C33201   6.945   0.521   4.820 -0.2143  0.8051 -0.1943
 1010MOL0     C33202   6.821   0.522   4.903  0.3370 -0.3629  0.7076
 1010MOL0     C33203   6.855   0.482   5.046  0.0176  0.6172 -0.5824
 1010MOL0     C33204   6.767   0.544   5.154 -0.2057 -0.9457  0.3345
 1010MOL0     N33205   6.629   0.486   5.147  0.3108 -0.1394 -0.2289
 1010MOL0     C33206   6.522   0.550   5.090 -0.5846  0.4159 -0.2739
 1010MOL0     C33207   6.418   0.474   5.124  0.2691  0.4029  0.3686
 1010MOL0     C33208   6.275   0.503   5.076  0.1480  0.2874  0.2014
 1010MOL0     C33209   6.165   0.489   5.184  0.6164 -0.3909  0.0890
 1010MOL0     C33210   6.026   0.535   5.130 -0.2888  0.2415 -0.6372
 1010MOL0     C33211   5.933   0.579   5.243  0.8054  0.4686  0.2604
 1010MOL0     O33212   5.813   0.627   5.186 -0.2884 -0.1879  0.1472
 1010MOL0     C33213   5.718   0.678   5.270  0.9048 -0.7327 -0.5914
 1010MOL0     C33214   5.719   0.687   5.413 -0.4196  0.7612  0.0461
 1010MOL0     C33215   5.628   0.766   5.484  0.0193  0.3167  0.1088
 1010MOL0     C33216   5.521   0.832   5.419  0.5501  0.4360  0.5324
 1010MOL0     C33217   5.423   0.913   5.484  0.8095  0.2130 -0.4426
 1010MOL0     O33218   5.303   0.933   5.417  0.0425  0.8133  0.3453
 1010MOL0     C33219   5.203   1.009   5.476 -0.0030 -0.0551 -0.2049
 1010MOL0     C33220   5.203   1.146   5.492 -0.6110 -0.0669  0.2118
 1010MOL0     C33221   5.095   1.208   5.559 -0.0680  0.1766 -0.2022
 1010MOL0     C33222   4.982   1.135   5.601 -0.0924 -0.2808 -0.3285
 1010MOL0     O33223   4.874   1.190   5.659  0.5276  0.3772 -0.1958
 1010MOL0     C33224   4.883   1.329   5.689  0.2969  0.6967  0.1351
 1010MOL0     C33225   4.741   1.370   5.732  0.5002 -0.3099  0.7356
 1010MOL0     C33226   4.618   1.348   5.634 -0.3704  0.8713 -0.1168
 1010MOL0     C33227   4.489   1.415   5.700  0.1547  0.2723  0.3806
 1010MOL0     C33228   4.367   1.407   5.602  0.2506 -0.2033 -1.2285
 1010MOL0     C33229   4.275   1.518   5.642  0.9831  0.1071  0.2441
 1010MOL0     C33230   4.141   1.508   5.560 -0.1268  0.2269  0.2160
 1010MOL0     C33231   4.163   1.563   5.411  0.2149  0.3983 -0.4102
 1010MOL0    Cl33232   4.179   1.745   5.425 -0.1823 -0.2210  0.0781
 1010MOL0     C33233   4.971   0.999   5.566 -1.0676  0.0245 -0.9738
 1010MOL0     C33234   5.088   0.937   5.510  0.0615  0.1369  0.8813
 1010MOL0     O33235   5.450   0.963   5.594  0.0094  0.1270  0.1513
 1010MOL0     C33236   5.513   0.821   5.280 -0.0621  0.3401  0.5767
 1010MOL0     C33237   5.615   0.751   5.212 -0.0831  0.1174 -0.3163
 1010MOL0     N33238   6.453   0.374   5.203 -0.4789 -0.9260 -0.8333
 1010MOL0     N33239   6.581   0.382   5.221 -0.2982 -0.4069  0.0753
 1010MOL0     C33240   7.635   0.928   4.651 -0.4034  0.0947  0.2958
 1010MOL0     C33241   7.778   0.926   4.618 -0.1044  0.0325 -0.3879
 1010MOL0     C33242   8.184   0.696   4.473 -0.5120  0.3834  0.1847
 1010MOL0     C33243   8.244   0.819   4.476 -0.5603 -0.4782  0.3939
 1010MOL0     C33244   8.383   0.830   4.449  0.4659  0.1894  0.7858
 1010MOL0     C33245   8.455   0.712   4.421  0.5392 -0.3053  0.0343
 1010MOL0     O33246   8.584   0.705   4.379 -0.0798 -0.1726  0.3213
 1010MOL0     C33247   8.657   0.818   4.334 -0.0884  0.4506  0.1033
 1010MOL0     C33248   8.773   0.779   4.255 -0.4960 -0.1497 -0.1854
 1010MOL0     C33249   8.865   0.691   4.340 -0.4283  0.1434  0.0831
 1010MOL0     C33250   8.979   0.641   4.264 -0.4002  0.2217 -0.1463
 1010MOL0     C33251   9.079   0.744   4.250  0.3912  0.7111  0.0203
 1010MOL0     C33252   9.175   0.819   4.229  0.5553  0.2177 -0.0717
 1010MOL0     C33253   8.394   0.588   4.444  0.7461  0.3884 -0.3118
 1010MOL0     C33254   8.258   0.575   4.476  0.2836 -0.7749 -0.2378
 1010MOL0     H33255   7.783   0.651   4.428  2.3898 -0.0689  1.8967
 1010MOL0     H33256   7.545   0.676   4.445 -1.4394  0.9316  0.3367
 1010MOL0     H33257   7.378   0.651   4.639  2.7330  1.1900 -0.9314
 1010MOL0     H33258   7.287   0.725   4.500  1.7253 -1.9951 -0.4388
 1010MOL0     H33259   7.159   0.852   4.662 -1.3808  0.0555  0.1883
 1010MOL0     H33260   7.241   0.780   4.804  0.8079  1.2716 -1.0966
 1010MOL0     H33261   7.171   0.558   4.699  2.7774  2.2200  1.7775
 1010MOL0     H33262   7.057   0.659   4.604  0.4649 -1.1846 -1.5122
 1010MOL0     H33263   7.065   0.668   4.923 -1.0812  2.3859 -0.3177
 1010MOL0     H33264   6.957   0.746   4.813  0.4068  1.1031 -2.4559
 1010MOL0     H33265   7.003   0.432   4.846 -0.1216  0.2444 -2.1668
 1010MOL0     H33266   6.917   0.509   4.715  1.6511 -3.1083 -0.4198
 1010MOL0     H33267   6.749   0.450   4.865 -1.8132  1.7107  0.5900
 1010MOL0     H33268   6.762   0.614   4.891 -1.7227 -1.9252 -2.3110
 1010MOL0     H33269   6.847   0.374   5.059  0.7632  0.7184  0.9174
 1010MOL0     H33270   6.960   0.502   5.068  0.3889  1.4342 -2.7796
 1010MOL0     H33271   6.762   0.653   5.151  1.0770 -0.8933 -0.1404
 1010MOL0     H33272   6.810   0.508   5.248 -2.5803  0.5223  2.1004
 1010MOL0     H33273   6.511   0.647   5.042 -3.0022 -0.7926 -2.3704
 1010MOL0     H33274   6.259   0.429   4.998  3.5192  0.1553 -0.5338
 1010MOL0     H33275   6.274   0.607   5.042 -1.3388  1.0044  2.1990
 1010MOL0     H33276   6.194   0.540   5.276  0.6390 -0.2055 -0.0207
 1010MOL0     H33277   6.156   0.383   5.211 -1.0530 -0.6917 -1.4619
 1010MOL0     H33278   6.043   0.623   5.067 -4.0461  1.7397  0.1538
 1010MOL0     H33279   5.968   0.462   5.072 -1.0562  0.3039  0.0376
 1010MOL0     H33280   5.986   0.660   5.294  2.8406 -0.1957 -0.6643
 1010MOL0     H33281   5.914   0.495   5.312 -2.9513  0.0358 -1.0645
 1010MOL0     H33282   5.794   0.629   5.466 -2.4410 -2.2132 -0.0688
 1010MOL0     H33283   5.640   0.766   5.592  2.4013 -1.3431 -0.0645
 1010MOL0     H33284   5.279   1.213   5.452 -2.0833  0.8715 -1.1194
 1010MOL0     H33285   5.118   1.313   5.574 -1.7948  1.4403 -4.8407
 1010MOL0     H33286   4.920   1.394   5.610  1.3811 -1.4172 -1.2160
 1010MOL0     H33287   4.955   1.337   5.772 -0.8699  2.2703  1.0420
 1010MOL0     H33288   4.748   1.475   5.762  3.7807 -0.5358  1.0968
 1010MOL0     H33289   4.716   1.322   5.827  3.9482  0.3558  2.1271
 1010MOL0     H33290   4.595   1.246   5.600  1.2079  0.8017 -1.0835
 1010MOL0     H33291   4.643   1.401   5.542  2.4112  0.1944  0.1513
 1010MOL0     H33292   4.475   1.366   5.797  1.0543 -2.8349 -0.9077
 1010MOL0     H33293   4.512   1.519   5.721 -1.5930  0.4553  1.5484
 1010MOL0     H33294   4.319   1.309   5.607  0.2035 -0.1700  3.1970
 1010MOL0     H33295   4.405   1.428   5.502  2.0634  1.9340 -0.1863
 1010MOL0     H33296   4.324   1.615   5.626  0.7304  0.5728  2.0619
 1010MOL0     H33297   4.252   1.513   5.749  0.0935  1.9800  0.1860
 1010MOL0     H33298   4.090   1.411   5.561 -1.7874  1.0629  0.0579
 1010MOL0     H33299   4.072   1.578   5.606 -0.6085 -1.2596  1.8655
 1010MOL0     H33300   4.072   1.557   5.351 -1.3208  2.7902  1.4854
 1010MOL0     H33301   4.250   1.512   5.368  0.9584  1.0643  0.2724
 1010MOL0     H33302   4.891   0.936   5.604  0.5916 -1.9907 -0.6596
 1010MOL0     H33303   5.084   0.831   5.491  1.6877  0.2449 -0.1695
 1010MOL0     H33304   5.424   0.862   5.232 -0.7557 -1.6391  0.0596
 1010MOL0     H33305   5.616   0.751   5.104  2.4473  1.8761 -0.3807
 1010MOL0     H33306   7.599   1.012   4.708  2.3860  2.2494 -0.9180
 1010MOL0     H33307   7.843   0.996   4.670 -0.0212 -2.1347  2.6247
 1010MOL0     H33308   8.194   0.915   4.484 -1.0245 -0.7367  0.6122
 1010MOL0     H33309   8.429   0.928   4.452  0.2288  0.2821  2.2334
 1010MOL0     H33310   8.682   0.864   4.430 -0.7219 -0.2046  0.5926
 1010MOL0     H33311   8.597   0.884   4.271  0.4406  2.8878  2.0163
 1010MOL0     H33312   8.744   0.729   4.162  2.4121 -1.8473 -0.3025
 1010MOL0     H33313   8.826   0.870   4.224 -1.3758  0.1624 -0.7842
 1010MOL0     H33314   8.812   0.604   4.379 -0.7985  0.5853  0.5795
 1010MOL0     H33315   8.901   0.740   4.432  3.3802 -1.4721 -0.3680
 1010MOL0     H33316   9.027   0.556   4.314 -1.5004  0.1690  0.8819
 1010MOL0     H33317   8.946   0.616   4.163  0.7138 -3.2973  0.2255
 1010MOL0     H33318   9.249   0.891   4.200  0.4934  2.3386  4.2136
 1010MOL0     H33319   8.456   0.500   4.432 -1.1441 -1.4227  2.0399
 1010MOL0     H33320   8.205   0.482   4.491 -0.3029 -0.6087 -1.2138
 1011MOL0     O33321   8.520   1.592   1.095 -0.3472  0.3752  0.0881
 1011MOL0     C33322   8.596   1.498   1.120  0.1658 -0.3400  0.9196
 1011MOL0     O33323   8.557   1.371   1.154 -0.2367  0.2655 -0.7881
 1011MOL0     C33324   8.431   1.322   1.174  0.4617 -0.3909  0.5603
 1011MOL0     C33325   8.416   1.185   1.165  0.0804 -0.6996  0.9962
 1011MOL0     C33326   8.300   1.119   1.194  0.2497 -0.2217 -0.2547
 1011MOL0     C33327   8.185   1.193   1.206 -0.2118 -0.6799 -0.1929
 1011MOL0     O33328   8.056   1.143   1.195 -0.3147  0.1028  0.3108
 1011MOL0     C33329   8.012   1.041   1.098 -0.5257 -0.2168  0.1581
 1011MOL0     C33330   8.009   1.101   0.961 -0.8997  0.0247 -1.0597
 1011MOL0     C33331   7.904   1.209   0.949  0.1890 -0.7181 -0.0558
 1011MOL0     C33332   7.773   1.152   0.914 -0.1563 -0.1370  0.1352
 1011MOL0     C33333   7.677   1.271   0.866 -0.6658  0.7800  0.5701
 1011MOL0     C33334   7.544   1.214   0.824 -0.0134  0.1992 -0.2518
 1011MOL0     C33335   7.462   1.333   0.776  0.1815  1.3764 -0.4355
 1011MOL0     C33336   7.312   1.295   0.755  0.2254  0.2480  0.7782
 1011MOL0     N33337   7.250   1.405   0.682  0.1172 -0.8172 -0.1600
 1011MOL0     C33338   7.186   1.508   0.750 -0.2649  0.2398 -0.4470
 1011MOL0     C33339   7.176   1.609   0.663 -0.8116  0.9584  0.6801
 1011MOL0     C33340   7.123   1.743   0.695  0.3288 -0.6647  0.1824
 1011MOL0     C33341   6.969   1.759   0.659 -0.6796  0.3570 -0.4872
 1011MOL0     C33342   6.904   1.882   0.734  0.4839 -0.1507 -0.1062
 1011MOL0     C33343   6.904   1.870   0.879  0.7749  0.3555 -0.1554
 1011MOL0     O33344   6.843   1.747   0.932 -0.4262 -0.3310  0.7120
 1011MOL0     C33345   6.707   1.740   0.964 -0.5248  0.1118 -0.8048
 1011MOL0     C33346   6.653   1.613   0.997 -0.0586  0.2606  0.3617
 1011MOL0     C33347   6.515   1.603   1.027  0.0684 -0.6198  0.5619
 1011MOL0     C33348   6.425   1.709   1.023 -0.3491 -0.8380 -0.5545
 1011MOL0     C33349   6.285   1.692   1.061 -0.7988 -0.6481  0.4414
 1011MOL0     O33350   6.196   1.782   1.011 -0.3523 -0.5270  0.5123
 1011MOL0     C33351   6.062   1.769   1.038 -0.2744  0.5589 -0.2688
 1011MOL0     C33352   6.020   1.861   1.142  0.3195 -0.0158  0.3562
 1011MOL0     C33353   5.886   1.861   1.182  0.1986 -0.2906 -0.6629
 1011MOL0     C33354   5.796   1.772   1.121  0.2702 -0.5853  0.4003
 1011MOL0     O33355   5.663   1.768   1.152  0.6984  0.5867  0.5098
 1011MOL0     C33356   5.611   1.833   1.269  0.4539  1.1575 -0.9736
 1011MOL0     C33357   5.479   1.770   1.304  0.6488  0.3124  0.5998
 1011MOL0     C33358   5.362   1.820   1.213  0.1377 -0.3516  0.3920
 1011MOL0     C33359   5.227   1.752   1.252 -1.1159  0.7629 -0.0468
 1011MOL0     C33360   5.108   1.791   1.159 -0.2819 -0.2177  0.2761
 1011MOL0     C33361   4.981   1.734   1.208  0.3676 -0.1380  0.1768
 1011MOL0     C33362   4.970   1.578   1.178  0.0807  0.2554  0.3487
 1011MOL0     C33363   4.823   1.557   1.216 -0.4804  0.8763  0.5695
 1011MOL0    Cl33364   4.768   1.396   1.180 -0.2282 -0.2243 -0.0055
 1011MOL0     C33365   5.833   1.677   1.028  0.0567 -0.2544 -0.2125
 1011MOL0     C33366   5.973   1.670   0.987  0.8626 -1.0149  0.4539
 1011MOL0     O33367   6.253   1.587   1.114  0.7954 -0.2435 -0.4433
 1011MOL0     C33368   6.486   1.839   0.984 -0.1952 -0.8313 -0.7013
 1011MOL0     C33369   6.617   1.845   0.951  0.2438  0.8270 -0.1187
 1011MOL0     N33370   7.221   1.572   0.536 -0.4077 -0.1720  0.2199
 1011MOL0     N33371   7.272   1.446   0.552 -0.1210  0.0748 -0.1014
 1011MOL0     C33372   8.189   1.338   1.219 -0.2130 -0.0964  0.1698
 1011MOL0     C33373   8.314   1.400   1.201 -0.1559  0.3923 -0.2867
 1011MOL0     C33374   8.740   1.526   1.119 -0.3688 -0.9291 -0.5808
 1011MOL0     C33375   8.785   1.663   1.132  0.4831 -0.1283 -0.4059
 1011MOL0     C33376   8.920   1.688   1.116 -0.7648 -0.0412 -1.4384
 1011MOL0     C33377   9.016   1.586   1.115  1.1241  0.0494  0.5974
 1011MOL0     O33378   9.151   1.627   1.117  0.0984  0.1723  0.3188
 1011MOL0     C33379   9.255   1.529   1.093  0.3916 -0.2384 -0.8015
 1011MOL0     C33380   9.383   1.608   1.103  0.0408 -0.9296  0.2059
 1011MOL0     C33381   9.396   1.673   1.237  0.3479  0.4231  0.7621
 1011MOL0     C33382   9.524   1.765   1.228  0.1667  0.8799 -0.8675
 1011MOL0     C33383   9.508   1.877   1.138  0.2835 -0.0753  0.3197
 1011MOL0     C33384   9.507   1.969   1.057  0.1804 -0.6392  0.2110
 1011MOL0     C33385   8.971   1.452   1.124 -1.3832 -0.2638 -0.8718
 1011MOL0     C33386   8.834   1.420   1.119  0.3921 -0.5742 -0.2846
 1011MOL0     H33387   8.505   1.127   1.145  0.2918 -0.9512  2.5280
 1011MOL0     H33388   8.289   1.011   1.192  2.8941 -0.5370 -2.5547
 1011MOL0     H33389   7.915   0.996   1.119 -1.7090 -0.0660 -4.1499
 1011MOL0     H33390   8.088   0.962   1.094  0.5334  0.7062  1.1661
 1011MOL0     H33391   7.997   1.029   0.880  0.8651 -0.7140 -0.7195
 1011MOL0     H33392   8.109   1.145   0.948 -1.0413 -0.2709 -3.5152
 1011MOL0     H33393   7.941   1.273   0.869  2.1623 -0.0448  1.3215
 1011MOL0     H33394   7.882   1.277   1.032  0.2349 -3.0326  1.9655
 1011MOL0     H33395   7.782   1.081   0.832 -0.9281 -0.8935  0.6854
 1011MOL0     H33396   7.734   1.104   1.005  4.2093  0.7840  2.8245
 1011MOL0     H33397   7.725   1.314   0.778  0.7926 -1.4469  0.1884
 1011MOL0     H33398   7.661   1.343   0.946 -3.5210  0.2916  0.5369
 1011MOL0     H33399   7.485   1.169   0.904  1.4199  0.2463  0.8518
 1011MOL0     H33400   7.568   1.145   0.742  1.5352  0.9031 -0.4219
 1011MOL0     H33401   7.467   1.411   0.853  1.8948  1.8099 -0.9395
 1011MOL0     H33402   7.520   1.382   0.697 -0.4635  1.5113 -0.8296
 1011MOL0     H33403   7.251   1.284   0.845 -0.1463 -0.2602  0.4665
 1011MOL0     H33404   7.312   1.208   0.688  1.0043  2.2427 -1.9893
 1011MOL0     H33405   7.157   1.517   0.854  0.4456  3.8462 -0.4476
 1011MOL0     H33406   7.175   1.825   0.645 -0.5217  1.4392  2.5263
 1011MOL0     H33407   7.143   1.762   0.801 -3.3526 -1.5527  1.1805
 1011MOL0     H33408   6.931   1.663   0.694  2.4249 -0.6289  0.4965
 1011MOL0     H33409   6.958   1.766   0.550 -2.3929 -1.6561 -0.5007
 1011MOL0     H33410   6.952   1.975   0.703  1.3944 -1.1490 -1.8534
 1011MOL0     H33411   6.799   1.886   0.704 -0.3314 -1.0196  2.3444
 1011MOL0     H33412   6.854   1.958   0.919  1.2593  0.3035  0.5856
 1011MOL0     H33413   7.002   1.872   0.927  1.2490  0.9639 -1.1213
 1011MOL0     H33414   6.723   1.534   1.021 -0.8677 -0.7854 -0.6205
 1011MOL0     H33415   6.491   1.498   1.044  0.3852 -0.8444 -0.3183
 1011MOL0     H33416   6.088   1.929   1.193  0.3325 -1.8104  2.8997
 1011MOL0     H33417   5.853   1.935   1.255 -0.6234 -1.5711  0.2980
 1011MOL0     H33418   5.608   1.942   1.276  0.1373  1.0495  1.3358
 1011MOL0     H33419   5.679   1.805   1.351  3.5995 -0.6774 -3.9189
 1011MOL0     H33420   5.445   1.788   1.406  0.6402  2.1042  0.3206
 1011MOL0     H33421   5.497   1.663   1.290  2.3492  0.6888 -0.3218
 1011MOL0     H33422   5.370   1.801   1.106 -2.3550  0.0135  0.0843
 1011MOL0     H33423   5.343   1.926   1.232  0.5220 -0.1885 -0.1077
 1011MOL0     H33424   5.241   1.645   1.233 -1.6202  1.2909 -4.7288
 1011MOL0     H33425   5.196   1.779   1.353  0.1190  1.7823  0.0783
 1011MOL0     H33426   5.130   1.755   1.058  0.3355  0.5207  0.1410
 1011MOL0     H33427   5.089   1.899   1.156 -2.2518 -0.5412 -0.4599
 1011MOL0     H33428   4.899   1.794   1.167 -1.8743 -0.7006  3.4505
 1011MOL0     H33429   4.982   1.743   1.317 -0.1853 -1.0885  0.2734
 1011MOL0     H33430   4.992   1.550   1.075  0.2430  2.6939 -0.3295
 1011MOL0     H33431   5.029   1.517   1.247 -0.5156  0.1476  0.7728
 1011MOL0     H33432   4.769   1.619   1.145 -2.6282 -3.7105 -2.3004
 1011MOL0     H33433   4.791   1.573   1.320 -0.2495 -3.8750  1.6349
 1011MOL0     H33434   5.765   1.610   0.975 -2.2614  1.6301  0.2185
 1011MOL0     H33435   6.021   1.598   0.921  2.1476 -0.1759  0.4422
 1011MOL0     H33436   6.428   1.930   0.994  0.8422 -0.3955  2.8483
 1011MOL0     H33437   6.646   1.947   0.925 -1.3978  0.4737 -4.1020
 1011MOL0     H33438   8.104   1.397   1.254  0.0982  0.0480  0.6906
 1011MOL0     H33439   8.317   1.508   1.212 -5.2749  0.8219 -0.8760
 1011MOL0     H33440   8.715   1.745   1.140  0.6804 -0.1522  3.2906
 1011MOL0     H33441   8.962   1.787   1.106  2.6804 -1.3747 -1.4219
 1011MOL0     H33442   9.240   1.487   0.993 -1.0772 -0.0753 -0.6684
 1011MOL0     H33443   9.263   1.444   1.162  1.1091  0.7990  0.4405
 1011MOL0     H33444   9.463   1.535   1.088  0.4435 -0.1180 -2.0615
 1011MOL0     H33445   9.391   1.690   1.031  0.6541 -0.4513  0.7959
 1011MOL0     H33446   9.408   1.597   1.315  2.3742 -0.3771 -0.2565
 1011MOL0     H33447   9.317   1.744   1.261  0.2891  0.9422 -0.8917
 1011MOL0     H33448   9.562   1.797   1.325 -0.9434 -0.1978 -0.0511
 1011MOL0     H33449   9.603   1.711   1.173  0.4369 -0.4247  0.7347
 1011MOL0     H33450   9.529   2.030   0.971 -1.2557  0.0577  0.3107
 1011MOL0     H33451   9.037   1.366   1.135 -2.0796 -0.6001  1.2883
 1011MOL0     H33452   8.793   1.320   1.119  0.8608 -0.7701 -0.4495
 1012MOL0     O33453   3.536   3.550   9.214 -0.3027 -0.6717  0.3319
 1012MOL0     C33454   3.607   3.536   9.315  0.3305 -0.7833 -0.1045
 1012MOL0     O33455   3.562   3.491   9.441  0.0524 -0.2634 -0.2017
 1012MOL0     C33456   3.428   3.476   9.453  0.5737 -0.3887 -0.0840
 1012MOL0     C33457   3.361   3.567   9.532  0.2380  1.1237 -0.3933
 1012MOL0     C33458   3.221   3.563   9.532 -0.3182  0.4984  0.2488
 1012MOL0     C33459   3.156   3.449   9.480 -0.6669 -0.2991 -0.5351
 1012MOL0     O33460   3.025   3.419   9.510  0.3783  0.7833 -0.3415
 1012MOL0     C33461   2.939   3.532   9.536 -0.3458 -0.1255 -0.8100
 1012MOL0     C33462   2.806   3.481   9.590 -0.2046  0.8027 -0.8601
 1012MOL0     C33463   2.705   3.412   9.494 -0.4665  1.4099 -0.6998
 1012MOL0     C33464   2.591   3.336   9.569 -0.0035 -0.0497 -0.4058
 1012MOL0     C33465   2.505   3.269   9.463  0.1687  0.1870  0.1057
 1012MOL0     C33466   2.386   3.208   9.525 -0.2663 -0.8359  0.9399
 1012MOL0     C33467   2.301   3.163   9.402  0.4075 -0.5589 -0.2280
 1012MOL0     C33468   2.194   3.068   9.439  1.2353  1.0401  0.3378
 1012MOL0     N33469   2.072   3.120   9.489 -0.2203 -0.0748 -0.4829
 1012MOL0     C33470   2.050   3.154   9.622 -0.1016  0.7434  0.0983
 1012MOL0     C33471   1.943   3.232   9.615  0.3277  0.0414 -0.4923
 1012MOL0     C33472   1.869   3.287   9.734 -0.2320  0.4342 -1.2216
 1012MOL0     C33473   1.932   3.411   9.775 -0.0632 -0.2032  0.2723
 1012MOL0     C33474   1.838   3.505   9.852 -0.0717 -0.0109 -0.5544
 1012MOL0     C33475   1.714   3.562   9.794 -0.4213  0.2158  0.1063
 1012MOL0     O33476   1.664   3.668   9.879 -0.2456  0.0705  0.4982
 1012MOL0     C33477   1.531   3.700   9.886  0.5491 -0.2273 -0.6477
 1012MOL0     C33478   1.447   3.645   9.791  0.3567  0.5734  0.1280
 1012MOL0     C33479   1.314   3.690   9.780  0.8551 -0.3605  0.1344
 1012MOL0     C33480   1.263   3.779   9.876  1.1705  0.6867  0.4279
 1012MOL0     C33481   1.122   3.825   9.855  1.2586  0.1564  0.5679
 1012MOL0     O33482   1.079   3.923   9.947 -0.8129 -0.3934 -0.5955
 1012MOL0     C33483   0.960   3.985   9.949  0.9661 -0.3261  0.6814
 1012MOL0     C33484   0.967   4.101  10.020 -0.0200 -0.5632  0.2828
 1012MOL0     C33485   0.860   4.188  10.024  1.0735  0.2639  1.0088
 1012MOL0     C33486   0.734   4.148   9.965 -0.3149 -0.6936 -0.1079
 1012MOL0     O33487   0.625   4.239   9.987 -0.3192  0.2154  0.2783
 1012MOL0     C33488   0.530   4.282   9.883 -0.9517 -0.6088 -0.3211
 1012MOL0     C33489   0.449   4.402   9.944 -0.2551 -0.1279 -0.3351
 1012MOL0     C33490   0.347   4.348  10.041 -0.4637 -0.5761 -0.1234
 1012MOL0     C33491   0.247   4.450  10.115 -0.7993 -0.1829  0.3451
 1012MOL0     C33492   0.323   4.550  10.211 -0.5625  0.7096 -0.0594
 1012MOL0     C33493   0.436   4.492  10.295 -0.4898  0.2764 -0.8319
 1012MOL0     C33494   0.500   4.581  10.400  0.7797  0.2368  0.0568
 1012MOL0     C33495   0.584   4.496  10.496 -0.0991  1.1366 -0.2644
 1012MOL0    Cl33496   0.667   4.600  10.620 -0.1617  0.0560 -0.1448
 1012MOL0     C33497   0.721   4.030   9.901  0.3153  0.2369 -0.1406
 1012MOL0     C33498   0.834   3.949   9.892  0.0154  0.1040  0.0740
 1012MOL0     O33499   1.053   3.766   9.772  0.1567  0.0260  0.5383
 1012MOL0     C33500   1.355   3.824   9.969  0.4312 -0.2111 -0.1063
 1012MOL0     C33501   1.486   3.775   9.989  0.1413  0.2343  0.4052
 1012MOL0     N33502   1.889   3.223   9.490 -0.7655  0.3055 -0.4425
 1012MOL0     N33503   1.966   3.151   9.414  0.0092 -0.4660 -0.4805
 1012MOL0     C33504   3.232   3.348   9.420 -0.1018  1.2799  0.3046
 1012MOL0     C33505   3.366   3.364   9.399  0.5468 -0.1444 -0.1183
 1012MOL0     C33506   3.753   3.580   9.294 -0.5749 -0.8922 -0.4764
 1012MOL0     C33507   3.838   3.602   9.405  0.3177 -0.0937  1.2225
 1012MOL0     C33508   3.974   3.643   9.394 -0.3606  0.5356 -0.3456
 1012MOL0     C33509   4.036   3.641   9.269  1.2459 -0.5956  0.3158
 1012MOL0     O33510   4.167   3.681   9.260 -0.2309  0.4257 -0.1947
 1012MOL0     C33511   4.237   3.683   9.131  0.1594 -0.3987  0.9480
 1012MOL0     C33512   4.384   3.700   9.151 -0.4269  0.3959 -0.2509
 1012MOL0     C33513   4.471   3.775   9.049 -0.1641 -0.0878  0.3837
 1012MOL0     C33514   4.625   3.792   9.077  0.7316  0.3765 -0.4240
 1012MOL0     C33515   4.697   3.868   8.973  0.1361 -0.2028  0.5275
 1012MOL0     C33516   4.754   3.925   8.881 -0.3699  1.0307 -0.5589
 1012MOL0     C33517   3.951   3.614   9.155  0.3403  0.4119 -0.0519
 1012MOL0     C33518   3.816   3.583   9.171  0.1469  0.1168  0.5744
 1012MOL0     H33519   3.412   3.646   9.587 -1.0164  0.6555  1.5530
 1012MOL0     H33520   3.168   3.640   9.588  0.5123  0.9861  0.3974
 1012MOL0     H33521   2.922   3.580   9.440  0.0188  0.3029 -0.6659
 1012MOL0     H33522   2.976   3.609   9.605 -0.1155  0.1849 -1.2803
 1012MOL0     H33523   2.747   3.558   9.640 -3.1939 -2.3462  0.8610
 1012MOL0     H33524   2.833   3.409   9.667 -0.7452  0.2978 -1.1297
 1012MOL0     H33525   2.770   3.347   9.434  2.2480  3.7716 -0.5559
 1012MOL0     H33526   2.651   3.481   9.429 -1.1733 -0.6315 -2.3773
 1012MOL0     H33527   2.633   3.261   9.637 -0.3644  1.4983  1.6450
 1012MOL0     H33528   2.532   3.401   9.635 -0.3941 -0.7879 -0.0119
 1012MOL0     H33529   2.562   3.197   9.403 -1.6680  0.0334 -1.5791
 1012MOL0     H33530   2.462   3.346   9.398 -2.7122 -1.3210  0.0933
 1012MOL0     H33531   2.334   3.276   9.592 -0.6004 -2.0415  1.9397
 1012MOL0     H33532   2.404   3.116   9.582 -1.5067 -1.3032  0.6207
 1012MOL0     H33533   2.251   3.251   9.360  2.5599  0.2363 -1.3066
 1012MOL0     H33534   2.359   3.118   9.321 -2.4802 -1.8301 -1.7181
 1012MOL0     H33535   2.236   2.997   9.510  2.0156  2.5633  1.4538
 1012MOL0     H33536   2.183   3.015   9.344  2.1684  2.3869 -0.5603
 1012MOL0     H33537   2.110   3.144   9.712  0.9463  1.2370 -0.5301
 1012MOL0     H33538   1.870   3.223   9.822  2.6877 -0.5203 -1.8269
 1012MOL0     H33539   1.766   3.314   9.712  0.1012  3.0343  0.0183
 1012MOL0     H33540   1.955   3.459   9.680 -3.2016  1.2403  0.1098
 1012MOL0     H33541   2.019   3.395   9.840  0.4095  2.5600  0.4661
 1012MOL0     H33542   1.817   3.453   9.946 -1.2913 -1.1903 -1.4503
 1012MOL0     H33543   1.908   3.585   9.875  3.1313 -2.9313  0.8590
 1012MOL0     H33544   1.648   3.476   9.779  1.9460 -1.6657 -0.3475
 1012MOL0     H33545   1.734   3.606   9.696  0.0220  0.1349  0.1572
 1012MOL0     H33546   1.466   3.574   9.712 -1.8760  3.0271 -2.9148
 1012MOL0     H33547   1.251   3.659   9.697 -2.2067  1.2175  1.6795
 1012MOL0     H33548   1.063   4.124  10.064  0.4313 -1.5557 -0.1482
 1012MOL0     H33549   0.867   4.288  10.065  1.1628 -0.0635  1.8088
 1012MOL0     H33550   0.461   4.206   9.846 -1.7767  0.7894 -1.8162
 1012MOL0     H33551   0.581   4.326   9.797 -1.7589 -0.8826 -0.9582
 1012MOL0     H33552   0.397   4.458   9.866 -0.7564 -1.4729 -0.9794
 1012MOL0     H33553   0.520   4.476   9.983 -2.2394  2.1417 -0.7658
 1012MOL0     H33554   0.398   4.313  10.132  0.5633  2.3893  0.5538
 1012MOL0     H33555   0.291   4.269   9.990 -2.7719  1.2641 -0.5654
 1012MOL0     H33556   0.202   4.512  10.037 -0.6885  0.8502  1.0935
 1012MOL0     H33557   0.176   4.380  10.161  1.4138 -2.1703  0.9461
 1012MOL0     H33558   0.254   4.603  10.277 -0.2792 -0.1214  0.9288
 1012MOL0     H33559   0.380   4.624  10.154  2.1392 -0.9829  0.2284
 1012MOL0     H33560   0.528   4.472  10.239  1.0052  0.7996  1.2903
 1012MOL0     H33561   0.402   4.398  10.338 -0.0969  0.7427  0.5546
 1012MOL0     H33562   0.558   4.660  10.352 -0.3409  1.1592  0.1503
 1012MOL0     H33563   0.421   4.623  10.464 -0.5731 -1.7902 -0.2006
 1012MOL0     H33564   0.664   4.444  10.442 -0.8463  1.0976 -1.3738
 1012MOL0     H33565   0.518   4.424  10.545 -0.7209  3.2000  2.1379
 1012MOL0     H33566   0.621   4.009   9.863  0.3692 -0.0781 -0.1104
 1012MOL0     H33567   0.828   3.851   9.844  2.1447  0.6985 -1.5818
 1012MOL0     H33568   1.309   3.901  10.029 -1.8449  0.7189 -2.7949
 1012MOL0     H33569   1.546   3.812  10.072 -1.4316 -2.7613  3.1009
 1012MOL0     H33570   3.182   3.257   9.391  0.3664 -0.0064  3.2501
 1012MOL0     H33571   3.410   3.282   9.342 -0.8832 -3.1381  2.7510
 1012MOL0     H33572   3.797   3.587   9.504 -4.0217 -0.2347 -0.3834
 1012MOL0     H33573   4.025   3.682   9.481 -0.5557  0.8228 -0.3563
 1012MOL0     H33574   4.204   3.765   9.066  1.3524 -1.6652 -1.3503
 1012MOL0     H33575   4.214   3.600   9.064  1.9830  1.7372 -2.5926
 1012MOL0     H33576   4.397   3.749   9.248 -0.5505 -0.5168  0.2321
 1012MOL0     H33577   4.419   3.598   9.163 -1.0633 -0.4956 -4.3977
 1012MOL0     H33578   4.422   3.873   9.047 -0.9010 -0.3363  2.8643
 1012MOL0     H33579   4.471   3.721   8.954 -0.1339 -0.9541  0.8749
 1012MOL0     H33580   4.637   3.824   9.181  1.6952 -0.0088 -0.4022
 1012MOL0     H33581   4.676   3.695   9.071 -1.0768 -1.2598  4.6264
 1012MOL0     H33582   4.803   3.971   8.797  1.2006  2.1988  0.9074
 1012MOL0     H33583   3.972   3.608   9.049  1.7959 -2.2552  0.3020
 1012MOL0     H33584   3.753   3.565   9.084 -0.6504  1.0604  0.9331
 1013MOL0     O33585   1.356   1.046   5.196  0.0780 -0.1411 -0.1149
 1013MOL0     C33586   1.311   1.152   5.234 -0.4086 -0.6347  0.5288
 1013MOL0     O33587   1.195   1.172   5.296  0.3797  0.6603  0.0837
 1013MOL0     C33588   1.091   1.082   5.299  0.0507  0.1442  0.8521
 1013MOL0     C33589   1.024   1.036   5.179 -0.7715 -0.5308 -0.9925
 1013MOL0     C33590   0.899   0.968   5.184 -0.3750 -1.2354  0.4774
 1013MOL0     C33591   0.845   0.931   5.311  0.6490 -0.0452  0.0392
 1013MOL0     O33592   0.724   0.861   5.324 -0.5177 -0.7004 -0.7686
 1013MOL0     C33593   0.610   0.925   5.270 -0.4827 -0.8180 -0.2410
 1013MOL0     C33594   0.494   0.829   5.280 -0.3531 -0.2463  0.3762
 1013MOL0     C33595   0.359   0.894   5.261  0.4103 -0.5736 -0.0814
 1013MOL0     C33596   0.261   0.790   5.292  0.2382 -0.2730 -1.1058
 1013MOL0     C33597   0.122   0.849   5.313 -0.9240 -0.3492  0.6192
 1013MOL0     C33598   0.015   0.739   5.343 -0.1876 -1.0913  0.1519
 1013MOL0     C33599  -0.133   0.790   5.330 -0.0713 -0.4057  0.3027
 1013MOL0     C33600  -0.190   0.808   5.185  0.1119  0.3359 -1.0526
 1013MOL0     N33601  -0.203   0.684   5.114 -0.7745  0.3723  0.4095
 1013MOL0     C33602  -0.253   0.570   5.164 -0.5479  0.2667  0.2748
 1013MOL0     C33603  -0.240   0.483   5.059 -0.0871 -0.1433 -0.1930
 1013MOL0     C33604  -0.293   0.337   5.068  0.7759  1.0706 -0.0928
 1013MOL0     C33605  -0.448   0.346   5.065  0.0717 -0.1584  0.5418
 1013MOL0     C33606  -0.502   0.203   5.039 -0.7668  0.1544  0.5851
 1013MOL0     C33607  -0.649   0.192   5.052  0.1506 -0.7115 -0.1950
 1013MOL0     O33608  -0.712   0.287   4.957 -0.0186  0.7644  0.0634
 1013MOL0     C33609  -0.843   0.308   4.983  0.0454  0.0566  0.9581
 1013MOL0     C33610  -0.919   0.271   5.097  0.7548  0.8604  0.8445
 1013MOL0     C33611  -1.060   0.304   5.112 -0.0505  0.1549 -0.2234
 1013MOL0     C33612  -1.121   0.394   5.021 -0.2492  0.0915  0.2505
 1013MOL0     C33613  -1.255   0.441   5.046 -0.1587 -0.8819 -0.6987
 1013MOL0     O33614  -1.324   0.360   5.122  0.5334  0.9006 -0.3564
 1013MOL0     C33615  -1.458   0.364   5.161 -0.2899 -0.0090  0.3552
 1013MOL0     C33616  -1.498   0.261   5.248  0.0648 -0.6045 -0.1126
 1013MOL0     C33617  -1.624   0.257   5.303 -0.3496  0.5846 -0.3185
 1013MOL0     C33618  -1.725   0.357   5.272 -0.9528  0.8000 -0.1790
 1013MOL0     O33619  -1.850   0.337   5.323 -0.1511  0.4235  0.0787
 1013MOL0     C33620  -1.955   0.432   5.282 -0.6682  0.9816 -0.0651
 1013MOL0     C33621  -2.078   0.371   5.337  0.3446 -0.7495 -0.2738
 1013MOL0     C33622  -2.196   0.464   5.309  1.3126 -0.1177 -0.7741
 1013MOL0     C33623  -2.311   0.454   5.412 -0.1012  0.0163  0.1762
 1013MOL0     C33624  -2.433   0.547   5.391  0.0747  1.1279 -0.7052
 1013MOL0     C33625  -2.530   0.515   5.501 -0.1401  0.6224 -0.1854
 1013MOL0     C33626  -2.663   0.576   5.455 -0.4747 -0.8144 -0.0544
 1013MOL0     C33627  -2.776   0.530   5.538  0.3319  0.1965 -0.3561
 1013MOL0    Cl33628  -2.751   0.559   5.711 -0.5083  0.3411  0.0736
 1013MOL0     C33629  -1.681   0.457   5.178  0.5290  0.5705  0.2303
 1013MOL0     C33630  -1.546   0.467   5.130 -0.2047  0.5050  0.5287
 1013MOL0     O33631  -1.288   0.550   5.004 -0.3412  0.2230  0.2554
 1013MOL0     C33632  -1.052   0.419   4.904  0.4724 -0.6396  0.2665
 1013MOL0     C33633  -0.922   0.371   4.880  0.4777 -0.2238  0.3341
 1013MOL0     N33634  -0.177   0.544   4.948  0.2340  0.0361 -0.0591
 1013MOL0     N33635  -0.144   0.663   4.990  0.4293 -0.3835  0.3248
 1013MOL0     C33636   0.916   0.961   5.422 -0.4429 -1.1829 -0.2433
 1013MOL0     C33637   1.030   1.041   5.414  0.1358  0.1483 -0.1928
 1013MOL0     C33638   1.404   1.268   5.233  0.9020 -0.5914 -1.4684
 1013MOL0     C33639   1.515   1.267   5.146  0.5015  0.0909  0.0182
 1013MOL0     C33640   1.615   1.363   5.155  0.0911  0.4776  0.6851
 1013MOL0     C33641   1.605   1.465   5.250 -0.6735 -0.2463 -0.5530
 1013MOL0     O33642   1.708   1.553   5.277  0.4154 -0.2994 -0.1798
 1013MOL0     C33643   1.836   1.515   5.230 -1.2207 -0.9193 -0.1697
 1013MOL0     C33644   1.936   1.636   5.260 -0.1977  0.9578 -0.7637
 1013MOL0     C33645   1.962   1.650   5.406  0.5136 -0.4897  0.2070
 1013MOL0     C33646   2.087   1.729   5.440 -1.0405 -0.0395 -0.2983
 1013MOL0     C33647   2.095   1.737   5.591  0.0228  0.2140  0.3210
 1013MOL0     C33648   2.107   1.748   5.713  0.1579  0.7077  0.8916
 1013MOL0     C33649   1.491   1.475   5.334 -0.0937 -0.2647  0.4147
 1013MOL0     C33650   1.389   1.379   5.329  1.6077 -0.4362  0.3698
 1013MOL0     H33651   1.065   1.057   5.081 -0.8376 -1.7439 -1.2894
 1013MOL0     H33652   0.849   0.949   5.089  2.6203  0.7815 -1.6932
 1013MOL0     H33653   0.624   0.956   5.166 -2.5709 -0.1417 -0.3628
 1013MOL0     H33654   0.576   1.009   5.330 -2.7648 -0.4758 -1.8631
 1013MOL0     H33655   0.502   0.785   5.380 -2.9574 -1.7468  0.0079
 1013MOL0     H33656   0.503   0.749   5.206 -3.6148 -1.1984  0.8678
 1013MOL0     H33657   0.353   0.928   5.158 -0.7700 -0.8478 -0.1245
 1013MOL0     H33658   0.348   0.974   5.334  0.5570 -0.1820 -0.4856
 1013MOL0     H33659   0.255   0.712   5.215 -1.0242 -1.4817  0.1491
 1013MOL0     H33660   0.286   0.750   5.391  0.3223  1.6490 -0.3219
 1013MOL0     H33661   0.114   0.901   5.217  3.4936 -2.8636 -1.4329
 1013MOL0     H33662   0.126   0.932   5.384  1.0892  0.2460 -0.1257
 1013MOL0     H33663   0.037   0.710   5.446  1.7388 -3.9594 -0.9413
 1013MOL0     H33664   0.027   0.659   5.270 -2.0928 -1.8290  0.5854
 1013MOL0     H33665  -0.180   0.711   5.390 -1.1959 -0.4339 -0.5823
 1013MOL0     H33666  -0.137   0.882   5.388 -0.8482 -1.5028  2.0838
 1013MOL0     H33667  -0.126   0.881   5.134  1.0606  2.3919  2.7069
 1013MOL0     H33668  -0.286   0.861   5.191 -0.0415 -0.0942  1.0498
 1013MOL0     H33669  -0.306   0.561   5.258  0.1541  2.5124  0.9515
 1013MOL0     H33670  -0.268   0.280   5.158 -1.3388 -0.0856 -0.1682
 1013MOL0     H33671  -0.255   0.280   4.982 -1.5528  1.6385 -1.5680
 1013MOL0     H33672  -0.482   0.411   4.984  1.7579 -0.8172 -0.7782
 1013MOL0     H33673  -0.481   0.377   5.164 -2.7805 -0.1110 -0.3480
 1013MOL0     H33674  -0.483   0.175   4.935  0.0990 -1.0369  1.0397
 1013MOL0     H33675  -0.449   0.127   5.098  2.7217  1.3473 -0.7624
 1013MOL0     H33676  -0.661   0.211   5.159  1.7137 -0.4058 -0.0483
 1013MOL0     H33677  -0.686   0.091   5.035 -1.7016 -0.2778  0.8950
 1013MOL0     H33678  -0.866   0.231   5.184  0.9567  0.7262  0.6601
 1013MOL0     H33679  -1.107   0.276   5.206 -0.1398  2.2613  0.4009
 1013MOL0     H33680  -1.434   0.180   5.282  0.0812 -0.1553  0.9919
 1013MOL0     H33681  -1.644   0.176   5.373 -2.2680  0.4895 -0.9137
 1013MOL0     H33682  -1.961   0.439   5.173 -2.9881 -3.4981 -0.4458
 1013MOL0     H33683  -1.937   0.528   5.332 -0.8156  0.0659  1.8478
 1013MOL0     H33684  -2.057   0.359   5.444  1.5196 -1.1756 -0.5336
 1013MOL0     H33685  -2.089   0.273   5.290  0.6534 -1.5104  1.1904
 1013MOL0     H33686  -2.225   0.454   5.204  0.7669  2.3994 -0.9131
 1013MOL0     H33687  -2.161   0.567   5.321  1.9746 -0.2645 -1.3349
 1013MOL0     H33688  -2.338   0.348   5.412 -2.0840  0.3903 -2.5151
 1013MOL0     H33689  -2.260   0.475   5.506  4.1448 -0.4476 -1.7839
 1013MOL0     H33690  -2.474   0.534   5.291 -0.2931 -0.7184 -0.3401
 1013MOL0     H33691  -2.402   0.652   5.401  1.6259  0.6342 -0.0244
 1013MOL0     H33692  -2.501   0.567   5.593 -1.0956  0.3026  0.3059
 1013MOL0     H33693  -2.546   0.408   5.514  1.4541  0.4576  0.7167
 1013MOL0     H33694  -2.656   0.685   5.463  0.0452 -0.9629  2.2966
 1013MOL0     H33695  -2.677   0.562   5.348  2.4664  0.8450 -0.7459
 1013MOL0     H33696  -2.786   0.422   5.523  0.0207 -0.3257  2.8113
 1013MOL0     H33697  -2.865   0.583   5.502  0.1817  1.3555  1.5493
 1013MOL0     H33698  -1.755   0.528   5.143 -1.8526 -2.4635 -1.3467
 1013MOL0     H33699  -1.525   0.543   5.056 -0.1811 -1.7898 -1.9625
 1013MOL0     H33700  -1.088   0.468   4.814 -1.2489 -0.9631  0.7280
 1013MOL0     H33701  -0.865   0.396   4.791  1.1213 -0.2800  0.7244
 1013MOL0     H33702   0.887   0.938   5.523  0.2305 -2.1929 -0.2683
 1013MOL0     H33703   1.089   1.072   5.499 -1.1622  1.6435  0.2030
 1013MOL0     H33704   1.550   1.190   5.078  0.7651 -1.1622  1.5330
 1013MOL0     H33705   1.699   1.350   5.087 -0.9738 -2.3345 -0.2193
 1013MOL0     H33706   1.838   1.508   5.121  0.5185  0.1496 -0.2646
 1013MOL0     H33707   1.879   1.422   5.268  1.5887  0.5342  0.4922
 1013MOL0     H33708   2.031   1.607   5.213  0.3747  1.1548  0.2508
 1013MOL0     H33709   1.901   1.725   5.207  0.6041 -0.2940 -3.6010
 1013MOL0     H33710   1.970   1.551   5.453 -1.2788  0.2694  2.3014
 1013MOL0     H33711   1.876   1.699   5.452  1.4454 -1.1333  2.8217
 1013MOL0     H33712   2.180   1.683   5.406 -0.4407 -0.6416  1.9812
 1013MOL0     H33713   2.070   1.830   5.403  0.7733  0.0510 -0.9238
 1013MOL0     H33714   2.109   1.754   5.820  2.8481  0.5243  0.9254
 1013MOL0     H33715   1.478   1.553   5.408  0.4294  2.9030 -2.5483
 1013MOL0     H33716   1.306   1.385   5.399  1.0822  2.3766 -0.3776
 1014MOL0     O33717   0.134  10.023   2.488  0.3198  0.2043 -0.1844
 1014MOL0     C33718   0.144  10.129   2.426 -0.3928  0.8151  0.3633
 1014MOL0     O33719   0.044  10.179   2.339 -0.6151 -0.5682 -0.0033
 1014MOL0     C33720  -0.074  10.129   2.320  1.2103 -0.2957 -0.1388
 1014MOL0     C33721  -0.119   9.999   2.354 -0.3253 -0.0629  0.1160
 1014MOL0     C33722  -0.250   9.960   2.350  0.0432 -0.4686 -0.1025
 1014MOL0     C33723  -0.339  10.042   2.285 -0.1433  0.2877  0.6861
 1014MOL0     O33724  -0.465   9.984   2.265  0.0118  0.3306  0.2076
 1014MOL0     C33725  -0.550  10.072   2.181  0.1556 -0.1907  0.2884
 1014MOL0     C33726  -0.675   9.972   2.161  0.0401 -0.6408  0.3156
 1014MOL0     C33727  -0.775  10.029   2.055 -0.8329 -0.5335 -0.3500
 1014MOL0     C33728  -0.888   9.922   2.021 -0.1826  0.1757 -0.3162
 1014MOL0     C33729  -0.969   9.900   2.146 -0.0106  0.4574  0.4545
 1014MOL0     C33730  -1.072   9.787   2.114  0.8811 -0.5004  1.2578
 1014MOL0     C33731  -1.125   9.723   2.240  0.1253 -0.4559 -1.1619
 1014MOL0     C33732  -1.212   9.601   2.192  0.0958  0.0542 -0.8295
 1014MOL0     N33733  -1.297   9.551   2.297 -0.0910  0.3544 -0.1552
 1014MOL0     C33734  -1.411   9.614   2.346 -0.6220  0.2567  0.6472
 1014MOL0     C33735  -1.474   9.526   2.432 -0.4264 -0.0799 -0.2913
 1014MOL0     C33736  -1.610   9.539   2.499  0.0087 -0.2614  0.8498
 1014MOL0     C33737  -1.720   9.482   2.409 -0.5344 -0.1306  0.2321
 1014MOL0     C33738  -1.722   9.538   2.261 -0.1249 -1.2400  0.2400
 1014MOL0     C33739  -1.863   9.525   2.196  0.0716 -0.0999 -0.1513
 1014MOL0     O33740  -1.953   9.603   2.265 -0.4369 -0.7384  0.3084
 1014MOL0     C33741  -2.080   9.547   2.271  0.4161  0.2499  1.1633
 1014MOL0     C33742  -2.113   9.484   2.388 -0.5657 -0.3673  0.4621
 1014MOL0     C33743  -2.243   9.442   2.406 -0.4427 -0.0326 -0.7461
 1014MOL0     C33744  -2.344   9.459   2.307  0.3953 -0.1906 -0.1209
 1014MOL0     C33745  -2.478   9.414   2.341  0.1860  0.9213 -0.4742
 1014MOL0     O33746  -2.569   9.475   2.259 -0.1948 -0.3991  0.1068
 1014MOL0     C33747  -2.700   9.434   2.256 -0.1613  0.6836 -0.1982
 1014MOL0     C33748  -2.758   9.438   2.132 -0.1828 -0.6375 -0.5138
 1014MOL0     C33749  -2.897   9.409   2.113  0.1145  0.4010 -0.0250
 1014MOL0     C33750  -2.972   9.378   2.229  0.6182 -0.8866  0.8773
 1014MOL0     O33751  -3.103   9.348   2.204 -0.0427  0.1233 -0.1506
 1014MOL0     C33752  -3.199   9.377   2.311 -0.2211 -0.3596 -0.0073
 1014MOL0     C33753  -3.336   9.358   2.251  0.2681 -0.1548 -0.5331
 1014MOL0     C33754  -3.366   9.205   2.251 -0.9996  0.0661  0.7281
 1014MOL0     C33755  -3.479   9.166   2.158  0.3950  0.1544  0.1660
 1014MOL0     C33756  -3.519   9.012   2.175  0.3899 -1.0333  0.1857
 1014MOL0     C33757  -3.548   8.960   2.038 -0.4183  0.5812  0.5676
 1014MOL0     C33758  -3.597   8.810   2.053 -0.6171 -0.5034 -0.0828
 1014MOL0     C33759  -3.649   8.759   1.924 -0.2327 -1.0025 -0.4338
 1014MOL0    Cl33760  -3.532   8.790   1.782 -0.0226 -0.0340 -0.2444
 1014MOL0     C33761  -2.908   9.378   2.354 -0.7125  0.5039  0.6326
 1014MOL0     C33762  -2.768   9.405   2.372 -0.1085  0.7356  0.3369
 1014MOL0     O33763  -2.505   9.326   2.419  0.4649  0.5983 -0.1128
 1014MOL0     C33764  -2.306   9.511   2.175  0.3926  0.4600 -0.0190
 1014MOL0     C33765  -2.171   9.556   2.165  0.4693 -0.2841  0.4157
 1014MOL0     N33766  -1.388   9.415   2.441  0.0028  0.2083 -0.5376
 1014MOL0     N33767  -1.286   9.435   2.363  1.4094  0.1839  0.5358
 1014MOL0     C33768  -0.297  10.174   2.248 -0.1802 -0.4636  0.0310
 1014MOL0     C33769  -0.165  10.219   2.262 -0.6474  0.2296 -0.3156
 1014MOL0     C33770   0.263  10.205   2.444  0.2075  0.2093  0.9841
 1014MOL0     C33771   0.287  10.322   2.367  0.4026 -0.1927  0.2551
 1014MOL0     C33772   0.409  10.382   2.367  0.4206 -0.1485 -0.0980
 1014MOL0     C33773   0.505  10.356   2.461 -0.3120  1.1703 -0.2654
 1014MOL0     O33774   0.616  10.435   2.470  0.6393 -0.2022 -0.6250
 1014MOL0     C33775   0.706  10.422   2.586  0.1858 -0.1817  0.4378
 1014MOL0     C33776   0.821  10.515   2.566  0.0739  0.2402  0.5269
 1014MOL0     C33777   0.789  10.660   2.555 -0.8810 -0.3755  0.6291
 1014MOL0     C33778   0.927  10.727   2.526  0.5244 -0.4838  0.0729
 1014MOL0     C33779   0.919  10.868   2.479  1.3272  1.3718 -0.8793
 1014MOL0     C33780   0.890  10.974   2.435  0.5111 -0.5080  0.1611
 1014MOL0     C33781   0.479  10.245   2.547  0.0460 -0.3389 -0.2510
 1014MOL0     C33782   0.363  10.164   2.531  0.1237  0.1508  0.3830
 1014MOL0     H33783  -0.046   9.928   2.392  0.6286  0.4648 -0.6797
 1014MOL0     H33784  -0.274   9.858   2.379  0.3759 -0.3372  0.6355
 1014MOL0     H33785  -0.501  10.102   2.088  2.4183  1.2959  1.8558
 1014MOL0     H33786  -0.583  10.167   2.223 -1.3245  1.4664 -4.1066
 1014MOL0     H33787  -0.732   9.965   2.255 -0.3710  0.3386  0.1562
 1014MOL0     H33788  -0.646   9.873   2.126 -1.1485 -0.7520 -0.4334
 1014MOL0     H33789  -0.725  10.058   1.962 -2.9322 -2.7832 -2.3027
 1014MOL0     H33790  -0.810  10.130   2.074  2.3203  0.4166  1.0958
 1014MOL0     H33791  -0.947   9.957   1.935  2.5686 -0.1828 -2.5034
 1014MOL0     H33792  -0.844   9.830   1.981 -0.7205  0.5288 -1.8211
 1014MOL0     H33793  -1.022   9.990   2.178 -0.9785  0.0867 -0.0387
 1014MOL0     H33794  -0.909   9.848   2.221 -2.7339 -1.5193  1.4458
 1014MOL0     H33795  -1.030   9.708   2.051  0.5184 -3.1521  4.0877
 1014MOL0     H33796  -1.152   9.832   2.055  0.5350 -1.5573  0.9061
 1014MOL0     H33797  -1.045   9.705   2.311  0.1486  1.2718 -0.7126
 1014MOL0     H33798  -1.189   9.789   2.299  0.9805 -1.3977  0.9245
 1014MOL0     H33799  -1.153   9.518   2.151 -2.2711 -1.9762 -0.3854
 1014MOL0     H33800  -1.271   9.622   2.102  0.0177 -0.3465 -0.8774
 1014MOL0     H33801  -1.463   9.705   2.316 -3.2130 -1.2383  0.3747
 1014MOL0     H33802  -1.621   9.645   2.520  4.0362  0.9411 -1.8476
 1014MOL0     H33803  -1.621   9.481   2.591 -2.1130  0.9008  1.3903
 1014MOL0     H33804  -1.817   9.498   2.456  0.2739 -1.0737  2.3784
 1014MOL0     H33805  -1.715   9.373   2.414 -1.1815 -0.1973 -0.3841
 1014MOL0     H33806  -1.693   9.643   2.274 -1.6860 -0.8628  0.8842
 1014MOL0     H33807  -1.655   9.478   2.197 -2.1260 -2.4389 -0.8297
 1014MOL0     H33808  -1.899   9.422   2.198 -2.2629  0.5763  4.3666
 1014MOL0     H33809  -1.855   9.553   2.090  1.6468 -2.8834 -0.8776
 1014MOL0     H33810  -2.037   9.473   2.465  0.8031 -2.2808 -1.0841
 1014MOL0     H33811  -2.268   9.401   2.503  1.7915  5.3110  2.5637
 1014MOL0     H33812  -2.697   9.456   2.044 -0.1659  0.9649 -0.2027
 1014MOL0     H33813  -2.942   9.413   2.014  1.5745  1.9169 -0.6810
 1014MOL0     H33814  -3.190   9.475   2.359 -1.0973 -0.4150  0.2899
 1014MOL0     H33815  -3.187   9.306   2.394 -2.5358 -0.1345  0.6001
 1014MOL0     H33816  -3.344   9.396   2.149 -1.2838  0.7201 -0.1142
 1014MOL0     H33817  -3.407   9.398   2.325  1.3985 -1.3621  1.2992
 1014MOL0     H33818  -3.390   9.179   2.354  2.1866 -0.3641  1.4776
 1014MOL0     H33819  -3.275   9.147   2.233 -0.8062 -0.0539  2.0123
 1014MOL0     H33820  -3.566   9.227   2.185  1.1493  1.4486 -0.2329
 1014MOL0     H33821  -3.440   9.183   2.057 -0.6067  0.7142 -0.1398
 1014MOL0     H33822  -3.609   9.013   2.237  0.1063 -1.7323 -0.1990
 1014MOL0     H33823  -3.438   8.959   2.227  0.3861  1.2189  2.7247
 1014MOL0     H33824  -3.458   8.959   1.976 -0.0097  0.6539  1.1533
 1014MOL0     H33825  -3.617   9.028   1.988 -1.0737  0.0265  0.6991
 1014MOL0     H33826  -3.518   8.747   2.095  2.1783  2.4467 -0.5281
 1014MOL0     H33827  -3.679   8.800   2.125 -1.3310  0.5690 -0.7142
 1014MOL0     H33828  -3.736   8.823   1.905 -0.4849 -0.4581  2.1369
 1014MOL0     H33829  -3.678   8.654   1.936 -0.3052 -1.3364 -3.0109
 1014MOL0     H33830  -2.965   9.343   2.439  0.1236  0.4250  1.1708
 1014MOL0     H33831  -2.724   9.395   2.471  0.0956  0.2360  0.1952
 1014MOL0     H33832  -2.375   9.523   2.092 -1.1782  2.3631  1.4660
 1014MOL0     H33833  -2.144   9.606   2.072 -1.7964  0.6152  0.1846
 1014MOL0     H33834  -0.373  10.244   2.213  0.7138  0.4076 -0.2100
 1014MOL0     H33835  -0.135  10.320   2.239  0.3886 -0.2181 -0.9888
 1014MOL0     H33836   0.214  10.351   2.293 -1.1754 -3.0810  0.5181
 1014MOL0     H33837   0.413  10.468   2.301 -1.2516 -0.7347 -1.0146
 1014MOL0     H33838   0.742  10.320   2.602  0.3810 -0.2655 -0.4885
 1014MOL0     H33839   0.660  10.449   2.681 -0.2704 -1.5242  0.6264
 1014MOL0     H33840   0.894  10.496   2.645  1.6159  0.8521 -0.6881
 1014MOL0     H33841   0.863  10.476   2.473 -2.0372  0.9754 -0.7957
 1014MOL0     H33842   0.748  10.692   2.651  1.6607  1.5528  1.1843
 1014MOL0     H33843   0.711  10.686   2.483 -0.8571 -0.9698  0.3837
 1014MOL0     H33844   0.988  10.723   2.617  0.0585 -2.4229  0.3437
 1014MOL0     H33845   0.983  10.672   2.450  1.0967  0.4037 -0.1744
 1014MOL0     H33846   0.862  11.065   2.386  1.1993 -1.3975 -1.9925
 1014MOL0     H33847   0.550  10.211   2.622  0.0319  2.3727  1.0974
 1014MOL0     H33848   0.353  10.073   2.589 -1.3969 -1.5698 -2.3195
 1015MOL0     O33849   9.173   6.177   9.785 -0.5421 -0.4398  0.3443
 1015MOL0     C33850   9.199   6.294   9.745  1.2436  0.6318  1.0120
 1015MOL0     O33851   9.098   6.379   9.721  0.6632  0.0735  0.2024
 1015MOL0     C33852   8.964   6.357   9.733 -0.5382  0.0768 -0.6678
 1015MOL0     C33853   8.887   6.477   9.746 -0.3009  0.0919 -0.4846
 1015MOL0     C33854   8.753   6.471   9.733  0.9680 -0.0755 -0.0454
 1015MOL0     C33855   8.686   6.349   9.732 -1.2035  0.6084 -0.3822
 1015MOL0     O33856   8.553   6.333   9.728  0.4242 -0.1363 -0.7344
 1015MOL0     C33857   8.468   6.444   9.771  0.0514 -0.0095 -0.0069
 1015MOL0     C33858   8.336   6.384   9.809  0.5536  0.4604  0.3178
 1015MOL0     C33859   8.211   6.454   9.741  0.4397 -0.6503  0.9389
 1015MOL0     C33860   8.100   6.472   9.840  0.3926 -0.9909 -0.5238
 1015MOL0     C33861   7.974   6.486   9.761  0.8518  0.7093 -0.3861
 1015MOL0     C33862   7.975   6.630   9.702  0.4012 -0.3710 -0.2538
 1015MOL0     C33863   7.837   6.687   9.659 -0.2643  0.6126 -0.8802
 1015MOL0     C33864   7.749   6.718   9.784 -0.8329 -0.0668  0.7905
 1015MOL0     N33865   7.653   6.833   9.757 -0.4542 -0.2560  0.3471
 1015MOL0     C33866   7.536   6.816   9.687  0.4905 -0.7029 -0.2842
 1015MOL0     C33867   7.472   6.936   9.704 -0.3296  1.0114 -0.7994
 1015MOL0     C33868   7.350   6.979   9.638  0.7578 -0.5101 -0.2512
 1015MOL0     C33869   7.220   6.966   9.720 -0.3486  0.0931 -0.8902
 1015MOL0     C33870   7.218   7.075   9.831  0.1043  1.5078  0.2196
 1015MOL0     C33871   7.096   7.073   9.917  1.0526 -0.8148 -0.4704
 1015MOL0     O33872   6.982   7.076   9.824  0.0419 -0.9938  0.0472
 1015MOL0     C33873   6.858   7.104   9.876 -0.5254  0.1616  0.3257
 1015MOL0     C33874   6.763   7.143   9.793  0.4094  0.1504  0.5870
 1015MOL0     C33875   6.633   7.169   9.825 -0.5586  0.1907  0.2007
 1015MOL0     C33876   6.598   7.167   9.959  1.4079 -0.2454  0.2662
 1015MOL0     C33877   6.458   7.191   9.998  0.5661  0.3586  0.4215
 1015MOL0     O33878   6.375   7.206   9.895  0.6841 -0.4814 -0.5283
 1015MOL0     C33879   6.241   7.240   9.910  1.7965  0.1806  0.3240
 1015MOL0     C33880   6.166   7.272  10.027 -0.1875  1.1343 -0.0310
 1015MOL0     C33881   6.030   7.304  10.009 -0.1778 -0.0227  0.1012
 1015MOL0     C33882   5.969   7.311   9.881  0.6338  0.6356 -0.2400
 1015MOL0     O33883   5.835   7.346   9.873 -0.2106  0.1594 -1.1880
 1015MOL0     C33884   5.780   7.431   9.975  0.4153  0.6425 -0.0357
 1015MOL0     C33885   5.635   7.474   9.935 -1.0460  0.3285  0.4995
 1015MOL0     C33886   5.549   7.537  10.052 -0.3777 -0.0995 -0.1809
 1015MOL0     C33887   5.419   7.601   9.997  0.3617  0.5339 -0.9667
 1015MOL0     C33888   5.345   7.705  10.095 -0.0918  1.2835  0.7589
 1015MOL0     C33889   5.411   7.834  10.091 -0.0725 -1.6407 -0.0073
 1015MOL0     C33890   5.325   7.948  10.141  0.2889 -0.6113 -0.0958
 1015MOL0     C33891   5.384   8.090  10.111 -0.0380  0.4607 -0.4531
 1015MOL0    Cl33892   5.268   8.212  10.181  0.0698 -0.0563 -0.1065
 1015MOL0     C33893   6.033   7.273   9.768 -0.3628 -0.6229  0.2787
 1015MOL0     C33894   6.173   7.238   9.784  0.5976 -0.6121 -0.8598
 1015MOL0     O33895   6.428   7.196  10.117  1.0886 -0.6374  0.4349
 1015MOL0     C33896   6.692   7.124  10.053  0.2934  1.0367  0.3077
 1015MOL0     C33897   6.826   7.090  10.015 -0.0260 -0.5903  0.6416
 1015MOL0     N33898   7.550   7.020   9.785 -0.6922  0.4700 -0.5779
 1015MOL0     N33899   7.658   6.955   9.812  0.2147 -1.0903 -0.6063
 1015MOL0     C33900   8.761   6.230   9.707  0.2258 -0.7967 -0.1370
 1015MOL0     C33901   8.902   6.238   9.710  0.5395  0.0550 -0.2335
 1015MOL0     C33902   9.335   6.340   9.736  0.3932 -0.0143  0.3221
 1015MOL0     C33903   9.439   6.249   9.719  0.0090 -0.0196  0.0300
 1015MOL0     C33904   9.574   6.295   9.706  0.5962  0.0201  0.6462
 1015MOL0     C33905   9.594   6.431   9.687  1.0099 -0.3151  0.6239
 1015MOL0     O33906   9.713   6.493   9.664 -0.0879 -0.4409 -0.0791
 1015MOL0     C33907   9.825   6.409   9.634 -0.1364 -0.5846 -0.3198
 1015MOL0     C33908   9.947   6.491   9.593 -0.0077 -0.1346  0.2274
 1015MOL0     C33909  10.022   6.549   9.708  0.0321  0.3655 -0.2542
 1015MOL0     C33910  10.116   6.664   9.651  0.2733  0.3276  0.4130
 1015MOL0     C33911  10.230   6.685   9.740  0.3599  0.0313 -0.9595
 1015MOL0     C33912  10.323   6.704   9.816 -0.4105  0.3392 -0.7742
 1015MOL0     C33913   9.492   6.522   9.694  0.4846 -0.3026  0.1299
 1015MOL0     C33914   9.363   6.484   9.727 -0.0157  0.0581 -0.9665
 1015MOL0     H33915   8.929   6.575   9.767  1.1311 -0.3526 -1.1596
 1015MOL0     H33916   8.693   6.559   9.715  0.1925  0.1642  3.2712
 1015MOL0     H33917   8.438   6.515   9.693 -1.7376  1.1235  1.6372
 1015MOL0     H33918   8.519   6.500   9.850 -1.1177  1.7729 -0.4515
 1015MOL0     H33919   8.324   6.386   9.918  0.3203 -0.4038  0.3157
 1015MOL0     H33920   8.330   6.277   9.787 -1.6947  0.0979  2.3031
 1015MOL0     H33921   8.181   6.389   9.658 -2.4573  1.4972  0.1438
 1015MOL0     H33922   8.230   6.554   9.701 -1.8036 -0.0376  1.2827
 1015MOL0     H33923   8.088   6.379   9.895 -0.7033  0.2436  1.4578
 1015MOL0     H33924   8.131   6.550   9.911 -0.4741 -0.8194 -0.3320
 1015MOL0     H33925   7.886   6.484   9.826 -0.6172  2.1820 -2.2352
 1015MOL0     H33926   7.958   6.414   9.680 -1.6616  1.5675 -0.7365
 1015MOL0     H33927   8.038   6.620   9.613  0.1231 -0.0759 -0.4851
 1015MOL0     H33928   8.019   6.698   9.776 -1.9239 -1.2267  2.0424
 1015MOL0     H33929   7.869   6.786   9.622  0.3637  0.5056 -0.6379
 1015MOL0     H33930   7.786   6.630   9.581 -0.2752  0.5441 -0.8218
 1015MOL0     H33931   7.813   6.742   9.870  2.6295 -0.8405 -1.3897
 1015MOL0     H33932   7.689   6.631   9.810 -2.1210  0.2707 -0.8568
 1015MOL0     H33933   7.506   6.730   9.627 -0.7231 -0.8169  0.4529
 1015MOL0     H33934   7.333   6.912   9.553 -1.8216 -0.6402  0.3073
 1015MOL0     H33935   7.357   7.083   9.604 -4.0486  0.7046  1.6321
 1015MOL0     H33936   7.209   6.866   9.762 -2.5798 -0.7271 -3.2169
 1015MOL0     H33937   7.131   6.965   9.657 -0.1141 -1.8682 -1.2572
 1015MOL0     H33938   7.309   7.068   9.891  0.8414  0.5968 -0.9622
 1015MOL0     H33939   7.217   7.173   9.782  1.7482  0.8254 -1.2732
 1015MOL0     H33940   7.109   7.164   9.977 -0.8411 -0.3062 -0.7862
 1015MOL0     H33941   7.111   6.984   9.979  0.3827 -1.0649 -0.6583
 1015MOL0     H33942   6.786   7.141   9.687  1.7717 -2.6404  0.8594
 1015MOL0     H33943   6.556   7.199   9.755 -1.5846  1.5925  1.8503
 1015MOL0     H33944   6.209   7.279  10.126  0.3973  0.2152 -0.2060
 1015MOL0     H33945   5.968   7.316  10.097 -0.1901  0.7086 -0.0081
 1015MOL0     H33946   5.849   7.514   9.994  1.1046 -0.0268  0.4338
 1015MOL0     H33947   5.771   7.369  10.065 -1.4106  0.8487 -0.0415
 1015MOL0     H33948   5.594   7.393   9.875 -0.7512  0.5203  0.0276
 1015MOL0     H33949   5.642   7.558   9.865 -2.4836 -0.4780 -0.6596
 1015MOL0     H33950   5.608   7.606  10.114  0.4799 -0.5649 -0.4580
 1015MOL0     H33951   5.522   7.454  10.119  0.8882 -1.2079 -0.9843
 1015MOL0     H33952   5.436   7.641   9.897 -0.8088 -0.8061 -1.7560
 1015MOL0     H33953   5.349   7.517   9.986  1.6492 -0.8071  0.4520
 1015MOL0     H33954   5.346   7.667  10.197 -2.0635 -2.1829 -0.3367
 1015MOL0     H33955   5.239   7.716  10.068 -1.4374 -3.6832  2.9247
 1015MOL0     H33956   5.451   7.862   9.993  6.4558  0.0720  2.5805
 1015MOL0     H33957   5.506   7.836  10.146  0.3655  0.1914 -0.7473
 1015MOL0     H33958   5.229   7.940  10.090 -0.0039  2.0344 -0.0911
 1015MOL0     H33959   5.303   7.945  10.248 -2.5719  1.4906 -0.4924
 1015MOL0     H33960   5.385   8.103  10.003 -0.0707  0.1975 -0.4833
 1015MOL0     H33961   5.484   8.105  10.154 -0.9942 -0.3083  2.2372
 1015MOL0     H33962   5.968   7.278   9.681 -0.3092  0.4389  0.2890
 1015MOL0     H33963   6.233   7.202   9.701 -0.2098  0.3165 -1.8844
 1015MOL0     H33964   6.661   7.102  10.154 -1.5502  2.4074  0.0904
 1015MOL0     H33965   6.892   7.059  10.095  1.9266 -1.4045 -1.1733
 1015MOL0     H33966   8.717   6.132   9.691  1.0470 -0.8239 -2.9496
 1015MOL0     H33967   8.949   6.143   9.686 -2.0804 -0.9947 -1.6419
 1015MOL0     H33968   9.422   6.142   9.731  1.7365 -0.5609 -1.6774
 1015MOL0     H33969   9.652   6.219   9.704 -2.2457 -3.1049  0.3092
 1015MOL0     H33970   9.796   6.350   9.547 -1.0531 -1.3135  0.4699
 1015MOL0     H33971   9.846   6.321   9.694 -0.4119 -0.7574 -0.4759
 1015MOL0     H33972  10.012   6.439   9.522  0.4274  1.7422 -0.8148
 1015MOL0     H33973   9.904   6.575   9.536  0.8289 -0.2093 -0.5377
 1015MOL0     H33974  10.081   6.474   9.762  1.7342  0.2378 -2.1387
 1015MOL0     H33975   9.935   6.580   9.765 -2.4436 -3.7544 -1.3614
 1015MOL0     H33976  10.154   6.622   9.557  0.2765 -2.1526  1.4578
 1015MOL0     H33977  10.061   6.753   9.617  1.1842  1.7350  2.4501
 1015MOL0     H33978  10.408   6.708   9.882  0.1945  0.4604 -1.5479
 1015MOL0     H33979   9.517   6.624   9.666  0.2649 -0.6653 -1.4726
 1015MOL0     H33980   9.288   6.560   9.744  0.1720 -0.0952  0.6772
 1016MOL0     O33981   4.203  10.294   1.590 -0.6524 -0.1619  0.3822
 1016MOL0     C33982   4.245  10.324   1.479  0.0199 -0.3087  0.0705
 1016MOL0     O33983   4.191  10.413   1.399 -0.2160 -0.0052  0.5189
 1016MOL0     C33984   4.074  10.477   1.413 -0.5395 -0.1450  0.0100
 1016MOL0     C33985   4.023  10.543   1.303  0.1912  0.4732  0.4263
 1016MOL0     C33986   3.915  10.629   1.320  0.5970  0.4246  0.0416
 1016MOL0     C33987   3.834  10.640   1.437 -0.1534 -0.7165 -0.4145
 1016MOL0     O33988   3.734  10.728   1.430 -0.4371  0.1858 -0.3750
 1016MOL0     C33989   3.641  10.717   1.544  0.2438 -0.2021  0.5615
 1016MOL0     C33990   3.509  10.777   1.519  0.0050 -0.4217  0.8109
 1016MOL0     C33991   3.425  10.806   1.647 -1.0349  0.6338  0.2803
 1016MOL0     C33992   3.295  10.867   1.599 -0.1854 -0.6561  0.7730
 1016MOL0     C33993   3.195  10.861   1.715 -0.5306  0.0669  0.2921
 1016MOL0     C33994   3.070  10.946   1.691 -0.3011  0.3305  0.0325
 1016MOL0     C33995   3.102  11.104   1.671 -0.2365 -0.0625 -0.0472
 1016MOL0     C33996   2.963  11.166   1.658  0.5473 -0.3180 -1.2498
 1016MOL0     N33997   2.976  11.303   1.695  0.1786 -1.0243  0.5559
 1016MOL0     C33998   2.986  11.410   1.599  0.5408 -0.5354 -0.1349
 1016MOL0     C33999   3.005  11.520   1.679  1.1590 -0.5785  1.3584
 1016MOL0     C34000   3.019  11.664   1.632 -0.1157  0.4814 -0.0243
 1016MOL0     C34001   2.871  11.704   1.607  0.9356  0.4828 -0.4725
 1016MOL0     C34002   2.869  11.845   1.548 -0.3632 -0.8616 -0.1526
 1016MOL0     C34003   2.741  11.921   1.554  0.1409  0.0849 -0.4656
 1016MOL0     O34004   2.665  11.879   1.668  0.3928 -0.0812  0.6100
 1016MOL0     C34005   2.530  11.907   1.673 -0.0622  0.4960  0.2056
 1016MOL0     C34006   2.462  11.854   1.784 -0.2392  0.0142  0.0149
 1016MOL0     C34007   2.322  11.881   1.798 -0.7803  0.8522 -0.1093
 1016MOL0     C34008   2.252  11.947   1.702 -0.3030 -0.6410  0.6623
 1016MOL0     C34009   2.103  11.962   1.717  0.5065  0.0774 -0.2849
 1016MOL0     O34010   2.031  11.884   1.802  0.6208 -0.5293 -0.1951
 1016MOL0     C34011   1.892  11.901   1.795  0.1662  0.0160  0.3468
 1016MOL0     C34012   1.817  11.827   1.709 -0.5719  0.5886  0.5821
 1016MOL0     C34013   1.681  11.852   1.698 -0.1113 -0.0961 -0.3023
 1016MOL0     C34014   1.609  11.959   1.768 -0.3807 -0.1520 -0.0492
 1016MOL0     O34015   1.470  11.981   1.762  0.1509  0.2280  0.6237
 1016MOL0     C34016   1.411  11.926   1.646 -0.5720 -0.1327 -0.3915
 1016MOL0     C34017   1.265  11.980   1.647 -0.1840 -0.3715 -0.3716
 1016MOL0     C34018   1.183  11.939   1.521  0.7224  0.6251 -0.4540
 1016MOL0     C34019   1.029  11.966   1.529 -0.5585 -0.2677 -0.4995
 1016MOL0     C34020   0.940  11.848   1.485  0.5212  0.5424 -0.1294
 1016MOL0     C34021   0.799  11.852   1.535  0.2685  0.2601 -0.1914
 1016MOL0     C34022   0.771  11.862   1.688 -0.5898  0.5454 -0.0989
 1016MOL0     C34023   0.622  11.826   1.715 -0.3901  0.1941  0.3105
 1016MOL0    Cl34024   0.509  11.926   1.623 -0.5632  0.4463 -0.0253
 1016MOL0     C34025   1.683  12.023   1.863 -0.0026 -0.3531  0.3082
 1016MOL0     C34026   1.822  11.994   1.877 -0.7524  0.5701  0.7752
 1016MOL0     O34027   2.045  12.043   1.646  0.2193 -0.8173  0.1964
 1016MOL0     C34028   2.320  11.991   1.583  0.0737 -0.0939 -0.6701
 1016MOL0     C34029   2.458  11.971   1.573  0.5222 -0.2372 -0.1614
 1016MOL0     N34030   2.993  11.480   1.812 -0.0718  0.2258 -0.2085
 1016MOL0     N34031   2.984  11.353   1.822 -0.5461  0.2743 -0.2924
 1016MOL0     C34032   3.878  10.561   1.551 -0.0027  0.7198 -0.1792
 1016MOL0     C34033   3.999  10.482   1.538  0.1836 -0.3428 -0.3434
 1016MOL0     C34034   4.383  10.281   1.462 -0.3843  0.2688  0.5926
 1016MOL0     C34035   4.433  10.298   1.333 -0.3726 -0.0471 -0.6960
 1016MOL0     C34036   4.572  10.270   1.306 -0.6297 -0.4813  0.2621
 1016MOL0     C34037   4.657  10.214   1.403 -0.8527 -0.5256 -0.1784
 1016MOL0     O34038   4.793  10.199   1.390 -0.6416  0.2141 -0.1758
 1016MOL0     C34039   4.857  10.180   1.262 -0.7517  0.5796  0.3866
 1016MOL0     C34040   4.807  10.061   1.176 -0.4229 -0.4124  0.4402
 1016MOL0     C34041   4.902  10.051   1.052 -0.1970 -0.3595 -0.1319
 1016MOL0     C34042   4.953   9.910   1.034  0.6261 -0.3290  0.5262
 1016MOL0     C34043   5.073   9.915   0.958 -0.2790  0.2289 -0.3661
 1016MOL0     C34044   5.177   9.909   0.903 -0.6548  0.5071  0.2269
 1016MOL0     C34045   4.600  10.197   1.528  0.0745 -0.1030  0.0864
 1016MOL0     C34046   4.468  10.238   1.563  0.3384 -0.3453 -0.3552
 1016MOL0     H34047   4.068  10.525   1.205  0.7833 -0.2007  0.8143
 1016MOL0     H34048   3.881  10.690   1.237  2.4106  1.9628  0.3786
 1016MOL0     H34049   3.687  10.759   1.634 -1.1775  3.3440 -0.1974
 1016MOL0     H34050   3.619  10.610   1.555 -2.6144  0.3204  0.7388
 1016MOL0     H34051   3.449  10.715   1.452 -2.0930  2.8255 -0.5658
 1016MOL0     H34052   3.540  10.867   1.464  0.2524 -1.3541 -0.6248
 1016MOL0     H34053   3.477  10.867   1.722 -0.8079 -0.9691  1.4888
 1016MOL0     H34054   3.404  10.707   1.687  0.8141  0.7462  1.6849
 1016MOL0     H34055   3.320  10.972   1.577  0.5959 -0.7644  1.1227
 1016MOL0     H34056   3.260  10.819   1.507 -0.5993 -0.1749  0.6700
 1016MOL0     H34057   3.238  10.908   1.805  0.1239  0.2254 -0.0956
 1016MOL0     H34058   3.172  10.756   1.734 -1.9205  0.3214  0.1336
 1016MOL0     H34059   3.001  10.934   1.776  1.9771  0.7057  2.0496
 1016MOL0     H34060   3.020  10.912   1.600  1.0042  0.9580 -0.9541
 1016MOL0     H34061   3.161  11.146   1.753  3.6980  1.4290 -3.2702
 1016MOL0     H34062   3.159  11.125   1.580 -0.5360 -0.8763 -0.4312
 1016MOL0     H34063   2.887  11.111   1.714 -0.5231 -0.0570 -2.3856
 1016MOL0     H34064   2.928  11.151   1.555  0.7838 -0.4976 -1.3043
 1016MOL0     H34065   2.991  11.403   1.491  3.3053  2.1351 -0.2933
 1016MOL0     H34066   3.073  11.662   1.537  0.9042  0.7212  0.5356
 1016MOL0     H34067   3.062  11.724   1.713  1.7870 -0.2911 -0.4098
 1016MOL0     H34068   2.817  11.685   1.700  0.5167 -1.4102 -1.0679
 1016MOL0     H34069   2.830  11.647   1.524  0.9580  1.4950 -1.2063
 1016MOL0     H34070   2.947  11.910   1.591 -0.7484  3.2588 -4.8142
 1016MOL0     H34071   2.903  11.834   1.445 -3.5998 -2.0872 -1.2013
 1016MOL0     H34072   2.693  11.910   1.457  1.2325  0.7569 -1.1058
 1016MOL0     H34073   2.762  12.028   1.569 -1.2177  0.3277 -0.2022
 1016MOL0     H34074   2.512  11.793   1.858 -2.4759 -1.6785  0.2449
 1016MOL0     H34075   2.273  11.850   1.890 -0.2091 -1.9094 -0.6347
 1016MOL0     H34076   1.859  11.747   1.649 -0.6933  2.6043 -2.3661
 1016MOL0     H34077   1.626  11.776   1.643 -0.7760 -0.2995  0.6251
 1016MOL0     H34078   1.425  11.817   1.651  2.8405  0.0525 -2.3372
 1016MOL0     H34079   1.468  11.962   1.560  2.5351  1.2611  2.0408
 1016MOL0     H34080   1.269  12.089   1.656  2.9226 -0.5343  1.9853
 1016MOL0     H34081   1.213  11.935   1.732 -0.5647  2.8035  1.2320
 1016MOL0     H34082   1.188  11.833   1.495  0.2789  0.8401 -1.4647
 1016MOL0     H34083   1.232  11.999   1.444  3.5258  4.2091  3.6152
 1016MOL0     H34084   1.000  11.998   1.629  0.7538  0.2850 -0.2777
 1016MOL0     H34085   1.014  12.051   1.462 -0.7695 -1.2663 -1.7641
 1016MOL0     H34086   0.986  11.757   1.524 -1.2131  0.0712  0.8704
 1016MOL0     H34087   0.949  11.835   1.376 -0.7227  0.8176 -0.2727
 1016MOL0     H34088   0.744  11.760   1.516 -1.5068  1.1224  0.5218
 1016MOL0     H34089   0.747  11.938   1.490 -2.1801 -0.4073  1.1608
 1016MOL0     H34090   0.833  11.792   1.745 -0.6008 -0.5406 -1.3842
 1016MOL0     H34091   0.787  11.962   1.730  2.1249 -0.1384  0.6701
 1016MOL0     H34092   0.605  11.846   1.821  2.2120  2.3059  0.4162
 1016MOL0     H34093   0.602  11.720   1.695  1.5328 -0.5796  2.1974
 1016MOL0     H34094   1.634  12.084   1.939 -0.4956  1.0001 -1.0218
 1016MOL0     H34095   1.884  12.050   1.947 -0.7034 -1.4302  2.4228
 1016MOL0     H34096   2.255  12.035   1.507  0.4057  0.7445 -0.4857
 1016MOL0     H34097   2.497  12.013   1.481  0.3558 -2.1771 -1.1707
 1016MOL0     H34098   3.834  10.567   1.650  2.0186  1.4609  0.7368
 1016MOL0     H34099   4.034  10.435   1.629 -0.4665 -2.2324 -1.0213
 1016MOL0     H34100   4.370  10.320   1.248  0.6372  1.4255 -1.1071
 1016MOL0     H34101   4.607  10.292   1.206  0.4164 -0.1243  0.6865
 1016MOL0     H34102   4.960  10.161   1.292 -0.2422  0.5854 -1.2817
 1016MOL0     H34103   4.854  10.269   1.198 -0.3485  1.8481  2.0758
 1016MOL0     H34104   4.799   9.975   1.242 -3.8175 -0.6464 -0.1084
 1016MOL0     H34105   4.702  10.075   1.151 -0.3392  1.1286  0.8383
 1016MOL0     H34106   4.981  10.127   1.052  0.3707 -0.8002  3.4912
 1016MOL0     H34107   4.844  10.080   0.963  0.4771 -0.7429 -0.7085
 1016MOL0     H34108   4.983   9.872   1.131 -1.4537 -3.4730  0.0994
 1016MOL0     H34109   4.878   9.840   0.994  1.9601 -1.3917 -0.1904
 1016MOL0     H34110   5.273   9.917   0.854  0.3867 -1.0270  1.8978
 1016MOL0     H34111   4.660  10.168   1.614  1.1488  0.7599 -0.3452
 1016MOL0     H34112   4.434  10.243   1.666 -0.9218 -0.2110 -0.7497
 1017MOL0     O34113   0.293   8.068   8.573 -0.4473  0.2780  0.3194
 1017MOL0     C34114   0.399   8.136   8.576  0.6500 -0.4385  0.8401
 1017MOL0     O34115   0.435   8.236   8.485 -0.8747  0.5553 -0.0171
 1017MOL0     C34116   0.343   8.273   8.385  0.6857  0.2257  0.7417
 1017MOL0     C34117   0.248   8.194   8.320 -0.3439  0.1551  0.5703
 1017MOL0     C34118   0.167   8.253   8.218  0.0020 -0.0875 -0.2090
 1017MOL0     C34119   0.179   8.383   8.177  0.0420  1.0689 -0.2516
 1017MOL0     O34120   0.100   8.448   8.091 -0.3625 -0.3925 -0.5231
 1017MOL0     C34121   0.130   8.398   7.963  0.1154  0.6128  0.4555
 1017MOL0     C34122   0.058   8.477   7.852  0.3210  0.3502 -0.0454
 1017MOL0     C34123  -0.102   8.475   7.860 -0.1046 -0.6832  0.0031
 1017MOL0     C34124  -0.174   8.543   7.748  1.0272 -0.9491 -0.3232
 1017MOL0     C34125  -0.323   8.519   7.767  0.1282  0.0682  0.0050
 1017MOL0     C34126  -0.407   8.561   7.639 -0.0064 -0.4317 -0.9216
 1017MOL0     C34127  -0.555   8.572   7.659  0.8445 -0.2704 -0.3612
 1017MOL0     C34128  -0.615   8.435   7.709 -0.3610 -0.1461 -0.1689
 1017MOL0     N34129  -0.761   8.450   7.743  0.1442 -0.4688  0.0228
 1017MOL0     C34130  -0.849   8.345   7.751 -0.2679  0.1602  0.0692
 1017MOL0     C34131  -0.963   8.398   7.795  0.5896 -0.7384 -0.8536
 1017MOL0     C34132  -1.085   8.326   7.827 -0.0979  0.4895  0.2151
 1017MOL0     C34133  -1.094   8.303   7.978  0.7140  0.0883  0.0602
 1017MOL0     C34134  -1.203   8.204   8.013  0.6851  0.0451 -0.1958
 1017MOL0     C34135  -1.339   8.265   8.035 -0.3793 -0.2236 -0.5288
 1017MOL0     O34136  -1.415   8.265   7.912  0.6638  0.6000 -0.8707
 1017MOL0     C34137  -1.549   8.285   7.912 -0.5538 -1.0547  0.2819
 1017MOL0     C34138  -1.621   8.318   8.030  0.1084  0.0872 -0.2276
 1017MOL0     C34139  -1.758   8.329   8.022 -0.0055 -0.3384 -0.3905
 1017MOL0     C34140  -1.830   8.306   7.908 -0.0397  0.1093  0.5533
 1017MOL0     C34141  -1.974   8.301   7.915 -0.0457  0.2502  0.6502
 1017MOL0     O34142  -2.031   8.196   7.851  0.0817  0.1893  0.2931
 1017MOL0     C34143  -2.166   8.177   7.825 -0.4174 -0.4998 -0.4564
 1017MOL0     C34144  -2.254   8.284   7.814  0.1478  0.6274 -0.7246
 1017MOL0     C34145  -2.392   8.264   7.807  0.4690  0.3847 -1.0468
 1017MOL0     C34146  -2.446   8.135   7.790  0.1224 -0.3821  0.1479
 1017MOL0     O34147  -2.588   8.123   7.771 -1.0871 -0.1763  0.1874
 1017MOL0     C34148  -2.644   7.997   7.809  0.3378  0.7173 -0.0987
 1017MOL0     C34149  -2.798   8.003   7.795  0.5055 -0.5818 -0.0004
 1017MOL0     C34150  -2.872   7.863   7.812 -0.1501  0.5644  0.1001
 1017MOL0     C34151  -3.025   7.870   7.780  0.6890  0.6323 -0.6023
 1017MOL0     C34152  -3.082   7.726   7.770  0.3982 -0.2367  0.2492
 1017MOL0     C34153  -3.237   7.725   7.773 -0.0587 -0.0668  0.3718
 1017MOL0     C34154  -3.296   7.586   7.764 -0.2260 -0.1655  0.2041
 1017MOL0     C34155  -3.260   7.494   7.884 -0.4658  0.0364  0.9841
 1017MOL0    Cl34156  -3.370   7.533   8.015  0.2896  0.1709 -0.0034
 1017MOL0     C34157  -2.354   8.032   7.793 -0.0360 -0.0386 -0.8691
 1017MOL0     C34158  -2.217   8.048   7.817 -0.5645  0.5622  0.6238
 1017MOL0     O34159  -2.028   8.392   7.976 -0.3521  0.1735 -0.1136
 1017MOL0     C34160  -1.756   8.273   7.797  0.3052  0.5387  0.1384
 1017MOL0     C34161  -1.619   8.267   7.794 -0.6918 -0.8452 -0.0851
 1017MOL0     N34162  -0.944   8.531   7.813  0.1765 -0.0300  0.2347
 1017MOL0     N34163  -0.821   8.561   7.787 -1.0367  0.2374 -0.4045
 1017MOL0     C34164   0.282   8.450   8.236  0.3375 -0.7613  0.1554
 1017MOL0     C34165   0.361   8.398   8.336 -0.3156  0.0126 -0.1702
 1017MOL0     C34166   0.494   8.084   8.662 -1.2015  0.0447  0.2507
 1017MOL0     C34167   0.456   8.033   8.787 -0.4250 -0.7079  0.0872
 1017MOL0     C34168   0.560   7.980   8.872  0.0795 -0.1970  0.1718
 1017MOL0     C34169   0.696   7.989   8.849 -0.0780 -0.5445 -0.6442
 1017MOL0     O34170   0.783   7.943   8.935 -0.7173 -0.4926 -0.7463
 1017MOL0     C34171   0.921   7.992   8.916  0.8322  0.7522 -0.0598
 1017MOL0     C34172   1.004   7.968   9.036 -1.0802  0.1773 -1.1173
 1017MOL0     C34173   1.149   8.023   9.015  0.0622 -0.2593  0.0580
 1017MOL0     C34174   1.252   7.961   9.108  0.0919  0.1206 -0.0155
 1017MOL0     C34175   1.368   8.050   9.095 -0.9364 -0.8524  0.5689
 1017MOL0     C34176   1.459   8.128   9.071 -0.4678 -0.6299  0.0437
 1017MOL0     C34177   0.725   8.045   8.724  0.1131 -0.6546 -0.2678
 1017MOL0     C34178   0.627   8.096   8.630 -0.3045  0.4717  0.5889
 1017MOL0     H34179   0.229   8.088   8.337 -2.5726  0.1337 -1.6208
 1017MOL0     H34180   0.080   8.200   8.179  1.1986 -1.4967 -1.0891
 1017MOL0     H34181   0.103   8.292   7.959 -0.7953  0.6321  3.4538
 1017MOL0     H34182   0.234   8.407   7.931 -0.3447 -0.8812 -1.7049
 1017MOL0     H34183   0.084   8.438   7.753  1.9384  0.9607  0.1062
 1017MOL0     H34184   0.080   8.584   7.864 -1.9056  0.6209  2.5716
 1017MOL0     H34185  -0.127   8.540   7.945 -1.3345 -0.2732 -0.6623
 1017MOL0     H34186  -0.134   8.374   7.887  0.7968 -1.0840 -0.3688
 1017MOL0     H34187  -0.152   8.650   7.740  2.2348 -1.1493  0.1209
 1017MOL0     H34188  -0.138   8.506   7.651  0.7468  0.5456 -1.0279
 1017MOL0     H34189  -0.365   8.567   7.856  1.0048  2.1382 -0.6458
 1017MOL0     H34190  -0.352   8.414   7.774 -2.9124  0.4280 -3.9288
 1017MOL0     H34191  -0.379   8.486   7.564  0.5990 -2.2869  1.0765
 1017MOL0     H34192  -0.374   8.660   7.604 -4.7951  1.7193 -0.2502
 1017MOL0     H34193  -0.577   8.642   7.740  2.4429 -3.0705  2.7281
 1017MOL0     H34194  -0.606   8.604   7.567  1.8408 -0.7742 -1.1190
 1017MOL0     H34195  -0.570   8.389   7.798 -0.2039  0.2087 -0.0622
 1017MOL0     H34196  -0.600   8.355   7.636  0.9337 -0.7424  0.6985
 1017MOL0     H34197  -0.825   8.239   7.741 -1.0575  0.0824 -1.3302
 1017MOL0     H34198  -1.078   8.233   7.770  1.8307  1.1446 -0.6847
 1017MOL0     H34199  -1.171   8.387   7.797 -3.0472 -3.9754 -1.3033
 1017MOL0     H34200  -1.102   8.402   8.021 -2.8499  1.3817 -2.9512
 1017MOL0     H34201  -1.002   8.253   8.010  1.3892  2.1261  1.4220
 1017MOL0     H34202  -1.209   8.129   7.934  0.2037  0.2271 -0.3315
 1017MOL0     H34203  -1.178   8.147   8.103  1.3176 -3.7100 -2.4968
 1017MOL0     H34204  -1.336   8.370   8.066  0.8149 -0.1751 -0.7807
 1017MOL0     H34205  -1.380   8.207   8.119  2.2274  0.4617  1.3336
 1017MOL0     H34206  -1.568   8.345   8.120  0.8687  1.1619 -0.9785
 1017MOL0     H34207  -1.820   8.362   8.104  1.1903 -3.9543  2.2387
 1017MOL0     H34208  -2.224   8.388   7.825 -0.7914  0.8565 -0.2641
 1017MOL0     H34209  -2.465   8.344   7.809 -0.8058 -0.7549 -0.1529
 1017MOL0     H34210  -2.629   7.980   7.916 -0.3534 -1.3588 -0.2877
 1017MOL0     H34211  -2.607   7.917   7.744  0.6483 -1.3457  2.4714
 1017MOL0     H34212  -2.830   8.042   7.698  0.4513 -0.1470  0.1876
 1017MOL0     H34213  -2.841   8.079   7.860  0.7006 -1.6026  1.3657
 1017MOL0     H34214  -2.862   7.835   7.917 -0.9956  0.7503  0.2409
 1017MOL0     H34215  -2.823   7.795   7.743 -0.5865  1.6443 -1.3198
 1017MOL0     H34216  -3.077   7.932   7.853  0.8506 -1.1667  1.1312
 1017MOL0     H34217  -3.049   7.921   7.686 -0.1550  0.0751 -0.7008
 1017MOL0     H34218  -3.045   7.659   7.848 -2.2119 -0.6852  1.1876
 1017MOL0     H34219  -3.049   7.682   7.675 -1.9909 -0.1645 -0.6802
 1017MOL0     H34220  -3.278   7.779   7.687 -1.8471 -0.8561  0.6920
 1017MOL0     H34221  -3.273   7.769   7.866 -0.8749 -2.3353  1.1898
 1017MOL0     H34222  -3.403   7.602   7.748 -0.1778 -0.8259 -0.8477
 1017MOL0     H34223  -3.267   7.531   7.674 -0.6349 -1.2552  0.7159
 1017MOL0     H34224  -3.157   7.497   7.920  0.2413 -0.4940 -0.8775
 1017MOL0     H34225  -3.279   7.391   7.853  1.0446  0.1063 -0.3386
 1017MOL0     H34226  -2.390   7.931   7.776 -1.2278  0.1215  0.4697
 1017MOL0     H34227  -2.154   7.960   7.817 -0.7331  0.4199 -0.9636
 1017MOL0     H34228  -1.800   8.230   7.708 -0.8336  3.0220 -0.6026
 1017MOL0     H34229  -1.575   8.247   7.697 -0.9423  0.9744 -0.6097
 1017MOL0     H34230   0.297   8.554   8.207 -2.3499 -0.9567 -2.3970
 1017MOL0     H34231   0.441   8.458   8.377 -0.4834  0.5901 -0.6815
 1017MOL0     H34232   0.357   8.030   8.831 -0.1814  1.8088  0.9957
 1017MOL0     H34233   0.532   7.944   8.970 -1.4515  1.7437  0.5293
 1017MOL0     H34234   0.925   8.096   8.882  2.6295  1.2415  1.4465
 1017MOL0     H34235   0.964   7.945   8.827  0.2800  2.3821 -1.2249
 1017MOL0     H34236   0.963   8.032   9.114  0.8154  2.0518 -1.5709
 1017MOL0     H34237   1.000   7.862   9.064  0.5092  0.1689 -0.8179
 1017MOL0     H34238   1.139   8.131   9.031 -3.1144 -0.3656 -0.5473
 1017MOL0     H34239   1.179   8.010   8.911 -0.5198 -1.6786  0.0424
 1017MOL0     H34240   1.225   7.973   9.213 -2.3009  2.0302 -0.7587
 1017MOL0     H34241   1.281   7.856   9.095 -1.0111 -0.5720  2.5431
 1017MOL0     H34242   1.546   8.188   9.059 -1.2895  0.4147 -0.9379
 1017MOL0     H34243   0.826   8.049   8.683 -0.6607  2.0766 -2.2185
 1017MOL0     H34244   0.650   8.122   8.528  0.3223 -1.3976  0.2214
 1018MOL0     O34245   5.442   1.691   2.164 -0.5879  0.2315  0.2522
 1018MOL0     C34246   5.483   1.599   2.092 -0.6832 -0.4527  0.3477
 1018MOL0     O34247   5.413   1.491   2.039  0.5597 -0.3166  0.0700
 1018MOL0     C34248   5.272   1.490   2.051  0.2745  0.6094  0.4835
 1018MOL0     C34249   5.215   1.365   2.083  0.7303  0.4855  0.3223
 1018MOL0     C34250   5.076   1.359   2.102  0.9451  0.6708 -1.3093
 1018MOL0     C34251   4.993   1.474   2.090  0.5448  0.2016 -0.4156
 1018MOL0     O34252   4.860   1.478   2.103  0.7596  0.0066  0.3981
 1018MOL0     C34253   4.783   1.356   2.140 -0.1088 -0.0915 -0.0686
 1018MOL0     C34254   4.645   1.400   2.190  0.3895 -0.6242  0.6610
 1018MOL0     C34255   4.572   1.288   2.260  1.2402 -0.1172 -0.5952
 1018MOL0     C34256   4.419   1.315   2.292 -0.2299  0.3804 -0.2340
 1018MOL0     C34257   4.342   1.386   2.176  0.2535 -0.1079 -0.9726
 1018MOL0     C34258   4.334   1.310   2.043 -0.3316  1.0136  0.8014
 1018MOL0     C34259   4.254   1.175   2.043 -0.3358  0.5765 -0.2893
 1018MOL0     C34260   4.290   1.097   1.919 -0.1760  0.7515  0.4995
 1018MOL0     N34261   4.217   0.973   1.907 -0.6055 -0.2114 -0.6150
 1018MOL0     C34262   4.222   0.872   2.001  0.0070 -0.5709 -0.4190
 1018MOL0     C34263   4.109   0.796   1.984 -0.0451  1.3706 -0.1074
 1018MOL0     C34264   4.073   0.676   2.077  1.1875  0.3966  0.2235
 1018MOL0     C34265   3.927   0.703   2.121 -0.3821  0.1833  0.4503
 1018MOL0     C34266   3.901   0.668   2.273 -0.1642  0.1716 -0.4000
 1018MOL0     C34267   3.756   0.689   2.305 -0.5137  0.1129 -0.3219
 1018MOL0     O34268   3.733   0.831   2.304 -0.2178 -0.2763  0.6397
 1018MOL0     C34269   3.602   0.865   2.335  0.9032 -0.3436 -0.1930
 1018MOL0     C34270   3.548   0.855   2.461  0.0893  0.5403  0.0523
 1018MOL0     C34271   3.411   0.892   2.488 -0.5176  0.9168  0.7804
 1018MOL0     C34272   3.322   0.928   2.374 -0.6119  0.5121  0.5813
 1018MOL0     C34273   3.173   0.946   2.392  0.5643  0.5796  0.7706
 1018MOL0     O34274   3.119   0.925   2.510 -0.6950 -0.2876  0.2737
 1018MOL0     C34275   2.998   0.987   2.536 -0.1578  0.1187  0.4145
 1018MOL0     C34276   2.870   0.946   2.509  0.8224  0.0991  0.2216
 1018MOL0     C34277   2.757   1.029   2.526  0.2665 -0.6782 -0.1067
 1018MOL0     C34278   2.771   1.157   2.569 -0.6272  0.3232  0.2406
 1018MOL0     O34279   2.662   1.236   2.568 -0.3536 -0.0088  0.2405
 1018MOL0     C34280   2.653   1.341   2.667  0.1508  0.4129  0.5940
 1018MOL0     C34281   2.515   1.401   2.641  0.3987 -0.5630  0.0086
 1018MOL0     C34282   2.469   1.482   2.758  0.1200 -0.0757  0.3133
 1018MOL0     C34283   2.320   1.505   2.739  0.8001 -0.0529 -0.5162
 1018MOL0     C34284   2.268   1.586   2.858  0.1627  0.1525  0.3151
 1018MOL0     C34285   2.125   1.620   2.851  0.8604  0.3791 -0.1557
 1018MOL0     C34286   2.068   1.697   2.973  0.1595 -0.3596 -0.0146
 1018MOL0     C34287   1.917   1.699   2.959 -0.0890  0.1190  0.3459
 1018MOL0    Cl34288   1.837   1.800   3.071  0.0001  0.5363 -0.2279
 1018MOL0     C34289   2.898   1.200   2.610 -0.0640 -0.2384  0.2294
 1018MOL0     C34290   3.009   1.113   2.599  0.0493 -0.5338 -0.1511
 1018MOL0     O34291   3.109   0.979   2.292 -0.1012  0.2851 -0.4916
 1018MOL0     C34292   3.385   0.935   2.243  0.3912 -0.0613 -0.1738
 1018MOL0     C34293   3.520   0.909   2.227 -1.1829  0.6694 -0.6941
 1018MOL0     N34294   4.051   0.850   1.872  0.0499 -0.0166  0.5153
 1018MOL0     N34295   4.106   0.958   1.823 -0.3229  0.0224 -0.3403
 1018MOL0     C34296   5.052   1.594   2.048  0.5538 -0.7015  1.2257
 1018MOL0     C34297   5.189   1.600   2.032  0.3581 -0.7876  0.1638
 1018MOL0     C34298   5.628   1.587   2.057 -0.8965 -0.0321 -0.2081
 1018MOL0     C34299   5.692   1.468   2.011 -0.1105 -0.4907  0.4957
 1018MOL0     C34300   5.827   1.468   1.964  0.4184 -0.4560  1.2940
 1018MOL0     C34301   5.906   1.584   1.979  0.1120 -0.6102 -0.0558
 1018MOL0     O34302   6.039   1.607   1.948  0.4986  0.1801  0.0576
 1018MOL0     C34303   6.109   1.507   1.880  0.6556  0.2083  0.2472
 1018MOL0     C34304   6.262   1.541   1.876 -0.0713  0.3440 -0.0186
 1018MOL0     C34305   6.289   1.674   1.801 -0.4495 -0.2133  0.0425
 1018MOL0     C34306   6.440   1.702   1.789  0.2903 -0.6711  0.2443
 1018MOL0     C34307   6.493   1.739   1.916 -0.0994 -0.9942 -0.7235
 1018MOL0     C34308   6.542   1.791   2.014  0.5001 -0.1824 -0.5072
 1018MOL0     C34309   5.849   1.692   2.042 -0.4468 -0.6763  0.3152
 1018MOL0     C34310   5.719   1.695   2.080  1.3001  0.3894  0.1535
 1018MOL0     H34311   5.271   1.272   2.090  2.8678  1.3221 -3.2482
 1018MOL0     H34312   5.027   1.268   2.134  3.5544 -0.3983 -0.0079
 1018MOL0     H34313   4.829   1.304   2.224  4.1687  3.0487 -0.1532
 1018MOL0     H34314   4.767   1.281   2.062  0.7893  0.9799 -1.3350
 1018MOL0     H34315   4.600   1.445   2.101  0.8455 -0.6291  0.4292
 1018MOL0     H34316   4.656   1.479   2.265  0.0733 -0.0006  0.0634
 1018MOL0     H34317   4.626   1.253   2.349  0.3173 -2.0632 -0.7333
 1018MOL0     H34318   4.582   1.201   2.195  0.9727 -1.7824  1.4728
 1018MOL0     H34319   4.366   1.226   2.327 -0.6867  0.4112 -0.8208
 1018MOL0     H34320   4.420   1.383   2.378  2.8874  0.9070 -0.5708
 1018MOL0     H34321   4.388   1.484   2.164  0.4904 -0.1534 -0.4489
 1018MOL0     H34322   4.238   1.406   2.202 -0.3228 -1.3415 -2.2242
 1018MOL0     H34323   4.434   1.302   2.000 -0.7871  1.3739 -0.3737
 1018MOL0     H34324   4.278   1.366   1.967  0.1992  2.6967  1.6062
 1018MOL0     H34325   4.275   1.116   2.132 -1.0447  3.2899  1.8272
 1018MOL0     H34326   4.146   1.193   2.040 -0.6530 -1.2647 -3.1141
 1018MOL0     H34327   4.396   1.070   1.923  0.7500  3.5626 -1.6310
 1018MOL0     H34328   4.274   1.152   1.826 -0.4156 -0.4286 -0.1831
 1018MOL0     H34329   4.299   0.857   2.076 -0.4006 -1.9674 -0.2512
 1018MOL0     H34330   4.136   0.670   2.166  0.2982 -0.7090  0.7977
 1018MOL0     H34331   4.073   0.590   2.010 -1.9814 -0.0086  0.5895
 1018MOL0     H34332   3.856   0.641   2.066  1.4735 -4.5810  2.8470
 1018MOL0     H34333   3.906   0.810   2.109  1.7303  0.7236  1.2390
 1018MOL0     H34334   3.930   0.566   2.300 -1.4447 -0.0778  0.1115
 1018MOL0     H34335   3.968   0.732   2.333 -2.8092  1.1710  1.7150
 1018MOL0     H34336   3.736   0.659   2.408 -2.3561  1.5333 -0.2054
 1018MOL0     H34337   3.689   0.633   2.238  1.0685 -1.1809 -0.8928
 1018MOL0     H34338   3.614   0.830   2.544 -1.2575 -1.3733  0.6175
 1018MOL0     H34339   3.379   0.899   2.591 -0.9176  0.1418  0.7176
 1018MOL0     H34340   2.843   0.851   2.466 -0.1052 -0.2516  1.5354
 1018MOL0     H34341   2.659   0.985   2.507  1.3209 -2.8758 -0.7937
 1018MOL0     H34342   2.726   1.422   2.658 -1.4370  1.6571 -2.5402
 1018MOL0     H34343   2.659   1.299   2.768  2.3805 -0.0212  0.3357
 1018MOL0     H34344   2.439   1.323   2.631  0.2410 -0.4515  0.3130
 1018MOL0     H34345   2.518   1.462   2.551 -1.8214  1.7656  1.3693
 1018MOL0     H34346   2.516   1.579   2.780 -0.3125 -0.2351  2.0801
 1018MOL0     H34347   2.475   1.423   2.850 -0.0190 -0.6420 -0.0412
 1018MOL0     H34348   2.304   1.576   2.657 -1.3405  1.9852  1.4932
 1018MOL0     H34349   2.268   1.410   2.723 -0.9584  1.1970 -2.8699
 1018MOL0     H34350   2.339   1.669   2.864  1.3002 -0.7138 -0.5468
 1018MOL0     H34351   2.290   1.527   2.948 -2.5689  0.0650  0.9974
 1018MOL0     H34352   2.076   1.523   2.851 -1.9305  1.6900 -0.6585
 1018MOL0     H34353   2.089   1.663   2.757  1.1502 -0.3223 -0.5982
 1018MOL0     H34354   2.096   1.644   3.064  1.1642  1.2214  0.6343
 1018MOL0     H34355   2.121   1.793   2.966  2.9705 -1.6690  1.4285
 1018MOL0     H34356   1.880   1.596   2.951  1.0396 -0.1411 -3.3053
 1018MOL0     H34357   1.901   1.738   2.858  0.8470  0.3686  0.2918
 1018MOL0     H34358   2.915   1.300   2.650  1.7347 -0.2600 -0.4321
 1018MOL0     H34359   3.103   1.158   2.628 -0.3430 -0.5447  1.2206
 1018MOL0     H34360   3.316   0.965   2.164  1.2943  1.4094 -0.4293
 1018MOL0     H34361   3.568   0.923   2.131 -1.5345  3.0606 -0.6006
 1018MOL0     H34362   4.985   1.680   2.049 -1.5511 -2.2674  1.1681
 1018MOL0     H34363   5.234   1.696   2.007  2.9552 -1.4321  2.0288
 1018MOL0     H34364   5.634   1.377   2.016 -0.0426 -0.4900  1.4458
 1018MOL0     H34365   5.860   1.371   1.929 -0.1824 -0.2653  0.1393
 1018MOL0     H34366   6.075   1.505   1.776  1.9938 -5.2577 -0.3791
 1018MOL0     H34367   6.092   1.403   1.907  2.8880 -0.6925 -1.4923
 1018MOL0     H34368   6.299   1.548   1.978  2.3977 -2.2705 -0.6046
 1018MOL0     H34369   6.314   1.457   1.828  0.5476  0.5841  0.2274
 1018MOL0     H34370   6.233   1.757   1.847 -1.1113  0.6210 -2.1277
 1018MOL0     H34371   6.254   1.660   1.698  0.5671 -2.5669 -0.0411
 1018MOL0     H34372   6.505   1.626   1.746  0.9165 -0.2298  0.3890
 1018MOL0     H34373   6.463   1.790   1.727  3.3102 -0.5936  1.2954
 1018MOL0     H34374   6.582   1.842   2.100 -0.1012 -2.5511  1.3150
 1018MOL0     H34375   5.907   1.782   2.056  0.6689 -1.0889 -1.3722
 1018MOL0     H34376   5.673   1.782   2.125 -0.7255 -0.5514  0.0187
 1019MOL0     O34377   4.119   1.095  10.582  0.5141  0.7711 -0.4570
 1019MOL0     C34378   4.060   1.150  10.675 -0.1636  0.3463  0.5164
 1019MOL0     O34379   3.980   1.089  10.762  0.3103  0.3748 -0.6307
 1019MOL0     C34380   3.945   0.961  10.737 -0.1935  0.3322  0.0813
 1019MOL0     C34381   3.869   0.924  10.628  0.2124  0.6614 -0.5872
 1019MOL0     C34382   3.813   0.797  10.634 -0.0821  0.8580  0.4006
 1019MOL0     C34383   3.863   0.695  10.720 -0.3934 -0.3526 -0.7006
 1019MOL0     O34384   3.812   0.567  10.729 -0.7606 -0.5028  0.3299
 1019MOL0     C34385   3.787   0.507  10.599 -0.5946  0.0379 -0.0387
 1019MOL0     C34386   3.749   0.360  10.611 -1.1800  0.9841 -0.0481
 1019MOL0     C34387   3.605   0.326  10.672  0.3197 -0.0122 -0.5731
 1019MOL0     C34388   3.493   0.401  10.605  0.4958  0.5016  0.5165
 1019MOL0     C34389   3.359   0.380  10.667 -0.0789  0.5361 -0.9183
 1019MOL0     C34390   3.306   0.233  10.649 -0.4909 -0.6588  0.2409
 1019MOL0     C34391   3.157   0.213  10.694 -0.2450  0.2944 -0.4581
 1019MOL0     C34392   3.121   0.064  10.691  0.7268  0.1872  0.1014
 1019MOL0     N34393   2.998   0.036  10.763 -0.5088 -0.0837 -1.0398
 1019MOL0     C34394   2.878   0.085  10.739  0.4722 -0.0303  0.2938
 1019MOL0     C34395   2.806   0.040  10.836  0.3610 -0.3414 -0.0051
 1019MOL0     C34396   2.664   0.067  10.863  0.1241 -0.5159  0.8152
 1019MOL0     C34397   2.605  -0.024  10.957  0.0758 -0.4038  0.9649
 1019MOL0     C34398   2.453  -0.002  10.959 -0.2743  0.3227 -1.5422
 1019MOL0     C34399   2.378  -0.089  11.062 -0.5275 -0.8098  0.1198
 1019MOL0     O34400   2.260  -0.015  11.083 -0.1164 -0.7084  0.0462
 1019MOL0     C34401   2.162  -0.068  11.158  0.2994  0.5056 -0.2303
 1019MOL0     C34402   2.165  -0.199  11.212  0.6072  0.0339  0.8940
 1019MOL0     C34403   2.049  -0.251  11.281 -0.2847 -0.3620 -0.0866
 1019MOL0     C34404   1.931  -0.179  11.290 -1.1742 -0.4802  0.3154
 1019MOL0     C34405   1.809  -0.240  11.341  0.2437 -0.6333  0.4525
 1019MOL0     O34406   1.706  -0.154  11.380  0.3706  0.6181 -0.2506
 1019MOL0     C34407   1.576  -0.191  11.402  0.0621 -0.5134  0.6867
 1019MOL0     C34408   1.486  -0.087  11.409  0.0246 -0.8760 -0.3575
 1019MOL0     C34409   1.345  -0.104  11.437 -0.0770 -0.4085  0.1456
 1019MOL0     C34410   1.293  -0.233  11.438  0.3671 -1.3356  0.1481
 1019MOL0     O34411   1.160  -0.266  11.473 -0.9198 -0.3424  0.1690
 1019MOL0     C34412   1.069  -0.163  11.524  0.3077  0.2560  0.4307
 1019MOL0     C34413   0.941  -0.240  11.551  1.0274  0.1800 -0.2533
 1019MOL0     C34414   0.856  -0.149  11.648 -0.1563 -0.3644 -0.0359
 1019MOL0     C34415   0.728  -0.221  11.673 -0.1108  0.5860 -0.4714
 1019MOL0     C34416   0.632  -0.137  11.760 -0.3268  0.0655  0.0081
 1019MOL0     C34417   0.481  -0.184  11.768  0.2497 -0.3314  1.1137
 1019MOL0     C34418   0.419  -0.131  11.895 -0.1581 -0.0498  0.4294
 1019MOL0     C34419   0.274  -0.156  11.904  0.5800 -0.2717 -0.3467
 1019MOL0    Cl34420   0.232  -0.329  11.864 -0.0331 -0.3112  0.3008
 1019MOL0     C34421   1.383  -0.340  11.428 -0.3929 -0.0316  0.7367
 1019MOL0     C34422   1.520  -0.322  11.410 -0.3147  0.2478 -0.0730
 1019MOL0     O34423   1.807  -0.365  11.339 -0.1639 -0.1025 -0.1336
 1019MOL0     C34424   1.936  -0.046  11.244  0.4986 -0.1458 -0.5349
 1019MOL0     C34425   2.049   0.006  11.175  0.3018 -0.8801  0.1732
 1019MOL0     N34426   2.879  -0.046  10.916 -0.0551 -0.0937  0.1932
 1019MOL0     N34427   3.002  -0.046  10.876  0.4499 -0.4892 -0.2617
 1019MOL0     C34428   3.951   0.734  10.818  0.5972 -0.0939 -0.6642
 1019MOL0     C34429   3.981   0.868  10.836  0.0512 -0.2580 -0.4142
 1019MOL0     C34430   4.091   1.295  10.701 -0.0883  0.8547 -0.3300
 1019MOL0     C34431   4.020   1.367  10.801 -0.2616  0.3598  0.2035
 1019MOL0     C34432   4.050   1.498  10.826 -0.6129  0.0746 -0.7220
 1019MOL0     C34433   4.145   1.567  10.753 -0.4315 -0.3654 -0.2479
 1019MOL0     O34434   4.170   1.703  10.781  0.5289  0.8245  0.0997
 1019MOL0     C34435   4.312   1.748  10.771  0.3782  0.0943 -0.1707
 1019MOL0     C34436   4.410   1.682  10.863 -0.1227  0.1009  0.1541
 1019MOL0     C34437   4.548   1.748  10.844  0.8244  0.3108 -1.5890
 1019MOL0     C34438   4.672   1.667  10.890  0.9375  0.4928  0.7654
 1019MOL0     C34439   4.786   1.763  10.919  1.2281  0.4385  0.1496
 1019MOL0     C34440   4.885   1.830  10.950  0.6241  0.0557  0.2953
 1019MOL0     C34441   4.223   1.496  10.665 -0.0758 -0.2272  0.6268
 1019MOL0     C34442   4.196   1.362  10.632 -0.1956 -0.2683  0.2078
 1019MOL0     H34443   3.850   0.984  10.539 -1.6446  1.4138  0.2610
 1019MOL0     H34444   3.742   0.763  10.560 -0.4538  2.5444 -0.0448
 1019MOL0     H34445   3.875   0.523  10.536 -0.3143  2.7208  0.9047
 1019MOL0     H34446   3.706   0.561  10.550  0.9949  0.4656 -2.3482
 1019MOL0     H34447   3.821   0.304  10.671 -1.3723  1.6210  0.7869
 1019MOL0     H34448   3.741   0.315  10.511  0.4437  2.5541 -0.9464
 1019MOL0     H34449   3.608   0.362  10.775  0.6779  1.5087 -1.0892
 1019MOL0     H34450   3.590   0.218  10.665  1.7368 -0.6670  3.7464
 1019MOL0     H34451   3.518   0.508  10.604  2.5826  0.0873 -1.5640
 1019MOL0     H34452   3.495   0.370  10.500 -0.9111 -1.2215  0.9439
 1019MOL0     H34453   3.290   0.440  10.606 -0.4779 -0.5420 -1.5744
 1019MOL0     H34454   3.358   0.413  10.771  0.8320 -1.9045 -0.0782
 1019MOL0     H34455   3.375   0.162  10.695  1.0747  2.7675  3.7192
 1019MOL0     H34456   3.310   0.220  10.540  1.3005 -3.0376  0.5177
 1019MOL0     H34457   3.145   0.255  10.795  0.3282 -0.2602 -0.1517
 1019MOL0     H34458   3.090   0.270  10.629  0.2132  3.4718  1.6475
 1019MOL0     H34459   3.203   0.012  10.741 -0.3943 -0.1420  1.6500
 1019MOL0     H34460   3.116   0.027  10.588  0.2202 -1.2706  0.6183
 1019MOL0     H34461   2.843   0.147  10.657  2.4996 -0.4974 -1.0134
 1019MOL0     H34462   2.614   0.076  10.766  2.2613  2.1173 -0.1895
 1019MOL0     H34463   2.657   0.168  10.906 -1.9262  0.2366 -1.0985
 1019MOL0     H34464   2.650   0.002  11.053 -0.4264 -0.4318  1.2106
 1019MOL0     H34465   2.621  -0.131  10.940 -2.2330 -0.5986 -0.3912
 1019MOL0     H34466   2.441   0.106  10.974  2.0247  0.5989 -1.3798
 1019MOL0     H34467   2.410  -0.028  10.862  1.3242 -1.8020 -1.7388
 1019MOL0     H34468   2.439  -0.099  11.152 -0.9516  1.2454  0.6752
 1019MOL0     H34469   2.363  -0.190  11.021  0.2551 -0.7882 -0.2446
 1019MOL0     H34470   2.255  -0.257  11.197  0.6206  0.5750 -1.3609
 1019MOL0     H34471   2.051  -0.349  11.327 -2.2005 -0.1889  0.4623
 1019MOL0     H34472   1.521   0.016  11.407 -0.4907 -0.6804  0.3325
 1019MOL0     H34473   1.265  -0.031  11.448 -2.7350 -2.6885 -2.3018
 1019MOL0     H34474   1.050  -0.083  11.452  1.6474 -0.0677 -0.3325
 1019MOL0     H34475   1.117  -0.126  11.615  1.9339 -1.3854  0.3084
 1019MOL0     H34476   0.977  -0.338  11.585  2.1613  0.8374  0.5004
 1019MOL0     H34477   0.888  -0.253  11.456 -1.8173  0.4792  1.1992
 1019MOL0     H34478   0.840  -0.052  11.599 -0.0068  0.1011  0.8259
 1019MOL0     H34479   0.902  -0.124  11.744 -3.2473  0.5759  1.3203
 1019MOL0     H34480   0.681  -0.250  11.579  1.2127  0.0698 -0.9998
 1019MOL0     H34481   0.748  -0.318  11.720  0.6097 -0.6944 -3.1965
 1019MOL0     H34482   0.637  -0.032  11.728  1.1649  0.0635  0.1960
 1019MOL0     H34483   0.667  -0.126  11.863  0.6756 -0.7167 -0.2394
 1019MOL0     H34484   0.474  -0.293  11.764  0.3338 -0.3196  0.4570
 1019MOL0     H34485   0.429  -0.150  11.677  0.0833  1.0018  1.6883
 1019MOL0     H34486   0.462  -0.183  11.981 -3.2857 -0.6829  1.7656
 1019MOL0     H34487   0.448  -0.026  11.898  0.1710 -0.1470  0.6417
 1019MOL0     H34488   0.219  -0.089  11.838 -0.3164  0.0293  0.6599
 1019MOL0     H34489   0.230  -0.140  12.003  1.2079 -3.2062  0.5123
 1019MOL0     H34490   1.344  -0.441  11.430 -1.9075  0.4403 -1.0049
 1019MOL0     H34491   1.587  -0.407  11.410 -0.5494 -0.0758  3.0442
 1019MOL0     H34492   1.844   0.012  11.241 -0.4695 -1.3266  2.2931
 1019MOL0     H34493   2.045   0.105  11.131 -0.5966  0.2629  2.6194
 1019MOL0     H34494   3.985   0.661  10.891 -3.1766 -0.4889  0.9339
 1019MOL0     H34495   4.054   0.923  10.895  1.7075  0.7228 -3.1725
 1019MOL0     H34496   3.932   1.325  10.850 -0.2698 -0.6009 -0.5797
 1019MOL0     H34497   3.996   1.539  10.911 -0.4505 -0.4946 -0.3352
 1019MOL0     H34498   4.313   1.857  10.784  0.0011  0.2336 -1.2112
 1019MOL0     H34499   4.341   1.736  10.666 -1.5646  1.4098 -0.9182
 1019MOL0     H34500   4.361   1.689  10.960 -2.3886  0.5405 -0.9705
 1019MOL0     H34501   4.420   1.579  10.827  0.3377  0.1358  0.1670
 1019MOL0     H34502   4.557   1.839  10.905 -1.6178  0.9171 -2.0330
 1019MOL0     H34503   4.578   1.767  10.740 -0.0682  1.5414 -1.6415
 1019MOL0     H34504   4.635   1.614  10.978  1.3744  1.1829  1.3688
 1019MOL0     H34505   4.695   1.586  10.819 -0.4615  0.4807  0.2902
 1019MOL0     H34506   4.972   1.878  10.990 -0.1894  0.4367  1.6514
 1019MOL0     H34507   4.303   1.544  10.609  1.8480 -2.7223  1.0432
 1019MOL0     H34508   4.254   1.311  10.556  0.2931 -0.2111  0.5386
 1020MOL0     O34509   9.502  11.095   7.884  0.2626  0.5668  0.1568
 1020MOL0     C34510   9.505  11.176   7.790 -0.9622 -1.4185  0.1975
 1020MOL0     O34511   9.473  11.313   7.804  0.3668  0.4679  0.2038
 1020MOL0     C34512   9.438  11.356   7.929 -0.1025 -0.6164  0.2045
 1020MOL0     C34513   9.314  11.419   7.935  0.3903 -0.5764 -0.4531
 1020MOL0     C34514   9.279  11.476   8.057  0.8109 -0.4995  0.1323
 1020MOL0     C34515   9.359  11.478   8.173  0.6022 -0.4922 -0.5131
 1020MOL0     O34516   9.310  11.531   8.283  0.3566  1.0630  0.2648
 1020MOL0     C34517   9.408  11.595   8.364 -0.8859  0.2480  0.2477
 1020MOL0     C34518   9.330  11.692   8.452  0.6003 -0.0939  0.3181
 1020MOL0     C34519   9.271  11.804   8.367  0.2221 -0.3163  0.7411
 1020MOL0     C34520   9.197  11.901   8.459  0.6680  0.6716 -0.1951
 1020MOL0     C34521   9.137  12.007   8.368  0.8770 -0.3226 -0.1670
 1020MOL0     C34522   9.026  11.962   8.269 -0.4000  0.0760 -0.9892
 1020MOL0     C34523   8.981  12.078   8.177 -0.2591  0.3667 -0.3367
 1020MOL0     C34524   8.931  12.197   8.261  0.2633  1.0394 -0.5408
 1020MOL0     N34525   8.817  12.170   8.351  0.2754  0.4701  0.2507
 1020MOL0     C34526   8.694  12.137   8.300 -0.0206 -0.0154 -0.5086
 1020MOL0     C34527   8.612  12.123   8.406  0.1058 -0.4043  0.6339
 1020MOL0     C34528   8.477  12.064   8.397  0.4416 -0.2118  0.3495
 1020MOL0     C34529   8.393  12.143   8.507 -0.3671 -0.2314 -0.2556
 1020MOL0     C34530   8.258  12.195   8.458 -0.1824  0.6542  0.5592
 1020MOL0     C34531   8.193  12.294   8.555  0.6541  0.6155 -0.8685
 1020MOL0     O34532   8.158  12.225   8.680 -0.1366  0.1696 -0.5709
 1020MOL0     C34533   8.051  12.254   8.759  0.0649  0.0663  0.3190
 1020MOL0     C34534   7.999  12.160   8.848 -0.7160  0.3318 -0.4747
 1020MOL0     C34535   7.891  12.191   8.936  0.4228 -0.0198 -0.5277
 1020MOL0     C34536   7.814  12.305   8.913 -0.3896 -0.7986  0.5813
 1020MOL0     C34537   7.683  12.333   8.977 -0.4999 -0.5619  0.3613
 1020MOL0     O34538   7.657  12.259   9.093  0.0128 -0.5139 -0.2330
 1020MOL0     C34539   7.549  12.301   9.169  0.0642 -0.3626 -0.0327
 1020MOL0     C34540   7.570  12.333   9.302  1.0412  0.2585 -0.1359
 1020MOL0     C34541   7.462  12.348   9.390 -0.3052 -0.6815 -0.0738
 1020MOL0     C34542   7.328  12.336   9.352  0.0177 -0.0690 -0.6575
 1020MOL0     O34543   7.231  12.351   9.451 -0.4709 -0.0240  0.0019
 1020MOL0     C34544   7.097  12.370   9.401  0.8592 -0.1977 -0.2441
 1020MOL0     C34545   7.037  12.221   9.379  0.4685  0.3563 -0.7657
 1020MOL0     C34546   7.025  12.153   9.516 -0.5547 -0.2148 -0.1118
 1020MOL0     C34547   6.964  12.014   9.505  0.3573  0.0588  0.2785
 1020MOL0     C34548   6.823  12.019   9.472 -0.5144  1.1740 -0.4515
 1020MOL0     C34549   6.742  11.903   9.516 -0.5646  1.2827 -0.5248
 1020MOL0     C34550   6.795  11.764   9.472  0.5989 -0.5915  0.7763
 1020MOL0     C34551   6.863  11.673   9.581 -0.5059  0.1582 -0.5287
 1020MOL0    Cl34552   6.745  11.632   9.715 -0.0668  0.3467  0.3482
 1020MOL0     C34553   7.312  12.306   9.218  0.2652  0.6655 -0.4595
 1020MOL0     C34554   7.415  12.294   9.124  0.3282  0.1191 -0.5857
 1020MOL0     O34555   7.612  12.423   8.931  0.4297  0.9083  0.3037
 1020MOL0     C34556   7.871  12.393   8.818 -0.6387  0.6711 -0.4976
 1020MOL0     C34557   7.982  12.372   8.734 -0.0533  0.8518 -1.1212
 1020MOL0     N34558   8.687  12.160   8.520 -0.0081  0.2343  0.6535
 1020MOL0     N34559   8.812  12.174   8.490  0.3431 -0.6415  1.0829
 1020MOL0     C34560   9.484  11.431   8.159  0.2330  0.7068  0.1641
 1020MOL0     C34561   9.523  11.360   8.045 -0.0543 -0.5185  0.5320
 1020MOL0     C34562   9.541  11.132   7.656 -0.4072  0.7833 -0.3986
 1020MOL0     C34563   9.543  11.225   7.550 -0.4102 -0.5360 -0.1640
 1020MOL0     C34564   9.587  11.180   7.421 -0.7659  0.0348  0.0709
 1020MOL0     C34565   9.619  11.047   7.399  0.8469 -0.3572  1.6074
 1020MOL0     O34566   9.664  11.012   7.267  0.8673  0.2547  0.3399
 1020MOL0     C34567   9.688  10.870   7.230 -0.1429 -0.2414 -0.6329
 1020MOL0     C34568   9.558  10.784   7.224 -0.4680  0.8896 -0.7892
 1020MOL0     C34569   9.434  10.826   7.135  0.4380  1.2150 -0.1090
 1020MOL0     C34570   9.321  10.714   7.134  0.6020  0.6646 -0.2684
 1020MOL0     C34571   9.237  10.718   7.015  0.5705 -0.2098  0.1221
 1020MOL0     C34572   9.162  10.729   6.919 -0.0450 -0.1260  0.2525
 1020MOL0     C34573   9.640  10.956   7.508  0.3581  0.5673 -0.9074
 1020MOL0     C34574   9.591  10.998   7.634 -0.2280 -0.2670 -0.3167
 1020MOL0     H34575   9.236  11.414   7.861 -1.5650  2.4812  1.1852
 1020MOL0     H34576   9.181  11.515   8.079  1.3957  0.3574  1.3876
 1020MOL0     H34577   9.488  11.650   8.315 -1.1264 -0.6680 -1.2175
 1020MOL0     H34578   9.467  11.525   8.425 -2.4563 -0.2889  1.2156
 1020MOL0     H34579   9.396  11.729   8.531 -0.6879  0.4463  1.1674
 1020MOL0     H34580   9.250  11.635   8.501 -1.1059  0.9008 -1.1685
 1020MOL0     H34581   9.190  11.758   8.309 -1.3847  1.0206  1.8504
 1020MOL0     H34582   9.346  11.849   8.301  1.5821 -2.5336  0.6640
 1020MOL0     H34583   9.122  11.848   8.519  2.3064  0.6968  1.9897
 1020MOL0     H34584   9.277  11.930   8.528  1.6504 -3.6664  0.8026
 1020MOL0     H34585   9.213  12.057   8.307  1.6128  0.4056  1.2958
 1020MOL0     H34586   9.096  12.075   8.443 -0.3649 -1.9206  0.6555
 1020MOL0     H34587   8.950  11.924   8.338  0.9245 -3.4402 -1.2459
 1020MOL0     H34588   9.046  11.876   8.203 -0.3560 -0.8675  0.2288
 1020MOL0     H34589   9.066  12.114   8.118 -0.3550  3.0309  0.9834
 1020MOL0     H34590   8.904  12.054   8.103 -0.0907  4.5547 -2.1970
 1020MOL0     H34591   8.907  12.277   8.191  0.9437  2.0533  0.3483
 1020MOL0     H34592   9.008  12.240   8.326 -0.2525 -0.6175  1.2482
 1020MOL0     H34593   8.672  12.118   8.196  0.5419 -0.6156 -0.5254
 1020MOL0     H34594   8.475  11.957   8.418 -1.8803 -0.1461  0.7722
 1020MOL0     H34595   8.434  12.090   8.300  0.8773  0.2653  0.2801
 1020MOL0     H34596   8.449  12.231   8.540  0.6974  0.0936 -2.7088
 1020MOL0     H34597   8.374  12.090   8.601 -0.4827 -2.7315 -1.6037
 1020MOL0     H34598   8.284  12.249   8.366 -1.7613  2.4309  1.0989
 1020MOL0     H34599   8.192  12.113   8.428 -0.2235  0.9651 -0.2421
 1020MOL0     H34600   8.105  12.346   8.517  0.3629  2.4546  2.0236
 1020MOL0     H34601   8.268  12.368   8.585 -0.1290  0.2174  2.4343
 1020MOL0     H34602   8.051  12.066   8.861 -0.4542  0.6107  0.5510
 1020MOL0     H34603   7.863  12.127   9.019  0.6032  2.1621  1.2990
 1020MOL0     H34604   7.673  12.333   9.337  0.8866 -0.6397  0.3636
 1020MOL0     H34605   7.482  12.383   9.491 -0.0183  1.4953 -0.8375
 1020MOL0     H34606   7.102  12.439   9.316 -1.9214  1.9884  1.1969
 1020MOL0     H34607   7.030  12.421   9.470 -1.8803 -2.6416 -0.9013
 1020MOL0     H34608   7.089  12.163   9.302  0.7179 -0.0949 -0.2599
 1020MOL0     H34609   6.934  12.233   9.343 -0.1861  1.0532  1.1926
 1020MOL0     H34610   6.963  12.219   9.577 -2.0334 -1.4908 -0.1662
 1020MOL0     H34611   7.125  12.131   9.554 -1.5503 -1.5442  1.9371
 1020MOL0     H34612   7.020  11.963   9.427 -0.3532 -0.4874  0.1162
 1020MOL0     H34613   6.977  11.959   9.599  0.5694 -0.5957 -0.1266
 1020MOL0     H34614   6.812  12.037   9.365  0.4438  0.6296 -0.6471
 1020MOL0     H34615   6.774  12.111   9.507 -0.4223  0.6500  1.1612
 1020MOL0     H34616   6.637  11.919   9.491 -1.3167 -0.5522  1.2046
 1020MOL0     H34617   6.752  11.891   9.624  1.7386 -1.7936 -0.9333
 1020MOL0     H34618   6.712  11.709   9.427 -1.2298  2.0088  0.7521
 1020MOL0     H34619   6.862  11.789   9.389 -0.2177  0.7939  0.5099
 1020MOL0     H34620   6.959  11.712   9.616 -0.6131 -0.2212  0.2114
 1020MOL0     H34621   6.880  11.579   9.527 -1.5416  0.1307 -0.8322
 1020MOL0     H34622   7.213  12.285   9.180  0.3373 -0.9665  0.1722
 1020MOL0     H34623   7.413  12.264   9.020  1.7981 -1.4373 -0.2219
 1020MOL0     H34624   7.836  12.496   8.821  2.0612  1.7655 -2.6635
 1020MOL0     H34625   8.014  12.458   8.675  0.4953  1.9868  0.7349
 1020MOL0     H34626   9.559  11.431   8.238 -1.3208 -0.3001  1.7158
 1020MOL0     H34627   9.618  11.308   8.040 -0.7567 -1.9793  1.4454
 1020MOL0     H34628   9.514  11.330   7.560 -0.0362 -0.3338 -1.0902
 1020MOL0     H34629   9.589  11.245   7.334  1.5540  1.2484  0.9233
 1020MOL0     H34630   9.757  10.826   7.303 -1.4518 -0.1039  0.7386
 1020MOL0     H34631   9.735  10.874   7.132  3.7551  2.8236  1.0955
 1020MOL0     H34632   9.593  10.682   7.206  1.0100  0.5243  3.2273
 1020MOL0     H34633   9.516  10.789   7.325  1.2054  1.6924 -0.0976
 1020MOL0     H34634   9.471  10.851   7.035 -1.4431  0.5102 -1.0478
 1020MOL0     H34635   9.386  10.918   7.169  0.0852  1.7995 -2.0594
 1020MOL0     H34636   9.371  10.618   7.124  1.1517  1.1187 -2.2189
 1020MOL0     H34637   9.260  10.720   7.225 -1.8612  1.3497 -1.8443
 1020MOL0     H34638   9.103  10.750   6.833  0.5235 -2.9738 -0.9520
 1020MOL0     H34639   9.680  10.858   7.485  1.4066  0.8049 -0.1351
 1020MOL0     H34640   9.586  10.923   7.712 -3.0940 -0.2550 -0.3811
 1021MOL0     O34641   9.373   4.263   0.548  0.5237  0.2417  0.0823
 1021MOL0     C34642   9.421   4.249   0.434  0.1460  0.6618 -0.1078
 1021MOL0     O34643   9.359   4.199   0.326  0.1876 -0.2945  0.1881
 1021MOL0     C34644   9.227   4.168   0.326  0.3872  0.0439 -0.0279
 1021MOL0     C34645   9.123   4.225   0.392 -0.5554  0.4044 -0.1956
 1021MOL0     C34646   8.989   4.186   0.382  0.4965  0.2138 -0.0739
 1021MOL0     C34647   8.954   4.077   0.310 -0.7642 -0.4055  0.0901
 1021MOL0     O34648   8.832   4.028   0.326 -0.6529 -0.4415 -0.3038
 1021MOL0     C34649   8.776   3.937   0.230  0.2729 -0.6024  0.4630
 1021MOL0     C34650   8.629   3.955   0.229  0.7685 -0.6957 -0.4964
 1021MOL0     C34651   8.541   3.856   0.144 -0.1806  0.2915  0.3830
 1021MOL0     C34652   8.389   3.873   0.190  0.1208  0.1123  0.0689
 1021MOL0     C34653   8.307   3.746   0.164  0.2546 -0.4243 -0.5630
 1021MOL0     C34654   8.164   3.754   0.227  0.2142  0.1653 -0.2551
 1021MOL0     C34655   8.110   3.611   0.221  0.5016 -0.1475  0.9947
 1021MOL0     C34656   7.994   3.596   0.324  0.0220  0.4242  0.1521
 1021MOL0     N34657   7.924   3.472   0.292 -0.1529  0.2563  0.3289
 1021MOL0     C34658   7.837   3.450   0.180 -0.3672  0.3352 -0.4575
 1021MOL0     C34659   7.792   3.323   0.200 -0.2585  0.8822  0.1768
 1021MOL0     C34660   7.710   3.238   0.104 -0.0257 -0.8926 -0.0009
 1021MOL0     C34661   7.612   3.333   0.036 -0.3506 -0.1094 -0.2602
 1021MOL0     C34662   7.508   3.248  -0.018  0.3764  0.4341 -0.0761
 1021MOL0     C34663   7.433   3.320  -0.136  0.8710  0.4056 -0.5546
 1021MOL0     O34664   7.351   3.431  -0.090 -0.2419  0.0545 -0.0872
 1021MOL0     C34665   7.220   3.412  -0.076  0.8444 -0.1857  0.1589
 1021MOL0     C34666   7.129   3.429  -0.183 -0.1043 -0.3634 -0.3796
 1021MOL0     C34667   6.992   3.422  -0.162 -0.5460 -0.2817  0.4096
 1021MOL0     C34668   6.948   3.409  -0.028  0.1849 -0.0360 -0.4585
 1021MOL0     C34669   6.802   3.400   0.013  0.0442  0.2840 -0.1634
 1021MOL0     O34670   6.701   3.437  -0.085 -0.4744 -0.0293 -0.2265
 1021MOL0     C34671   6.569   3.442  -0.047  0.2437  0.7729 -0.3415
 1021MOL0     C34672   6.488   3.352  -0.120  0.8415  0.0896 -0.4621
 1021MOL0     C34673   6.348   3.333  -0.098  0.6725 -0.4076  0.4562
 1021MOL0     C34674   6.288   3.423  -0.011  0.3126 -0.8673 -0.2036
 1021MOL0     O34675   6.155   3.411   0.025 -0.5374 -0.4950 -0.7064
 1021MOL0     C34676   6.097   3.514   0.117  0.7065  0.1804 -0.5276
 1021MOL0     C34677   5.955   3.470   0.111 -0.0444  0.4897  0.0879
 1021MOL0     C34678   5.870   3.546   0.209 -0.0743 -0.4403  0.4124
 1021MOL0     C34679   5.891   3.697   0.191 -0.2715 -0.3181 -0.4115
 1021MOL0     C34680   5.780   3.774   0.263  0.2804 -0.6808 -0.1837
 1021MOL0     C34681   5.802   3.785   0.416 -0.2109 -0.1377 -0.0749
 1021MOL0     C34682   5.903   3.894   0.454 -0.0823 -0.5010  0.9695
 1021MOL0     C34683   5.910   3.911   0.603  0.2995  0.1570 -0.7627
 1021MOL0    Cl34684   6.034   4.022   0.656  0.1672  0.0335  0.5914
 1021MOL0     C34685   6.366   3.516   0.056 -0.7994 -0.9866  0.3677
 1021MOL0     C34686   6.508   3.520   0.048  0.0352 -1.1883  0.5496
 1021MOL0     O34687   6.777   3.364   0.128 -0.0333  0.5788  0.1466
 1021MOL0     C34688   7.037   3.406   0.074  0.6662  0.3921 -0.2264
 1021MOL0     C34689   7.175   3.400   0.056 -0.4158  0.2578  0.1135
 1021MOL0     N34690   7.858   3.268   0.305  0.0356  1.4606 -0.1287
 1021MOL0     N34691   7.937   3.351   0.360  0.7319  0.3778 -0.2179
 1021MOL0     C34692   9.058   4.030   0.228  0.3784  1.3878 -0.0098
 1021MOL0     C34693   9.188   4.074   0.232  0.6817  0.2013 -0.2863
 1021MOL0     C34694   9.566   4.274   0.426 -0.4686  0.3053 -0.3909
 1021MOL0     C34695   9.640   4.272   0.542 -0.7612  0.6680 -0.7122
 1021MOL0     C34696   9.782   4.281   0.534  0.3777 -0.0710 -0.2014
 1021MOL0     C34697   9.854   4.273   0.410  1.2628 -0.6624 -1.0894
 1021MOL0     O34698   9.989   4.255   0.415 -0.2123 -0.1824 -0.2027
 1021MOL0     C34699  10.062   4.267   0.298 -0.1863 -0.0618 -0.1297
 1021MOL0     C34700  10.208   4.219   0.335 -1.0566  0.0459  0.1986
 1021MOL0     C34701  10.324   4.264   0.241 -0.2685 -0.1128  0.0220
 1021MOL0     C34702  10.369   4.407   0.284 -0.9218  0.3726  0.2941
 1021MOL0     C34703  10.466   4.386   0.397  0.4253  0.3087 -0.3116
 1021MOL0     C34704  10.527   4.389   0.504  0.4457 -0.2186 -0.2346
 1021MOL0     C34705   9.777   4.279   0.298 -0.4655  0.0825  0.4887
 1021MOL0     C34706   9.640   4.278   0.310  0.4057  0.3083 -0.2596
 1021MOL0     H34707   9.141   4.312   0.455  1.4930  1.2151 -1.7636
 1021MOL0     H34708   8.906   4.235   0.432 -0.2193  0.3449 -1.3334
 1021MOL0     H34709   8.803   3.836   0.264 -0.6412 -0.4335  1.7822
 1021MOL0     H34710   8.822   3.937   0.131 -0.1933 -0.0623  0.2395
 1021MOL0     H34711   8.610   4.055   0.190 -0.0530 -0.6721 -0.0623
 1021MOL0     H34712   8.596   3.959   0.333  1.4609  0.3711 -0.2982
 1021MOL0     H34713   8.570   3.754   0.171 -3.1462 -0.7511  0.0440
 1021MOL0     H34714   8.566   3.862   0.037  1.3138  0.7695  0.7393
 1021MOL0     H34715   8.370   3.905   0.293 -2.0303  1.6432 -0.7407
 1021MOL0     H34716   8.344   3.959   0.140 -1.2166 -0.3771  0.3925
 1021MOL0     H34717   8.356   3.664   0.218  0.5813 -0.0069 -0.2255
 1021MOL0     H34718   8.301   3.726   0.057  0.6643  1.4712 -0.9693
 1021MOL0     H34719   8.097   3.814   0.165 -0.2579 -0.1283 -0.0372
 1021MOL0     H34720   8.166   3.785   0.333  0.9308  0.9693 -0.4930
 1021MOL0     H34721   8.070   3.600   0.120 -0.5301 -2.6074  1.6112
 1021MOL0     H34722   8.182   3.533   0.245 -0.0963 -0.4391  1.8993
 1021MOL0     H34723   7.933   3.686   0.324 -2.4967 -1.2021 -0.1513
 1021MOL0     H34724   8.029   3.579   0.426 -0.9296 -0.3477  0.3617
 1021MOL0     H34725   7.812   3.514   0.096 -2.4210 -0.0661 -0.2048
 1021MOL0     H34726   7.673   3.156   0.168 -0.2721 -0.5097  0.3545
 1021MOL0     H34727   7.788   3.199   0.039  0.9639 -0.7079  1.0344
 1021MOL0     H34728   7.665   3.388  -0.043  1.3924 -3.1354 -1.3421
 1021MOL0     H34729   7.568   3.405   0.106  0.2255 -1.2545  1.3216
 1021MOL0     H34730   7.556   3.156  -0.053  0.3400 -0.0716  1.1253
 1021MOL0     H34731   7.436   3.227   0.062  1.3032  0.1436  0.7092
 1021MOL0     H34732   7.378   3.240  -0.187  2.7793 -0.7356 -0.9486
 1021MOL0     H34733   7.510   3.356  -0.205  1.2165  0.6233 -0.0667
 1021MOL0     H34734   7.176   3.450  -0.279  2.0320  1.3249  0.9403
 1021MOL0     H34735   6.921   3.437  -0.242  0.0694 -0.5419 -0.1936
 1021MOL0     H34736   6.520   3.282  -0.195 -0.9561 -1.8515  0.4974
 1021MOL0     H34737   6.296   3.259  -0.157  2.3220 -0.9546 -0.3789
 1021MOL0     H34738   6.108   3.616   0.080  0.9435  0.6719  0.8480
 1021MOL0     H34739   6.125   3.520   0.222 -1.8654  2.3348  0.1292
 1021MOL0     H34740   5.948   3.364   0.137 -2.9212  0.6520  0.3068
 1021MOL0     H34741   5.919   3.470   0.007  0.2724  0.2190 -0.0210
 1021MOL0     H34742   5.898   3.502   0.305  0.5942 -3.7630 -1.1237
 1021MOL0     H34743   5.764   3.522   0.198 -0.8245  2.4922  0.4210
 1021MOL0     H34744   5.991   3.718   0.228 -0.3006 -2.3823  0.9568
 1021MOL0     H34745   5.888   3.725   0.085 -0.1091  1.2060 -0.0377
 1021MOL0     H34746   5.686   3.722   0.244 -0.3563  0.3887 -0.0225
 1021MOL0     H34747   5.780   3.874   0.219  1.9266 -0.5390  0.0652
 1021MOL0     H34748   5.835   3.685   0.444 -1.2726 -1.0332 -1.8435
 1021MOL0     H34749   5.709   3.805   0.471  0.6060  1.0860  0.9119
 1021MOL0     H34750   6.004   3.863   0.424 -0.7645 -0.5606 -1.4841
 1021MOL0     H34751   5.871   3.990   0.413 -2.2645 -3.1172 -4.5963
 1021MOL0     H34752   5.910   3.814   0.654  1.6577 -1.0108 -2.8695
 1021MOL0     H34753   5.809   3.942   0.634 -0.5507 -0.9285 -2.2768
 1021MOL0     H34754   6.320   3.591   0.119 -1.2221 -1.0542  0.1378
 1021MOL0     H34755   6.553   3.597   0.109 -1.9896  0.9532 -0.4900
 1021MOL0     H34756   7.007   3.401   0.179  0.4822 -1.3077 -0.3179
 1021MOL0     H34757   7.249   3.407   0.135 -0.0489 -1.2892 -0.0460
 1021MOL0     H34758   9.042   3.940   0.169  0.1281  0.7665  0.9806
 1021MOL0     H34759   9.262   4.020   0.175  2.5565  2.4373 -0.1208
 1021MOL0     H34760   9.605   4.260   0.644  0.6617  1.1984 -0.1379
 1021MOL0     H34761   9.844   4.286   0.622  1.1953 -0.4089 -0.7483
 1021MOL0     H34762  10.065   4.371   0.266  0.1132 -0.1297 -0.3368
 1021MOL0     H34763  10.026   4.198   0.221  1.5831 -0.5492 -0.5872
 1021MOL0     H34764  10.243   4.236   0.437  2.4402  0.3642 -0.9253
 1021MOL0     H34765  10.201   4.110   0.322  2.1150 -0.1841 -0.4602
 1021MOL0     H34766  10.293   4.260   0.136  1.0962  4.1203 -0.7340
 1021MOL0     H34767  10.403   4.191   0.261 -0.5779 -0.5576 -0.3503
 1021MOL0     H34768  10.413   4.448   0.192 -1.1760  2.0165  0.8799
 1021MOL0     H34769  10.289   4.474   0.315 -2.1822 -1.3375  0.9125
 1021MOL0     H34770  10.557   4.374   0.606 -1.1140  3.4325  0.9023
 1021MOL0     H34771   9.815   4.286   0.196 -0.0627  1.7017  0.7321
 1021MOL0     H34772   9.589   4.267   0.214  0.0516  0.4851 -0.0940
 1022MOL0     O34773   9.285  10.655   1.310  0.0700 -0.5822 -0.2197
 1022MOL0     C34774   9.372  10.575   1.277 -0.7053 -0.2771 -0.1573
 1022MOL0     O34775   9.353  10.448   1.237  0.2967  0.5760  0.4355
 1022MOL0     C34776   9.216  10.417   1.235  0.0292  0.4101  0.5732
 1022MOL0     C34777   9.127  10.479   1.149 -0.5632  0.1375 -0.6278
 1022MOL0     C34778   8.989  10.454   1.151  0.2433 -0.2437 -1.2335
 1022MOL0     C34779   8.938  10.345   1.235 -0.6873 -0.3974 -0.5653
 1022MOL0     O34780   8.807  10.312   1.254 -0.0553 -0.2152 -0.2790
 1022MOL0     C34781   8.746  10.273   1.132  0.3867  0.1580  0.1255
 1022MOL0     C34782   8.627  10.166   1.151 -0.8045 -0.6389 -0.7715
 1022MOL0     C34783   8.488  10.230   1.158  0.4172  0.4875  0.2377
 1022MOL0     C34784   8.370  10.130   1.156 -0.2360 -0.2471 -0.7651
 1022MOL0     C34785   8.300  10.127   1.022 -0.9834  0.1637  1.2292
 1022MOL0     C34786   8.396  10.087   0.897 -0.0650 -0.4152 -0.6427
 1022MOL0     C34787   8.319  10.053   0.769  1.0217 -0.6453  0.4528
 1022MOL0     C34788   8.408  10.020   0.646  0.3813  0.1770 -0.2691
 1022MOL0     N34789   8.322   9.999   0.524  0.2923  0.0308  0.0913
 1022MOL0     C34790   8.240  10.086   0.470 -0.0803 -0.1105  0.8051
 1022MOL0     C34791   8.147  10.021   0.388  0.2370 -0.1139  0.3681
 1022MOL0     C34792   8.029  10.079   0.312  0.3382  0.3035 -0.4076
 1022MOL0     C34793   7.910   9.979   0.312  0.3686  0.5053 -0.3204
 1022MOL0     C34794   7.849   9.961   0.452  0.0748  0.4519 -0.3702
 1022MOL0     C34795   7.726   9.869   0.463 -0.7972 -0.7711 -0.0821
 1022MOL0     O34796   7.645   9.887   0.355 -0.0075 -0.2725  0.1580
 1022MOL0     C34797   7.508   9.905   0.367  0.4075 -0.9203 -0.6693
 1022MOL0     C34798   7.434   9.937   0.246 -0.1417  0.3772  0.6771
 1022MOL0     C34799   7.293   9.952   0.263  0.4181  0.1195 -0.6396
 1022MOL0     C34800   7.224   9.946   0.391  0.0305  0.6372 -0.2153
 1022MOL0     C34801   7.075   9.956   0.392  0.2232 -0.1788  0.0919
 1022MOL0     O34802   7.005   9.966   0.272  0.0213 -0.1781 -0.1572
 1022MOL0     C34803   6.868   9.967   0.289 -0.3549 -1.1871  0.1193
 1022MOL0     C34804   6.800  10.088   0.320  0.1818  0.2541 -0.6274
 1022MOL0     C34805   6.662  10.086   0.326  0.0807 -0.4586 -0.1602
 1022MOL0     C34806   6.577   9.975   0.301 -0.2457  0.4928  0.2049
 1022MOL0     O34807   6.437   9.973   0.301 -0.3597  0.4065 -0.0616
 1022MOL0     C34808   6.372   9.858   0.370  0.3234  0.2400 -1.3449
 1022MOL0     C34809   6.234   9.922   0.420 -0.2714  0.0546 -0.2419
 1022MOL0     C34810   6.173   9.834   0.532 -1.3701 -0.2259  0.9757
 1022MOL0     C34811   6.044   9.903   0.584 -0.1554 -0.2990 -0.1710
 1022MOL0     C34812   5.983   9.828   0.708  0.1692 -0.7377  0.1178
 1022MOL0     C34813   5.939   9.687   0.674 -0.3381 -0.8143  0.9322
 1022MOL0     C34814   5.793   9.684   0.632  0.6740 -0.0760 -0.3549
 1022MOL0     C34815   5.750   9.563   0.550  0.2308  0.5564  0.3119
 1022MOL0    Cl34816   5.735   9.415   0.638 -0.1920 -0.0123  0.0149
 1022MOL0     C34817   6.651   9.855   0.271  0.1443 -0.9710 -0.6347
 1022MOL0     C34818   6.795   9.854   0.266  0.2892  0.1123  0.0690
 1022MOL0     O34819   7.025   9.942   0.501  0.4917  0.4034  0.3837
 1022MOL0     C34820   7.294   9.910   0.498 -0.7366 -0.3680 -0.1193
 1022MOL0     C34821   7.432   9.896   0.487 -0.2416  0.1371 -0.3452
 1022MOL0     N34822   8.193   9.889   0.392  0.1345  0.1287 -0.4544
 1022MOL0     N34823   8.294   9.872   0.470 -0.2696  0.0893  0.0131
 1022MOL0     C34824   9.035  10.275   1.308  0.3934  0.4721 -0.5627
 1022MOL0     C34825   9.167  10.316   1.312 -0.0177 -0.5281 -0.2915
 1022MOL0     C34826   9.508  10.628   1.302  0.7309  0.3842 -0.8769
 1022MOL0     C34827   9.537  10.765   1.269 -0.1226  0.2428  0.4762
 1022MOL0     C34828   9.661  10.823   1.298 -0.2651  0.1140  0.0892
 1022MOL0     C34829   9.760  10.753   1.362  0.5162  0.8420 -0.2298
 1022MOL0     O34830   9.888  10.796   1.384  0.6714  0.5893  0.5634
 1022MOL0     C34831   9.913  10.929   1.357  0.7831  0.2086 -0.3683
 1022MOL0     C34832  10.026  10.978   1.461  0.4438 -0.0082  0.2881
 1022MOL0     C34833  10.142  10.873   1.480 -0.1985  0.0978 -0.4471
 1022MOL0     C34834  10.231  10.882   1.606  0.6800 -0.4853  0.2839
 1022MOL0     C34835  10.172  10.820   1.725 -0.1822  1.1732  0.3668
 1022MOL0     C34836  10.131  10.766   1.825 -0.0388  0.2488  1.0872
 1022MOL0     C34837   9.731  10.618   1.395 -0.4470  0.9325  0.5429
 1022MOL0     C34838   9.607  10.556   1.365 -0.0546 -0.1336 -0.0398
 1022MOL0     H34839   9.178  10.552   1.087  1.0067  0.5506  1.0454
 1022MOL0     H34840   8.919  10.501   1.082 -2.8167 -1.8399  0.5797
 1022MOL0     H34841   8.815  10.227   1.062  1.0993  1.3955 -0.0055
 1022MOL0     H34842   8.692  10.363   1.100  2.5799  1.4538 -0.1146
 1022MOL0     H34843   8.647  10.117   1.247 -0.3954  2.1905  0.6907
 1022MOL0     H34844   8.639  10.093   1.070  2.1099 -3.0470  1.5620
 1022MOL0     H34845   8.469  10.303   1.078 -0.4810  1.5920  1.4104
 1022MOL0     H34846   8.486  10.291   1.249  0.6520  1.0411 -0.1179
 1022MOL0     H34847   8.398  10.026   1.175  0.6147  0.3110  1.2936
 1022MOL0     H34848   8.294  10.156   1.230 -0.8763 -2.6550 -0.4938
 1022MOL0     H34849   8.252  10.224   1.005  0.4018  0.9054  1.3517
 1022MOL0     H34850   8.231  10.044   1.037 -0.0877 -0.9973 -0.7213
 1022MOL0     H34851   8.449   9.995   0.923  0.4817  0.1855  0.4318
 1022MOL0     H34852   8.470  10.167   0.887  1.3191 -1.4072  1.0418
 1022MOL0     H34853   8.263   9.961   0.787  0.3827 -0.5776 -1.0299
 1022MOL0     H34854   8.246  10.132   0.751  1.7921  0.1659  0.8103
 1022MOL0     H34855   8.468   9.929   0.655 -0.6789 -0.4161  1.0685
 1022MOL0     H34856   8.468  10.110   0.629 -2.2868  2.6185  2.0819
 1022MOL0     H34857   8.226  10.194   0.479 -0.9347  0.4549 -4.3154
 1022MOL0     H34858   8.055  10.100   0.208 -1.5040 -0.8119 -1.1577
 1022MOL0     H34859   8.004  10.175   0.358 -1.5195 -0.5619  0.4889
 1022MOL0     H34860   7.934   9.878   0.278 -3.4023 -1.2356  1.6259
 1022MOL0     H34861   7.835  10.022   0.246  0.6447  3.1139  0.9338
 1022MOL0     H34862   7.929   9.923   0.516 -0.9880 -2.1160 -0.4579
 1022MOL0     H34863   7.828  10.055   0.504 -0.5046 -0.5085  1.1928
 1022MOL0     H34864   7.686   9.895   0.561 -0.0168  0.6022 -0.0963
 1022MOL0     H34865   7.767   9.768   0.461  2.3670  0.1144  4.5503
 1022MOL0     H34866   7.472   9.951   0.146 -4.4651 -0.9924 -1.3920
 1022MOL0     H34867   7.235   9.973   0.173 -0.1397  1.8132  0.0782
 1022MOL0     H34868   6.847  10.185   0.331 -0.8403  0.4473  3.4436
 1022MOL0     H34869   6.612  10.177   0.356 -3.1182 -2.0338 -0.3405
 1022MOL0     H34870   6.428   9.832   0.461 -1.2177  0.6391 -0.2314
 1022MOL0     H34871   6.357   9.766   0.313 -0.0218 -0.8503  0.4259
 1022MOL0     H34872   6.157   9.920   0.342 -0.9280  0.3837  0.3902
 1022MOL0     H34873   6.260  10.020   0.459 -0.5257  1.1805 -2.7166
 1022MOL0     H34874   6.249   9.824   0.610  0.0453  1.8309 -0.0445
 1022MOL0     H34875   6.152   9.730   0.508 -0.1441 -0.6725  1.7597
 1022MOL0     H34876   6.069  10.006   0.614  1.1798  0.3102 -3.0093
 1022MOL0     H34877   5.966   9.912   0.508  0.4991  2.8567 -0.6216
 1022MOL0     H34878   5.901   9.886   0.750 -0.2591 -0.1259 -1.4684
 1022MOL0     H34879   6.063   9.821   0.783 -0.4364 -1.0251  0.7416
 1022MOL0     H34880   5.951   9.627   0.764  0.2750  1.9041  2.8075
 1022MOL0     H34881   6.003   9.632   0.604  0.1382  0.4662  0.3166
 1022MOL0     H34882   5.740   9.701   0.726  3.2626  1.4431  0.9479
 1022MOL0     H34883   5.772   9.770   0.569 -1.1232 -0.7554 -0.7413
 1022MOL0     H34884   5.818   9.541   0.467 -0.4511 -1.4591  0.2295
 1022MOL0     H34885   5.652   9.585   0.506  0.2909 -1.7137 -1.1188
 1022MOL0     H34886   6.590   9.768   0.251  2.4283 -2.5835 -0.9299
 1022MOL0     H34887   6.839   9.756   0.251 -2.1222 -0.7568 -2.2169
 1022MOL0     H34888   7.239   9.902   0.591 -0.4376 -2.6647 -0.0845
 1022MOL0     H34889   7.479   9.868   0.581  0.9609  1.6958 -0.4431
 1022MOL0     H34890   9.008  10.190   1.371  3.0204  0.7057  1.0311
 1022MOL0     H34891   9.238  10.272   1.380 -0.0532  0.3134  0.3128
 1022MOL0     H34892   9.456  10.826   1.231  2.1332  1.6233 -2.5135
 1022MOL0     H34893   9.671  10.930   1.290 -1.4459  0.1773 -0.6530
 1022MOL0     H34894   9.836  11.005   1.375  0.5062 -0.0545 -0.4273
 1022MOL0     H34895   9.940  10.919   1.251 -3.6684 -1.5956 -1.5935
 1022MOL0     H34896  10.068  11.078   1.443  1.6753  0.2806  3.9872
 1022MOL0     H34897   9.969  10.987   1.554 -1.9000 -2.0457 -0.8296
 1022MOL0     H34898  10.202  10.886   1.389 -2.0525  0.5242 -1.6797
 1022MOL0     H34899  10.104  10.770   1.477  2.3770 -0.9044 -1.3306
 1022MOL0     H34900  10.323  10.825   1.596  0.5904 -0.5400 -0.2714
 1022MOL0     H34901  10.259  10.986   1.621  0.9026 -0.4363 -0.4408
 1022MOL0     H34902  10.102  10.716   1.915  2.2916 -0.1174  1.7085
 1022MOL0     H34903   9.791  10.574   1.474 -1.6138  2.9102  2.6425
 1022MOL0     H34904   9.585  10.450   1.380 -1.6663 -0.2095 -2.4380
 1023MOL0     O34905  10.973   8.858   6.278 -0.4544 -0.6763 -0.1106
 1023MOL0     C34906  11.008   8.874   6.158  0.1360  0.0057 -0.4831
 1023MOL0     O34907  10.937   8.873   6.047  0.0911 -0.1745  0.2520
 1023MOL0     C34908  10.806   8.839   6.067 -0.5901 -0.8315  0.2316
 1023MOL0     C34909  10.713   8.907   6.143  0.4255  0.4458  0.9414
 1023MOL0     C34910  10.579   8.865   6.140  0.0448 -0.7836 -0.4722
 1023MOL0     C34911  10.533   8.767   6.061 -0.1236  0.3427 -0.3445
 1023MOL0     O34912  10.401   8.732   6.058  0.1838 -0.3719  0.8012
 1023MOL0     C34913  10.338   8.696   5.935  0.5767  0.2107 -0.1108
 1023MOL0     C34914  10.192   8.672   5.973 -1.9228 -0.0373  0.9525
 1023MOL0     C34915  10.179   8.568   6.079  0.7987 -0.5866 -0.1180
 1023MOL0     C34916  10.039   8.503   6.080 -0.4173  1.2843  0.7863
 1023MOL0     C34917  10.018   8.413   6.205  0.2683  0.1593  0.0415
 1023MOL0     C34918  10.104   8.283   6.199 -0.4489 -0.1571  0.2987
 1023MOL0     C34919  10.069   8.170   6.297  0.0392 -0.2450  0.0321
 1023MOL0     C34920   9.980   8.062   6.238  0.6044 -0.0189 -0.4202
 1023MOL0     N34921   9.839   8.095   6.234  0.0683  0.0866  0.0862
 1023MOL0     C34922   9.772   8.153   6.125  0.2600  0.3716 -0.4543
 1023MOL0     C34923   9.643   8.132   6.151  0.7074 -0.4131 -0.4220
 1023MOL0     C34924   9.532   8.182   6.051 -0.4213  0.1622 -0.7350
 1023MOL0     C34925   9.408   8.230   6.130  0.3884 -0.4440 -0.3402
 1023MOL0     C34926   9.434   8.357   6.212 -0.6752 -0.4819  0.7775
 1023MOL0     C34927   9.329   8.391   6.311 -0.2767 -0.0067  0.1412
 1023MOL0     O34928   9.201   8.357   6.260 -0.2570  0.2587  0.4621
 1023MOL0     C34929   9.088   8.351   6.332  0.1704 -0.4487 -0.2235
 1023MOL0     C34930   8.967   8.317   6.265  0.0359  0.2711  0.1652
 1023MOL0     C34931   8.848   8.312   6.331  0.1207  0.6634 -0.5738
 1023MOL0     C34932   8.840   8.347   6.468  0.7335  0.6886 -0.9595
 1023MOL0     C34933   8.708   8.362   6.533 -0.2100  0.0117  0.7625
 1023MOL0     O34934   8.611   8.331   6.451  0.4224 -0.4506  0.0434
 1023MOL0     C34935   8.476   8.335   6.488 -1.2796 -0.5828 -0.4310
 1023MOL0     C34936   8.391   8.236   6.435 -0.4115  0.3009 -0.3753
 1023MOL0     C34937   8.253   8.241   6.456  0.1528 -0.3488  0.1482
 1023MOL0     C34938   8.189   8.343   6.526  0.9829  0.0739  0.5648
 1023MOL0     O34939   8.047   8.336   6.529  0.3378 -0.6718 -0.2313
 1023MOL0     C34940   7.996   8.450   6.591 -0.3071 -0.1126  0.0065
 1023MOL0     C34941   7.843   8.430   6.595  0.0793 -0.5930 -0.9250
 1023MOL0     C34942   7.783   8.459   6.460  0.4126 -0.3850  0.3214
 1023MOL0     C34943   7.631   8.448   6.459  0.3549  0.9608  0.1570
 1023MOL0     C34944   7.562   8.514   6.333 -0.2992  0.1724 -0.2655
 1023MOL0     C34945   7.609   8.462   6.198  0.5238 -0.6830  0.3697
 1023MOL0     C34946   7.497   8.466   6.088  0.7466 -0.2958 -0.6428
 1023MOL0     C34947   7.427   8.601   6.074  0.7769  0.5625 -0.2967
 1023MOL0    Cl34948   7.551   8.731   6.069 -0.2754 -0.0541  0.3347
 1023MOL0     C34949   8.272   8.433   6.587 -0.6127 -0.4015  0.2013
 1023MOL0     C34950   8.413   8.431   6.573  0.0319  0.9158 -0.2526
 1023MOL0     O34951   8.699   8.419   6.639  0.1865  0.6977 -0.4778
 1023MOL0     C34952   8.957   8.372   6.549  0.3555  0.0333  1.6504
 1023MOL0     C34953   9.076   8.369   6.475 -0.2428 -0.6523  0.4582
 1023MOL0     N34954   9.623   8.085   6.281 -0.5732 -0.4370  1.2350
 1023MOL0     N34955   9.747   8.072   6.330 -0.6182  0.3660 -0.0475
 1023MOL0     C34956  10.630   8.696   5.982 -0.2416  0.7704 -0.0634
 1023MOL0     C34957  10.764   8.741   5.983  1.1346 -0.0089  0.5033
 1023MOL0     C34958  11.145   8.913   6.139 -0.0158  0.3083 -1.0646
 1023MOL0     C34959  11.206   8.925   6.017  0.4967  0.0478  0.7219
 1023MOL0     C34960  11.336   8.953   5.996 -0.0195  0.2391 -0.7621
 1023MOL0     C34961  11.417   8.984   6.111 -0.5374 -0.3228  0.1278
 1023MOL0     O34962  11.552   9.017   6.105  0.3255 -0.0125 -0.2620
 1023MOL0     C34963  11.622   9.015   5.976  0.8814  0.7563 -0.5223
 1023MOL0     C34964  11.776   9.016   6.004 -0.3684 -0.0793  0.2823
 1023MOL0     C34965  11.863   9.034   5.877 -0.0776  0.1503  0.8774
 1023MOL0     C34966  12.012   9.045   5.906 -0.5529 -0.5355  0.4942
 1023MOL0     C34967  12.093   9.026   5.790  0.2172  0.0865 -0.9869
 1023MOL0     C34968  12.155   8.994   5.695 -0.0669 -0.0610  0.6346
 1023MOL0     C34969  11.364   8.975   6.243  0.4661 -0.6796  0.2911
 1023MOL0     C34970  11.229   8.942   6.255 -1.2447 -0.5340 -0.0516
 1023MOL0     H34971  10.742   8.982   6.216 -0.9242  0.1197  1.8636
 1023MOL0     H34972  10.511   8.930   6.195  0.4280  0.0960 -1.0050
 1023MOL0     H34973  10.380   8.606   5.889  0.5348  1.3524 -2.5141
 1023MOL0     H34974  10.337   8.771   5.856  1.8432 -0.3986 -0.7323
 1023MOL0     H34975  10.134   8.651   5.882 -0.8786  0.7469  0.0769
 1023MOL0     H34976  10.163   8.770   6.012  0.2565  0.4849  1.3793
 1023MOL0     H34977  10.204   8.610   6.177 -1.6517  2.0614 -0.4891
 1023MOL0     H34978  10.244   8.483   6.058 -1.3210 -2.1990 -0.5799
 1023MOL0     H34979   9.968   8.586   6.092 -0.3104  1.2772  1.5147
 1023MOL0     H34980  10.026   8.446   5.988  0.3299  0.8864  0.9201
 1023MOL0     H34981   9.911   8.400   6.189  0.5479 -1.6635 -0.5965
 1023MOL0     H34982  10.049   8.471   6.293 -0.5522  1.9002 -0.7586
 1023MOL0     H34983  10.202   8.316   6.235 -1.0696 -0.9027  2.9433
 1023MOL0     H34984  10.110   8.247   6.096  0.0671  2.0080 -0.4721
 1023MOL0     H34985  10.164   8.123   6.325  1.2574  1.5970 -0.8188
 1023MOL0     H34986  10.040   8.205   6.396  1.7792 -0.2575  0.5903
 1023MOL0     H34987  10.003   7.973   6.297 -2.0698 -1.6235 -1.6173
 1023MOL0     H34988  10.003   8.047   6.132 -0.9317 -2.1566 -0.5143
 1023MOL0     H34989   9.818   8.189   6.034  1.7145 -0.4282 -0.0622
 1023MOL0     H34990   9.496   8.094   5.996 -2.2995 -0.0718  0.7461
 1023MOL0     H34991   9.560   8.257   5.978 -1.0207 -0.8677 -2.0695
 1023MOL0     H34992   9.392   8.155   6.208  0.1387  2.4795  2.6383
 1023MOL0     H34993   9.323   8.241   6.061  0.4350  0.7445 -0.2148
 1023MOL0     H34994   9.531   8.339   6.261 -0.7424 -0.0138  1.0872
 1023MOL0     H34995   9.439   8.449   6.153  0.4433  0.8744  2.8516
 1023MOL0     H34996   9.326   8.496   6.341  0.6489 -0.8890  3.7503
 1023MOL0     H34997   9.344   8.333   6.402 -0.9067  1.6723  1.3800
 1023MOL0     H34998   8.978   8.293   6.160  1.9517 -1.1631  0.6195
 1023MOL0     H34999   8.765   8.289   6.264 -0.5236 -1.7028  0.8826
 1023MOL0     H35000   8.443   8.159   6.378  1.7555 -0.8402  2.8910
 1023MOL0     H35001   8.183   8.170   6.414  1.5614 -1.2597 -0.7299
 1023MOL0     H35002   8.033   8.534   6.532  2.4323 -1.4169 -0.2722
 1023MOL0     H35003   8.030   8.464   6.694 -0.9607  1.3344  0.0453
 1023MOL0     H35004   7.796   8.484   6.678 -2.8539 -5.3823  0.9703
 1023MOL0     H35005   7.823   8.325   6.619  1.8045 -1.9482 -4.6923
 1023MOL0     H35006   7.813   8.379   6.392 -0.7958  1.5414 -2.6638
 1023MOL0     H35007   7.814   8.552   6.411  0.9766 -0.5640  0.3339
 1023MOL0     H35008   7.611   8.342   6.473 -0.9380  1.1297 -0.2236
 1023MOL0     H35009   7.591   8.504   6.544  0.7414 -2.4927  2.8116
 1023MOL0     H35010   7.558   8.623   6.334  1.0250  0.2342 -0.4356
 1023MOL0     H35011   7.457   8.483   6.346 -1.3295  3.4154  0.0088
 1023MOL0     H35012   7.631   8.355   6.206  0.3710 -0.6663  1.0894
 1023MOL0     H35013   7.702   8.512   6.173  0.5862  1.0268  3.4942
 1023MOL0     H35014   7.554   8.442   5.998  2.6292  1.8539 -0.1189
 1023MOL0     H35015   7.426   8.385   6.108 -0.1171  1.2005  3.2358
 1023MOL0     H35016   7.347   8.620   6.146 -0.2176  1.0048 -1.4688
 1023MOL0     H35017   7.374   8.601   5.978 -0.2127  0.7902  0.2374
 1023MOL0     H35018   8.240   8.517   6.648  3.7204  0.2689  1.9308
 1023MOL0     H35019   8.476   8.501   6.627  1.2556  0.0548 -0.5148
 1023MOL0     H35020   8.950   8.396   6.654 -0.2590 -0.7558  1.7986
 1023MOL0     H35021   9.170   8.390   6.526  0.5161  2.7305 -1.9107
 1023MOL0     H35022  10.594   8.621   5.913 -0.7604  2.8723 -2.2156
 1023MOL0     H35023  10.832   8.699   5.909  0.0639 -0.3314 -0.3203
 1023MOL0     H35024  11.149   8.903   5.927  1.9755 -1.7290  0.1438
 1023MOL0     H35025  11.368   8.959   5.892 -1.4635 -1.5563 -1.3582
 1023MOL0     H35026  11.589   9.099   5.914 -0.3627  0.1754 -0.6749
 1023MOL0     H35027  11.612   8.918   5.927  1.9056 -0.6101  1.8052
 1023MOL0     H35028  11.796   9.102   6.069 -1.3463 -1.7985  3.0687
 1023MOL0     H35029  11.807   8.922   6.052 -0.1939 -1.5878 -2.5805
 1023MOL0     H35030  11.828   9.124   5.825 -1.1432  0.7309  2.5234
 1023MOL0     H35031  11.848   8.954   5.803 -1.2777  1.4793 -0.3766
 1023MOL0     H35032  12.043   9.142   5.945  1.8102  0.2519 -2.9215
 1023MOL0     H35033  12.043   8.972   5.982  3.5746  0.6945  0.2166
 1023MOL0     H35034  12.210   8.963   5.608  0.1396  1.3127  0.2488
 1023MOL0     H35035  11.424   9.011   6.326 -0.8607  0.9065  0.6089
 1023MOL0     H35036  11.185   8.963   6.353  0.3492  2.0287  0.1970
 1024MOL0     O35037   0.255   1.810   0.822  0.6311  0.4097  1.3002
 1024MOL0     C35038   0.313   1.925   0.829 -0.6799 -0.2294 -0.1556
 1024MOL0     O35039   0.273   2.035   0.759  0.4676 -0.1671  0.6697
 1024MOL0     C35040   0.185   2.034   0.651 -0.2539  0.8291 -0.2225
 1024MOL0     C35041   0.102   2.143   0.631  0.0528 -0.1425 -0.2853
 1024MOL0     C35042  -0.001   2.149   0.537  0.1079  0.1062 -0.1588
 1024MOL0     C35043  -0.016   2.038   0.453 -0.6675 -0.8912  0.4298
 1024MOL0     O35044  -0.101   2.046   0.349 -0.3291 -0.7350  0.1174
 1024MOL0     C35045  -0.236   2.104   0.363 -0.9118 -0.5158  0.8930
 1024MOL0     C35046  -0.245   2.240   0.284 -0.8159  0.8550  0.0601
 1024MOL0     C35047  -0.273   2.220   0.137  0.3064  0.0672 -0.6725
 1024MOL0     C35048  -0.170   2.125   0.066  1.5623 -0.0879  0.3189
 1024MOL0     C35049  -0.189   2.129  -0.087 -0.0682 -0.9372  0.3203
 1024MOL0     C35050  -0.079   2.032  -0.139  0.0099  0.3370  0.6114
 1024MOL0     C35051  -0.074   2.006  -0.293 -0.0244 -0.2889  0.3270
 1024MOL0     C35052   0.038   1.916  -0.340 -0.5639  0.4840  0.4158
 1024MOL0     N35053   0.168   1.990  -0.346 -0.2162 -0.9706 -0.1761
 1024MOL0     C35054   0.257   2.014  -0.237  0.5274  0.1053  0.3187
 1024MOL0     C35055   0.353   2.097  -0.287 -0.1014 -0.0372 -0.2373
 1024MOL0     C35056   0.474   2.156  -0.218 -0.5214  0.1806 -0.6975
 1024MOL0     C35057   0.582   2.049  -0.219  0.4095  0.4284  0.1545
 1024MOL0     C35058   0.711   2.106  -0.158  0.4840  0.5836  0.0223
 1024MOL0     C35059   0.821   2.008  -0.148  0.3479 -0.0216  0.6674
 1024MOL0     O35060   0.851   1.941  -0.267 -0.0455  0.1574 -0.3330
 1024MOL0     C35061   0.953   1.967  -0.355 -0.5392  0.0949  0.6332
 1024MOL0     C35062   0.987   1.871  -0.454  0.2696 -0.6816  0.7666
 1024MOL0     C35063   1.078   1.897  -0.557  0.4615 -0.4725 -0.3694
 1024MOL0     C35064   1.139   2.024  -0.560 -0.0034  0.8149  0.2030
 1024MOL0     C35065   1.254   2.045  -0.651  0.1382  0.3674 -0.8134
 1024MOL0     O35066   1.318   2.166  -0.636  1.0948  0.0726 -0.6191
 1024MOL0     C35067   1.441   2.172  -0.700  0.2226  0.2641 -0.2851
 1024MOL0     C35068   1.441   2.179  -0.843  0.1729 -1.0992 -0.6323
 1024MOL0     C35069   1.566   2.188  -0.907  1.2048  0.6947 -0.3619
 1024MOL0     C35070   1.682   2.183  -0.834 -0.5227 -0.9112  0.8163
 1024MOL0     O35071   1.806   2.171  -0.897  0.6963  0.6147 -0.8207
 1024MOL0     C35072   1.822   2.131  -1.034 -0.2012 -1.2929 -0.3918
 1024MOL0     C35073   1.978   2.148  -1.059 -0.2469 -0.5320 -0.0656
 1024MOL0     C35074   2.048   2.278  -1.010  0.3609  0.5209  0.1532
 1024MOL0     C35075   2.196   2.286  -1.055  0.6206  0.6475  0.0022
 1024MOL0     C35076   2.277   2.318  -0.934 -0.2805 -0.1896  0.6055
 1024MOL0     C35077   2.423   2.318  -0.964  0.6809 -0.6697  0.2264
 1024MOL0     C35078   2.516   2.374  -0.859 -0.1721 -0.2358 -0.5081
 1024MOL0     C35079   2.517   2.525  -0.839  1.0329 -0.5314  0.9521
 1024MOL0    Cl35080   2.632   2.567  -0.715 -1.0209  0.1067 -0.1970
 1024MOL0     C35081   1.684   2.178  -0.697 -0.2676  0.6293 -0.2610
 1024MOL0     C35082   1.560   2.170  -0.628 -0.7887  0.6765 -0.0345
 1024MOL0     O35083   1.281   1.955  -0.727  0.2297 -0.3986 -0.1100
 1024MOL0     C35084   1.104   2.120  -0.461 -0.4228 -0.3251  0.1583
 1024MOL0     C35085   1.010   2.093  -0.364  0.4842  0.3125  0.1978
 1024MOL0     N35086   0.324   2.131  -0.415  0.0409  0.4807  0.1068
 1024MOL0     N35087   0.224   2.057  -0.454  0.1486  0.3127 -0.1275
 1024MOL0     C35088   0.066   1.927   0.467 -1.4983 -0.0588  0.9574
 1024MOL0     C35089   0.170   1.924   0.558 -0.6940  0.1679 -0.1030
 1024MOL0     C35090   0.427   1.933   0.919  0.5858  0.2561  0.3134
 1024MOL0     C35091   0.482   2.057   0.951  0.1005  0.3911 -0.1845
 1024MOL0     C35092   0.593   2.075   1.033  0.3662  0.4847 -0.4579
 1024MOL0     C35093   0.632   1.964   1.114  1.0241  0.6764  0.1647
 1024MOL0     O35094   0.743   1.989   1.193  0.1729 -0.0960  0.4142
 1024MOL0     C35095   0.795   1.878   1.275 -0.5047 -0.3405 -0.4739
 1024MOL0     C35096   0.929   1.910   1.353 -0.8022 -0.3934  0.0340
 1024MOL0     C35097   0.995   1.778   1.404  0.0746  0.5631  0.5370
 1024MOL0     C35098   1.117   1.801   1.491  0.3561  0.0526 -0.3274
 1024MOL0     C35099   1.189   1.676   1.531  0.7053  0.8965 -0.7631
 1024MOL0     C35100   1.262   1.577   1.554 -0.1362 -0.3382 -0.0006
 1024MOL0     C35101   0.575   1.836   1.083  0.6070 -0.2418 -0.3102
 1024MOL0     C35102   0.471   1.814   0.985 -0.0354 -0.4910 -0.1423
 1024MOL0     H35103   0.116   2.236   0.685  1.4961 -1.0166  0.9315
 1024MOL0     H35104  -0.064   2.237   0.537  2.2731  1.9477 -4.6174
 1024MOL0     H35105  -0.252   2.131   0.468 -1.4816 -1.8545  1.1794
 1024MOL0     H35106  -0.312   2.038   0.320 -2.4076  2.8712 -2.1525
 1024MOL0     H35107  -0.150   2.292   0.299  0.2787 -0.3345 -2.3037
 1024MOL0     H35108  -0.327   2.303   0.320 -0.5720  1.5208 -0.5345
 1024MOL0     H35109  -0.292   2.314   0.085  0.6708  0.9076  0.6500
 1024MOL0     H35110  -0.371   2.172   0.142 -1.7026  3.8978  1.6762
 1024MOL0     H35111  -0.078   2.175   0.099  0.6206  1.8743  0.1310
 1024MOL0     H35112  -0.175   2.021   0.099 -2.5881  0.0453  0.7099
 1024MOL0     H35113  -0.159   2.228  -0.121  0.0218 -1.5506 -1.5485
 1024MOL0     H35114  -0.293   2.118  -0.119 -0.4689  1.8661  0.4550
 1024MOL0     H35115  -0.107   1.933  -0.101 -2.9737  0.5009 -0.8911
 1024MOL0     H35116   0.015   2.067  -0.095 -0.1666 -1.6696  2.7765
 1024MOL0     H35117  -0.174   1.973  -0.319 -1.8185  2.8509  2.5769
 1024MOL0     H35118  -0.060   2.105  -0.337  1.2452  0.8671  3.1104
 1024MOL0     H35119   0.005   1.863  -0.430 -2.5219 -0.5226  1.6394
 1024MOL0     H35120   0.045   1.829  -0.274  2.0124  0.6552  0.4833
 1024MOL0     H35121   0.253   1.967  -0.139  0.0582  1.3222  0.9024
 1024MOL0     H35122   0.455   2.185  -0.115 -1.1624  1.9597 -1.2834
 1024MOL0     H35123   0.498   2.243  -0.280 -1.8204  0.8493 -0.2843
 1024MOL0     H35124   0.603   2.011  -0.320  2.8245 -0.5083  0.9472
 1024MOL0     H35125   0.529   1.971  -0.163  0.5311 -1.0543 -1.6932
 1024MOL0     H35126   0.747   2.194  -0.213 -0.9239 -0.1294 -2.1628
 1024MOL0     H35127   0.682   2.128  -0.055  0.8059 -0.9015  0.4428
 1024MOL0     H35128   0.808   1.937  -0.066  1.1700 -0.5904  0.3220
 1024MOL0     H35129   0.915   2.058  -0.121  1.8543 -1.4547 -1.5518
 1024MOL0     H35130   0.950   1.769  -0.461  1.4160 -0.9838 -3.1868
 1024MOL0     H35131   1.115   1.825  -0.629  2.8419  0.8955 -0.6507
 1024MOL0     H35132   1.344   2.165  -0.889  0.0925 -1.0231 -0.4860
 1024MOL0     H35133   1.569   2.176  -1.015  0.7289 -2.1940 -0.1188
 1024MOL0     H35134   1.775   2.199  -1.105 -0.2710  0.9953  1.7205
 1024MOL0     H35135   1.783   2.029  -1.046 -0.2282 -1.0892 -2.2125
 1024MOL0     H35136   1.997   2.138  -1.167 -3.5495  0.3658 -0.8490
 1024MOL0     H35137   2.025   2.061  -1.012  3.4044  0.2575 -1.8263
 1024MOL0     H35138   2.036   2.274  -0.902 -1.0589 -2.0224 -0.0436
 1024MOL0     H35139   1.997   2.367  -1.048 -1.1929 -0.3767  0.0661
 1024MOL0     H35140   2.231   2.191  -1.096 -1.3559 -0.3979  0.6180
 1024MOL0     H35141   2.217   2.358  -1.135 -1.2520  1.5475  0.2820
 1024MOL0     H35142   2.260   2.250  -0.849  0.5762 -1.3669 -0.1477
 1024MOL0     H35143   2.249   2.421  -0.907  1.6042 -0.0295  2.1611
 1024MOL0     H35144   2.430   2.373  -1.059 -1.2505 -1.5180 -0.4608
 1024MOL0     H35145   2.452   2.214  -0.977 -0.7511 -1.2622  1.5434
 1024MOL0     H35146   2.487   2.334  -0.762  0.8291  0.7326  0.2126
 1024MOL0     H35147   2.620   2.343  -0.873  0.0019  0.8231 -1.8130
 1024MOL0     H35148   2.419   2.567  -0.815  2.1428  1.3799  2.4213
 1024MOL0     H35149   2.553   2.565  -0.934  0.7542  1.2081  1.5450
 1024MOL0     H35150   1.778   2.158  -0.647  0.7712  0.2056 -2.2958
 1024MOL0     H35151   1.558   2.162  -0.520  1.0038  1.1161  0.0566
 1024MOL0     H35152   1.150   2.218  -0.458  0.8322 -0.8825 -0.3407
 1024MOL0     H35153   0.979   2.165  -0.289 -2.3503  0.0531 -0.6036
 1024MOL0     H35154   0.041   1.843   0.402 -1.3865  1.1223 -0.6888
 1024MOL0     H35155   0.228   1.833   0.569  2.3456  2.0786  0.8517
 1024MOL0     H35156   0.436   2.147   0.911 -1.6526 -0.4036 -0.0497
 1024MOL0     H35157   0.640   2.171   1.052 -1.0892  1.2087 -0.3908
 1024MOL0     H35158   0.808   1.793   1.208 -1.2494 -0.4128 -0.5316
 1024MOL0     H35159   0.718   1.845   1.346 -0.1917  0.5939  0.3258
 1024MOL0     H35160   0.995   1.960   1.281 -0.9862 -0.1471  0.0346
 1024MOL0     H35161   0.901   1.977   1.435 -6.5368  0.0092 -1.8404
 1024MOL0     H35162   1.024   1.727   1.312  0.1017  0.2021  0.7418
 1024MOL0     H35163   0.927   1.713   1.460 -2.2760  1.9467 -0.5717
 1024MOL0     H35164   1.187   1.867   1.440  0.9330  0.7379  1.2747
 1024MOL0     H35165   1.088   1.854   1.582 -0.9101  2.7411 -2.1575
 1024MOL0     H35166   1.331   1.499   1.579  0.6249  0.1946 -0.3800
 1024MOL0     H35167   0.607   1.756   1.149  1.6030  1.0699  0.8478
 1024MOL0     H35168   0.418   1.721   0.967 -0.1262 -0.5075  0.2104
  11.20224  11.20224  11.20224
